FOO
138240
    1MOL0     O    1   5.013   4.130   7.042  0.3868 -0.7236  0.1198
    1MOL0     C    2   5.113   4.063   7.035 -0.1613  0.2302  0.0664
    1MOL0     O    3   5.166   3.996   7.142  0.0008 -0.1808 -1.1822
    1MOL0     C    4   5.085   3.994   7.252 -0.5555 -0.7092 -0.2441
    1MOL0     C    5   5.059   4.112   7.337 -1.1226 -0.0729  0.0857
    1MOL0     C    6   4.981   4.107   7.449  0.8192  0.7669 -0.4963
    1MOL0     C    7   4.907   3.987   7.477  0.6315 -0.6995  0.2069
    1MOL0     O    8   4.809   3.987   7.574  0.1007 -1.3853 -0.1155
    1MOL0     C    9   4.720   3.881   7.599  0.4600  0.4874  0.3085
    1MOL0     C   10   4.602   3.842   7.494  0.1481  0.1290 -0.4062
    1MOL0     C   11   4.525   3.718   7.531  0.1242 -0.0856  0.0522
    1MOL0     C   12   4.397   3.697   7.451  0.1596 -1.2355  0.8178
    1MOL0     C   13   4.313   3.590   7.517  0.6120  0.6307 -0.8467
    1MOL0     C   14   4.347   3.442   7.499  0.2113 -0.3392 -0.8686
    1MOL0     C   15   4.241   3.351   7.559  0.5623  0.0914  0.5470
    1MOL0     C   16   4.292   3.204   7.542 -0.0089  0.0939  0.4789
    1MOL0     N   17   4.175   3.116   7.547 -0.6967 -0.2265  0.0630
    1MOL0     C   18   4.097   3.086   7.653  0.9568  0.4591 -0.3039
    1MOL0     C   19   4.003   2.997   7.593 -0.4748 -0.0095 -0.2815
    1MOL0     C   20   3.900   2.910   7.659  0.8339  0.0266  0.0291
    1MOL0     C   21   3.901   2.920   7.808 -0.2625  0.1958 -0.1162
    1MOL0     C   22   3.780   2.828   7.855  0.3186  0.2350 -0.5401
    1MOL0     C   23   3.780   2.794   8.000  0.5285 -0.5205 -0.2463
    1MOL0     O   24   3.921   2.784   8.047 -0.6104  0.4028  0.4950
    1MOL0     C   25   3.931   2.744   8.177 -0.5181  0.0602  0.2738
    1MOL0     C   26   3.900   2.826   8.284 -0.6940 -0.4489 -1.1076
    1MOL0     C   27   3.931   2.776   8.415  0.5554 -0.0665 -0.2896
    1MOL0     C   28   3.970   2.645   8.440 -0.9148 -0.0631 -0.4679
    1MOL0     C   29   3.967   2.595   8.582  0.0237 -0.4779 -0.1049
    1MOL0     O   30   4.031   2.478   8.617 -0.1946 -0.0581  0.6140
    1MOL0     C   31   4.039   2.458   8.750  0.8300  0.1825 -0.5959
    1MOL0     C   32   4.131   2.544   8.809 -0.1184 -0.0003 -0.1989
    1MOL0     C   33   4.149   2.546   8.952  0.2235 -0.5690 -0.5246
    1MOL0     C   34   4.087   2.448   9.036 -0.3203  0.0229 -0.1914
    1MOL0     O   35   4.109   2.462   9.171 -0.3085 -0.5061  0.4101
    1MOL0     C   36   4.024   2.396   9.261 -0.2991  0.4240  0.6939
    1MOL0     C   37   4.078   2.408   9.401 -0.8427 -0.0310 -0.8338
    1MOL0     C   38   3.983   2.349   9.500 -0.3790  0.0512 -0.3412
    1MOL0     C   39   4.024   2.377   9.642  0.1307 -0.7919 -0.7932
    1MOL0     C   40   3.945   2.313   9.755  0.5249 -0.5414  0.1583
    1MOL0     C   41   3.817   2.397   9.782 -0.0323 -0.8204  0.0946
    1MOL0     C   42   3.746   2.356   9.909  0.0901  0.7666 -0.9986
    1MOL0     C   43   3.622   2.431   9.938 -0.1701  0.1824 -0.5271
    1MOL0    Cl   44   3.672   2.589   9.997  0.2235  0.4773  0.0460
    1MOL0     C   45   4.011   2.345   8.969 -0.7772  0.5518 -0.1983
    1MOL0     C   46   3.974   2.355   8.835  0.2899 -0.4918 -0.1324
    1MOL0     O   47   3.894   2.658   8.658  1.0111  0.1882  0.4380
    1MOL0     C   48   4.006   2.567   8.329 -0.7926  0.7252 -0.2514
    1MOL0     C   49   3.985   2.616   8.202  0.7234  0.2790 -0.3548
    1MOL0     N   50   4.013   3.000   7.457  0.0971 -0.5630  0.5336
    1MOL0     N   51   4.125   3.060   7.429 -0.1709 -0.7768  0.3372
    1MOL0     C   52   4.926   3.870   7.391 -0.0895 -0.3022 -0.3647
    1MOL0     C   53   5.014   3.878   7.277 -0.2054 -0.1835 -0.0435
    1MOL0     C   54   5.185   4.062   6.903 -0.4744 -0.6870 -0.1656
    1MOL0     C   55   5.120   4.068   6.785 -0.1712  0.1442 -0.0460
    1MOL0     C   56   5.182   4.055   6.665 -0.4555  0.3501 -0.1691
    1MOL0     C   57   5.322   4.063   6.665 -0.3799  0.8101  0.1109
    1MOL0     O   58   5.375   4.057   6.538 -0.3977 -0.3702 -0.4316
    1MOL0     C   59   5.515   4.027   6.527  0.5803  0.3095  0.2960
    1MOL0     C   60   5.567   4.015   6.378 -0.2461  0.7781  0.1080
    1MOL0     C   61   5.558   4.142   6.290  1.2332  0.0419  0.4505
    1MOL0     C   62   5.493   4.113   6.150  0.7507  0.2100  0.0700
    1MOL0     C   63   5.559   4.010   6.075  0.4686  0.7464 -0.3245
    1MOL0     C   64   5.602   3.929   6.000  0.3006  0.7523  0.2347
    1MOL0     C   65   5.389   4.062   6.783 -0.0470  0.1253  0.0676
    1MOL0     C   66   5.329   4.062   6.906  0.3129 -0.6387  0.6822
    1MOL0     C   67   5.414   4.097   7.026  0.9595  1.1936  0.0506
    1MOL0     H   68   5.102   4.208   7.314 -1.6365  0.0759 -0.2582
    1MOL0     H   69   4.961   4.197   7.506 -0.1566 -0.0050  0.4196
    1MOL0     H   70   4.780   3.793   7.623 -1.5504 -0.8342  0.7261
    1MOL0     H   71   4.676   3.904   7.697  0.2392 -0.1418  0.3613
    1MOL0     H   72   4.656   3.818   7.402 -1.6836  0.9687 -1.7433
    1MOL0     H   73   4.539   3.930   7.478 -0.3664 -0.5359 -2.3124
    1MOL0     H   74   4.497   3.714   7.636  1.3605 -1.0025  0.3693
    1MOL0     H   75   4.581   3.627   7.506 -0.6628 -0.8076  0.8808
    1MOL0     H   76   4.336   3.788   7.439  2.7275  0.6683  1.3159
    1MOL0     H   77   4.428   3.655   7.355  1.0156 -0.8257  0.9051
    1MOL0     H   78   4.296   3.619   7.621 -1.8723 -2.1512 -0.3521
    1MOL0     H   79   4.215   3.598   7.467 -1.9229 -1.5882  3.2320
    1MOL0     H   80   4.363   3.435   7.391  2.8095 -2.0533 -0.4714
    1MOL0     H   81   4.443   3.422   7.547 -0.9764  0.0638  1.8642
    1MOL0     H   82   4.144   3.370   7.513  0.4783 -1.4386  0.0162
    1MOL0     H   83   4.238   3.388   7.662  0.4455  0.2313  0.4924
    1MOL0     H   84   4.332   3.194   7.441 -0.0584  1.3043  0.3309
    1MOL0     H   85   4.366   3.171   7.615 -1.0773 -2.2272  0.6107
    1MOL0     H   86   4.106   3.106   7.759  1.0993  2.5507 -0.6613
    1MOL0     H   87   3.804   2.947   7.623  1.2645  0.8158 -0.3291
    1MOL0     H   88   3.910   2.808   7.622  1.1719  0.5895 -1.5166
    1MOL0     H   89   3.995   2.879   7.846 -0.8754 -1.5258 -0.3815
    1MOL0     H   90   3.900   3.027   7.832  3.1366  0.2619  0.2833
    1MOL0     H   91   3.792   2.735   7.798 -0.6353  1.4118 -2.8164
    1MOL0     H   92   3.684   2.874   7.832 -0.3142 -1.4061 -1.4200
    1MOL0     H   93   3.723   2.704   8.024 -0.7585  0.3410  0.0583
    1MOL0     H   94   3.741   2.885   8.048 -0.6225 -0.6819 -0.8487
    1MOL0     H   95   3.862   2.925   8.258 -1.1887 -0.8337 -1.8710
    1MOL0     H   96   3.915   2.851   8.492 -0.2460  0.3447 -0.8386
    1MOL0     H   97   4.180   2.623   8.752 -0.0627  1.3311  1.5936
    1MOL0     H   98   4.215   2.618   8.999 -0.6884  0.6904 -1.1144
    1MOL0     H   99   3.922   2.435   9.258 -0.9244 -1.1825 -0.7343
    1MOL0     H  100   4.013   2.289   9.242 -0.3426  0.1822  1.9878
    1MOL0     H  101   4.180   2.369   9.404  0.1055  2.3077 -0.2580
    1MOL0     H  102   4.106   2.510   9.431  3.3093 -0.9777 -1.0081
    1MOL0     H  103   3.883   2.389   9.484  0.0237  1.2715  0.1059
    1MOL0     H  104   3.972   2.241   9.485  0.4674 -0.0736 -0.1106
    1MOL0     H  105   4.023   2.485   9.661 -0.9819 -1.1513  1.6111
    1MOL0     H  106   4.128   2.349   9.660 -0.1021 -1.0621  0.2277
    1MOL0     H  107   4.001   2.319   9.849 -0.6539 -0.6730  0.8784
    1MOL0     H  108   3.917   2.208   9.740  0.1197 -0.8535  2.7703
    1MOL0     H  109   3.852   2.499   9.796 -0.9533 -0.2838 -1.2445
    1MOL0     H  110   3.746   2.388   9.699  2.1993 -0.8568 -1.9212
    1MOL0     H  111   3.809   2.353   9.999 -0.9438 -2.6036 -0.2345
    1MOL0     H  112   3.714   2.253   9.893  2.2795  0.0870 -1.3047
    1MOL0     H  113   3.556   2.431   9.851  0.8874  0.2049 -1.3480
    1MOL0     H  114   3.571   2.365  10.008 -2.7812 -1.1930 -3.4917
    1MOL0     H  115   3.985   2.260   9.031  1.3723  0.0642  0.1374
    1MOL0     H  116   3.902   2.283   8.798 -0.4964 -0.1892  0.7784
    1MOL0     H  117   4.041   2.464   8.336  0.3240  1.1966  2.8246
    1MOL0     H  118   4.005   2.555   8.115 -3.5735  0.0367 -1.4093
    1MOL0     H  119   4.870   3.781   7.418 -2.4939  2.1048  3.5168
    1MOL0     H  120   5.034   3.793   7.212  2.3619 -1.3478  2.0787
    1MOL0     H  121   5.012   4.076   6.775  0.1876  2.1295 -5.1807
    1MOL0     H  122   5.127   4.060   6.572  0.0303 -2.9224 -0.7689
    1MOL0     H  123   5.530   3.926   6.567  1.8957  0.7634  1.0107
    1MOL0     H  124   5.576   4.099   6.583 -1.8710  2.3174  0.5719
    1MOL0     H  125   5.542   3.919   6.334  4.2206 -0.8407  0.5750
    1MOL0     H  126   5.674   3.992   6.388 -0.6671 -3.5081 -2.7169
    1MOL0     H  127   5.661   4.177   6.281  0.6928  2.0144  1.3784
    1MOL0     H  128   5.507   4.220   6.348 -0.8084 -1.1190  0.3248
    1MOL0     H  129   5.395   4.067   6.165  2.0987 -3.1774 -0.6233
    1MOL0     H  130   5.483   4.206   6.094  1.3935  0.1566 -0.1446
    1MOL0     H  131   5.645   3.877   5.917  1.1922 -0.9488  1.6868
    1MOL0     H  132   5.497   4.073   6.792 -0.1188 -0.0506  1.4567
    1MOL0     H  133   5.392   4.198   7.061 -2.7310  1.0464 -1.4245
    1MOL0     H  134   5.392   4.040   7.117  0.7205 -2.3489 -2.0480
    1MOL0     H  135   5.522   4.108   7.009  0.5706  3.2544 -1.4441
    2MOL0     O  136   9.500   7.463   2.208 -0.3540 -0.0043 -0.9517
    2MOL0     C  137   9.484   7.386   2.110  0.2636  0.3398 -0.2771
    2MOL0     O  138   9.508   7.428   1.985 -0.0199  0.3825  0.0930
    2MOL0     C  139   9.547   7.555   1.973  0.3102 -0.4514  0.2127
    2MOL0     C  140   9.683   7.588   1.960  0.6268 -0.3220  0.1788
    2MOL0     C  141   9.718   7.724   1.959  0.1065 -1.2752 -0.2470
    2MOL0     C  142   9.623   7.829   1.981  0.4455  0.0425 -0.0911
    2MOL0     O  143   9.656   7.957   2.001  0.9422 -0.2697  0.2850
    2MOL0     C  144   9.758   8.017   1.923  0.0875  0.3004 -0.4221
    2MOL0     C  145   9.740   8.163   1.887  0.0994 -0.7603  0.1591
    2MOL0     C  146   9.627   8.188   1.779  0.2765 -0.4655 -0.5649
    2MOL0     C  147   9.502   8.241   1.852 -0.4575  0.9466  0.2262
    2MOL0     C  148   9.376   8.227   1.768 -0.5714 -0.0655  0.1875
    2MOL0     C  149   9.276   8.317   1.837 -0.0204  0.5499  0.6354
    2MOL0     C  150   9.137   8.288   1.776 -0.1756  0.1229 -0.4005
    2MOL0     C  151   9.018   8.366   1.835  0.0030  0.4007  0.9510
    2MOL0     N  152   9.006   8.352   1.975  0.5804 -0.9437 -0.5844
    2MOL0     C  153   8.906   8.286   2.037 -0.2122  0.1948  0.4383
    2MOL0     C  154   8.920   8.316   2.168 -0.6559  0.0197  0.5925
    2MOL0     C  155   8.831   8.269   2.277  1.7474 -0.5079  0.7703
    2MOL0     C  156   8.755   8.388   2.338 -0.1451 -0.3398  0.3667
    2MOL0     C  157   8.821   8.443   2.468  0.1204 -0.2880  0.3201
    2MOL0     C  158   8.795   8.586   2.497  0.1702 -0.8009  0.1918
    2MOL0     O  159   8.849   8.607   2.623 -0.2005  0.8150 -0.5330
    2MOL0     C  160   8.836   8.741   2.678  0.0102 -0.3191 -0.0190
    2MOL0     C  161   8.915   8.771   2.791  0.3217  0.3007  0.3372
    2MOL0     C  162   8.926   8.898   2.842  0.1302  0.3843 -0.3006
    2MOL0     C  163   8.844   9.004   2.790  0.5374 -0.1820  0.0576
    2MOL0     C  164   8.844   9.135   2.855 -0.1037  0.0113  1.1843
    2MOL0     O  165   8.924   9.159   2.967  0.2817  0.0661 -0.2659
    2MOL0     C  166   8.891   9.280   3.030 -1.1936 -0.9749  0.5335
    2MOL0     C  167   8.984   9.383   3.049  0.0900 -0.3541  0.0256
    2MOL0     C  168   8.948   9.510   3.113  0.0762 -0.0457  0.7215
    2MOL0     C  169   8.819   9.524   3.163 -0.0327 -0.8469  0.0426
    2MOL0     O  170   8.768   9.637   3.227 -0.2877 -0.2577 -0.5274
    2MOL0     C  171   8.798   9.767   3.162 -0.7775 -0.6372 -0.6921
    2MOL0     C  172   8.690   9.853   3.219  0.0310 -0.5197  1.1238
    2MOL0     C  173   8.708   9.941   3.338  0.0832  0.0304 -0.6531
    2MOL0     C  174   8.804  10.060   3.310 -0.7087  0.0813  0.5991
    2MOL0     C  175   8.941  10.044   3.389 -0.0955 -0.0350 -0.4885
    2MOL0     C  176   9.039  10.162   3.362 -0.0109  0.1634 -0.5439
    2MOL0     C  177   9.110  10.162   3.229  0.1734 -0.0896  0.0539
    2MOL0     C  178   9.222  10.258   3.222  0.0064  0.3050 -0.2868
    2MOL0    Cl  179   9.284  10.258   3.056 -0.0056  0.4457  0.2209
    2MOL0     C  180   8.721   9.438   3.136 -0.4144  0.4641  0.2817
    2MOL0     C  181   8.764   9.316   3.082  0.2173  0.2914  0.1079
    2MOL0     O  182   8.758   9.210   2.813  0.7657 -0.6854  1.1753
    2MOL0     C  183   8.751   8.967   2.685  0.2939 -0.6773 -0.1815
    2MOL0     C  184   8.755   8.841   2.627  0.2494 -0.8466  1.0256
    2MOL0     N  185   9.025   8.397   2.184  0.5686  0.1890  0.7080
    2MOL0     N  186   9.077   8.424   2.070  0.5681  0.4098  0.4655
    2MOL0     C  187   9.487   7.792   1.992 -0.3810 -0.3970 -0.5314
    2MOL0     C  188   9.450   7.654   1.990 -0.3578 -0.3014  0.2005
    2MOL0     C  189   9.428   7.246   2.140 -0.0979  0.6981  0.4712
    2MOL0     C  190   9.484   7.177   2.247 -1.4681  0.8374 -0.3948
    2MOL0     C  191   9.444   7.049   2.284 -0.4754  0.3342  0.0995
    2MOL0     C  192   9.333   6.995   2.222 -0.6045 -0.7854 -0.1602
    2MOL0     O  193   9.293   6.874   2.265 -0.6119 -0.2479 -0.0386
    2MOL0     C  194   9.198   6.871   2.364 -0.3099 -0.5577 -0.7304
    2MOL0     C  195   9.055   6.847   2.307  0.1889  0.4350 -0.1985
    2MOL0     C  196   9.051   6.725   2.209  0.4774 -0.4795 -0.2949
    2MOL0     C  197   9.044   6.589   2.292  0.2317  0.8247  0.1467
    2MOL0     C  198   8.908   6.590   2.354  0.1991 -0.4904 -0.5449
    2MOL0     C  199   8.799   6.601   2.411  0.0684 -0.7159 -0.9657
    2MOL0     C  200   9.273   7.060   2.113 -0.2263  0.0245 -0.0977
    2MOL0     C  201   9.323   7.187   2.076  0.3295  0.0357  0.9031
    2MOL0     C  202   9.255   7.246   1.960 -0.1106 -0.4213  0.2360
    2MOL0     H  203   9.768   7.523   1.944  0.9478 -0.1851  1.2157
    2MOL0     H  204   9.825   7.729   1.945 -0.1504 -0.7215 -2.2965
    2MOL0     H  205   9.852   8.001   1.975 -0.0296 -0.4943 -0.4419
    2MOL0     H  206   9.768   7.966   1.827 -1.4542  0.4545 -0.6927
    2MOL0     H  207   9.837   8.198   1.852 -0.6527  4.5606  2.3721
    2MOL0     H  208   9.717   8.222   1.976  0.2571  0.3098 -0.4912
    2MOL0     H  209   9.592   8.099   1.725 -2.9291  0.5391 -0.3286
    2MOL0     H  210   9.656   8.263   1.705  1.1583 -0.2601 -0.0269
    2MOL0     H  211   9.480   8.185   1.944  0.8603 -2.9283 -1.5822
    2MOL0     H  212   9.522   8.343   1.885 -0.0975  0.4104  1.7673
    2MOL0     H  213   9.389   8.257   1.664  1.7291 -0.1393  0.4038
    2MOL0     H  214   9.343   8.122   1.769 -0.0444 -0.2735 -1.4964
    2MOL0     H  215   9.273   8.285   1.942 -1.7122 -3.6508 -0.4904
    2MOL0     H  216   9.307   8.421   1.826  1.1200  0.1186 -0.4333
    2MOL0     H  217   9.122   8.183   1.800  2.0591 -0.0460  0.6185
    2MOL0     H  218   9.143   8.298   1.667  2.0992 -1.5030 -0.4894
    2MOL0     H  219   9.044   8.469   1.810  1.1806 -0.4499 -1.7059
    2MOL0     H  220   8.926   8.334   1.784 -0.3379 -3.3762  3.4924
    2MOL0     H  221   8.831   8.220   1.994 -0.1312 -0.9151  1.9178
    2MOL0     H  222   8.754   8.204   2.235  1.9718 -0.8603  0.9057
    2MOL0     H  223   8.893   8.210   2.345  3.2688  0.8433  0.6146
    2MOL0     H  224   8.744   8.467   2.263  1.5348  0.6340  1.0922
    2MOL0     H  225   8.655   8.349   2.360 -0.1145 -2.4952 -2.6608
    2MOL0     H  226   8.930   8.438   2.460  0.0717 -2.3016  0.4385
    2MOL0     H  227   8.789   8.380   2.551 -2.8837  0.9193  0.2284
    2MOL0     H  228   8.686   8.597   2.499  0.2623  0.2008  0.3589
    2MOL0     H  229   8.836   8.646   2.415 -1.1440  0.0537  0.1220
    2MOL0     H  230   8.978   8.691   2.829  1.2041  1.8789  2.3917
    2MOL0     H  231   8.997   8.918   2.922  1.2096 -0.4244 -1.0388
    2MOL0     H  232   9.084   9.359   3.013  1.0043  0.2308  2.0561
    2MOL0     H  233   9.010   9.597   3.134 -2.8031  2.2583  0.3951
    2MOL0     H  234   8.896   9.812   3.183  1.3202 -4.3272 -1.6001
    2MOL0     H  235   8.800   9.754   3.053  2.2130 -1.4462 -0.6239
    2MOL0     H  236   8.670   9.920   3.135  0.3026 -1.4316  0.3154
    2MOL0     H  237   8.605   9.784   3.230  3.0331 -4.9587 -0.6027
    2MOL0     H  238   8.610   9.989   3.353  0.6622  1.2436 -0.6695
    2MOL0     H  239   8.740   9.887   3.427  0.3197  0.4546 -0.4782
    2MOL0     H  240   8.753  10.149   3.345  0.1322 -0.3522  3.1099
    2MOL0     H  241   8.827  10.064   3.203 -0.1088 -0.4637  0.6941
    2MOL0     H  242   8.982   9.945   3.371 -2.7531 -1.1194 -1.0426
    2MOL0     H  243   8.911  10.046   3.494  1.0115  2.8877 -0.1242
    2MOL0     H  244   8.990  10.259   3.371  1.1642  0.8063 -0.8901
    2MOL0     H  245   9.120  10.168   3.434  1.3835  1.6328 -2.1504
    2MOL0     H  246   9.038  10.180   3.148  1.5422  0.2092 -1.1236
    2MOL0     H  247   9.155  10.065   3.207  1.3760  0.5716 -0.4460
    2MOL0     H  248   9.202  10.364   3.238 -0.7268  0.0252  0.7570
    2MOL0     H  249   9.299  10.225   3.292 -0.7877  0.0103  0.4760
    2MOL0     H  250   8.615   9.448   3.159 -0.0571  1.4626  1.5647
    2MOL0     H  251   8.691   9.238   3.066  0.6660  0.2254 -1.8748
    2MOL0     H  252   8.684   9.039   2.639 -1.1816 -1.8850  0.0330
    2MOL0     H  253   8.677   8.826   2.553 -1.0458  2.7291  1.4643
    2MOL0     H  254   9.407   7.865   2.001 -1.0292 -0.9304 -1.7749
    2MOL0     H  255   9.349   7.619   2.006 -0.1268 -0.2122  2.1159
    2MOL0     H  256   9.562   7.225   2.305 -3.7775  2.9763  1.1610
    2MOL0     H  257   9.495   7.005   2.369  1.6921  1.7418 -0.3973
    2MOL0     H  258   9.185   6.965   2.419  0.6956  0.0101 -1.4276
    2MOL0     H  259   9.237   6.797   2.435  0.9496 -1.4681 -2.3010
    2MOL0     H  260   9.017   6.940   2.264  1.1405  0.1981 -1.6425
    2MOL0     H  261   8.992   6.826   2.394  3.8208 -1.3313  2.2484
    2MOL0     H  262   9.141   6.728   2.146  0.0041  2.3368 -0.9553
    2MOL0     H  263   8.971   6.736   2.136 -0.7565 -0.8896  0.9577
    2MOL0     H  264   9.068   6.499   2.235  1.2979  0.3675  1.2662
    2MOL0     H  265   9.130   6.594   2.359  1.2849  0.6253 -1.1461
    2MOL0     H  266   8.701   6.619   2.450 -0.5341 -2.6079 -1.5035
    2MOL0     H  267   9.186   7.009   2.072 -1.0875 -0.3498  2.0726
    2MOL0     H  268   9.299   7.333   1.910 -1.0997 -0.7535 -1.2803
    2MOL0     H  269   9.240   7.164   1.889 -0.6934  0.2789 -0.4703
    2MOL0     H  270   9.156   7.282   1.992  0.1076  1.9333 -1.4741
    3MOL0     O  271   3.446   6.962   2.675 -0.9826 -0.6921  0.2031
    3MOL0     C  272   3.338   6.906   2.668 -0.4235  0.4665  0.0389
    3MOL0     O  273   3.318   6.773   2.653  0.9359 -0.8339  0.1594
    3MOL0     C  274   3.190   6.730   2.682  0.6172  0.3948  0.2933
    3MOL0     C  275   3.165   6.693   2.814  0.3646  0.6277 -0.1367
    3MOL0     C  276   3.053   6.619   2.853  0.1656  0.0437 -0.0669
    3MOL0     C  277   2.948   6.624   2.754 -0.3894 -0.2361 -0.7854
    3MOL0     O  278   2.833   6.578   2.800  0.5324 -0.0699 -0.4263
    3MOL0     C  279   2.725   6.511   2.717  0.3250  0.5351  0.4806
    3MOL0     C  280   2.622   6.469   2.827  0.4150  0.2597 -0.2572
    3MOL0     C  281   2.560   6.599   2.897  0.6398  1.1464  0.9131
    3MOL0     C  282   2.442   6.644   2.802  0.4817  0.6595 -0.2648
    3MOL0     C  283   2.362   6.742   2.895 -0.2639  0.5786  0.7592
    3MOL0     C  284   2.255   6.822   2.816 -0.7234  0.3666  0.5403
    3MOL0     C  285   2.150   6.720   2.778  0.2936 -0.2101  0.6361
    3MOL0     C  286   2.022   6.776   2.723 -0.4237  0.0711  0.3070
    3MOL0     N  287   2.030   6.880   2.616 -0.8844 -0.3981 -0.0706
    3MOL0     C  288   2.124   6.895   2.512  0.6721  0.1704  0.3292
    3MOL0     C  289   2.090   7.001   2.447 -0.1432 -0.1879  0.2009
    3MOL0     C  290   2.170   7.062   2.333 -0.5968  0.2820  0.5101
    3MOL0     C  291   2.324   7.069   2.357  0.6124  0.2500  0.3918
    3MOL0     C  292   2.367   7.173   2.459  0.7242 -0.2852 -0.0242
    3MOL0     C  293   2.509   7.216   2.436  0.2721 -0.3808 -0.0086
    3MOL0     O  294   2.579   7.096   2.465  0.8899  0.2779 -0.7664
    3MOL0     C  295   2.609   7.073   2.596  0.6195 -0.8183  0.1662
    3MOL0     C  296   2.708   6.974   2.613 -0.6383  0.2406 -0.1013
    3MOL0     C  297   2.758   6.937   2.737 -0.0259 -0.8222 -1.5982
    3MOL0     C  298   2.706   6.994   2.852  0.3988 -0.4086 -0.0752
    3MOL0     C  299   2.747   6.963   2.985  0.5834 -0.1733 -0.6770
    3MOL0     O  300   2.854   6.878   2.987  0.1637  0.3796  0.3355
    3MOL0     C  301   2.863   6.804   3.103  0.2136  0.0577 -0.1553
    3MOL0     C  302   2.980   6.790   3.169 -0.4872  0.8401  0.3969
    3MOL0     C  303   2.998   6.697   3.277  0.6762 -0.0890 -0.2051
    3MOL0     C  304   2.893   6.618   3.311  0.1135  0.5580  1.0662
    3MOL0     O  305   2.903   6.533   3.411 -0.2818  0.2770  0.5599
    3MOL0     C  306   2.885   6.400   3.371  0.2275 -0.3191  0.2235
    3MOL0     C  307   3.013   6.340   3.314 -0.6713 -0.1625  0.7443
    3MOL0     C  308   2.975   6.222   3.220 -0.0639 -0.1600  0.3281
    3MOL0     C  309   3.104   6.185   3.138  0.3776  0.3754 -0.6116
    3MOL0     C  310   3.208   6.126   3.229  0.1017  0.4099 -0.2540
    3MOL0     C  311   3.321   6.060   3.145 -0.2724  0.2346  0.6715
    3MOL0     C  312   3.442   6.030   3.229  0.4178 -0.7375 -0.5830
    3MOL0     C  313   3.564   5.975   3.153 -0.1713 -0.2838 -0.1978
    3MOL0    Cl  314   3.716   5.963   3.261  0.0390 -0.0840  0.3005
    3MOL0     C  315   2.774   6.634   3.250  0.9390 -0.2910  0.0868
    3MOL0     C  316   2.756   6.729   3.149  0.7123 -0.2012 -0.1378
    3MOL0     O  317   2.683   7.005   3.086 -0.0638 -0.1504 -0.1024
    3MOL0     C  318   2.601   7.092   2.838  0.6769 -0.2516  0.0191
    3MOL0     C  319   2.562   7.136   2.714 -0.2889  0.4136  0.3003
    3MOL0     N  320   1.983   7.048   2.518 -0.6635 -0.6655  0.1118
    3MOL0     N  321   1.947   6.979   2.613  0.8871 -0.0643 -0.1928
    3MOL0     C  322   2.967   6.668   2.625 -0.9359  0.0583 -0.0536
    3MOL0     C  323   3.092   6.709   2.586 -0.3403 -0.5043  0.6453
    3MOL0     C  324   3.226   7.010   2.673  0.7317  0.3711  0.6107
    3MOL0     C  325   3.176   7.051   2.804  0.4699 -1.0120  0.0164
    3MOL0     C  326   3.074   7.145   2.812  0.0324  0.3560  0.3000
    3MOL0     C  327   3.014   7.192   2.701  0.0506  0.2332 -0.0968
    3MOL0     O  328   2.923   7.306   2.699  0.0663 -0.0886  0.8316
    3MOL0     C  329   2.875   7.358   2.821 -0.2590 -0.4170  0.1654
    3MOL0     C  330   2.809   7.491   2.807 -0.6000 -0.2068  0.4332
    3MOL0     C  331   2.666   7.485   2.761 -0.0362 -0.6153 -0.3983
    3MOL0     C  332   2.606   7.617   2.734  0.1541  0.1522  0.0811
    3MOL0     C  333   2.553   7.682   2.854 -0.1393  0.4348  0.4827
    3MOL0     C  334   2.527   7.742   2.955  0.1235  0.5790  0.1390
    3MOL0     C  335   3.060   7.141   2.577  0.3851 -0.0513 -0.1579
    3MOL0     C  336   3.166   7.056   2.555  0.3395 -0.1206 -0.6372
    3MOL0     C  337   3.213   7.010   2.418  0.0044 -0.2706 -0.1502
    3MOL0     H  338   3.248   6.704   2.883  1.8032 -0.6903 -1.5728
    3MOL0     H  339   3.042   6.581   2.954 -0.5619  0.2744 -0.0475
    3MOL0     H  340   2.683   6.582   2.645  2.8015  4.6528  2.6456
    3MOL0     H  341   2.760   6.419   2.671 -1.1652 -0.5129  1.3796
    3MOL0     H  342   2.663   6.419   2.915 -2.9334 -0.8026  0.8853
    3MOL0     H  343   2.547   6.405   2.779 -0.1426  0.3892  0.4273
    3MOL0     H  344   2.641   6.672   2.907  2.3966 -0.7151  0.9159
    3MOL0     H  345   2.515   6.575   2.993 -2.7877  0.2586 -0.7506
    3MOL0     H  346   2.478   6.702   2.717  0.2893  1.1330 -0.0258
    3MOL0     H  347   2.374   6.563   2.773 -0.8242  1.7891 -0.5196
    3MOL0     H  348   2.318   6.689   2.980 -0.2073  0.0993  0.4888
    3MOL0     H  349   2.434   6.819   2.926 -0.2717  1.4562 -1.2618
    3MOL0     H  350   2.208   6.896   2.881  0.3194  0.4242  1.2378
    3MOL0     H  351   2.294   6.866   2.724 -1.5521  1.8033  0.8437
    3MOL0     H  352   2.125   6.667   2.871 -0.5853 -0.4339  0.2780
    3MOL0     H  353   2.183   6.642   2.709  0.1597  0.3381 -0.0535
    3MOL0     H  354   1.961   6.695   2.684 -1.2105  1.5934 -1.7799
    3MOL0     H  355   1.967   6.822   2.806 -0.9547 -1.2133  0.6897
    3MOL0     H  356   2.204   6.829   2.480  0.3594 -0.1522  0.2160
    3MOL0     H  357   2.156   7.004   2.241 -2.0229 -0.8993  1.4180
    3MOL0     H  358   2.131   7.160   2.305 -1.1523 -0.2757 -0.7724
    3MOL0     H  359   2.368   6.970   2.374  0.8195  0.2010 -0.3782
    3MOL0     H  360   2.373   7.102   2.265  2.0416 -0.7827  0.7287
    3MOL0     H  361   2.341   7.139   2.560  0.6061 -2.3187 -0.6881
    3MOL0     H  362   2.299   7.257   2.444 -1.7807 -2.4132 -1.3808
    3MOL0     H  363   2.540   7.303   2.494 -0.8217  1.6294 -2.2678
    3MOL0     H  364   2.516   7.246   2.331  1.3156 -1.4589 -0.2658
    3MOL0     H  365   2.748   6.915   2.531 -3.3519  0.2023 -1.5208
    3MOL0     H  366   2.833   6.860   2.754 -0.7336 -1.3011 -0.5508
    3MOL0     H  367   3.065   6.849   3.136 -1.0621  0.5425 -1.8164
    3MOL0     H  368   3.086   6.678   3.337  0.7042 -0.3951 -0.3424
    3MOL0     H  369   2.846   6.346   3.457  0.2957  0.4482  0.7441
    3MOL0     H  370   2.808   6.386   3.295  2.7427 -2.2439 -2.1702
    3MOL0     H  371   3.066   6.417   3.257 -0.3468 -0.3393  0.8033
    3MOL0     H  372   3.082   6.305   3.392 -2.8385  0.2659  2.9720
    3MOL0     H  373   2.937   6.140   3.283  2.0127 -1.0643  0.4885
    3MOL0     H  374   2.899   6.263   3.153 -0.4063  0.2477  0.9608
    3MOL0     H  375   3.128   6.269   3.073 -3.2325  1.8213 -0.3191
    3MOL0     H  376   3.077   6.112   3.062  1.2389 -0.0492 -0.5274
    3MOL0     H  377   3.169   6.049   3.296  3.3704  0.6316  2.1118
    3MOL0     H  378   3.249   6.216   3.276 -0.9809  1.1488 -0.6764
    3MOL0     H  379   3.285   5.969   3.096 -0.1625 -0.1158  1.2323
    3MOL0     H  380   3.358   6.134   3.073 -1.6885 -0.3315 -0.6948
    3MOL0     H  381   3.411   5.980   3.321  0.2849  0.2490 -0.0751
    3MOL0     H  382   3.498   6.115   3.269  3.8871 -2.9273 -0.3637
    3MOL0     H  383   3.533   5.873   3.127  3.9922 -1.7221 -0.1488
    3MOL0     H  384   3.585   6.040   3.068  0.2791  2.0969  1.6230
    3MOL0     H  385   2.686   6.575   3.275  0.0955  1.6799  2.1272
    3MOL0     H  386   2.655   6.749   3.114  0.5298  1.4941  1.2175
    3MOL0     H  387   2.562   7.151   2.921  0.6943 -0.3908  0.1255
    3MOL0     H  388   2.498   7.222   2.704 -0.3869  0.6065  2.2417
    3MOL0     H  389   2.882   6.657   2.558  0.0007  0.5542 -1.3586
    3MOL0     H  390   3.099   6.732   2.480  1.4789 -0.2367  0.7907
    3MOL0     H  391   3.228   7.015   2.892  3.4359  4.3999  0.9399
    3MOL0     H  392   3.049   7.184   2.910 -1.8322  0.2864 -0.1219
    3MOL0     H  393   2.937   7.375   2.909 -3.3286 -0.3457  2.4871
    3MOL0     H  394   2.793   7.293   2.853 -0.2515  0.5391  2.2451
    3MOL0     H  395   2.865   7.546   2.730 -0.1409 -2.5375 -1.0258
    3MOL0     H  396   2.811   7.540   2.904 -0.6684  3.7145 -1.3579
    3MOL0     H  397   2.601   7.432   2.832  3.0820 -2.9332  0.9701
    3MOL0     H  398   2.653   7.424   2.671 -1.5315 -0.3096 -0.4156
    3MOL0     H  399   2.686   7.679   2.692 -0.5394  0.3471 -0.9841
    3MOL0     H  400   2.529   7.615   2.656  1.0585  2.5616 -0.9783
    3MOL0     H  401   2.511   7.786   3.051  1.2413 -1.0895  1.1246
    3MOL0     H  402   3.006   7.179   2.491  2.4663  0.1575 -1.4178
    3MOL0     H  403   3.296   6.937   2.419 -1.2408 -1.7905 -1.5351
    3MOL0     H  404   3.126   6.966   2.369 -1.5909 -0.0307  2.3220
    3MOL0     H  405   3.257   7.098   2.371  2.4253  0.0819  2.4948
    4MOL0     O  406   1.886   1.724  10.476 -0.4095  0.2540 -0.4893
    4MOL0     C  407   1.790   1.804  10.483 -0.6484  0.3977  0.0650
    4MOL0     O  408   1.804   1.953  10.496  0.1946 -0.4022 -0.1673
    4MOL0     C  409   1.921   2.002  10.458  0.2372  0.5573 -0.5849
    4MOL0     C  410   1.984   2.072  10.564 -0.4718  0.4235 -0.0899
    4MOL0     C  411   2.114   2.125  10.536 -0.0526  0.2572 -0.4994
    4MOL0     C  412   2.167   2.115  10.409  0.3598  0.3415  0.6183
    4MOL0     O  413   2.285   2.169  10.366  0.4680  0.3681  0.1350
    4MOL0     C  414   2.393   2.190  10.462 -0.4193  0.1082 -0.6731
    4MOL0     C  415   2.496   2.281  10.398 -0.3961 -0.2508  0.1331
    4MOL0     C  416   2.589   2.338  10.506  0.4439  0.7559  0.1915
    4MOL0     C  417   2.723   2.372  10.444  0.2477  0.3231  0.0063
    4MOL0     C  418   2.823   2.421  10.541 -0.0625 -0.3837  0.3677
    4MOL0     C  419   2.975   2.398  10.501  0.9974  0.4907 -0.5787
    4MOL0     C  420   3.012   2.512  10.391 -0.2437  0.8688  0.6475
    4MOL0     C  421   2.987   2.645  10.438  0.8809 -0.2160  0.3018
    4MOL0     N  422   3.060   2.680  10.562  0.2116  0.1189  0.3508
    4MOL0     C  423   3.199   2.658  10.568  0.5813 -0.7816 -1.1224
    4MOL0     C  424   3.233   2.716  10.688  0.6993  0.0572 -0.1963
    4MOL0     C  425   3.366   2.722  10.746 -0.5399  1.2523 -0.1764
    4MOL0     C  426   3.403   2.852  10.804 -0.4018  0.0007  1.0144
    4MOL0     C  427   3.455   2.943  10.698 -0.8650 -1.1666  0.4195
    4MOL0     C  428   3.482   3.086  10.751 -0.0597  0.2615  0.4755
    4MOL0     O  429   3.608   3.103  10.815 -0.0332  0.3278 -0.0776
    4MOL0     C  430   3.701   3.194  10.772 -0.0841  0.5233 -0.2044
    4MOL0     C  431   3.749   3.295  10.856  0.4139 -0.2651 -0.4914
    4MOL0     C  432   3.842   3.388  10.820 -0.2897 -0.2453 -0.8240
    4MOL0     C  433   3.871   3.397  10.679  0.3918 -0.2009  0.1600
    4MOL0     C  434   3.960   3.509  10.630 -0.4863  0.1926 -0.2345
    4MOL0     O  435   3.965   3.525  10.492  0.3405  0.5882 -0.0330
    4MOL0     C  436   4.038   3.637  10.452 -0.0846 -0.0550 -0.5415
    4MOL0     C  437   3.965   3.753  10.412 -1.6899 -0.6075 -0.9396
    4MOL0     C  438   4.039   3.868  10.378 -0.4328  0.2412  0.1106
    4MOL0     C  439   4.184   3.870  10.378  0.0287  1.2160 -0.1450
    4MOL0     O  440   4.270   3.971  10.337 -0.4312  0.1824 -0.7049
    4MOL0     C  441   4.209   4.097  10.313  0.1262  0.1359  0.3832
    4MOL0     C  442   4.317   4.197  10.265  0.0777 -0.0815 -0.5847
    4MOL0     C  443   4.424   4.141  10.174  0.3765  0.4228 -0.9322
    4MOL0     C  444   4.507   4.247  10.114 -0.3132 -0.0350  0.5569
    4MOL0     C  445   4.572   4.327  10.224  0.0692 -0.2573 -0.3799
    4MOL0     C  446   4.668   4.432  10.177  0.1445 -0.5492 -0.0851
    4MOL0     C  447   4.620   4.539  10.082  0.2873 -0.0447  0.7430
    4MOL0     C  448   4.668   4.684  10.102 -0.1099  0.1942  1.4282
    4MOL0    Cl  449   4.567   4.781  10.223  0.3123 -0.0105 -0.1360
    4MOL0     C  450   4.247   3.753  10.428 -0.5177  0.3723 -0.9707
    4MOL0     C  451   4.177   3.639  10.465  0.9416  0.6568  1.4034
    4MOL0     O  452   4.011   3.585  10.717  0.4963 -0.2491  0.0933
    4MOL0     C  453   3.819   3.300  10.584  0.1818 -0.2614 -0.0741
    4MOL0     C  454   3.743   3.190  10.637  0.4145 -1.0822 -0.5467
    4MOL0     N  455   3.124   2.773  10.751  0.0323 -0.4902  1.1044
    4MOL0     N  456   3.020   2.747  10.675  0.7183 -0.8811 -0.6419
    4MOL0     C  457   2.096   2.047  10.308 -0.2034  0.6193  0.1047
    4MOL0     C  458   1.972   1.993  10.334 -0.0111 -0.8352 -0.4269
    4MOL0     C  459   1.657   1.745  10.503  0.0195  0.4550  0.2220
    4MOL0     C  460   1.654   1.615  10.574 -0.4415 -0.4801  0.6335
    4MOL0     C  461   1.534   1.550  10.604 -0.3751  0.2803  1.0459
    4MOL0     C  462   1.415   1.605  10.561 -0.3438  0.1015  0.7500
    4MOL0     O  463   1.289   1.556  10.571 -0.0042  0.2755 -0.8068
    4MOL0     C  464   1.267   1.476  10.684  1.0221  0.8505  0.6391
    4MOL0     C  465   1.121   1.437  10.694  0.8035 -0.0642  0.2358
    4MOL0     C  466   1.036   1.558  10.737  0.9650 -0.4416  0.2552
    4MOL0     C  467   1.054   1.623  10.871  0.0248 -0.5594  0.7726
    4MOL0     C  468   1.030   1.534  10.981  0.4873  0.5467 -0.5675
    4MOL0     C  469   1.001   1.458  11.077  0.0528 -0.6094  0.1556
    4MOL0     C  470   1.426   1.732  10.504 -0.7526  0.6956  0.4953
    4MOL0     C  471   1.536   1.810  10.482 -0.3689 -0.6178  0.8322
    4MOL0     C  472   1.526   1.941  10.406  0.4687 -0.5550  0.0204
    4MOL0     H  473   1.944   2.066  10.665  1.1356 -1.9377  0.4894
    4MOL0     H  474   2.172   2.159  10.621  1.9145 -1.1511 -1.2039
    4MOL0     H  475   2.342   2.239  10.546  0.1954 -0.3983  0.0048
    4MOL0     H  476   2.437   2.097  10.498 -1.6524  0.2872  1.4861
    4MOL0     H  477   2.440   2.365  10.358 -1.2367 -1.5310 -1.5003
    4MOL0     H  478   2.538   2.223  10.315  0.0260 -0.7290  0.6659
    4MOL0     H  479   2.619   2.270  10.586  0.3946  0.7430  0.1983
    4MOL0     H  480   2.528   2.421  10.542 -2.2442 -1.3201  0.6934
    4MOL0     H  481   2.768   2.285  10.396 -0.7691 -0.0878 -0.2293
    4MOL0     H  482   2.707   2.444  10.364 -0.4219 -0.1728 -0.3171
    4MOL0     H  483   2.803   2.521  10.581 -0.5310 -1.6889  3.7866
    4MOL0     H  484   2.810   2.352  10.625  1.0877  0.1767  1.0346
    4MOL0     H  485   3.031   2.416  10.594 -0.6510 -1.7033  0.9303
    4MOL0     H  486   3.000   2.295  10.477  2.4416  0.7912 -0.4953
    4MOL0     H  487   2.953   2.492  10.301  0.8088 -0.4147  0.2090
    4MOL0     H  488   3.111   2.493  10.349 -0.3872  0.0978  0.6449
    4MOL0     H  489   3.012   2.720  10.362  1.2151 -1.7461 -1.1753
    4MOL0     H  490   2.879   2.659  10.449  0.7398  1.0055 -1.9201
    4MOL0     H  491   3.267   2.629  10.488 -0.4798 -0.3172 -2.2286
    4MOL0     H  492   3.375   2.652  10.830  2.2373  3.0542  1.1876
    4MOL0     H  493   3.435   2.699  10.663 -1.0082  1.0474 -0.5116
    4MOL0     H  494   3.322   2.897  10.862 -0.6344  0.8103  0.0776
    4MOL0     H  495   3.495   2.847  10.863 -0.0085  3.5827  0.9197
    4MOL0     H  496   3.379   2.946  10.619  0.5671 -1.5920 -1.0394
    4MOL0     H  497   3.537   2.902  10.639 -0.7465 -1.0040  0.4699
    4MOL0     H  498   3.401   3.127  10.811  0.1666  2.1441 -0.4376
    4MOL0     H  499   3.487   3.149  10.662  2.3739  2.4099  2.0176
    4MOL0     H  500   3.714   3.294  10.959 -1.4732 -0.2838 -1.1062
    4MOL0     H  501   3.901   3.444  10.892  0.7078 -1.8278 -0.3449
    4MOL0     H  502   3.858   3.768  10.416 -1.4373  1.7592 -1.8688
    4MOL0     H  503   3.991   3.957  10.339 -2.3196 -0.8358 -0.1123
    4MOL0     H  504   4.142   4.077  10.230  1.0405 -2.3550  0.1546
    4MOL0     H  505   4.166   4.130  10.408 -0.2779  0.0339  0.2366
    4MOL0     H  506   4.270   4.287  10.222  0.5714  0.5215  0.1165
    4MOL0     H  507   4.367   4.219  10.359 -2.2247  1.4734  0.3619
    4MOL0     H  508   4.502   4.087  10.229 -0.4860 -0.5995 -0.7038
    4MOL0     H  509   4.385   4.080  10.092  0.2341 -0.2248 -0.3841
    4MOL0     H  510   4.453   4.310  10.043 -0.9798 -1.2222 -0.0140
    4MOL0     H  511   4.585   4.194  10.059  0.5820  0.8486  0.9440
    4MOL0     H  512   4.616   4.262  10.300 -2.8502 -2.4604 -0.3890
    4MOL0     H  513   4.494   4.376  10.282  2.4173  0.0659  2.7955
    4MOL0     H  514   4.710   4.478  10.266 -0.9494 -1.2443  0.8106
    4MOL0     H  515   4.755   4.379  10.137  0.1152 -0.1425 -0.7063
    4MOL0     H  516   4.512   4.543  10.097 -0.1855 -1.3345 -1.6657
    4MOL0     H  517   4.644   4.497   9.984 -0.5262 -1.4029  1.0977
    4MOL0     H  518   4.774   4.689  10.126  0.5960  0.8482 -1.4389
    4MOL0     H  519   4.670   4.731  10.003 -1.0844  0.2366  1.4180
    4MOL0     H  520   4.355   3.751  10.428 -0.4776 -1.4598 -3.0551
    4MOL0     H  521   4.230   3.549  10.495  0.8793 -0.7044 -2.1951
    4MOL0     H  522   3.837   3.306  10.477  0.1863  1.4411  0.0095
    4MOL0     H  523   3.704   3.111  10.574 -1.0694 -1.0577  0.3136
    4MOL0     H  524   2.140   2.045  10.208  2.8358  0.8734  1.3268
    4MOL0     H  525   1.909   1.946  10.259 -0.0721  0.3102 -1.1120
    4MOL0     H  526   1.747   1.562  10.590  0.5992  0.6862 -1.2159
    4MOL0     H  527   1.541   1.457  10.660  1.5637 -0.1845  0.1241
    4MOL0     H  528   1.285   1.534  10.775  0.9348  2.8970 -0.5621
    4MOL0     H  529   1.323   1.383  10.674 -1.0932 -0.3390 -1.1149
    4MOL0     H  530   1.093   1.353  10.757 -1.0294 -1.0123 -1.7124
    4MOL0     H  531   1.098   1.404  10.592  0.0346 -1.3457  0.8105
    4MOL0     H  532   0.929   1.536  10.730  0.8666 -0.8387  2.2349
    4MOL0     H  533   1.064   1.627  10.657 -0.3091 -0.5605 -0.3185
    4MOL0     H  534   1.155   1.664  10.873  0.2543 -0.6874 -2.4636
    4MOL0     H  535   0.988   1.710  10.876  1.7623  0.7551  1.3659
    4MOL0     H  536   0.966   1.395  11.156  0.1342  1.1695  1.6821
    4MOL0     H  537   1.328   1.775  10.483 -1.4990 -0.1985  1.9883
    4MOL0     H  538   1.618   1.970  10.353 -0.8793  0.6924 -1.7776
    4MOL0     H  539   1.459   1.920  10.322 -0.9273 -2.2154  1.4859
    4MOL0     H  540   1.497   2.019  10.478 -2.7373 -1.2831 -0.3324
    5MOL0     O  541   0.756   9.814   5.244 -0.4377 -0.4231  0.3861
    5MOL0     C  542   0.707   9.720   5.309  0.9702 -0.5703 -0.0982
    5MOL0     O  543   0.656   9.605   5.254  0.1719 -0.2942 -0.2567
    5MOL0     C  544   0.638   9.608   5.112  0.0775  0.6605  0.9781
    5MOL0     C  545   0.744   9.589   5.025  0.0512  0.3079 -0.3454
    5MOL0     C  546   0.733   9.575   4.892  0.6319  1.2172 -0.3875
    5MOL0     C  547   0.607   9.602   4.837  1.3230 -0.3604 -0.4929
    5MOL0     O  548   0.564   9.597   4.707  0.1919  0.5143 -0.0270
    5MOL0     C  549   0.672   9.609   4.609  0.2435  0.3586  0.0250
    5MOL0     C  550   0.589   9.656   4.494  0.2619 -0.3248  0.8991
    5MOL0     C  551   0.526   9.792   4.517 -1.0476 -0.2727 -0.5022
    5MOL0     C  552   0.626   9.908   4.547  0.1049  0.0344  0.1639
    5MOL0     C  553   0.540  10.034   4.561  0.3038  1.3458  0.0281
    5MOL0     C  554   0.641  10.147   4.536 -0.2184 -0.7171 -0.1165
    5MOL0     C  555   0.589  10.277   4.602  0.4231  0.0713  0.2216
    5MOL0     C  556   0.468  10.345   4.532 -0.2467  0.0484 -0.0896
    5MOL0     N  557   0.500  10.416   4.401  0.2643  0.2238 -0.6823
    5MOL0     C  558   0.465  10.356   4.282 -0.3921  0.1144 -0.1810
    5MOL0     C  559   0.500  10.448   4.188 -0.1422  0.7569  0.8946
    5MOL0     C  560   0.467  10.416   4.045 -0.7730  0.2641  0.1998
    5MOL0     C  561   0.540  10.519   3.955  0.0403  0.5338 -0.2699
    5MOL0     C  562   0.539  10.478   3.804 -0.2209 -0.1840 -0.0660
    5MOL0     C  563   0.408  10.507   3.719 -0.1645 -0.0766  0.1510
    5MOL0     O  564   0.396  10.646   3.684 -0.9306  0.2801 -0.1248
    5MOL0     C  565   0.430  10.696   3.570  0.5519  0.3287 -0.4514
    5MOL0     C  566   0.385  10.824   3.546 -0.1075  1.3490 -0.9037
    5MOL0     C  567   0.393  10.892   3.417  0.1934 -0.0760  0.0481
    5MOL0     C  568   0.453  10.821   3.315  0.1973 -0.4367  0.9190
    5MOL0     C  569   0.475  10.892   3.178  0.5059  0.0950 -0.2509
    5MOL0     O  570   0.536  10.828   3.082 -0.4566  0.3469  0.2020
    5MOL0     C  571   0.531  10.879   2.954  0.4687 -0.8824 -0.2454
    5MOL0     C  572   0.530  11.013   2.921 -0.3496 -0.3514  0.1834
    5MOL0     C  573   0.540  11.053   2.789  0.3365 -0.0457  0.4479
    5MOL0     C  574   0.536  10.958   2.684 -1.0361  0.5561  0.5095
    5MOL0     O  575   0.532  10.992   2.550 -0.4626  0.0109  0.4295
    5MOL0     C  576   0.414  11.073   2.511 -0.1229 -0.8888 -0.3362
    5MOL0     C  577   0.325  11.003   2.414 -0.0395  0.1850 -0.4533
    5MOL0     C  578   0.241  10.888   2.473  0.4816 -0.4032  0.5708
    5MOL0     C  579   0.147  10.816   2.372  0.3809 -0.1062 -0.2720
    5MOL0     C  580   0.093  10.683   2.422 -0.8044 -0.2683  0.1343
    5MOL0     C  581   0.031  10.686   2.561  0.7778  0.5862  0.6356
    5MOL0     C  582  -0.011  10.541   2.614 -0.9234  0.1052 -0.2470
    5MOL0     C  583   0.020  10.537   2.768 -0.6013  0.1822 -0.7207
    5MOL0    Cl  584  -0.089  10.646   2.863  0.4284  0.2348  0.4972
    5MOL0     C  585   0.529  10.823   2.712 -0.5106  1.1964  0.2474
    5MOL0     C  586   0.518  10.788   2.847 -0.2095 -0.0401 -0.1805
    5MOL0     O  587   0.427  11.010   3.176 -0.2652  0.4325  0.4007
    5MOL0     C  588   0.512  10.691   3.341  0.7839  0.6047  0.5649
    5MOL0     C  589   0.495  10.638   3.466  0.0856  0.8020  0.1150
    5MOL0     N  590   0.561  10.550   4.253 -0.5930  0.2397  0.9752
    5MOL0     N  591   0.562  10.528   4.387  0.8219 -0.0823  0.8015
    5MOL0     C  592   0.495   9.631   4.923 -0.5677  0.8179  0.1515
    5MOL0     C  593   0.512   9.643   5.062  0.0288 -0.2890  0.0380
    5MOL0     C  594   0.677   9.748   5.449 -0.3311  0.3807 -0.0741
    5MOL0     C  595   0.553   9.718   5.492  0.0411 -0.1174  0.3965
    5MOL0     C  596   0.505   9.728   5.620 -0.7792  0.2197 -0.1119
    5MOL0     C  597   0.595   9.763   5.716  0.0281  0.2112 -1.3459
    5MOL0     O  598   0.548   9.776   5.847 -0.2717  0.5399 -0.4857
    5MOL0     C  599   0.613   9.688   5.946  0.1105 -0.0123 -0.5742
    5MOL0     C  600   0.511   9.585   6.007 -0.0716  0.4300  0.8305
    5MOL0     C  601   0.472   9.487   5.888  0.8510 -1.5614 -0.1433
    5MOL0     C  602   0.349   9.415   5.907  0.2515  0.1942  0.0460
    5MOL0     C  603   0.230   9.495   5.906 -0.0354  0.0634 -0.6052
    5MOL0     C  604   0.127   9.556   5.875  0.4432 -0.0603 -0.0655
    5MOL0     C  605   0.728   9.809   5.681 -0.5470  0.0300  0.5535
    5MOL0     C  606   0.774   9.796   5.541 -0.1166 -0.3139 -0.2474
    5MOL0     C  607   0.913   9.836   5.509 -0.2069  1.0071  0.1033
    5MOL0     H  608   0.844   9.577   5.067  0.8051  3.9237 -0.7979
    5MOL0     H  609   0.819   9.558   4.827  0.7448 -2.6951  0.5236
    5MOL0     H  610   0.751   9.679   4.638 -0.3491  1.7953 -1.6145
    5MOL0     H  611   0.720   9.513   4.588  1.4841  1.0719 -0.5449
    5MOL0     H  612   0.507   9.589   4.468  0.4929 -0.4441  0.4625
    5MOL0     H  613   0.662   9.688   4.418  0.2475  2.2629  1.8958
    5MOL0     H  614   0.448   9.782   4.592 -0.8962  3.1732  0.3050
    5MOL0     H  615   0.481   9.828   4.424  4.2881  3.8017 -2.0428
    5MOL0     H  616   0.673   9.902   4.646 -2.6407  0.1515  1.5607
    5MOL0     H  617   0.697   9.925   4.466 -1.3113  0.9894 -0.9210
    5MOL0     H  618   0.457  10.037   4.490 -0.6206  2.9168  1.0995
    5MOL0     H  619   0.479  10.049   4.651 -2.2218  2.2143 -1.7117
    5MOL0     H  620   0.742  10.133   4.575  0.9145  2.1729 -1.6710
    5MOL0     H  621   0.661  10.169   4.431 -2.2899  0.6970 -0.2729
    5MOL0     H  622   0.675  10.344   4.608  2.1180 -2.1080  3.1432
    5MOL0     H  623   0.544  10.251   4.698 -2.4599  1.3127 -0.6953
    5MOL0     H  624   0.384  10.277   4.518 -0.5766  0.5307 -0.4787
    5MOL0     H  625   0.436  10.428   4.596  0.4084  1.3190 -1.3470
    5MOL0     H  626   0.419  10.259   4.264 -1.8234  0.8425 -0.6093
    5MOL0     H  627   0.505  10.314   4.034 -1.0474 -0.0034  1.5853
    5MOL0     H  628   0.361  10.418   4.018 -0.3018  2.1919 -1.8348
    5MOL0     H  629   0.493  10.617   3.965  1.6525  1.1977  1.3525
    5MOL0     H  630   0.641  10.533   3.994 -1.6006  0.9049  4.5301
    5MOL0     H  631   0.561  10.371   3.798  1.6696  0.1835 -0.2067
    5MOL0     H  632   0.626  10.523   3.756  1.3050 -3.2742 -0.4743
    5MOL0     H  633   0.328  10.475   3.786 -1.3021 -0.4096 -1.3210
    5MOL0     H  634   0.404  10.433   3.639  0.9143 -0.2317  0.2213
    5MOL0     H  635   0.336  10.870   3.632  2.0912 -3.2514  3.2975
    5MOL0     H  636   0.340  10.985   3.397 -0.3540 -0.8807 -2.7472
    5MOL0     H  637   0.539  11.100   2.985  0.8105  2.5529 -3.5994
    5MOL0     H  638   0.532  11.157   2.759  1.6900 -0.6779 -2.4275
    5MOL0     H  639   0.346  11.108   2.589  1.0109  3.8915 -1.1653
    5MOL0     H  640   0.457  11.162   2.464  0.9620 -1.0008  0.4198
    5MOL0     H  641   0.247  11.069   2.376 -2.7418 -1.3518  2.0225
    5MOL0     H  642   0.381  10.956   2.333 -2.6454 -2.2126 -1.0174
    5MOL0     H  643   0.302  10.807   2.513  0.7005  0.3825  1.8999
    5MOL0     H  644   0.174  10.932   2.549 -1.2385  3.0641 -2.6149
    5MOL0     H  645   0.205  10.801   2.280  1.0349 -0.3127  0.1650
    5MOL0     H  646   0.069  10.887   2.343  0.4398 -0.2281 -0.7339
    5MOL0     H  647   0.174  10.612   2.438 -2.1630 -1.9180 -0.0842
    5MOL0     H  648   0.027  10.645   2.344  0.7701 -1.4844 -0.6507
    5MOL0     H  649   0.108  10.727   2.626  3.1382 -0.1126 -1.5447
    5MOL0     H  650  -0.061  10.746   2.563 -0.3727 -0.8075 -2.6469
    5MOL0     H  651   0.050  10.468   2.561  1.7332 -0.4002  3.1710
    5MOL0     H  652  -0.118  10.531   2.591 -0.2256 -0.5803 -3.8860
    5MOL0     H  653   0.013  10.437   2.810  0.5520  1.0763  1.7995
    5MOL0     H  654   0.120  10.577   2.789 -1.0122  1.0126 -0.2921
    5MOL0     H  655   0.523  10.754   2.628 -3.2099 -3.4433  3.7484
    5MOL0     H  656   0.504  10.686   2.881  0.8761  0.6520  2.6720
    5MOL0     H  657   0.571  10.632   3.271  1.5035 -2.8611  3.7890
    5MOL0     H  658   0.544  10.543   3.485  0.7305  0.9668 -0.6485
    5MOL0     H  659   0.401   9.656   4.876 -1.1924  1.0212  1.4765
    5MOL0     H  660   0.434   9.672   5.132  0.8016  0.0725  0.7807
    5MOL0     H  661   0.481   9.680   5.420  0.2650  0.7364 -0.2955
    5MOL0     H  662   0.403   9.710   5.653 -0.2136 -0.6104  1.2850
    5MOL0     H  663   0.644   9.752   6.029 -1.2409  0.5948 -0.5096
    5MOL0     H  664   0.700   9.629   5.916  0.5420  0.8967 -1.1469
    5MOL0     H  665   0.420   9.629   6.049 -1.6896 -1.4542 -0.4827
    5MOL0     H  666   0.554   9.517   6.081  0.1499  0.1808  0.4738
    5MOL0     H  667   0.550   9.410   5.879  1.5095 -0.9991  0.5919
    5MOL0     H  668   0.472   9.532   5.789  0.9332 -0.0026  0.5370
    5MOL0     H  669   0.346   9.330   5.838  0.1655 -2.2792  2.8566
    5MOL0     H  670   0.357   9.368   6.006  0.3090 -1.3972 -0.6856
    5MOL0     H  671   0.033   9.605   5.859 -0.0031 -0.4503  1.2228
    5MOL0     H  672   0.806   9.855   5.741  0.5144  0.2892 -0.9733
    5MOL0     H  673   0.981   9.829   5.595  2.4582 -0.0058 -1.9311
    5MOL0     H  674   0.954   9.774   5.428  1.3895 -0.1285  1.7144
    5MOL0     H  675   0.924   9.942   5.483  0.9257  0.7386 -0.6023
    6MOL0     O  676   4.776   5.111  10.851  1.0555  0.9037 -0.0526
    6MOL0     C  677   4.714   5.212  10.864  0.1084  0.1106 -0.3007
    6MOL0     O  678   4.664   5.289  10.761  0.5129  0.4560  0.7482
    6MOL0     C  679   4.682   5.237  10.634  0.2861 -0.3416 -0.8979
    6MOL0     C  680   4.616   5.127  10.589  0.1619 -0.2761 -0.2062
    6MOL0     C  681   4.630   5.082  10.456 -0.0707  0.2662  0.8796
    6MOL0     C  682   4.716   5.151  10.370  0.1034  0.5350  0.1996
    6MOL0     O  683   4.727   5.107  10.242  0.7697  0.6264  0.3100
    6MOL0     C  684   4.818   5.169  10.153 -1.0192 -0.0300 -0.1239
    6MOL0     C  685   4.840   5.082  10.026 -0.2433 -0.5313  0.5480
    6MOL0     C  686   4.975   5.108   9.964 -0.0998 -0.1928 -0.1433
    6MOL0     C  687   5.015   5.010   9.854 -0.5871  0.3351  0.1994
    6MOL0     C  688   5.130   5.059   9.767  0.2733 -0.2001 -0.3198
    6MOL0     C  689   5.255   5.110   9.848 -1.5593 -0.6495 -0.2647
    6MOL0     C  690   5.375   5.124   9.747 -0.2755 -0.3420 -0.8427
    6MOL0     C  691   5.500   5.166   9.818  0.6800  0.7069 -0.6713
    6MOL0     N  692   5.623   5.159   9.740  0.2070 -0.2086 -0.3837
    6MOL0     C  693   5.667   5.244   9.646 -0.6813 -0.0388 -0.1193
    6MOL0     C  694   5.795   5.208   9.622 -0.6176  0.0113  0.3558
    6MOL0     C  695   5.878   5.267   9.510  0.1805  0.2092  0.6593
    6MOL0     C  696   5.861   5.423   9.520  0.3234  0.4317 -0.6835
    6MOL0     C  697   5.924   5.473   9.653  0.4366  0.2606 -1.0232
    6MOL0     C  698   5.894   5.622   9.677  1.1348  0.5264  0.6812
    6MOL0     O  699   5.981   5.672   9.773  0.4759  0.2357 -0.5147
    6MOL0     C  700   5.957   5.693   9.907  0.4705 -1.0340 -0.3001
    6MOL0     C  701   5.827   5.666   9.965  0.6168  0.5071 -0.1047
    6MOL0     C  702   5.799   5.685  10.098 -0.4997  1.1319 -0.3175
    6MOL0     C  703   5.898   5.722  10.187  0.7292 -1.2801  1.0135
    6MOL0     C  704   5.865   5.751  10.328 -0.1295  0.1723 -0.0957
    6MOL0     O  705   5.950   5.840  10.397  0.4354 -0.3591 -0.4622
    6MOL0     C  706   5.918   5.907  10.516  0.3301  0.0387 -0.2217
    6MOL0     C  707   5.790   5.939  10.561 -0.6905 -0.9262 -0.9661
    6MOL0     C  708   5.772   6.005  10.689 -0.5186 -0.9291  0.2258
    6MOL0     C  709   5.883   6.039  10.769 -0.4098 -0.8115 -0.6608
    6MOL0     O  710   5.866   6.104  10.894  1.1158 -0.4320 -0.1015
    6MOL0     C  711   5.980   6.163  10.958 -0.0769 -0.8149 -0.2445
    6MOL0     C  712   6.063   6.062  11.040  0.2026  0.3595 -0.4953
    6MOL0     C  713   5.977   5.962  11.116 -0.1594 -0.2451  0.3215
    6MOL0     C  714   6.058   5.865  11.207 -0.0498 -0.6398 -0.3656
    6MOL0     C  715   5.963   5.765  11.279  0.9145 -0.4752  1.1838
    6MOL0     C  716   5.948   5.634  11.209 -0.4820 -0.6673  0.8396
    6MOL0     C  717   5.895   5.515  11.303 -0.0262 -0.2367  0.2854
    6MOL0     C  718   5.895   5.379  11.234 -0.6029 -1.0280 -0.4443
    6MOL0    Cl  719   5.815   5.258  11.338  0.6225  0.1597 -0.3487
    6MOL0     C  720   6.008   6.017  10.708  0.2527 -0.3205  1.5869
    6MOL0     C  721   6.031   5.953  10.584  0.5863  0.0836  0.3467
    6MOL0     O  722   5.766   5.699  10.373  0.2198  0.1589 -0.5235
    6MOL0     C  723   6.012   5.773  10.126  0.1589 -0.1149 -1.8365
    6MOL0     C  724   6.048   5.755  10.001 -0.0105  0.4995 -0.5001
    6MOL0     N  725   5.826   5.103   9.704 -0.8661 -0.2493 -0.0815
    6MOL0     N  726   5.719   5.069   9.772 -0.0855  0.0844 -0.1004
    6MOL0     C  727   4.790   5.263  10.417  0.5948 -0.1791 -0.3748
    6MOL0     C  728   4.775   5.309  10.553 -0.6977  0.2324  0.3637
    6MOL0     C  729   4.655   5.243  11.004  0.1592  0.8993 -0.0151
    6MOL0     C  730   4.535   5.315  11.021 -0.0800  0.4202  0.2370
    6MOL0     C  731   4.466   5.333  11.142 -0.0785  0.8193 -1.0797
    6MOL0     C  732   4.526   5.274  11.259  0.1872  0.7096  0.8194
    6MOL0     O  733   4.463   5.279  11.383  0.2718  0.6462  0.6194
    6MOL0     C  734   4.337   5.212  11.384 -0.1472 -0.6102  0.8484
    6MOL0     C  735   4.255   5.246  11.506  0.8043 -0.3377 -0.2062
    6MOL0     C  736   4.296   5.160  11.629  0.0141  0.9141 -0.5816
    6MOL0     C  737   4.167   5.103  11.686 -0.0741 -0.7687 -0.3763
    6MOL0     C  738   4.201   5.037  11.811  0.8930 -0.6015  0.2927
    6MOL0     C  739   4.228   4.984  11.912 -0.5715 -0.2310  0.5264
    6MOL0     C  740   4.650   5.212  11.246 -0.0801 -0.6972  0.0551
    6MOL0     C  741   4.716   5.199  11.122 -0.4845 -0.8067  0.3499
    6MOL0     C  742   4.849   5.132  11.133 -0.6159 -0.7625  0.3971
    6MOL0     H  743   4.549   5.074  10.657  2.1875 -0.6702  1.5925
    6MOL0     H  744   4.588   4.989  10.419  2.2480 -0.6730  0.4313
    6MOL0     H  745   4.791   5.273  10.130 -1.2282  0.2384  1.2363
    6MOL0     H  746   4.910   5.189  10.208 -1.9924  2.7113  0.7053
    6MOL0     H  747   4.760   5.118   9.960  1.1581  0.2476 -0.7681
    6MOL0     H  748   4.826   4.974  10.039  1.8661 -1.3607 -2.7942
    6MOL0     H  749   5.055   5.122  10.037  1.1643  4.4234 -2.0726
    6MOL0     H  750   4.971   5.205   9.914  1.5055  1.9883  3.5988
    6MOL0     H  751   5.048   4.916   9.899 -2.6127 -1.6702 -2.1608
    6MOL0     H  752   4.931   4.984   9.789 -0.2993  1.1291 -0.5033
    6MOL0     H  753   5.154   4.987   9.689 -2.5598  0.4418 -1.8959
    6MOL0     H  754   5.094   5.139   9.702 -0.3525  0.0800  0.3575
    6MOL0     H  755   5.239   5.207   9.894  0.0143  0.2810 -1.5729
    6MOL0     H  756   5.284   5.035   9.922 -2.8381 -0.3904  0.5271
    6MOL0     H  757   5.339   5.204   9.681 -0.6562  0.3931  0.2111
    6MOL0     H  758   5.393   5.034   9.689 -2.5324 -1.0632 -0.5410
    6MOL0     H  759   5.489   5.264   9.865  1.9100  1.2049 -1.3828
    6MOL0     H  760   5.500   5.086   9.892 -3.9893 -1.2768 -2.4519
    6MOL0     H  761   5.624   5.332   9.599  3.5130  0.9613 -2.5368
    6MOL0     H  762   5.983   5.240   9.518 -0.0522 -0.8297  0.2719
    6MOL0     H  763   5.843   5.231   9.413  0.4102  0.2127  0.5751
    6MOL0     H  764   5.916   5.472   9.440  0.4366 -0.9399 -1.4670
    6MOL0     H  765   5.755   5.450   9.517 -0.2610 -1.7672 -2.5749
    6MOL0     H  766   6.032   5.454   9.650  0.2039 -0.9675 -2.6720
    6MOL0     H  767   5.875   5.410   9.727 -1.2999 -0.3561 -2.6352
    6MOL0     H  768   5.790   5.640   9.704  0.6081 -0.7140 -0.4189
    6MOL0     H  769   5.904   5.682   9.586 -0.6234  2.5455  1.7473
    6MOL0     H  770   5.753   5.605   9.912  2.9542 -3.2998  0.5793
    6MOL0     H  771   5.700   5.656  10.134 -0.1390  0.3914  0.0931
    6MOL0     H  772   5.714   5.894  10.497  1.1511 -1.3081 -3.0183
    6MOL0     H  773   5.678   6.030  10.738 -1.6480  3.3115 -3.3808
    6MOL0     H  774   6.041   6.205  10.878  0.0679 -1.1630 -0.3164
    6MOL0     H  775   5.923   6.235  11.018  1.8015 -2.4194  3.8932
    6MOL0     H  776   6.126   6.001  10.975 -0.4692  1.4838 -2.2911
    6MOL0     H  777   6.126   6.117  11.111  2.8527 -2.3463 -0.5647
    6MOL0     H  778   5.922   6.014  11.195 -0.4098 -1.6981  1.1356
    6MOL0     H  779   5.920   5.898  11.048  2.0487 -1.1132 -0.7924
    6MOL0     H  780   6.122   5.917  11.279 -1.2885 -0.6364  0.7519
    6MOL0     H  781   6.130   5.813  11.143  0.2993 -1.4207  0.6435
    6MOL0     H  782   5.866   5.808  11.303  0.3154 -2.8237  3.5911
    6MOL0     H  783   6.012   5.742  11.375  0.4424 -2.7591  0.9545
    6MOL0     H  784   5.879   5.651  11.126  1.2646  0.8791 -0.3768
    6MOL0     H  785   6.050   5.607  11.181  0.7473  3.7611  0.2587
    6MOL0     H  786   5.796   5.554  11.328 -0.2095  0.7982 -1.8158
    6MOL0     H  787   5.952   5.504  11.395 -1.0352  2.5931  1.3431
    6MOL0     H  788   5.831   5.391  11.146  2.1017 -0.8125 -2.5145
    6MOL0     H  789   5.991   5.342  11.195  0.3417 -1.1182  1.8100
    6MOL0     H  790   6.099   6.037  10.763 -0.4070  0.3868  2.4452
    6MOL0     H  791   6.133   5.933  10.555  0.1743  1.3767 -2.3011
    6MOL0     H  792   6.101   5.810  10.175 -0.7576  2.0216 -1.6957
    6MOL0     H  793   6.142   5.795   9.963  0.5793 -0.9091 -0.5755
    6MOL0     H  794   4.856   5.321  10.353  1.1223  2.2355  2.1852
    6MOL0     H  795   4.822   5.400  10.587  1.0850 -0.4006 -0.2698
    6MOL0     H  796   4.490   5.358  10.933 -0.1569  2.0618  1.0380
    6MOL0     H  797   4.374   5.391  11.147 -1.1779 -0.9271  0.4557
    6MOL0     H  798   4.340   5.104  11.367 -0.3209 -0.1763 -2.8267
    6MOL0     H  799   4.272   5.245  11.302 -0.1808 -3.1757 -0.2296
    6MOL0     H  800   4.150   5.228  11.482  0.6013 -0.8249  0.9439
    6MOL0     H  801   4.250   5.354  11.520 -0.9365  0.3103 -4.3345
    6MOL0     H  802   4.357   5.212  11.704  1.9028 -2.3044  0.3248
    6MOL0     H  803   4.364   5.080  11.597  0.4481  1.8894 -2.2561
    6MOL0     H  804   4.101   5.187  11.709 -0.7489 -1.7939  1.7006
    6MOL0     H  805   4.118   5.036  11.615 -1.9283 -0.1862  0.2954
    6MOL0     H  806   4.246   4.934  12.004  0.3598 -2.6047 -0.8634
    6MOL0     H  807   4.691   5.157  11.330 -0.5812 -0.8419  0.2105
    6MOL0     H  808   4.917   5.181  11.062 -0.1721  0.1064  1.3941
    6MOL0     H  809   4.891   5.141  11.233 -1.5675 -0.6824  0.7981
    6MOL0     H  810   4.849   5.027  11.103  0.2675 -1.1615  1.7222
    7MOL0     O  811   2.205   5.193   5.959  0.4869 -0.2859  0.3695
    7MOL0     C  812   2.278   5.175   5.864  0.7925  0.1444  0.8773
    7MOL0     O  813   2.390   5.248   5.839 -1.0727 -0.3890  0.2309
    7MOL0     C  814   2.438   5.326   5.940 -0.2618  0.3535  1.1724
    7MOL0     C  815   2.433   5.463   5.934 -0.7809  0.1244  0.0637
    7MOL0     C  816   2.513   5.535   6.024 -0.5408  0.0230  0.3263
    7MOL0     C  817   2.602   5.482   6.115 -0.0805  0.0232  0.2646
    7MOL0     O  818   2.684   5.569   6.184  0.2334 -0.9074 -0.6529
    7MOL0     C  819   2.800   5.514   6.247 -0.3303 -0.3123 -0.1119
    7MOL0     C  820   2.758   5.499   6.399  0.6096  0.1959  0.1426
    7MOL0     C  821   2.742   5.627   6.483 -0.2483 -0.7341 -0.5897
    7MOL0     C  822   2.695   5.587   6.628  0.2502 -1.2001  0.2886
    7MOL0     C  823   2.651   5.722   6.689 -1.0118 -0.8067  0.3614
    7MOL0     C  824   2.653   5.694   6.848 -0.5027  0.3690  0.7844
    7MOL0     C  825   2.784   5.700   6.915 -0.1231  0.3773  0.7202
    7MOL0     C  826   2.757   5.710   7.069 -0.2323  0.1768 -0.1130
    7MOL0     N  827   2.892   5.693   7.142  0.0896 -0.8168 -0.4443
    7MOL0     C  828   2.993   5.793   7.147  1.1449  0.3296 -0.2046
    7MOL0     C  829   3.113   5.734   7.183  1.3069 -0.2020  0.4610
    7MOL0     C  830   3.238   5.796   7.200  0.2560  0.1046 -0.9526
    7MOL0     C  831   3.331   5.771   7.077 -0.7818 -0.1327 -0.3786
    7MOL0     C  832   3.460   5.860   7.095 -0.8679 -1.3463 -0.1739
    7MOL0     C  833   3.580   5.837   7.001  0.2909 -0.1665  0.0584
    7MOL0     O  834   3.703   5.904   7.033 -0.3135  0.4316 -0.2659
    7MOL0     C  835   3.736   6.020   6.959  0.9222  0.2345 -0.3084
    7MOL0     C  836   3.871   6.059   6.954  0.0939  0.4821  0.0909
    7MOL0     C  837   3.923   6.156   6.863 -0.3987 -0.1807 -0.4548
    7MOL0     C  838   3.820   6.233   6.799 -0.4163 -0.0937  0.3330
    7MOL0     C  839   3.869   6.332   6.697 -0.1983  0.8191 -0.0513
    7MOL0     O  840   4.003   6.342   6.671  0.4146  0.1463 -0.0779
    7MOL0     C  841   4.051   6.438   6.595 -1.1611 -0.1591  0.3184
    7MOL0     C  842   4.183   6.463   6.622 -0.3591  0.4391 -0.5807
    7MOL0     C  843   4.271   6.536   6.542  0.2976 -0.1428 -0.2400
    7MOL0     C  844   4.209   6.597   6.432 -0.4236 -0.0742 -0.4988
    7MOL0     O  845   4.293   6.678   6.359  0.2938  0.3734  0.6653
    7MOL0     C  846   4.300   6.674   6.214 -1.7372 -0.3465  0.4682
    7MOL0     C  847   4.415   6.775   6.176  0.4950  1.4409 -0.2138
    7MOL0     C  848   4.454   6.769   6.030  0.1366 -0.6226 -0.7493
    7MOL0     C  849   4.584   6.843   5.988  0.3914 -0.2275 -0.6297
    7MOL0     C  850   4.584   6.861   5.836  0.0649 -0.1681  0.4624
    7MOL0     C  851   4.713   6.918   5.777  0.6996  0.1241 -0.9051
    7MOL0     C  852   4.710   6.907   5.623 -0.6669  0.0201  0.6323
    7MOL0     C  853   4.842   6.977   5.578 -1.2057  0.0565 -0.1261
    7MOL0    Cl  854   4.998   6.936   5.643  0.0494  0.0251 -0.1667
    7MOL0     C  855   4.078   6.579   6.409 -0.4335 -0.3602 -0.1401
    7MOL0     C  856   3.995   6.501   6.486 -0.2824 -0.1336 -0.4434
    7MOL0     O  857   3.783   6.410   6.664 -0.6393 -0.5245  0.1862
    7MOL0     C  858   3.680   6.203   6.810  0.2713 -0.4693  0.0499
    7MOL0     C  859   3.641   6.091   6.885 -0.0043 -0.2930 -0.0761
    7MOL0     N  860   3.074   5.602   7.177 -0.0807  0.1866  0.8346
    7MOL0     N  861   2.951   5.577   7.157 -0.2623  0.9876 -0.2276
    7MOL0     C  862   2.589   5.347   6.133  0.5927 -0.3502 -0.4687
    7MOL0     C  863   2.505   5.265   6.049  0.8864 -0.7669  0.6056
    7MOL0     C  864   2.242   5.077   5.761  0.0474  0.4978  0.8733
    7MOL0     C  865   2.295   5.079   5.634 -0.7696 -0.4570 -0.1902
    7MOL0     C  866   2.253   4.977   5.541  0.1854  0.0713 -0.2204
    7MOL0     C  867   2.156   4.878   5.564  0.7127 -1.0875  0.2297
    7MOL0     O  868   2.123   4.790   5.476 -0.4725 -0.1876  0.3829
    7MOL0     C  869   2.199   4.771   5.354  0.4861 -0.0128 -0.3533
    7MOL0     C  870   2.164   4.633   5.299 -0.4264  0.6900 -0.2051
    7MOL0     C  871   2.112   4.649   5.155  0.4544  0.9526 -0.1717
    7MOL0     C  872   2.177   4.545   5.061  0.1311  0.1765  0.3866
    7MOL0     C  873   2.185   4.590   4.921  0.1550 -0.3692 -0.9451
    7MOL0     C  874   2.177   4.641   4.812 -1.0462 -0.3101 -0.1794
    7MOL0     C  875   2.092   4.882   5.684  0.3658 -0.5739  0.6410
    7MOL0     C  876   2.132   4.984   5.774  0.2335 -0.3849 -0.8535
    7MOL0     C  877   2.059   4.971   5.909  0.6068 -0.0545  0.9305
    7MOL0     H  878   2.386   5.531   5.865 -0.7840 -0.6011 -0.6726
    7MOL0     H  879   2.521   5.643   6.020 -0.3654 -0.0242 -1.0163
    7MOL0     H  880   2.834   5.416   6.212 -3.7507 -1.2493 -1.2756
    7MOL0     H  881   2.873   5.595   6.243  1.1032 -1.5885 -1.5804
    7MOL0     H  882   2.826   5.431   6.452 -0.5182  0.1441  1.5965
    7MOL0     H  883   2.658   5.453   6.399  1.6268 -2.2782 -1.4728
    7MOL0     H  884   2.684   5.700   6.426  3.3775  1.5842 -1.7302
    7MOL0     H  885   2.837   5.681   6.493 -0.7041  0.0071 -0.2436
    7MOL0     H  886   2.618   5.514   6.603  1.7079 -1.9039 -2.6164
    7MOL0     H  887   2.773   5.533   6.682 -1.0733 -2.8101  0.6468
    7MOL0     H  888   2.719   5.804   6.664  2.4323 -1.3710  6.0082
    7MOL0     H  889   2.546   5.738   6.663 -2.2603 -2.5228  3.7119
    7MOL0     H  890   2.583   5.765   6.892 -1.6016  0.1303 -0.5191
    7MOL0     H  891   2.606   5.598   6.873 -1.3374  0.6441  0.3017
    7MOL0     H  892   2.845   5.788   6.890  0.6977  0.1035  1.7256
    7MOL0     H  893   2.844   5.610   6.902 -0.7655 -0.2811  2.1727
    7MOL0     H  894   2.712   5.804   7.100 -0.5730 -0.1830  0.4947
    7MOL0     H  895   2.693   5.628   7.102  1.8432 -1.1509  0.8568
    7MOL0     H  896   2.989   5.897   7.116  2.1631  0.9404  1.5757
    7MOL0     H  897   3.224   5.903   7.215 -0.7177  0.1158 -1.8876
    7MOL0     H  898   3.283   5.769   7.296  0.7909  1.1062 -0.9056
    7MOL0     H  899   3.358   5.665   7.089 -2.7862 -0.7933 -1.1623
    7MOL0     H  900   3.277   5.787   6.983 -1.9064  0.1009  0.2840
    7MOL0     H  901   3.505   5.823   7.188 -0.2820 -1.8704 -0.6521
    7MOL0     H  902   3.437   5.967   7.091 -1.6304 -1.4515  0.8578
    7MOL0     H  903   3.548   5.846   6.897  1.0241  0.0318 -0.1618
    7MOL0     H  904   3.617   5.734   7.001 -0.6552 -0.5181  0.7765
    7MOL0     H  905   3.934   5.998   7.020 -1.6494  0.0085  1.3829
    7MOL0     H  906   4.031   6.164   6.853 -0.5772  3.1454 -0.7343
    7MOL0     H  907   4.232   6.412   6.704 -1.6436  1.5719  0.9538
    7MOL0     H  908   4.378   6.547   6.560  0.2472 -0.4586  0.2633
    7MOL0     H  909   4.331   6.577   6.177  0.6092  1.8642 -4.1864
    7MOL0     H  910   4.202   6.704   6.174 -0.9178 -0.2344 -1.5906
    7MOL0     H  911   4.385   6.873   6.215 -2.0916  1.0569 -1.0678
    7MOL0     H  912   4.506   6.738   6.224 -0.5925 -2.3552 -0.7623
    7MOL0     H  913   4.470   6.663   6.006 -0.5932 -0.5100 -1.7645
    7MOL0     H  914   4.370   6.812   5.976 -0.9355 -2.5655 -0.7042
    7MOL0     H  915   4.674   6.790   6.020  1.8057  2.4417  0.0892
    7MOL0     H  916   4.587   6.942   6.035 -1.6391 -0.2835 -0.2775
    7MOL0     H  917   4.501   6.926   5.808 -0.0279 -0.1144  0.8538
    7MOL0     H  918   4.556   6.762   5.798 -2.1271  0.2385  0.9211
    7MOL0     H  919   4.704   7.021   5.813  0.4479  0.2413 -1.2855
    7MOL0     H  920   4.804   6.872   5.816  0.2093  1.0495  1.5045
    7MOL0     H  921   4.621   6.961   5.589 -0.7243 -0.4226  0.0650
    7MOL0     H  922   4.701   6.804   5.589  0.6379  1.0651 -3.3761
    7MOL0     H  923   4.857   6.975   5.470  2.5863  2.3917  0.1749
    7MOL0     H  924   4.826   7.084   5.596  0.0391  0.0936  0.9344
    7MOL0     H  925   4.045   6.622   6.315  2.3008 -0.9175 -1.4553
    7MOL0     H  926   3.896   6.473   6.451  1.2409 -4.4227 -2.0041
    7MOL0     H  927   3.600   6.251   6.754 -2.1700 -0.8598  2.9388
    7MOL0     H  928   3.539   6.053   6.881 -0.4982  0.8256  1.2791
    7MOL0     H  929   2.644   5.299   6.214  2.9369  2.3390 -0.3118
    7MOL0     H  930   2.492   5.158   6.063  2.7668 -1.8736 -4.1472
    7MOL0     H  931   2.369   5.158   5.622 -0.0925 -0.2667  3.7673
    7MOL0     H  932   2.306   4.989   5.447  0.6438  0.1930  0.0499
    7MOL0     H  933   2.306   4.776   5.375  0.4762  0.4768 -0.4090
    7MOL0     H  934   2.172   4.855   5.288 -1.6282 -0.0516  0.3929
    7MOL0     H  935   2.082   4.586   5.354  0.8842  1.1986  2.2854
    7MOL0     H  936   2.251   4.566   5.297 -0.1544  1.0054 -2.4074
    7MOL0     H  937   2.135   4.747   5.111 -1.9992  0.1326 -3.7461
    7MOL0     H  938   2.004   4.636   5.145  0.7288 -3.5767  0.8130
    7MOL0     H  939   2.281   4.528   5.090 -0.2103  0.3193  1.8190
    7MOL0     H  940   2.126   4.450   5.080  0.1020  0.2793  0.8381
    7MOL0     H  941   2.175   4.678   4.711  0.8344  2.6997  0.7352
    7MOL0     H  942   2.012   4.815   5.714 -0.0980  0.4127  1.6505
    7MOL0     H  943   2.125   4.947   5.993 -1.5959 -0.9110  2.5290
    7MOL0     H  944   1.997   5.061   5.915  2.1588  1.1921 -0.8057
    7MOL0     H  945   1.989   4.888   5.896 -0.8819  1.4411 -1.4060
    8MOL0     O  946   8.275   5.508   4.866 -0.2567 -0.0560  0.1924
    8MOL0     C  947   8.285   5.523   4.992 -0.1809  0.0838  0.0539
    8MOL0     O  948   8.388   5.581   5.060  0.2891 -0.1110 -0.1076
    8MOL0     C  949   8.500   5.605   4.984 -0.0258  0.2947  0.5787
    8MOL0     C  950   8.596   5.502   4.950  0.2364  0.5073  0.6823
    8MOL0     C  951   8.709   5.533   4.882 -0.0167 -0.0450 -0.8957
    8MOL0     C  952   8.728   5.664   4.827 -1.0774  0.5593  0.4502
    8MOL0     O  953   8.845   5.712   4.760 -0.0768  0.1903  0.3392
    8MOL0     C  954   8.911   5.609   4.676 -0.0161 -0.2350 -0.3667
    8MOL0     C  955   9.042   5.661   4.625 -0.3669 -0.2636 -1.1162
    8MOL0     C  956   9.136   5.641   4.745 -0.1948  0.4392 -0.6002
    8MOL0     C  957   9.274   5.699   4.715  0.3124 -0.2671 -0.4825
    8MOL0     C  958   9.322   5.788   4.823 -0.0841 -0.4273  0.1236
    8MOL0     C  959   9.443   5.871   4.786 -0.1183 -0.6684  0.1945
    8MOL0     C  960   9.491   5.952   4.906 -0.0062  0.2453  0.4673
    8MOL0     C  961   9.570   6.072   4.860 -0.1109 -0.0274 -0.3356
    8MOL0     N  962   9.711   6.038   4.822 -0.6001 -0.0099 -0.2496
    8MOL0     C  963   9.777   6.066   4.705 -0.5011 -0.6208 -0.8279
    8MOL0     C  964   9.901   6.016   4.723 -0.6159  0.8973 -0.1447
    8MOL0     C  965  10.005   6.044   4.623 -0.8062  0.2076 -0.3800
    8MOL0     C  966  10.146   6.059   4.689  0.1398  0.5362 -0.1671
    8MOL0     C  967  10.228   5.935   4.687 -0.0549 -1.5412 -0.1202
    8MOL0     C  968  10.374   5.996   4.686 -0.1043  0.2968  0.1154
    8MOL0     O  969  10.465   5.902   4.738 -0.0864  0.0568 -0.7876
    8MOL0     C  970  10.571   5.951   4.804 -0.6895  0.2366  0.0453
    8MOL0     C  971  10.625   6.080   4.774 -0.0412  0.4837 -0.4371
    8MOL0     C  972  10.732   6.130   4.835 -0.6472  0.1281 -0.5255
    8MOL0     C  973  10.804   6.056   4.940  0.8013 -1.2560 -0.3317
    8MOL0     C  974  10.929   6.121   5.004  0.0445 -0.2355  0.2160
    8MOL0     O  975  10.993   6.040   5.089  1.3904  0.1799 -0.4472
    8MOL0     C  976  11.121   6.049   5.130  0.5382  0.6328  0.6655
    8MOL0     C  977  11.182   5.925   5.158 -0.3444  0.1059 -0.0849
    8MOL0     C  978  11.301   5.922   5.234 -1.0485 -1.4139  0.1939
    8MOL0     C  979  11.372   6.037   5.269  0.5647 -0.6753  0.7829
    8MOL0     O  980  11.477   6.037   5.354  0.3355  0.1064 -1.2174
    8MOL0     C  981  11.582   5.964   5.300 -0.8814 -0.0227 -0.2282
    8MOL0     C  982  11.718   5.985   5.378 -0.0272 -0.0721 -0.4298
    8MOL0     C  983  11.710   6.024   5.531 -0.2109 -0.2817  0.4793
    8MOL0     C  984  11.693   5.916   5.630 -0.2883 -0.5305 -0.0883
    8MOL0     C  985  11.704   5.965   5.782  0.5321  0.2553 -0.0416
    8MOL0     C  986  11.715   5.842   5.872 -0.2856 -0.7935 -0.5834
    8MOL0     C  987  11.720   5.882   6.024  1.3578  0.3681  0.5152
    8MOL0     C  988  11.846   5.953   6.069 -0.0661 -0.0223 -0.9041
    8MOL0    Cl  989  11.818   6.111   6.102 -0.3827  0.0734  0.1114
    8MOL0     C  990  11.314   6.163   5.231 -0.1975 -0.0839 -0.3648
    8MOL0     C  991  11.193   6.162   5.160 -0.2552 -0.3008  0.2485
    8MOL0     O  992  10.965   6.230   4.961 -0.1550 -0.0030  0.0896
    8MOL0     C  993  10.755   5.929   4.968  0.4187 -0.3821  0.1795
    8MOL0     C  994  10.649   5.875   4.892 -0.0448 -0.3069 -0.6955
    8MOL0     N  995   9.905   5.950   4.845  0.1187  0.0255 -0.0004
    8MOL0     N  996   9.793   5.966   4.902  0.5478  0.3046  0.2001
    8MOL0     C  997   8.625   5.754   4.844 -0.0717 -0.0291 -0.1201
    8MOL0     C  998   8.511   5.733   4.924  0.5362 -0.2935 -0.2678
    8MOL0     C  999   8.179   5.480   5.077  0.2465 -0.4832  0.0483
    8MOL0     C 1000   8.041   5.511   5.044  0.6293  0.8251  0.1475
    8MOL0     C 1001   7.926   5.481   5.120  0.3420  1.0436  0.4193
    8MOL0     C 1002   7.958   5.413   5.238 -0.7736 -0.6394 -0.2591
    8MOL0     O 1003   7.873   5.353   5.323 -0.1492 -0.5840 -0.1758
    8MOL0     C 1004   7.731   5.392   5.315 -0.1651  0.3405 -0.1948
    8MOL0     C 1005   7.672   5.331   5.440  0.7954 -0.4709 -0.4202
    8MOL0     C 1006   7.712   5.399   5.578 -0.1605  0.2399 -0.7737
    8MOL0     C 1007   7.726   5.306   5.692  0.1945  0.4830  0.1995
    8MOL0     C 1008   7.822   5.198   5.651 -0.3626 -0.1917 -0.3397
    8MOL0     C 1009   7.888   5.099   5.626  0.9286  0.2979  1.2449
    8MOL0     C 1010   8.089   5.383   5.274  0.9179  1.0449  0.0922
    8MOL0     C 1011   8.197   5.414   5.192 -0.7180 -0.0984 -0.6630
    8MOL0     C 1012   8.334   5.366   5.243 -0.7010 -0.4964 -0.0431
    8MOL0     H 1013   8.588   5.397   4.977 -0.3791  1.1859  3.4328
    8MOL0     H 1014   8.790   5.461   4.874  0.4672  0.1842  1.2302
    8MOL0     H 1015   8.929   5.511   4.722  0.7081 -0.4459 -1.0768
    8MOL0     H 1016   8.851   5.594   4.586  1.2705 -0.3434 -1.2268
    8MOL0     H 1017   9.028   5.766   4.597 -2.1680 -0.6930 -1.9823
    8MOL0     H 1018   9.080   5.607   4.538 -0.6195 -0.2655 -1.2253
    8MOL0     H 1019   9.160   5.535   4.761 -3.3631 -0.0684  1.9924
    8MOL0     H 1020   9.089   5.682   4.835 -0.4621  2.4343 -1.5914
    8MOL0     H 1021   9.351   5.628   4.684  1.0546  0.8454 -1.2780
    8MOL0     H 1022   9.273   5.761   4.625 -1.6500 -1.9452 -1.7264
    8MOL0     H 1023   9.237   5.851   4.854 -3.0854 -1.9417 -4.0428
    8MOL0     H 1024   9.348   5.737   4.916 -1.5775  0.4576  1.0801
    8MOL0     H 1025   9.537   5.820   4.766  2.1667  2.4525  1.9766
    8MOL0     H 1026   9.415   5.944   4.709  4.1150  1.2114  0.1573
    8MOL0     H 1027   9.563   5.891   4.962  1.4295 -0.0418 -1.5588
    8MOL0     H 1028   9.404   5.969   4.969 -2.0980 -0.9888 -1.9050
    8MOL0     H 1029   9.518   6.125   4.781  0.1766 -1.3581 -1.4452
    8MOL0     H 1030   9.575   6.141   4.945  2.0447 -1.7747  1.0793
    8MOL0     H 1031   9.745   6.136   4.628  0.5190  0.4237 -0.3405
    8MOL0     H 1032  10.012   5.966   4.546 -0.5494 -1.9571  1.7168
    8MOL0     H 1033   9.985   6.139   4.572  0.8807  1.6128  1.4059
    8MOL0     H 1034  10.188   6.139   4.628 -0.4700  1.0963  0.1345
    8MOL0     H 1035  10.139   6.109   4.786  0.8044  0.7658 -0.2364
    8MOL0     H 1036  10.211   5.873   4.599 -1.0098  2.6030 -3.1312
    8MOL0     H 1037  10.213   5.881   4.782  0.0231  1.1812  1.5426
    8MOL0     H 1038  10.373   6.083   4.753 -2.5496 -1.4654  2.5371
    8MOL0     H 1039  10.399   6.032   4.586 -0.4003  2.2006  0.6790
    8MOL0     H 1040  10.579   6.148   4.703  1.5209  1.9312 -0.1314
    8MOL0     H 1041  10.763   6.228   4.802  0.5190  0.3536  1.1585
    8MOL0     H 1042  11.137   5.832   5.127  1.8306 -0.7324 -0.9348
    8MOL0     H 1043  11.345   5.826   5.262  0.2581 -1.1677 -0.8860
    8MOL0     H 1044  11.562   5.857   5.309 -1.3782  0.0603 -0.3377
    8MOL0     H 1045  11.603   5.992   5.196 -1.2546 -0.4478 -0.4179
    8MOL0     H 1046  11.787   5.900   5.367  0.5575 -0.0226  2.1378
    8MOL0     H 1047  11.782   6.064   5.338  3.6982 -1.4312  2.2719
    8MOL0     H 1048  11.799   6.082   5.556 -0.3999  0.2190  0.0180
    8MOL0     H 1049  11.621   6.086   5.546 -0.4967 -1.1449  2.9121
    8MOL0     H 1050  11.774   5.843   5.621 -0.0927 -0.5403  1.5160
    8MOL0     H 1051  11.603   5.862   5.599  1.7673 -3.8480 -0.7876
    8MOL0     H 1052  11.615   6.022   5.809  1.7275  2.7788 -1.1407
    8MOL0     H 1053  11.793   6.024   5.806  1.5735 -1.7413  1.3064
    8MOL0     H 1054  11.623   5.784   5.870 -0.1109 -1.0547 -1.5672
    8MOL0     H 1055  11.795   5.777   5.837  0.4356 -0.4676  0.4020
    8MOL0     H 1056  11.710   5.789   6.082  1.2093 -0.4516 -0.7801
    8MOL0     H 1057  11.627   5.936   6.046  0.3172 -0.4716 -1.5410
    8MOL0     H 1058  11.891   5.907   6.157  0.1481  0.7307 -0.6078
    8MOL0     H 1059  11.913   5.952   5.983  1.2540 -1.5976  0.0891
    8MOL0     H 1060  11.358   6.257   5.264 -2.6151  1.0100 -0.0163
    8MOL0     H 1061  11.155   6.261   5.137 -0.7334 -0.6980 -0.7141
    8MOL0     H 1062  10.800   5.866   5.043 -1.7059 -1.1706  0.8679
    8MOL0     H 1063  10.618   5.771   4.883 -3.1087  0.2633  1.6622
    8MOL0     H 1064   8.644   5.848   4.794  0.3270  1.2910  2.3926
    8MOL0     H 1065   8.435   5.809   4.937 -0.5598 -0.7586 -3.1652
    8MOL0     H 1066   8.031   5.567   4.951 -0.7619 -2.7362 -2.0543
    8MOL0     H 1067   7.822   5.495   5.091  0.9442  1.0589 -1.9553
    8MOL0     H 1068   7.677   5.358   5.226 -2.1115 -0.6027  1.2658
    8MOL0     H 1069   7.728   5.501   5.320 -2.3178  0.2816  1.8937
    8MOL0     H 1070   7.681   5.224   5.420  0.6540  0.2345 -5.4143
    8MOL0     H 1071   7.564   5.346   5.432  1.1519  2.0671 -1.5534
    8MOL0     H 1072   7.654   5.490   5.598  0.0553  0.9690 -3.1907
    8MOL0     H 1073   7.811   5.446   5.565 -0.2812  2.0524  3.2575
    8MOL0     H 1074   7.747   5.346   5.792  1.4870 -0.0092  0.1512
    8MOL0     H 1075   7.634   5.248   5.697 -0.6768  1.3961 -2.9603
    8MOL0     H 1076   7.949   5.019   5.591 -0.0402 -0.1893  0.6572
    8MOL0     H 1077   8.099   5.313   5.357 -0.2685 -0.6476 -1.1254
    8MOL0     H 1078   8.395   5.325   5.162  1.1903  2.2967 -0.1326
    8MOL0     H 1079   8.390   5.449   5.287 -1.0397 -0.3274  0.0736
    8MOL0     H 1080   8.322   5.294   5.325  0.5519 -0.9596 -0.2490
    9MOL0     O 1081   5.979   6.451   5.828 -0.0514 -0.6110  0.0184
    9MOL0     C 1082   5.965   6.458   5.950  1.3579 -0.9445 -0.4332
    9MOL0     O 1083   6.062   6.437   6.041  0.2158  0.0945 -1.5793
    9MOL0     C 1084   6.196   6.451   6.018  0.0932 -0.3464  0.6924
    9MOL0     C 1085   6.251   6.518   5.903 -0.4231 -0.0023 -0.4393
    9MOL0     C 1086   6.391   6.517   5.897  0.3759 -0.1825 -0.3780
    9MOL0     C 1087   6.475   6.458   5.992 -0.1586  0.3103 -0.5458
    9MOL0     O 1088   6.608   6.463   5.966  0.1157  0.1922 -0.3555
    9MOL0     C 1089   6.702   6.411   6.067 -0.0567  0.1619 -0.2049
    9MOL0     C 1090   6.830   6.393   6.000 -0.9485 -0.0308 -0.0920
    9MOL0     C 1091   6.936   6.324   6.087 -0.2293 -0.8839 -0.5278
    9MOL0     C 1092   7.075   6.340   6.028  0.4892 -0.8622  0.4315
    9MOL0     C 1093   7.183   6.263   6.102  0.5417 -0.1627 -0.6381
    9MOL0     C 1094   7.309   6.303   6.040 -0.1214 -0.6828 -0.5478
    9MOL0     C 1095   7.417   6.200   6.080  0.5489  0.0002  0.0269
    9MOL0     C 1096   7.550   6.214   5.993  0.3113 -0.0253 -0.1027
    9MOL0     N 1097   7.664   6.145   6.064 -0.6874 -0.3248 -0.0856
    9MOL0     C 1098   7.725   6.203   6.174 -0.0483 -0.2905 -0.6942
    9MOL0     C 1099   7.817   6.107   6.211  0.0277 -0.2739  0.1771
    9MOL0     C 1100   7.895   6.109   6.334  0.0119 -0.5001 -0.5843
    9MOL0     C 1101   7.823   6.142   6.453  0.2476 -0.4327 -0.1557
    9MOL0     C 1102   7.711   6.031   6.481  0.3539  0.0785  0.0919
    9MOL0     C 1103   7.654   6.056   6.622  0.0420 -0.6309 -0.4137
    9MOL0     O 1104   7.620   6.194   6.655  0.6096 -0.8401  0.5978
    9MOL0     C 1105   7.489   6.231   6.628 -0.0382  0.5505 -0.2848
    9MOL0     C 1106   7.451   6.312   6.518  0.3784 -0.2586 -0.4470
    9MOL0     C 1107   7.316   6.331   6.495 -0.3986 -0.3271 -0.3641
    9MOL0     C 1108   7.219   6.288   6.587 -0.1387  0.1499 -0.4123
    9MOL0     C 1109   7.077   6.314   6.555  0.2078  0.3344  0.4897
    9MOL0     O 1110   6.999   6.229   6.617  0.6110 -0.5080 -0.7698
    9MOL0     C 1111   6.865   6.225   6.583 -0.0546 -0.3762 -0.1576
    9MOL0     C 1112   6.763   6.204   6.681 -0.8756  0.5513 -0.1175
    9MOL0     C 1113   6.632   6.174   6.645  0.5388 -0.1792  0.6313
    9MOL0     C 1114   6.602   6.142   6.508 -0.1248 -0.3394  0.2706
    9MOL0     O 1115   6.474   6.104   6.462  0.7763 -0.3223 -0.1668
    9MOL0     C 1116   6.362   6.101   6.556  0.6311 -0.4200 -1.0488
    9MOL0     C 1117   6.246   6.037   6.498  0.0257  0.3979 -0.2748
    9MOL0     C 1118   6.170   6.141   6.411 -0.1233 -0.4270 -0.1773
    9MOL0     C 1119   6.027   6.093   6.358  0.2197 -0.0837  0.3048
    9MOL0     C 1120   5.910   6.103   6.463 -0.4789  0.0582  0.3062
    9MOL0     C 1121   5.776   6.075   6.398 -0.4094 -0.1601 -0.4499
    9MOL0     C 1122   5.657   6.072   6.497 -0.3564 -0.6168  0.8621
    9MOL0     C 1123   5.538   6.011   6.423  0.8064 -0.3584 -0.5496
    9MOL0    Cl 1124   5.547   5.836   6.390  0.1170  0.2086  0.0817
    9MOL0     C 1125   6.699   6.145   6.414  0.3173  0.5088 -0.8103
    9MOL0     C 1126   6.831   6.185   6.453  0.2711 -0.2365  0.4528
    9MOL0     O 1127   7.047   6.408   6.481  0.2225  0.1597  0.1181
    9MOL0     C 1128   7.262   6.212   6.696  0.3783  0.5275  0.0165
    9MOL0     C 1129   7.395   6.183   6.722 -0.4806 -0.1434  0.9026
    9MOL0     N 1130   7.812   6.000   6.120 -0.2064 -0.5061  0.7217
    9MOL0     N 1131   7.728   6.030   6.026 -0.4623 -0.0869  0.7748
    9MOL0     C 1132   6.420   6.402   6.116 -0.2136 -0.0668 -0.2706
    9MOL0     C 1133   6.276   6.396   6.116 -0.9264  0.8474  0.3678
    9MOL0     C 1134   5.824   6.471   5.995  0.0061 -0.2382 -0.4864
    9MOL0     C 1135   5.772   6.371   6.079 -0.9034  0.3301 -0.4199
    9MOL0     C 1136   5.633   6.358   6.107 -0.1283 -0.5900  0.2639
    9MOL0     C 1137   5.547   6.450   6.052  0.2581  0.1120  0.2835
    9MOL0     O 1138   5.421   6.451   6.114 -0.7196 -0.3628  0.0698
    9MOL0     C 1139   5.346   6.574   6.103  0.1687  0.6508  0.1301
    9MOL0     C 1140   5.241   6.566   5.986 -0.1631  0.1129 -0.2556
    9MOL0     C 1141   5.150   6.440   6.001 -0.4745 -0.0861 -0.3767
    9MOL0     C 1142   5.043   6.446   5.883 -0.5959 -0.0030 -0.6366
    9MOL0     C 1143   5.103   6.446   5.754 -0.2436  0.0263  0.6833
    9MOL0     C 1144   5.153   6.450   5.645 -0.3766 -0.5718  0.5121
    9MOL0     C 1145   5.598   6.545   5.958 -0.7530  0.7158  0.6876
    9MOL0     C 1146   5.738   6.562   5.933  0.0915 -0.0502  0.0946
    9MOL0     C 1147   5.783   6.663   5.831  0.1391  0.1498 -0.0250
    9MOL0     H 1148   6.181   6.566   5.836 -0.6669 -0.1169 -0.2706
    9MOL0     H 1149   6.438   6.549   5.804 -1.1741  2.5697 -0.3060
    9MOL0     H 1150   6.703   6.478   6.153 -2.3056  0.8679 -0.6557
    9MOL0     H 1151   6.665   6.317   6.108 -1.3942  0.0247 -1.6342
    9MOL0     H 1152   6.864   6.493   5.973  1.2725 -0.6939  0.0792
    9MOL0     H 1153   6.825   6.350   5.899 -0.0196 -1.3533  0.3875
    9MOL0     H 1154   6.912   6.217   6.094  1.7964 -1.3532 -0.1559
    9MOL0     H 1155   6.931   6.364   6.189 -1.8820 -1.5570 -0.3200
    9MOL0     H 1156   7.073   6.310   5.924  0.2720 -1.6145  0.6512
    9MOL0     H 1157   7.092   6.448   6.039 -1.4801 -0.4543 -0.1757
    9MOL0     H 1158   7.184   6.290   6.208  0.4098 -3.3388  0.2574
    9MOL0     H 1159   7.156   6.158   6.087 -0.5043  0.3713 -2.9438
    9MOL0     H 1160   7.298   6.295   5.932 -1.8310  1.6449 -0.6133
    9MOL0     H 1161   7.336   6.407   6.061  4.0505 -1.5148 -0.9136
    9MOL0     H 1162   7.392   6.094   6.076  0.0802  0.1073  0.1122
    9MOL0     H 1163   7.431   6.231   6.185 -0.8208  3.4964 -0.6777
    9MOL0     H 1164   7.537   6.174   5.891 -0.1875 -0.6065  0.1794
    9MOL0     H 1165   7.574   6.320   5.987 -0.1045  0.0047 -1.6497
    9MOL0     H 1166   7.696   6.291   6.229  1.1022 -0.3250 -0.0167
    9MOL0     H 1167   7.944   6.011   6.341  1.3880  0.0115 -2.1945
    9MOL0     H 1168   7.982   6.173   6.317 -0.4879 -0.1845 -2.0477
    9MOL0     H 1169   7.891   6.140   6.539 -1.9059  0.3513  1.6776
    9MOL0     H 1170   7.790   6.245   6.440 -0.4213 -0.1905  2.7032
    9MOL0     H 1171   7.756   5.931   6.473 -0.8340 -0.3309 -2.1421
    9MOL0     H 1172   7.627   6.057   6.417 -0.1121  1.4090  1.1894
    9MOL0     H 1173   7.728   6.024   6.696  1.0159  1.3877 -0.4409
    9MOL0     H 1174   7.563   5.997   6.634 -0.4096  0.5478  2.7523
    9MOL0     H 1175   7.525   6.359   6.454  1.0635  0.0753  0.5723
    9MOL0     H 1176   7.295   6.397   6.412  2.5483  3.3619  1.5041
    9MOL0     H 1177   6.776   6.208   6.788  2.3435  0.2302 -0.3947
    9MOL0     H 1178   6.571   6.156   6.733  0.8301 -1.0245  0.6670
    9MOL0     H 1179   6.386   6.042   6.645 -1.2453  3.6192  2.5065
    9MOL0     H 1180   6.334   6.197   6.600 -0.6857  0.1896 -3.0579
    9MOL0     H 1181   6.274   5.957   6.429  1.9118  0.0441  0.8392
    9MOL0     H 1182   6.188   5.993   6.580  1.6098 -1.7153 -0.2119
    9MOL0     H 1183   6.164   6.238   6.463  0.1985  0.9816 -2.6136
    9MOL0     H 1184   6.240   6.163   6.330 -0.3410 -0.0653 -0.2701
    9MOL0     H 1185   6.034   5.992   6.316  2.0298  0.5422 -1.0309
    9MOL0     H 1186   6.006   6.159   6.274  1.1429 -1.7440 -1.3307
    9MOL0     H 1187   5.910   6.205   6.502 -1.9119  0.0676  0.3012
    9MOL0     H 1188   5.927   6.026   6.539  3.3848 -0.7183 -1.0978
    9MOL0     H 1189   5.757   6.143   6.314 -0.9782 -1.4136 -1.3821
    9MOL0     H 1190   5.782   5.976   6.350  1.9631  0.0030 -0.5939
    9MOL0     H 1191   5.631   6.175   6.524  1.2811  0.0170  0.1896
    9MOL0     H 1192   5.682   6.011   6.584 -1.2928  1.4891  2.7097
    9MOL0     H 1193   5.462   6.014   6.502  2.2475 -4.4872  1.2571
    9MOL0     H 1194   5.511   6.067   6.334 -0.3042 -0.0725 -0.0540
    9MOL0     H 1195   6.679   6.109   6.314 -0.6929 -1.1571 -0.0493
    9MOL0     H 1196   6.909   6.187   6.378  0.2757 -2.0750  0.3655
    9MOL0     H 1197   7.184   6.172   6.761  2.5329 -4.0140  0.1949
    9MOL0     H 1198   7.424   6.118   6.804  1.0736  0.9010  1.2251
    9MOL0     H 1199   6.475   6.359   6.199  2.7165  1.2790 -1.3839
    9MOL0     H 1200   6.230   6.348   6.202  1.0685 -0.0090  1.0141
    9MOL0     H 1201   5.838   6.301   6.129  1.1235  3.6225  2.0280
    9MOL0     H 1202   5.602   6.294   6.188  2.0215 -4.3679 -1.6393
    9MOL0     H 1203   5.411   6.660   6.088  1.6757 -0.5268 -0.3233
    9MOL0     H 1204   5.282   6.604   6.186  0.8303  0.6278  0.6516
    9MOL0     H 1205   5.295   6.557   5.892 -0.5956  3.0132 -0.8865
    9MOL0     H 1206   5.186   6.660   5.977  0.9012  0.6634 -1.2479
    9MOL0     H 1207   5.120   6.448   6.106  2.7719  2.7194  0.5220
    9MOL0     H 1208   5.203   6.346   5.985 -0.0521 -0.2064  1.5643
    9MOL0     H 1209   4.984   6.354   5.890  0.4311 -0.5862  0.7092
    9MOL0     H 1210   4.979   6.533   5.899 -0.9807  0.0606 -2.2608
    9MOL0     H 1211   5.206   6.459   5.552  0.9427  3.0039  1.4416
    9MOL0     H 1212   5.534   6.615   5.907  1.0234  2.1619  0.3440
    9MOL0     H 1213   5.865   6.724   5.870  2.0294 -1.5776 -1.1309
    9MOL0     H 1214   5.820   6.613   5.742 -0.8043  0.3684 -0.5565
    9MOL0     H 1215   5.699   6.717   5.785 -1.9421 -0.4497  2.7745
   10MOL0     O 1216   9.282   9.231   6.268  0.0567  0.0420  0.3845
   10MOL0     C 1217   9.387   9.289   6.294 -0.8812 -0.5853  0.2686
   10MOL0     O 1218   9.417   9.412   6.249  0.4341  1.0278 -0.1423
   10MOL0     C 1219   9.326   9.484   6.177  0.0686  1.3090  0.7072
   10MOL0     C 1220   9.255   9.577   6.243 -0.2057 -0.2298  1.1293
   10MOL0     C 1221   9.157   9.646   6.166  1.0179  0.1404 -0.5247
   10MOL0     C 1222   9.126   9.614   6.032 -0.5629 -0.5915  0.0976
   10MOL0     O 1223   9.016   9.675   5.974 -0.4359 -0.5130 -0.3020
   10MOL0     C 1224   8.958   9.630   5.855 -0.8588 -1.2915  0.3227
   10MOL0     C 1225   8.920   9.487   5.859 -1.1454 -0.4600 -0.0575
   10MOL0     C 1226   8.872   9.437   5.726 -0.1688 -0.6185 -0.7214
   10MOL0     C 1227   8.985   9.402   5.625  0.2148  0.2124  0.0062
   10MOL0     C 1228   8.930   9.334   5.491  0.0213  0.7448 -0.3257
   10MOL0     C 1229   9.029   9.314   5.387 -0.4790 -0.0927  0.1981
   10MOL0     C 1230   8.961   9.276   5.263 -0.0727 -0.8815  0.3272
   10MOL0     C 1231   8.874   9.150   5.276  0.2374  0.7733  0.2926
   10MOL0     N 1232   8.831   9.084   5.149  0.1544 -0.0893  0.6990
   10MOL0     C 1233   8.900   9.071   5.031 -0.1020 -0.0492  1.0697
   10MOL0     C 1234   8.812   9.008   4.945  0.0885 -0.0848  0.5021
   10MOL0     C 1235   8.839   8.980   4.799  0.3796 -0.7029  0.6290
   10MOL0     C 1236   8.967   8.900   4.771 -0.4736  0.9303  1.1621
   10MOL0     C 1237   9.007   8.906   4.622  0.3176 -0.2241 -0.0914
   10MOL0     C 1238   9.162   8.872   4.596  0.6040 -0.8853  0.1479
   10MOL0     O 1239   9.179   8.727   4.623  0.5870 -0.3026 -0.5957
   10MOL0     C 1240   9.255   8.696   4.737 -1.0918  0.7589 -0.1393
   10MOL0     C 1241   9.395   8.696   4.726 -1.2164  0.2172 -0.1519
   10MOL0     C 1242   9.471   8.663   4.841  0.1050 -0.2468  0.2411
   10MOL0     C 1243   9.412   8.631   4.961  0.1447  0.5300  0.0475
   10MOL0     C 1244   9.486   8.618   5.091 -0.3229 -0.6281  1.0367
   10MOL0     O 1245   9.424   8.636   5.210 -0.2331  0.0710 -0.0197
   10MOL0     C 1246   9.500   8.629   5.327 -0.5370 -0.4654  0.1121
   10MOL0     C 1247   9.441   8.582   5.447  0.6155 -0.1747  0.2184
   10MOL0     C 1248   9.500   8.606   5.569  0.0415  0.6648 -0.9077
   10MOL0     C 1249   9.627   8.660   5.585  0.5606  1.0809  0.1225
   10MOL0     O 1250   9.697   8.663   5.703 -0.6992  0.2202  1.0179
   10MOL0     C 1251   9.646   8.586   5.815 -0.0756 -0.4275 -0.0039
   10MOL0     C 1252   9.733   8.570   5.938  0.6278 -0.2169  0.9677
   10MOL0     C 1253   9.727   8.430   5.997  0.2967 -0.5827 -0.4487
   10MOL0     C 1254   9.627   8.409   6.108 -0.1221 -0.3049  0.0794
   10MOL0     C 1255   9.477   8.427   6.064 -0.2622  0.2008  0.6471
   10MOL0     C 1256   9.384   8.370   6.167  0.5970  0.8239  0.0468
   10MOL0     C 1257   9.362   8.468   6.286  0.3731  0.3462  0.7306
   10MOL0     C 1258   9.308   8.401   6.404  0.0313  0.4405  0.0343
   10MOL0    Cl 1259   9.140   8.359   6.376 -0.3102  0.5294  0.1637
   10MOL0     C 1260   9.691   8.708   5.463  0.2316  0.3752 -0.4456
   10MOL0     C 1261   9.623   8.699   5.338  0.1337 -0.0040 -0.7467
   10MOL0     O 1262   9.601   8.585   5.074 -0.1309 -0.0855 -0.4636
   10MOL0     C 1263   9.269   8.626   4.971 -0.5721  0.0441  0.2619
   10MOL0     C 1264   9.191   8.650   4.859 -0.5636  0.2484  0.5266
   10MOL0     N 1265   8.701   8.985   5.021 -0.2656 -0.6236 -0.1818
   10MOL0     N 1266   8.711   9.025   5.141 -0.1699 -0.2710 -0.3320
   10MOL0     C 1267   9.208   9.531   5.962 -0.1025  0.0696  0.4228
   10MOL0     C 1268   9.317   9.464   6.040 -0.2040  0.7769  0.4132
   10MOL0     C 1269   9.483   9.229   6.385 -0.8938  0.5885 -0.3014
   10MOL0     C 1270   9.600   9.301   6.413  0.0216  0.2544 -0.0532
   10MOL0     C 1271   9.692   9.249   6.502 -0.7707 -0.7113  0.4118
   10MOL0     C 1272   9.683   9.115   6.551 -0.4537 -0.4014  0.1415
   10MOL0     O 1273   9.795   9.050   6.607 -0.4250  0.1684  0.8694
   10MOL0     C 1274   9.798   8.906   6.598  0.5464  0.4404 -0.2635
   10MOL0     C 1275   9.930   8.847   6.647 -1.0258  0.4293 -0.9225
   10MOL0     C 1276   9.985   8.929   6.770 -0.2973 -0.6117  0.0812
   10MOL0     C 1277   9.965   8.856   6.907 -0.2951  0.0196 -0.8287
   10MOL0     C 1278  10.032   8.726   6.903 -1.1951  0.5747  0.5077
   10MOL0     C 1279  10.083   8.615   6.902 -0.2890 -1.1171 -0.1994
   10MOL0     C 1280   9.555   9.061   6.548 -0.3096  0.4026  0.2030
   10MOL0     C 1281   9.464   9.105   6.453 -0.1812  0.6256  0.1133
   10MOL0     C 1282   9.341   9.009   6.433  0.7368  0.4447 -0.0705
   10MOL0     H 1283   9.263   9.610   6.346 -2.1257 -2.8273  2.1906
   10MOL0     H 1284   9.092   9.714   6.220 -1.3146 -2.3621  0.0391
   10MOL0     H 1285   8.869   9.690   5.839 -0.1784 -0.5289 -0.7532
   10MOL0     H 1286   9.037   9.646   5.781 -1.5380  1.0243  0.0347
   10MOL0     H 1287   8.848   9.473   5.940  0.3859 -1.7371  1.1554
   10MOL0     H 1288   8.994   9.414   5.893  0.2221  0.2152 -1.4532
   10MOL0     H 1289   8.813   9.517   5.680 -0.6088 -0.6478 -0.2205
   10MOL0     H 1290   8.819   9.344   5.748 -1.2369  0.6983  3.0278
   10MOL0     H 1291   9.038   9.495   5.602 -0.4546  0.1775 -1.7953
   10MOL0     H 1292   9.057   9.335   5.673 -0.4611 -2.3091 -2.2509
   10MOL0     H 1293   8.883   9.236   5.505 -0.0699  0.5982 -1.5154
   10MOL0     H 1294   8.852   9.394   5.444 -0.2494 -0.5594 -1.6227
   10MOL0     H 1295   9.086   9.406   5.368  2.2895 -1.4649  1.2252
   10MOL0     H 1296   9.106   9.242   5.417  0.7320  1.1917  0.3418
   10MOL0     H 1297   9.024   9.246   5.179 -1.6129 -1.8166 -0.5389
   10MOL0     H 1298   8.893   9.358   5.235  1.3041 -0.4036 -1.8541
   10MOL0     H 1299   8.938   9.081   5.331  3.1848  2.7493 -0.4361
   10MOL0     H 1300   8.785   9.173   5.335  0.2077  0.2720  0.4490
   10MOL0     H 1301   8.991   9.123   5.002  0.5537 -1.5789  0.2827
   10MOL0     H 1302   8.743   8.942   4.763  1.0454 -1.1079 -0.7516
   10MOL0     H 1303   8.847   9.078   4.753 -2.1580 -0.6264  0.1710
   10MOL0     H 1304   9.059   8.917   4.828  0.3900 -0.7793  0.3504
   10MOL0     H 1305   8.944   8.794   4.776  3.0369 -0.1573 -1.3283
   10MOL0     H 1306   9.001   9.010   4.590 -2.3088 -0.8001 -1.8112
   10MOL0     H 1307   8.952   8.837   4.557 -0.6953 -0.5841  1.1234
   10MOL0     H 1308   9.215   8.927   4.674  0.7918 -1.1950  0.2420
   10MOL0     H 1309   9.203   8.885   4.495  0.5770 -0.1587  0.2250
   10MOL0     H 1310   9.450   8.712   4.634  1.5265  0.1088  1.3840
   10MOL0     H 1311   9.579   8.657   4.830 -0.0120 -0.4384 -1.0131
   10MOL0     H 1312   9.345   8.532   5.441 -0.1932  0.6502  4.0403
   10MOL0     H 1313   9.440   8.583   5.657  3.5956 -0.9950  1.3535
   10MOL0     H 1314   9.545   8.615   5.844 -0.7511  3.0191 -4.6729
   10MOL0     H 1315   9.629   8.483   5.780 -0.7069  0.4416 -2.4309
   10MOL0     H 1316   9.832   8.568   5.892 -0.4785 -2.8480 -1.6300
   10MOL0     H 1317   9.720   8.657   6.003 -0.2013  0.0430  0.4652
   10MOL0     H 1318   9.712   8.355   5.919 -0.3738  1.6545 -2.5832
   10MOL0     H 1319   9.829   8.409   6.032  0.0592 -2.9533 -0.9995
   10MOL0     H 1320   9.638   8.484   6.188 -0.3480 -0.5608  0.3519
   10MOL0     H 1321   9.643   8.307   6.145 -1.6889 -1.6501 -2.6349
   10MOL0     H 1322   9.477   8.369   5.971  2.6396  0.0267  0.6845
   10MOL0     H 1323   9.455   8.534   6.054  2.1294  0.5404 -2.4122
   10MOL0     H 1324   9.288   8.355   6.116 -0.5510 -2.0404  2.7051
   10MOL0     H 1325   9.418   8.270   6.194  0.2431  0.8392  0.5833
   10MOL0     H 1326   9.307   8.549   6.236  0.9578 -0.7719 -1.9000
   10MOL0     H 1327   9.464   8.503   6.309  1.0929 -1.4118  0.3532
   10MOL0     H 1328   9.363   8.308   6.424  3.0208  1.3044 -3.1532
   10MOL0     H 1329   9.327   8.463   6.492 -2.1994  3.7128 -1.6115
   10MOL0     H 1330   9.787   8.758   5.477  0.1308  0.9723 -1.6900
   10MOL0     H 1331   9.659   8.749   5.249  0.8202 -0.9885 -1.0339
   10MOL0     H 1332   9.228   8.615   5.071  1.3243  0.0489  1.0823
   10MOL0     H 1333   9.082   8.645   4.854 -0.7155  1.9063  1.1997
   10MOL0     H 1334   9.201   9.522   5.854 -0.9127 -0.2491  0.5001
   10MOL0     H 1335   9.368   9.398   5.971 -0.4215  1.9008 -0.8703
   10MOL0     H 1336   9.627   9.391   6.358  3.5443 -0.2377  0.6246
   10MOL0     H 1337   9.779   9.314   6.505 -0.3575 -1.2626  0.4867
   10MOL0     H 1338   9.773   8.881   6.494 -0.4298  1.7098 -0.3493
   10MOL0     H 1339   9.719   8.849   6.648  2.7555 -2.2432  0.4508
   10MOL0     H 1340  10.010   8.858   6.573  1.9153 -2.5263  1.5160
   10MOL0     H 1341   9.928   8.741   6.672  1.8926  0.2534 -1.1834
   10MOL0     H 1342   9.936   9.026   6.771  0.2315 -0.3326 -0.4092
   10MOL0     H 1343  10.091   8.949   6.750 -0.4398  1.0640  0.8660
   10MOL0     H 1344  10.001   8.917   6.991  1.2847 -0.6161 -1.0148
   10MOL0     H 1345   9.861   8.826   6.926  0.7491 -1.9188  2.7482
   10MOL0     H 1346  10.111   8.512   6.900 -2.2981 -1.6999 -0.8038
   10MOL0     H 1347   9.543   8.962   6.591 -0.6002 -0.2624 -1.3578
   10MOL0     H 1348   9.253   9.072   6.441  2.0177  2.5058 -1.4003
   10MOL0     H 1349   9.347   8.962   6.335 -1.5883  1.8407 -0.9607
   10MOL0     H 1350   9.338   8.926   6.504 -1.2720  0.5356  0.0057
   11MOL0     O 1351   1.062   9.566   4.738  0.3215  0.5509 -0.2768
   11MOL0     C 1352   1.061   9.444   4.725 -0.5940  0.1899 -0.0435
   11MOL0     O 1353   1.131   9.359   4.809 -0.6909 -0.0096  1.2591
   11MOL0     C 1354   1.191   9.426   4.911 -2.0890  0.0870  0.1377
   11MOL0     C 1355   1.122   9.441   5.030 -0.8673 -0.5384  0.4937
   11MOL0     C 1356   1.189   9.483   5.147 -0.6628 -0.9458  0.4543
   11MOL0     C 1357   1.322   9.529   5.136  0.0993  0.4232 -0.6124
   11MOL0     O 1358   1.368   9.580   5.250 -0.2121  0.5615  0.0701
   11MOL0     C 1359   1.502   9.641   5.262  0.9210  0.6069  0.2424
   11MOL0     C 1360   1.529   9.696   5.400  0.4223  0.2395  0.0943
   11MOL0     C 1361   1.676   9.748   5.420  0.4037  0.0248 -0.0907
   11MOL0     C 1362   1.787   9.632   5.417 -0.3723  0.4788  0.9227
   11MOL0     C 1363   1.909   9.668   5.496  0.1464  0.2425 -0.5485
   11MOL0     C 1364   1.881   9.682   5.647  0.3814 -0.0302 -0.1938
   11MOL0     C 1365   2.010   9.739   5.715 -0.9576  0.0486  0.0659
   11MOL0     C 1366   2.005   9.742   5.866 -0.5203 -0.6883 -0.5201
   11MOL0     N 1367   2.136   9.745   5.932 -0.5940 -0.8562  0.9473
   11MOL0     C 1368   2.237   9.838   5.898 -0.5139 -0.1364 -0.2257
   11MOL0     C 1369   2.334   9.812   5.983 -0.2790  0.6658  0.0975
   11MOL0     C 1370   2.464   9.879   5.987 -0.0244 -0.2789 -0.2363
   11MOL0     C 1371   2.466  10.004   6.070  0.5638  0.7487 -0.2610
   11MOL0     C 1372   2.605  10.066   6.087 -0.0062  0.1880  0.4006
   11MOL0     C 1373   2.592  10.189   6.173  0.0671  0.1403 -0.5264
   11MOL0     O 1374   2.720  10.245   6.196 -0.0348  0.0074  0.2113
   11MOL0     C 1375   2.735  10.362   6.270  0.4063  0.1917  0.4203
   11MOL0     C 1376   2.859  10.421   6.287 -0.1964  0.8991  1.0688
   11MOL0     C 1377   2.885  10.529   6.359 -0.0426 -0.0179  0.1890
   11MOL0     C 1378   2.782  10.582   6.435 -0.4543 -0.0911  0.0317
   11MOL0     C 1379   2.807  10.693   6.534  0.3449 -0.1701  0.1408
   11MOL0     O 1380   2.715  10.719   6.630  0.8940 -0.3860 -0.6231
   11MOL0     C 1381   2.740  10.810   6.737 -0.2201 -0.5217 -0.3901
   11MOL0     C 1382   2.768  10.945   6.718 -0.5758 -0.5037  0.4206
   11MOL0     C 1383   2.789  11.035   6.817  0.0180 -0.7932  0.6398
   11MOL0     C 1384   2.773  10.993   6.953 -0.1306  0.3396 -0.7337
   11MOL0     O 1385   2.779  11.078   7.057 -0.2983  0.1930 -0.7036
   11MOL0     C 1386   2.829  11.216   7.041 -0.1085  1.1763  0.9884
   11MOL0     C 1387   2.889  11.271   7.171  0.0415  0.0281 -0.5440
   11MOL0     C 1388   2.965  11.171   7.255  1.0102 -0.7085  0.2657
   11MOL0     C 1389   3.005  11.232   7.394 -0.0274 -0.3213  0.6178
   11MOL0     C 1390   3.098  11.145   7.471  0.1657 -0.0235 -0.0378
   11MOL0     C 1391   3.019  11.025   7.522  0.5921 -0.4423  0.0720
   11MOL0     C 1392   3.120  10.936   7.608  0.0158  0.0026 -0.4711
   11MOL0     C 1393   3.055  10.836   7.698 -0.0009 -0.4591 -0.4979
   11MOL0    Cl 1394   3.183  10.746   7.790  0.0943 -0.5443  0.6075
   11MOL0     C 1395   2.742  10.854   6.976 -0.2690 -0.3767 -0.6801
   11MOL0     C 1396   2.738  10.769   6.869  0.9675  0.1251  0.6251
   11MOL0     O 1397   2.901  10.766   6.501 -0.0702  0.7998 -0.6614
   11MOL0     C 1398   2.658  10.526   6.425  0.3416 -0.2232  1.3558
   11MOL0     C 1399   2.635  10.424   6.331  0.8900 -0.2403 -0.8874
   11MOL0     N 1400   2.294   9.709   6.060 -0.0774  0.1331 -0.0965
   11MOL0     N 1401   2.183   9.658   6.020  0.2663  0.2335  0.3398
   11MOL0     C 1402   1.393   9.526   5.018 -0.8424 -0.0465  0.3330
   11MOL0     C 1403   1.327   9.468   4.911 -0.2495 -0.9603 -0.2951
   11MOL0     C 1404   0.988   9.406   4.604 -0.6369  0.0040  0.2330
   11MOL0     C 1405   1.017   9.471   4.485 -0.1396 -0.1704  0.0478
   11MOL0     C 1406   0.966   9.428   4.364  0.0508 -0.3616 -0.0387
   11MOL0     C 1407   0.887   9.324   4.351  0.0089 -0.1216  0.0052
   11MOL0     O 1408   0.845   9.305   4.221 -0.1760 -0.5329  0.8950
   11MOL0     C 1409   0.723   9.234   4.194 -0.4466 -0.3814 -0.7834
   11MOL0     C 1410   0.682   9.244   4.055 -0.1680  0.2181  1.0111
   11MOL0     C 1411   0.630   9.376   4.007  0.4047 -1.1769  0.1658
   11MOL0     C 1412   0.547   9.368   3.877 -1.0362 -0.4661  0.4701
   11MOL0     C 1413   0.549   9.501   3.812  0.6584 -0.0322  0.9885
   11MOL0     C 1414   0.556   9.608   3.742 -0.5288 -0.0727  0.1514
   11MOL0     C 1415   0.857   9.253   4.464  0.4723 -0.5229 -0.2626
   11MOL0     C 1416   0.900   9.287   4.589 -0.2366  0.2054  0.5736
   11MOL0     C 1417   0.853   9.191   4.696 -0.1666 -0.3298  0.3094
   11MOL0     H 1418   1.021   9.405   5.050 -1.0271 -0.9259 -0.8627
   11MOL0     H 1419   1.143   9.485   5.245  0.4134  0.8727  0.9752
   11MOL0     H 1420   1.575   9.563   5.237  2.2745  2.0486 -0.4825
   11MOL0     H 1421   1.529   9.722   5.194  0.4893  1.7733  1.4200
   11MOL0     H 1422   1.505   9.612   5.466  2.6197 -0.2371  0.3788
   11MOL0     H 1423   1.459   9.778   5.418  0.1486 -0.2825  1.5086
   11MOL0     H 1424   1.668   9.808   5.512 -2.0445 -0.9162  0.3707
   11MOL0     H 1425   1.698   9.827   5.347  3.2991  1.8307  2.4569
   11MOL0     H 1426   1.727   9.555   5.467 -2.0779  2.0845  1.4693
   11MOL0     H 1427   1.815   9.607   5.314 -0.5367  0.0179  0.9872
   11MOL0     H 1428   1.975   9.582   5.481 -1.5699 -1.2355 -0.0355
   11MOL0     H 1429   1.960   9.756   5.456  1.6958 -1.2052 -1.9020
   11MOL0     H 1430   1.789   9.736   5.670  0.1549 -1.2764  2.0804
   11MOL0     H 1431   1.866   9.589   5.702 -2.5893 -0.3144 -1.3272
   11MOL0     H 1432   2.024   9.843   5.682  1.7147 -0.3132 -0.1586
   11MOL0     H 1433   2.099   9.680   5.690 -1.4143 -1.8186  2.4815
   11MOL0     H 1434   1.945   9.832   5.884  0.7938  0.4715 -1.6748
   11MOL0     H 1435   1.951   9.656   5.905 -0.2697  0.1242  1.7593
   11MOL0     H 1436   2.231   9.915   5.822 -3.2821  1.1808  1.1493
   11MOL0     H 1437   2.546   9.816   6.024  2.1370  2.8442  0.7706
   11MOL0     H 1438   2.494   9.895   5.883 -2.2206 -0.3735 -0.9202
   11MOL0     H 1439   2.401  10.079   6.024 -0.5313 -1.0052 -1.7135
   11MOL0     H 1440   2.422   9.982   6.168 -1.2260  0.6034 -1.0558
   11MOL0     H 1441   2.651  10.093   5.992 -0.3807  1.1278  0.4742
   11MOL0     H 1442   2.658   9.980   6.129  0.7093  0.7176  0.5834
   11MOL0     H 1443   2.546  10.161   6.269 -3.4687  2.2831 -1.4023
   11MOL0     H 1444   2.521  10.260   6.130 -1.7649 -1.4999 -0.3706
   11MOL0     H 1445   2.942  10.365   6.244  0.8400  2.0637  1.4694
   11MOL0     H 1446   2.982  10.578   6.353 -0.9174  1.7555 -0.2189
   11MOL0     H 1447   2.789  10.975   6.616 -1.4156 -3.5213 -0.7527
   11MOL0     H 1448   2.815  11.137   6.792  0.2826 -0.3373  2.6119
   11MOL0     H 1449   2.906  11.234   6.966  0.1899  1.0648  1.2656
   11MOL0     H 1450   2.750  11.285   7.008  1.9971  2.6246 -1.4053
   11MOL0     H 1451   2.949  11.359   7.147  1.7019 -1.3760 -1.8731
   11MOL0     H 1452   2.800  11.308   7.222 -0.6390  0.4265 -1.9723
   11MOL0     H 1453   2.902  11.083   7.274 -1.5799  1.6405  3.7802
   11MOL0     H 1454   3.053  11.147   7.194  0.2691 -1.6853 -0.4516
   11MOL0     H 1455   2.917  11.262   7.451  1.0257 -0.0916  2.1663
   11MOL0     H 1456   3.052  11.319   7.347 -0.6512 -1.1396 -1.7056
   11MOL0     H 1457   3.143  11.199   7.555  2.6090 -0.6437 -0.8596
   11MOL0     H 1458   3.180  11.132   7.399  1.7296  1.6110  1.3548
   11MOL0     H 1459   2.943  11.067   7.588  1.0966  1.4215 -0.4716
   11MOL0     H 1460   2.974  10.967   7.441 -2.2087 -1.1462  1.9905
   11MOL0     H 1461   3.165  11.004   7.680 -3.5139  1.0463  0.9835
   11MOL0     H 1462   3.203  10.900   7.546  0.4020  2.1431 -1.2967
   11MOL0     H 1463   2.994  10.885   7.774  1.8663  0.4485  0.4769
   11MOL0     H 1464   2.992  10.767   7.642  1.6276 -1.0184 -1.7207
   11MOL0     H 1465   2.737  10.825   7.080  0.7872  4.9098  1.1633
   11MOL0     H 1466   2.712  10.667   6.896  0.3740  0.6522  2.1663
   11MOL0     H 1467   2.576  10.582   6.467 -0.8221 -0.6679 -0.2023
   11MOL0     H 1468   2.531  10.394   6.322  0.3498  1.9515 -2.8121
   11MOL0     H 1469   1.493   9.565   5.002 -0.7132 -0.6628 -0.4377
   11MOL0     H 1470   1.377   9.458   4.815  1.4492  0.9221  0.3212
   11MOL0     H 1471   1.075   9.562   4.474 -0.0403 -0.3573 -1.1576
   11MOL0     H 1472   0.987   9.488   4.276  2.7893  1.8183  1.9027
   11MOL0     H 1473   0.645   9.268   4.262 -0.8633 -2.2791 -0.2454
   11MOL0     H 1474   0.731   9.128   4.219 -3.1795 -0.4454  0.0301
   11MOL0     H 1475   0.599   9.172   4.050 -1.0767  1.1910 -4.1225
   11MOL0     H 1476   0.770   9.219   3.995 -0.3238  1.4972  0.2042
   11MOL0     H 1477   0.717   9.440   3.992 -0.1389 -0.8439 -1.8606
   11MOL0     H 1478   0.575   9.420   4.091  1.4140 -1.8922  1.2395
   11MOL0     H 1479   0.603   9.299   3.813  3.2607  2.7009  0.3993
   11MOL0     H 1480   0.444   9.333   3.891 -0.4451 -2.7735 -0.3862
   11MOL0     H 1481   0.552   9.695   3.680 -1.0899 -0.8244 -0.9040
   11MOL0     H 1482   0.789   9.170   4.446 -1.9576  1.6614 -1.8490
   11MOL0     H 1483   0.754   9.156   4.666  0.5596 -0.6468 -1.8828
   11MOL0     H 1484   0.902   9.094   4.694  2.3497  0.7654 -3.6547
   11MOL0     H 1485   0.850   9.233   4.797 -1.4005  1.4429 -0.4144
   12MOL0     O 1486   7.827   0.174   4.319  0.0438  0.0715  0.0767
   12MOL0     C 1487   7.846   0.106   4.420 -0.1010 -0.5854  0.5063
   12MOL0     O 1488   7.749   0.052   4.500 -0.5546  1.2507  0.0262
   12MOL0     C 1489   7.615   0.073   4.470 -0.7338  0.3254  0.1886
   12MOL0     C 1490   7.553   0.078   4.338  1.0295 -0.0780 -0.2892
   12MOL0     C 1491   7.418   0.111   4.324 -0.9876  0.1191 -0.7322
   12MOL0     C 1492   7.345   0.124   4.442  0.6262  0.5371 -0.0613
   12MOL0     O 1493   7.214   0.141   4.434 -0.3929  0.1464 -0.4968
   12MOL0     C 1494   7.166   0.245   4.354  0.4949  0.2922 -0.5040
   12MOL0     C 1495   7.070   0.333   4.429 -0.0226 -0.4681 -0.1911
   12MOL0     C 1496   6.951   0.268   4.503 -0.8651 -0.3506 -0.0887
   12MOL0     C 1497   6.823   0.337   4.463  0.3287 -0.1359  0.5505
   12MOL0     C 1498   6.698   0.271   4.522 -1.0647 -0.4538 -0.0369
   12MOL0     C 1499   6.658   0.146   4.442 -0.1594  0.2173  0.6705
   12MOL0     C 1500   6.520   0.103   4.482  0.7891 -0.9274 -0.7578
   12MOL0     C 1501   6.501  -0.049   4.451 -0.5805 -0.0441 -1.0317
   12MOL0     N 1502   6.535  -0.093   4.316  0.2562 -0.1864  0.5554
   12MOL0     C 1503   6.614  -0.198   4.291 -0.2442  0.0033  0.0099
   12MOL0     C 1504   6.586  -0.237   4.163 -0.3690 -1.0630 -0.3276
   12MOL0     C 1505   6.639  -0.361   4.100 -0.1029  0.5589 -0.1373
   12MOL0     C 1506   6.788  -0.379   4.116 -0.1654 -0.3263  0.1697
   12MOL0     C 1507   6.871  -0.275   4.039  0.3002 -0.8149 -0.0490
   12MOL0     C 1508   7.017  -0.293   4.061 -0.1262 -0.0144  0.6641
   12MOL0     O 1509   7.049  -0.298   4.197 -0.3021 -0.1442 -0.2561
   12MOL0     C 1510   7.191  -0.305   4.230  0.7865  0.0072 -0.6867
   12MOL0     C 1511   7.225  -0.232   4.350 -0.1541 -0.0569  0.5674
   12MOL0     C 1512   7.357  -0.225   4.386  0.3670  0.7171  0.5422
   12MOL0     C 1513   7.466  -0.276   4.303  0.2862 -0.7375 -0.9984
   12MOL0     C 1514   7.604  -0.278   4.354  1.3146 -0.3089 -0.2607
   12MOL0     O 1515   7.618  -0.302   4.488 -0.0035  0.0910  0.1197
   12MOL0     C 1516   7.743  -0.332   4.540  0.6928  0.6195  0.2168
   12MOL0     C 1517   7.765  -0.286   4.670 -0.1056 -0.6152 -1.6427
   12MOL0     C 1518   7.883  -0.317   4.746 -0.2846 -1.9373  0.9500
   12MOL0     C 1519   7.977  -0.401   4.692 -0.2321  0.0493  0.8056
   12MOL0     O 1520   8.077  -0.443   4.775  0.3144  0.0933 -0.1520
   12MOL0     C 1521   8.125  -0.576   4.761 -0.6795  0.6948 -0.5557
   12MOL0     C 1522   8.251  -0.578   4.686 -0.9918 -0.5090 -0.1119
   12MOL0     C 1523   8.378  -0.546   4.775  0.6256  0.2438 -0.4110
   12MOL0     C 1524   8.507  -0.537   4.693  0.2633 -0.4393 -0.4001
   12MOL0     C 1525   8.623  -0.514   4.798 -0.7401 -0.0900 -0.9277
   12MOL0     C 1526   8.764  -0.508   4.720  0.2175 -0.0461  0.1232
   12MOL0     C 1527   8.887  -0.490   4.818  0.1196 -0.2414 -0.6365
   12MOL0     C 1528   9.021  -0.533   4.761  0.6648  0.3400 -0.9445
   12MOL0    Cl 1529   9.072  -0.454   4.612 -0.0555  0.0336 -0.4806
   12MOL0     C 1530   7.953  -0.443   4.559  0.3325 -0.4186 -0.2526
   12MOL0     C 1531   7.837  -0.420   4.485  0.0527  0.1315 -0.0853
   12MOL0     O 1532   7.696  -0.275   4.271  0.3115 -0.1824  0.5530
   12MOL0     C 1533   7.427  -0.334   4.181  0.2337 -0.6601  0.4929
   12MOL0     C 1534   7.291  -0.352   4.147 -0.0626 -0.7472 -0.0127
   12MOL0     N 1535   6.493  -0.142   4.113 -0.2249  0.3949  0.4541
   12MOL0     N 1536   6.458  -0.066   4.207  0.3566 -0.6701 -0.8246
   12MOL0     C 1537   7.400   0.112   4.569  0.2313  0.1991  0.3228
   12MOL0     C 1538   7.535   0.100   4.582 -0.0999 -0.1736  0.7048
   12MOL0     C 1539   7.994   0.071   4.436  0.3172  0.1630 -0.7702
   12MOL0     C 1540   8.017  -0.055   4.488 -0.2265  0.3697 -0.0023
   12MOL0     C 1541   8.151  -0.107   4.496 -0.1161  0.5807 -0.2543
   12MOL0     C 1542   8.263  -0.023   4.459  0.2802  0.2235  0.0772
   12MOL0     O 1543   8.392  -0.069   4.489 -0.2561 -0.3853  1.0505
   12MOL0     C 1544   8.416  -0.190   4.566 -0.8193  0.1113  0.4082
   12MOL0     C 1545   8.554  -0.185   4.626  0.3569 -1.0256  0.4736
   12MOL0     C 1546   8.559  -0.048   4.710 -0.4400  0.3459  0.6457
   12MOL0     C 1547   8.697  -0.053   4.783  0.7666  0.0413 -1.4481
   12MOL0     C 1548   8.754   0.084   4.795  1.3964  0.1649 -0.2595
   12MOL0     C 1549   8.798   0.195   4.816 -0.5431 -0.2633  0.3267
   12MOL0     C 1550   8.236   0.101   4.402 -0.3506  0.2149 -0.3606
   12MOL0     C 1551   8.108   0.146   4.395 -0.3162  0.0087  0.7935
   12MOL0     C 1552   8.085   0.289   4.336 -0.9780  0.7047  0.1479
   12MOL0     H 1553   7.610   0.077   4.245  1.3387  1.1196 -0.1197
   12MOL0     H 1554   7.383   0.128   4.223  2.2441  0.3120 -1.9349
   12MOL0     H 1555   7.251   0.311   4.335  0.3936  0.6696  0.3226
   12MOL0     H 1556   7.129   0.202   4.261 -2.3006 -1.6520  1.3278
   12MOL0     H 1557   7.050   0.409   4.352 -0.3747  0.6871  1.0123
   12MOL0     H 1558   7.127   0.394   4.499  1.9618 -2.7340  0.2977
   12MOL0     H 1559   6.965   0.289   4.609 -0.9951  4.4692 -0.8316
   12MOL0     H 1560   6.949   0.161   4.480 -0.3601 -1.4347  4.0622
   12MOL0     H 1561   6.834   0.431   4.517  0.5711 -0.4735  1.1034
   12MOL0     H 1562   6.809   0.358   4.357 -0.9002  1.1894  0.9511
   12MOL0     H 1563   6.727   0.254   4.626 -0.9524  2.5259  0.5107
   12MOL0     H 1564   6.628   0.355   4.523  2.8141  3.1072  1.2078
   12MOL0     H 1565   6.657   0.170   4.335 -0.5880  0.0522  0.6371
   12MOL0     H 1566   6.728   0.062   4.454 -0.1312 -0.2106 -1.9642
   12MOL0     H 1567   6.437   0.162   4.441  0.9797  0.3794  0.6580
   12MOL0     H 1568   6.518   0.107   4.591  1.7288  0.1434 -0.7655
   12MOL0     H 1569   6.567  -0.099   4.523 -1.0146  3.4086  2.0530
   12MOL0     H 1570   6.396  -0.070   4.470 -0.8670  0.1377 -2.3302
   12MOL0     H 1571   6.675  -0.246   4.367 -0.4415  1.0941  0.8872
   12MOL0     H 1572   6.596  -0.454   4.138 -2.8963  2.7232  2.5509
   12MOL0     H 1573   6.610  -0.376   3.996 -2.9890  0.1317  0.6300
   12MOL0     H 1574   6.804  -0.373   4.224  0.3486  2.9529 -0.0028
   12MOL0     H 1575   6.811  -0.480   4.080  1.6652  0.6790 -1.7308
   12MOL0     H 1576   6.847  -0.178   4.084  1.6059  0.4977 -1.9809
   12MOL0     H 1577   6.857  -0.264   3.931  1.0961 -0.5610 -0.1368
   12MOL0     H 1578   7.074  -0.207   4.022 -2.1045  0.9263 -0.2916
   12MOL0     H 1579   7.035  -0.380   3.997  0.8361  1.5080 -1.2377
   12MOL0     H 1580   7.135  -0.192   4.396 -0.0919 -0.4138  1.0037
   12MOL0     H 1581   7.382  -0.189   4.486  1.3563 -1.8206  1.2867
   12MOL0     H 1582   7.687  -0.225   4.713 -0.6512  1.2377 -4.9461
   12MOL0     H 1583   7.900  -0.283   4.848 -1.4802 -1.5335  1.0207
   12MOL0     H 1584   8.130  -0.610   4.865 -2.0670  1.9239 -0.0483
   12MOL0     H 1585   8.049  -0.632   4.706 -0.9149  1.0185 -0.5631
   12MOL0     H 1586   8.274  -0.680   4.655  1.5907 -0.3296  0.9997
   12MOL0     H 1587   8.244  -0.513   4.598 -2.4625  3.0904  2.4115
   12MOL0     H 1588   8.367  -0.449   4.825  2.3096 -0.0715  0.6509
   12MOL0     H 1589   8.400  -0.629   4.843 -1.1615 -0.8770 -1.1236
   12MOL0     H 1590   8.506  -0.449   4.628 -0.1001  1.8636  2.4993
   12MOL0     H 1591   8.528  -0.635   4.648  0.0705 -1.1677  1.0283
   12MOL0     H 1592   8.642  -0.602   4.860  1.2083 -0.7360 -2.3338
   12MOL0     H 1593   8.604  -0.432   4.868  0.8796 -1.4125  1.1905
   12MOL0     H 1594   8.776  -0.606   4.674 -0.4483  0.5281 -1.3601
   12MOL0     H 1595   8.761  -0.434   4.639  0.8528 -0.3890 -0.2202
   12MOL0     H 1596   8.866  -0.543   4.911 -0.7411  1.4214  0.1762
   12MOL0     H 1597   8.889  -0.381   4.830 -1.9599 -0.0356 -1.7235
   12MOL0     H 1598   9.103  -0.531   4.833  1.5154 -2.6883 -1.6529
   12MOL0     H 1599   9.018  -0.643   4.759  1.6912  0.2163  1.1621
   12MOL0     H 1600   8.029  -0.502   4.507  0.0987  0.6212 -1.8381
   12MOL0     H 1601   7.817  -0.470   4.391  0.4085  1.1486 -0.7178
   12MOL0     H 1602   7.506  -0.367   4.114  3.2270 -1.3199  4.0617
   12MOL0     H 1603   7.262  -0.386   4.048 -1.2453 -0.3172  0.1819
   12MOL0     H 1604   7.350   0.137   4.662 -0.4195  0.8184 -0.1858
   12MOL0     H 1605   7.584   0.112   4.678 -0.2139  5.8724  0.3941
   12MOL0     H 1606   7.940  -0.126   4.517  0.6005 -1.8915 -2.8296
   12MOL0     H 1607   8.167  -0.207   4.536  0.4363  1.3213  1.4782
   12MOL0     H 1608   8.406  -0.271   4.493  2.6874 -0.1751  0.0739
   12MOL0     H 1609   8.339  -0.196   4.644 -1.3752 -2.0843 -0.2540
   12MOL0     H 1610   8.624  -0.184   4.542  0.6676 -1.3408  0.7227
   12MOL0     H 1611   8.577  -0.270   4.692  1.8896 -1.8657 -1.0580
   12MOL0     H 1612   8.481  -0.036   4.786  1.8028  3.5900  2.6728
   12MOL0     H 1613   8.553   0.032   4.636 -0.3107 -1.1015 -0.9923
   12MOL0     H 1614   8.665  -0.105   4.874 -0.4306  1.8036 -0.8161
   12MOL0     H 1615   8.770  -0.118   4.734  2.4865 -1.1004  2.2546
   12MOL0     H 1616   8.844   0.289   4.838 -0.1220 -0.3503 -0.1679
   12MOL0     H 1617   8.314   0.160   4.356  1.0063 -0.2987  1.2177
   12MOL0     H 1618   8.034   0.348   4.412  1.1282  3.0934 -0.1471
   12MOL0     H 1619   8.174   0.351   4.320 -1.9033  2.1411  0.3727
   12MOL0     H 1620   8.040   0.295   4.236 -0.1384  0.6606 -0.2425
   13MOL0     O 1621   9.977   0.792   4.083 -0.2331  0.1660 -0.0690
   13MOL0     C 1622  10.096   0.816   4.070  0.2836  0.5390  1.1065
   13MOL0     O 1623  10.153   0.883   3.965 -0.0738  0.0555 -0.3429
   13MOL0     C 1624  10.072   0.936   3.867  0.4749 -1.3962 -0.6742
   13MOL0     C 1625   9.974   0.862   3.793  0.2172  0.6283  0.3589
   13MOL0     C 1626   9.876   0.926   3.704 -0.9890 -0.9249  0.3832
   13MOL0     C 1627   9.873   1.073   3.702 -0.3665  0.4829  0.5552
   13MOL0     O 1628   9.784   1.138   3.619  0.2237 -0.8703 -0.0732
   13MOL0     C 1629   9.749   1.277   3.641 -0.2066 -0.4465 -0.0864
   13MOL0     C 1630   9.684   1.352   3.521 -0.9245  0.0600  0.9296
   13MOL0     C 1631   9.689   1.506   3.537  0.3527  0.6677  0.3679
   13MOL0     C 1632   9.609   1.572   3.430  0.0090  0.3192  0.2180
   13MOL0     C 1633   9.651   1.718   3.412 -0.5147  0.0031  0.0817
   13MOL0     C 1634   9.568   1.801   3.311  0.0588  0.3825 -0.3609
   13MOL0     C 1635   9.565   1.769   3.160  0.1308  0.0788 -0.1566
   13MOL0     C 1636   9.703   1.795   3.082  0.0311 -0.3799 -0.5094
   13MOL0     N 1637   9.699   1.763   2.936 -0.1112 -0.1943  0.4412
   13MOL0     C 1638   9.604   1.791   2.846 -0.0855 -0.2361 -0.4552
   13MOL0     C 1639   9.658   1.764   2.727 -0.7035  0.2308 -0.1827
   13MOL0     C 1640   9.604   1.795   2.591  0.6440  0.5988 -0.7053
   13MOL0     C 1641   9.662   1.716   2.473  0.2168  0.8310 -0.9559
   13MOL0     C 1642   9.770   1.785   2.399  0.6195 -0.9899 -0.5425
   13MOL0     C 1643   9.841   1.686   2.303  0.0295  0.6963 -0.0295
   13MOL0     O 1644   9.964   1.742   2.243 -0.1105 -0.2466 -0.4251
   13MOL0     C 1645  10.073   1.768   2.321  1.3187 -0.6121  0.4529
   13MOL0     C 1646  10.085   1.736   2.462  1.1220 -0.2122  0.2700
   13MOL0     C 1647  10.209   1.768   2.522 -0.7329 -0.2315  0.3951
   13MOL0     C 1648  10.320   1.825   2.447  0.0736  0.1853 -0.5801
   13MOL0     C 1649  10.457   1.820   2.509  0.6052 -0.6419  1.0593
   13MOL0     O 1650  10.568   1.828   2.428 -0.2990  0.3222 -0.5149
   13MOL0     C 1651  10.697   1.830   2.479 -0.7131  0.6879 -0.8634
   13MOL0     C 1652  10.769   1.728   2.557 -1.0414 -0.3909 -0.5232
   13MOL0     C 1653  10.908   1.741   2.592  0.9503 -0.0097 -0.3165
   13MOL0     C 1654  10.973   1.853   2.555 -0.2040 -0.3834 -0.1052
   13MOL0     O 1655  11.099   1.867   2.604 -0.3944  0.0715  0.0780
   13MOL0     C 1656  11.161   1.995   2.628 -0.6818 -0.5118  0.6332
   13MOL0     C 1657  11.318   1.990   2.630 -0.7389 -0.0953 -0.4501
   13MOL0     C 1658  11.386   1.967   2.771  0.3525  0.4494 -0.6886
   13MOL0     C 1659  11.369   2.090   2.862  0.7513  0.7547 -0.2088
   13MOL0     C 1660  11.398   2.064   3.005  0.9755  0.0398 -0.9852
   13MOL0     C 1661  11.529   1.986   3.038 -0.3369 -0.2008  0.4474
   13MOL0     C 1662  11.545   1.973   3.188 -0.0837 -0.5324 -0.4751
   13MOL0     C 1663  11.682   1.918   3.235  0.5475 -0.3678 -0.3046
   13MOL0    Cl 1664  11.801   2.050   3.212 -0.0198  0.1545 -0.1562
   13MOL0     C 1665  10.916   1.948   2.476 -0.0898  0.6552  0.5705
   13MOL0     C 1666  10.783   1.932   2.444 -0.4258 -0.3935  0.6335
   13MOL0     O 1667  10.465   1.819   2.628  0.0733  0.2059 -0.3286
   13MOL0     C 1668  10.306   1.858   2.313 -0.0543  0.4552 -0.6027
   13MOL0     C 1669  10.187   1.822   2.251 -0.4469 -0.2151 -0.1760
   13MOL0     N 1670   9.770   1.695   2.751  0.4354 -0.3953  0.0047
   13MOL0     N 1671   9.796   1.695   2.875  0.7769 -0.3785 -0.1409
   13MOL0     C 1672   9.981   1.140   3.771  1.0382 -0.1150  0.3282
   13MOL0     C 1673  10.074   1.067   3.843  0.0118  0.5925 -0.8128
   13MOL0     C 1674  10.182   0.755   4.177  0.4642 -0.5109  0.0601
   13MOL0     C 1675  10.321   0.774   4.152  0.6616 -0.6425 -0.2103
   13MOL0     C 1676  10.407   0.746   4.253 -0.5995 -0.5240 -1.0623
   13MOL0     C 1677  10.369   0.691   4.373 -0.0206 -0.1215  0.2827
   13MOL0     O 1678  10.461   0.645   4.461 -0.2132  0.2461  0.2325
   13MOL0     C 1679  10.418   0.597   4.588 -0.5057 -0.9163  0.0966
   13MOL0     C 1680  10.554   0.571   4.651 -0.0051  0.4485 -0.5991
   13MOL0     C 1681  10.526   0.475   4.768 -0.8453  0.8149 -0.1070
   13MOL0     C 1682  10.484   0.534   4.901  0.9418 -0.2870 -1.4940
   13MOL0     C 1683  10.588   0.620   4.957  0.3980  0.1992  0.2759
   13MOL0     C 1684  10.659   0.703   5.006  0.2216  0.0494  0.3800
   13MOL0     C 1685  10.230   0.673   4.396  0.9471 -0.1233  0.4128
   13MOL0     C 1686  10.139   0.698   4.297 -0.2135  0.2525  0.5680
   13MOL0     C 1687   9.993   0.672   4.338  0.6119  0.7322  0.3413
   13MOL0     H 1688   9.968   0.754   3.804 -0.7700  0.6703  0.2461
   13MOL0     H 1689   9.814   0.859   3.646 -2.5087 -0.7204  1.7168
   13MOL0     H 1690   9.677   1.283   3.722  0.8144 -2.7815  1.0656
   13MOL0     H 1691   9.836   1.329   3.683  1.3175 -1.8692 -1.3440
   13MOL0     H 1692   9.585   1.312   3.498 -1.6028  1.5632  1.1222
   13MOL0     H 1693   9.755   1.337   3.439 -2.5248 -0.3285 -0.4593
   13MOL0     H 1694   9.796   1.529   3.543  0.2933  0.6477  1.8981
   13MOL0     H 1695   9.648   1.551   3.627 -4.2968 -1.7159 -0.2744
   13MOL0     H 1696   9.629   1.527   3.333  1.9628  0.2343  0.6210
   13MOL0     H 1697   9.501   1.568   3.443 -0.3141 -1.3609 -2.2066
   13MOL0     H 1698   9.631   1.772   3.505 -1.9399  1.8115 -1.1792
   13MOL0     H 1699   9.756   1.732   3.386 -0.3381 -2.1049 -0.4857
   13MOL0     H 1700   9.461   1.797   3.333  0.2500 -0.2347  0.5382
   13MOL0     H 1701   9.595   1.907   3.322  2.5915 -0.1661 -0.5577
   13MOL0     H 1702   9.483   1.818   3.107 -2.0090  0.3481  3.1564
   13MOL0     H 1703   9.543   1.662   3.156  1.2062 -0.1428 -0.5807
   13MOL0     H 1704   9.716   1.903   3.092 -0.6067 -0.3708  0.2436
   13MOL0     H 1705   9.788   1.752   3.135 -0.5800  2.2768  2.9540
   13MOL0     H 1706   9.511   1.842   2.870  1.7480  2.7466  0.8678
   13MOL0     H 1707   9.498   1.770   2.593  0.9391 -0.6973 -0.6776
   13MOL0     H 1708   9.623   1.902   2.573 -0.7435  0.4231 -3.9886
   13MOL0     H 1709   9.703   1.622   2.511 -2.4730  0.5335  1.5324
   13MOL0     H 1710   9.581   1.681   2.408  1.0852 -0.8778 -1.1685
   13MOL0     H 1711   9.834   1.830   2.476  0.2427  1.0255 -1.3246
   13MOL0     H 1712   9.734   1.875   2.346  1.3317 -0.8304 -0.7629
   13MOL0     H 1713   9.776   1.669   2.217  1.8871  0.0249 -1.3835
   13MOL0     H 1714   9.856   1.601   2.372  1.9381  2.7579  2.3213
   13MOL0     H 1715  10.006   1.685   2.516  0.0907  2.7151  1.7491
   13MOL0     H 1716  10.218   1.732   2.624 -0.9746 -0.7849  0.2226
   13MOL0     H 1717  10.711   1.640   2.583  1.5144 -1.4963  2.0507
   13MOL0     H 1718  10.950   1.672   2.665 -1.9927  0.3302  1.9099
   13MOL0     H 1719  11.152   2.065   2.544 -1.0238 -3.8261 -2.3408
   13MOL0     H 1720  11.133   2.038   2.724  3.1018 -1.4086  2.3431
   13MOL0     H 1721  11.349   1.916   2.555 -0.6865 -0.8707  0.3222
   13MOL0     H 1722  11.364   2.084   2.598  2.1297 -1.6276 -1.2149
   13MOL0     H 1723  11.347   1.872   2.807  3.3416 -0.5888  0.0952
   13MOL0     H 1724  11.494   1.956   2.752 -0.0784 -1.7896 -2.2716
   13MOL0     H 1725  11.272   2.140   2.850  0.1470 -1.0501 -4.2593
   13MOL0     H 1726  11.446   2.163   2.837  2.1401  0.3364  2.4164
   13MOL0     H 1727  11.317   2.017   3.061  2.1759  2.8502  3.6710
   13MOL0     H 1728  11.398   2.162   3.053 -1.0406  1.9134 -4.4337
   13MOL0     H 1729  11.521   1.888   2.989  1.2922 -0.5049  0.7453
   13MOL0     H 1730  11.616   2.038   2.998 -0.6310 -1.6152 -2.2245
   13MOL0     H 1731  11.468   1.902   3.220  0.8082 -0.3845  2.2592
   13MOL0     H 1732  11.513   2.068   3.232 -5.3307 -1.4323 -1.6880
   13MOL0     H 1733  11.659   1.880   3.335 -1.1292  0.0952 -0.4748
   13MOL0     H 1734  11.706   1.837   3.165 -0.7387 -0.5064 -0.6160
   13MOL0     H 1735  10.974   2.029   2.433  0.3208 -0.1586 -0.4442
   13MOL0     H 1736  10.733   2.011   2.389  0.2784 -0.2839  0.1375
   13MOL0     H 1737  10.380   1.908   2.252 -0.1205  3.3028  1.4481
   13MOL0     H 1738  10.158   1.845   2.149 -0.2150 -2.7945 -0.8961
   13MOL0     H 1739   9.982   1.249   3.776 -0.8459 -0.1254  2.6834
   13MOL0     H 1740  10.146   1.126   3.899  1.0812  0.5768 -2.1124
   13MOL0     H 1741  10.359   0.821   4.062  1.0771  0.3893  0.4980
   13MOL0     H 1742  10.515   0.757   4.245 -0.2370 -1.8095  1.0874
   13MOL0     H 1743  10.352   0.510   4.579 -0.5618 -0.7718 -0.9479
   13MOL0     H 1744  10.372   0.675   4.649  1.2141  1.1524 -1.0935
   13MOL0     H 1745  10.609   0.658   4.687  0.7392 -0.9938  2.0565
   13MOL0     H 1746  10.618   0.520   4.579 -1.3790 -0.4987 -1.1867
   13MOL0     H 1747  10.617   0.416   4.782 -2.7945 -1.9163  2.0118
   13MOL0     H 1748  10.456   0.395   4.743  0.2008 -0.0327 -0.3917
   13MOL0     H 1749  10.384   0.578   4.894 -1.6579 -5.2907 -0.5021
   13MOL0     H 1750  10.464   0.457   4.976 -2.3632 -1.7401 -3.6314
   13MOL0     H 1751  10.710   0.786   5.050  0.3036  0.2555 -0.1014
   13MOL0     H 1752  10.188   0.633   4.488 -0.4348 -1.2054 -0.6476
   13MOL0     H 1753   9.919   0.748   4.314 -0.7597 -0.2374  1.3150
   13MOL0     H 1754   9.953   0.575   4.305  1.7822  0.2281  0.3705
   13MOL0     H 1755   9.995   0.667   4.448  0.1316 -0.8243  0.3030
   14MOL0     O 1756   0.930   5.286   0.544  0.6701 -0.2103 -0.0155
   14MOL0     C 1757   0.969   5.404   0.520 -0.4402 -0.2829  0.2172
   14MOL0     O 1758   0.901   5.510   0.550 -0.3681  0.3556  0.3471
   14MOL0     C 1759   0.794   5.485   0.627  0.6664  0.0170 -0.3247
   14MOL0     C 1760   0.664   5.490   0.578  0.7675  0.6697  1.3856
   14MOL0     C 1761   0.554   5.487   0.667  0.3800  0.2189  0.4031
   14MOL0     C 1762   0.568   5.467   0.802  0.6421 -0.3387  0.0278
   14MOL0     O 1763   0.452   5.456   0.882 -0.2579 -0.0731  0.9829
   14MOL0     C 1764   0.363   5.572   0.867 -0.4138 -0.5287  0.4633
   14MOL0     C 1765   0.275   5.598   0.989 -0.0110 -0.3957  0.3326
   14MOL0     C 1766   0.180   5.482   1.026 -0.3530  0.7342  0.0133
   14MOL0     C 1767   0.083   5.525   1.138  0.4763  0.3382  0.6148
   14MOL0     C 1768  -0.057   5.473   1.132  0.0948  1.1087 -0.5432
   14MOL0     C 1769  -0.133   5.521   1.250 -0.4405 -0.1581  0.8839
   14MOL0     C 1770  -0.274   5.469   1.256  0.9483 -0.8019 -0.6551
   14MOL0     C 1771  -0.350   5.519   1.380 -0.0747  0.1955  0.2002
   14MOL0     N 1772  -0.499   5.481   1.369 -0.7162 -0.0396  0.6058
   14MOL0     C 1773  -0.547   5.356   1.401  0.2468 -0.9671 -0.1985
   14MOL0     C 1774  -0.683   5.356   1.381 -0.8071  0.3758 -0.0744
   14MOL0     C 1775  -0.786   5.249   1.399 -0.3802 -0.3189 -0.3845
   14MOL0     C 1776  -0.842   5.263   1.542  1.1799 -0.1013 -0.0274
   14MOL0     C 1777  -0.879   5.410   1.597 -0.1110 -0.3486 -0.1330
   14MOL0     C 1778  -0.987   5.409   1.715  0.8627  0.8164  0.1109
   14MOL0     O 1779  -0.942   5.334   1.828  0.4534  0.2358 -0.1753
   14MOL0     C 1780  -0.830   5.363   1.896 -0.2999  0.1396  0.2717
   14MOL0     C 1781  -0.796   5.498   1.918  0.5413  0.0382 -0.7299
   14MOL0     C 1782  -0.690   5.518   2.005  0.3442  0.0367  0.9196
   14MOL0     C 1783  -0.618   5.410   2.068  0.6048  0.0942 -0.1264
   14MOL0     C 1784  -0.503   5.434   2.155 -0.2823  0.7184 -0.2832
   14MOL0     O 1785  -0.463   5.328   2.231 -1.2283 -0.5093  0.0296
   14MOL0     C 1786  -0.372   5.345   2.329 -0.2996 -0.3870  0.1564
   14MOL0     C 1787  -0.391   5.445   2.432 -0.2383  0.0903 -0.2847
   14MOL0     C 1788  -0.306   5.455   2.552  0.0110  0.2807 -0.0368
   14MOL0     C 1789  -0.210   5.349   2.570  0.2363 -0.6041  0.0192
   14MOL0     O 1790  -0.128   5.342   2.684 -0.3710  0.0754  0.2619
   14MOL0     C 1791  -0.088   5.464   2.747 -0.3618  0.3711  0.5555
   14MOL0     C 1792   0.013   5.425   2.861  0.3230  0.9103 -0.6726
   14MOL0     C 1793   0.068   5.551   2.924 -0.0217  0.2223 -1.1808
   14MOL0     C 1794   0.127   5.517   3.065 -0.2818 -0.2959 -0.6526
   14MOL0     C 1795   0.183   5.635   3.148 -0.2156  0.7068 -0.3254
   14MOL0     C 1796   0.075   5.745   3.187 -0.5276  0.7163 -0.2974
   14MOL0     C 1797  -0.003   5.712   3.310  0.2667 -0.0572 -0.0173
   14MOL0     C 1798  -0.114   5.816   3.331 -0.0134 -0.2055  0.4383
   14MOL0    Cl 1799  -0.241   5.779   3.209  0.1663  0.2776 -0.5959
   14MOL0     C 1800  -0.193   5.252   2.469  0.1180  0.0507 -0.6094
   14MOL0     C 1801  -0.274   5.252   2.350  1.3899  0.0486 -0.5888
   14MOL0     O 1802  -0.460   5.549   2.158 -0.8163  0.0914 -1.0291
   14MOL0     C 1803  -0.657   5.283   2.041  0.4879  0.3177  0.0284
   14MOL0     C 1804  -0.762   5.257   1.948 -0.2761 -1.2195 -0.2345
   14MOL0     N 1805  -0.709   5.487   1.341  0.0961  0.7051 -0.3410
   14MOL0     N 1806  -0.600   5.563   1.332 -0.6606 -0.0946 -0.4714
   14MOL0     C 1807   0.696   5.460   0.848  0.2013 -0.3208 -0.2005
   14MOL0     C 1808   0.816   5.470   0.765  0.0710 -0.4522 -0.5314
   14MOL0     C 1809   1.102   5.413   0.452 -1.1250 -0.2223 -0.0353
   14MOL0     C 1810   1.161   5.295   0.398  0.0453 -0.0599  0.7066
   14MOL0     C 1811   1.276   5.304   0.313  0.5610 -0.2993 -0.6070
   14MOL0     C 1812   1.344   5.428   0.304 -0.1268  0.6949  0.7041
   14MOL0     O 1813   1.446   5.440   0.205  0.2192 -0.5611  0.0916
   14MOL0     C 1814   1.566   5.369   0.227 -0.3362  0.3812 -0.4217
   14MOL0     C 1815   1.663   5.433   0.335 -0.1730 -0.3870 -0.8728
   14MOL0     C 1816   1.789   5.346   0.379  0.2323  0.6957 -0.0596
   14MOL0     C 1817   1.909   5.363   0.285  0.4008  0.2264  0.5085
   14MOL0     C 1818   1.950   5.503   0.313 -0.3044 -0.2602  0.1943
   14MOL0     C 1819   1.987   5.612   0.331 -0.4337  0.9934 -0.2045
   14MOL0     C 1820   1.288   5.548   0.356 -0.7513 -0.0719 -0.4481
   14MOL0     C 1821   1.171   5.537   0.440  0.5653 -0.2559 -0.2478
   14MOL0     C 1822   1.115   5.666   0.491 -0.7282  0.1867  0.0544
   14MOL0     H 1823   0.647   5.486   0.471  1.8314  0.3335  1.2150
   14MOL0     H 1824   0.451   5.492   0.633  0.0955  2.0667  1.4287
   14MOL0     H 1825   0.419   5.666   0.856 -2.8592  0.9146 -0.2868
   14MOL0     H 1826   0.313   5.567   0.770  1.5717  3.7649 -1.0260
   14MOL0     H 1827   0.220   5.688   0.959  0.4636 -0.5027 -0.9321
   14MOL0     H 1828   0.326   5.619   1.083 -1.4790  0.8427  0.9006
   14MOL0     H 1829   0.248   5.414   1.079  0.5214  2.5841  1.3979
   14MOL0     H 1830   0.119   5.453   0.940 -1.4169  2.4581  0.1385
   14MOL0     H 1831   0.123   5.497   1.235 -0.6365 -1.9408  0.4759
   14MOL0     H 1832   0.075   5.634   1.136  4.2811  0.8558 -3.7422
   14MOL0     H 1833  -0.106   5.499   1.038  1.9584  1.8916 -1.3418
   14MOL0     H 1834  -0.058   5.364   1.120  0.3685  1.3772 -4.6433
   14MOL0     H 1835  -0.078   5.495   1.341  3.1115  0.2870 -0.9635
   14MOL0     H 1836  -0.135   5.630   1.264  0.7055 -0.0797  0.5720
   14MOL0     H 1837  -0.266   5.361   1.266 -0.2796 -0.8249  0.1925
   14MOL0     H 1838  -0.322   5.507   1.165 -1.4525  4.4300  2.3397
   14MOL0     H 1839  -0.332   5.463   1.473  0.7962 -0.2029 -0.2006
   14MOL0     H 1840  -0.342   5.627   1.397  0.8658 -0.1187  2.0312
   14MOL0     H 1841  -0.481   5.275   1.428 -1.1181 -2.5466 -1.4129
   14MOL0     H 1842  -0.865   5.274   1.327  0.1965  0.1035 -0.8830
   14MOL0     H 1843  -0.756   5.145   1.382 -2.3686 -1.4481  2.3244
   14MOL0     H 1844  -0.935   5.207   1.554  1.5740 -1.1767 -1.6251
   14MOL0     H 1845  -0.773   5.211   1.610 -0.0021 -2.8723 -0.7852
   14MOL0     H 1846  -0.921   5.474   1.519  2.0433 -1.1993 -2.1152
   14MOL0     H 1847  -0.783   5.456   1.625 -0.6495  0.3459  0.6227
   14MOL0     H 1848  -1.070   5.352   1.671  0.5839 -2.0931  3.8584
   14MOL0     H 1849  -1.016   5.513   1.731  1.3125  0.7177  1.7455
   14MOL0     H 1850  -0.846   5.581   1.868  1.8310  0.7887 -0.8395
   14MOL0     H 1851  -0.658   5.615   2.042  1.3007 -1.3084  3.9474
   14MOL0     H 1852  -0.474   5.514   2.418 -0.1675  0.5716  1.4567
   14MOL0     H 1853  -0.334   5.523   2.631  2.9881 -0.5430  1.9217
   14MOL0     H 1854  -0.031   5.526   2.677  1.8130 -2.2030 -0.0982
   14MOL0     H 1855  -0.170   5.528   2.780 -1.0852  0.8410 -1.8962
   14MOL0     H 1856  -0.041   5.360   2.930  3.5573  0.2993  1.5030
   14MOL0     H 1857   0.104   5.374   2.826 -0.2679 -1.4980  1.0753
   14MOL0     H 1858   0.136   5.602   2.856  2.6623 -0.3315  0.9018
   14MOL0     H 1859  -0.025   5.608   2.929  0.5265  1.2849 -2.4413
   14MOL0     H 1860   0.203   5.440   3.053 -1.8075 -2.3934  2.0386
   14MOL0     H 1861   0.049   5.475   3.129 -2.2639  1.4169 -1.7750
   14MOL0     H 1862   0.271   5.682   3.101  0.3453  1.4528  1.3850
   14MOL0     H 1863   0.217   5.578   3.235 -0.3734  0.5339 -0.3757
   14MOL0     H 1864   0.122   5.843   3.198  0.4105  0.5984 -2.6307
   14MOL0     H 1865   0.008   5.755   3.100 -0.5527  3.1530 -0.0587
   14MOL0     H 1866   0.068   5.722   3.392  1.2570 -1.7486 -0.6200
   14MOL0     H 1867  -0.047   5.612   3.301  1.5293 -0.6035 -0.3631
   14MOL0     H 1868  -0.159   5.787   3.426  1.4116 -1.6349  0.7089
   14MOL0     H 1869  -0.072   5.918   3.329  0.5816 -0.3976  1.8519
   14MOL0     H 1870  -0.118   5.177   2.492  0.3373 -0.0288 -1.5266
   14MOL0     H 1871  -0.252   5.190   2.263 -2.1046  0.6616 -2.1205
   14MOL0     H 1872  -0.613   5.197   2.089  0.1966  1.2108  1.9924
   14MOL0     H 1873  -0.803   5.158   1.931  0.7975 -1.3802 -2.2045
   14MOL0     H 1874   0.705   5.451   0.955  1.2011  2.9883  0.1067
   14MOL0     H 1875   0.915   5.454   0.805 -0.5866 -1.6364  0.6782
   14MOL0     H 1876   1.122   5.194   0.397  2.6423 -1.1606 -1.1005
   14MOL0     H 1877   1.294   5.213   0.257 -1.6271 -1.0325 -0.2093
   14MOL0     H 1878   1.629   5.375   0.138  0.8343  1.0030  0.4062
   14MOL0     H 1879   1.549   5.267   0.262  0.6825  0.5008  0.5030
   14MOL0     H 1880   1.604   5.453   0.425  0.3293  0.9326 -0.8254
   14MOL0     H 1881   1.691   5.532   0.300  0.4165 -0.3232 -0.2404
   14MOL0     H 1882   1.756   5.242   0.387 -0.4702  0.9363  0.2881
   14MOL0     H 1883   1.815   5.384   0.478  0.1508  4.3268 -1.3015
   14MOL0     H 1884   1.991   5.297   0.316 -1.7788 -1.9118  2.0495
   14MOL0     H 1885   1.871   5.339   0.186 -4.2217  1.1071  1.8611
   14MOL0     H 1886   2.011   5.712   0.359  3.3916 -0.4656  2.6945
   14MOL0     H 1887   1.331   5.645   0.337  1.7102 -0.3050  2.9512
   14MOL0     H 1888   1.110   5.669   0.600  2.2701 -0.3286  0.2861
   14MOL0     H 1889   1.181   5.747   0.460 -1.2455  1.0254  1.0860
   14MOL0     H 1890   1.016   5.689   0.450 -0.9348 -0.4202  0.1966
   15MOL0     O 1891   7.415   3.247   7.466 -1.3202 -0.7309  0.7369
   15MOL0     C 1892   7.301   3.271   7.437  1.5657 -0.2320 -0.2891
   15MOL0     O 1893   7.255   3.352   7.337 -0.7427  0.7100 -0.0182
   15MOL0     C 1894   7.348   3.393   7.240 -0.1507  0.5998  0.9329
   15MOL0     C 1895   7.313   3.516   7.183 -0.0446 -0.3115 -0.2717
   15MOL0     C 1896   7.391   3.570   7.078  0.0651  0.1531  0.3646
   15MOL0     C 1897   7.507   3.502   7.028  0.3249  0.0612  0.0540
   15MOL0     O 1898   7.574   3.541   6.917  0.1952 -0.2221  0.1014
   15MOL0     C 1899   7.554   3.677   6.862 -0.7981  1.0015  0.4860
   15MOL0     C 1900   7.652   3.705   6.739 -0.2752  0.0449  0.0165
   15MOL0     C 1901   7.783   3.626   6.751  0.2191 -0.1202 -0.4112
   15MOL0     C 1902   7.769   3.490   6.668  0.8507  0.2763  0.8656
   15MOL0     C 1903   7.906   3.424   6.655 -0.1506  1.0369  0.7047
   15MOL0     C 1904   7.882   3.284   6.594 -0.6945  0.0225  0.2135
   15MOL0     C 1905   8.018   3.206   6.574 -0.8432 -0.8392 -0.0560
   15MOL0     C 1906   8.008   3.056   6.604 -0.1685  0.5241 -0.0208
   15MOL0     N 1907   8.123   2.978   6.575  0.3023 -0.6581  0.0733
   15MOL0     C 1908   8.145   2.850   6.620 -0.6911  0.3594  0.2569
   15MOL0     C 1909   8.247   2.802   6.536 -0.0403 -0.9244  0.2087
   15MOL0     C 1910   8.324   2.670   6.546 -0.6893  0.5685 -0.2988
   15MOL0     C 1911   8.467   2.657   6.605 -0.8374 -0.4645 -0.2515
   15MOL0     C 1912   8.574   2.742   6.524 -0.3045  0.1244 -1.5694
   15MOL0     C 1913   8.722   2.694   6.553  0.0423  0.2630  0.2962
   15MOL0     O 1914   8.827   2.785   6.525 -0.4391  0.2610 -0.2242
   15MOL0     C 1915   8.943   2.761   6.592 -0.3631  0.2208 -0.3729
   15MOL0     C 1916   8.968   2.823   6.715 -1.3199 -0.0297  0.1620
   15MOL0     C 1917   9.101   2.797   6.774 -0.4957 -0.4839 -0.1158
   15MOL0     C 1918   9.206   2.723   6.708 -0.5139 -0.5308 -0.1663
   15MOL0     C 1919   9.339   2.699   6.770  0.3637 -0.0774  0.1744
   15MOL0     O 1920   9.442   2.653   6.689 -0.5554  0.4181  0.2174
   15MOL0     C 1921   9.572   2.646   6.738  0.2613  0.2582 -0.1801
   15MOL0     C 1922   9.658   2.564   6.670  0.5640  0.2712 -0.5471
   15MOL0     C 1923   9.799   2.558   6.695 -0.2072  0.0762  0.9540
   15MOL0     C 1924   9.851   2.649   6.788 -0.2040  0.6401 -0.6225
   15MOL0     O 1925   9.981   2.634   6.822  0.3128 -0.0891 -0.1050
   15MOL0     C 1926  10.052   2.725   6.909  0.4734  0.9552 -1.1679
   15MOL0     C 1927  10.205   2.715   6.899  0.2030  0.2150  1.1470
   15MOL0     C 1928  10.279   2.573   6.909 -0.5225 -0.3343  0.1853
   15MOL0     C 1929  10.242   2.482   7.033  0.3749  0.2348  1.3108
   15MOL0     C 1930  10.354   2.411   7.102 -0.4678 -0.6593 -0.2934
   15MOL0     C 1931  10.426   2.518   7.190 -0.0955 -0.1856  0.1671
   15MOL0     C 1932  10.567   2.463   7.230  0.3303 -0.7535 -0.5875
   15MOL0     C 1933  10.623   2.552   7.338 -0.1173 -0.0565 -0.5626
   15MOL0    Cl 1934  10.780   2.493   7.405 -0.4973  0.0651  0.2296
   15MOL0     C 1935   9.767   2.742   6.858 -0.0428 -0.8562  0.2427
   15MOL0     C 1936   9.627   2.743   6.831 -0.9976 -0.0293  0.0076
   15MOL0     O 1937   9.339   2.715   6.891 -0.4486 -0.8383  0.3750
   15MOL0     C 1938   9.170   2.670   6.582 -0.3758  0.0314 -0.1889
   15MOL0     C 1939   9.041   2.675   6.537  0.3004 -0.0449  0.4977
   15MOL0     N 1940   8.256   2.897   6.435 -0.3394 -0.8975 -0.5665
   15MOL0     N 1941   8.196   3.006   6.466 -0.5245  0.2825  0.8272
   15MOL0     C 1942   7.547   3.385   7.093 -0.5682  0.3912  0.8494
   15MOL0     C 1943   7.461   3.332   7.197 -1.1576 -0.4861  0.4634
   15MOL0     C 1944   7.191   3.248   7.536  0.8193  0.4591  0.7145
   15MOL0     C 1945   7.067   3.330   7.535 -0.6006  0.3161 -0.0403
   15MOL0     C 1946   6.960   3.321   7.634  0.2943 -0.0938  0.7169
   15MOL0     C 1947   6.983   3.223   7.738 -0.1413 -0.1439  0.6514
   15MOL0     O 1948   6.887   3.232   7.822  0.9254 -0.1300  0.4339
   15MOL0     C 1949   6.865   3.119   7.902  0.5939  1.4695  0.3335
   15MOL0     C 1950   6.936   3.135   8.033 -0.1605  0.1556  0.4431
   15MOL0     C 1951   6.869   3.242   8.126  0.5878  0.1672  0.6399
   15MOL0     C 1952   6.930   3.238   8.257  0.0861 -0.2852 -0.7331
   15MOL0     C 1953   6.883   3.332   8.353 -0.4903  0.1013 -0.4061
   15MOL0     C 1954   6.833   3.417   8.429  0.2086  0.6143 -0.5900
   15MOL0     C 1955   7.099   3.148   7.740  0.2887  0.3271 -0.2083
   15MOL0     C 1956   7.209   3.157   7.650 -0.1448  0.0788  0.2004
   15MOL0     C 1957   7.332   3.063   7.667 -0.1370  0.4679  0.0994
   15MOL0     H 1958   7.221   3.565   7.211 -2.0939 -1.4932 -4.2493
   15MOL0     H 1959   7.365   3.664   7.030 -0.5043 -1.3741 -2.5302
   15MOL0     H 1960   7.451   3.702   6.836 -1.7516 -2.4083  0.5271
   15MOL0     H 1961   7.591   3.752   6.933 -2.4120  0.6790  1.7441
   15MOL0     H 1962   7.667   3.813   6.730 -1.6635  0.4378  1.8557
   15MOL0     H 1963   7.590   3.684   6.652 -0.6214  0.7596  0.0901
   15MOL0     H 1964   7.798   3.611   6.859 -0.1246  0.5942 -0.2585
   15MOL0     H 1965   7.868   3.683   6.714 -1.5028  1.9187 -1.4340
   15MOL0     H 1966   7.694   3.418   6.703  1.8691 -3.7547 -4.1958
   15MOL0     H 1967   7.727   3.522   6.572 -1.2501  0.2735  1.7317
   15MOL0     H 1968   7.981   3.481   6.599 -0.7049  1.7384  0.6704
   15MOL0     H 1969   7.949   3.411   6.754  0.0995  1.9030  0.7115
   15MOL0     H 1970   7.843   3.232   6.682  1.8389 -0.4881  1.1166
   15MOL0     H 1971   7.818   3.273   6.506  1.1836 -2.1297 -0.9723
   15MOL0     H 1972   8.096   3.254   6.633  0.4362  0.5104 -2.7006
   15MOL0     H 1973   8.040   3.225   6.469  0.2051  1.8225  0.5731
   15MOL0     H 1974   7.988   3.051   6.712  1.5759  1.4222  0.3639
   15MOL0     H 1975   7.923   2.999   6.564 -0.9423  0.6530  1.3314
   15MOL0     H 1976   8.110   2.802   6.711  0.1782 -1.7352 -0.4567
   15MOL0     H 1977   8.258   2.602   6.601 -1.7419  1.5245 -0.3506
   15MOL0     H 1978   8.343   2.627   6.447 -1.6105  1.2424 -0.7755
   15MOL0     H 1979   8.467   2.681   6.711 -0.5938  2.8566 -0.9004
   15MOL0     H 1980   8.507   2.555   6.601  1.5975  0.4606 -1.7697
   15MOL0     H 1981   8.564   2.843   6.564  1.1675 -0.3958  0.2898
   15MOL0     H 1982   8.559   2.737   6.416  1.8515  3.1336 -2.1381
   15MOL0     H 1983   8.747   2.604   6.496 -2.6181  0.7510 -1.8630
   15MOL0     H 1984   8.721   2.665   6.658 -1.7112  2.7142  1.0384
   15MOL0     H 1985   8.889   2.874   6.768 -2.2363 -1.6748  0.4677
   15MOL0     H 1986   9.122   2.835   6.874  1.4766 -1.8506  0.0542
   15MOL0     H 1987   9.621   2.490   6.600  0.1523 -0.1243  0.0805
   15MOL0     H 1988   9.869   2.498   6.638 -1.1577  0.5898 -0.8652
   15MOL0     H 1989  10.025   2.831   6.906 -2.2648  0.3214 -1.7050
   15MOL0     H 1990  10.035   2.688   7.011  0.2663  0.0370 -1.5263
   15MOL0     H 1991  10.229   2.754   6.800  1.4792 -0.8227  1.0187
   15MOL0     H 1992  10.252   2.780   6.973 -1.3581  1.0962  1.4116
   15MOL0     H 1993  10.269   2.510   6.820  1.3224  0.5185 -0.6801
   15MOL0     H 1994  10.387   2.591   6.910 -0.5723  0.1387 -0.9585
   15MOL0     H 1995  10.181   2.404   6.986  1.4079 -1.1866  2.2620
   15MOL0     H 1996  10.178   2.539   7.101 -0.5402 -0.4573  1.0638
   15MOL0     H 1997  10.421   2.376   7.023 -0.2429  2.0331 -1.4219
   15MOL0     H 1998  10.311   2.335   7.167 -0.1945 -0.6155 -0.0571
   15MOL0     H 1999  10.445   2.612   7.137  1.3972  0.5322  1.8500
   15MOL0     H 2000  10.367   2.550   7.277  1.3032  2.2859  0.3062
   15MOL0     H 2001  10.630   2.468   7.141 -0.3969 -2.9755 -1.2838
   15MOL0     H 2002  10.561   2.361   7.269  1.4995 -0.6203  0.0032
   15MOL0     H 2003  10.626   2.653   7.295  1.2589  0.7638  1.3258
   15MOL0     H 2004  10.562   2.546   7.429  0.0096 -4.8304 -0.5228
   15MOL0     H 2005   9.805   2.811   6.933 -0.0692 -0.3928 -0.1643
   15MOL0     H 2006   9.563   2.816   6.879 -0.6058 -0.0436  0.5503
   15MOL0     H 2007   9.243   2.612   6.526 -1.4491 -1.9394  0.3626
   15MOL0     H 2008   9.014   2.642   6.436 -2.2745  0.1225  1.0620
   15MOL0     H 2009   7.634   3.330   7.056 -1.8899 -0.3991 -1.2735
   15MOL0     H 2010   7.491   3.243   7.251 -1.6894  0.2867  2.1063
   15MOL0     H 2011   7.053   3.408   7.462 -0.6313  0.2864 -0.0658
   15MOL0     H 2012   6.878   3.393   7.639  1.1501  0.9160  0.5477
   15MOL0     H 2013   6.907   3.032   7.852  3.6698  3.9416 -1.7824
   15MOL0     H 2014   6.757   3.109   7.921  0.6342 -2.8256 -0.6909
   15MOL0     H 2015   7.040   3.154   8.008 -0.5527  0.0378 -1.4331
   15MOL0     H 2016   6.939   3.038   8.086 -3.0364  0.5275  1.4724
   15MOL0     H 2017   6.763   3.216   8.132  0.7094 -0.8275 -0.8421
   15MOL0     H 2018   6.884   3.339   8.078 -0.9413 -1.0278 -2.5402
   15MOL0     H 2019   6.911   3.142   8.306  0.7271 -0.0359  0.0221
   15MOL0     H 2020   7.037   3.245   8.238  0.0407 -3.2725 -2.6517
   15MOL0     H 2021   6.797   3.469   8.515  1.5966 -0.2200  0.5388
   15MOL0     H 2022   7.103   3.077   7.822 -0.5985  2.1071  1.4788
   15MOL0     H 2023   7.413   3.129   7.699  0.4654 -0.5264  0.6726
   15MOL0     H 2024   7.317   2.981   7.738  1.7431 -0.1178 -0.1354
   15MOL0     H 2025   7.365   3.021   7.571 -1.6945 -0.3088 -0.1285
   16MOL0     O 2026   0.586   2.467   8.279 -0.3855 -0.1222  0.5759
   16MOL0     C 2027   0.555   2.352   8.304  0.4744  0.1207 -1.4472
   16MOL0     O 2028   0.630   2.255   8.359 -0.4459  0.1236 -0.3587
   16MOL0     C 2029   0.757   2.280   8.384  0.5785  0.6259 -0.7539
   16MOL0     C 2030   0.838   2.315   8.278 -0.4619 -0.4649  0.6631
   16MOL0     C 2031   0.975   2.345   8.297 -0.3241 -0.0271  0.1053
   16MOL0     C 2032   1.037   2.328   8.427  0.1684 -0.5561 -0.6330
   16MOL0     O 2033   1.174   2.325   8.441 -0.6761 -0.3330  0.5055
   16MOL0     C 2034   1.262   2.370   8.342 -0.4297  0.1911 -0.1133
   16MOL0     C 2035   1.404   2.350   8.379 -0.5786  0.5052  0.0441
   16MOL0     C 2036   1.494   2.419   8.284 -0.1895  0.2540 -1.3232
   16MOL0     C 2037   1.633   2.447   8.348  0.4285 -0.3355  0.1361
   16MOL0     C 2038   1.694   2.315   8.400 -0.1850 -0.3026 -0.0808
   16MOL0     C 2039   1.831   2.344   8.467 -0.3933  1.0077 -0.0710
   16MOL0     C 2040   1.898   2.211   8.513 -0.0236  0.9437  0.4484
   16MOL0     C 2041   2.014   2.187   8.411 -0.0540 -0.0630  0.2166
   16MOL0     N 2042   2.093   2.059   8.428  0.7858  0.0490 -0.5096
   16MOL0     C 2043   2.184   2.048   8.533 -0.7069  0.5631 -0.7740
   16MOL0     C 2044   2.260   1.942   8.492 -0.4399 -0.5957 -0.4739
   16MOL0     C 2045   2.391   1.896   8.556 -0.0440 -0.5515  0.6873
   16MOL0     C 2046   2.516   1.932   8.465  0.1573  0.7152 -1.1397
   16MOL0     C 2047   2.567   2.076   8.482 -0.0620  0.1421 -0.0173
   16MOL0     C 2048   2.719   2.077   8.506  0.3857 -0.2494  0.0823
   16MOL0     O 2049   2.802   2.024   8.398  0.1573 -0.3653  0.1866
   16MOL0     C 2050   2.938   2.028   8.415 -0.2236 -0.3679 -0.6820
   16MOL0     C 2051   3.003   1.989   8.533 -0.2153  0.0660 -0.8726
   16MOL0     C 2052   3.142   1.999   8.549 -0.4376  0.8987 -0.8595
   16MOL0     C 2053   3.230   2.051   8.447  0.3504 -0.0724  0.6425
   16MOL0     C 2054   3.368   2.047   8.466 -0.7448  0.5052 -0.1703
   16MOL0     O 2055   3.438   2.094   8.362 -0.3743  0.2941  0.0415
   16MOL0     C 2056   3.568   2.104   8.386 -0.9616 -0.2404  0.2402
   16MOL0     C 2057   3.660   2.006   8.347  0.7511 -1.2408 -0.5727
   16MOL0     C 2058   3.802   2.022   8.370 -0.1856  0.6266 -0.0555
   16MOL0     C 2059   3.849   2.143   8.429 -0.4509  0.7364 -0.2487
   16MOL0     O 2060   3.985   2.170   8.433  0.2505 -0.0081 -0.2384
   16MOL0     C 2061   4.037   2.089   8.534 -0.8149  0.0551  0.1323
   16MOL0     C 2062   4.188   2.130   8.544 -1.2654 -0.4769  0.4815
   16MOL0     C 2063   4.254   2.039   8.650  0.1424 -0.6156  0.1781
   16MOL0     C 2064   4.409   2.025   8.638  0.2404  0.7122 -0.0125
   16MOL0     C 2065   4.480   1.953   8.755  0.4074  0.0532  0.6115
   16MOL0     C 2066   4.611   1.893   8.714 -0.5993  0.7199 -0.1318
   16MOL0     C 2067   4.688   1.833   8.839  0.4428  0.3273 -0.2462
   16MOL0     C 2068   4.820   1.775   8.802  0.3491 -0.1857  0.6169
   16MOL0    Cl 2069   4.781   1.621   8.712  0.3342  0.3887  0.4206
   16MOL0     C 2070   3.763   2.235   8.476  0.4830 -0.1685  0.2234
   16MOL0     C 2071   3.618   2.218   8.445 -0.5817 -0.0893  0.3680
   16MOL0     O 2072   3.412   2.009   8.577  0.2150 -0.0099 -0.3401
   16MOL0     C 2073   3.161   2.088   8.324 -0.4145  0.6337 -0.9874
   16MOL0     C 2074   3.023   2.080   8.310  0.6473 -0.3684 -0.0090
   16MOL0     N 2075   2.195   1.884   8.381  0.2714 -0.2524  0.9505
   16MOL0     N 2076   2.095   1.962   8.338  0.9990  0.4410  0.7046
   16MOL0     C 2077   0.957   2.280   8.528 -0.3717 -0.5304  0.2225
   16MOL0     C 2078   0.819   2.261   8.511  0.1020 -0.1428 -0.0275
   16MOL0     C 2079   0.413   2.320   8.293 -0.6087 -0.1921 -0.0465
   16MOL0     C 2080   0.354   2.367   8.177  1.1800  0.0981 -0.1274
   16MOL0     C 2081   0.231   2.321   8.149 -0.0635  0.0256  0.2639
   16MOL0     C 2082   0.146   2.236   8.232 -1.0358 -0.7844 -0.3877
   16MOL0     O 2083   0.027   2.183   8.204 -0.0624 -0.2765 -0.0713
   16MOL0     C 2084  -0.048   2.245   8.101 -0.1185  0.1899 -0.0350
   16MOL0     C 2085  -0.042   2.179   7.968  0.2485  0.4486  0.5056
   16MOL0     C 2086  -0.132   2.262   7.856  0.4264  0.1087 -0.3341
   16MOL0     C 2087  -0.122   2.161   7.734 -0.1177  0.7806 -0.1549
   16MOL0     C 2088  -0.224   2.224   7.634 -0.2148 -0.6506 -0.6970
   16MOL0     C 2089  -0.301   2.269   7.553  0.3735 -0.4874 -0.3742
   16MOL0     C 2090   0.216   2.192   8.351 -0.1670 -0.5044 -0.0062
   16MOL0     C 2091   0.337   2.242   8.385 -0.1487  0.6757  0.3637
   16MOL0     C 2092   0.378   2.198   8.523 -0.0142  0.0233  0.0170
   16MOL0     H 2093   0.790   2.335   8.183  3.5072  0.7083 -1.3563
   16MOL0     H 2094   1.030   2.385   8.212 -0.5726 -0.3748 -0.2241
   16MOL0     H 2095   1.261   2.296   8.262  4.1676  1.2654 -1.4946
   16MOL0     H 2096   1.250   2.467   8.293  2.2319  0.7910  0.2632
   16MOL0     H 2097   1.417   2.243   8.364 -0.7304  0.5941 -0.7175
   16MOL0     H 2098   1.404   2.383   8.484  1.5104 -1.9278  0.9066
   16MOL0     H 2099   1.439   2.508   8.253 -0.0248  0.1929 -1.8034
   16MOL0     H 2100   1.496   2.351   8.199 -0.9224  0.4689 -1.5191
   16MOL0     H 2101   1.693   2.502   8.276 -0.3693  3.9177  2.4106
   16MOL0     H 2102   1.635   2.514   8.434  0.8829  0.6277 -0.6163
   16MOL0     H 2103   1.634   2.263   8.474 -0.3472  1.1447  0.8365
   16MOL0     H 2104   1.715   2.255   8.310 -1.1148 -1.0687  0.1946
   16MOL0     H 2105   1.905   2.403   8.413  2.8440  2.6494  5.3830
   16MOL0     H 2106   1.800   2.398   8.557  0.3293  0.7903  0.3138
   16MOL0     H 2107   1.829   2.125   8.511  2.2702 -1.2942  4.4552
   16MOL0     H 2108   1.939   2.231   8.612 -1.4387  1.7948  0.8951
   16MOL0     H 2109   1.964   2.187   8.314  3.7542 -1.8964 -1.9841
   16MOL0     H 2110   2.086   2.269   8.422  0.2365 -0.3719  0.6417
   16MOL0     H 2111   2.192   2.093   8.631  1.9167 -1.2409 -0.0480
   16MOL0     H 2112   2.403   1.930   8.659  1.1560  6.5693 -1.2475
   16MOL0     H 2113   2.373   1.788   8.566 -2.5384 -0.0768  2.0821
   16MOL0     H 2114   2.594   1.859   8.489  0.7680  1.4374 -0.9222
   16MOL0     H 2115   2.490   1.920   8.359 -1.6031 -1.8295 -0.5333
   16MOL0     H 2116   2.515   2.118   8.569  1.6081 -3.1836  2.8293
   16MOL0     H 2117   2.542   2.127   8.388  1.5218 -1.0159 -1.1095
   16MOL0     H 2118   2.743   2.026   8.599  3.1246 -1.8753 -1.3789
   16MOL0     H 2119   2.757   2.176   8.530 -0.7273  0.0948  0.4995
   16MOL0     H 2120   2.949   1.954   8.621 -2.9289  0.6278 -2.2121
   16MOL0     H 2121   3.182   1.976   8.648  1.6809  0.7461 -1.7019
   16MOL0     H 2122   3.623   1.926   8.283  0.6112 -1.6111 -0.0388
   16MOL0     H 2123   3.871   1.954   8.320 -1.9612  0.5899 -2.6169
   16MOL0     H 2124   3.992   2.113   8.631  0.2294  2.2212  0.1311
   16MOL0     H 2125   4.024   1.985   8.502  0.8237  0.1714 -1.0474
   16MOL0     H 2126   4.230   2.111   8.444 -4.2262  3.2112 -1.7353
   16MOL0     H 2127   4.215   2.232   8.573  1.0717 -0.5845 -0.9712
   16MOL0     H 2128   4.221   2.062   8.752 -2.6514 -2.5859 -0.1548
   16MOL0     H 2129   4.208   1.941   8.635 -2.7627  0.6612  0.0638
   16MOL0     H 2130   4.444   2.127   8.624  1.3604  0.1522 -1.6322
   16MOL0     H 2131   4.426   1.974   8.542  0.8432  2.3493 -0.8079
   16MOL0     H 2132   4.409   1.875   8.782 -1.0443 -0.2853 -3.5270
   16MOL0     H 2133   4.490   2.028   8.835 -2.6917  1.4638 -0.1864
   16MOL0     H 2134   4.592   1.809   8.646  1.0260  0.0899  0.1348
   16MOL0     H 2135   4.676   1.967   8.666  0.9607  0.0002  0.7873
   16MOL0     H 2136   4.618   1.766   8.890 -0.3273  0.3202 -1.2817
   16MOL0     H 2137   4.712   1.911   8.912 -0.1345 -1.4775  1.9974
   16MOL0     H 2138   4.878   1.846   8.741  0.9033 -0.7740  0.4450
   16MOL0     H 2139   4.862   1.753   8.901 -1.7026  0.8315  1.7706
   16MOL0     H 2140   3.792   2.325   8.530 -0.1018  0.9164 -1.1981
   16MOL0     H 2141   3.549   2.293   8.484 -1.5728 -0.2756 -0.9684
   16MOL0     H 2142   3.208   2.127   8.234 -0.6349 -0.5888 -1.6531
   16MOL0     H 2143   2.976   2.117   8.219 -1.7606  0.8572  1.6021
   16MOL0     H 2144   1.005   2.259   8.623  0.6388 -0.9758 -0.3670
   16MOL0     H 2145   0.762   2.238   8.600  1.1560  1.7008  1.1660
   16MOL0     H 2146   0.388   2.437   8.101 -3.1229  0.1547 -2.2819
   16MOL0     H 2147   0.187   2.347   8.053  2.5045  2.2685 -0.4263
   16MOL0     H 2148  -0.030   2.353   8.098 -1.5245  0.8031  4.6294
   16MOL0     H 2149  -0.148   2.247   8.145 -0.6420  2.2882 -1.2101
   16MOL0     H 2150  -0.077   2.075   7.975 -0.9024  0.5290 -2.4457
   16MOL0     H 2151   0.063   2.179   7.941  0.3513  0.1743  0.8940
   16MOL0     H 2152  -0.092   2.362   7.837  0.7819  0.1008  0.3428
   16MOL0     H 2153  -0.235   2.256   7.891  0.8119 -1.5308  0.6387
   16MOL0     H 2154  -0.028   2.159   7.679  1.1079  0.6389  1.8381
   16MOL0     H 2155  -0.170   2.067   7.763  1.6098 -0.3956 -0.9835
   16MOL0     H 2156  -0.358   2.311   7.473 -1.4725 -1.1684  0.5369
   16MOL0     H 2157   0.166   2.122   8.416  0.5239 -2.6416 -1.6519
   16MOL0     H 2158   0.481   2.227   8.549 -0.9100  1.2444  2.6271
   16MOL0     H 2159   0.312   2.237   8.601 -0.4433  0.9328 -0.7808
   16MOL0     H 2160   0.372   2.089   8.519 -2.0974  0.1319 -1.1760
   17MOL0     O 2161   5.458   0.674   9.775 -0.2978 -0.3414 -0.3989
   17MOL0     C 2162   5.405   0.755   9.698  0.3083  0.1288  0.1916
   17MOL0     O 2163   5.483   0.834   9.608 -0.1482  0.5841 -0.4157
   17MOL0     C 2164   5.614   0.874   9.644 -1.2997 -0.5606 -0.7712
   17MOL0     C 2165   5.666   0.881   9.774  0.8303  0.0601  0.2507
   17MOL0     C 2166   5.804   0.923   9.786  0.3954 -0.3650 -0.8370
   17MOL0     C 2167   5.882   0.966   9.683  0.3497  0.8464  0.9259
   17MOL0     O 2168   6.006   1.009   9.722 -0.0031  0.4117  0.3460
   17MOL0     C 2169   6.053   1.107   9.625  0.0409 -0.6589 -0.4553
   17MOL0     C 2170   6.192   1.155   9.676  0.5946 -0.2428  0.3603
   17MOL0     C 2171   6.309   1.049   9.684  0.3799 -1.2338  0.8267
   17MOL0     C 2172   6.445   1.117   9.699 -0.2004 -0.1327  0.0103
   17MOL0     C 2173   6.569   1.032   9.707 -0.3161  0.3700  0.6567
   17MOL0     C 2174   6.580   0.964   9.845 -0.3449  0.0294 -0.1505
   17MOL0     C 2175   6.721   0.915   9.872  0.9628 -0.3556  0.7514
   17MOL0     C 2176   6.820   1.015   9.920  0.0943  1.1747  0.2311
   17MOL0     N 2177   6.952   0.977   9.862 -0.2983 -0.7176 -0.5881
   17MOL0     C 2178   6.995   0.996   9.734 -0.6218  0.4663  0.2075
   17MOL0     C 2179   7.115   0.935   9.736 -0.1220 -0.0041  0.6666
   17MOL0     C 2180   7.204   0.923   9.623 -1.3724 -0.3087 -1.0511
   17MOL0     C 2181   7.288   1.050   9.624  0.3510 -0.5562  0.7337
   17MOL0     C 2182   7.397   1.044   9.519  0.0137 -0.2960  0.1520
   17MOL0     C 2183   7.499   1.158   9.544  0.2749 -0.3789  0.5018
   17MOL0     O 2184   7.612   1.155   9.461 -0.4594  0.8140  0.3435
   17MOL0     C 2185   7.653   1.273   9.404  0.2702  0.1777  0.9779
   17MOL0     C 2186   7.784   1.299   9.426  0.0120 -0.5665  0.6942
   17MOL0     C 2187   7.825   1.431   9.395  0.2062  0.1568 -0.3889
   17MOL0     C 2188   7.735   1.535   9.350  0.4904 -0.0437 -0.2856
   17MOL0     C 2189   7.783   1.672   9.322 -0.0412 -0.5586  0.9472
   17MOL0     O 2190   7.909   1.699   9.357 -1.0030  1.3399  0.3664
   17MOL0     C 2191   7.963   1.828   9.367  0.2761 -0.1776  1.1840
   17MOL0     C 2192   8.101   1.834   9.359 -0.0958 -0.0428  0.3632
   17MOL0     C 2193   8.170   1.955   9.384  0.2556  0.0298  0.0504
   17MOL0     C 2194   8.089   2.069   9.405 -0.9270 -1.2014 -0.0726
   17MOL0     O 2195   8.156   2.192   9.429  0.8882 -0.1925  0.0257
   17MOL0     C 2196   8.209   2.250   9.312 -0.6957  0.1291  0.1072
   17MOL0     C 2197   8.226   2.397   9.343  0.3860 -0.4621 -0.3207
   17MOL0     C 2198   8.104   2.457   9.415 -0.4710 -0.6655  0.2160
   17MOL0     C 2199   8.119   2.475   9.567 -0.0960  0.3558  0.0840
   17MOL0     C 2200   8.006   2.541   9.637  0.0984 -0.6587  0.4216
   17MOL0     C 2201   8.029   2.560   9.785 -0.1757  0.8648  0.3814
   17MOL0     C 2202   8.022   2.422   9.861  0.4654  0.6831  0.4942
   17MOL0     C 2203   7.884   2.355   9.848  0.0518  0.5813  0.0254
   17MOL0    Cl 2204   7.844   2.283  10.014 -0.5705  0.1271 -0.2669
   17MOL0     C 2205   7.957   2.067   9.401 -0.0422 -0.8585 -0.0766
   17MOL0     C 2206   7.894   1.952   9.381  1.0874  0.1832 -0.1469
   17MOL0     O 2207   7.698   1.755   9.289 -0.3255 -0.1899  0.0859
   17MOL0     C 2208   7.611   1.491   9.322  1.0048  0.1476 -0.5623
   17MOL0     C 2209   7.564   1.368   9.352  0.6547 -0.2695  1.1268
   17MOL0     N 2210   7.156   0.885   9.854 -0.2518  0.1104 -0.0712
   17MOL0     N 2211   7.051   0.909   9.931 -0.8639 -0.1775  0.3752
   17MOL0     C 2212   5.828   0.956   9.551  1.1398  0.4880  0.4364
   17MOL0     C 2213   5.699   0.907   9.528 -0.0763  0.3282 -0.6066
   17MOL0     C 2214   5.256   0.790   9.705  0.3137 -0.6053 -0.1622
   17MOL0     C 2215   5.207   0.880   9.613 -0.4526 -0.1537 -0.0277
   17MOL0     C 2216   5.077   0.913   9.611 -0.2465  0.3463  0.1873
   17MOL0     C 2217   4.987   0.850   9.696 -0.3734  1.2381 -0.1286
   17MOL0     O 2218   4.856   0.889   9.690  0.7160  0.0078 -0.0850
   17MOL0     C 2219   4.792   0.937   9.801  0.7421 -0.2876 -0.4365
   17MOL0     C 2220   4.670   1.006   9.744  0.2183 -0.8053  0.6856
   17MOL0     C 2221   4.701   1.134   9.680 -0.9780 -0.4746  0.0832
   17MOL0     C 2222   4.746   1.249   9.784 -0.0212 -0.1335  0.0394
   17MOL0     C 2223   4.782   1.371   9.706 -1.0351  0.1072 -0.4956
   17MOL0     C 2224   4.802   1.470   9.635  0.2308 -0.2751 -0.2546
   17MOL0     C 2225   5.030   0.752   9.783 -1.6352 -0.8635  0.3577
   17MOL0     C 2226   5.163   0.726   9.794 -0.9087 -0.3848 -0.0314
   17MOL0     C 2227   5.208   0.625   9.900  0.4293  0.5117 -0.2387
   17MOL0     H 2228   5.607   0.849   9.860  0.1259 -1.0282 -0.6072
   17MOL0     H 2229   5.838   0.926   9.890 -3.9659  1.7093  0.7668
   17MOL0     H 2230   6.066   1.063   9.526 -4.0205 -0.4758 -1.2453
   17MOL0     H 2231   5.982   1.187   9.601  2.0078  1.2916 -0.0931
   17MOL0     H 2232   6.181   1.187   9.780 -1.7353 -2.8782  1.0582
   17MOL0     H 2233   6.218   1.249   9.625 -0.1658 -0.8332 -1.1740
   17MOL0     H 2234   6.315   0.992   9.590  0.0575  1.5956 -1.0154
   17MOL0     H 2235   6.291   0.973   9.760  1.5529 -0.0491  2.3476
   17MOL0     H 2236   6.451   1.195   9.623 -0.9910 -0.3723 -0.3111
   17MOL0     H 2237   6.436   1.164   9.798 -1.9751 -2.2326  0.9464
   17MOL0     H 2238   6.567   0.953   9.632  3.3202  0.4162  0.3260
   17MOL0     H 2239   6.660   1.093   9.698  0.4603 -0.9120 -0.6175
   17MOL0     H 2240   6.557   1.026   9.933  2.3687  0.6601  0.2074
   17MOL0     H 2241   6.502   0.888   9.848 -1.6901  1.3770  0.8376
   17MOL0     H 2242   6.760   0.875   9.778 -2.7128  0.4678 -1.3630
   17MOL0     H 2243   6.704   0.836   9.945 -2.1984 -0.9333 -0.4252
   17MOL0     H 2244   6.792   1.113   9.882  0.4276  1.2611  0.2084
   17MOL0     H 2245   6.817   1.016  10.030  0.6475 -3.1406  0.4728
   17MOL0     H 2246   6.953   1.046   9.648  0.7394  0.3035 -0.5712
   17MOL0     H 2247   7.259   0.829   9.633 -0.9174 -0.0920 -1.4500
   17MOL0     H 2248   7.157   0.920   9.524 -1.7900  0.2798 -0.8766
   17MOL0     H 2249   7.227   1.140   9.612  0.4793 -0.8336 -3.5248
   17MOL0     H 2250   7.348   1.045   9.716 -1.0589 -1.4597  1.6513
   17MOL0     H 2251   7.353   1.043   9.419 -2.6473 -2.0286  1.2026
   17MOL0     H 2252   7.452   0.950   9.534 -0.0976 -0.0987  2.0441
   17MOL0     H 2253   7.539   1.135   9.643  0.0369  0.9887  0.9468
   17MOL0     H 2254   7.451   1.257   9.544  0.7392 -0.1471 -0.4263
   17MOL0     H 2255   7.850   1.228   9.474  4.0260  2.3808  0.0865
   17MOL0     H 2256   7.933   1.439   9.382  0.3875 -2.3062 -0.7317
   17MOL0     H 2257   8.161   1.744   9.367  0.8097  0.5639  0.5150
   17MOL0     H 2258   8.278   1.961   9.390  0.2056  0.0490  1.0077
   17MOL0     H 2259   8.301   2.204   9.275  0.3433  2.1232  0.0871
   17MOL0     H 2260   8.135   2.239   9.231 -0.7360 -1.9439  0.3676
   17MOL0     H 2261   8.317   2.419   9.399 -0.1434  2.2048 -0.4010
   17MOL0     H 2262   8.234   2.454   9.250  1.7196 -0.2388 -0.0944
   17MOL0     H 2263   8.096   2.560   9.381 -0.4043  0.3341  2.9525
   17MOL0     H 2264   8.014   2.397   9.394 -0.4857 -0.5578 -0.0226
   17MOL0     H 2265   8.211   2.530   9.591 -1.6184  2.0109  2.5477
   17MOL0     H 2266   8.128   2.377   9.613 -0.3219  2.2373  4.6188
   17MOL0     H 2267   7.903   2.506   9.625 -1.0859  2.8824 -1.3089
   17MOL0     H 2268   8.018   2.642   9.597  1.3269 -0.6085  0.8851
   17MOL0     H 2269   8.131   2.599   9.794 -0.1200  1.1380 -1.1844
   17MOL0     H 2270   7.951   2.631   9.816 -1.6010 -0.9351  1.0935
   17MOL0     H 2271   8.050   2.446   9.964 -0.6819  3.6593  0.2072
   17MOL0     H 2272   8.099   2.351   9.831  1.2356  1.3193  0.9330
   17MOL0     H 2273   7.812   2.432   9.821  1.2593  2.2444  1.2833
   17MOL0     H 2274   7.881   2.279   9.770  1.1375  0.3769  0.1664
   17MOL0     H 2275   7.900   2.158   9.412  0.9252 -0.3014  0.4800
   17MOL0     H 2276   7.786   1.951   9.375  1.0485 -1.2366  0.2872
   17MOL0     H 2277   7.548   1.565   9.274  0.0429  0.3028  0.8757
   17MOL0     H 2278   7.463   1.330   9.339  0.8099 -0.2807 -0.1881
   17MOL0     H 2279   5.886   0.986   9.465  1.4362 -1.3916 -0.0579
   17MOL0     H 2280   5.666   0.891   9.426 -0.8442  0.7806 -0.4393
   17MOL0     H 2281   5.275   0.924   9.540 -0.5960 -3.5842 -2.5212
   17MOL0     H 2282   5.037   0.991   9.547  0.8175  1.4716  0.8676
   17MOL0     H 2283   4.855   1.010   9.852 -1.5192  1.7859 -0.4171
   17MOL0     H 2284   4.768   0.851   9.863 -1.3022  0.1506 -0.5428
   17MOL0     H 2285   4.597   1.032   9.822  0.9047  1.4385  0.6453
   17MOL0     H 2286   4.622   0.943   9.669 -2.1268  0.8699  0.6704
   17MOL0     H 2287   4.622   1.176   9.618 -1.7168 -1.4972  0.3040
   17MOL0     H 2288   4.788   1.121   9.615  0.8934  0.1105  2.3134
   17MOL0     H 2289   4.667   1.271   9.856  0.5775 -0.7380  0.8973
   17MOL0     H 2290   4.837   1.216   9.835  0.9539  0.4083 -1.2963
   17MOL0     H 2291   4.833   1.558   9.583  0.8650 -1.7566 -2.4956
   17MOL0     H 2292   4.960   0.725   9.862 -1.0079  0.9494  1.5666
   17MOL0     H 2293   5.127   0.600   9.970  0.7905  0.0759  0.0243
   17MOL0     H 2294   5.249   0.535   9.853 -1.2613 -0.6747  0.4518
   17MOL0     H 2295   5.283   0.676   9.961 -0.4198 -1.1789  2.4102
   18MOL0     O 2296   1.319   4.188   2.916  0.1150  0.0072  0.1407
   18MOL0     C 2297   1.273   4.200   2.800  0.1878  1.0180 -0.4811
   18MOL0     O 2298   1.348   4.171   2.690 -0.4172  0.2039 -0.3509
   18MOL0     C 2299   1.480   4.136   2.708 -0.0152  0.1082 -0.5338
   18MOL0     C 2300   1.520   4.024   2.776 -0.6949 -0.5692  0.8664
   18MOL0     C 2301   1.659   3.985   2.781 -0.2432  0.9208  0.4256
   18MOL0     C 2302   1.755   4.057   2.720  0.1797 -0.8240 -0.5455
   18MOL0     O 2303   1.887   4.030   2.721  0.7087 -0.0463  0.4603
   18MOL0     C 2304   1.960   3.919   2.776  0.8107  0.8202  0.4974
   18MOL0     C 2305   1.979   3.800   2.679 -0.7104  0.1930 -0.3791
   18MOL0     C 2306   2.055   3.836   2.548 -0.3046 -0.0596 -0.4283
   18MOL0     C 2307   2.098   3.707   2.482  0.0522  1.3240  0.8943
   18MOL0     C 2308   2.138   3.726   2.336  0.1989 -0.8081 -0.0689
   18MOL0     C 2309   2.261   3.644   2.299  0.0617 -0.0835 -0.4392
   18MOL0     C 2310   2.301   3.654   2.157 -0.2442  0.1475  0.9803
   18MOL0     C 2311   2.209   3.580   2.055 -0.1989 -0.5259  1.1811
   18MOL0     N 2312   2.185   3.441   2.092  0.2919 -0.8162  0.1936
   18MOL0     C 2313   2.055   3.397   2.083  0.6807 -0.3854  0.7195
   18MOL0     C 2314   2.055   3.261   2.080  0.3506 -0.2846  0.0480
   18MOL0     C 2315   1.928   3.179   2.073  0.1710 -0.6374  1.5382
   18MOL0     C 2316   1.968   3.030   2.102  0.2620 -1.1133 -0.6541
   18MOL0     C 2317   1.853   2.930   2.056 -0.4805 -0.8514  0.3125
   18MOL0     C 2318   1.730   2.947   2.144 -0.3757  0.8484  0.2743
   18MOL0     O 2319   1.755   2.906   2.280  0.4123  0.7557  1.0515
   18MOL0     C 2320   1.748   2.771   2.314  0.1974 -0.2003  0.0976
   18MOL0     C 2321   1.862   2.685   2.315  0.1697  0.9911  0.6555
   18MOL0     C 2322   1.845   2.541   2.328  0.4993 -0.8235  0.2903
   18MOL0     C 2323   1.719   2.491   2.366 -0.5046  0.2767  0.0839
   18MOL0     C 2324   1.699   2.340   2.375  0.7685 -0.3767 -0.7505
   18MOL0     O 2325   1.566   2.291   2.395 -0.6712  0.5018 -0.0813
   18MOL0     C 2326   1.558   2.152   2.415 -0.4337  0.7476 -0.0007
   18MOL0     C 2327   1.530   2.089   2.534 -0.0067 -0.2780  0.5624
   18MOL0     C 2328   1.500   1.946   2.527 -0.7450  0.3763 -0.6314
   18MOL0     C 2329   1.525   1.872   2.418 -0.1985  0.4993  0.4329
   18MOL0     O 2330   1.512   1.737   2.417  0.3877  0.1862 -0.2811
   18MOL0     C 2331   1.376   1.687   2.426  0.7118 -0.0795 -1.0702
   18MOL0     C 2332   1.380   1.534   2.440  0.2334  0.5338 -0.1650
   18MOL0     C 2333   1.271   1.506   2.554 -0.2690  1.9079 -0.2964
   18MOL0     C 2334   1.251   1.350   2.562 -0.1336  0.9330  0.5913
   18MOL0     C 2335   1.375   1.278   2.617  0.6586  0.6585 -0.0280
   18MOL0     C 2336   1.366   1.125   2.621 -0.5531  0.8185  0.4700
   18MOL0     C 2337   1.393   1.066   2.486  0.0994  0.7601 -0.3507
   18MOL0     C 2338   1.371   0.911   2.489  0.2192 -0.4184  1.0947
   18MOL0    Cl 2339   1.377   0.855   2.314  0.0769 -0.2626  0.3177
   18MOL0     C 2340   1.563   1.936   2.300 -0.4754  0.3691 -0.5621
   18MOL0     C 2341   1.579   2.072   2.304 -0.5651  0.7711 -0.0026
   18MOL0     O 2342   1.800   2.270   2.363  0.7149  0.0224  0.3255
   18MOL0     C 2343   1.609   2.579   2.379  0.5001  0.2767 -0.0379
   18MOL0     C 2344   1.623   2.718   2.357  0.9155  0.8013  1.1467
   18MOL0     N 2345   2.187   3.222   2.064 -0.0226  0.3533  0.0472
   18MOL0     N 2346   2.261   3.336   2.063  0.1664 -0.1649 -0.1546
   18MOL0     C 2347   1.714   4.176   2.658 -0.8306  0.3733 -0.0226
   18MOL0     C 2348   1.578   4.219   2.653 -0.0950 -0.4002 -0.1925
   18MOL0     C 2349   1.132   4.257   2.792  0.0595 -0.1155  0.2873
   18MOL0     C 2350   1.105   4.296   2.660  0.3402  0.3591  0.1990
   18MOL0     C 2351   0.991   4.355   2.623 -0.2725  0.6594  0.1100
   18MOL0     C 2352   0.893   4.369   2.715 -0.4988  0.5062  0.2548
   18MOL0     O 2353   0.775   4.405   2.664  0.2834  0.7109  0.4990
   18MOL0     C 2354   0.753   4.547   2.669 -0.4016  0.0142 -0.3071
   18MOL0     C 2355   0.703   4.612   2.550 -0.7063  0.4602  0.0335
   18MOL0     C 2356   0.799   4.587   2.433  0.4492  0.2325 -0.1404
   18MOL0     C 2357   0.768   4.675   2.312  0.0876  0.1132 -0.2135
   18MOL0     C 2358   0.831   4.621   2.190  0.7046  0.4010 -0.7986
   18MOL0     C 2359   0.905   4.556   2.119  0.1728 -0.6924  1.3682
   18MOL0     C 2360   0.908   4.342   2.851  0.7654  1.3437 -0.7778
   18MOL0     C 2361   1.031   4.294   2.889 -0.3233 -0.0419 -0.1004
   18MOL0     C 2362   1.060   4.279   3.030 -0.1893 -0.5948  0.0136
   18MOL0     H 2363   1.444   3.971   2.833  0.9654 -1.3571  2.4434
   18MOL0     H 2364   1.677   3.892   2.834  2.5144  1.2541  0.2678
   18MOL0     H 2365   2.061   3.962   2.780  0.7423  1.0617 -0.1818
   18MOL0     H 2366   1.933   3.897   2.880  1.0168 -3.6039 -0.1804
   18MOL0     H 2367   1.873   3.780   2.659 -0.3794 -0.9739 -1.0369
   18MOL0     H 2368   2.035   3.719   2.727  2.1183  1.0728 -2.0003
   18MOL0     H 2369   2.142   3.899   2.568 -0.0956 -0.8721  1.3877
   18MOL0     H 2370   1.986   3.898   2.491  0.1826  0.0879 -0.8595
   18MOL0     H 2371   2.181   3.657   2.532  0.4492 -0.6081 -1.4639
   18MOL0     H 2372   2.023   3.627   2.488  1.1020  0.2859  0.6677
   18MOL0     H 2373   2.051   3.693   2.279 -1.2240  1.7558  0.4746
   18MOL0     H 2374   2.149   3.832   2.311 -1.3942 -0.8020 -0.8838
   18MOL0     H 2375   2.343   3.685   2.360 -1.1237  2.3030 -0.3093
   18MOL0     H 2376   2.235   3.541   2.323  0.5330  0.0544  0.7131
   18MOL0     H 2377   2.398   3.606   2.142  0.5686  1.9890 -0.0841
   18MOL0     H 2378   2.321   3.757   2.124 -1.1443 -0.2524 -0.9372
   18MOL0     H 2379   2.116   3.634   2.034  0.8300  1.3949  1.3191
   18MOL0     H 2380   2.265   3.580   1.961  2.2885  2.1606  2.4874
   18MOL0     H 2381   1.966   3.458   2.074  1.5779  1.0836  1.3284
   18MOL0     H 2382   1.850   3.212   2.142 -0.4415  0.6872  0.2822
   18MOL0     H 2383   1.886   3.185   1.972  0.9818 -2.0327  1.0938
   18MOL0     H 2384   2.059   2.998   2.051 -0.4169 -0.5437 -2.3048
   18MOL0     H 2385   1.964   3.017   2.211 -2.4265 -0.2430 -0.5656
   18MOL0     H 2386   1.888   2.826   2.058 -3.4271 -1.9412  2.2500
   18MOL0     H 2387   1.812   2.957   1.958 -4.5518 -1.6896  1.6267
   18MOL0     H 2388   1.654   2.883   2.098 -0.4372  1.2523 -0.1996
   18MOL0     H 2389   1.685   3.047   2.148 -1.2956  0.5546 -1.4270
   18MOL0     H 2390   1.954   2.733   2.283  1.1008 -2.0847 -1.7380
   18MOL0     H 2391   1.929   2.474   2.319  0.7914 -0.7492  2.0774
   18MOL0     H 2392   1.524   2.151   2.623 -0.6364  1.2436 -0.4917
   18MOL0     H 2393   1.482   1.903   2.626  0.1445  1.7928  0.1856
   18MOL0     H 2394   1.328   1.737   2.510  1.9818 -0.1794 -0.2572
   18MOL0     H 2395   1.307   1.721   2.348 -1.3267  0.0317  0.6824
   18MOL0     H 2396   1.355   1.483   2.346  2.3368 -0.0800 -0.4375
   18MOL0     H 2397   1.478   1.503   2.475 -0.7639 -0.3465  1.9868
   18MOL0     H 2398   1.299   1.545   2.653 -1.4939  0.7368  0.5420
   18MOL0     H 2399   1.184   1.566   2.525  0.0755  3.3529  1.4586
   18MOL0     H 2400   1.233   1.311   2.462 -0.2241 -1.2995  1.4056
   18MOL0     H 2401   1.167   1.324   2.627  0.8260  1.1613  1.9766
   18MOL0     H 2402   1.382   1.316   2.719 -3.0388 -0.3452  0.7373
   18MOL0     H 2403   1.457   1.308   2.551  0.9406  0.7438  0.3582
   18MOL0     H 2404   1.443   1.085   2.688  3.3799 -0.0092 -3.9651
   18MOL0     H 2405   1.259   1.113   2.641 -1.1233  2.3066 -1.3875
   18MOL0     H 2406   1.495   1.080   2.449 -0.1950 -0.2062 -1.5803
   18MOL0     H 2407   1.332   1.114   2.409 -0.4714  1.4164  0.4976
   18MOL0     H 2408   1.450   0.864   2.548 -0.1359 -0.4653  1.5363
   18MOL0     H 2409   1.279   0.872   2.533  0.4163 -2.7090 -0.3468
   18MOL0     H 2410   1.576   1.878   2.210 -1.3112  0.6265 -0.8546
   18MOL0     H 2411   1.603   2.134   2.218 -1.1275  1.2816  0.2038
   18MOL0     H 2412   1.516   2.530   2.407 -0.3385  2.4493  1.2401
   18MOL0     H 2413   1.531   2.775   2.367  0.7615  0.7881 -0.0817
   18MOL0     H 2414   1.789   4.239   2.611 -0.1556 -3.4995 -5.0928
   18MOL0     H 2415   1.544   4.312   2.608  3.2026  1.0481 -0.0118
   18MOL0     H 2416   1.178   4.298   2.579 -2.2698 -0.4102 -2.3737
   18MOL0     H 2417   0.977   4.368   2.516 -0.0227  0.0558 -0.0011
   18MOL0     H 2418   0.849   4.596   2.687  0.3077 -1.3655 -0.1187
   18MOL0     H 2419   0.691   4.576   2.754 -1.0969  1.4509 -1.2596
   18MOL0     H 2420   0.712   4.720   2.566 -0.5152  0.3474  0.7242
   18MOL0     H 2421   0.603   4.583   2.518  0.1724 -1.4285 -1.2233
   18MOL0     H 2422   0.784   4.483   2.402  0.7215 -0.3362  1.5377
   18MOL0     H 2423   0.903   4.599   2.464  0.3145 -3.1325  2.1091
   18MOL0     H 2424   0.662   4.684   2.287  0.2017  0.0797 -0.7165
   18MOL0     H 2425   0.802   4.777   2.329 -2.1463  1.1142 -1.2744
   18MOL0     H 2426   0.968   4.514   2.043  2.3514  1.7922  1.6382
   18MOL0     H 2427   0.821   4.364   2.912 -0.8605  0.0377 -2.5014
   18MOL0     H 2428   1.146   4.341   3.057 -0.5234 -0.8767  1.8954
   18MOL0     H 2429   0.974   4.308   3.091 -1.6054 -2.0628 -1.1831
   18MOL0     H 2430   1.082   4.175   3.059  1.1627 -0.7214 -1.3351
   19MOL0     O 2431   5.571   7.792   5.996  0.1658 -0.0055 -0.3481
   19MOL0     C 2432   5.684   7.769   5.945  0.1232  0.2632  0.3164
   19MOL0     O 2433   5.754   7.648   5.956 -0.6604 -0.3386  0.5959
   19MOL0     C 2434   5.682   7.539   6.009 -0.3892 -0.3013  0.5778
   19MOL0     C 2435   5.686   7.412   5.950 -0.0465 -0.2667  0.4564
   19MOL0     C 2436   5.649   7.298   6.014 -0.5970 -0.2318  0.2600
   19MOL0     C 2437   5.589   7.309   6.137 -0.9428  0.0436 -0.3134
   19MOL0     O 2438   5.553   7.198   6.210  0.0320  0.7789  0.3990
   19MOL0     C 2439   5.483   7.090   6.141 -0.6912  0.0516 -0.3808
   19MOL0     C 2440   5.462   6.984   6.243 -0.3462 -0.0427 -0.1000
   19MOL0     C 2441   5.375   7.012   6.369 -0.0814 -0.1141 -0.4358
   19MOL0     C 2442   5.341   6.890   6.453  0.2332  0.1107 -0.6201
   19MOL0     C 2443   5.209   6.910   6.531 -0.1174  0.3420  0.4317
   19MOL0     C 2444   5.171   6.783   6.602 -0.4447  1.1836 -0.6521
   19MOL0     C 2445   5.047   6.804   6.681 -0.4272 -0.1169  0.0516
   19MOL0     C 2446   5.054   6.938   6.771  0.0636  0.7840  0.6658
   19MOL0     N 2447   4.955   6.927   6.880 -0.7153  0.0938  0.5175
   19MOL0     C 2448   4.851   7.011   6.910  0.0074 -0.6400 -0.0868
   19MOL0     C 2449   4.817   6.987   7.039  0.1581  0.6485 -0.0547
   19MOL0     C 2450   4.693   7.077   7.091 -0.3879  1.2048 -0.2699
   19MOL0     C 2451   4.730   7.214   7.139 -0.9418 -0.2488  1.3737
   19MOL0     C 2452   4.621   7.274   7.227 -0.7130 -0.4711  0.5597
   19MOL0     C 2453   4.482   7.293   7.168  0.1050 -0.2855  0.0329
   19MOL0     O 2454   4.501   7.368   7.046  0.0310 -0.1041 -0.4579
   19MOL0     C 2455   4.439   7.350   6.929  0.2909  0.2796 -1.2116
   19MOL0     C 2456   4.486   7.408   6.810 -0.6496  0.4062  0.1388
   19MOL0     C 2457   4.412   7.411   6.691 -0.1303  0.4427 -0.9641
   19MOL0     C 2458   4.286   7.345   6.693 -0.2757 -0.2478  0.5180
   19MOL0     C 2459   4.206   7.347   6.565  0.1024 -1.0674 -0.2211
   19MOL0     O 2460   4.263   7.389   6.446 -0.2725  0.4351  0.6244
   19MOL0     C 2461   4.206   7.397   6.320  0.2612  0.5940 -0.6480
   19MOL0     C 2462   4.081   7.347   6.278  0.1094  0.6729 -0.1027
   19MOL0     C 2463   4.037   7.378   6.153  0.2446 -0.4657 -0.5341
   19MOL0     C 2464   4.104   7.441   6.057  0.0330 -1.3458  0.7063
   19MOL0     O 2465   4.057   7.482   5.936 -0.1234 -0.4832  0.9642
   19MOL0     C 2466   3.951   7.398   5.883  0.9873 -0.6216 -0.1412
   19MOL0     C 2467   3.919   7.463   5.745 -0.0323 -0.5487 -0.4453
   19MOL0     C 2468   4.019   7.406   5.645  0.1512  0.1437  0.8331
   19MOL0     C 2469   4.019   7.507   5.519  0.7931 -0.3391 -0.2690
   19MOL0     C 2470   3.872   7.525   5.467  0.2859 -0.2558  0.8205
   19MOL0     C 2471   3.789   7.392   5.444 -0.8486 -1.0125 -1.0412
   19MOL0     C 2472   3.728   7.375   5.313  0.2022  0.4909  0.8636
   19MOL0     C 2473   3.621   7.265   5.322 -0.2137  0.1077  0.3617
   19MOL0    Cl 2474   3.587   7.206   5.144 -0.2117 -0.9208  0.2535
   19MOL0     C 2475   4.233   7.486   6.090 -0.5582 -0.4002  0.9045
   19MOL0     C 2476   4.283   7.459   6.225  0.5854  0.2706 -0.0661
   19MOL0     O 2477   4.085   7.319   6.577 -0.3438 -0.4901  0.0016
   19MOL0     C 2478   4.241   7.280   6.809 -0.0748  0.3042  0.2122
   19MOL0     C 2479   4.317   7.284   6.927 -0.2968  0.0948  0.2055
   19MOL0     N 2480   4.885   6.880   7.087 -0.2018  0.9048  0.1523
   19MOL0     N 2481   4.977   6.847   6.993  0.9929  0.2190 -0.3434
   19MOL0     C 2482   5.564   7.426   6.193 -0.0506  0.3444 -0.4790
   19MOL0     C 2483   5.614   7.544   6.132  0.5159  0.6781 -0.0216
   19MOL0     C 2484   5.742   7.885   5.877 -0.2497  0.3000  0.4068
   19MOL0     C 2485   5.875   7.921   5.898  0.3574 -0.5387  0.1434
   19MOL0     C 2486   5.921   8.045   5.847  0.1532 -0.0325 -0.3596
   19MOL0     C 2487   5.850   8.113   5.751 -1.1268  0.0234  0.0596
   19MOL0     O 2488   5.911   8.230   5.716  0.2502  0.3066  0.0394
   19MOL0     C 2489   5.857   8.305   5.606 -1.0900 -0.8259  0.6586
   19MOL0     C 2490   5.953   8.429   5.575 -0.7903 -0.4062  1.0120
   19MOL0     C 2491   5.933   8.541   5.685  0.2539 -0.3502  0.2372
   19MOL0     C 2492   6.000   8.673   5.647 -0.7029 -0.7020 -0.4166
   19MOL0     C 2493   6.148   8.657   5.667  0.8354  0.0617 -0.2770
   19MOL0     C 2494   6.257   8.664   5.712 -0.2359 -0.5652  0.8557
   19MOL0     C 2495   5.712   8.076   5.722 -0.4031  0.0776 -0.5148
   19MOL0     C 2496   5.658   7.966   5.788 -0.0356  0.7849 -0.4475
   19MOL0     C 2497   5.519   7.921   5.746 -0.0743 -0.9127  0.8092
   19MOL0     H 2498   5.746   7.392   5.862  1.9402  0.5841  1.5428
   19MOL0     H 2499   5.657   7.204   5.960 -3.2989 -0.2119 -0.3257
   19MOL0     H 2500   5.388   7.119   6.093  0.8288  0.2156 -3.5950
   19MOL0     H 2501   5.551   7.044   6.069  0.1381 -1.8819  1.5547
   19MOL0     H 2502   5.555   6.945   6.286  1.1326  3.7956  0.5366
   19MOL0     H 2503   5.402   6.909   6.189 -1.4653 -0.0103  1.0671
   19MOL0     H 2504   5.282   7.058   6.334  1.3409  1.5547 -2.2496
   19MOL0     H 2505   5.428   7.085   6.431 -1.9851  0.2864  0.8181
   19MOL0     H 2506   5.333   6.800   6.392 -0.4220 -0.6379  0.5204
   19MOL0     H 2507   5.421   6.880   6.527  0.8907  1.1451 -1.1715
   19MOL0     H 2508   5.224   6.999   6.594 -0.1437  0.5960  0.0800
   19MOL0     H 2509   5.129   6.943   6.465  0.4242 -1.1317 -1.0255
   19MOL0     H 2510   5.150   6.699   6.535  0.3755 -0.4507  1.0297
   19MOL0     H 2511   5.247   6.751   6.673 -3.4145 -1.7400  1.5806
   19MOL0     H 2512   5.036   6.714   6.743  1.5742  0.4032  1.2633
   19MOL0     H 2513   4.961   6.807   6.614 -0.2207  0.5119 -0.1914
   19MOL0     H 2514   5.153   6.954   6.814 -0.8769 -0.9144  3.7947
   19MOL0     H 2515   5.028   7.024   6.709 -1.5281 -1.9213 -2.7678
   19MOL0     H 2516   4.820   7.089   6.842  0.0098  0.0856  0.7307
   19MOL0     H 2517   4.611   7.079   7.019 -1.8672  0.2484  1.3143
   19MOL0     H 2518   4.657   7.015   7.174 -1.1531 -1.4929 -2.4832
   19MOL0     H 2519   4.821   7.197   7.197  0.1743 -1.7408 -0.6796
   19MOL0     H 2520   4.753   7.285   7.059 -0.2156 -0.5768  1.2819
   19MOL0     H 2521   4.658   7.373   7.257 -2.1773  0.1107  0.5027
   19MOL0     H 2522   4.606   7.204   7.309 -3.8949 -0.8014 -0.2058
   19MOL0     H 2523   4.417   7.347   7.236  0.7580 -1.2962  1.5104
   19MOL0     H 2524   4.441   7.192   7.155 -0.7620  0.0480  0.1560
   19MOL0     H 2525   4.580   7.462   6.816 -1.2369  1.4593  0.1553
   19MOL0     H 2526   4.455   7.451   6.600  0.0688 -0.0725 -1.1005
   19MOL0     H 2527   4.010   7.308   6.350  1.8880 -0.1827  1.2763
   19MOL0     H 2528   3.930   7.366   6.139 -0.2345  1.4899  1.0234
   19MOL0     H 2529   3.959   7.289   5.885 -2.1516 -0.9533 -0.3542
   19MOL0     H 2530   3.868   7.420   5.951  1.1400 -1.3533  0.2864
   19MOL0     H 2531   3.814   7.442   5.725  0.3263 -0.2956 -3.0069
   19MOL0     H 2532   3.934   7.571   5.759  1.8282 -0.2686 -3.5466
   19MOL0     H 2533   4.123   7.411   5.680  0.0220  1.9727  1.0500
   19MOL0     H 2534   3.997   7.303   5.614  1.9683 -0.0069 -0.0810
   19MOL0     H 2535   4.091   7.468   5.446  2.1471 -1.8523  1.7367
   19MOL0     H 2536   4.048   7.604   5.560 -1.6921 -0.1360  1.2414
   19MOL0     H 2537   3.872   7.582   5.374  0.5395 -2.6100 -0.6850
   19MOL0     H 2538   3.822   7.591   5.539  0.6468  0.7796  0.1416
   19MOL0     H 2539   3.863   7.312   5.448 -0.7773 -0.9003  0.7760
   19MOL0     H 2540   3.714   7.375   5.522 -0.0294 -0.4673 -0.1212
   19MOL0     H 2541   3.813   7.349   5.250  0.3817 -1.1840  1.7516
   19MOL0     H 2542   3.683   7.464   5.267  1.7179 -0.5213 -2.9711
   19MOL0     H 2543   3.662   7.178   5.375  5.6563  0.9432 -1.9516
   19MOL0     H 2544   3.531   7.298   5.373 -2.7106 -2.6262 -1.9043
   19MOL0     H 2545   4.293   7.530   6.011 -0.8507 -0.8431  0.4327
   19MOL0     H 2546   4.388   7.479   6.242  1.1655 -0.0436 -2.7758
   19MOL0     H 2547   4.144   7.230   6.810 -0.0060  0.1543 -0.2365
   19MOL0     H 2548   4.281   7.233   7.016  0.6676  0.5345  0.8707
   19MOL0     H 2549   5.509   7.423   6.287  2.5310 -1.3050  1.1007
   19MOL0     H 2550   5.602   7.639   6.183 -0.1166 -0.9356  3.1007
   19MOL0     H 2551   5.947   7.871   5.963  0.7855  0.7367  0.6938
   19MOL0     H 2552   6.022   8.073   5.876 -0.0190  0.8391 -0.5966
   19MOL0     H 2553   5.764   8.354   5.633 -0.6886  1.0057 -1.0675
   19MOL0     H 2554   5.843   8.243   5.517  1.8205  0.7867 -1.0929
   19MOL0     H 2555   5.930   8.472   5.477  2.2438  2.1772  1.2976
   19MOL0     H 2556   6.059   8.403   5.576 -0.7584 -0.6635 -1.6958
   19MOL0     H 2557   5.976   8.507   5.780 -1.3872  2.2659  2.0239
   19MOL0     H 2558   5.825   8.553   5.695  0.3351  2.0698 -1.1437
   19MOL0     H 2559   5.980   8.692   5.541  1.1367  1.9002 -0.3870
   19MOL0     H 2560   5.965   8.753   5.713  1.5015  1.7584 -2.0441
   19MOL0     H 2561   6.352   8.671   5.762  1.0171  3.9966 -1.5702
   19MOL0     H 2562   5.658   8.144   5.657 -0.8592 -0.2924 -0.5286
   19MOL0     H 2563   5.452   7.908   5.831 -2.7140 -1.3152 -1.1770
   19MOL0     H 2564   5.493   7.991   5.665  0.9077 -0.6472  0.7046
   19MOL0     H 2565   5.523   7.824   5.696 -2.4414 -0.9308  0.5376
   20MOL0     O 2566   4.830   5.275   4.715  0.0757  0.1330  0.1420
   20MOL0     C 2567   4.735   5.253   4.639 -0.2227  0.3602 -0.1522
   20MOL0     O 2568   4.757   5.232   4.502  0.6373  0.1457 -0.1942
   20MOL0     C 2569   4.876   5.254   4.445  0.2610  0.2382  0.2421
   20MOL0     C 2570   4.976   5.161   4.472 -0.1165  0.9146  0.6362
   20MOL0     C 2571   5.102   5.155   4.396 -0.0327 -0.7153  0.3532
   20MOL0     C 2572   5.126   5.264   4.305  0.4335  0.6987  0.1228
   20MOL0     O 2573   5.247   5.269   4.238  0.5311  0.1442 -0.2243
   20MOL0     C 2574   5.310   5.386   4.198  0.6076 -1.1305 -0.7429
   20MOL0     C 2575   5.454   5.364   4.149  0.2265  0.4536  0.5733
   20MOL0     C 2576   5.454   5.308   4.004  0.2336  0.0242 -0.3674
   20MOL0     C 2577   5.560   5.205   3.963  0.9814 -0.4552  0.2946
   20MOL0     C 2578   5.510   5.119   3.848  0.9718  0.1507  0.0621
   20MOL0     C 2579   5.624   5.026   3.807  0.0569 -0.5948  0.2752
   20MOL0     C 2580   5.622   4.979   3.667 -0.6335  0.1291 -0.1542
   20MOL0     C 2581   5.760   4.916   3.633  0.1841 -0.3776 -0.1896
   20MOL0     N 2582   5.800   4.941   3.489 -0.2802 -0.4302 -0.1281
   20MOL0     C 2583   5.865   5.050   3.444 -0.5348 -0.4838  0.4685
   20MOL0     C 2584   5.854   5.043   3.309  0.9387  0.0909  0.8042
   20MOL0     C 2585   5.907   5.136   3.213 -0.0728 -0.1905 -0.5958
   20MOL0     C 2586   6.034   5.073   3.152  0.1901  0.0026 -0.3587
   20MOL0     C 2587   6.076   5.147   3.020 -0.4871 -0.1475  0.2239
   20MOL0     C 2588   6.182   5.247   3.054  0.2427  0.5811  0.0495
   20MOL0     O 2589   6.280   5.179   3.129 -1.4624  0.2978  0.5796
   20MOL0     C 2590   6.371   5.112   3.045 -0.4615  1.7313  0.3306
   20MOL0     C 2591   6.367   4.969   3.049  0.1953  0.1993  0.0586
   20MOL0     C 2592   6.465   4.895   2.982 -0.6650 -0.8817  0.5408
   20MOL0     C 2593   6.570   4.960   2.905  0.2279 -0.3454  0.1470
   20MOL0     C 2594   6.669   4.869   2.835  0.8081 -0.1815  0.0562
   20MOL0     O 2595   6.617   4.734   2.806 -0.5729 -0.5713  0.3114
   20MOL0     C 2596   6.677   4.640   2.733  0.3691 -0.7779  0.2765
   20MOL0     C 2597   6.755   4.675   2.623 -0.4575  1.1951  0.3598
   20MOL0     C 2598   6.818   4.567   2.552 -0.4428 -0.5237 -0.3310
   20MOL0     C 2599   6.799   4.439   2.593  0.4766 -0.3096 -0.1301
   20MOL0     O 2600   6.864   4.333   2.537 -0.2481 -0.0282 -0.9421
   20MOL0     C 2601   6.810   4.301   2.413  0.3399  0.3216 -0.0112
   20MOL0     C 2602   6.878   4.194   2.338 -0.4658 -0.3874  0.8958
   20MOL0     C 2603   7.026   4.227   2.302 -0.3834 -0.6285  0.6068
   20MOL0     C 2604   7.111   4.099   2.281 -0.5450 -0.2044 -0.3607
   20MOL0     C 2605   7.072   4.015   2.150  0.1971 -0.4306  0.3352
   20MOL0     C 2606   7.121   4.084   2.021 -0.4340 -0.0310  1.0998
   20MOL0     C 2607   7.140   3.992   1.891 -0.0519  0.1803  0.2353
   20MOL0     C 2608   7.008   3.964   1.832  0.5416 -0.1587  0.8982
   20MOL0    Cl 2609   6.901   3.850   1.921  0.3154 -0.0744  0.2880
   20MOL0     C 2610   6.709   4.409   2.690 -0.2291  0.4661 -0.2407
   20MOL0     C 2611   6.649   4.510   2.764  0.3109 -0.4912  0.5645
   20MOL0     O 2612   6.782   4.910   2.800 -0.3297 -1.2730 -0.0427
   20MOL0     C 2613   6.578   5.095   2.917  0.5038 -0.5399 -0.3468
   20MOL0     C 2614   6.480   5.166   2.981  0.0908  0.3184 -0.1790
   20MOL0     N 2615   5.775   4.930   3.274 -0.1401  0.1466 -0.6633
   20MOL0     N 2616   5.739   4.875   3.383 -0.4732 -0.8389 -0.2772
   20MOL0     C 2617   5.024   5.359   4.284 -0.6589 -0.3381  0.8827
   20MOL0     C 2618   4.899   5.355   4.346  0.2189  0.3146 -0.6108
   20MOL0     C 2619   4.595   5.228   4.697 -0.4363 -0.0330 -0.1263
   20MOL0     C 2620   4.566   5.273   4.829 -0.2083  0.0427  0.3847
   20MOL0     C 2621   4.442   5.273   4.884  0.3234  0.2701 -0.3697
   20MOL0     C 2622   4.340   5.208   4.819 -0.4031 -0.7746 -0.4703
   20MOL0     O 2623   4.216   5.213   4.877  0.3751 -0.2024 -0.5596
   20MOL0     C 2624   4.099   5.182   4.805  0.5419 -0.7011 -0.1385
   20MOL0     C 2625   3.966   5.181   4.883 -0.2530  0.4719 -0.1324
   20MOL0     C 2626   3.973   5.088   5.011 -0.2989  0.5078 -0.3895
   20MOL0     C 2627   3.839   5.112   5.094  1.1450  0.7858 -0.2851
   20MOL0     C 2628   3.802   4.990   5.171 -0.0469  0.3920 -0.5281
   20MOL0     C 2629   3.769   4.879   5.218 -0.1218  0.4941  0.3999
   20MOL0     C 2630   4.360   5.154   4.686 -0.5849 -0.1380  1.3246
   20MOL0     C 2631   4.486   5.162   4.623  0.1661 -0.8021 -0.0833
   20MOL0     C 2632   4.503   5.098   4.487  0.3095 -0.0522 -0.4832
   20MOL0     H 2633   4.978   5.079   4.543  2.6040  3.1551  3.4672
   20MOL0     H 2634   5.167   5.072   4.421 -0.2076 -1.0442 -0.2590
   20MOL0     H 2635   5.250   5.421   4.114 -0.9111 -0.1857  0.6817
   20MOL0     H 2636   5.298   5.457   4.280  1.3900 -2.6513  0.7405
   20MOL0     H 2637   5.492   5.288   4.218 -2.4489 -2.1640 -0.5924
   20MOL0     H 2638   5.520   5.450   4.156  1.8982 -0.7776  0.6521
   20MOL0     H 2639   5.467   5.396   3.940  3.1418  0.4037  0.5983
   20MOL0     H 2640   5.352   5.272   3.988 -0.3302 -0.0067  2.6801
   20MOL0     H 2641   5.650   5.257   3.929  0.9880 -1.1430 -0.7994
   20MOL0     H 2642   5.575   5.142   4.051  0.7925 -2.4362 -1.0292
   20MOL0     H 2643   5.427   5.055   3.878  1.0158 -0.2158 -0.5834
   20MOL0     H 2644   5.474   5.186   3.769  1.1868 -0.1652 -0.3107
   20MOL0     H 2645   5.720   5.076   3.827  0.6006 -2.6071  3.3628
   20MOL0     H 2646   5.627   4.937   3.870 -0.8021 -0.5102  0.4446
   20MOL0     H 2647   5.601   5.062   3.599  2.7396  1.7031  0.5138
   20MOL0     H 2648   5.548   4.899   3.663 -0.6953  0.0256  2.0321
   20MOL0     H 2649   5.842   4.960   3.691 -2.0637  0.7830  2.3048
   20MOL0     H 2650   5.748   4.808   3.638  0.8248 -0.5366 -1.6715
   20MOL0     H 2651   5.929   5.115   3.503 -3.5095  1.1778  2.1339
   20MOL0     H 2652   5.830   5.167   3.143  2.5732  2.3371 -2.6454
   20MOL0     H 2653   5.933   5.224   3.272 -0.1549  0.0609 -0.9304
   20MOL0     H 2654   6.111   5.060   3.229  1.6161  2.4448 -1.2456
   20MOL0     H 2655   6.003   4.972   3.121  0.2876 -0.1654  0.0760
   20MOL0     H 2656   5.993   5.181   2.958  3.3367  0.2480 -5.4640
   20MOL0     H 2657   6.124   5.072   2.957  0.1769 -0.5462  1.1723
   20MOL0     H 2658   6.136   5.319   3.121 -1.4689  0.3593 -0.8159
   20MOL0     H 2659   6.220   5.305   2.969  1.1449  1.0519  0.7600
   20MOL0     H 2660   6.288   4.918   3.103 -0.8401  1.2143 -0.4732
   20MOL0     H 2661   6.464   4.786   2.984  0.8745 -0.9775 -1.1882
   20MOL0     H 2662   6.778   4.777   2.594 -0.7113  1.4823  1.1408
   20MOL0     H 2663   6.873   4.595   2.463  1.5260  3.8552  1.9595
   20MOL0     H 2664   6.710   4.263   2.438  2.0613 -4.4288  0.6802
   20MOL0     H 2665   6.789   4.386   2.348  0.9152 -1.4350 -2.6438
   20MOL0     H 2666   6.877   4.102   2.397 -2.6852 -1.3885 -0.5608
   20MOL0     H 2667   6.817   4.181   2.249 -1.1859  4.1512  0.4975
   20MOL0     H 2668   7.024   4.283   2.209  2.0299  1.8597  1.9022
   20MOL0     H 2669   7.065   4.292   2.381 -1.8381  1.8004 -0.5663
   20MOL0     H 2670   7.088   4.037   2.368  2.6848  0.0194  0.7628
   20MOL0     H 2671   7.218   4.122   2.280 -0.4692 -0.5529 -0.3427
   20MOL0     H 2672   6.963   4.022   2.139  0.5498  1.4275 -4.2510
   20MOL0     H 2673   7.113   3.914   2.150 -0.8629 -0.8681  0.5646
   20MOL0     H 2674   7.064   4.173   1.993 -2.8826 -2.2207 -1.5349
   20MOL0     H 2675   7.209   4.139   2.056 -1.1925  2.1565 -0.1746
   20MOL0     H 2676   7.202   3.904   1.913 -0.5460  0.0420  1.1252
   20MOL0     H 2677   7.201   4.043   1.816  0.2445 -2.4664 -1.4697
   20MOL0     H 2678   6.953   4.058   1.823  2.4524  0.9110 -0.4242
   20MOL0     H 2679   7.022   3.919   1.733 -0.5557  1.8497 -0.2464
   20MOL0     H 2680   6.696   4.304   2.718  3.8969 -0.1708 -0.0814
   20MOL0     H 2681   6.581   4.486   2.846  2.4189 -1.0462  2.2294
   20MOL0     H 2682   6.665   5.153   2.887 -0.0278  0.7285  0.4680
   20MOL0     H 2683   6.501   5.272   2.988  0.8142  0.2361 -0.8720
   20MOL0     H 2684   5.046   5.442   4.217  1.6946 -2.9994 -1.9807
   20MOL0     H 2685   4.824   5.429   4.318 -0.5223 -0.0731  0.3051
   20MOL0     H 2686   4.651   5.319   4.878  0.6908  2.2276 -2.9034
   20MOL0     H 2687   4.433   5.316   4.983 -0.0819 -0.6777  0.0255
   20MOL0     H 2688   4.112   5.080   4.767 -1.9036 -1.6184  1.2839
   20MOL0     H 2689   4.095   5.252   4.721 -2.9918 -0.6106 -0.0319
   20MOL0     H 2690   3.876   5.158   4.825  0.1517  1.3321 -1.1255
   20MOL0     H 2691   3.966   5.282   4.924  1.0123  0.4431 -0.0177
   20MOL0     H 2692   4.061   5.114   5.070 -1.0818  2.1802  0.1023
   20MOL0     H 2693   3.992   4.990   4.966  1.4343  1.8022 -2.6581
   20MOL0     H 2694   3.849   5.203   5.153  1.0431  0.2143  0.6284
   20MOL0     H 2695   3.763   5.127   5.017 -1.4700 -0.4009  1.8851
   20MOL0     H 2696   3.753   4.783   5.262  2.2142  0.3070  0.9548
   20MOL0     H 2697   4.278   5.102   4.637  1.6386  0.1928 -3.3002
   20MOL0     H 2698   4.556   5.002   4.495  1.0492  0.2335 -1.6528
   20MOL0     H 2699   4.407   5.083   4.438 -0.0688  2.4084 -0.6163
   20MOL0     H 2700   4.559   5.154   4.411 -0.4582  0.3896 -0.7351
   21MOL0     O 2701   3.898   5.382   0.910  0.6068  0.7994  0.1081
   21MOL0     C 2702   3.928   5.409   1.024  0.1808  0.0130 -0.8171
   21MOL0     O 2703   3.862   5.348   1.136 -0.6495 -0.3051  0.0226
   21MOL0     C 2704   3.807   5.227   1.124  0.8842  0.2402 -0.2951
   21MOL0     C 2705   3.814   5.130   1.233 -0.5468 -0.5889 -0.5214
   21MOL0     C 2706   3.762   5.006   1.232  0.4086 -0.6319 -0.4115
   21MOL0     C 2707   3.683   4.968   1.132  0.2376  0.4738  0.3637
   21MOL0     O 2708   3.638   4.841   1.133 -0.0490  0.3213 -0.7876
   21MOL0     C 2709   3.624   4.756   1.008  0.4271 -1.5139 -1.1884
   21MOL0     C 2710   3.507   4.657   1.013  0.0336 -0.2071 -0.1924
   21MOL0     C 2711   3.542   4.522   0.945 -0.9080 -0.0379  0.3905
   21MOL0     C 2712   3.430   4.426   0.936 -0.2927 -0.7488  0.9038
   21MOL0     C 2713   3.486   4.295   0.906  0.2129  0.0897  1.1003
   21MOL0     C 2714   3.375   4.198   0.864 -0.2767  0.5642  0.6173
   21MOL0     C 2715   3.428   4.090   0.769  0.8724  0.0393  0.0162
   21MOL0     C 2716   3.538   4.016   0.857  0.9999 -0.5026  0.2874
   21MOL0     N 2717   3.581   3.896   0.780  0.7781  0.1037  0.4956
   21MOL0     C 2718   3.660   3.908   0.669 -0.2687  0.1492 -0.2965
   21MOL0     C 2719   3.690   3.782   0.644  0.0387  0.3773  0.4113
   21MOL0     C 2720   3.792   3.747   0.532  0.1533 -0.8508 -0.0387
   21MOL0     C 2721   3.907   3.667   0.595  0.4474 -0.3658 -0.2118
   21MOL0     C 2722   3.904   3.521   0.557 -0.3092 -0.1594 -0.4268
   21MOL0     C 2723   3.798   3.425   0.608 -0.6412  0.4361  0.2670
   21MOL0     O 2724   3.712   3.367   0.506 -0.4845  0.8239  0.3246
   21MOL0     C 2725   3.614   3.277   0.554 -0.2758  0.3837 -0.1125
   21MOL0     C 2726   3.531   3.215   0.455  0.0787  0.3796 -0.3752
   21MOL0     C 2727   3.429   3.129   0.494  0.2976 -0.4343 -0.4399
   21MOL0     C 2728   3.382   3.119   0.628 -0.9547 -1.2688 -0.4562
   21MOL0     C 2729   3.262   3.048   0.659  0.9232  0.3209  0.0475
   21MOL0     O 2730   3.211   3.064   0.784  0.1013 -0.5895  1.0950
   21MOL0     C 2731   3.107   2.984   0.836 -0.2717 -0.9943  0.3570
   21MOL0     C 2732   3.042   2.886   0.769  0.2231  0.0466  0.1427
   21MOL0     C 2733   2.920   2.824   0.812  0.8690  0.2352 -0.1037
   21MOL0     C 2734   2.881   2.852   0.943 -0.1631 -0.9045 -0.2942
   21MOL0     O 2735   2.776   2.786   0.996  0.6888  0.8987  0.2367
   21MOL0     C 2736   2.799   2.686   1.102  0.4653  0.4546  0.2884
   21MOL0     C 2737   2.804   2.543   1.056 -0.6948  0.4362 -0.1224
   21MOL0     C 2738   2.836   2.449   1.176  0.2781  0.1068 -0.0544
   21MOL0     C 2739   2.829   2.302   1.135  0.4512 -0.7437 -0.0312
   21MOL0     C 2740   2.922   2.215   1.219  0.1335 -0.0659 -0.3175
   21MOL0     C 2741   2.918   2.065   1.168 -0.8290 -1.1848  0.6027
   21MOL0     C 2742   3.018   1.973   1.247 -0.6960  0.2769 -0.5357
   21MOL0     C 2743   3.160   1.990   1.196  0.2243  0.4546 -0.6480
   21MOL0    Cl 2744   3.280   1.873   1.282  0.6769 -0.2090 -0.6072
   21MOL0     C 2745   2.951   2.942   1.017 -0.9551 -0.2838  0.9379
   21MOL0     C 2746   3.062   3.016   0.964  0.1829 -0.2539  0.5512
   21MOL0     O 2747   3.213   2.976   0.568 -0.0739  0.4769  0.1296
   21MOL0     C 2748   3.456   3.192   0.720 -0.1725 -0.2015 -0.0908
   21MOL0     C 2749   3.578   3.262   0.684  0.1443 -0.4505 -0.1786
   21MOL0     N 2750   3.626   3.699   0.735 -0.6574  0.6188 -0.3770
   21MOL0     N 2751   3.558   3.764   0.820  0.0781  0.2847  0.4556
   21MOL0     C 2752   3.658   5.060   1.027 -0.7374  0.6772  0.5841
   21MOL0     C 2753   3.713   5.191   1.024  0.8271  0.2767  0.1540
   21MOL0     C 2754   4.045   5.492   1.047 -0.1851 -0.0663  0.6780
   21MOL0     C 2755   4.129   5.518   0.932 -0.4574 -1.2339 -0.7160
   21MOL0     C 2756   4.233   5.615   0.947 -0.1528 -0.5112 -0.0174
   21MOL0     C 2757   4.247   5.689   1.070  0.1220  0.3881  0.0348
   21MOL0     O 2758   4.348   5.784   1.070 -0.2518  0.2953 -0.0946
   21MOL0     C 2759   4.353   5.886   1.172  0.5993  0.5189 -0.0697
   21MOL0     C 2760   4.485   5.972   1.135 -0.0392  0.5769 -0.7444
   21MOL0     C 2761   4.608   5.915   1.198  0.6634 -0.5580  0.3258
   21MOL0     C 2762   4.732   5.964   1.119  0.6760  0.2278 -0.5038
   21MOL0     C 2763   4.717   6.106   1.096 -0.6952  1.1594 -0.0237
   21MOL0     C 2764   4.694   6.221   1.083  0.6890  0.1360 -0.2839
   21MOL0     C 2765   4.175   5.650   1.182 -0.3826 -0.5606 -0.9605
   21MOL0     C 2766   4.072   5.556   1.176  0.0871  0.0203 -0.1648
   21MOL0     C 2767   4.001   5.526   1.307  0.6137  0.0887  0.5070
   21MOL0     H 2768   3.879   5.148   1.318 -0.9008 -0.2500 -0.3154
   21MOL0     H 2769   3.778   4.939   1.316 -4.0798  0.6698  1.7487
   21MOL0     H 2770   3.615   4.816   0.917  0.2170 -2.0648 -1.5335
   21MOL0     H 2771   3.714   4.693   1.008 -0.8620 -3.4437  0.0109
   21MOL0     H 2772   3.424   4.696   0.954 -1.1672  2.6291  3.0238
   21MOL0     H 2773   3.477   4.648   1.118  3.1878 -1.0827  0.7538
   21MOL0     H 2774   3.623   4.478   1.004  0.9780  1.0043 -1.2720
   21MOL0     H 2775   3.589   4.532   0.846 -1.3316 -2.4580 -0.0988
   21MOL0     H 2776   3.376   4.423   1.031 -1.4596 -1.5591  0.2360
   21MOL0     H 2777   3.348   4.454   0.870 -0.1126  1.4809  1.5515
   21MOL0     H 2778   3.556   4.304   0.822  2.3708 -2.1691  2.5008
   21MOL0     H 2779   3.546   4.257   0.989  0.9036 -1.0413  0.1200
   21MOL0     H 2780   3.347   4.153   0.960  1.2151 -1.3113  0.2538
   21MOL0     H 2781   3.286   4.244   0.820  0.3642  1.1671 -0.0720
   21MOL0     H 2782   3.475   4.136   0.682  0.2593 -1.7238 -1.2974
   21MOL0     H 2783   3.343   4.025   0.744 -0.1003  0.6454  1.5777
   21MOL0     H 2784   3.626   4.079   0.873  1.9877 -2.1573  1.7431
   21MOL0     H 2785   3.497   3.990   0.955  1.0422  1.8950  1.0090
   21MOL0     H 2786   3.704   3.997   0.626  0.4080  0.5273  1.1046
   21MOL0     H 2787   3.747   3.669   0.471  0.2963 -3.4591  2.9177
   21MOL0     H 2788   3.821   3.836   0.476 -0.5221  0.7666  2.0277
   21MOL0     H 2789   4.005   3.710   0.570  0.1620 -0.1493 -0.9813
   21MOL0     H 2790   3.903   3.662   0.705 -0.6365  0.7491 -0.1718
   21MOL0     H 2791   3.993   3.474   0.599  0.4959 -2.0572 -3.8543
   21MOL0     H 2792   3.920   3.504   0.450 -0.9919 -0.7220 -0.4469
   21MOL0     H 2793   3.729   3.474   0.678 -0.8389  1.7799 -0.8123
   21MOL0     H 2794   3.855   3.351   0.665 -0.5930  0.3861  0.1544
   21MOL0     H 2795   3.544   3.232   0.348 -2.3260  1.6616 -0.5381
   21MOL0     H 2796   3.386   3.067   0.415  0.0163 -2.4480  1.1968
   21MOL0     H 2797   3.074   2.839   0.678  1.8401  2.3488 -0.5766
   21MOL0     H 2798   2.874   2.741   0.758  2.5814 -0.6513 -0.2843
   21MOL0     H 2799   2.888   2.708   1.161  0.0742  3.3683 -0.0451
   21MOL0     H 2800   2.715   2.689   1.173  0.1753  2.8694 -0.0938
   21MOL0     H 2801   2.707   2.520   1.012 -0.4578  1.3907 -1.2057
   21MOL0     H 2802   2.874   2.530   0.973 -1.7396 -0.6526 -0.8619
   21MOL0     H 2803   2.929   2.477   1.226 -1.3225  0.2179  3.0897
   21MOL0     H 2804   2.760   2.458   1.254  0.3116 -0.2467  0.0200
   21MOL0     H 2805   2.864   2.290   1.033 -0.4855 -2.6279 -0.1840
   21MOL0     H 2806   2.732   2.254   1.155  1.6000 -2.3723  2.0530
   21MOL0     H 2807   2.919   2.209   1.328 -1.3510 -2.3457 -0.4131
   21MOL0     H 2808   3.020   2.255   1.191  0.0908  0.7463  0.6594
   21MOL0     H 2809   2.820   2.028   1.198 -1.1345 -1.3660 -0.5778
   21MOL0     H 2810   2.936   2.054   1.061  3.4307  1.3570  0.8280
   21MOL0     H 2811   2.975   1.875   1.226 -0.3143 -0.0344  0.1485
   21MOL0     H 2812   3.025   1.994   1.354 -1.4475 -1.0624 -0.1984
   21MOL0     H 2813   3.166   1.977   1.088  1.3407  2.9492 -0.9522
   21MOL0     H 2814   3.204   2.088   1.216  3.3419 -0.9957  0.1976
   21MOL0     H 2815   2.913   2.962   1.117 -0.2098  2.0969  0.8206
   21MOL0     H 2816   3.112   3.089   1.027  2.0172 -1.8624  1.0628
   21MOL0     H 2817   3.428   3.200   0.825  0.6411  0.9640  0.0629
   21MOL0     H 2818   3.628   3.311   0.768  1.1752  1.5343 -1.8598
   21MOL0     H 2819   3.589   5.038   0.946  1.3225 -0.0494 -1.0996
   21MOL0     H 2820   3.688   5.268   0.951  1.1446  2.8449  2.5893
   21MOL0     H 2821   4.116   5.473   0.834  0.5219 -5.3032  0.8265
   21MOL0     H 2822   4.294   5.662   0.871 -1.4526  1.5793  0.1577
   21MOL0     H 2823   4.359   5.838   1.269  1.0887  2.6176  0.9978
   21MOL0     H 2824   4.256   5.938   1.171  1.0933  1.4634 -0.9189
   21MOL0     H 2825   4.479   6.075   1.171  1.1915  0.0865  1.0170
   21MOL0     H 2826   4.497   5.980   1.027 -2.6159  1.8295 -1.0102
   21MOL0     H 2827   4.605   5.806   1.199 -3.7346 -0.5897  0.6624
   21MOL0     H 2828   4.613   5.952   1.301  2.3730  0.3499 -0.0382
   21MOL0     H 2829   4.822   5.942   1.178  0.2858 -0.6202 -0.2092
   21MOL0     H 2830   4.733   5.914   1.022 -0.7409 -0.9253  0.0534
   21MOL0     H 2831   4.666   6.324   1.094  1.1961  0.1630  0.9080
   21MOL0     H 2832   4.179   5.711   1.272  0.8558 -1.2928 -0.4897
   21MOL0     H 2833   3.896   5.558   1.311  0.1772 -0.7033 -2.1350
   21MOL0     H 2834   4.010   5.418   1.322 -0.6791 -0.7254 -3.2607
   21MOL0     H 2835   4.052   5.572   1.392  0.1192  1.0160  0.3118
   22MOL0     O 2836   6.360   7.191   6.782 -0.8431 -0.1448  0.8112
   22MOL0     C 2837   6.478   7.182   6.827  0.1231  0.4882 -0.6944
   22MOL0     O 2838   6.522   7.264   6.927 -0.3625  0.5982  0.8281
   22MOL0     C 2839   6.464   7.382   6.969 -0.5803 -0.0290 -0.5407
   22MOL0     C 2840   6.515   7.431   7.093 -0.0109  0.0449  0.6569
   22MOL0     C 2841   6.473   7.548   7.152 -0.0100  0.2720 -0.2003
   22MOL0     C 2842   6.360   7.613   7.100  0.7148  0.9020 -0.4840
   22MOL0     O 2843   6.311   7.727   7.167  0.0920  0.3007 -0.1647
   22MOL0     C 2844   6.232   7.813   7.090 -0.1740  0.5148 -0.9486
   22MOL0     C 2845   6.219   7.946   7.169  0.0405 -0.0860  0.7673
   22MOL0     C 2846   6.139   8.054   7.096 -0.9294  0.6290 -0.3958
   22MOL0     C 2847   6.145   8.176   7.173 -0.5482 -0.8254 -0.1745
   22MOL0     C 2848   6.007   8.229   7.223  0.6824 -0.7273 -0.1916
   22MOL0     C 2849   6.014   8.377   7.247  0.4485 -0.4739  0.1889
   22MOL0     C 2850   5.886   8.430   7.314 -0.7608  0.5468  0.1017
   22MOL0     C 2851   5.866   8.583   7.326  0.3842 -0.2684 -0.8112
   22MOL0     N 2852   5.950   8.641   7.432 -0.3014  0.1567  0.0301
   22MOL0     C 2853   6.046   8.746   7.413  0.0379  0.1435  0.1627
   22MOL0     C 2854   6.078   8.778   7.544 -0.5903 -0.3801  0.3685
   22MOL0     C 2855   6.186   8.875   7.577  0.0963 -0.2263 -0.1322
   22MOL0     C 2856   6.133   8.978   7.682  0.2322 -0.8036 -0.3751
   22MOL0     C 2857   6.224   8.982   7.808 -0.0776 -0.3218  0.5070
   22MOL0     C 2858   6.198   8.853   7.890 -1.0152 -0.4473  0.2939
   22MOL0     O 2859   6.285   8.848   8.004 -0.2107 -0.4300 -0.0251
   22MOL0     C 2860   6.425   8.842   7.995  0.0361  0.5470  0.1012
   22MOL0     C 2861   6.492   8.810   7.877 -0.2159  1.1618 -0.0371
   22MOL0     C 2862   6.630   8.828   7.869  0.0090 -0.4531 -0.2847
   22MOL0     C 2863   6.704   8.850   7.988  0.0494  0.8389 -0.7758
   22MOL0     C 2864   6.846   8.858   7.972 -0.4172 -0.1391 -0.5231
   22MOL0     O 2865   6.915   8.841   8.081  0.0810 -0.5333  0.0403
   22MOL0     C 2866   7.055   8.859   8.087  0.1932  0.3950 -0.6983
   22MOL0     C 2867   7.119   8.776   8.186  0.4322 -0.5774 -0.6594
   22MOL0     C 2868   7.258   8.800   8.212  0.2069 -0.1958  0.6566
   22MOL0     C 2869   7.332   8.899   8.147 -0.5611 -0.8720  1.2348
   22MOL0     O 2870   7.464   8.933   8.155  0.1573  0.1783  0.2111
   22MOL0     C 2871   7.510   8.924   8.293 -0.2085  0.3766  0.6520
   22MOL0     C 2872   7.663   8.937   8.285  0.8607 -0.5377 -0.2425
   22MOL0     C 2873   7.724   8.968   8.416 -0.8069 -0.7368 -0.7534
   22MOL0     C 2874   7.876   8.963   8.413 -0.3189 -0.0664 -0.0845
   22MOL0     C 2875   7.938   8.947   8.547 -0.0290  0.2724 -0.1256
   22MOL0     C 2876   8.085   8.938   8.553 -0.0221 -0.8513  0.7160
   22MOL0     C 2877   8.164   9.068   8.545 -0.0241 -0.6214  0.0084
   22MOL0     C 2878   8.305   9.024   8.567  1.0703 -0.2495 -0.2587
   22MOL0    Cl 2879   8.427   9.142   8.503 -0.2944 -0.5564 -0.1075
   22MOL0     C 2880   7.260   8.973   8.063 -0.1936 -0.0069 -0.9526
   22MOL0     C 2881   7.124   8.958   8.032  0.5649  0.0100 -0.3745
   22MOL0     O 2882   6.893   8.883   7.863 -0.4843 -0.5477  0.5416
   22MOL0     C 2883   6.637   8.869   8.113 -0.3527 -0.6557  0.7200
   22MOL0     C 2884   6.498   8.868   8.109  0.9099 -1.0150  0.0299
   22MOL0     N 2885   5.999   8.693   7.631  0.1076 -1.3377  0.1181
   22MOL0     N 2886   5.927   8.611   7.562 -0.0673  0.1234  0.7825
   22MOL0     C 2887   6.320   7.571   6.967  1.0531 -0.2248 -0.7080
   22MOL0     C 2888   6.374   7.464   6.899  0.2633 -0.1681 -0.3824
   22MOL0     C 2889   6.559   7.075   6.788  0.0007  0.8891 -0.2946
   22MOL0     C 2890   6.681   7.044   6.862 -0.4988 -0.1784 -0.3420
   22MOL0     C 2891   6.762   6.938   6.824  0.3230  0.3576 -0.9556
   22MOL0     C 2892   6.726   6.852   6.719 -0.0611  0.0326  1.0776
   22MOL0     O 2893   6.798   6.736   6.686 -0.5625  0.7760  0.0068
   22MOL0     C 2894   6.923   6.712   6.760  0.5976 -0.3623  1.1104
   22MOL0     C 2895   7.039   6.785   6.690  0.3840 -0.4900  0.6286
   22MOL0     C 2896   7.160   6.792   6.787 -0.5603  1.1993 -0.0729
   22MOL0     C 2897   7.296   6.776   6.708 -0.8709 -0.3925  0.5769
   22MOL0     C 2898   7.312   6.882   6.607  0.8025 -0.1600 -0.4811
   22MOL0     C 2899   7.314   6.976   6.526 -0.3579 -0.1847  0.1803
   22MOL0     C 2900   6.612   6.882   6.649  0.1542  0.4913  0.0494
   22MOL0     C 2901   6.525   6.984   6.676 -0.8523 -0.5253  0.3826
   22MOL0     C 2902   6.418   6.996   6.576 -0.1450  0.6887  0.5060
   22MOL0     H 2903   6.596   7.375   7.139 -0.0140  0.4081  1.1142
   22MOL0     H 2904   6.497   7.587   7.250 -0.1944 -0.3385  0.0946
   22MOL0     H 2905   6.282   7.836   6.995  0.9192  2.0694 -0.0279
   22MOL0     H 2906   6.135   7.766   7.067  1.0332 -2.9775  0.4161
   22MOL0     H 2907   6.324   7.974   7.179  1.2540 -3.8238 -0.0407
   22MOL0     H 2908   6.174   7.926   7.267  1.6837  1.3625  1.8765
   22MOL0     H 2909   6.037   8.015   7.088 -0.9806  0.8583 -0.9330
   22MOL0     H 2910   6.190   8.093   7.007  1.1919  1.0519  0.9275
   22MOL0     H 2911   6.221   8.164   7.250 -0.3381  3.5051  0.5350
   22MOL0     H 2912   6.194   8.254   7.114 -2.0687 -1.5412 -2.5612
   22MOL0     H 2913   5.932   8.212   7.145 -0.6977 -1.9595  1.3203
   22MOL0     H 2914   5.979   8.179   7.316  3.7854  0.0806  1.3192
   22MOL0     H 2915   6.094   8.394   7.318  0.2646 -0.3411  0.3632
   22MOL0     H 2916   6.026   8.425   7.149  0.6198  2.0924  1.4133
   22MOL0     H 2917   5.873   8.391   7.415 -2.9734 -0.5768 -0.5464
   22MOL0     H 2918   5.799   8.392   7.258 -0.8941  2.4727 -1.1046
   22MOL0     H 2919   5.897   8.639   7.238 -2.1515  1.3930 -0.7689
   22MOL0     H 2920   5.760   8.612   7.326  0.2145 -0.8270  0.1356
   22MOL0     H 2921   6.097   8.782   7.324  3.2679  2.0390  2.5456
   22MOL0     H 2922   6.270   8.815   7.614  0.8113  0.9234  0.1625
   22MOL0     H 2923   6.221   8.933   7.491  0.7880 -0.1872  0.1662
   22MOL0     H 2924   6.131   9.080   7.642 -0.7338 -0.1514  1.2454
   22MOL0     H 2925   6.027   8.969   7.706 -0.3276  0.3997 -2.1515
   22MOL0     H 2926   6.189   9.057   7.880 -4.4879 -1.9966  0.4074
   22MOL0     H 2927   6.326   8.981   7.769 -0.4476 -1.8303 -0.5059
   22MOL0     H 2928   6.193   8.766   7.824 -0.1968 -0.5486  0.3555
   22MOL0     H 2929   6.099   8.878   7.930 -0.9550 -0.0608  0.2057
   22MOL0     H 2930   6.443   8.777   7.786  3.0944  0.3156 -1.6933
   22MOL0     H 2931   6.669   8.797   7.773  2.2986  3.6033 -0.9042
   22MOL0     H 2932   7.069   8.693   8.235 -2.8847  0.7480 -1.5724
   22MOL0     H 2933   7.304   8.732   8.283 -0.3797  1.6568  2.9524
   22MOL0     H 2934   7.463   8.997   8.360 -2.8059 -0.2875 -0.3254
   22MOL0     H 2935   7.487   8.825   8.332 -0.0835 -1.0228 -2.4861
   22MOL0     H 2936   7.697   8.837   8.257  0.7651 -0.6076 -0.1111
   22MOL0     H 2937   7.694   8.995   8.198  0.3236 -3.0462 -2.2485
   22MOL0     H 2938   7.690   9.064   8.457 -1.3590 -0.7857 -1.0807
   22MOL0     H 2939   7.692   8.890   8.486  0.6702  0.1156  0.9812
   22MOL0     H 2940   7.925   9.046   8.362  2.4495 -2.9448 -2.5276
   22MOL0     H 2941   7.899   8.870   8.360  0.4618  1.5143 -2.7042
   22MOL0     H 2942   7.889   8.854   8.579 -1.3550  1.2978  0.9134
   22MOL0     H 2943   7.912   9.018   8.625  2.4591  1.1120  0.0101
   22MOL0     H 2944   8.103   8.896   8.653 -2.4123 -1.9540  0.7499
   22MOL0     H 2945   8.117   8.872   8.472  0.1681  1.6266 -1.3641
   22MOL0     H 2946   8.138   9.139   8.623  0.1584  1.8030 -2.0033
   22MOL0     H 2947   8.158   9.119   8.448 -2.4272  1.8946  1.3594
   22MOL0     H 2948   8.337   9.020   8.671  0.8353 -0.8640 -0.2107
   22MOL0     H 2949   8.321   8.929   8.515  1.0159 -0.4356  0.0670
   22MOL0     H 2950   7.318   9.049   8.012 -0.7641 -0.6135 -2.5468
   22MOL0     H 2951   7.075   9.039   7.980 -0.1299  0.2970  0.7005
   22MOL0     H 2952   6.695   8.890   8.202  1.7305 -1.1753 -0.4460
   22MOL0     H 2953   6.443   8.905   8.195  1.7088  1.0597 -0.2821
   22MOL0     H 2954   6.239   7.630   6.925  2.7544  2.9679  0.1720
   22MOL0     H 2955   6.349   7.442   6.796  0.6067  0.5142 -0.6202
   22MOL0     H 2956   6.721   7.106   6.942  4.3908  2.5505 -4.3273
   22MOL0     H 2957   6.856   6.925   6.877 -1.5933 -0.5360  2.5494
   22MOL0     H 2958   6.944   6.606   6.742 -1.8725 -0.4471 -2.0712
   22MOL0     H 2959   6.917   6.737   6.866  1.7676  1.2136  0.8493
   22MOL0     H 2960   7.012   6.886   6.657  1.2963 -0.8806 -1.4726
   22MOL0     H 2961   7.065   6.736   6.596  2.1216 -0.0979  0.8840
   22MOL0     H 2962   7.164   6.711   6.861 -3.1093 -0.6308 -1.7836
   22MOL0     H 2963   7.153   6.886   6.842 -0.3827  2.2542 -1.7737
   22MOL0     H 2964   7.388   6.784   6.767  0.5087  0.2093 -1.5480
   22MOL0     H 2965   7.284   6.676   6.667 -0.4082 -1.3768  2.6887
   22MOL0     H 2966   7.311   7.063   6.464 -2.6013 -0.9912 -0.9492
   22MOL0     H 2967   6.585   6.820   6.564 -2.4604 -1.4955  2.1513
   22MOL0     H 2968   6.398   7.100   6.551 -3.0568  0.1894  0.3776
   22MOL0     H 2969   6.450   6.942   6.487  0.5163 -0.8281  1.6179
   22MOL0     H 2970   6.324   6.952   6.612  1.2039 -1.2727  1.8552
   23MOL0     O 2971   7.254   9.664   9.036 -0.0361  0.2100 -0.1162
   23MOL0     C 2972   7.200   9.775   9.052 -0.9341  0.3551  0.4019
   23MOL0     O 2973   7.111   9.826   8.970 -0.5450 -0.2679  0.1002
   23MOL0     C 2974   7.043   9.741   8.886  0.3749  0.9106  0.2420
   23MOL0     C 2975   6.920   9.689   8.916  0.8284 -0.0677 -0.1950
   23MOL0     C 2976   6.838   9.610   8.836 -0.6566 -0.3521 -0.1836
   23MOL0     C 2977   6.900   9.554   8.714  0.3760  0.0165 -0.3702
   23MOL0     O 2978   6.840   9.478   8.624  1.1462  0.7923 -0.1890
   23MOL0     C 2979   6.711   9.533   8.583 -0.4558  0.4368  0.3951
   23MOL0     C 2980   6.691   9.503   8.438  0.1307 -0.5376  0.9148
   23MOL0     C 2981   6.551   9.549   8.384 -0.2455 -0.0839 -0.4538
   23MOL0     C 2982   6.560   9.597   8.245  0.7526 -0.4800  0.5612
   23MOL0     C 2983   6.419   9.656   8.216  0.5886 -1.5502  0.6825
   23MOL0     C 2984   6.427   9.752   8.100 -0.3472  0.1651  0.3574
   23MOL0     C 2985   6.444   9.669   7.971  0.5615 -0.7887  0.2433
   23MOL0     C 2986   6.469   9.759   7.848 -0.3977 -0.3720  0.1473
   23MOL0     N 2987   6.611   9.762   7.797  0.2326 -0.3517  0.1953
   23MOL0     C 2988   6.724   9.806   7.856  0.5910 -0.9975  0.0423
   23MOL0     C 2989   6.823   9.769   7.783 -1.1314  0.6397  0.1383
   23MOL0     C 2990   6.970   9.797   7.810 -0.2336 -0.1021 -0.3012
   23MOL0     C 2991   7.021   9.901   7.717 -0.7011  0.0028  0.1805
   23MOL0     C 2992   7.164   9.957   7.737  0.6799  0.9740 -0.2782
   23MOL0     C 2993   7.199  10.061   7.627 -0.4839  0.4755 -0.1290
   23MOL0     O 2994   7.319  10.134   7.662 -0.5754  0.2182 -0.7357
   23MOL0     C 2995   7.422  10.104   7.579  0.5611 -0.8022  0.4078
   23MOL0     C 2996   7.434  10.163   7.447  0.2217  0.0471 -1.4524
   23MOL0     C 2997   7.552  10.139   7.369  0.8520  0.0979  0.1037
   23MOL0     C 2998   7.653  10.041   7.408  0.2805 -0.4074  0.2906
   23MOL0     C 2999   7.768  10.017   7.315 -0.5892 -0.6783  0.1423
   23MOL0     O 3000   7.768  10.068   7.188 -0.0041  0.5851 -1.7420
   23MOL0     C 3001   7.884  10.095   7.121 -0.9837 -1.0971  0.0929
   23MOL0     C 3002   7.867  10.163   6.994  0.0648 -0.0972  0.9197
   23MOL0     C 3003   7.975  10.188   6.913  0.4726  0.1703 -0.3450
   23MOL0     C 3004   8.106  10.151   6.949 -0.5991 -0.3053  0.9444
   23MOL0     O 3005   8.212  10.144   6.849  0.3169 -0.2560  0.5546
   23MOL0     C 3006   8.202  10.240   6.739 -0.1969  0.2475  0.5848
   23MOL0     C 3007   8.338  10.251   6.680 -0.4754 -0.2706  0.6528
   23MOL0     C 3008   8.350  10.392   6.614  0.6033 -0.1209 -0.5268
   23MOL0     C 3009   8.492  10.407   6.563 -0.5477 -0.3404 -0.0134
   23MOL0     C 3010   8.520  10.500   6.443 -0.0725  0.0266  0.3384
   23MOL0     C 3011   8.445  10.466   6.311 -0.6954  1.0625 -0.2059
   23MOL0     C 3012   8.469  10.319   6.289 -0.2555 -0.2995 -0.0516
   23MOL0     C 3013   8.400  10.282   6.157  0.0418  0.1623 -0.5149
   23MOL0    Cl 3014   8.403  10.106   6.114  0.2752  0.0340 -0.0420
   23MOL0     C 3015   8.126  10.099   7.072  0.2669 -0.4045  0.8538
   23MOL0     C 3016   8.017  10.071   7.152 -0.4651  0.1490 -0.7749
   23MOL0     O 3017   7.861   9.947   7.361 -0.0128 -0.0677 -0.6695
   23MOL0     C 3018   7.630   9.991   7.541  0.2762 -0.7868  0.4961
   23MOL0     C 3019   7.521  10.017   7.621 -0.4077 -0.3226 -0.4719
   23MOL0     N 3020   6.778   9.700   7.674 -0.7527  0.5180  0.0344
   23MOL0     N 3021   6.652   9.696   7.682 -0.3833  0.0375 -0.3343
   23MOL0     C 3022   7.034   9.593   8.685  0.5960  0.5352 -0.0620
   23MOL0     C 3023   7.100   9.693   8.764 -0.7717  0.9609  1.1429
   23MOL0     C 3024   7.272   9.873   9.142 -0.1187 -0.5982 -0.0530
   23MOL0     C 3025   7.260  10.014   9.124 -0.2265  1.1352  0.1835
   23MOL0     C 3026   7.314  10.103   9.214  0.2891  0.3328  0.4717
   23MOL0     C 3027   7.375  10.057   9.333  0.1363  0.3168 -0.3758
   23MOL0     O 3028   7.425  10.147   9.421  0.4705  0.6933 -0.5718
   23MOL0     C 3029   7.474  10.106   9.552  0.0081  0.0390  0.3380
   23MOL0     C 3030   7.546  10.233   9.605  0.3055  0.0446 -0.6688
   23MOL0     C 3031   7.448  10.351   9.631 -0.3722  0.4418 -0.3606
   23MOL0     C 3032   7.535  10.463   9.690  0.2850  0.4721 -0.4317
   23MOL0     C 3033   7.446  10.576   9.730 -0.0993  0.6798  0.2157
   23MOL0     C 3034   7.378  10.671   9.760  0.4488  1.0123 -1.0850
   23MOL0     C 3035   7.382   9.916   9.352  0.5516  0.0695  0.5730
   23MOL0     C 3036   7.337   9.828   9.257  0.4409  0.1791 -0.4920
   23MOL0     C 3037   7.365   9.681   9.287  0.1852 -1.4038 -1.0571
   23MOL0     H 3038   6.871   9.714   9.010  1.3606 -1.8018  0.5925
   23MOL0     H 3039   6.741   9.588   8.879 -0.7598 -1.5874 -0.9966
   23MOL0     H 3040   6.624   9.484   8.628 -1.7717  0.2448 -2.1741
   23MOL0     H 3041   6.708   9.641   8.597  1.3463  1.1825 -3.6830
   23MOL0     H 3042   6.687   9.395   8.422  0.6664 -0.2845 -1.1907
   23MOL0     H 3043   6.778   9.532   8.379 -0.0133 -0.8093  0.5632
   23MOL0     H 3044   6.510   9.636   8.438 -3.7050 -0.0320 -2.8399
   23MOL0     H 3045   6.481   9.465   8.380  2.6716 -2.8102  0.9132
   23MOL0     H 3046   6.633   9.678   8.246  1.6732 -1.2961  1.8806
   23MOL0     H 3047   6.591   9.518   8.176 -1.0177 -1.2904  0.6398
   23MOL0     H 3048   6.348   9.574   8.206  1.6430 -2.7346  2.2626
   23MOL0     H 3049   6.391   9.717   8.303  1.8334 -0.0158  0.0470
   23MOL0     H 3050   6.334   9.809   8.098 -0.0652  0.7056  1.3039
   23MOL0     H 3051   6.502   9.832   8.115 -0.9593  1.0239 -1.0077
   23MOL0     H 3052   6.355   9.605   7.968  0.1799 -0.3485  1.4356
   23MOL0     H 3053   6.534   9.608   7.978 -0.5873 -2.4886  0.8914
   23MOL0     H 3054   6.400   9.736   7.766 -0.1581  0.5781 -0.3464
   23MOL0     H 3055   6.444   9.864   7.867  0.7656 -0.0852  0.1680
   23MOL0     H 3056   6.733   9.864   7.947  0.2305  1.1638 -1.2393
   23MOL0     H 3057   7.002   9.813   7.914 -0.1651  0.2537 -0.3769
   23MOL0     H 3058   7.006   9.696   7.788 -3.6531 -1.6730  0.6547
   23MOL0     H 3059   7.002   9.871   7.613 -0.6053  3.4496 -0.9525
   23MOL0     H 3060   6.946   9.977   7.742 -0.9174 -0.5027  1.0942
   23MOL0     H 3061   7.238   9.878   7.745 -1.9470 -1.4827  3.9788
   23MOL0     H 3062   7.152   9.999   7.838 -2.1699  1.3966 -0.7022
   23MOL0     H 3063   7.126  10.141   7.614 -2.0702 -1.1754 -2.0519
   23MOL0     H 3064   7.199  10.005   7.533  0.6163  0.7138 -0.2862
   23MOL0     H 3065   7.359  10.232   7.411  1.5019  1.5195 -1.4185
   23MOL0     H 3066   7.552  10.175   7.267 -0.3825 -0.5339 -0.1405
   23MOL0     H 3067   7.767  10.185   6.958  0.7529  0.2223 -0.8812
   23MOL0     H 3068   7.943  10.216   6.813  1.1024  0.3290 -0.5064
   23MOL0     H 3069   8.127  10.203   6.670  1.9794 -2.5590 -0.4827
   23MOL0     H 3070   8.166  10.326   6.797  1.8966 -1.0169  4.1282
   23MOL0     H 3071   8.411  10.245   6.762  0.9054 -4.5332 -0.6234
   23MOL0     H 3072   8.353  10.166   6.613  0.4139 -1.5711  2.3998
   23MOL0     H 3073   8.285  10.409   6.528 -0.9606 -1.0410  0.4249
   23MOL0     H 3074   8.316  10.464   6.689 -0.9555  1.1780 -2.3919
   23MOL0     H 3075   8.541  10.312   6.538 -0.0667  0.5282 -2.6276
   23MOL0     H 3076   8.556  10.443   6.644  2.0037 -0.4813 -1.8653
   23MOL0     H 3077   8.629  10.498   6.433  0.0508 -2.3599  1.5055
   23MOL0     H 3078   8.483  10.598   6.477 -3.6200 -0.3222 -1.9315
   23MOL0     H 3079   8.346  10.511   6.304 -1.0274  0.1560 -1.5682
   23MOL0     H 3080   8.493  10.519   6.228  2.0437  1.5824  1.5592
   23MOL0     H 3081   8.423  10.259   6.369  1.5715  0.1384  1.3986
   23MOL0     H 3082   8.572  10.286   6.273  0.1448 -0.5324  2.4759
   23MOL0     H 3083   8.294  10.303   6.176 -0.1023 -1.3572  0.5936
   23MOL0     H 3084   8.454  10.329   6.074  1.0764  0.9885  0.5965
   23MOL0     H 3085   8.226  10.064   7.094  0.7340  1.6691  2.3748
   23MOL0     H 3086   8.037  10.018   7.245  1.7273  1.9176 -0.1349
   23MOL0     H 3087   7.715   9.938   7.582  0.7081  0.9297  1.9536
   23MOL0     H 3088   7.525   9.979   7.723  0.7481  0.5979 -0.1534
   23MOL0     H 3089   7.064   9.564   8.585 -0.6349 -0.9963 -0.0352
   23MOL0     H 3090   7.192   9.736   8.724 -0.2432 -0.2463  1.0118
   23MOL0     H 3091   7.216  10.062   9.037 -1.9215  1.6596  1.2981
   23MOL0     H 3092   7.310  10.210   9.196  0.3202  0.0903 -1.1428
   23MOL0     H 3093   7.547  10.024   9.553 -1.5489 -1.4016  1.0091
   23MOL0     H 3094   7.390  10.071   9.613 -1.9517 -1.0158 -2.6987
   23MOL0     H 3095   7.626  10.261   9.536  1.8368  1.2634  1.4817
   23MOL0     H 3096   7.596  10.198   9.696 -0.0724  0.3038 -0.3580
   23MOL0     H 3097   7.364  10.318   9.693  2.3004 -1.4392  2.5813
   23MOL0     H 3098   7.400  10.387   9.540 -4.7075  3.0082  2.5931
   23MOL0     H 3099   7.586  10.414   9.773  1.1837  0.6268 -0.8886
   23MOL0     H 3100   7.617  10.497   9.627  0.4656 -0.7396 -0.8720
   23MOL0     H 3101   7.333  10.762   9.795 -0.2783  0.2428  0.0193
   23MOL0     H 3102   7.435   9.879   9.439 -0.4192 -1.7754  0.4457
   23MOL0     H 3103   7.447   9.637   9.231 -0.5367 -0.0595 -3.3177
   23MOL0     H 3104   7.378   9.663   9.394  1.0182 -1.3071 -1.1375
   23MOL0     H 3105   7.273   9.624   9.272  0.2594 -1.9934  0.4678
   24MOL0     O 3106   6.637   4.497   5.919 -0.5833 -0.6385 -0.4088
   24MOL0     C 3107   6.592   4.601   5.871  0.3911  0.0366  0.8508
   24MOL0     O 3108   6.671   4.715   5.844 -0.1211  0.2257  0.3519
   24MOL0     C 3109   6.804   4.703   5.847 -0.4002  0.0197 -0.2452
   24MOL0     C 3110   6.869   4.788   5.923 -0.3814  0.2098 -0.2985
   24MOL0     C 3111   7.004   4.784   5.957  0.6245 -0.0644  0.6495
   24MOL0     C 3112   7.086   4.689   5.897 -0.2549  0.3480 -0.4179
   24MOL0     O 3113   7.218   4.679   5.934  0.2513 -0.3627 -0.6497
   24MOL0     C 3114   7.280   4.545   5.923 -0.6496  0.2751  0.2206
   24MOL0     C 3115   7.422   4.549   5.975 -0.3439 -0.4865  0.0813
   24MOL0     C 3116   7.487   4.410   5.943  0.7466 -0.1891  0.3339
   24MOL0     C 3117   7.631   4.408   5.990  0.7615  1.6330 -0.4632
   24MOL0     C 3118   7.702   4.276   5.949  0.1786  0.5000  1.2850
   24MOL0     C 3119   7.856   4.289   5.971 -0.2528 -0.6816  0.3577
   24MOL0     C 3120   7.939   4.410   5.906  0.0673 -0.3223  0.7289
   24MOL0     C 3121   7.995   4.513   6.004 -0.4589 -0.1678  0.3755
   24MOL0     N 3122   8.056   4.451   6.125  1.0399  0.0640  0.7356
   24MOL0     C 3123   8.191   4.436   6.115  0.1494 -0.0666  0.2285
   24MOL0     C 3124   8.239   4.431   6.244  1.0742  0.5109 -0.2909
   24MOL0     C 3125   8.379   4.404   6.295 -0.5263  0.4579 -0.0248
   24MOL0     C 3126   8.492   4.451   6.200  0.3616 -0.2178  0.5058
   24MOL0     C 3127   8.638   4.409   6.242 -0.4771 -0.2435 -0.6730
   24MOL0     C 3128   8.743   4.428   6.133 -0.4118 -0.1245  0.6657
   24MOL0     O 3129   8.887   4.433   6.190 -0.4274  0.2357 -0.0645
   24MOL0     C 3130   8.991   4.441   6.104 -0.1782  0.3155 -0.0499
   24MOL0     C 3131   8.987   4.482   5.972  0.7912  0.4177  0.7264
   24MOL0     C 3132   9.101   4.478   5.886 -0.9860  0.6787 -0.3882
   24MOL0     C 3133   9.227   4.424   5.922 -0.5696 -0.3789 -0.5861
   24MOL0     C 3134   9.342   4.428   5.830  0.2971  0.3490  0.0532
   24MOL0     O 3135   9.450   4.363   5.873 -1.0723 -0.4516 -0.3211
   24MOL0     C 3136   9.577   4.373   5.806  0.5356 -0.1516 -1.3631
   24MOL0     C 3137   9.647   4.499   5.803  0.4080 -0.4949  0.1942
   24MOL0     C 3138   9.774   4.518   5.740  0.1214  0.2708  0.5228
   24MOL0     C 3139   9.836   4.414   5.668  0.4634  0.7343  0.1625
   24MOL0     O 3140   9.954   4.414   5.600 -0.7752  0.2471 -0.0482
   24MOL0     C 3141  10.019   4.550   5.587 -0.4869 -0.0709 -0.3141
   24MOL0     C 3142  10.127   4.550   5.469 -0.1882  0.0960 -0.7625
   24MOL0     C 3143  10.257   4.489   5.519 -0.9537  0.3336  0.4876
   24MOL0     C 3144  10.355   4.488   5.391  0.7455 -0.8054 -0.1689
   24MOL0     C 3145  10.494   4.440   5.435 -0.0419  0.2191 -0.8957
   24MOL0     C 3146  10.554   4.516   5.566 -1.0983  0.5106  0.2121
   24MOL0     C 3147  10.662   4.427   5.639  0.1891  0.2865 -0.6024
   24MOL0     C 3148  10.599   4.304   5.687  0.7084  0.6734 -0.9519
   24MOL0    Cl 3149  10.687   4.237   5.817  0.2032  0.4589 -0.0502
   24MOL0     C 3150   9.760   4.293   5.666  0.8178  0.0138  0.8847
   24MOL0     C 3151   9.634   4.271   5.733 -1.2534  0.2957  0.4845
   24MOL0     O 3152   9.325   4.468   5.713  0.2292  0.0499  0.4795
   24MOL0     C 3153   9.231   4.370   6.054  0.3041  0.0959 -0.1658
   24MOL0     C 3154   9.118   4.381   6.141 -0.0603 -0.2355  0.7021
   24MOL0     N 3155   8.128   4.441   6.329  0.7415  0.0180  0.3009
   24MOL0     N 3156   8.023   4.454   6.262 -0.1201 -0.8845 -0.0888
   24MOL0     C 3157   7.016   4.601   5.816 -0.6059  0.5434 -0.2169
   24MOL0     C 3158   6.880   4.603   5.796  0.8182  0.3592  0.5153
   24MOL0     C 3159   6.458   4.594   5.816 -0.3922  0.2070  0.1465
   24MOL0     C 3160   6.442   4.605   5.684  0.2250  0.6039  1.2420
   24MOL0     C 3161   6.318   4.575   5.619  0.1843  0.1073  0.5420
   24MOL0     C 3162   6.206   4.553   5.693 -0.5502  0.4378 -0.9449
   24MOL0     O 3163   6.090   4.520   5.631  0.1476 -0.2607 -0.2278
   24MOL0     C 3164   6.101   4.387   5.584 -1.0550  0.0595  0.6928
   24MOL0     C 3165   5.954   4.333   5.559  0.5326 -0.6103 -1.1486
   24MOL0     C 3166   5.864   4.362   5.684  0.0950 -0.3739  0.0423
   24MOL0     C 3167   5.722   4.321   5.674 -0.7663  0.8751 -0.2387
   24MOL0     C 3168   5.688   4.173   5.692  0.3695 -0.2277 -0.6994
   24MOL0     C 3169   5.660   4.059   5.693  0.3301 -0.3094 -0.3246
   24MOL0     C 3170   6.224   4.534   5.831  0.2493  0.3576 -0.3170
   24MOL0     C 3171   6.351   4.557   5.898  0.2265  0.0557 -0.7136
   24MOL0     C 3172   6.371   4.517   6.051  0.1155 -0.3311 -0.2823
   24MOL0     H 3173   6.808   4.867   5.966  1.1085  1.8995 -1.1455
   24MOL0     H 3174   7.043   4.855   6.030  0.1221  1.6405 -0.6916
   24MOL0     H 3175   7.217   4.475   5.979 -2.7200  1.2013 -0.8529
   24MOL0     H 3176   7.299   4.521   5.818  2.7820 -1.1261  1.0215
   24MOL0     H 3177   7.437   4.559   6.083 -1.5705  1.6068  0.1274
   24MOL0     H 3178   7.471   4.634   5.928 -0.3052 -1.3605 -1.5318
   24MOL0     H 3179   7.487   4.398   5.835 -0.8050 -1.2058  0.4163
   24MOL0     H 3180   7.429   4.328   5.988 -2.5981  0.6795 -2.0578
   24MOL0     H 3181   7.677   4.498   5.949  1.5065  1.8547  0.8294
   24MOL0     H 3182   7.631   4.391   6.098 -0.1371 -1.2166 -0.8075
   24MOL0     H 3183   7.669   4.196   6.017  0.1856 -0.1484  0.5446
   24MOL0     H 3184   7.685   4.253   5.843  1.9437 -1.7948  1.4251
   24MOL0     H 3185   7.872   4.286   6.079 -0.0344 -0.5558  0.3282
   24MOL0     H 3186   7.914   4.207   5.927  1.4850  0.2882  0.7533
   24MOL0     H 3187   7.889   4.464   5.825  0.0404  0.1305  1.0430
   24MOL0     H 3188   8.032   4.363   5.871  0.1348 -0.5679  1.2285
   24MOL0     H 3189   8.064   4.577   5.948 -1.5447  1.4663  0.8434
   24MOL0     H 3190   7.909   4.564   6.049  1.8160  0.6606  4.1187
   24MOL0     H 3191   8.261   4.439   6.032 -0.6183 -0.1667 -0.4363
   24MOL0     H 3192   8.406   4.455   6.388  2.6725  0.5385 -0.8949
   24MOL0     H 3193   8.385   4.296   6.310 -1.7679  0.2048 -1.1879
   24MOL0     H 3194   8.474   4.407   6.102  1.8857 -1.0366  0.5784
   24MOL0     H 3195   8.481   4.558   6.179 -0.1993 -0.2408  0.6649
   24MOL0     H 3196   8.645   4.302   6.266 -2.3708 -0.0951  0.7870
   24MOL0     H 3197   8.670   4.462   6.331 -3.1111 -1.2529  1.0023
   24MOL0     H 3198   8.706   4.522   6.091  0.4581 -1.3669 -3.2671
   24MOL0     H 3199   8.737   4.360   6.047 -0.0920  0.3039  0.3009
   24MOL0     H 3200   8.891   4.522   5.941 -0.0430 -0.6814  1.7928
   24MOL0     H 3201   9.083   4.514   5.786  0.2823  1.7483 -0.2667
   24MOL0     H 3202   9.592   4.574   5.858 -2.5683 -0.7354 -2.1903
   24MOL0     H 3203   9.841   4.603   5.750  1.8703 -1.1753  1.6369
   24MOL0     H 3204   9.948   4.623   5.547  0.4366  0.8725 -0.2823
   24MOL0     H 3205  10.038   4.585   5.688 -2.6634 -3.0127  1.2783
   24MOL0     H 3206  10.082   4.506   5.380 -2.1038  1.7136 -0.6764
   24MOL0     H 3207  10.147   4.653   5.440  1.3800 -0.0697 -0.3352
   24MOL0     H 3208  10.298   4.554   5.596  1.0077  1.3977 -1.3528
   24MOL0     H 3209  10.246   4.385   5.551  1.9636 -0.1511  0.1935
   24MOL0     H 3210  10.353   4.583   5.337 -2.8483 -2.4967 -3.5374
   24MOL0     H 3211  10.310   4.421   5.317 -0.0602 -0.8418  0.3497
   24MOL0     H 3212  10.574   4.438   5.360  3.7427  0.8010  2.7395
   24MOL0     H 3213  10.477   4.333   5.445 -2.7435  0.7081  0.6800
   24MOL0     H 3214  10.589   4.616   5.537 -1.6033  0.0545 -2.1999
   24MOL0     H 3215  10.479   4.546   5.640 -1.2719  0.4031  0.0802
   24MOL0     H 3216  10.696   4.486   5.725  5.4538  0.3064 -2.3426
   24MOL0     H 3217  10.753   4.402   5.584 -0.0927 -1.6410 -0.2580
   24MOL0     H 3218  10.497   4.326   5.722  0.0480 -1.1825 -1.5665
   24MOL0     H 3219  10.585   4.229   5.609 -2.9581  0.0875  0.0424
   24MOL0     H 3220   9.811   4.211   5.616  0.3811  0.2609  0.0192
   24MOL0     H 3221   9.584   4.174   5.724  1.5642 -1.0889 -1.8392
   24MOL0     H 3222   9.323   4.317   6.075 -0.2936 -2.6347 -3.4998
   24MOL0     H 3223   9.119   4.334   6.239 -0.1534  3.0763  2.4376
   24MOL0     H 3224   7.074   4.522   5.769 -1.5764  0.5313 -1.4357
   24MOL0     H 3225   6.836   4.545   5.715  0.9829  1.9342 -0.7360
   24MOL0     H 3226   6.521   4.630   5.614 -1.6092 -0.3159 -1.3363
   24MOL0     H 3227   6.311   4.574   5.511 -0.0317  0.6022  0.5452
   24MOL0     H 3228   6.155   4.328   5.657  0.0538  1.3529  0.9487
   24MOL0     H 3229   6.155   4.383   5.489 -0.2644  0.1245  1.1331
   24MOL0     H 3230   5.944   4.224   5.555  2.0850 -1.0532  2.8179
   24MOL0     H 3231   5.905   4.376   5.471  1.4368 -2.8055 -2.8037
   24MOL0     H 3232   5.868   4.470   5.702 -4.0981 -0.2445  1.3848
   24MOL0     H 3233   5.903   4.302   5.767  2.8407 -0.6312 -1.3384
   24MOL0     H 3234   5.665   4.375   5.750 -1.1534  0.7250 -0.4213
   24MOL0     H 3235   5.691   4.354   5.574 -0.0489  0.6794 -0.5360
   24MOL0     H 3236   5.641   3.953   5.696 -0.8413 -0.1000  0.5494
   24MOL0     H 3237   6.141   4.502   5.893  2.6998  0.2000  3.2290
   24MOL0     H 3238   6.407   4.414   6.055 -1.8765 -1.0765 -0.2869
   24MOL0     H 3239   6.439   4.586   6.102 -0.5041  0.1230 -0.0487
   24MOL0     H 3240   6.273   4.505   6.098  0.6406 -0.3964  0.8357
   25MOL0     O 3241  10.735   9.628   2.072 -0.4926  0.0508  0.9781
   25MOL0     C 3242  10.754   9.742   2.039 -0.0017 -0.2204 -0.1819
   25MOL0     O 3243  10.856   9.783   1.967  0.2944 -0.1088  0.2962
   25MOL0     C 3244  10.918   9.714   1.863  0.1793 -0.6185  0.8522
   25MOL0     C 3245  10.881   9.591   1.819 -0.4811  0.2847  0.8515
   25MOL0     C 3246  10.950   9.526   1.709 -0.4888  0.1455  0.9250
   25MOL0     C 3247  11.039   9.592   1.625 -0.0750 -0.5612  0.5013
   25MOL0     O 3248  11.093   9.523   1.529 -0.5106 -0.3265  0.6721
   25MOL0     C 3249  11.184   9.593   1.446  0.5364  0.2979 -0.0990
   25MOL0     C 3250  11.227   9.509   1.319 -0.4725 -0.8117 -0.1397
   25MOL0     C 3251  11.376   9.524   1.284  0.5850  0.1093  0.1108
   25MOL0     C 3252  11.419   9.417   1.180 -0.7426 -0.4723  0.2530
   25MOL0     C 3253  11.381   9.456   1.038  0.8850 -0.4259 -0.0598
   25MOL0     C 3254  11.401   9.335   0.941 -0.1902  0.3187 -0.2418
   25MOL0     C 3255  11.373   9.391   0.794  0.7222  0.6191 -0.2611
   25MOL0     C 3256  11.311   9.291   0.700 -0.0416 -1.1408  0.2685
   25MOL0     N 3257  11.394   9.163   0.693  0.5140  0.0333  0.5460
   25MOL0     C 3258  11.506   9.147   0.619 -0.3793 -0.2016 -0.1122
   25MOL0     C 3259  11.539   9.020   0.624 -0.5006 -0.2461 -0.4891
   25MOL0     C 3260  11.660   8.949   0.568  0.2721  0.3538  0.9348
   25MOL0     C 3261  11.787   8.958   0.642  0.6231  0.0991  0.8327
   25MOL0     C 3262  11.901   8.887   0.561 -0.0377  0.1755 -0.3877
   25MOL0     C 3263  12.024   8.924   0.633 -0.4188  0.7085  0.3727
   25MOL0     O 3264  12.063   9.063   0.619  0.0851 -0.1110  0.0760
   25MOL0     C 3265  12.196   9.097   0.635 -0.7289  0.4526  1.1399
   25MOL0     C 3266  12.305   9.008   0.658  0.6315 -0.0034  0.1415
   25MOL0     C 3267  12.433   9.059   0.665  0.2371 -0.9726 -0.5448
   25MOL0     C 3268  12.459   9.194   0.665 -0.2473  0.0163  0.2268
   25MOL0     C 3269  12.595   9.249   0.687 -0.5458  0.2725 -0.8615
   25MOL0     O 3270  12.603   9.375   0.721 -0.3613  0.2129 -0.0464
   25MOL0     C 3271  12.718   9.437   0.769 -0.4918  0.2684 -0.3175
   25MOL0     C 3272  12.715   9.483   0.906  0.0904 -1.2957 -1.2011
   25MOL0     C 3273  12.825   9.550   0.955 -0.2754  0.2706 -0.2686
   25MOL0     C 3274  12.936   9.589   0.885  0.6494 -0.4313  0.7992
   25MOL0     O 3275  13.024   9.687   0.925  0.3356  0.3997 -0.3963
   25MOL0     C 3276  13.006   9.759   1.053 -1.4863  0.4230  0.5060
   25MOL0     C 3277  13.138   9.836   1.065  0.1830  1.2379  0.0637
   25MOL0     C 3278  13.241   9.722   1.104  1.2657  0.6830  0.1748
   25MOL0     C 3279  13.385   9.774   1.097  0.5725  0.1738  0.1120
   25MOL0     C 3280  13.407   9.874   1.213 -0.2601  1.2305  0.2688
   25MOL0     C 3281  13.553   9.903   1.255 -0.0202  0.3464  0.0184
   25MOL0     C 3282  13.647   9.950   1.137  0.9614  0.1528  0.1538
   25MOL0     C 3283  13.636  10.107   1.122  0.6633  0.0640 -0.7482
   25MOL0    Cl 3284  13.796  10.174   1.037 -0.0125 -0.2399 -0.1277
   25MOL0     C 3285  12.940   9.560   0.744  0.9195  0.9012  0.1657
   25MOL0     C 3286  12.828   9.487   0.692  0.0155  0.5231  0.3197
   25MOL0     O 3287  12.690   9.172   0.669  0.4774 -0.9249  0.5757
   25MOL0     C 3288  12.359   9.282   0.640 -0.5210 -0.1368 -0.5373
   25MOL0     C 3289  12.226   9.231   0.621 -0.1504 -0.0611 -0.8544
   25MOL0     N 3290  11.442   8.955   0.689  0.9507  0.6224  0.7964
   25MOL0     N 3291  11.348   9.041   0.718 -0.2978 -0.2329 -0.3668
   25MOL0     C 3292  11.077   9.729   1.669 -0.8970 -0.1567 -0.5173
   25MOL0     C 3293  11.026   9.779   1.792 -0.0561 -0.7074  1.1626
   25MOL0     C 3294  10.674   9.856   2.105 -0.9996  1.0320  0.7113
   25MOL0     C 3295  10.727   9.983   2.101 -0.6103 -0.3468 -0.7132
   25MOL0     C 3296  10.661  10.095   2.164 -0.7899 -0.3233  0.3381
   25MOL0     C 3297  10.538  10.076   2.216  0.3508 -0.4544 -0.1841
   25MOL0     O 3298  10.473  10.189   2.250  0.6329 -0.2643  0.4542
   25MOL0     C 3299  10.344  10.167   2.308  0.8162 -0.5786 -0.2849
   25MOL0     C 3300  10.285  10.311   2.330 -0.8873 -1.0856  0.2004
   25MOL0     C 3301  10.345  10.380   2.451 -0.4463  0.1508  0.7564
   25MOL0     C 3302  10.298  10.521   2.490  0.0125  1.1254 -0.2070
   25MOL0     C 3303  10.392  10.612   2.552 -1.8826 -0.0228  0.4577
   25MOL0     C 3304  10.467  10.688   2.609  0.4034 -1.3735  0.1494
   25MOL0     C 3305  10.485   9.946   2.222  0.0496  0.3371  0.2944
   25MOL0     C 3306  10.550   9.830   2.158 -0.1613 -0.7800 -0.7584
   25MOL0     C 3307  10.475   9.701   2.145  0.1241 -0.0384  0.5655
   25MOL0     H 3308  10.811   9.524   1.867 -1.0717 -0.4007 -0.8862
   25MOL0     H 3309  10.919   9.429   1.673 -0.5552  0.1052  1.0910
   25MOL0     H 3310  11.140   9.683   1.403 -1.4313 -0.4510  0.2259
   25MOL0     H 3311  11.273   9.618   1.504 -1.0234  0.8032  2.2205
   25MOL0     H 3312  11.169   9.553   1.237  2.0452 -0.1861 -1.6876
   25MOL0     H 3313  11.197   9.405   1.331 -0.7705 -0.6995  0.1166
   25MOL0     H 3314  11.435   9.516   1.376 -2.0540  1.1097  2.0030
   25MOL0     H 3315  11.403   9.621   1.242  1.8359 -0.8968 -1.5206
   25MOL0     H 3316  11.528   9.403   1.189 -0.5743  0.7286  0.3021
   25MOL0     H 3317  11.366   9.326   1.209  0.1702 -1.3364 -0.7146
   25MOL0     H 3318  11.273   9.471   1.036  0.5878 -2.1280 -3.2160
   25MOL0     H 3319  11.424   9.551   1.006 -0.9081  0.8306  1.0239
   25MOL0     H 3320  11.506   9.305   0.942 -0.8228 -2.3985  3.3727
   25MOL0     H 3321  11.342   9.249   0.974  1.4398 -0.6486  0.2512
   25MOL0     H 3322  11.469   9.417   0.748 -1.0768  2.9664 -3.0925
   25MOL0     H 3323  11.320   9.487   0.788 -1.1569 -0.4569 -1.9585
   25MOL0     H 3324  11.210   9.260   0.730  0.0939 -0.5054  1.4641
   25MOL0     H 3325  11.293   9.337   0.603  2.5699 -0.0185  0.2294
   25MOL0     H 3326  11.562   9.225   0.570 -0.2050  3.2079  4.7557
   25MOL0     H 3327  11.631   8.845   0.552  2.0270 -0.1482  0.7866
   25MOL0     H 3328  11.685   9.001   0.475  0.1548  0.8139  1.1593
   25MOL0     H 3329  11.808   9.064   0.661  1.6229 -0.3801  2.5682
   25MOL0     H 3330  11.761   8.917   0.740 -2.4008  0.2849  0.2231
   25MOL0     H 3331  11.901   8.918   0.456  0.0170  0.2087 -0.3775
   25MOL0     H 3332  11.889   8.779   0.568 -4.3129  0.4156 -0.9148
   25MOL0     H 3333  12.105   8.861   0.594 -1.6240 -0.5161 -0.2640
   25MOL0     H 3334  12.011   8.911   0.741 -0.7590 -1.5156  0.1081
   25MOL0     H 3335  12.293   8.902   0.678 -1.7927 -0.6209 -3.5584
   25MOL0     H 3336  12.508   8.982   0.682  0.8949  0.2145  2.6897
   25MOL0     H 3337  12.626   9.465   0.965  0.0661  1.4119 -0.2365
   25MOL0     H 3338  12.816   9.585   1.058 -0.5087 -0.3740 -0.0600
   25MOL0     H 3339  12.914   9.818   1.048 -2.0268 -0.3926  0.7656
   25MOL0     H 3340  13.008   9.690   1.138  0.9773 -1.7461 -1.1687
   25MOL0     H 3341  13.157   9.893   0.973 -2.2290 -1.4132 -2.2595
   25MOL0     H 3342  13.140   9.916   1.140 -1.3530  1.5200 -0.1480
   25MOL0     H 3343  13.210   9.676   1.198 -1.8038  0.6051 -0.7819
   25MOL0     H 3344  13.231   9.642   1.030 -1.6088  2.2499 -1.2755
   25MOL0     H 3345  13.407   9.820   1.000  1.1484  0.3629  0.3295
   25MOL0     H 3346  13.439   9.680   1.110 -2.4162 -1.4095  2.3378
   25MOL0     H 3347  13.352   9.843   1.302 -1.5777  2.6831 -0.0016
   25MOL0     H 3348  13.345   9.963   1.198 -2.0703  0.2184  1.3610
   25MOL0     H 3349  13.556   9.965   1.345  0.7255 -2.7287  2.2635
   25MOL0     H 3350  13.604   9.814   1.292  2.5956  1.2370 -1.2139
   25MOL0     H 3351  13.619   9.897   1.046 -1.7141 -1.9808  2.0493
   25MOL0     H 3352  13.752   9.923   1.154  1.4835  0.5037 -2.1625
   25MOL0     H 3353  13.550  10.127   1.057 -1.8694 -0.4208  2.2249
   25MOL0     H 3354  13.613  10.145   1.222 -0.7896 -0.8339 -0.7148
   25MOL0     H 3355  13.010   9.595   0.669  0.2026 -0.6584 -1.2762
   25MOL0     H 3356  12.836   9.465   0.586 -1.5640  0.4089  0.2011
   25MOL0     H 3357  12.378   9.388   0.629 -1.2903 -0.0809 -1.4885
   25MOL0     H 3358  12.160   9.307   0.580  1.7208  0.7174 -2.6219
   25MOL0     H 3359  11.161   9.771   1.613  1.0164 -2.1285  0.7214
   25MOL0     H 3360  11.052   9.879   1.827 -1.0700 -0.0766  0.1883
   25MOL0     H 3361  10.827  10.000   2.061 -0.2223 -0.1394  0.3140
   25MOL0     H 3362  10.715  10.187   2.182 -0.9069 -0.5958  2.3081
   25MOL0     H 3363  10.338  10.104   2.397 -1.6346 -1.2234 -0.8416
   25MOL0     H 3364  10.274  10.120   2.238  0.8414  0.4625 -1.0420
   25MOL0     H 3365  10.176  10.303   2.328 -0.8070 -2.5204  0.3287
   25MOL0     H 3366  10.315  10.384   2.255  1.3308 -0.9843  1.1108
   25MOL0     H 3367  10.454  10.370   2.462 -0.6138 -0.7208  1.8912
   25MOL0     H 3368  10.312  10.327   2.541  3.2193 -0.2392  2.0657
   25MOL0     H 3369  10.261  10.573   2.401 -3.2322  0.3652  0.5633
   25MOL0     H 3370  10.217  10.515   2.563  1.9558  2.1279  2.1478
   25MOL0     H 3371  10.539  10.757   2.649 -1.4362  0.1267  1.0572
   25MOL0     H 3372  10.386   9.919   2.258  0.8820 -2.9754  0.4641
   25MOL0     H 3373  10.535   9.618   2.183  0.7573 -1.1626 -2.5634
   25MOL0     H 3374  10.384   9.705   2.206 -1.6376 -0.5971 -1.8472
   25MOL0     H 3375  10.453   9.679   2.040 -0.3166  0.4779  0.5443
   26MOL0     O 3376   9.202   9.760   3.248 -0.0639 -0.2393  0.1688
   26MOL0     C 3377   9.286   9.842   3.212 -0.0444  0.2099  0.6451
   26MOL0     O 3378   9.306   9.880   3.079  0.2920  0.1916 -0.1598
   26MOL0     C 3379   9.234   9.815   2.981 -0.0057  0.4052  0.5406
   26MOL0     C 3380   9.271   9.692   2.927  0.1463  0.4419  0.5910
   26MOL0     C 3381   9.215   9.634   2.811  0.2487  0.2467  0.3150
   26MOL0     C 3382   9.101   9.701   2.759  0.7905 -0.2088 -1.0072
   26MOL0     O 3383   9.035   9.656   2.648 -0.2721  0.3585  0.0624
   26MOL0     C 3384   9.073   9.531   2.588  0.9072 -0.1898 -0.1367
   26MOL0     C 3385   9.000   9.534   2.453  1.8321 -0.6738  0.4893
   26MOL0     C 3386   8.849   9.541   2.461  1.3638 -0.6325 -0.9624
   26MOL0     C 3387   8.792   9.402   2.506  0.1891  0.3334  0.3779
   26MOL0     C 3388   8.638   9.417   2.517 -0.4571  0.6070  0.2983
   26MOL0     C 3389   8.586   9.522   2.613 -0.1238 -0.0736 -0.2967
   26MOL0     C 3390   8.640   9.506   2.757  0.2050  0.3013  0.7063
   26MOL0     C 3391   8.579   9.600   2.854  0.5299 -0.6497 -0.8394
   26MOL0     N 3392   8.435   9.574   2.872  0.3667  1.0291  0.0943
   26MOL0     C 3393   8.366   9.489   2.956 -0.0635  0.4398  0.3821
   26MOL0     C 3394   8.234   9.509   2.925 -0.6733  0.3385  0.2531
   26MOL0     C 3395   8.114   9.428   2.974  0.0446  0.0676 -1.0643
   26MOL0     C 3396   8.038   9.489   3.102  0.4873 -0.2498 -0.1829
   26MOL0     C 3397   7.934   9.590   3.078  0.5232 -0.0866 -0.1247
   26MOL0     C 3398   7.835   9.603   3.187 -0.4092 -0.0147  0.9493
   26MOL0     O 3399   7.890   9.623   3.321 -0.0201  0.1994 -0.6161
   26MOL0     C 3400   7.972   9.719   3.353 -0.4932 -0.1666  0.1380
   26MOL0     C 3401   8.042   9.702   3.473 -0.0407  0.8073  0.7171
   26MOL0     C 3402   8.114   9.807   3.527 -0.2400 -0.1951  0.1510
   26MOL0     C 3403   8.136   9.926   3.456 -0.0221 -0.0151 -0.1067
   26MOL0     C 3404   8.225  10.026   3.517 -0.3660  0.1734 -0.3285
   26MOL0     O 3405   8.332   9.983   3.591  0.1317 -0.4056  0.2996
   26MOL0     C 3406   8.413  10.080   3.645 -0.9403  0.8989 -0.9491
   26MOL0     C 3407   8.514  10.144   3.577 -0.5425  0.4103 -0.4571
   26MOL0     C 3408   8.599  10.231   3.642 -0.4485 -0.3983 -0.6799
   26MOL0     C 3409   8.592  10.246   3.785 -0.7373 -0.9301  0.0648
   26MOL0     O 3410   8.691  10.330   3.840 -0.2564  0.8239 -0.6003
   26MOL0     C 3411   8.673  10.378   3.973 -0.6612  0.0113  0.3658
   26MOL0     C 3412   8.795  10.458   4.002  0.8039 -0.1036 -0.1892
   26MOL0     C 3413   8.816  10.485   4.149  0.4802 -0.3728  0.4884
   26MOL0     C 3414   8.954  10.529   4.188  0.9144 -0.4467  1.0280
   26MOL0     C 3415   8.961  10.565   4.334 -0.0095  0.6106  0.1439
   26MOL0     C 3416   9.102  10.596   4.379 -0.0835 -0.2436 -0.7608
   26MOL0     C 3417   9.141  10.551   4.520 -0.3916  0.1210 -0.0175
   26MOL0     C 3418   9.276  10.588   4.582 -1.1444 -0.5319 -1.0308
   26MOL0    Cl 3419   9.324  10.754   4.590  0.4593 -0.3764  0.0562
   26MOL0     C 3420   8.491  10.181   3.852  0.5277 -0.6813 -0.2264
   26MOL0     C 3421   8.405  10.106   3.790  0.4321  0.3592  0.5826
   26MOL0     O 3422   8.200  10.143   3.496 -0.0315 -0.1332  0.3508
   26MOL0     C 3423   8.074   9.940   3.338  0.1068 -0.7985  0.2944
   26MOL0     C 3424   7.992   9.839   3.285  0.0975 -0.2113  0.4499
   26MOL0     N 3425   8.222   9.613   2.832 -0.8465 -0.2451 -0.3587
   26MOL0     N 3426   8.344   9.646   2.798 -0.2615 -0.4203 -0.7791
   26MOL0     C 3427   9.046   9.818   2.824  0.1210  0.3519  0.8442
   26MOL0     C 3428   9.129   9.879   2.914  0.4948  0.0227 -0.6639
   26MOL0     C 3429   9.353   9.908   3.327  0.2535  0.3665  0.3008
   26MOL0     C 3430   9.298   9.902   3.450  0.5290 -0.0686  0.4472
   26MOL0     C 3431   9.356   9.959   3.568 -0.3598 -0.1802  1.3591
   26MOL0     C 3432   9.477  10.034   3.556  0.4712  0.0919 -0.2388
   26MOL0     O 3433   9.522  10.104   3.666 -0.8207  0.1872  0.6922
   26MOL0     C 3434   9.507  10.049   3.791 -0.4562  1.1080  0.2928
   26MOL0     C 3435   9.621  10.111   3.882  0.4639 -0.5074  0.4627
   26MOL0     C 3436   9.591  10.102   4.032  0.3071  0.3155  0.0606
   26MOL0     C 3437   9.681  10.178   4.125 -1.3321 -0.5374 -0.7754
   26MOL0     C 3438   9.823  10.133   4.120 -0.2662 -0.8354 -0.1191
   26MOL0     C 3439   9.934  10.112   4.094 -0.0359 -0.5391  0.3980
   26MOL0     C 3440   9.538  10.036   3.434 -0.1484 -0.1845  0.4535
   26MOL0     C 3441   9.481   9.979   3.320 -0.3292 -0.5007  0.1755
   26MOL0     C 3442   9.561   9.986   3.191  0.3297 -0.0855  0.1140
   26MOL0     H 3443   9.359   9.647   2.972 -0.0364 -1.1005 -0.5152
   26MOL0     H 3444   9.259   9.544   2.768  2.4888  0.4710  1.9358
   26MOL0     H 3445   9.181   9.520   2.573  1.2231 -0.1513  1.8180
   26MOL0     H 3446   9.035   9.446   2.645 -0.1408 -0.8650 -1.7794
   26MOL0     H 3447   9.023   9.436   2.410 -2.1828 -2.0619  1.0419
   26MOL0     H 3448   9.029   9.626   2.402 -2.3261  1.8061  2.1255
   26MOL0     H 3449   8.808   9.589   2.372  0.5954  1.2276  0.3460
   26MOL0     H 3450   8.828   9.614   2.539  0.0547  0.3824 -2.2231
   26MOL0     H 3451   8.817   9.340   2.419 -0.2396  1.2434 -0.4202
   26MOL0     H 3452   8.831   9.367   2.601 -0.7040  1.1299  1.0596
   26MOL0     H 3453   8.591   9.433   2.420 -2.8559 -2.7843  0.6891
   26MOL0     H 3454   8.593   9.321   2.545 -1.9438  0.9783 -0.6965
   26MOL0     H 3455   8.607   9.620   2.569  0.9903 -0.1883 -0.0429
   26MOL0     H 3456   8.477   9.516   2.616 -0.3194  1.6500 -1.9520
   26MOL0     H 3457   8.747   9.527   2.772  0.3907 -2.0526  3.6847
   26MOL0     H 3458   8.617   9.404   2.790 -1.4547  0.4229 -0.0129
   26MOL0     H 3459   8.625   9.601   2.954 -0.1676 -0.4733 -0.5098
   26MOL0     H 3460   8.597   9.701   2.819  1.5372 -0.0322  1.2475
   26MOL0     H 3461   8.408   9.410   3.017 -0.9523 -1.0539 -0.8872
   26MOL0     H 3462   8.050   9.408   2.887 -1.1924 -0.8763  0.0183
   26MOL0     H 3463   8.160   9.332   2.999  0.1328  0.4407  0.2544
   26MOL0     H 3464   7.976   9.407   3.138 -1.3453  0.4693 -1.5908
   26MOL0     H 3465   8.112   9.526   3.174 -1.0824  0.3208  1.1982
   26MOL0     H 3466   7.881   9.551   2.991  0.9529 -3.7458  1.0727
   26MOL0     H 3467   7.988   9.681   3.047  0.4798 -0.8220 -2.6060
   26MOL0     H 3468   7.776   9.512   3.188 -0.5249  0.0153 -0.4139
   26MOL0     H 3469   7.765   9.678   3.150 -2.8494 -3.7580 -2.9954
   26MOL0     H 3470   8.023   9.609   3.527  0.5521  1.0286  1.3276
   26MOL0     H 3471   8.166   9.789   3.621  0.7215  2.5555  0.2389
   26MOL0     H 3472   8.525  10.115   3.473  1.5856  1.4039 -0.5604
   26MOL0     H 3473   8.664  10.299   3.588 -0.8361 -0.3972 -1.1494
   26MOL0     H 3474   8.582  10.437   3.986 -0.3456  0.5347  0.2650
   26MOL0     H 3475   8.666  10.296   4.045 -1.5599  1.2696  1.7713
   26MOL0     H 3476   8.876  10.395   3.965  0.9720 -0.0545  0.0944
   26MOL0     H 3477   8.796  10.551   3.945  0.2816  1.1607  1.7530
   26MOL0     H 3478   8.732  10.547   4.183  0.8557 -0.6283  1.9318
   26MOL0     H 3479   8.802  10.394   4.207  3.2015 -0.2525  1.4719
   26MOL0     H 3480   8.994  10.618   4.139  4.2705 -3.8318 -3.2450
   26MOL0     H 3481   9.030  10.453   4.166  0.3995 -1.0766  1.3832
   26MOL0     H 3482   8.924  10.476   4.386 -0.6134  1.5872  1.4437
   26MOL0     H 3483   8.905  10.650   4.373 -0.1089 -0.5236  2.6861
   26MOL0     H 3484   9.168  10.561   4.299 -1.2849 -2.1965 -0.9733
   26MOL0     H 3485   9.115  10.704   4.378  0.4159 -0.2875 -2.3183
   26MOL0     H 3486   9.119  10.445   4.533 -1.9373  0.3715 -0.3120
   26MOL0     H 3487   9.070  10.605   4.583  0.2995 -0.2934  1.1418
   26MOL0     H 3488   9.286  10.557   4.686 -0.0017 -1.3254 -1.3478
   26MOL0     H 3489   9.361  10.545   4.527  0.5469  3.2426 -1.6999
   26MOL0     H 3490   8.468  10.183   3.958  1.8386  0.9366  0.0780
   26MOL0     H 3491   8.325  10.061   3.848 -0.6278  1.0308 -0.3085
   26MOL0     H 3492   8.092  10.029   3.279 -1.3253  0.8282  2.1672
   26MOL0     H 3493   7.934   9.845   3.193  0.9710 -3.9587 -0.5309
   26MOL0     H 3494   8.962   9.866   2.774  0.9994  2.8472  1.6114
   26MOL0     H 3495   9.100   9.981   2.940 -4.6531 -1.0640 -0.9783
   26MOL0     H 3496   9.204   9.852   3.471  0.6970 -0.7101 -0.2510
   26MOL0     H 3497   9.313   9.956   3.667  2.0215 -0.4420  2.4448
   26MOL0     H 3498   9.507   9.940   3.796  1.0129  1.1473  3.0002
   26MOL0     H 3499   9.414  10.085   3.836 -1.2541  1.4769 -1.5789
   26MOL0     H 3500   9.640  10.212   3.845 -0.3630 -1.4104 -2.7242
   26MOL0     H 3501   9.715  10.065   3.850 -0.2761 -0.1702 -2.4921
   26MOL0     H 3502   9.613   9.998   4.059 -1.9453 -0.6800 -1.5641
   26MOL0     H 3503   9.487  10.123   4.056  0.2599 -1.6856  1.8956
   26MOL0     H 3504   9.685  10.288   4.119  1.5181 -0.4738  0.7267
   26MOL0     H 3505   9.638  10.157   4.223 -1.6406 -0.3485 -0.8668
   26MOL0     H 3506  10.034  10.112   4.056  0.0031  0.3075  0.4652
   26MOL0     H 3507   9.640  10.073   3.430 -0.0200 -0.5501 -2.6671
   26MOL0     H 3508   9.599   9.890   3.155  3.2305  1.4992 -1.3717
   26MOL0     H 3509   9.490  10.022   3.116 -0.4406  1.4291  1.5047
   26MOL0     H 3510   9.641  10.059   3.201  1.5150 -1.1321 -1.3334
   27MOL0     O 3511   1.377   5.942   4.098 -0.4797  0.5802 -0.4312
   27MOL0     C 3512   1.349   5.979   3.983  0.3634 -0.2838  0.0364
   27MOL0     O 3513   1.379   5.912   3.872 -0.0369 -0.6256 -0.9961
   27MOL0     C 3514   1.435   5.782   3.880 -0.0013  0.6370 -0.5390
   27MOL0     C 3515   1.572   5.749   3.894 -0.8015 -0.2285 -0.1291
   27MOL0     C 3516   1.618   5.622   3.919  0.2260  0.2538 -0.1681
   27MOL0     C 3517   1.528   5.519   3.928 -1.1621  0.9416  0.2481
   27MOL0     O 3518   1.580   5.412   3.996 -0.2920  0.3572  0.0577
   27MOL0     C 3519   1.490   5.303   4.035 -0.7560 -0.5712  0.0561
   27MOL0     C 3520   1.583   5.197   4.108  0.3018 -0.1739  0.7465
   27MOL0     C 3521   1.502   5.063   4.120  1.1104 -0.2360 -0.6093
   27MOL0     C 3522   1.601   4.949   4.162 -0.7532 -0.2790  0.2114
   27MOL0     C 3523   1.693   4.901   4.044 -1.0159  0.8577 -0.4206
   27MOL0     C 3524   1.805   4.805   4.087  0.0038 -0.0413  0.4254
   27MOL0     C 3525   1.761   4.672   4.135 -0.2763  0.1688 -0.2957
   27MOL0     C 3526   1.865   4.574   4.167  0.1138  0.4624 -0.3064
   27MOL0     N 3527   1.963   4.549   4.060 -0.3022  0.7831  0.2361
   27MOL0     C 3528   1.942   4.462   3.958  0.1982  0.1952  0.2532
   27MOL0     C 3529   2.058   4.459   3.883  0.5899 -0.2031  0.4545
   27MOL0     C 3530   2.089   4.377   3.763  0.4802 -0.6107  0.7078
   27MOL0     C 3531   2.115   4.453   3.635  0.5801  0.2364  0.5978
   27MOL0     C 3532   1.989   4.515   3.570  1.0818  0.0901 -0.2051
   27MOL0     C 3533   2.033   4.622   3.462  1.0921  0.1881  0.2649
   27MOL0     O 3534   2.134   4.710   3.516 -0.0298  0.3790  0.0436
   27MOL0     C 3535   2.080   4.825   3.575 -0.4532  0.0246  0.6637
   27MOL0     C 3536   2.102   4.836   3.710  0.6559  0.5998 -0.3474
   27MOL0     C 3537   2.069   4.942   3.786 -1.0317 -0.5977 -0.9568
   27MOL0     C 3538   2.014   5.059   3.730 -0.6394 -0.1564 -0.5472
   27MOL0     C 3539   1.981   5.185   3.808 -0.8339  0.4132  0.1799
   27MOL0     O 3540   2.017   5.179   3.943  0.2709  1.0520  0.4893
   27MOL0     C 3541   1.994   5.275   4.044 -0.0296 -0.7065  0.6455
   27MOL0     C 3542   2.039   5.235   4.174 -0.1421  0.6654 -0.1788
   27MOL0     C 3543   2.027   5.323   4.284  0.2213 -0.0288 -0.5144
   27MOL0     C 3544   1.984   5.453   4.263  0.4288  0.0378 -0.1747
   27MOL0     O 3545   1.986   5.545   4.370 -0.8817  0.5813  0.4227
   27MOL0     C 3546   2.025   5.679   4.322  0.5140  0.1995  0.5671
   27MOL0     C 3547   2.086   5.757   4.441  0.4328 -0.4608 -1.3276
   27MOL0     C 3548   2.201   5.677   4.508 -0.7352 -0.0586  0.1648
   27MOL0     C 3549   2.344   5.736   4.487  0.2041  0.7538 -0.2493
   27MOL0     C 3550   2.446   5.652   4.574  0.2384  0.3197 -0.2909
   27MOL0     C 3551   2.592   5.701   4.552  0.2562  0.8070  0.4142
   27MOL0     C 3552   2.680   5.635   4.650 -0.5875 -0.4779 -0.9256
   27MOL0     C 3553   2.828   5.668   4.637  0.9102 -0.1641 -0.2646
   27MOL0    Cl 3554   2.931   5.533   4.683 -0.1491 -0.3644  0.4426
   27MOL0     C 3555   1.938   5.485   4.133  0.0237  0.4984  1.0430
   27MOL0     C 3556   1.946   5.402   4.030  0.2639 -0.0920 -0.5325
   27MOL0     O 3557   1.939   5.279   3.752  0.4482  0.0110 -0.5561
   27MOL0     C 3558   1.994   5.047   3.591 -0.1699  0.9893  0.4504
   27MOL0     C 3559   2.022   4.932   3.510  0.4484  0.6890  0.1437
   27MOL0     N 3560   2.138   4.559   3.934  0.1695  0.2063 -0.8381
   27MOL0     N 3561   2.087   4.602   4.045 -0.3075  0.5875 -0.4379
   27MOL0     C 3562   1.396   5.531   3.909  0.3807 -0.4734  0.0088
   27MOL0     C 3563   1.354   5.663   3.891 -0.5026  0.2914  0.3957
   27MOL0     C 3564   1.295   6.110   3.971  0.1376 -0.7224  0.1184
   27MOL0     C 3565   1.282   6.162   3.844 -0.3044  0.4320  0.0031
   27MOL0     C 3566   1.226   6.284   3.822  0.4126  0.7138  0.2512
   27MOL0     C 3567   1.162   6.357   3.924  1.3752 -0.5825 -0.5876
   27MOL0     O 3568   1.087   6.468   3.887  0.2055 -0.2351  0.1800
   27MOL0     C 3569   1.074   6.575   3.981  0.8375  0.2893  0.1028
   27MOL0     C 3570   0.988   6.686   3.929  0.1639 -0.8136  0.1046
   27MOL0     C 3571   0.840   6.650   3.933 -0.3204  0.8522  0.2172
   27MOL0     C 3572   0.756   6.756   3.859 -0.9777  1.1894 -0.0503
   27MOL0     C 3573   0.612   6.738   3.875 -0.2743  0.0875 -0.5435
   27MOL0     C 3574   0.492   6.726   3.899 -1.2683  0.4887  0.1766
   27MOL0     C 3575   1.172   6.302   4.057 -0.0670  0.0550  0.0104
   27MOL0     C 3576   1.246   6.183   4.084 -0.3535  0.3412  0.2636
   27MOL0     C 3577   1.266   6.144   4.229  1.4357  0.0135  0.0541
   27MOL0     H 3578   1.660   5.812   3.890 -0.8555 -0.1275  0.2379
   27MOL0     H 3579   1.721   5.601   3.945 -1.1208 -5.5938  1.8872
   27MOL0     H 3580   1.410   5.341   4.100 -1.7952 -2.7671  0.1652
   27MOL0     H 3581   1.444   5.268   3.942 -0.4346  0.1770 -0.3930
   27MOL0     H 3582   1.624   5.239   4.200  1.7497 -1.0061  0.5108
   27MOL0     H 3583   1.670   5.171   4.047  1.9084 -0.6336  3.0818
   27MOL0     H 3584   1.451   5.052   4.024  2.7936  2.5723 -1.9495
   27MOL0     H 3585   1.425   5.080   4.196  0.9971  1.2100 -1.0175
   27MOL0     H 3586   1.667   4.984   4.242  0.0484 -0.6461 -0.2840
   27MOL0     H 3587   1.547   4.863   4.203 -3.1300  1.2767  0.5371
   27MOL0     H 3588   1.638   4.857   3.961  0.7094 -3.5225  0.5176
   27MOL0     H 3589   1.740   4.995   4.013 -0.8158  0.9481  0.1362
   27MOL0     H 3590   1.870   4.786   4.000 -0.2025  0.0895  0.2400
   27MOL0     H 3591   1.864   4.852   4.166  0.9558 -0.5771  0.0503
   27MOL0     H 3592   1.689   4.627   4.065  0.0204 -1.2977  0.2973
   27MOL0     H 3593   1.718   4.692   4.233  0.8541  4.7373 -0.4929
   27MOL0     H 3594   1.917   4.611   4.256 -1.4662  5.2626 -1.0447
   27MOL0     H 3595   1.818   4.478   4.189 -0.4098  0.9549  0.7618
   27MOL0     H 3596   1.854   4.403   3.934  0.1118  0.4027  0.0624
   27MOL0     H 3597   2.185   4.335   3.795  0.9312  0.5641  0.9701
   27MOL0     H 3598   2.003   4.312   3.747 -0.8356  1.1266  0.4427
   27MOL0     H 3599   2.196   4.523   3.658  0.0134  1.0977  0.0192
   27MOL0     H 3600   2.150   4.382   3.560 -0.6648  0.1152  0.0951
   27MOL0     H 3601   1.935   4.561   3.654  0.7645  0.0942 -0.4069
   27MOL0     H 3602   1.921   4.439   3.530 -0.7715  1.1468  0.8043
   27MOL0     H 3603   1.951   4.681   3.420  0.9657 -1.6269 -2.2209
   27MOL0     H 3604   2.079   4.571   3.377  2.2054 -2.2620  2.2310
   27MOL0     H 3605   2.146   4.745   3.751 -2.4121 -2.0521 -2.4682
   27MOL0     H 3606   2.081   4.938   3.894 -1.2847  2.9464 -0.6899
   27MOL0     H 3607   2.090   5.141   4.196 -0.3649  0.5440 -0.1752
   27MOL0     H 3608   2.065   5.307   4.385  0.1208  0.0029 -0.4714
   27MOL0     H 3609   2.102   5.671   4.245  1.8531  3.2966  1.4297
   27MOL0     H 3610   1.936   5.731   4.285  1.2367  0.6675 -0.5831
   27MOL0     H 3611   2.115   5.860   4.420  1.5015 -0.1192  1.4165
   27MOL0     H 3612   2.003   5.770   4.512  1.1583  0.7624 -0.6673
   27MOL0     H 3613   2.190   5.682   4.617  1.6310 -1.9860  0.5820
   27MOL0     H 3614   2.196   5.569   4.487 -0.2454 -0.1940  0.7148
   27MOL0     H 3615   2.350   5.844   4.504 -1.7498  1.3045 -2.4811
   27MOL0     H 3616   2.376   5.730   4.382  1.1210  1.1424 -0.0092
   27MOL0     H 3617   2.432   5.546   4.552 -4.6258  0.3419  1.5371
   27MOL0     H 3618   2.414   5.642   4.678 -0.1911 -0.6884 -0.5057
   27MOL0     H 3619   2.621   5.677   4.450 -0.1631  0.5073  0.3649
   27MOL0     H 3620   2.595   5.808   4.574  1.5708  0.9054 -0.1617
   27MOL0     H 3621   2.672   5.527   4.633  2.4516 -1.1609  1.2491
   27MOL0     H 3622   2.647   5.648   4.753  1.4260  2.5034 -0.5660
   27MOL0     H 3623   2.851   5.701   4.535  4.9713  0.5627  0.7107
   27MOL0     H 3624   2.834   5.761   4.694 -3.3036  0.4345 -0.4754
   27MOL0     H 3625   1.893   5.580   4.109 -2.1909 -1.0034 -1.2005
   27MOL0     H 3626   1.899   5.443   3.941 -1.4380 -0.1639  0.2882
   27MOL0     H 3627   1.948   5.127   3.535  1.6454 -0.0055 -2.7602
   27MOL0     H 3628   2.009   4.921   3.403 -2.1788 -0.2702  0.4821
   27MOL0     H 3629   1.322   5.452   3.905 -1.4913  1.2422 -1.7867
   27MOL0     H 3630   1.247   5.681   3.882 -0.4014  1.1452  0.7909
   27MOL0     H 3631   1.322   6.123   3.752 -0.7036 -2.8826  1.1203
   27MOL0     H 3632   1.214   6.342   3.731 -2.1597  2.0149  1.2762
   27MOL0     H 3633   1.176   6.611   3.997  1.1163  0.4900 -1.9138
   27MOL0     H 3634   1.038   6.535   4.076 -0.2194  1.6630  0.3062
   27MOL0     H 3635   1.014   6.714   3.826 -0.8821 -0.9506 -0.2081
   27MOL0     H 3636   1.007   6.777   3.986 -1.1184 -0.9548  0.7914
   27MOL0     H 3637   0.813   6.637   4.038 -1.5434  0.5327 -0.1194
   27MOL0     H 3638   0.817   6.555   3.883  1.9930 -0.1814  0.9491
   27MOL0     H 3639   0.787   6.853   3.900 -3.2874  1.5549  0.9711
   27MOL0     H 3640   0.777   6.747   3.752  1.8614 -2.1742  0.5928
   27MOL0     H 3641   0.390   6.722   3.931 -1.5405  0.2843 -0.6807
   27MOL0     H 3642   1.115   6.349   4.136 -0.2383 -1.1537  0.6349
   27MOL0     H 3643   1.223   6.223   4.293  1.4768 -0.3786  0.5708
   27MOL0     H 3644   1.217   6.049   4.250  0.9180  0.3311  0.3130
   27MOL0     H 3645   1.370   6.133   4.262  1.6976 -1.0483 -1.0783
   28MOL0     O 3646   0.709   8.449   0.029 -0.2895 -0.0093  0.4344
   28MOL0     C 3647   0.800   8.496  -0.044 -0.8935 -0.1488 -0.3706
   28MOL0     O 3648   0.785   8.533  -0.173  0.0502 -0.2622  0.6894
   28MOL0     C 3649   0.669   8.499  -0.234  0.6413 -0.0511 -0.5319
   28MOL0     C 3650   0.576   8.597  -0.268  0.5536  0.7009 -0.1902
   28MOL0     C 3651   0.447   8.557  -0.317  0.3417 -0.3688  1.0306
   28MOL0     C 3652   0.410   8.430  -0.343  0.5911 -0.7780 -0.4359
   28MOL0     O 3653   0.290   8.375  -0.393 -0.4945  0.0763  0.8974
   28MOL0     C 3654   0.167   8.452  -0.381 -0.3895  0.0054 -0.3383
   28MOL0     C 3655   0.052   8.380  -0.441  0.0044 -0.6514  0.3251
   28MOL0     C 3656  -0.065   8.483  -0.432 -0.4154  0.0822  0.0319
   28MOL0     C 3657  -0.155   8.498  -0.554 -0.3260  0.3374 -0.4561
   28MOL0     C 3658  -0.256   8.618  -0.540  0.0138  0.4017 -0.0848
   28MOL0     C 3659  -0.393   8.584  -0.463 -0.4880  1.4646 -0.5118
   28MOL0     C 3660  -0.505   8.539  -0.551  0.0699 -0.9973 -0.4673
   28MOL0     C 3661  -0.638   8.612  -0.521 -0.3114 -0.4537 -0.1031
   28MOL0     N 3662  -0.697   8.582  -0.393  0.1195 -0.2509  0.0883
   28MOL0     C 3663  -0.753   8.455  -0.360  0.0613 -0.2755 -0.6843
   28MOL0     C 3664  -0.803   8.488  -0.234  0.1002 -0.4105  0.2272
   28MOL0     C 3665  -0.868   8.386  -0.142 -0.2187 -0.0611 -0.6091
   28MOL0     C 3666  -0.958   8.446  -0.037 -0.7202  0.2991 -0.1997
   28MOL0     C 3667  -1.087   8.482  -0.114  0.4515  0.1198  0.6244
   28MOL0     C 3668  -1.206   8.525  -0.033 -0.0252 -0.7846 -0.3398
   28MOL0     O 3669  -1.159   8.586   0.089  0.4455  0.1971 -0.0428
   28MOL0     C 3670  -1.243   8.630   0.189  0.8789  0.0284  0.7578
   28MOL0     C 3671  -1.381   8.598   0.191  0.3810 -0.1360  1.0757
   28MOL0     C 3672  -1.455   8.639   0.300  0.0083  0.2959  0.2278
   28MOL0     C 3673  -1.391   8.703   0.410  0.4896  0.3502  0.3455
   28MOL0     C 3674  -1.464   8.743   0.534 -0.6713  0.5339 -0.5402
   28MOL0     O 3675  -1.603   8.710   0.537  0.0701  0.1614 -0.9153
   28MOL0     C 3676  -1.671   8.735   0.659 -1.2063 -0.5365 -0.1468
   28MOL0     C 3677  -1.697   8.636   0.756  0.3485  0.5039 -0.1492
   28MOL0     C 3678  -1.766   8.648   0.871  0.2293  0.9188 -0.1434
   28MOL0     C 3679  -1.825   8.770   0.903 -0.8875 -0.2317 -0.4060
   28MOL0     O 3680  -1.879   8.810   1.026 -0.0280 -0.1650  0.0965
   28MOL0     C 3681  -1.866   8.717   1.137  0.5412 -0.4209  0.5409
   28MOL0     C 3682  -1.813   8.797   1.260  0.0887  0.3518  0.1481
   28MOL0     C 3683  -1.660   8.817   1.259  0.8702 -0.5263  0.4991
   28MOL0     C 3684  -1.594   8.855   1.391 -0.3372 -0.2875  0.2067
   28MOL0     C 3685  -1.638   8.992   1.429  0.5705 -0.4587  0.3166
   28MOL0     C 3686  -1.752   8.985   1.540 -0.3885  0.3704 -0.1082
   28MOL0     C 3687  -1.727   9.077   1.652  0.2586 -0.3458 -0.8555
   28MOL0     C 3688  -1.831   9.091   1.756 -0.5723 -0.7292 -0.1815
   28MOL0    Cl 3689  -1.995   9.113   1.670 -0.0202  0.2457  0.2800
   28MOL0     C 3690  -1.816   8.867   0.804 -0.3099 -0.3904  0.6277
   28MOL0     C 3691  -1.749   8.854   0.681  0.4741  0.2354 -1.1360
   28MOL0     O 3692  -1.395   8.791   0.626  0.7981  0.5573  0.5599
   28MOL0     C 3693  -1.258   8.742   0.397 -0.5506 -0.6542  0.4998
   28MOL0     C 3694  -1.192   8.699   0.292 -0.1512 -0.1044 -0.0379
   28MOL0     N 3695  -0.768   8.617  -0.206  0.5206 -0.3708 -0.1104
   28MOL0     N 3696  -0.713   8.680  -0.294 -0.6298  1.0795  1.0736
   28MOL0     C 3697   0.505   8.333  -0.321 -0.4953  0.3261  0.4846
   28MOL0     C 3698   0.636   8.365  -0.264  0.3279 -0.0254 -0.7555
   28MOL0     C 3699   0.940   8.467   0.006 -0.7716 -0.6985 -0.5120
   28MOL0     C 3700   1.043   8.485  -0.085  0.0555 -0.2352 -0.0373
   28MOL0     C 3701   1.175   8.459  -0.052 -0.1554  0.6340  0.0657
   28MOL0     C 3702   1.204   8.396   0.062  0.6384  0.3786 -0.7429
   28MOL0     O 3703   1.336   8.364   0.082 -0.5465 -0.2220  0.0017
   28MOL0     C 3704   1.376   8.304   0.203 -0.3282 -0.0200  0.3845
   28MOL0     C 3705   1.502   8.232   0.165  0.4441 -0.1772  0.3344
   28MOL0     C 3706   1.474   8.085   0.104 -0.0656 -0.3451  0.5439
   28MOL0     C 3707   1.487   8.089  -0.045  0.9036 -0.6305  0.5735
   28MOL0     C 3708   1.525   7.950  -0.100  0.1755  0.3928 -0.5816
   28MOL0     C 3709   1.569   7.849  -0.143  0.2647 -0.5103 -0.5423
   28MOL0     C 3710   1.110   8.375   0.164  0.5262 -0.7357  0.0670
   28MOL0     C 3711   0.975   8.407   0.131 -1.1337 -0.5636 -0.0369
   28MOL0     C 3712   0.882   8.364   0.239  0.7039 -0.1497  0.4445
   28MOL0     H 3713   0.584   8.703  -0.245  2.7477  0.7217 -0.8537
   28MOL0     H 3714   0.378   8.639  -0.339 -1.4002 -1.7832  1.0023
   28MOL0     H 3715   0.142   8.470  -0.276  1.5707 -2.8060  0.7283
   28MOL0     H 3716   0.195   8.548  -0.424  0.1548 -0.0771 -0.1745
   28MOL0     H 3717   0.015   8.286  -0.398 -1.2584 -0.2403  0.1732
   28MOL0     H 3718   0.081   8.360  -0.545 -1.8631 -1.8523 -0.0076
   28MOL0     H 3719  -0.025   8.583  -0.415  0.7040 -0.2909 -0.3207
   28MOL0     H 3720  -0.118   8.455  -0.341  0.3873  0.9493  0.7796
   28MOL0     H 3721  -0.080   8.506  -0.633  1.8799 -3.3458  1.0048
   28MOL0     H 3722  -0.210   8.408  -0.581 -0.5678  0.5931 -0.8285
   28MOL0     H 3723  -0.212   8.699  -0.481  2.3484 -2.5202  2.4911
   28MOL0     H 3724  -0.271   8.662  -0.639  2.0270  4.1528  1.0774
   28MOL0     H 3725  -0.382   8.509  -0.385 -0.4137 -1.7910 -3.4073
   28MOL0     H 3726  -0.418   8.677  -0.411 -2.5208  0.7259 -0.1086
   28MOL0     H 3727  -0.507   8.433  -0.524  2.6724 -1.4822 -1.7961
   28MOL0     H 3728  -0.487   8.545  -0.659  0.9475 -3.3163 -0.5200
   28MOL0     H 3729  -0.607   8.717  -0.526 -0.8495 -0.2630  0.4933
   28MOL0     H 3730  -0.710   8.601  -0.602 -1.7369 -1.3916  1.2522
   28MOL0     H 3731  -0.762   8.369  -0.425  1.6836 -0.1015 -1.1754
   28MOL0     H 3732  -0.919   8.312  -0.205  1.3532 -2.9137  1.2367
   28MOL0     H 3733  -0.795   8.324  -0.089 -1.0370 -0.7569 -0.2739
   28MOL0     H 3734  -0.970   8.367   0.038  0.4671 -1.7535 -2.0654
   28MOL0     H 3735  -0.914   8.538   0.005  3.6162  0.2033 -3.8436
   28MOL0     H 3736  -1.109   8.384  -0.159  0.7510  0.6366 -0.6812
   28MOL0     H 3737  -1.064   8.552  -0.194  0.5734 -1.8364 -1.1271
   28MOL0     H 3738  -1.267   8.445   0.011 -1.9797  2.1823  2.9816
   28MOL0     H 3739  -1.270   8.595  -0.088 -1.3421  0.2469  2.3172
   28MOL0     H 3740  -1.437   8.554   0.109 -1.9123  1.3633  1.7339
   28MOL0     H 3741  -1.562   8.620   0.304 -0.3492  1.1611 -2.6569
   28MOL0     H 3742  -1.661   8.537   0.733  0.7756  0.9112 -1.2900
   28MOL0     H 3743  -1.778   8.552   0.920  1.7189  0.5538 -0.4350
   28MOL0     H 3744  -1.968   8.688   1.166  0.4057  0.6723  1.1998
   28MOL0     H 3745  -1.812   8.623   1.121  0.7196 -0.1533 -0.5116
   28MOL0     H 3746  -1.872   8.889   1.271 -2.2880 -1.2803  1.7849
   28MOL0     H 3747  -1.834   8.733   1.345 -0.1290 -0.7947 -0.7437
   28MOL0     H 3748  -1.617   8.726   1.215  1.8427 -0.5901  1.5289
   28MOL0     H 3749  -1.637   8.888   1.179  2.0461  0.0084  1.2950
   28MOL0     H 3750  -1.485   8.850   1.386 -0.4200 -4.1200 -2.4884
   28MOL0     H 3751  -1.617   8.778   1.465  0.1182 -0.9985 -0.3714
   28MOL0     H 3752  -1.674   9.050   1.344  2.0715  1.2655  0.8104
   28MOL0     H 3753  -1.553   9.049   1.467  0.0213 -0.1990  1.2077
   28MOL0     H 3754  -1.853   9.009   1.505 -0.5079  1.6853  1.0440
   28MOL0     H 3755  -1.750   8.885   1.585  3.8579 -0.7316 -2.2741
   28MOL0     H 3756  -1.690   9.175   1.622  0.7496  1.0292  3.4990
   28MOL0     H 3757  -1.636   9.044   1.703  0.4689  1.4075 -0.0148
   28MOL0     H 3758  -1.832   9.014   1.834 -2.9482  1.9424  2.6668
   28MOL0     H 3759  -1.801   9.179   1.813  1.9197 -0.6380 -1.5077
   28MOL0     H 3760  -1.857   8.966   0.820  2.7759  1.5078 -1.8817
   28MOL0     H 3761  -1.759   8.937   0.611 -1.3411  0.6899 -0.3999
   28MOL0     H 3762  -1.192   8.810   0.450 -1.9728  2.8761 -1.8258
   28MOL0     H 3763  -1.085   8.711   0.297 -0.2533  0.7096  0.4425
   28MOL0     H 3764   0.473   8.234  -0.351 -0.2251  0.4144 -0.1041
   28MOL0     H 3765   0.699   8.280  -0.239 -1.3368 -0.4438  2.4100
   28MOL0     H 3766   1.016   8.509  -0.188 -0.4885 -1.8770 -0.3160
   28MOL0     H 3767   1.250   8.464  -0.131 -3.2688 -2.5667 -3.5376
   28MOL0     H 3768   1.304   8.232   0.244  1.1469 -2.9805 -1.8004
   28MOL0     H 3769   1.401   8.377   0.280 -1.0653 -1.8097  2.4148
   28MOL0     H 3770   1.575   8.212   0.243  2.1699 -3.8064 -1.9255
   28MOL0     H 3771   1.561   8.299   0.101  2.6348 -2.9059 -0.7225
   28MOL0     H 3772   1.377   8.050   0.140  2.5690 -4.1815  5.1466
   28MOL0     H 3773   1.547   8.013   0.141 -0.9456 -0.2200  2.6670
   28MOL0     H 3774   1.393   8.121  -0.089 -1.4842 -3.0727  3.4408
   28MOL0     H 3775   1.564   8.160  -0.077 -0.6309  1.1408  0.6225
   28MOL0     H 3776   1.630   7.767  -0.175  2.4276  0.2703  1.3281
   28MOL0     H 3777   1.127   8.343   0.266  3.1147 -0.5371 -0.2455
   28MOL0     H 3778   0.815   8.290   0.194 -0.7609 -0.1546  2.4504
   28MOL0     H 3779   0.929   8.330   0.332  0.5174  2.6104  1.6651
   28MOL0     H 3780   0.806   8.440   0.261 -1.5942 -1.4329 -2.4044
   29MOL0     O 3781   4.670   6.807   5.235  0.0041  0.0836 -0.7451
   29MOL0     C 3782   4.671   6.747   5.127 -0.0620 -0.6882 -0.1412
   29MOL0     O 3783   4.780   6.744   5.040  0.0312 -0.2343  0.7093
   29MOL0     C 3784   4.895   6.818   5.048  0.1781  0.8484  0.2254
   29MOL0     C 3785   4.943   6.879   5.167  0.3089 -0.5151  0.3202
   29MOL0     C 3786   5.079   6.926   5.163  0.0653  0.2006 -0.3745
   29MOL0     C 3787   5.161   6.909   5.051  0.6392 -0.5021  0.9681
   29MOL0     O 3788   5.289   6.955   5.044  0.5861  0.3544 -0.2127
   29MOL0     C 3789   5.350   7.004   5.166 -0.4381  0.9164  0.0392
   29MOL0     C 3790   5.500   6.994   5.151 -0.6235  0.5018 -0.4419
   29MOL0     C 3791   5.571   6.863   5.175 -0.0478  0.4812  0.6775
   29MOL0     C 3792   5.642   6.807   5.051  1.1429  0.1336 -0.0381
   29MOL0     C 3793   5.709   6.668   5.081 -0.0950 -0.5123  0.0967
   29MOL0     C 3794   5.824   6.688   5.182 -0.6426  0.4915 -0.6771
   29MOL0     C 3795   5.891   6.557   5.230 -0.8469  0.2815 -0.1654
   29MOL0     C 3796   5.992   6.585   5.341 -0.5698 -0.0508 -0.4340
   29MOL0     N 3797   6.075   6.467   5.368  0.8449  0.3054 -0.0249
   29MOL0     C 3798   6.076   6.406   5.490 -0.8316 -0.5657  0.0423
   29MOL0     C 3799   6.196   6.336   5.493  0.1268  0.7290  0.5886
   29MOL0     C 3800   6.266   6.278   5.613  0.1010  0.7843  0.4112
   29MOL0     C 3801   6.339   6.141   5.599  0.4912  0.3577 -0.6687
   29MOL0     C 3802   6.442   6.110   5.708  0.8043 -0.7320 -0.0972
   29MOL0     C 3803   6.570   6.187   5.713  0.1037  0.7116 -0.2477
   29MOL0     O 3804   6.643   6.193   5.589 -0.2288 -0.3504  0.1401
   29MOL0     C 3805   6.775   6.188   5.574 -0.1887  0.6267 -0.7284
   29MOL0     C 3806   6.831   6.219   5.448  0.7350 -1.0903 -0.0062
   29MOL0     C 3807   6.963   6.218   5.423  0.3439 -0.2041 -0.1788
   29MOL0     C 3808   7.057   6.180   5.523  1.0569 -0.2448  0.5351
   29MOL0     C 3809   7.198   6.162   5.477  0.1394  0.5508 -0.5149
   29MOL0     O 3810   7.277   6.093   5.565  0.7836  0.2407  0.0219
   29MOL0     C 3811   7.414   6.087   5.552 -0.0521  0.3788 -0.6495
   29MOL0     C 3812   7.478   5.986   5.636 -0.8603 -0.1315 -0.2148
   29MOL0     C 3813   7.615   5.979   5.644 -1.1356  0.4408  0.0925
   29MOL0     C 3814   7.696   6.076   5.582 -0.4413 -1.2080  1.2130
   29MOL0     O 3815   7.835   6.085   5.593  0.0660  0.2374 -0.0594
   29MOL0     C 3816   7.894   6.011   5.697 -0.1241  0.1103 -0.1829
   29MOL0     C 3817   8.045   6.027   5.712  0.2319  0.0747 -0.1780
   29MOL0     C 3818   8.105   5.936   5.813  0.3222  0.0316 -0.3484
   29MOL0     C 3819   8.253   5.958   5.821  0.4549 -0.2146 -0.4334
   29MOL0     C 3820   8.311   5.877   5.937 -0.5988 -0.5792  0.4739
   29MOL0     C 3821   8.453   5.925   5.967 -0.7699  0.7828  0.0128
   29MOL0     C 3822   8.531   5.879   5.847  0.4178  1.2304  0.0642
   29MOL0     C 3823   8.671   5.839   5.884 -0.2778 -1.0607 -0.3371
   29MOL0    Cl 3824   8.675   5.687   5.981  0.0413  0.2100  0.1123
   29MOL0     C 3825   7.645   6.172   5.495 -0.5047 -0.7173 -0.1549
   29MOL0     C 3826   7.500   6.183   5.486 -0.4124  0.0012  0.0070
   29MOL0     O 3827   7.234   6.222   5.373  1.0609  0.3467 -0.0781
   29MOL0     C 3828   7.008   6.142   5.640  0.3545 -1.2529 -0.4844
   29MOL0     C 3829   6.868   6.151   5.679  0.4772 -0.0458 -0.3574
   29MOL0     N 3830   6.257   6.356   5.373 -0.1473 -0.2607  0.6428
   29MOL0     N 3831   6.176   6.417   5.293  0.5143  0.7293  0.8941
   29MOL0     C 3832   5.102   6.863   4.933 -0.0637  0.0281  0.3693
   29MOL0     C 3833   4.973   6.818   4.931  0.5537  0.3423 -0.5313
   29MOL0     C 3834   4.561   6.650   5.091 -0.6900 -0.1774 -1.4104
   29MOL0     C 3835   4.584   6.550   4.992  0.2189 -0.2183 -0.3434
   29MOL0     C 3836   4.493   6.453   4.978  0.2038 -0.5968  1.0780
   29MOL0     C 3837   4.373   6.444   5.047  0.0005  0.8843 -0.0208
   29MOL0     O 3838   4.291   6.331   5.020  0.7139 -0.6030  0.3211
   29MOL0     C 3839   4.190   6.300   5.118 -0.6916  0.5828 -0.3602
   29MOL0     C 3840   4.113   6.175   5.076 -0.0796 -0.4584 -0.3284
   29MOL0     C 3841   4.190   6.045   5.110  0.4523 -0.5621  0.0883
   29MOL0     C 3842   4.113   5.913   5.097  0.1782  0.8582  0.1613
   29MOL0     C 3843   3.982   5.923   5.165  0.4240  0.0721  0.6236
   29MOL0     C 3844   3.882   5.916   5.226 -0.1389  0.1667  0.6889
   29MOL0     C 3845   4.345   6.545   5.142 -0.0142 -0.5026  1.1476
   29MOL0     C 3846   4.441   6.648   5.164  1.4641 -0.4884  0.6515
   29MOL0     C 3847   4.386   6.754   5.259 -0.9812  0.0035  0.7115
   29MOL0     H 3848   4.889   6.885   5.261 -3.8454 -1.2484 -1.7741
   29MOL0     H 3849   5.114   6.982   5.250 -0.3669  0.3341 -0.2872
   29MOL0     H 3850   5.321   7.106   5.196 -1.1375 -0.1592  3.5138
   29MOL0     H 3851   5.334   6.936   5.250  0.9866 -1.4226 -1.4980
   29MOL0     H 3852   5.543   7.060   5.227 -2.5316  3.4618 -1.7420
   29MOL0     H 3853   5.529   7.037   5.055 -2.2096  1.6179 -0.4484
   29MOL0     H 3854   5.505   6.780   5.201  0.4116 -1.1244 -2.7068
   29MOL0     H 3855   5.645   6.890   5.251  0.2344  2.3057 -0.1891
   29MOL0     H 3856   5.566   6.797   4.973  2.0885  4.2495 -1.7256
   29MOL0     H 3857   5.724   6.870   5.015  1.7061 -0.6503 -0.1572
   29MOL0     H 3858   5.632   6.599   5.117  1.3890 -1.2194  2.0915
   29MOL0     H 3859   5.747   6.633   4.984 -2.4878 -4.3133  0.3305
   29MOL0     H 3860   5.903   6.746   5.134  0.8763 -1.6227 -0.8641
   29MOL0     H 3861   5.787   6.741   5.270 -1.4888 -0.5102 -0.4073
   29MOL0     H 3862   5.942   6.509   5.146 -3.7762 -1.7575 -0.9280
   29MOL0     H 3863   5.813   6.487   5.262 -3.0374  2.9177  0.5675
   29MOL0     H 3864   6.058   6.665   5.307 -1.5588  0.4722 -1.1597
   29MOL0     H 3865   5.944   6.616   5.434  0.6261  1.4770 -0.2796
   29MOL0     H 3866   6.019   6.437   5.577  2.7673  1.5540  1.8818
   29MOL0     H 3867   6.336   6.358   5.633  2.9545 -1.4407 -0.0075
   29MOL0     H 3868   6.195   6.269   5.696  1.0018 -3.1670  0.9757
   29MOL0     H 3869   6.269   6.058   5.588 -2.1139  1.9095  2.4022
   29MOL0     H 3870   6.403   6.132   5.511  3.2442 -0.7783  1.3093
   29MOL0     H 3871   6.477   6.009   5.689  0.8120 -0.4673 -1.6026
   29MOL0     H 3872   6.393   6.122   5.806 -2.5523  1.0776 -1.8038
   29MOL0     H 3873   6.627   6.156   5.802  1.0086  1.5465 -0.5110
   29MOL0     H 3874   6.552   6.292   5.740 -1.2136  0.9373 -1.8835
   29MOL0     H 3875   6.762   6.233   5.365  0.3906 -0.8217  0.3237
   29MOL0     H 3876   7.001   6.230   5.322 -0.2279  0.4373 -0.3205
   29MOL0     H 3877   7.411   5.915   5.684 -2.7634  2.1118  0.6726
   29MOL0     H 3878   7.664   5.902   5.703 -2.1081  0.3465  0.8015
   29MOL0     H 3879   7.846   6.044   5.789 -0.1149  0.2423 -0.2258
   29MOL0     H 3880   7.882   5.902   5.689 -0.6186  0.1006  0.6702
   29MOL0     H 3881   8.107   6.008   5.623  0.4691 -1.4221  0.2709
   29MOL0     H 3882   8.059   6.130   5.745  0.7063 -0.0560  0.0413
   29MOL0     H 3883   8.057   5.954   5.910  0.1321 -0.5436 -0.3362
   29MOL0     H 3884   8.098   5.829   5.791  0.2827 -0.5884  2.3021
   29MOL0     H 3885   8.268   6.062   5.851  1.4586 -0.9720  1.8989
   29MOL0     H 3886   8.305   5.933   5.729  0.5056 -0.1806 -0.4136
   29MOL0     H 3887   8.312   5.768   5.923 -1.1331 -1.1778  4.1317
   29MOL0     H 3888   8.271   5.893   6.037 -0.8660 -0.6487  0.3798
   29MOL0     H 3889   8.458   6.034   5.978  0.5467  0.8235 -0.7124
   29MOL0     H 3890   8.499   5.874   6.052 -0.2343  0.1099 -0.6620
   29MOL0     H 3891   8.523   5.969   5.785  0.7959  1.3527  0.1890
   29MOL0     H 3892   8.486   5.799   5.787  1.8526  0.0766  0.4920
   29MOL0     H 3893   8.731   5.829   5.793 -1.1509  2.5162 -1.4728
   29MOL0     H 3894   8.719   5.921   5.940 -0.0747 -1.6075  0.3126
   29MOL0     H 3895   7.695   6.256   5.447 -2.1674  1.3189  1.4314
   29MOL0     H 3896   7.459   6.267   5.432 -0.6460 -0.1309 -0.0243
   29MOL0     H 3897   7.082   6.105   5.710  0.3357  2.4346  1.7150
   29MOL0     H 3898   6.841   6.130   5.782 -1.0152  1.5737 -0.3715
   29MOL0     H 3899   5.155   6.879   4.839  0.0915 -1.2142  0.2366
   29MOL0     H 3900   4.933   6.785   4.835 -0.3900  0.7697 -0.2914
   29MOL0     H 3901   4.668   6.560   4.924 -1.8925 -1.6311 -3.3963
   29MOL0     H 3902   4.530   6.377   4.910  2.0436 -2.2660  3.7249
   29MOL0     H 3903   4.127   6.383   5.151 -2.2599 -1.9077  3.7215
   29MOL0     H 3904   4.238   6.280   5.214 -4.7309  1.3228  2.0578
   29MOL0     H 3905   4.105   6.181   4.968 -2.6557  3.6324 -0.1228
   29MOL0     H 3906   4.015   6.183   5.125  0.0474 -1.0881  0.0428
   29MOL0     H 3907   4.215   6.054   5.216 -2.7401 -0.7674  0.9481
   29MOL0     H 3908   4.277   6.062   5.047  0.8191 -0.2728  0.6619
   29MOL0     H 3909   4.100   5.888   4.992 -6.6346  1.9631  0.2632
   29MOL0     H 3910   4.156   5.828   5.152 -0.9056  0.4063  0.3330
   29MOL0     H 3911   3.790   5.917   5.279 -0.0355  1.0100  0.8782
   29MOL0     H 3912   4.249   6.554   5.193 -0.6654  1.7239 -0.2840
   29MOL0     H 3913   4.433   6.740   5.357 -0.1719  5.1308  1.3167
   29MOL0     H 3914   4.421   6.855   5.236  1.7432 -1.3007 -1.4626
   29MOL0     H 3915   4.277   6.757   5.269 -1.4436 -2.0146 -2.2884
   30MOL0     O 3916   6.528   9.744   2.474  0.3606  0.1312 -0.1441
   30MOL0     C 3917   6.568   9.817   2.381 -0.1332 -0.3674  0.4090
   30MOL0     O 3918   6.695   9.824   2.327 -0.2960 -0.3470  0.8341
   30MOL0     C 3919   6.786   9.736   2.385  0.5950 -0.4348  0.0088
   30MOL0     C 3920   6.891   9.783   2.464 -0.4467 -0.0559  0.3747
   30MOL0     C 3921   6.982   9.698   2.524 -0.8039  0.6865  0.3949
   30MOL0     C 3922   6.985   9.563   2.476  0.6105 -0.6330 -0.2491
   30MOL0     O 3923   7.100   9.500   2.512  0.2767  0.0762 -0.9662
   30MOL0     C 3924   7.108   9.358   2.460  0.5573 -0.5196 -0.3923
   30MOL0     C 3925   7.253   9.313   2.487 -0.4783  0.1222 -0.2565
   30MOL0     C 3926   7.281   9.164   2.469  0.1301  0.5499 -0.1177
   30MOL0     C 3927   7.426   9.125   2.482 -0.4437  0.0291 -0.3990
   30MOL0     C 3928   7.463   8.978   2.470  0.4025 -0.9541  0.6217
   30MOL0     C 3929   7.619   8.974   2.437 -0.8070 -0.0358 -0.5922
   30MOL0     C 3930   7.676   8.846   2.498  0.6816  0.3433  0.1591
   30MOL0     C 3931   7.827   8.860   2.489  0.4499  0.3601  0.1685
   30MOL0     N 3932   7.894   8.745   2.548  0.3008  0.8449  1.0925
   30MOL0     C 3933   7.872   8.682   2.669 -0.2435 -0.3937 -1.3145
   30MOL0     C 3934   7.931   8.564   2.663 -0.2165  0.0481 -0.4279
   30MOL0     C 3935   7.939   8.452   2.765 -0.8114 -1.1074  0.2842
   30MOL0     C 3936   7.812   8.369   2.780 -0.1927 -0.2462  0.2371
   30MOL0     C 3937   7.853   8.251   2.870 -0.1775 -0.0203  0.2858
   30MOL0     C 3938   7.728   8.189   2.933 -0.2376 -0.6578 -0.3490
   30MOL0     O 3939   7.641   8.158   2.826  0.3440  0.2588 -0.0745
   30MOL0     C 3940   7.506   8.125   2.847  0.1565 -0.6174  0.1603
   30MOL0     C 3941   7.443   8.087   2.734  0.5954  0.4935 -0.1964
   30MOL0     C 3942   7.310   8.068   2.734 -0.4083 -0.4700 -0.4363
   30MOL0     C 3943   7.222   8.086   2.843  0.0452 -0.5565  0.9821
   30MOL0     C 3944   7.080   8.082   2.828  0.1303  0.0231  0.1671
   30MOL0     O 3945   6.999   8.061   2.938 -0.5595  0.3316 -0.5525
   30MOL0     C 3946   6.864   8.059   2.933  0.9680  0.0528 -0.0550
   30MOL0     C 3947   6.779   8.134   2.856  0.7314 -0.5488 -0.0456
   30MOL0     C 3948   6.638   8.104   2.861  0.2336 -0.1905 -0.3911
   30MOL0     C 3949   6.587   7.991   2.934  0.8371  0.1160 -0.3043
   30MOL0     O 3950   6.457   7.944   2.934 -1.1531 -0.7285 -0.3365
   30MOL0     C 3951   6.349   8.021   2.880  0.9251 -0.0921 -0.8380
   30MOL0     C 3952   6.346   7.973   2.734  0.2000  0.1425 -0.9417
   30MOL0     C 3953   6.260   8.062   2.640  0.4534  0.1628 -0.1524
   30MOL0     C 3954   6.260   8.215   2.660 -0.5634 -0.1885 -0.2692
   30MOL0     C 3955   6.221   8.289   2.535  0.4852 -0.4672  0.6238
   30MOL0     C 3956   6.073   8.304   2.496 -0.1706  0.3662 -0.5619
   30MOL0     C 3957   5.999   8.170   2.464 -0.3623 -0.5326  0.4437
   30MOL0     C 3958   5.913   8.144   2.585  0.3743  0.8231  0.6594
   30MOL0    Cl 3959   5.860   7.979   2.587 -0.2807  0.0822  0.4753
   30MOL0     C 3960   6.682   7.917   3.006  0.3466  0.4845 -0.4804
   30MOL0     C 3961   6.814   7.962   3.018 -1.0135 -0.1136  0.7716
   30MOL0     O 3962   7.039   8.096   2.718  0.0674 -0.3560  0.1435
   30MOL0     C 3963   7.289   8.118   2.965 -0.2896 -0.3867  0.5177
   30MOL0     C 3964   7.432   8.143   2.963  0.3602  0.6864 -0.7680
   30MOL0     N 3965   7.992   8.550   2.541 -0.0663  0.3682 -0.6844
   30MOL0     N 3966   7.959   8.650   2.474  0.1305  0.3913 -0.0921
   30MOL0     C 3967   6.873   9.517   2.400 -0.3221 -1.0835 -1.0229
   30MOL0     C 3968   6.772   9.600   2.355 -0.0023 -0.7206 -0.4744
   30MOL0     C 3969   6.472   9.906   2.320  0.3429  0.4046  0.3786
   30MOL0     C 3970   6.496  10.046   2.302  0.6843  0.8971  0.6193
   30MOL0     C 3971   6.400  10.137   2.256 -0.4144  0.6271  0.0156
   30MOL0     C 3972   6.280  10.088   2.223  0.8994  0.3380  0.0352
   30MOL0     O 3973   6.189  10.176   2.160 -0.1758  0.4869  0.0358
   30MOL0     C 3974   6.072  10.207   2.239  0.4479  0.0129  0.1139
   30MOL0     C 3975   6.043  10.349   2.274  0.4243  1.1909  0.3419
   30MOL0     C 3976   6.010  10.427   2.155 -0.7231  0.2836  0.0150
   30MOL0     C 3977   5.860  10.419   2.136  0.1799 -0.3401  0.6019
   30MOL0     C 3978   5.835  10.462   1.995 -0.4324  1.3525 -0.2036
   30MOL0     C 3979   5.833  10.497   1.875 -0.0256 -0.0495 -0.1592
   30MOL0     C 3980   6.240   9.953   2.235  0.3504  0.5948 -0.8140
   30MOL0     C 3981   6.334   9.864   2.291 -0.1170  0.3404  0.8996
   30MOL0     C 3982   6.280   9.725   2.317 -0.4783  0.0371 -0.1572
   30MOL0     H 3983   6.872   9.885   2.495  0.2677 -0.2008  1.3538
   30MOL0     H 3984   7.058   9.735   2.592 -1.1560  0.2129  1.0560
   30MOL0     H 3985   7.028   9.304   2.511 -0.5781  2.8805  1.7855
   30MOL0     H 3986   7.082   9.345   2.355  2.8417 -2.3064 -0.8188
   30MOL0     H 3987   7.273   9.322   2.594  0.9794 -1.2312 -0.3613
   30MOL0     H 3988   7.318   9.375   2.424  1.0972  0.5251  1.6681
   30MOL0     H 3989   7.245   9.127   2.372 -0.4474 -2.2584  1.0555
   30MOL0     H 3990   7.221   9.106   2.541  0.8903 -0.5152 -0.3154
   30MOL0     H 3991   7.487   9.182   2.412 -0.3625 -0.0266 -0.3730
   30MOL0     H 3992   7.473   9.162   2.573 -1.7077 -0.6579  0.5582
   30MOL0     H 3993   7.440   8.937   2.569  0.5204  0.5097  1.2845
   30MOL0     H 3994   7.411   8.926   2.389  0.1775 -2.0572  1.4408
   30MOL0     H 3995   7.642   8.963   2.331  2.2581  2.5088 -0.3390
   30MOL0     H 3996   7.676   9.063   2.465  0.9649 -1.2678 -0.0406
   30MOL0     H 3997   7.622   8.771   2.440 -2.2402  2.1788  0.2965
   30MOL0     H 3998   7.647   8.845   2.604 -1.5363  1.5740 -0.3797
   30MOL0     H 3999   7.854   8.884   2.386 -0.5837  0.3390 -0.1163
   30MOL0     H 4000   7.858   8.952   2.540 -0.4669  1.1072 -0.5977
   30MOL0     H 4001   7.828   8.728   2.757  2.8549  0.5841 -0.1741
   30MOL0     H 4002   8.015   8.383   2.727 -0.1281 -0.4817  0.4863
   30MOL0     H 4003   7.969   8.488   2.864 -1.9768 -1.5133  0.7946
   30MOL0     H 4004   7.736   8.442   2.811 -0.5466  1.0872 -3.2939
   30MOL0     H 4005   7.787   8.337   2.679  0.4143  0.1893 -0.0559
   30MOL0     H 4006   7.920   8.281   2.951  3.7753 -2.3153 -1.8303
   30MOL0     H 4007   7.912   8.175   2.818  3.5325  2.4829  0.4689
   30MOL0     H 4008   7.684   8.274   2.987  0.8818  2.3423 -3.7979
   30MOL0     H 4009   7.755   8.107   3.000  0.2493 -1.6852 -1.7748
   30MOL0     H 4010   7.491   8.082   2.637  3.3276  3.9995  0.7891
   30MOL0     H 4011   7.268   8.034   2.640 -0.1010 -0.8977 -0.4202
   30MOL0     H 4012   6.806   8.214   2.788 -0.0952 -1.0423 -0.9935
   30MOL0     H 4013   6.570   8.168   2.806 -1.1707 -1.2069  0.1192
   30MOL0     H 4014   6.256   8.010   2.937  1.7837 -0.5534  0.5371
   30MOL0     H 4015   6.375   8.127   2.891 -3.9018  1.0469  3.3669
   30MOL0     H 4016   6.445   7.970   2.687 -0.6888  0.6496 -2.9477
   30MOL0     H 4017   6.313   7.869   2.725 -0.6213  0.3071  0.0326
   30MOL0     H 4018   6.283   8.045   2.535  4.3229  3.3913 -0.0305
   30MOL0     H 4019   6.158   8.027   2.660  0.7460  0.5417  2.3755
   30MOL0     H 4020   6.363   8.237   2.688 -0.6391  0.1564 -0.2582
   30MOL0     H 4021   6.196   8.241   2.746 -1.6093  2.1608 -1.6532
   30MOL0     H 4022   6.279   8.252   2.450 -0.9133 -0.5118 -0.3348
   30MOL0     H 4023   6.243   8.393   2.561  2.0696 -0.5098 -0.3762
   30MOL0     H 4024   6.030   8.369   2.573 -1.8962  0.3664 -1.4771
   30MOL0     H 4025   6.076   8.361   2.403 -0.5018 -1.6168 -1.8285
   30MOL0     H 4026   6.065   8.084   2.451  1.4029  0.5329  1.9082
   30MOL0     H 4027   5.940   8.189   2.374 -3.8565 -0.7505  2.5120
   30MOL0     H 4028   5.961   8.164   2.681 -2.4124  0.3989  2.2443
   30MOL0     H 4029   5.826   8.210   2.580  1.9942  3.0140 -3.1132
   30MOL0     H 4030   6.635   7.834   3.059  0.6182  0.0863 -0.8482
   30MOL0     H 4031   6.887   7.923   3.088  0.6534  1.5020  0.0294
   30MOL0     H 4032   7.236   8.140   3.057  1.8216 -1.0652  1.9588
   30MOL0     H 4033   7.484   8.178   3.051 -0.1155 -0.7705  0.1353
   30MOL0     H 4034   6.862   9.415   2.365 -2.8191 -1.2324 -0.0332
   30MOL0     H 4035   6.676   9.578   2.311  0.8475 -2.3772 -1.6205
   30MOL0     H 4036   6.592  10.088   2.332  1.2381  0.5386 -0.5791
   30MOL0     H 4037   6.409  10.245   2.247  1.1216  0.3839 -2.9134
   30MOL0     H 4038   6.089  10.162   2.337  0.8810  2.5094  1.2768
   30MOL0     H 4039   5.976  10.167   2.204 -0.6623  0.6310  2.2525
   30MOL0     H 4040   6.140  10.383   2.313  1.7223 -0.8870 -0.8969
   30MOL0     H 4041   5.964  10.364   2.348 -1.8855  1.0942 -1.9715
   30MOL0     H 4042   6.070  10.399   2.068 -2.6589  1.0632 -1.6738
   30MOL0     H 4043   6.029  10.531   2.184 -2.1508 -0.6978  5.5136
   30MOL0     H 4044   5.822  10.318   2.157  1.0656 -0.7587  0.2642
   30MOL0     H 4045   5.814  10.484   2.211 -0.7618  0.2158 -0.4238
   30MOL0     H 4046   5.849  10.533   1.776 -1.7686 -0.6768 -0.7076
   30MOL0     H 4047   6.147   9.915   2.194 -0.4207  0.6982  0.7615
   30MOL0     H 4048   6.231   9.706   2.414  1.7020  1.4173  1.2926
   30MOL0     H 4049   6.215   9.701   2.233 -1.9526  2.0552  0.3341
   30MOL0     H 4050   6.359   9.650   2.306 -2.1846 -1.8763  0.0333
   31MOL0     O 4051  10.969   4.132   1.057 -0.1410 -0.7072 -0.7897
   31MOL0     C 4052  10.939   4.033   1.117  0.2404  0.4664  0.7697
   31MOL0     O 4053  10.817   4.020   1.190 -0.5134  0.6303 -0.3120
   31MOL0     C 4054  10.720   4.117   1.204 -0.7019 -0.0447  0.5186
   31MOL0     C 4055  10.761   4.256   1.230  0.2918  0.1544  0.0585
   31MOL0     C 4056  10.673   4.366   1.238 -0.3593 -0.2381 -0.5185
   31MOL0     C 4057  10.539   4.337   1.249 -0.4558  0.0649  1.1694
   31MOL0     O 4058  10.433   4.429   1.262  0.0819 -0.2703  0.4509
   31MOL0     C 4059  10.451   4.551   1.192  0.0660  0.8456  0.8264
   31MOL0     C 4060  10.305   4.609   1.156 -0.4450 -0.2448 -0.3416
   31MOL0     C 4061  10.232   4.514   1.062 -0.1485  0.4842  0.7324
   31MOL0     C 4062  10.297   4.502   0.931 -0.0025 -0.3128 -0.1010
   31MOL0     C 4063  10.199   4.466   0.813 -0.5268 -0.5321 -0.4525
   31MOL0     C 4064  10.282   4.427   0.686 -0.5549  0.3822 -0.7446
   31MOL0     C 4065  10.198   4.405   0.564  0.1007 -0.1613 -0.1872
   31MOL0     C 4066  10.283   4.452   0.433  0.3115  0.4136 -0.3490
   31MOL0     N 4067  10.423   4.409   0.408 -0.2504  0.1714 -0.3250
   31MOL0     C 4068  10.528   4.495   0.405  1.0527  0.7397 -0.3732
   31MOL0     C 4069  10.630   4.422   0.360  0.0682  0.3968 -0.3679
   31MOL0     C 4070  10.758   4.485   0.324  0.5493 -0.6097  0.6178
   31MOL0     C 4071  10.868   4.412   0.405 -0.6751  0.3915  0.2508
   31MOL0     C 4072  10.997   4.424   0.332  0.2669  1.4639 -0.5628
   31MOL0     C 4073  11.038   4.571   0.296  0.1024  0.6042  0.4853
   31MOL0     O 4074  11.063   4.645   0.417 -0.3712  0.0344 -0.0299
   31MOL0     C 4075  11.178   4.626   0.483 -0.3781  0.0130  0.5459
   31MOL0     C 4076  11.294   4.654   0.415 -0.0616 -0.2860  0.1977
   31MOL0     C 4077  11.410   4.650   0.482 -0.6461  1.2217  0.4712
   31MOL0     C 4078  11.410   4.631   0.625  0.1558  0.0542 -0.2085
   31MOL0     C 4079  11.542   4.617   0.681  0.1419 -0.4236  0.2933
   31MOL0     O 4080  11.644   4.557   0.597 -0.3595 -0.3589  0.3161
   31MOL0     C 4081  11.768   4.574   0.661  0.7075 -0.1446 -0.6254
   31MOL0     C 4082  11.802   4.519   0.783 -0.8225  0.0804 -0.1653
   31MOL0     C 4083  11.944   4.510   0.820  0.3891 -0.2917  0.5850
   31MOL0     C 4084  12.047   4.570   0.743 -0.1488 -0.0386  0.8193
   31MOL0     O 4085  12.181   4.554   0.761  0.2467 -0.9122 -0.1299
   31MOL0     C 4086  12.246   4.466   0.855  0.4741  0.4123  0.1895
   31MOL0     C 4087  12.399   4.460   0.832  0.0487  0.5969 -0.1804
   31MOL0     C 4088  12.485   4.585   0.869  0.9046 -0.6855  0.1672
   31MOL0     C 4089  12.634   4.565   0.826  0.5941 -0.6753 -0.0824
   31MOL0     C 4090  12.705   4.459   0.901 -0.5698  0.6936  0.1340
   31MOL0     C 4091  12.696   4.472   1.047 -1.0649 -0.3801  0.3357
   31MOL0     C 4092  12.817   4.418   1.127  0.0162 -0.4842 -0.4496
   31MOL0     C 4093  12.811   4.268   1.110  0.0439  0.2081  0.8675
   31MOL0    Cl 4094  12.661   4.186   1.158  0.1199  0.1895  0.3180
   31MOL0     C 4095  12.008   4.636   0.622  0.5854  0.4438  0.1830
   31MOL0     C 4096  11.871   4.638   0.581  0.4429  0.0902 -0.5088
   31MOL0     O 4097  11.542   4.630   0.804 -0.4058  0.5586  0.2331
   31MOL0     C 4098  11.287   4.623   0.692  0.1777  0.0353 -0.5643
   31MOL0     C 4099  11.164   4.615   0.619 -0.2869 -0.1456 -1.1316
   31MOL0     N 4100  10.581   4.302   0.317  0.0119  0.9298  0.5719
   31MOL0     N 4101  10.457   4.292   0.350  0.2593  0.3403 -0.3233
   31MOL0     C 4102  10.495   4.205   1.236 -0.3080  0.0101  0.0643
   31MOL0     C 4103  10.586   4.100   1.208  0.5028  0.4874 -0.8747
   31MOL0     C 4104  11.028   3.927   1.098 -0.3378 -0.4772  0.5876
   31MOL0     C 4105  11.164   3.951   1.067  0.6473  0.0178  0.2738
   31MOL0     C 4106  11.258   3.848   1.045  0.6115  0.7318 -0.1691
   31MOL0     C 4107  11.213   3.715   1.059  0.7960 -0.7266  0.6156
   31MOL0     O 4108  11.284   3.599   1.049 -0.5744  0.0365 -0.3371
   31MOL0     C 4109  11.364   3.587   0.928  0.1090  0.6307  0.5409
   31MOL0     C 4110  11.453   3.461   0.930 -0.5980  0.8119 -0.4546
   31MOL0     C 4111  11.362   3.331   0.924  0.8061  0.3950  0.5058
   31MOL0     C 4112  11.439   3.204   0.894 -0.0375  0.0709 -0.0865
   31MOL0     C 4113  11.531   3.184   1.004  0.1964  0.4450  0.1437
   31MOL0     C 4114  11.627   3.166   1.074 -0.1953 -0.5349 -0.3472
   31MOL0     C 4115  11.079   3.690   1.095  0.0122  0.5402  0.4705
   31MOL0     C 4116  10.987   3.791   1.117 -0.5441  0.7978 -0.4463
   31MOL0     C 4117  10.858   3.751   1.157  0.2429  0.4781 -0.3755
   31MOL0     H 4118  10.866   4.283   1.227  1.1696 -2.7129  1.5994
   31MOL0     H 4119  10.719   4.464   1.243 -0.9579  0.0690 -0.9173
   31MOL0     H 4120  10.504   4.617   1.260 -1.1581  0.8394  1.8141
   31MOL0     H 4121  10.514   4.536   1.103  1.2996 -1.2147  1.9686
   31MOL0     H 4122  10.324   4.704   1.105 -1.0506  0.6599  1.0563
   31MOL0     H 4123  10.243   4.630   1.243 -0.4026 -1.0008 -0.1222
   31MOL0     H 4124  10.136   4.563   1.042 -0.0609  0.1022 -0.8133
   31MOL0     H 4125  10.209   4.418   1.109  0.3378 -0.2792 -0.5241
   31MOL0     H 4126  10.338   4.602   0.916  0.9842 -0.2837  2.3416
   31MOL0     H 4127  10.372   4.423   0.936  3.6158  2.7988 -1.2405
   31MOL0     H 4128  10.125   4.391   0.844 -0.6074  0.1852  1.2215
   31MOL0     H 4129  10.140   4.556   0.796  0.0067 -0.2087 -0.5820
   31MOL0     H 4130  10.350   4.511   0.675  0.0247 -0.1903 -1.6555
   31MOL0     H 4131  10.349   4.343   0.706 -1.9520 -0.8424 -0.9971
   31MOL0     H 4132  10.115   4.477   0.560  0.5670  0.3879 -0.1676
   31MOL0     H 4133  10.156   4.305   0.555  3.0208 -1.4357 -1.0228
   31MOL0     H 4134  10.225   4.436   0.341  0.8991  3.2108 -1.3284
   31MOL0     H 4135  10.289   4.561   0.446 -1.2381  0.6986 -1.6539
   31MOL0     H 4136  10.547   4.593   0.446 -2.1675  0.1388  3.0797
   31MOL0     H 4137  10.789   4.477   0.220  0.0247  2.0552  0.1837
   31MOL0     H 4138  10.751   4.593   0.343 -1.4479 -0.3294 -1.2970
   31MOL0     H 4139  10.887   4.463   0.500  0.5367 -1.6101  1.1568
   31MOL0     H 4140  10.844   4.305   0.410  1.2370 -0.1123 -0.2720
   31MOL0     H 4141  10.996   4.371   0.237 -0.2776  2.9011 -1.3830
   31MOL0     H 4142  11.074   4.374   0.392 -3.8549 -1.8591  2.6140
   31MOL0     H 4143  10.964   4.627   0.239  1.1645  3.5459  1.8259
   31MOL0     H 4144  11.120   4.568   0.223 -1.9983 -0.8768 -1.9847
   31MOL0     H 4145  11.286   4.676   0.309 -0.5021  2.6480  0.7561
   31MOL0     H 4146  11.502   4.676   0.430  1.0882 -0.2688  2.5807
   31MOL0     H 4147  11.737   4.463   0.849  0.8179 -3.9326 -1.6439
   31MOL0     H 4148  11.970   4.471   0.918  0.9362 -1.6034 -0.0540
   31MOL0     H 4149  12.212   4.478   0.958 -1.1342  0.2277 -0.2963
   31MOL0     H 4150  12.211   4.366   0.830 -1.3581  0.6996  1.4486
   31MOL0     H 4151  12.431   4.378   0.897  3.4714  1.0328 -1.1058
   31MOL0     H 4152  12.423   4.426   0.731 -0.7044  1.4509 -0.6610
   31MOL0     H 4153  12.444   4.671   0.815 -0.1282 -1.9317 -1.1275
   31MOL0     H 4154  12.477   4.619   0.972 -0.4535  1.1724 -0.4796
   31MOL0     H 4155  12.687   4.661   0.833  0.4882 -0.6800  1.0171
   31MOL0     H 4156  12.627   4.530   0.723  1.3398 -3.1961  0.6478
   31MOL0     H 4157  12.812   4.453   0.880 -0.9957 -2.6854 -1.8927
   31MOL0     H 4158  12.670   4.356   0.890  0.4438  0.3572 -0.1067
   31MOL0     H 4159  12.680   4.576   1.076 -2.5998 -0.8527  1.2940
   31MOL0     H 4160  12.601   4.425   1.073 -2.3906  1.4817 -0.8393
   31MOL0     H 4161  12.817   4.445   1.233  1.7640  0.0173 -0.5406
   31MOL0     H 4162  12.911   4.454   1.085 -0.8959 -0.5781 -2.7054
   31MOL0     H 4163  12.834   4.231   1.010  0.9074 -2.5659  1.9745
   31MOL0     H 4164  12.885   4.225   1.178 -2.3151  0.4720  3.8557
   31MOL0     H 4165  12.089   4.672   0.561  2.2739 -0.5435  1.7398
   31MOL0     H 4166  11.847   4.679   0.483  1.5577  0.7480 -0.5155
   31MOL0     H 4167  11.285   4.602   0.799 -1.6289 -3.0314 -1.0931
   31MOL0     H 4168  11.067   4.602   0.665 -0.5881  1.0727 -1.3896
   31MOL0     H 4169  10.388   4.189   1.246 -0.3493  0.7312  0.8808
   31MOL0     H 4170  10.557   3.996   1.196  3.5774 -0.5089 -0.7283
   31MOL0     H 4171  11.196   4.054   1.063 -3.9174  1.6420  0.8517
   31MOL0     H 4172  11.364   3.868   1.034  0.9091 -1.1998 -1.3894
   31MOL0     H 4173  11.436   3.668   0.915  0.2003  0.6478  1.1246
   31MOL0     H 4174  11.304   3.581   0.836  1.5284  2.5767 -0.5886
   31MOL0     H 4175  11.514   3.469   1.020 -0.0769  0.5555 -0.7777
   31MOL0     H 4176  11.515   3.463   0.839 -0.4630 -3.9996 -0.7466
   31MOL0     H 4177  11.279   3.338   0.853  0.9005 -1.3858  0.1529
   31MOL0     H 4178  11.310   3.320   1.020 -3.3042 -2.5733 -1.7214
   31MOL0     H 4179  11.367   3.122   0.902  1.0962 -1.0077 -0.7814
   31MOL0     H 4180  11.492   3.209   0.799 -2.9937  0.2742 -1.8535
   31MOL0     H 4181  11.711   3.142   1.135 -0.4076  0.1179  0.2098
   31MOL0     H 4182  11.043   3.588   1.093 -1.8266  1.1543 -0.2935
   31MOL0     H 4183  10.820   3.780   1.255 -0.1548 -3.4255  0.8287
   31MOL0     H 4184  10.797   3.786   1.073  1.6038  1.3549 -1.0262
   31MOL0     H 4185  10.848   3.642   1.165 -2.3235  0.6861  0.1130
   32MOL0     O 4186   3.169   6.716   4.602 -0.3325  0.8034 -0.1538
   32MOL0     C 4187   3.164   6.660   4.716  1.4125 -0.3379  0.4987
   32MOL0     O 4188   3.261   6.576   4.766 -0.0981 -0.9277  0.3737
   32MOL0     C 4189   3.389   6.590   4.713  0.5396 -0.1061 -0.8956
   32MOL0     C 4190   3.438   6.505   4.614  1.1386  0.7035  0.6725
   32MOL0     C 4191   3.564   6.519   4.552  0.2123 -0.6013  0.2524
   32MOL0     C 4192   3.648   6.626   4.595 -0.3965 -0.2497  0.0845
   32MOL0     O 4193   3.778   6.639   4.546 -0.1176  0.0407 -0.7756
   32MOL0     C 4194   3.846   6.765   4.576  0.0085 -0.0881  0.7181
   32MOL0     C 4195   3.970   6.769   4.497 -0.9653 -0.5111 -0.6687
   32MOL0     C 4196   4.056   6.895   4.525  0.1711  0.9899 -0.5630
   32MOL0     C 4197   4.192   6.896   4.460 -0.3429  0.9430  0.5314
   32MOL0     C 4198   4.275   7.029   4.467  1.0204  0.5272  0.2005
   32MOL0     C 4199   4.194   7.137   4.408 -0.5023  0.9661 -0.3966
   32MOL0     C 4200   4.273   7.269   4.401 -0.7265 -0.5041 -0.2354
   32MOL0     C 4201   4.184   7.389   4.365 -0.9130  0.2389 -0.4988
   32MOL0     N 4202   4.099   7.430   4.473  0.7364  0.8203 -0.0903
   32MOL0     C 4203   3.958   7.430   4.477 -0.6560  0.3679 -1.3788
   32MOL0     C 4204   3.925   7.483   4.591  0.0015  0.5002  0.1011
   32MOL0     C 4205   3.787   7.504   4.653 -0.5853  1.5193  0.7513
   32MOL0     C 4206   3.673   7.485   4.544  0.6414  0.1291  0.3928
   32MOL0     C 4207   3.522   7.511   4.585 -0.4244 -0.5607 -0.3119
   32MOL0     C 4208   3.510   7.602   4.709 -0.4624 -0.0569 -0.1507
   32MOL0     O 4209   3.559   7.542   4.835 -0.4489  0.0993 -0.9574
   32MOL0     C 4210   3.628   7.634   4.914  0.6395  0.3583 -0.3518
   32MOL0     C 4211   3.748   7.608   4.967  0.3966  0.8182 -0.4894
   32MOL0     C 4212   3.810   7.699   5.048  0.3400  0.0143 -0.3360
   32MOL0     C 4213   3.761   7.825   5.075  0.7159  0.2424  0.1867
   32MOL0     C 4214   3.834   7.920   5.165  0.0996  0.2809 -0.2534
   32MOL0     O 4215   3.936   7.861   5.239 -0.2826  1.1141 -0.4677
   32MOL0     C 4216   4.030   7.922   5.317 -0.4648 -0.6497  0.5334
   32MOL0     C 4217   4.022   8.056   5.356 -0.2552  0.3467 -0.8812
   32MOL0     C 4218   4.131   8.115   5.427  0.3266 -0.6873  0.9817
   32MOL0     C 4219   4.246   8.037   5.463  0.2750  0.1194  0.0155
   32MOL0     O 4220   4.345   8.087   5.545 -0.4348  0.4736 -0.5454
   32MOL0     C 4221   4.305   8.166   5.665 -0.0204 -0.2972  0.2664
   32MOL0     C 4222   4.434   8.209   5.735 -0.6680 -0.3133  0.4212
   32MOL0     C 4223   4.409   8.266   5.880 -1.0395 -0.1215 -0.0153
   32MOL0     C 4224   4.531   8.296   5.960 -0.1346  0.0142  0.1328
   32MOL0     C 4225   4.489   8.343   6.101 -0.1078  0.8822  0.1500
   32MOL0     C 4226   4.594   8.297   6.203 -0.3198 -0.8391  0.0794
   32MOL0     C 4227   4.590   8.414   6.310 -0.4500  0.6151 -0.9312
   32MOL0     C 4228   4.676   8.390   6.437  0.1516  1.1509  0.2378
   32MOL0    Cl 4229   4.842   8.332   6.388 -0.3438  0.2289  0.5777
   32MOL0     C 4230   4.241   7.903   5.428 -0.7910 -0.3576 -0.0269
   32MOL0     C 4231   4.136   7.846   5.359  0.1544  0.3401  0.2561
   32MOL0     O 4232   3.804   8.036   5.149 -0.2893 -0.1790  0.7020
   32MOL0     C 4233   3.640   7.863   5.008  0.5823 -0.1303  0.0212
   32MOL0     C 4234   3.573   7.762   4.925  0.2901 -0.0661 -0.4784
   32MOL0     N 4235   4.043   7.528   4.657  0.3449  0.0200 -0.1502
   32MOL0     N 4236   4.141   7.491   4.583 -0.2530  0.8289  0.7368
   32MOL0     C 4237   3.593   6.701   4.707 -0.8461 -0.8844  0.0434
   32MOL0     C 4238   3.467   6.688   4.766 -0.2446 -0.3709 -0.2334
   32MOL0     C 4239   3.021   6.655   4.755 -0.0643 -0.1697 -0.4951
   32MOL0     C 4240   2.938   6.767   4.749  0.3929 -0.2034  0.6372
   32MOL0     C 4241   2.803   6.751   4.749 -0.2984 -0.1143  0.4242
   32MOL0     C 4242   2.735   6.636   4.779 -0.0483  0.5946 -0.1196
   32MOL0     O 4243   2.604   6.607   4.783  0.3907  0.1829 -0.1398
   32MOL0     C 4244   2.515   6.718   4.805 -0.3904 -0.5003  0.5214
   32MOL0     C 4245   2.371   6.687   4.847  0.7198  1.0105 -0.5866
   32MOL0     C 4246   2.370   6.611   4.986  0.2777  0.4300 -0.1105
   32MOL0     C 4247   2.225   6.573   5.017  0.3944 -0.7264  0.0691
   32MOL0     C 4248   2.217   6.461   5.109 -0.1922 -0.3130  1.0092
   32MOL0     C 4249   2.230   6.360   5.169 -0.0517 -0.2435  0.5271
   32MOL0     C 4250   2.819   6.522   4.795 -0.4698  0.4686 -1.2177
   32MOL0     C 4251   2.957   6.534   4.799 -0.0995 -0.1230  0.4180
   32MOL0     C 4252   3.029   6.409   4.829  0.1610 -0.1076  0.5314
   32MOL0     H 4253   3.375   6.429   4.570  1.8657 -0.0177  0.8454
   32MOL0     H 4254   3.591   6.450   4.472 -0.8874  0.3236 -0.9450
   32MOL0     H 4255   3.778   6.847   4.550 -0.4690 -1.0762 -1.3065
   32MOL0     H 4256   3.866   6.777   4.683  1.2689 -2.3146  0.7766
   32MOL0     H 4257   3.945   6.776   4.391  2.7799  1.6885 -1.5909
   32MOL0     H 4258   4.038   6.685   4.515 -0.2242 -0.3453 -2.4926
   32MOL0     H 4259   4.072   6.907   4.632  0.8392 -1.5343 -0.3178
   32MOL0     H 4260   4.004   6.981   4.482 -0.3277  0.1049 -1.8193
   32MOL0     H 4261   4.250   6.807   4.484 -0.8965 -1.1764 -4.6439
   32MOL0     H 4262   4.175   6.890   4.352 -2.1635 -1.0916  0.8437
   32MOL0     H 4263   4.288   7.054   4.573  0.3225  1.3960  0.0951
   32MOL0     H 4264   4.374   7.034   4.422  0.6389  1.4405 -0.5679
   32MOL0     H 4265   4.159   7.114   4.307 -0.6609 -0.9244  0.0456
   32MOL0     H 4266   4.108   7.146   4.474  0.0172 -2.3399  0.9142
   32MOL0     H 4267   4.359   7.268   4.335  0.2510  4.4413  0.5609
   32MOL0     H 4268   4.315   7.291   4.500 -1.2587  1.5916 -0.4165
   32MOL0     H 4269   4.239   7.481   4.342  0.2183 -0.1332  0.6248
   32MOL0     H 4270   4.120   7.373   4.277  0.4714  0.5415 -1.6079
   32MOL0     H 4271   3.889   7.385   4.407  1.8987 -1.0319 -3.1485
   32MOL0     H 4272   3.771   7.429   4.731  0.6607  0.6717  0.2237
   32MOL0     H 4273   3.788   7.605   4.696  1.3441  2.5262 -1.4388
   32MOL0     H 4274   3.693   7.541   4.452  1.7426  1.9541  1.6601
   32MOL0     H 4275   3.680   7.383   4.506  2.4793  0.8907 -1.5380
   32MOL0     H 4276   3.465   7.418   4.595 -3.5894  1.4296  2.0813
   32MOL0     H 4277   3.472   7.559   4.500 -1.2065 -0.1601  0.3606
   32MOL0     H 4278   3.401   7.618   4.715 -0.5618  0.3382 -2.3265
   32MOL0     H 4279   3.553   7.700   4.687  1.4398 -0.0266  3.1038
   32MOL0     H 4280   3.790   7.509   4.958 -0.6573  0.1561  1.3089
   32MOL0     H 4281   3.909   7.674   5.084  0.3923 -1.1885 -1.2612
   32MOL0     H 4282   3.937   8.117   5.327 -1.5054 -2.2554 -3.1388
   32MOL0     H 4283   4.111   8.215   5.462 -0.3988 -0.5852  0.2974
   32MOL0     H 4284   4.244   8.250   5.632 -0.1065 -0.9407 -1.2932
   32MOL0     H 4285   4.247   8.099   5.728 -0.3508 -0.7828 -0.5470
   32MOL0     H 4286   4.508   8.130   5.751  1.3995  1.1820 -1.2321
   32MOL0     H 4287   4.482   8.293   5.684 -1.2206 -0.3591 -0.1753
   32MOL0     H 4288   4.336   8.347   5.870 -2.0301 -0.9624  0.2615
   32MOL0     H 4289   4.353   8.191   5.937  1.1815 -0.8036  1.3868
   32MOL0     H 4290   4.597   8.366   5.908 -1.3227  3.2110  2.5825
   32MOL0     H 4291   4.598   8.209   5.967  0.5635  0.5888  0.6565
   32MOL0     H 4292   4.390   8.310   6.134 -1.4383  1.1291 -3.1691
   32MOL0     H 4293   4.483   8.451   6.085  2.0314  0.7201 -2.3215
   32MOL0     H 4294   4.562   8.197   6.236 -1.8428 -1.7214 -3.5915
   32MOL0     H 4295   4.692   8.303   6.156  0.0482  3.6144  1.0284
   32MOL0     H 4296   4.492   8.459   6.332 -0.5735  0.2348 -0.6927
   32MOL0     H 4297   4.646   8.500   6.274  2.4857 -0.7548  0.0353
   32MOL0     H 4298   4.686   8.480   6.499 -1.4554  1.6717 -0.1926
   32MOL0     H 4299   4.624   8.310   6.490  0.4328 -0.0414 -1.2281
   32MOL0     H 4300   4.325   7.842   5.457 -0.4771 -0.5722 -1.3115
   32MOL0     H 4301   4.117   7.741   5.337  0.7967  0.8447 -3.2957
   32MOL0     H 4302   3.595   7.961   5.015 -1.1106 -0.9672  2.3327
   32MOL0     H 4303   3.487   7.793   4.867  0.1200  1.0529  0.3442
   32MOL0     H 4304   3.656   6.780   4.745 -0.0653 -2.1641  1.5028
   32MOL0     H 4305   3.449   6.739   4.860 -1.4487  1.2292 -1.2693
   32MOL0     H 4306   2.996   6.855   4.722  1.1180 -0.9724 -0.3989
   32MOL0     H 4307   2.747   6.840   4.724 -0.8077 -0.6961 -0.5667
   32MOL0     H 4308   2.494   6.779   4.716 -1.1169  0.1168  1.1082
   32MOL0     H 4309   2.568   6.770   4.885  2.7211 -3.9269  0.9635
   32MOL0     H 4310   2.322   6.625   4.771 -2.3251  3.3013 -0.7130
   32MOL0     H 4311   2.304   6.774   4.848 -0.2867  0.3124 -2.7862
   32MOL0     H 4312   2.411   6.677   5.063  0.8832 -0.7227  0.5777
   32MOL0     H 4313   2.423   6.516   4.976 -2.4376 -1.2454  0.3088
   32MOL0     H 4314   2.178   6.665   5.054  2.7960  0.0764  1.3273
   32MOL0     H 4315   2.179   6.544   4.922 -0.5527  1.9628 -0.3960
   32MOL0     H 4316   2.259   6.277   5.230  0.5552  0.8416  1.7641
   32MOL0     H 4317   2.775   6.431   4.835  1.7642  0.7053  2.1091
   32MOL0     H 4318   3.081   6.375   4.739  0.0181  1.8017 -0.3223
   32MOL0     H 4319   3.103   6.444   4.901 -2.1457  1.8981  2.1077
   32MOL0     H 4320   2.972   6.331   4.881 -1.8951  0.2000 -1.1050
   33MOL0     O 4321   0.272  11.083   1.426  0.6269  0.1956 -0.1589
   33MOL0     C 4322   0.300  10.982   1.484  0.7768  0.0823 -0.5177
   33MOL0     O 4323   0.427  10.952   1.540  0.1971 -0.2780 -0.2784
   33MOL0     C 4324   0.521  11.060   1.548  0.7927  0.0628  0.5791
   33MOL0     C 4325   0.657  11.034   1.515  0.0742  1.0260  0.0505
   33MOL0     C 4326   0.758  11.129   1.531  0.0515  0.2669  0.2188
   33MOL0     C 4327   0.730  11.257   1.588  1.2759  1.0606  0.4780
   33MOL0     O 4328   0.803  11.369   1.600 -0.3504  0.7104  0.4545
   33MOL0     C 4329   0.944  11.353   1.580  1.1724 -0.5467 -0.1491
   33MOL0     C 4330   1.029  11.432   1.683 -0.3856  0.0348 -0.5191
   33MOL0     C 4331   1.170  11.365   1.717  0.2103  0.4422 -0.5109
   33MOL0     C 4332   1.247  11.452   1.820  0.1279 -0.2311  0.1380
   33MOL0     C 4333   1.396  11.434   1.818 -0.1388 -0.3130  0.2670
   33MOL0     C 4334   1.463  11.543   1.743  0.1664 -0.0164  0.4358
   33MOL0     C 4335   1.448  11.558   1.586  0.3327  0.7233  0.5631
   33MOL0     C 4336   1.510  11.693   1.529 -0.8540  0.1213  0.1172
   33MOL0     N 4337   1.652  11.668   1.489  0.1571 -0.5802  0.2324
   33MOL0     C 4338   1.760  11.674   1.579  0.0221 -0.0744 -0.1622
   33MOL0     C 4339   1.868  11.623   1.504 -0.0553  0.2312 -0.1700
   33MOL0     C 4340   2.006  11.610   1.570  1.0959 -0.0047  0.7599
   33MOL0     C 4341   2.054  11.469   1.525  0.2332 -0.1105  0.1259
   33MOL0     C 4342   2.194  11.443   1.572 -0.0620 -1.1909 -0.5248
   33MOL0     C 4343   2.292  11.488   1.466 -0.2482 -0.0378  0.0233
   33MOL0     O 4344   2.430  11.444   1.491 -0.1281  0.4662 -0.2205
   33MOL0     C 4345   2.545  11.506   1.435  0.2670  0.1231 -0.9655
   33MOL0     C 4346   2.541  11.588   1.323  0.1076 -0.0559  0.5656
   33MOL0     C 4347   2.658  11.645   1.285 -0.0183 -0.0381 -0.1208
   33MOL0     C 4348   2.782  11.631   1.349  1.0277  0.5485  0.5316
   33MOL0     C 4349   2.907  11.702   1.318 -0.3205 -0.0862 -0.2497
   33MOL0     O 4350   3.015  11.698   1.396  0.5717 -0.8961 -0.7089
   33MOL0     C 4351   3.122  11.777   1.365  0.7060 -0.4729 -0.4830
   33MOL0     C 4352   3.137  11.910   1.411  0.3781 -0.9121  0.8984
   33MOL0     C 4353   3.253  11.974   1.410  0.4073  0.2380 -0.2884
   33MOL0     C 4354   3.367  11.920   1.349  0.8824  1.5244 -0.1972
   33MOL0     O 4355   3.492  11.964   1.340  0.9906  0.4305  0.1929
   33MOL0     C 4356   3.513  12.104   1.346 -0.2885 -0.0197  0.0429
   33MOL0     C 4357   3.665  12.126   1.315 -0.8911  0.3353 -0.9719
   33MOL0     C 4358   3.702  12.275   1.289  0.9781 -0.4064  0.3253
   33MOL0     C 4359   3.855  12.299   1.266 -0.1908 -0.8938 -0.6226
   33MOL0     C 4360   3.899  12.443   1.299 -0.1985  0.2648  0.0654
   33MOL0     C 4361   4.050  12.454   1.298 -0.0858  0.3292 -0.9628
   33MOL0     C 4362   4.097  12.602   1.315  0.7633  0.3191  0.3954
   33MOL0     C 4363   4.218  12.622   1.397  0.1107 -0.3399 -0.2247
   33MOL0    Cl 4364   4.284  12.788   1.374  0.1399  0.1684  0.2324
   33MOL0     C 4365   3.349  11.791   1.293  0.6380  0.5849  0.4878
   33MOL0     C 4366   3.232  11.723   1.305 -0.2627 -0.2214  0.2179
   33MOL0     O 4367   2.905  11.754   1.207 -0.0389 -0.0922  0.4544
   33MOL0     C 4368   2.783  11.541   1.454  0.5360  0.1942  0.1899
   33MOL0     C 4369   2.665  11.476   1.493 -0.5088 -0.1908 -0.6757
   33MOL0     N 4370   1.819  11.585   1.382 -0.0104 -0.2220 -0.1869
   33MOL0     N 4371   1.688  11.603   1.374 -0.2074  0.1610  0.3008
   33MOL0     C 4372   0.593  11.283   1.623  0.3462 -0.6101 -0.7969
   33MOL0     C 4373   0.490  11.184   1.608 -0.0735 -0.1293  0.0975
   33MOL0     C 4374   0.191  10.872   1.501  0.3626 -0.3567 -0.4311
   33MOL0     C 4375   0.190  10.803   1.622  0.1412 -0.3352  0.3559
   33MOL0     C 4376   0.103  10.692   1.646 -1.0301 -0.7608 -0.7357
   33MOL0     C 4377   0.005  10.669   1.551  0.6364  0.3631 -0.7532
   33MOL0     O 4378  -0.086  10.572   1.582  0.3958 -0.5461 -1.2759
   33MOL0     C 4379  -0.107  10.459   1.498 -0.4993 -0.5555  0.2513
   33MOL0     C 4380  -0.251  10.410   1.511  0.6496  0.0782  0.1791
   33MOL0     C 4381  -0.278  10.311   1.630  1.1865 -0.6734  0.3944
   33MOL0     C 4382  -0.288  10.389   1.763 -0.0077 -0.9977 -0.2179
   33MOL0     C 4383  -0.338  10.292   1.857 -0.0084  1.3891 -0.2305
   33MOL0     C 4384  -0.392  10.205   1.923 -0.5331  0.1582  0.0028
   33MOL0     C 4385   0.001  10.735   1.432  0.3558 -0.8707  0.5781
   33MOL0     C 4386   0.094  10.837   1.403 -0.6828 -0.7629 -0.0112
   33MOL0     C 4387   0.087  10.894   1.266 -0.0540 -0.9165  0.6940
   33MOL0     H 4388   0.675  10.936   1.473 -0.4712  0.3690  1.2864
   33MOL0     H 4389   0.854  11.086   1.504  0.7182  1.2582  1.0043
   33MOL0     H 4390   0.974  11.249   1.596  0.4825 -0.5140  1.4725
   33MOL0     H 4391   0.961  11.399   1.482  1.2310  1.0752  0.5815
   33MOL0     H 4392   0.986  11.433   1.784  2.9689  1.5366  1.0203
   33MOL0     H 4393   1.034  11.534   1.645 -2.3385  0.5074  0.3483
   33MOL0     H 4394   1.233  11.349   1.629  0.8723  1.0055 -0.1418
   33MOL0     H 4395   1.150  11.270   1.768 -0.3655  1.3084  0.9406
   33MOL0     H 4396   1.236  11.559   1.800  5.1206  0.6876  1.0369
   33MOL0     H 4397   1.204  11.428   1.918  0.3469 -1.5874 -0.0717
   33MOL0     H 4398   1.425  11.431   1.923 -3.7381  2.0189  1.5252
   33MOL0     H 4399   1.422  11.341   1.766  1.1309  1.0303 -1.6385
   33MOL0     H 4400   1.433  11.640   1.785  0.9892  0.7397 -0.6646
   33MOL0     H 4401   1.571  11.544   1.760  0.4200  1.3282 -1.0360
   33MOL0     H 4402   1.341  11.557   1.562 -0.0118 -2.4502  1.7235
   33MOL0     H 4403   1.495  11.471   1.538  1.1029  0.5197  1.6464
   33MOL0     H 4404   1.462  11.708   1.432  3.9284  0.0428 -2.6005
   33MOL0     H 4405   1.504  11.776   1.599  1.7231  0.8635 -0.4169
   33MOL0     H 4406   1.772  11.716   1.679 -2.0015  0.8374 -0.2613
   33MOL0     H 4407   2.083  11.680   1.536  1.7349 -1.5390 -1.1416
   33MOL0     H 4408   1.991  11.606   1.679 -1.7592 -0.1342  0.4359
   33MOL0     H 4409   1.986  11.400   1.576 -1.6852  0.3086 -1.6845
   33MOL0     H 4410   2.039  11.442   1.420 -1.1578 -3.3822  1.0165
   33MOL0     H 4411   2.202  11.336   1.592 -0.4708 -1.0216  0.6166
   33MOL0     H 4412   2.216  11.495   1.666 -0.2786  0.7535 -1.4990
   33MOL0     H 4413   2.278  11.596   1.457  0.4426  0.3281  2.5500
   33MOL0     H 4414   2.261  11.445   1.370 -2.6742  0.5421  0.4943
   33MOL0     H 4415   2.444  11.611   1.278 -2.1596  1.3782  5.4819
   33MOL0     H 4416   2.669  11.714   1.202 -0.3832  5.0666  3.6334
   33MOL0     H 4417   3.051  11.958   1.457  2.3064  0.0151  3.7660
   33MOL0     H 4418   3.261  12.059   1.477 -2.4302 -0.9610  1.7501
   33MOL0     H 4419   3.471  12.164   1.265  1.7072  1.4620  0.0283
   33MOL0     H 4420   3.493  12.139   1.448  0.9924  0.2718  0.2090
   33MOL0     H 4421   3.732  12.100   1.397 -0.7768  2.6887 -0.2367
   33MOL0     H 4422   3.696  12.077   1.222  0.4166  2.2234 -1.5973
   33MOL0     H 4423   3.635  12.317   1.213  0.7319 -3.6739 -1.4297
   33MOL0     H 4424   3.676  12.323   1.384  3.5457  2.0924 -0.0854
   33MOL0     H 4425   3.871  12.289   1.158  1.9301  1.3603 -0.5980
   33MOL0     H 4426   3.902  12.225   1.331 -2.9574 -0.3736  2.2242
   33MOL0     H 4427   3.860  12.470   1.397  2.0514 -0.6915  1.2971
   33MOL0     H 4428   3.843  12.496   1.221 -1.8825 -0.5873  0.6347
   33MOL0     H 4429   4.073  12.396   1.388 -0.3148 -0.1263 -1.1914
   33MOL0     H 4430   4.093  12.412   1.206 -1.6725 -0.2019 -1.4974
   33MOL0     H 4431   4.015  12.665   1.352  1.6635  2.5690 -1.1968
   33MOL0     H 4432   4.116  12.656   1.222  2.3701 -0.1148  0.4387
   33MOL0     H 4433   4.185  12.605   1.500  0.2230 -1.3603 -0.3423
   33MOL0     H 4434   4.293  12.545   1.373  0.0821 -0.7913  1.0432
   33MOL0     H 4435   3.437  11.744   1.250  0.0028 -1.7435  1.5207
   33MOL0     H 4436   3.228  11.617   1.281  4.4379 -0.3107 -1.2385
   33MOL0     H 4437   2.873  11.515   1.508 -1.2285 -0.6261  2.9078
   33MOL0     H 4438   2.665  11.407   1.577 -0.7337 -1.1105 -1.4107
   33MOL0     H 4439   0.557  11.370   1.677 -0.8959 -1.8956  0.5395
   33MOL0     H 4440   0.390  11.187   1.652 -0.5014 -0.5346 -0.8211
   33MOL0     H 4441   0.262  10.839   1.695 -3.5595  3.3318  2.6149
   33MOL0     H 4442   0.117  10.632   1.736 -0.8157  0.8410  0.3402
   33MOL0     H 4443  -0.042  10.376   1.527 -0.7933 -0.3440  1.5808
   33MOL0     H 4444  -0.095  10.489   1.394 -1.5913  3.5440  1.1010
   33MOL0     H 4445  -0.272  10.366   1.413  0.4553  0.2473  0.1447
   33MOL0     H 4446  -0.314  10.499   1.523 -1.7314 -1.1816 -1.8954
   33MOL0     H 4447  -0.193  10.242   1.632  1.4267 -0.3940  2.6900
   33MOL0     H 4448  -0.370  10.255   1.615 -1.0099  1.6342  3.7522
   33MOL0     H 4449  -0.200  10.436   1.807 -0.2378 -2.0396  1.4393
   33MOL0     H 4450  -0.365  10.467   1.764  1.8900  0.9852 -0.4139
   33MOL0     H 4451  -0.444  10.129   1.979 -0.3904 -0.0526 -0.1477
   33MOL0     H 4452  -0.074  10.702   1.361 -1.9846  1.9288  1.5744
   33MOL0     H 4453  -0.009  10.887   1.213 -0.6932 -0.0465  1.6928
   33MOL0     H 4454   0.124  10.997   1.258 -3.5378  0.4045 -0.2578
   33MOL0     H 4455   0.156  10.831   1.210 -0.6062 -2.6950  1.9386
   34MOL0     O 4456   8.516   1.273  10.319 -0.1983  1.1771  0.2204
   34MOL0     C 4457   8.402   1.312  10.327 -0.0376  0.0765 -0.6643
   34MOL0     O 4458   8.342   1.365  10.443 -0.3371  0.5985 -0.4354
   34MOL0     C 4459   8.366   1.287  10.551 -0.1675 -0.8275 -0.2829
   34MOL0     C 4460   8.268   1.205  10.605 -0.4454 -0.1908  0.2017
   34MOL0     C 4461   8.284   1.139  10.725  0.4690  0.3452  0.0158
   34MOL0     C 4462   8.401   1.155  10.796  0.5873 -0.1812 -0.3302
   34MOL0     O 4463   8.430   1.118  10.931 -0.8005  0.2676  0.0381
   34MOL0     C 4464   8.344   1.019  10.990 -0.8957 -0.2935 -0.1780
   34MOL0     C 4465   8.390   0.981  11.127 -0.3065 -0.6297 -0.3969
   34MOL0     C 4466   8.411   1.106  11.220 -0.7860 -0.4789  0.4465
   34MOL0     C 4467   8.493   1.070  11.343  0.0065 -0.4252 -0.1206
   34MOL0     C 4468   8.459   1.152  11.470  0.2412 -0.6189  0.1064
   34MOL0     C 4469   8.553   1.132  11.586 -0.0900  0.2795 -0.4810
   34MOL0     C 4470   8.517   1.217  11.718 -0.1921 -0.0322 -0.0411
   34MOL0     C 4471   8.597   1.170  11.842  0.2743  0.4313 -0.5900
   34MOL0     N 4472   8.737   1.195  11.827 -0.8634 -1.1322  0.3990
   34MOL0     C 4473   8.805   1.312  11.862  0.7036 -0.5127 -0.0075
   34MOL0     C 4474   8.937   1.293  11.857 -0.0501  0.4350  0.2643
   34MOL0     C 4475   9.055   1.386  11.874  0.5445  0.4324  0.1296
   34MOL0     C 4476   9.050   1.470  12.006  0.1828 -0.5237 -0.2153
   34MOL0     C 4477   9.053   1.380  12.132  0.0915  0.9282 -0.8085
   34MOL0     C 4478   9.185   1.324  12.175  0.2402  0.3858  0.2033
   34MOL0     O 4479   9.187   1.267  12.312 -0.2259 -0.1184  0.5006
   34MOL0     C 4480   9.311   1.242  12.369  0.6654 -0.6728 -0.0175
   34MOL0     C 4481   9.312   1.217  12.502 -0.0209 -0.0859  0.3672
   34MOL0     C 4482   9.427   1.186  12.568  0.1455  0.9258 -0.5467
   34MOL0     C 4483   9.550   1.178  12.505  0.2421 -0.0860  0.1060
   34MOL0     C 4484   9.670   1.140  12.575  0.3065  0.3993  0.2708
   34MOL0     O 4485   9.663   1.121  12.714  0.3170  0.1803 -0.4590
   34MOL0     C 4486   9.766   1.114  12.805 -0.7830  0.2095  0.4822
   34MOL0     C 4487   9.750   1.035  12.925  0.2212  0.5471 -0.2162
   34MOL0     C 4488   9.843   1.049  13.029 -0.4326  0.0245 -0.2956
   34MOL0     C 4489   9.970   1.116  13.008  0.7923 -0.2400  0.6408
   34MOL0     O 4490  10.078   1.125  13.099  0.1338  0.0359 -0.4482
   34MOL0     C 4491  10.054   1.085  13.236  0.5240 -0.7646  0.2279
   34MOL0     C 4492  10.195   1.061  13.300 -0.1524 -0.3516 -0.7867
   34MOL0     C 4493  10.282   0.968  13.209  0.0389  0.9198  0.9875
   34MOL0     C 4494  10.391   0.903  13.285 -0.0796  0.3638  0.0143
   34MOL0     C 4495  10.438   0.778  13.214 -0.6660 -0.0355 -1.0227
   34MOL0     C 4496  10.536   0.698  13.305  0.0159  0.2270 -0.1776
   34MOL0     C 4497  10.677   0.761  13.307 -0.9281  0.0758  0.5715
   34MOL0     C 4498  10.794   0.674  13.359  0.5978 -0.0073 -0.8628
   34MOL0    Cl 4499  10.768   0.627  13.535 -0.1119 -0.0147 -0.1344
   34MOL0     C 4500   9.989   1.182  12.885  1.2392 -0.0209 -1.4060
   34MOL0     C 4501   9.890   1.182  12.789  0.0445  0.0793 -0.3460
   34MOL0     O 4502   9.774   1.139  12.508 -0.1687 -0.0838  0.4142
   34MOL0     C 4503   9.550   1.199  12.364  0.6566  0.3312 -0.2758
   34MOL0     C 4504   9.429   1.238  12.300 -0.3243  0.0368 -0.1253
   34MOL0     N 4505   8.950   1.163  11.806 -0.4731 -0.0695  0.0284
   34MOL0     N 4506   8.835   1.106  11.791  0.0070  0.6415 -0.0969
   34MOL0     C 4507   8.497   1.233  10.744  0.1107 -0.3592  0.0030
   34MOL0     C 4508   8.479   1.301  10.624 -0.2408  0.5661  0.0717
   34MOL0     C 4509   8.333   1.351  10.200  0.8133 -0.3637 -0.6161
   34MOL0     C 4510   8.231   1.448  10.209 -0.0000  0.7399  0.6404
   34MOL0     C 4511   8.164   1.491  10.097  0.1735 -1.0829 -0.4314
   34MOL0     C 4512   8.171   1.416   9.979  0.0439 -0.0291 -0.2892
   34MOL0     O 4513   8.093   1.469   9.878 -0.8901 -0.9045 -0.1481
   34MOL0     C 4514   8.088   1.420   9.744 -0.4536 -0.0600 -0.0762
   34MOL0     C 4515   8.198   1.460   9.651  0.1288 -0.7538  0.1460
   34MOL0     C 4516   8.178   1.424   9.503  0.5957  0.1311  0.3860
   34MOL0     C 4517   8.309   1.428   9.430  0.5054  0.4494 -0.1543
   34MOL0     C 4518   8.277   1.431   9.284  0.3118  0.1026  0.6505
   34MOL0     C 4519   8.251   1.420   9.169 -0.4574  0.4973  0.2799
   34MOL0     C 4520   8.256   1.314   9.975  0.1553 -0.5979 -0.0830
   34MOL0     C 4521   8.350   1.290  10.074 -0.3394  0.2603  0.0729
   34MOL0     C 4522   8.454   1.189  10.030  0.5337 -0.6275  0.9285
   34MOL0     H 4523   8.176   1.199  10.548  0.4230  0.9583 -1.4052
   34MOL0     H 4524   8.198   1.087  10.765  0.8729  2.2018  3.6678
   34MOL0     H 4525   8.246   1.064  11.006 -1.7744 -0.7006 -3.5999
   34MOL0     H 4526   8.335   0.931  10.924  2.7325 -0.4141 -0.6950
   34MOL0     H 4527   8.479   0.920  11.116  1.1083  0.4364  3.4362
   34MOL0     H 4528   8.316   0.916  11.174  0.2870 -1.2330 -0.2935
   34MOL0     H 4529   8.317   1.139  11.264 -1.5602  0.1735 -1.5721
   34MOL0     H 4530   8.440   1.197  11.167 -2.8381 -1.2589 -2.2436
   34MOL0     H 4531   8.481   0.967  11.379 -0.4428 -0.0239  0.9287
   34MOL0     H 4532   8.592   1.080  11.299 -0.3991  2.3118 -0.5769
   34MOL0     H 4533   8.460   1.259  11.449 -1.1129 -0.9527 -1.9324
   34MOL0     H 4534   8.363   1.120  11.512  1.1433 -2.8058  0.6442
   34MOL0     H 4535   8.538   1.026  11.611  2.4433 -0.3569 -1.4119
   34MOL0     H 4536   8.658   1.150  11.564  0.6135 -0.8654  1.6613
   34MOL0     H 4537   8.409   1.207  11.733  0.0174 -1.4472  0.6480
   34MOL0     H 4538   8.538   1.324  11.705  1.0512 -0.3313 -0.5880
   34MOL0     H 4539   8.565   1.221  11.934 -0.0889  2.6439 -1.8880
   34MOL0     H 4540   8.575   1.065  11.862  2.5101  0.2759  1.5863
   34MOL0     H 4541   8.755   1.406  11.883 -0.7209 -0.5892 -2.6429
   34MOL0     H 4542   9.138   1.317  11.863  0.2455  0.3265 -1.7394
   34MOL0     H 4543   9.064   1.451  11.786  1.2982 -1.0086 -0.8817
   34MOL0     H 4544   9.123   1.552  12.006 -1.0696  0.6416 -0.9375
   34MOL0     H 4545   8.948   1.509  12.009  0.6408  0.6663  2.1457
   34MOL0     H 4546   8.987   1.295  12.115 -1.3496  2.4167 -3.2983
   34MOL0     H 4547   9.018   1.445  12.213  0.0608 -0.2319  0.1284
   34MOL0     H 4548   9.262   1.398  12.150 -0.1069  0.3534 -1.0266
   34MOL0     H 4549   9.207   1.238  12.111 -0.8088 -2.4803  3.3840
   34MOL0     H 4550   9.227   1.248  12.562 -0.0847 -0.5910  0.5404
   34MOL0     H 4551   9.426   1.163  12.674 -1.4314  0.0711 -0.7189
   34MOL0     H 4552   9.659   0.980  12.947  2.0499 -2.1132  1.2132
   34MOL0     H 4553   9.821   0.998  13.122  1.1410 -2.5509 -1.2507
   34MOL0     H 4554  10.004   1.164  13.294 -0.5196 -1.3917  0.2023
   34MOL0     H 4555   9.991   0.997  13.225  0.8353 -0.6788 -5.9000
   34MOL0     H 4556  10.236   1.161  13.315  1.2051 -0.8657 -0.9974
   34MOL0     H 4557  10.179   1.016  13.398  4.2974 -0.3717  0.1342
   34MOL0     H 4558  10.213   0.894  13.168  0.2022  0.5639  1.3563
   34MOL0     H 4559  10.320   1.027  13.125 -1.5743  0.9061  0.1953
   34MOL0     H 4560  10.348   0.863  13.377 -1.3411 -0.0185 -0.7187
   34MOL0     H 4561  10.466   0.979  13.311  3.1453 -2.1620 -1.3718
   34MOL0     H 4562  10.470   0.796  13.111  0.7044 -0.6886 -0.7425
   34MOL0     H 4563  10.344   0.723  13.220 -0.3844 -0.4411 -0.1217
   34MOL0     H 4564  10.491   0.703  13.404 -0.3053  2.1790 -0.3717
   34MOL0     H 4565  10.539   0.595  13.268  0.7470 -0.0180  0.5447
   34MOL0     H 4566  10.666   0.839  13.383  2.0084  0.0992  1.0970
   34MOL0     H 4567  10.704   0.810  13.213 -0.0328 -2.4005 -0.5453
   34MOL0     H 4568  10.809   0.577  13.311 -2.8477 -2.1912  1.9270
   34MOL0     H 4569  10.877   0.745  13.361  1.1352 -0.6151 -1.2789
   34MOL0     H 4570  10.070   1.251  12.863  0.9269  0.6914 -0.3884
   34MOL0     H 4571   9.895   1.246  12.701  0.7663 -1.6319 -1.6146
   34MOL0     H 4572   9.640   1.177  12.307 -0.1491 -1.3884 -0.9780
   34MOL0     H 4573   9.424   1.260  12.194 -0.5113  1.4275  0.1540
   34MOL0     H 4574   8.582   1.259  10.807  1.1359 -2.7412 -0.2772
   34MOL0     H 4575   8.565   1.361  10.595  0.9257 -0.4505  1.3091
   34MOL0     H 4576   8.208   1.494  10.305 -1.3107 -2.2219  1.8593
   34MOL0     H 4577   8.088   1.566  10.111 -2.3636 -3.1169 -2.3468
   34MOL0     H 4578   7.996   1.438   9.688  0.4881  2.0077 -1.1286
   34MOL0     H 4579   8.101   1.313   9.763  2.1566  0.3512  0.9665
   34MOL0     H 4580   8.293   1.424   9.692  0.7344  0.4086 -0.2016
   34MOL0     H 4581   8.203   1.569   9.663 -3.8154 -0.0695 -2.5072
   34MOL0     H 4582   8.112   1.492   9.448  1.9102 -1.4786 -3.5738
   34MOL0     H 4583   8.126   1.328   9.498 -2.5372  1.4617  3.4150
   34MOL0     H 4584   8.361   1.523   9.446  1.2051  0.4070 -1.8756
   34MOL0     H 4585   8.358   1.340   9.473  0.4117  1.8165  3.0069
   34MOL0     H 4586   8.237   1.412   9.063 -4.0435  1.1670  0.5759
   34MOL0     H 4587   8.262   1.246   9.891 -5.1739 -1.6345  0.0101
   34MOL0     H 4588   8.462   1.099  10.091  5.2235 -0.5901  0.6901
   34MOL0     H 4589   8.439   1.149   9.929 -1.9360  2.8658 -0.3037
   34MOL0     H 4590   8.543   1.252  10.031 -0.0297  0.2029  0.1329
   35MOL0     O 4591   2.185   0.639   7.488  0.6725 -0.6879 -0.4070
   35MOL0     C 4592   2.170   0.750   7.544  0.0656  0.1716 -0.6001
   35MOL0     O 4593   2.055   0.821   7.555 -0.6570 -0.5341  0.7632
   35MOL0     C 4594   1.927   0.771   7.509 -0.3237 -0.2625  0.6410
   35MOL0     C 4595   1.911   0.718   7.383  0.2896  0.3488  0.8339
   35MOL0     C 4596   1.789   0.650   7.350  0.1536  0.9148  0.3418
   35MOL0     C 4597   1.682   0.642   7.439 -0.1079  0.5593 -0.0533
   35MOL0     O 4598   1.555   0.612   7.403  0.2648 -0.0955 -0.3007
   35MOL0     C 4599   1.495   0.644   7.276  0.2407  0.7472  0.4457
   35MOL0     C 4600   1.416   0.521   7.218 -0.8025 -0.3151  0.4326
   35MOL0     C 4601   1.283   0.497   7.280  0.7346  0.0513 -0.2415
   35MOL0     C 4602   1.246   0.341   7.304 -0.0385  0.3254  1.1718
   35MOL0     C 4603   1.098   0.331   7.333  0.6275 -0.1053 -0.1657
   35MOL0     C 4604   1.062   0.381   7.475 -0.4738 -0.0960  0.5759
   35MOL0     C 4605   0.910   0.388   7.506  0.3008  0.3943 -0.2920
   35MOL0     C 4606   0.839   0.252   7.551  0.1399  0.4319  0.3931
   35MOL0     N 4607   0.808   0.182   7.427  0.0057  0.7289  0.5390
   35MOL0     C 4608   0.690   0.186   7.368  0.3423  0.6871 -0.8306
   35MOL0     C 4609   0.703   0.082   7.280  0.0833  0.5687 -0.3119
   35MOL0     C 4610   0.606   0.039   7.173 -0.7802  0.7334 -0.4408
   35MOL0     C 4611   0.502   0.139   7.155  0.9991 -0.2715  0.1344
   35MOL0     C 4612   0.549   0.253   7.061  1.0511  0.0141 -0.5080
   35MOL0     C 4613   0.442   0.346   7.041 -0.0131  0.4210 -0.1788
   35MOL0     O 4614   0.341   0.292   6.947  0.7561  0.4802 -0.1660
   35MOL0     C 4615   0.247   0.375   6.892  0.3631  0.0377  0.5788
   35MOL0     C 4616   0.133   0.309   6.840 -0.1686 -0.8017  0.2393
   35MOL0     C 4617   0.035   0.379   6.780  0.3845 -0.9571 -0.3307
   35MOL0     C 4618   0.044   0.519   6.772  0.6158  0.0793  0.7330
   35MOL0     C 4619  -0.068   0.603   6.725 -0.4417 -0.0744  0.4800
   35MOL0     O 4620  -0.185   0.535   6.720  0.2469  0.4708  0.9109
   35MOL0     C 4621  -0.293   0.615   6.680  0.8491 -0.0137  0.5146
   35MOL0     C 4622  -0.345   0.727   6.756 -0.2764 -0.3860  0.2473
   35MOL0     C 4623  -0.458   0.794   6.703  0.4034  0.0987 -0.9350
   35MOL0     C 4624  -0.523   0.751   6.580  0.7171 -1.0446 -0.0585
   35MOL0     O 4625  -0.638   0.807   6.528  0.2223  0.1203 -0.3498
   35MOL0     C 4626  -0.722   0.866   6.617  0.4821 -0.8106 -0.6294
   35MOL0     C 4627  -0.699   1.019   6.602 -0.7977  0.3091  0.3046
   35MOL0     C 4628  -0.787   1.094   6.704 -0.3268  0.0565  0.2451
   35MOL0     C 4629  -0.719   1.104   6.840 -0.0990 -0.2153 -0.5263
   35MOL0     C 4630  -0.828   1.138   6.953  0.4790  0.2299  0.4327
   35MOL0     C 4631  -0.766   1.143   7.093  0.2295 -0.4922 -0.3562
   35MOL0     C 4632  -0.648   1.243   7.093 -0.2428 -0.1279  0.1303
   35MOL0     C 4633  -0.600   1.253   7.241 -0.6197  0.1630 -0.0144
   35MOL0    Cl 4634  -0.499   1.116   7.286 -0.0760  0.3577  0.4709
   35MOL0     C 4635  -0.469   0.646   6.505  0.0675 -0.7808  0.1533
   35MOL0     C 4636  -0.357   0.580   6.566 -0.5537 -0.5133  0.1337
   35MOL0     O 4637  -0.046   0.720   6.699 -0.1347 -0.5482  0.2704
   35MOL0     C 4638   0.158   0.584   6.820  0.1167  0.3586  0.8607
   35MOL0     C 4639   0.265   0.512   6.878  0.2479  0.3109  0.8771
   35MOL0     N 4640   0.824   0.012   7.294  0.6130 -0.7908 -0.3158
   35MOL0     N 4641   0.887   0.073   7.384 -0.0408 -1.0945  0.1663
   35MOL0     C 4642   1.712   0.687   7.567  1.0684 -0.1873 -0.1231
   35MOL0     C 4643   1.831   0.742   7.604  0.3813  0.5385  0.2492
   35MOL0     C 4644   2.295   0.815   7.593  0.3291  1.7724  0.5165
   35MOL0     C 4645   2.308   0.951   7.572  0.3089 -0.9401 -0.3147
   35MOL0     C 4646   2.428   1.016   7.616 -0.2615 -0.7025  0.0183
   35MOL0     C 4647   2.528   0.941   7.664 -0.0342  1.1460 -0.1383
   35MOL0     O 4648   2.646   0.998   7.703  0.2584 -0.3164  0.3092
   35MOL0     C 4649   2.681   0.982   7.839  0.5666 -0.2376 -0.1895
   35MOL0     C 4650   2.754   1.098   7.900  0.6394 -0.0886 -0.3923
   35MOL0     C 4651   2.880   1.127   7.811 -0.0814 -0.2642  0.6198
   35MOL0     C 4652   2.982   1.223   7.870  0.5095 -0.3843 -0.1720
   35MOL0     C 4653   2.926   1.360   7.884  0.2047 -0.1950 -0.5062
   35MOL0     C 4654   2.855   1.461   7.919  0.6971  1.0251 -0.3704
   35MOL0     C 4655   2.517   0.808   7.676  0.5175 -0.2186 -0.6553
   35MOL0     C 4656   2.403   0.742   7.646  0.2910 -0.0870 -0.4913
   35MOL0     C 4657   2.408   0.591   7.679 -0.0134 -0.1666 -0.1837
   35MOL0     H 4658   1.999   0.708   7.319 -0.6592 -5.7164 -0.1394
   35MOL0     H 4659   1.774   0.613   7.249  0.0089  2.2681 -0.1659
   35MOL0     H 4660   1.427   0.728   7.291 -1.2045 -0.2044 -0.6065
   35MOL0     H 4661   1.572   0.679   7.206 -1.1525  1.2325 -0.9060
   35MOL0     H 4662   1.485   0.436   7.222  0.4655  0.6722  0.0710
   35MOL0     H 4663   1.405   0.539   7.111 -0.7254 -2.0509  0.0938
   35MOL0     H 4664   1.215   0.546   7.210 -0.0382 -1.4500 -0.5734
   35MOL0     H 4665   1.271   0.545   7.378 -0.3847 -1.6059  0.4716
   35MOL0     H 4666   1.260   0.286   7.211 -2.0644  0.6436  0.6166
   35MOL0     H 4667   1.309   0.304   7.385  1.3315 -0.4271 -0.1882
   35MOL0     H 4668   1.039   0.387   7.260  1.2008 -2.4584 -2.6325
   35MOL0     H 4669   1.076   0.227   7.308  1.5633 -0.0890 -1.1197
   35MOL0     H 4670   1.106   0.316   7.552  2.1363  0.8324 -0.0367
   35MOL0     H 4671   1.106   0.481   7.489 -0.8148  0.0496  0.6210
   35MOL0     H 4672   0.856   0.428   7.419 -1.1595  0.7582  0.7451
   35MOL0     H 4673   0.889   0.467   7.578 -1.4378  0.3908 -0.7368
   35MOL0     H 4674   0.901   0.196   7.622 -1.3594  0.3550  1.6846
   35MOL0     H 4675   0.750   0.272   7.611  0.1537  1.2991  0.1366
   35MOL0     H 4676   0.601   0.236   7.404 -0.5904 -1.2744 -0.2611
   35MOL0     H 4677   0.657   0.016   7.079 -1.9185  0.0257 -0.9104
   35MOL0     H 4678   0.566  -0.057   7.206  0.1081  0.6575  0.4525
   35MOL0     H 4679   0.423   0.089   7.100  0.2174  1.2556 -0.1964
   35MOL0     H 4680   0.460   0.166   7.252  0.1879 -2.4373  0.4271
   35MOL0     H 4681   0.584   0.216   6.964 -0.0341  0.5091 -1.1018
   35MOL0     H 4682   0.640   0.292   7.108 -0.2103  1.1356  1.1430
   35MOL0     H 4683   0.491   0.436   7.001 -0.2279 -0.2835 -2.1627
   35MOL0     H 4684   0.409   0.393   7.134  2.1058  3.9500 -1.0265
   35MOL0     H 4685   0.116   0.203   6.853  2.0352 -0.9410  2.9535
   35MOL0     H 4686  -0.051   0.333   6.732 -1.2424  1.3205  0.2656
   35MOL0     H 4687  -0.297   0.756   6.849  0.0652 -0.1742  0.0069
   35MOL0     H 4688  -0.494   0.882   6.754 -2.5879 -1.3030 -0.3770
   35MOL0     H 4689  -0.825   0.846   6.589  0.2285  0.2967 -0.5322
   35MOL0     H 4690  -0.718   0.821   6.717 -2.6093 -0.6120 -0.3258
   35MOL0     H 4691  -0.594   1.046   6.618 -0.1702 -1.1097 -1.2068
   35MOL0     H 4692  -0.730   1.038   6.499  2.8984 -3.3928 -1.7769
   35MOL0     H 4693  -0.822   1.186   6.657 -0.8464 -0.4974 -0.4836
   35MOL0     H 4694  -0.882   1.040   6.719  1.5684 -3.7282 -0.1380
   35MOL0     H 4695  -0.653   1.191   6.833 -0.6164  0.1541 -0.9424
   35MOL0     H 4696  -0.668   1.011   6.864  0.6207 -0.1580 -1.7116
   35MOL0     H 4697  -0.905   1.061   6.949  1.1643 -0.4129 -2.0751
   35MOL0     H 4698  -0.876   1.234   6.930  4.0490  1.6208 -2.0079
   35MOL0     H 4699  -0.836   1.172   7.172  2.1629  2.2376  0.4740
   35MOL0     H 4700  -0.720   1.048   7.125  0.2030 -0.7207 -0.9752
   35MOL0     H 4701  -0.683   1.344   7.068 -1.4337  0.4246  3.5051
   35MOL0     H 4702  -0.569   1.206   7.028  0.3659  0.3619  0.5763
   35MOL0     H 4703  -0.536   1.341   7.248  0.5602 -0.4717 -1.9813
   35MOL0     H 4704  -0.682   1.268   7.312 -1.4288 -0.7037 -0.7342
   35MOL0     H 4705  -0.507   0.616   6.408  0.5203 -0.5859 -0.0873
   35MOL0     H 4706  -0.303   0.493   6.531  0.3695  0.8122 -1.8946
   35MOL0     H 4707   0.160   0.692   6.810  1.4459  0.3133  0.5649
   35MOL0     H 4708   0.352   0.571   6.903  0.0788  1.2233 -0.5454
   35MOL0     H 4709   1.635   0.685   7.644 -0.1224  0.1645 -1.2637
   35MOL0     H 4710   1.839   0.776   7.707 -3.0588  2.7695 -0.0366
   35MOL0     H 4711   2.235   1.013   7.520  2.8278  0.6193 -2.2226
   35MOL0     H 4712   2.435   1.123   7.601 -0.3472 -0.6881  0.0835
   35MOL0     H 4713   2.750   0.897   7.844 -1.1100 -1.5984  1.0974
   35MOL0     H 4714   2.594   0.953   7.900  0.4236 -2.1237 -1.2249
   35MOL0     H 4715   2.777   1.089   8.007 -0.7775  2.2722  0.2066
   35MOL0     H 4716   2.694   1.189   7.892 -1.9281 -1.7423 -1.1102
   35MOL0     H 4717   2.859   1.178   7.717  0.2399  1.2365  1.3470
   35MOL0     H 4718   2.934   1.033   7.795  0.0897  0.2678 -2.3858
   35MOL0     H 4719   3.007   1.180   7.967  0.5083 -2.2081 -0.9494
   35MOL0     H 4720   3.065   1.229   7.799  1.9334  0.6827  1.5084
   35MOL0     H 4721   2.795   1.543   7.952 -2.2435 -1.9539  2.3002
   35MOL0     H 4722   2.598   0.763   7.732  0.4104  1.5895  1.0791
   35MOL0     H 4723   2.306   0.558   7.698  0.6323 -2.8258 -0.9522
   35MOL0     H 4724   2.455   0.542   7.593 -0.2312 -0.1479 -0.3126
   35MOL0     H 4725   2.465   0.570   7.771 -1.3948 -0.7472  0.5613
   36MOL0     O 4726   8.937   3.966   3.527  0.4639  0.5961 -0.8067
   36MOL0     C 4727   8.881   4.057   3.605 -0.5840  0.2905 -0.2400
   36MOL0     O 4728   8.938   4.101   3.721 -0.6523 -0.0351 -0.1189
   36MOL0     C 4729   9.059   4.042   3.743  0.3972  0.0508 -1.1482
   36MOL0     C 4730   9.182   4.089   3.690  0.4299 -0.3926 -0.3731
   36MOL0     C 4731   9.301   4.017   3.719  0.1347 -0.4533 -0.1909
   36MOL0     C 4732   9.306   3.909   3.808  0.3820  0.3092  0.0696
   36MOL0     O 4733   9.424   3.851   3.844 -0.8045 -0.4094 -0.2863
   36MOL0     C 4734   9.420   3.733   3.918  0.8744  0.4948 -1.1359
   36MOL0     C 4735   9.553   3.682   3.951 -0.3380  0.2647 -0.5835
   36MOL0     C 4736   9.609   3.586   3.841 -0.5338 -0.2722  0.7940
   36MOL0     C 4737   9.753   3.550   3.886  0.3580  0.3510 -0.0547
   36MOL0     C 4738   9.827   3.468   3.777 -0.1951  0.1856 -0.0047
   36MOL0     C 4739   9.966   3.412   3.828  0.3967 -0.3916 -0.0299
   36MOL0     C 4740  10.033   3.346   3.710  0.3044  0.1636  0.6518
   36MOL0     C 4741  10.157   3.265   3.746 -0.1299 -0.0072 -0.3242
   36MOL0     N 4742  10.264   3.349   3.792  1.0980 -0.4317 -0.4571
   36MOL0     C 4743  10.309   3.347   3.918 -0.1939  0.3929  0.7310
   36MOL0     C 4744  10.424   3.425   3.905 -0.2555  0.7098  0.6613
   36MOL0     C 4745  10.523   3.467   4.011 -0.0919  0.3010 -0.2208
   36MOL0     C 4746  10.534   3.619   4.015 -0.7717  0.5294  0.2134
   36MOL0     C 4747  10.608   3.666   4.141  0.8553  0.3867  0.1303
   36MOL0     C 4748  10.654   3.811   4.127 -0.6937 -0.1672 -0.8987
   36MOL0     O 4749  10.710   3.870   4.247 -0.4136  0.8772 -0.2137
   36MOL0     C 4750  10.620   3.940   4.327  0.2139 -0.0737 -0.0231
   36MOL0     C 4751  10.483   3.923   4.334 -0.4496  0.5533  0.8098
   36MOL0     C 4752  10.409   3.997   4.422  0.4006 -0.7217 -0.2830
   36MOL0     C 4753  10.469   4.083   4.519 -0.9215  0.0194  0.2656
   36MOL0     C 4754  10.392   4.177   4.609  0.8320  0.1980  0.3696
   36MOL0     O 4755  10.464   4.245   4.705 -0.4662 -0.6839  0.0115
   36MOL0     C 4756  10.382   4.319   4.784  0.6934 -0.1972 -0.2191
   36MOL0     C 4757  10.329   4.444   4.749  0.4545 -0.1728  0.2629
   36MOL0     C 4758  10.242   4.517   4.835 -0.1194 -0.3278 -0.5318
   36MOL0     C 4759  10.207   4.468   4.962 -0.0376 -0.0712 -0.2746
   36MOL0     O 4760  10.118   4.532   5.045  0.1230  0.6226  0.6657
   36MOL0     C 4761  10.022   4.628   4.991 -0.7907  0.0519 -0.4336
   36MOL0     C 4762   9.983   4.710   5.121  0.4594 -0.2534 -0.1468
   36MOL0     C 4763  10.095   4.805   5.164 -0.1347 -0.4964  0.2704
   36MOL0     C 4764  10.049   4.940   5.223  1.4998  0.5288 -0.2908
   36MOL0     C 4765   9.984   4.926   5.361 -0.6260 -0.4056  0.0306
   36MOL0     C 4766   9.968   5.057   5.422  0.4321  0.2199 -0.7053
   36MOL0     C 4767   9.883   5.044   5.546 -0.4645  0.3378 -0.5237
   36MOL0     C 4768   9.952   4.947   5.645 -0.5427  0.3446 -1.0767
   36MOL0    Cl 4769   9.856   4.969   5.797 -0.0545 -0.4348 -0.2137
   36MOL0     C 4770  10.255   4.344   4.995 -0.6474  0.2763 -0.1468
   36MOL0     C 4771  10.341   4.263   4.906  0.1946 -0.5528  0.1528
   36MOL0     O 4772  10.270   4.181   4.591  0.1159  0.3004  0.2089
   36MOL0     C 4773  10.615   4.100   4.512 -0.1837  0.7640 -0.3442
   36MOL0     C 4774  10.685   4.027   4.416 -0.8999  0.5294  0.2532
   36MOL0     N 4775  10.443   3.460   3.776  0.5376  0.9221 -0.0342
   36MOL0     N 4776  10.335   3.424   3.706  0.9671  0.0977  0.2302
   36MOL0     C 4777   9.180   3.861   3.860  0.1317 -0.8267  0.0991
   36MOL0     C 4778   9.058   3.928   3.831  0.6596 -0.2597 -0.3025
   36MOL0     C 4779   8.751   4.119   3.578 -0.2196  1.3685  0.4729
   36MOL0     C 4780   8.715   4.226   3.654  0.8141 -0.4286 -0.5435
   36MOL0     C 4781   8.597   4.293   3.645  0.3884 -0.8484 -0.2865
   36MOL0     C 4782   8.503   4.251   3.558  0.3704  0.3035 -0.4550
   36MOL0     O 4783   8.382   4.309   3.550 -0.3426 -0.1262 -0.4626
   36MOL0     C 4784   8.339   4.413   3.632  0.9063 -0.2758 -0.0142
   36MOL0     C 4785   8.354   4.541   3.549  0.8291 -0.5486 -0.3033
   36MOL0     C 4786   8.498   4.599   3.547  0.2805  0.5738 -0.5852
   36MOL0     C 4787   8.492   4.719   3.446 -0.5280 -0.6982 -0.3371
   36MOL0     C 4788   8.620   4.794   3.443 -0.7581 -0.7045  0.7168
   36MOL0     C 4789   8.727   4.847   3.427  0.5380 -0.5597  0.1707
   36MOL0     C 4790   8.526   4.133   3.473 -0.1592  0.3034 -0.1565
   36MOL0     C 4791   8.650   4.064   3.485  0.0850  0.1766 -0.3599
   36MOL0     C 4792   8.671   3.930   3.417 -0.0765 -0.6684  0.2003
   36MOL0     H 4793   9.184   4.183   3.636 -3.4624  0.4261  0.5773
   36MOL0     H 4794   9.393   4.063   3.685  1.1387 -1.1278  1.4866
   36MOL0     H 4795   9.377   3.748   4.018  1.8992 -0.9716 -0.4313
   36MOL0     H 4796   9.363   3.654   3.867 -0.4492 -0.9786  2.2628
   36MOL0     H 4797   9.540   3.621   4.041 -3.3331  2.2234  0.4704
   36MOL0     H 4798   9.613   3.770   3.977 -0.4887  0.1338  0.2509
   36MOL0     H 4799   9.610   3.628   3.740 -0.3450 -2.2439 -0.0764
   36MOL0     H 4800   9.551   3.494   3.831 -1.1486  0.2780 -1.3728
   36MOL0     H 4801   9.822   3.633   3.905  0.4297  0.0741  0.9451
   36MOL0     H 4802   9.738   3.497   3.980 -1.7671 -0.5817 -0.8566
   36MOL0     H 4803   9.766   3.392   3.727  0.8769  0.9036 -2.5836
   36MOL0     H 4804   9.866   3.540   3.705  1.9237  0.2191  1.0921
   36MOL0     H 4805  10.022   3.495   3.872  0.3378  0.5864 -1.7477
   36MOL0     H 4806   9.946   3.333   3.902 -2.4786 -3.2120 -3.4703
   36MOL0     H 4807  10.074   3.414   3.635 -3.3266 -1.2807 -3.0664
   36MOL0     H 4808   9.957   3.288   3.656  1.5861 -1.2393  0.2958
   36MOL0     H 4809  10.136   3.200   3.831 -3.3028 -0.2527 -1.1806
   36MOL0     H 4810  10.193   3.199   3.666 -0.5263 -2.0325  1.1008
   36MOL0     H 4811  10.262   3.293   4.000 -0.6851 -0.9111 -0.3548
   36MOL0     H 4812  10.488   3.441   4.111 -1.2834  1.1409 -0.3925
   36MOL0     H 4813  10.622   3.426   3.990  0.2301 -0.7016  2.8136
   36MOL0     H 4814  10.591   3.647   3.926 -0.7979  0.3093  0.1265
   36MOL0     H 4815  10.435   3.666   4.008 -0.0478  1.9450 -1.2849
   36MOL0     H 4816  10.697   3.603   4.152  1.0703  0.9246  1.5916
   36MOL0     H 4817  10.543   3.658   4.228  2.2189  2.0570  1.3591
   36MOL0     H 4818  10.569   3.871   4.092  0.3516  1.2642 -1.0703
   36MOL0     H 4819  10.717   3.822   4.039 -1.7699 -0.9746 -1.8001
   36MOL0     H 4820  10.435   3.847   4.273 -0.6135  1.0258  0.3351
   36MOL0     H 4821  10.303   3.978   4.420  0.4118 -0.8875 -2.9350
   36MOL0     H 4822  10.346   4.492   4.653 -2.4767 -2.9874 -1.8455
   36MOL0     H 4823  10.193   4.605   4.794  1.6388  0.2909 -1.4361
   36MOL0     H 4824  10.084   4.698   4.935  0.3626 -0.1475  0.5597
   36MOL0     H 4825   9.936   4.599   4.930 -0.9339  2.7284 -1.6117
   36MOL0     H 4826   9.896   4.764   5.081  0.3346 -0.9323 -0.8347
   36MOL0     H 4827   9.950   4.638   5.197  2.2430  0.8639  1.7841
   36MOL0     H 4828  10.160   4.747   5.230 -1.2020 -0.5682  1.2972
   36MOL0     H 4829  10.156   4.828   5.077 -0.9570 -1.6851 -0.6441
   36MOL0     H 4830   9.970   4.984   5.162 -1.3733 -2.4288  0.9802
   36MOL0     H 4831  10.137   5.005   5.233  0.9354  1.1933  0.5352
   36MOL0     H 4832  10.051   4.868   5.425 -1.4454  0.7749  2.0449
   36MOL0     H 4833   9.893   4.873   5.331  0.1042 -0.7611 -1.6839
   36MOL0     H 4834  10.065   5.104   5.440  0.3586  2.1229 -4.2619
   36MOL0     H 4835   9.913   5.114   5.346 -0.7811 -0.9514 -0.7534
   36MOL0     H 4836   9.789   5.006   5.504  0.7485 -2.4547 -0.9879
   36MOL0     H 4837   9.864   5.141   5.592 -0.1446 -0.6271  1.7696
   36MOL0     H 4838   9.947   4.844   5.608 -2.9154 -0.2777  0.7382
   36MOL0     H 4839  10.053   4.975   5.675 -0.7493 -1.2459  1.4202
   36MOL0     H 4840  10.244   4.317   5.099 -0.3365 -1.5987 -0.5719
   36MOL0     H 4841  10.389   4.173   4.943  0.6943  0.2669  1.5907
   36MOL0     H 4842  10.667   4.175   4.572 -3.1410  1.9949  0.8909
   36MOL0     H 4843  10.793   4.023   4.410 -0.8304  0.7678  1.1162
   36MOL0     H 4844   9.169   3.765   3.910  1.8886 -1.6383 -0.9846
   36MOL0     H 4845   8.963   3.904   3.878  1.8409 -2.6516  1.1131
   36MOL0     H 4846   8.787   4.263   3.725  0.3290  0.5727 -0.5569
   36MOL0     H 4847   8.587   4.372   3.719  3.9676  1.5549 -2.0926
   36MOL0     H 4848   8.395   4.434   3.724 -1.4395 -2.4149  2.0333
   36MOL0     H 4849   8.234   4.395   3.658  0.9648 -1.6587 -0.6589
   36MOL0     H 4850   8.286   4.617   3.590  1.2589 -0.7361  0.7975
   36MOL0     H 4851   8.320   4.517   3.448 -0.6814  3.4938 -0.9285
   36MOL0     H 4852   8.569   4.526   3.509  0.1780 -0.8605  1.7665
   36MOL0     H 4853   8.523   4.630   3.649 -0.4638  3.5293 -1.2156
   36MOL0     H 4854   8.465   4.675   3.350 -1.0700 -1.6725  0.2414
   36MOL0     H 4855   8.408   4.784   3.473  0.6972  1.0324 -0.5023
   36MOL0     H 4856   8.817   4.904   3.416 -2.0315  4.7573  2.7760
   36MOL0     H 4857   8.445   4.099   3.409 -2.7755  3.3438  1.2441
   36MOL0     H 4858   8.575   3.887   3.387 -1.6323 -1.2926  5.1467
   36MOL0     H 4859   8.730   3.938   3.326 -1.0665 -0.5988 -0.4515
   36MOL0     H 4860   8.724   3.862   3.485  3.7355  0.2453 -1.5882
   37MOL0     O 4861   3.243   3.039   1.315 -0.4445 -0.0804  0.4307
   37MOL0     C 4862   3.312   2.971   1.400 -0.0274 -0.7953  0.4499
   37MOL0     O 4863   3.450   2.961   1.404 -0.7141 -0.5472  0.0878
   37MOL0     C 4864   3.534   3.037   1.329  0.0138 -0.6688 -0.1576
   37MOL0     C 4865   3.537   3.173   1.360 -0.3824  0.6501  0.7622
   37MOL0     C 4866   3.633   3.257   1.296  0.4662 -0.0183 -0.0188
   37MOL0     C 4867   3.707   3.203   1.188 -0.7429  0.4301  0.4887
   37MOL0     O 4868   3.796   3.282   1.122  0.1808 -0.3475  0.0763
   37MOL0     C 4869   3.736   3.408   1.081 -0.8694  0.1851 -0.1936
   37MOL0     C 4870   3.842   3.481   1.000 -0.9255  0.2334 -0.4302
   37MOL0     C 4871   3.956   3.557   1.085 -0.3533  0.4592 -0.1951
   37MOL0     C 4872   4.067   3.591   0.991 -1.0068  0.9103 -0.5126
   37MOL0     C 4873   4.164   3.689   1.067 -0.2532 -0.7986 -0.8138
   37MOL0     C 4874   4.297   3.706   1.000  0.0219 -0.8895  0.5792
   37MOL0     C 4875   4.389   3.804   1.054  0.5451  0.0096 -0.1448
   37MOL0     C 4876   4.326   3.949   1.053 -0.0602  0.4138 -0.4848
   37MOL0     N 4877   4.436   4.046   1.048 -0.5269 -0.8557  0.3928
   37MOL0     C 4878   4.543   4.043   1.138 -0.2625 -0.4730  0.1871
   37MOL0     C 4879   4.627   4.130   1.080 -0.3712 -0.3311 -0.2479
   37MOL0     C 4880   4.775   4.141   1.117 -0.1228 -0.6003  0.0890
   37MOL0     C 4881   4.868   4.128   0.999 -1.0601  0.0772  0.1043
   37MOL0     C 4882   4.882   3.986   0.930  0.3064 -0.3419  0.1716
   37MOL0     C 4883   4.758   3.944   0.851  0.0134 -0.2665 -0.3794
   37MOL0     O 4884   4.798   3.820   0.774  0.3523 -0.1490 -0.2643
   37MOL0     C 4885   4.703   3.750   0.716  0.9278 -0.7025  0.2388
   37MOL0     C 4886   4.567   3.798   0.708  0.7015 -0.1691  0.0203
   37MOL0     C 4887   4.468   3.716   0.647 -1.3976  0.4263  0.1238
   37MOL0     C 4888   4.500   3.593   0.597 -0.1599  0.7203 -0.9936
   37MOL0     C 4889   4.383   3.512   0.545 -0.6771  0.2741  0.3329
   37MOL0     O 4890   4.422   3.404   0.480  0.0828  0.2567  1.0560
   37MOL0     C 4891   4.333   3.299   0.471 -0.6534 -0.7385 -0.2639
   37MOL0     C 4892   4.284   3.237   0.596 -0.0055  0.1954  0.0935
   37MOL0     C 4893   4.173   3.143   0.593 -0.5459 -0.0744  0.0175
   37MOL0     C 4894   4.120   3.110   0.468 -0.2844 -0.1404  0.6172
   37MOL0     O 4895   4.022   3.022   0.457 -0.2531 -0.0563 -0.6995
   37MOL0     C 4896   3.898   3.038   0.544  0.2779 -0.1826  0.6721
   37MOL0     C 4897   3.895   2.922   0.639  0.4973  0.6390 -0.2516
   37MOL0     C 4898   3.771   2.915   0.727 -0.4787 -0.1514 -0.0743
   37MOL0     C 4899   3.769   2.788   0.815 -0.3162  0.1772  0.0773
   37MOL0     C 4900   3.649   2.777   0.912 -0.3161  0.0181 -0.2920
   37MOL0     C 4901   3.519   2.744   0.824  0.3011  0.5117  0.2751
   37MOL0     C 4902   3.410   2.706   0.927  0.9771 -0.1637 -0.3029
   37MOL0     C 4903   3.288   2.617   0.889 -0.0050  0.2829 -0.7732
   37MOL0    Cl 4904   3.199   2.583   1.032  0.1202  0.5082 -0.0891
   37MOL0     C 4905   4.173   3.169   0.356  0.3019 -0.3075  0.1470
   37MOL0     C 4906   4.277   3.263   0.352  0.0015  0.6341  0.2573
   37MOL0     O 4907   4.267   3.546   0.556  0.0794  0.4257 -0.4223
   37MOL0     C 4908   4.633   3.549   0.604  0.6007  0.0198 -0.5302
   37MOL0     C 4909   4.737   3.628   0.661 -0.0188 -0.1389 -0.1368
   37MOL0     N 4910   4.574   4.195   0.967  0.0606  0.2780  0.7050
   37MOL0     N 4911   4.456   4.139   0.945 -0.0318 -0.5816  0.1919
   37MOL0     C 4912   3.694   3.071   1.151  0.0311 -0.9981 -0.1663
   37MOL0     C 4913   3.614   2.990   1.231  0.1598  0.6988 -0.5968
   37MOL0     C 4914   3.236   2.905   1.514  0.5562  0.0168 -0.2825
   37MOL0     C 4915   3.302   2.884   1.633 -0.6119 -1.0014 -0.0102
   37MOL0     C 4916   3.250   2.842   1.751  0.5575  0.3001  0.9269
   37MOL0     C 4917   3.108   2.823   1.758 -0.6638  0.0183  0.1085
   37MOL0     O 4918   3.056   2.785   1.878 -0.3635 -0.5866 -0.2962
   37MOL0     C 4919   2.914   2.782   1.901  0.5701 -0.1026  0.5471
   37MOL0     C 4920   2.852   2.655   1.845  0.4227  1.0373 -0.0815
   37MOL0     C 4921   2.861   2.533   1.938  0.2285  0.2469  0.4805
   37MOL0     C 4922   2.793   2.408   1.871 -1.8399 -0.4909 -0.6185
   37MOL0     C 4923   2.825   2.301   1.955  0.6543  0.8534  0.6115
   37MOL0     C 4924   2.867   2.212   2.030  0.3303 -0.3213  0.3949
   37MOL0     C 4925   3.038   2.836   1.637  0.3719 -0.1636  0.2806
   37MOL0     C 4926   3.097   2.865   1.510 -0.7958 -0.6305 -0.3556
   37MOL0     C 4927   3.009   2.832   1.384 -0.1261 -0.6057 -0.8011
   37MOL0     H 4928   3.471   3.206   1.439 -0.1689  0.8759  0.8462
   37MOL0     H 4929   3.654   3.354   1.338 -3.5137  1.6534 -1.4076
   37MOL0     H 4930   3.649   3.397   1.015 -1.1965 -3.6926  0.6205
   37MOL0     H 4931   3.695   3.465   1.164 -3.2458 -0.0671 -1.1169
   37MOL0     H 4932   3.797   3.551   0.930 -0.1408 -0.8417 -2.0725
   37MOL0     H 4933   3.894   3.407   0.937 -1.3673 -1.7143  1.3687
   37MOL0     H 4934   3.985   3.502   1.175  1.0245  1.1605 -0.1952
   37MOL0     H 4935   3.914   3.647   1.131 -1.8065 -1.5380  2.7050
   37MOL0     H 4936   4.126   3.500   0.976 -3.0789 -0.6624  0.3429
   37MOL0     H 4937   4.032   3.642   0.902 -2.3247  1.0571  0.0598
   37MOL0     H 4938   4.120   3.788   1.052 -0.5096 -0.9375 -1.0010
   37MOL0     H 4939   4.171   3.669   1.174 -0.0817  1.7372 -0.2805
   37MOL0     H 4940   4.348   3.609   0.992 -3.2130 -2.7311 -0.0199
   37MOL0     H 4941   4.271   3.734   0.898 -2.5908  0.3722  1.4982
   37MOL0     H 4942   4.484   3.803   0.999  0.6306  1.2357 -0.0679
   37MOL0     H 4943   4.425   3.776   1.153  3.4270 -1.3731 -1.4481
   37MOL0     H 4944   4.259   3.965   0.967 -1.5784  0.2167  0.6116
   37MOL0     H 4945   4.272   3.954   1.148  4.0973  0.8098  2.1067
   37MOL0     H 4946   4.558   3.973   1.219  0.0688 -0.1627  0.3958
   37MOL0     H 4947   4.800   4.224   1.183  1.4842 -0.9361 -0.0477
   37MOL0     H 4948   4.779   4.060   1.190  0.2626 -0.2768  0.4325
   37MOL0     H 4949   4.852   4.203   0.922 -2.7221 -0.9884 -0.6372
   37MOL0     H 4950   4.966   4.137   1.047 -1.4850  0.9120  0.8286
   37MOL0     H 4951   4.889   3.901   0.998 -4.7760 -2.3864 -1.3325
   37MOL0     H 4952   4.967   3.990   0.861 -0.7860  0.3268 -1.1974
   37MOL0     H 4953   4.728   4.026   0.785 -1.0624 -0.7615 -0.5244
   37MOL0     H 4954   4.677   3.916   0.919  0.0773 -0.5010 -0.4003
   37MOL0     H 4955   4.541   3.899   0.738  2.7433  0.7356 -1.0526
   37MOL0     H 4956   4.370   3.758   0.625 -1.0980  0.4482 -1.2560
   37MOL0     H 4957   4.329   3.259   0.692 -1.6325 -2.1589  1.4856
   37MOL0     H 4958   4.137   3.086   0.678 -1.5612  2.6454  1.5558
   37MOL0     H 4959   3.889   3.124   0.611 -2.0393 -2.5251  3.6943
   37MOL0     H 4960   3.810   3.030   0.480  0.0031 -0.0661  1.0360
   37MOL0     H 4961   3.894   2.833   0.575 -0.5222  0.5128 -0.0635
   37MOL0     H 4962   3.985   2.929   0.701  0.0298  1.8244  0.3348
   37MOL0     H 4963   3.774   3.009   0.783  2.7904 -0.8513  1.2104
   37MOL0     H 4964   3.679   2.910   0.669  1.0767 -2.4610 -2.5879
   37MOL0     H 4965   3.861   2.780   0.875  0.1710  3.1260 -0.1293
   37MOL0     H 4966   3.765   2.696   0.757 -0.4944  1.2685 -1.7034
   37MOL0     H 4967   3.646   2.878   0.954 -1.6974  0.7502 -2.0054
   37MOL0     H 4968   3.676   2.708   0.993 -0.1456 -0.1909 -0.5275
   37MOL0     H 4969   3.478   2.835   0.779  0.2018 -0.2139 -1.1622
   37MOL0     H 4970   3.541   2.663   0.755  0.0200  0.7903 -0.1493
   37MOL0     H 4971   3.374   2.802   0.966 -1.6977 -0.5115 -1.6799
   37MOL0     H 4972   3.461   2.647   1.003 -1.2227 -0.5153  1.0021
   37MOL0     H 4973   3.223   2.660   0.813 -0.5750 -0.7251 -0.8778
   37MOL0     H 4974   3.319   2.524   0.841 -1.9362  0.3869 -2.3280
   37MOL0     H 4975   4.136   3.147   0.257  3.7476  1.5796 -1.7350
   37MOL0     H 4976   4.317   3.297   0.257  0.2124 -0.9938 -0.2620
   37MOL0     H 4977   4.663   3.458   0.555  2.8189 -1.1985  2.7602
   37MOL0     H 4978   4.838   3.590   0.663  1.1991  2.7725 -1.1811
   37MOL0     H 4979   3.751   3.021   1.074  3.0094  0.3408  1.0298
   37MOL0     H 4980   3.610   2.883   1.216 -0.3487  0.7754 -1.0222
   37MOL0     H 4981   3.406   2.907   1.650 -0.5554 -2.4692  2.1425
   37MOL0     H 4982   3.302   2.835   1.847  1.1113  1.9462  0.7790
   37MOL0     H 4983   2.852   2.861   1.859 -4.8569 -3.8412  0.4603
   37MOL0     H 4984   2.901   2.789   2.009 -2.1060 -0.1514  0.2994
   37MOL0     H 4985   2.908   2.621   1.757 -2.1624 -0.8934 -1.1000
   37MOL0     H 4986   2.748   2.680   1.826 -0.4476 -1.0319  1.5567
   37MOL0     H 4987   2.815   2.561   2.033 -0.4536 -0.0604  0.2488
   37MOL0     H 4988   2.964   2.511   1.966  0.7769 -1.0182 -2.2198
   37MOL0     H 4989   2.685   2.413   1.854 -1.9456 -2.5265 -0.8292
   37MOL0     H 4990   2.839   2.386   1.774  0.0555 -1.4766  0.4525
   37MOL0     H 4991   2.898   2.142   2.105  0.8085  1.2237  1.6860
   37MOL0     H 4992   2.931   2.822   1.628  0.4829 -1.6566  1.0460
   37MOL0     H 4993   3.057   2.776   1.304  0.9788  2.0032 -2.1075
   37MOL0     H 4994   2.917   2.787   1.421  0.5097 -0.5784  0.9604
   37MOL0     H 4995   2.982   2.926   1.335  1.5138  0.4383  0.1713
   38MOL0     O 4996  10.162   4.565   2.500  0.0072  0.5349  0.6743
   38MOL0     C 4997  10.092   4.595   2.597 -0.2445 -0.2653 -0.2068
   38MOL0     O 4998  10.001   4.518   2.648  0.4737  0.3340  0.9513
   38MOL0     C 4999   9.998   4.387   2.611  0.9245 -0.4052 -0.0061
   38MOL0     C 5000  10.108   4.306   2.589  0.1365 -0.6305 -0.8724
   38MOL0     C 5001  10.091   4.171   2.554 -0.8147 -0.4894  0.8210
   38MOL0     C 5002   9.963   4.127   2.514 -0.2095  0.1503 -1.0873
   38MOL0     O 5003   9.957   4.004   2.455  0.2291 -0.3253 -0.0078
   38MOL0     C 5004   9.834   3.963   2.391 -0.4958 -0.0671 -0.5184
   38MOL0     C 5005   9.848   3.833   2.317 -0.2250  0.7518 -0.0728
   38MOL0     C 5006   9.951   3.829   2.203 -0.0380 -0.1306 -0.1600
   38MOL0     C 5007   9.925   3.935   2.094  0.5514  0.7041  0.1586
   38MOL0     C 5008   9.991   3.892   1.960 -0.1927  0.3626 -0.5930
   38MOL0     C 5009   9.902   3.786   1.884 -0.8274 -0.6627  0.4510
   38MOL0     C 5010   9.989   3.702   1.791  0.7931 -0.1687 -0.1718
   38MOL0     C 5011  10.034   3.798   1.677 -0.5615  0.1918 -0.1125
   38MOL0     N 5012   9.921   3.852   1.593 -0.0565 -0.1212 -0.1359
   38MOL0     C 5013   9.822   3.769   1.539  0.5755  0.2678  0.1158
   38MOL0     C 5014   9.731   3.857   1.491  0.3973  0.3268  0.6180
   38MOL0     C 5015   9.607   3.823   1.419  0.6250 -0.0986  0.6358
   38MOL0     C 5016   9.632   3.840   1.259  0.0629  0.0260 -0.4477
   38MOL0     C 5017   9.503   3.816   1.173  0.0630 -0.0333 -0.6266
   38MOL0     C 5018   9.523   3.713   1.052  1.0854 -0.7520 -0.0991
   38MOL0     O 5019   9.554   3.584   1.118 -0.5512 -0.1535  0.6284
   38MOL0     C 5020   9.603   3.492   1.026 -0.9550  0.4404  0.4016
   38MOL0     C 5021   9.599   3.499   0.886  0.5321 -0.7705 -0.5094
   38MOL0     C 5022   9.649   3.403   0.800  0.5469 -0.8051  0.8217
   38MOL0     C 5023   9.698   3.289   0.852  0.3213 -0.6049 -0.8232
   38MOL0     C 5024   9.751   3.178   0.763 -0.1552 -0.5611 -0.0897
   38MOL0     O 5025   9.701   3.169   0.639 -0.4569  0.5222  0.4033
   38MOL0     C 5026   9.733   3.060   0.567 -0.8674 -0.2869  0.3470
   38MOL0     C 5027   9.670   2.934   0.587  0.0342  0.4707  0.2934
   38MOL0     C 5028   9.696   2.821   0.501  0.0389 -0.6362  0.0772
   38MOL0     C 5029   9.789   2.829   0.394  0.0758  0.1098 -0.1681
   38MOL0     O 5030   9.815   2.716   0.320 -0.4194 -0.0173  0.1146
   38MOL0     C 5031   9.945   2.712   0.251  0.3672 -0.8262 -0.2133
   38MOL0     C 5032   9.969   2.568   0.194 -0.0956  0.6548 -0.1802
   38MOL0     C 5033  10.107   2.527   0.139 -1.4296  0.4378 -0.5642
   38MOL0     C 5034  10.100   2.374   0.150 -1.2975  1.0457 -0.7224
   38MOL0     C 5035  10.208   2.304   0.061  0.4336  0.7339  0.2829
   38MOL0     C 5036  10.351   2.349   0.088 -0.5842 -0.9632 -0.7064
   38MOL0     C 5037  10.397   2.338   0.236  0.0657 -0.2557 -0.4707
   38MOL0     C 5038  10.356   2.199   0.286  0.5151 -0.6405 -0.4061
   38MOL0    Cl 5039  10.439   2.070   0.185  0.0945  0.2180 -0.4255
   38MOL0     C 5040   9.852   2.950   0.371 -0.1916 -1.1896 -1.4198
   38MOL0     C 5041   9.824   3.062   0.457  0.7596 -0.2341  0.3632
   38MOL0     O 5042   9.830   3.097   0.808  0.0715  0.3570 -0.6207
   38MOL0     C 5043   9.699   3.268   0.996 -0.9304  0.6973 -0.5372
   38MOL0     C 5044   9.651   3.372   1.075  0.0274 -0.2681  0.2677
   38MOL0     N 5045   9.776   3.981   1.514 -1.4588 -0.0623  0.8129
   38MOL0     N 5046   9.884   3.982   1.585 -0.3480 -0.3580 -0.0989
   38MOL0     C 5047   9.849   4.201   2.536 -0.3194 -0.8059  0.2164
   38MOL0     C 5048   9.873   4.331   2.585 -0.2792  0.0494  0.1845
   38MOL0     C 5049  10.095   4.739   2.645  0.1345 -0.2276  0.6002
   38MOL0     C 5050  10.118   4.741   2.783  0.5531  0.1417  0.5453
   38MOL0     C 5051  10.134   4.862   2.848 -0.7420 -0.4708  0.1652
   38MOL0     C 5052  10.135   4.982   2.774  0.6052 -0.0568  0.1690
   38MOL0     O 5053  10.166   5.099   2.842 -0.8246  0.1679  0.9251
   38MOL0     C 5054  10.132   5.227   2.778  0.0106  0.6623  0.4111
   38MOL0     C 5055   9.986   5.246   2.777  0.6236  0.4718  0.6570
   38MOL0     C 5056   9.930   5.340   2.669  0.3787  0.2408  0.9003
   38MOL0     C 5057   9.903   5.273   2.533 -0.2596 -0.1942 -0.2898
   38MOL0     C 5058   9.957   5.351   2.429 -0.0546  0.4392 -0.4577
   38MOL0     C 5059  10.019   5.431   2.367  0.6031 -0.7536  0.1204
   38MOL0     C 5060  10.117   4.980   2.635 -0.1552  0.4512  0.0766
   38MOL0     C 5061  10.109   4.855   2.568  1.2965 -0.2209  0.2706
   38MOL0     C 5062  10.101   4.853   2.424 -0.6946 -0.1452 -0.7244
   38MOL0     H 5063  10.211   4.335   2.602 -0.8110  2.4211  0.8493
   38MOL0     H 5064  10.186   4.118   2.563  0.3345  1.6433  2.2520
   38MOL0     H 5065   9.768   3.959   2.477  1.6163  2.0208  1.3469
   38MOL0     H 5066   9.808   4.039   2.316  1.7725 -0.2884 -1.6438
   38MOL0     H 5067   9.752   3.798   2.279 -0.6726  0.8700  0.9262
   38MOL0     H 5068   9.873   3.762   2.396 -1.4126  0.7131  0.2852
   38MOL0     H 5069   9.946   3.729   2.160 -3.3132  0.5689 -1.7293
   38MOL0     H 5070  10.053   3.846   2.237  0.5895 -0.5382 -1.7594
   38MOL0     H 5071   9.817   3.948   2.092  0.0341 -2.6753  0.6286
   38MOL0     H 5072   9.974   4.028   2.125  0.9601  0.6818 -0.3972
   38MOL0     H 5073  10.011   3.979   1.897 -1.3563  3.1723  2.6669
   38MOL0     H 5074  10.090   3.851   1.982 -1.2694 -2.5771 -0.6914
   38MOL0     H 5075   9.856   3.721   1.960 -4.2557  3.5836  2.4432
   38MOL0     H 5076   9.831   3.856   1.839  2.5071  1.5035 -1.8763
   38MOL0     H 5077   9.939   3.612   1.753 -0.3317  0.3584  0.0076
   38MOL0     H 5078  10.071   3.668   1.855  0.9684 -1.2004 -0.9088
   38MOL0     H 5079  10.090   3.885   1.711 -0.4466  0.0066  0.1642
   38MOL0     H 5080  10.097   3.737   1.612 -0.4619  1.0248 -0.8330
   38MOL0     H 5081   9.822   3.661   1.532  0.2636  0.3439 -1.2273
   38MOL0     H 5082   9.575   3.719   1.434 -3.6720  0.8606 -0.4363
   38MOL0     H 5083   9.521   3.883   1.448  0.1908  0.1697 -1.1064
   38MOL0     H 5084   9.669   3.939   1.229 -1.5005  0.4756 -0.9833
   38MOL0     H 5085   9.708   3.771   1.220 -1.6066 -1.0884 -1.8715
   38MOL0     H 5086   9.478   3.915   1.133  4.6988  1.4749 -0.4146
   38MOL0     H 5087   9.423   3.782   1.240  2.5770 -0.3869  2.4019
   38MOL0     H 5088   9.604   3.738   0.983 -1.5531 -1.8379 -3.9336
   38MOL0     H 5089   9.430   3.709   0.995 -0.2131 -0.4573  1.8835
   38MOL0     H 5090   9.545   3.580   0.838 -0.5243  0.5534  2.6437
   38MOL0     H 5091   9.640   3.420   0.693 -1.9587  3.3459  1.4526
   38MOL0     H 5092   9.598   2.929   0.668 -1.5078  2.0039 -0.9007
   38MOL0     H 5093   9.640   2.729   0.514  1.2330 -1.4196 -0.1545
   38MOL0     H 5094   9.961   2.789   0.174  1.7207  2.7751  3.3200
   38MOL0     H 5095  10.028   2.744   0.315 -1.1625 -0.6473  1.7517
   38MOL0     H 5096   9.941   2.500   0.275 -1.4985  0.2198 -0.9923
   38MOL0     H 5097   9.892   2.547   0.119  0.9416  0.1230 -1.1229
   38MOL0     H 5098  10.113   2.570   0.039 -3.3566 -1.3895 -1.5634
   38MOL0     H 5099  10.184   2.551   0.213 -1.8404 -0.9928  0.3787
   38MOL0     H 5100   9.996   2.341   0.135 -1.7473  0.8662  2.1160
   38MOL0     H 5101  10.121   2.335   0.251 -0.9934 -1.0021 -1.5183
   38MOL0     H 5102  10.187   2.333  -0.042  0.7019  1.2563  0.3688
   38MOL0     H 5103  10.197   2.195   0.060 -2.5003  0.8065 -4.1183
   38MOL0     H 5104  10.415   2.275   0.039 -0.6291 -0.8077 -1.0059
   38MOL0     H 5105  10.369   2.450   0.050  0.1476 -0.7406  0.1984
   38MOL0     H 5106  10.368   2.425   0.296 -1.9248 -2.8092  2.5832
   38MOL0     H 5107  10.506   2.342   0.228  0.0463 -2.2673 -3.1064
   38MOL0     H 5108  10.380   2.190   0.392 -1.7765 -1.9929  0.0460
   38MOL0     H 5109  10.248   2.185   0.288 -0.0410  2.5047 -1.7651
   38MOL0     H 5110   9.922   2.961   0.290  2.2280 -0.3490  0.6473
   38MOL0     H 5111   9.879   3.153   0.435  0.2466  0.3961  1.5666
   38MOL0     H 5112   9.753   3.180   1.028 -1.4614  0.9038  1.0337
   38MOL0     H 5113   9.664   3.356   1.182  0.3704 -3.3119 -0.1480
   38MOL0     H 5114   9.745   4.188   2.506  0.0730 -0.5542 -1.3056
   38MOL0     H 5115   9.800   4.412   2.588  2.8615  3.2106  4.9251
   38MOL0     H 5116  10.121   4.652   2.846 -4.4273  0.2668  1.3938
   38MOL0     H 5117  10.146   4.853   2.955 -2.7265 -0.7819  0.4113
   38MOL0     H 5118  10.173   5.231   2.677 -1.0258 -0.8978 -0.1124
   38MOL0     H 5119  10.178   5.301   2.845  0.3567 -0.0334  0.9619
   38MOL0     H 5120   9.956   5.284   2.875 -0.2260 -0.7278  0.8812
   38MOL0     H 5121   9.937   5.148   2.783  1.3127  0.1442  1.0196
   38MOL0     H 5122   9.990   5.431   2.673  0.6565  0.2921 -2.2795
   38MOL0     H 5123   9.833   5.372   2.709  0.6053  0.3298  1.3884
   38MOL0     H 5124   9.944   5.171   2.538 -4.1511 -1.8810  2.9057
   38MOL0     H 5125   9.796   5.255   2.520 -0.2513  0.1642 -0.9213
   38MOL0     H 5126  10.060   5.510   2.307  0.2960  2.3629  3.6733
   38MOL0     H 5127  10.128   5.069   2.573 -3.1258 -1.2271 -3.2335
   38MOL0     H 5128  10.196   4.880   2.378  0.8055 -0.4963  1.9569
   38MOL0     H 5129  10.075   4.753   2.389 -1.5345 -0.4892  0.7858
   38MOL0     H 5130  10.022   4.922   2.395 -1.9702 -0.4387  1.8161
   39MOL0     O 5131   2.631   0.017  11.416 -0.3728 -0.1690  0.0546
   39MOL0     C 5132   2.536   0.028  11.497  0.7841 -0.2240  0.6279
   39MOL0     O 5133   2.532   0.117  11.602  0.2437 -0.0603 -0.1876
   39MOL0     C 5134   2.635   0.211  11.606 -0.1781 -0.2595 -0.0860
   39MOL0     C 5135   2.644   0.323  11.524 -0.0514  0.5853  0.3784
   39MOL0     C 5136   2.766   0.390  11.517  0.3580  0.0273  0.1957
   39MOL0     C 5137   2.877   0.360  11.592  0.2601 -0.0857  0.7588
   39MOL0     O 5138   2.984   0.450  11.584 -0.2775  0.5130 -0.1714
   39MOL0     C 5139   3.101   0.414  11.666  0.2390  0.2755  0.2758
   39MOL0     C 5140   3.204   0.529  11.671 -0.4504 -0.8079 -0.1120
   39MOL0     C 5141   3.274   0.538  11.535 -0.1077  0.2564 -0.3470
   39MOL0     C 5142   3.359   0.664  11.542 -1.0528  0.4537 -0.4953
   39MOL0     C 5143   3.453   0.666  11.424 -0.3171  0.6230 -0.4925
   39MOL0     C 5144   3.591   0.611  11.451  0.9982  0.1100  0.2451
   39MOL0     C 5145   3.586   0.467  11.501 -0.5512  0.3957  0.6507
   39MOL0     C 5146   3.719   0.406  11.492 -0.8356 -0.1516 -0.6487
   39MOL0     N 5147   3.833   0.494  11.526 -0.9101 -0.1884  0.1453
   39MOL0     C 5148   3.941   0.529  11.449  0.4346 -0.1842  0.4697
   39MOL0     C 5149   4.008   0.614  11.528 -0.7587 -0.5102 -0.9713
   39MOL0     C 5150   4.132   0.682  11.473  0.2664  0.2870 -0.0690
   39MOL0     C 5151   4.254   0.590  11.495  1.4529  0.3415  0.4945
   39MOL0     C 5152   4.376   0.673  11.452 -0.6264 -0.5549 -0.7131
   39MOL0     C 5153   4.516   0.600  11.454 -0.2651  0.2313 -0.0503
   39MOL0     O 5154   4.577   0.611  11.591 -0.3305 -0.3730 -0.4150
   39MOL0     C 5155   4.667   0.714  11.617 -1.2271 -0.5044  0.0699
   39MOL0     C 5156   4.721   0.701  11.740 -0.1529  0.5844 -1.1764
   39MOL0     C 5157   4.815   0.795  11.787 -0.0092  0.6283  0.4893
   39MOL0     C 5158   4.858   0.900  11.705  0.0141 -0.7955  0.1259
   39MOL0     C 5159   4.956   1.001  11.754  0.3814 -0.1395 -0.8526
   39MOL0     O 5160   5.036   0.973  11.858  0.1442 -0.3386 -0.6601
   39MOL0     C 5161   5.137   1.066  11.877  0.0727 -1.2032 -0.2780
   39MOL0     C 5162   5.133   1.146  11.982 -0.5841  0.4280  0.6494
   39MOL0     C 5163   5.235   1.223  12.020  0.0349  0.0354  0.2986
   39MOL0     C 5164   5.351   1.232  11.931  1.3140 -0.0260 -0.6816
   39MOL0     O 5165   5.457   1.308  11.942  0.1065  0.0869  0.0717
   39MOL0     C 5166   5.495   1.327  12.074 -0.0542 -0.0286  0.6065
   39MOL0     C 5167   5.634   1.385  12.069  0.9642  0.1914  1.0266
   39MOL0     C 5168   5.640   1.520  11.999  0.7110  0.9215 -0.3380
   39MOL0     C 5169   5.780   1.573  11.997 -0.0223 -0.7407  0.1274
   39MOL0     C 5170   5.793   1.710  11.926 -0.1028 -0.7690 -0.2250
   39MOL0     C 5171   5.933   1.773  11.964 -0.1515 -0.6053 -0.5868
   39MOL0     C 5172   5.933   1.922  11.917  0.4289  0.3008 -0.0505
   39MOL0     C 5173   6.072   1.981  11.932  0.2601 -0.8873  0.5088
   39MOL0    Cl 5174   6.143   1.963  12.090 -0.4055 -0.5714  0.7258
   39MOL0     C 5175   5.344   1.158  11.813  0.0564 -0.4423  0.2552
   39MOL0     C 5176   5.243   1.068  11.788 -0.6854  1.0935 -0.2929
   39MOL0     O 5177   4.970   1.097  11.682 -0.5583  0.3639 -0.4324
   39MOL0     C 5178   4.792   0.913  11.576  0.8566 -1.1142  0.4426
   39MOL0     C 5179   4.704   0.822  11.532 -0.0646 -0.7698 -0.5697
   39MOL0     N 5180   3.956   0.623  11.652  0.9156 -0.6583 -0.7937
   39MOL0     N 5181   3.844   0.562  11.642  0.4424  0.8229  0.0684
   39MOL0     C 5182   2.875   0.246  11.678 -0.2964  1.1602  0.1966
   39MOL0     C 5183   2.754   0.170  11.686 -0.9508 -0.0664 -0.4750
   39MOL0     C 5184   2.430  -0.064  11.486  0.3805 -0.2271  0.5194
   39MOL0     C 5185   2.404  -0.128  11.602  0.3391  0.9998  0.5047
   39MOL0     C 5186   2.301  -0.227  11.611 -0.1155  0.1483 -0.0402
   39MOL0     C 5187   2.232  -0.263  11.495  0.2623  0.1322 -0.0585
   39MOL0     O 5188   2.124  -0.353  11.513  0.3486 -0.8749  0.5990
   39MOL0     C 5189   2.071  -0.401  11.391  0.5265  0.2952  0.5455
   39MOL0     C 5190   1.945  -0.485  11.422 -0.0414 -0.1777 -0.3751
   39MOL0     C 5191   1.822  -0.448  11.332  1.4596 -0.5007 -0.9256
   39MOL0     C 5192   1.699  -0.484  11.415  0.5379  0.2164 -0.3869
   39MOL0     C 5193   1.662  -0.632  11.417 -0.0341 -0.2222  0.3319
   39MOL0     C 5194   1.638  -0.748  11.416  0.2600  0.3498  0.2564
   39MOL0     C 5195   2.279  -0.210  11.373  0.5818  0.5711  0.3664
   39MOL0     C 5196   2.366  -0.097  11.373  0.4156  0.6129 -0.3162
   39MOL0     C 5197   2.389  -0.022  11.245 -0.4525 -0.1426  0.2069
   39MOL0     H 5198   2.555   0.354  11.468 -0.1563  1.5057  1.0376
   39MOL0     H 5199   2.770   0.482  11.459  0.5920 -0.1240 -0.0306
   39MOL0     H 5200   3.073   0.389  11.769 -0.9091  0.8773  0.1278
   39MOL0     H 5201   3.143   0.328  11.612  1.2356  1.6415 -1.2252
   39MOL0     H 5202   3.274   0.512  11.753 -0.2093 -1.2431 -0.4039
   39MOL0     H 5203   3.155   0.623  11.696  0.6182 -0.7997  2.2096
   39MOL0     H 5204   3.193   0.550  11.462 -0.6056  1.1798  0.3411
   39MOL0     H 5205   3.320   0.439  11.520 -3.9676 -1.8061  0.2626
   39MOL0     H 5206   3.286   0.745  11.541 -0.4715  0.9893 -0.4499
   39MOL0     H 5207   3.418   0.665  11.634 -2.3151 -1.0557  0.3774
   39MOL0     H 5208   3.411   0.607  11.343  3.4260 -0.3019 -1.9632
   39MOL0     H 5209   3.466   0.771  11.395 -0.0809  1.8498  3.4503
   39MOL0     H 5210   3.657   0.631  11.366 -0.2511  0.6484 -0.6313
   39MOL0     H 5211   3.625   0.679  11.530  0.6957 -1.7126  2.0130
   39MOL0     H 5212   3.521   0.408  11.437 -3.2155  1.7034  1.9729
   39MOL0     H 5213   3.563   0.468  11.608  0.2364  0.9875  0.8245
   39MOL0     H 5214   3.716   0.325  11.566  0.0058 -0.5549 -1.0375
   39MOL0     H 5215   3.742   0.366  11.393  2.2955  5.3639 -2.5589
   39MOL0     H 5216   3.962   0.494  11.349 -0.5710  1.3317 -0.3076
   39MOL0     H 5217   4.120   0.688  11.365 -0.7291 -1.0228 -0.0556
   39MOL0     H 5218   4.151   0.783  11.511  2.3462  0.4367 -1.3299
   39MOL0     H 5219   4.256   0.552  11.598  1.2037 -1.9129 -0.2669
   39MOL0     H 5220   4.236   0.511  11.421 -4.3971  2.1441 -0.5081
   39MOL0     H 5221   4.390   0.763  11.512  2.2550  0.2932 -2.4428
   39MOL0     H 5222   4.358   0.714  11.352 -2.3373  0.7492  0.0792
   39MOL0     H 5223   4.584   0.633  11.375 -1.1334 -3.0665 -2.3326
   39MOL0     H 5224   4.491   0.497  11.431 -1.7306  0.8322 -1.2641
   39MOL0     H 5225   4.686   0.629  11.813  0.8365  2.0894  0.8957
   39MOL0     H 5226   4.843   0.790  11.891 -0.6904 -3.0659  0.6183
   39MOL0     H 5227   5.035   1.141  12.028 -0.9721 -1.5195 -0.3126
   39MOL0     H 5228   5.220   1.293  12.102 -2.0951  2.4567 -1.9801
   39MOL0     H 5229   5.432   1.404  12.120 -0.6162  1.6543 -2.6933
   39MOL0     H 5230   5.494   1.240  12.140 -1.7533 -1.0425 -0.6777
   39MOL0     H 5231   5.670   1.400  12.171 -0.8709  1.3915  1.5318
   39MOL0     H 5232   5.699   1.313  12.018 -0.4210 -1.1013  1.0402
   39MOL0     H 5233   5.602   1.508  11.898  1.6801  2.3986 -0.9101
   39MOL0     H 5234   5.578   1.586  12.061  1.9455  3.3512 -1.5357
   39MOL0     H 5235   5.835   1.503  11.933  1.3331  2.7942 -2.9252
   39MOL0     H 5236   5.828   1.577  12.095  1.5288  1.5433 -0.6454
   39MOL0     H 5237   5.723   1.789  11.953  1.3668  0.6617 -0.4315
   39MOL0     H 5238   5.779   1.695  11.818  0.9765  1.6734 -0.7803
   39MOL0     H 5239   5.937   1.772  12.074 -1.2304  0.6664 -0.5083
   39MOL0     H 5240   6.011   1.716  11.913  0.5968  1.2743 -1.6402
   39MOL0     H 5241   5.865   1.971  11.987  0.3462  1.7796 -1.1335
   39MOL0     H 5242   5.894   1.938  11.816 -1.6474 -0.1714  0.6331
   39MOL0     H 5243   6.126   1.931  11.851 -0.7920 -2.2920  0.6345
   39MOL0     H 5244   6.069   2.090  11.916  2.5276 -0.3556  2.8616
   39MOL0     H 5245   5.428   1.163  11.744  1.8279  4.3722  2.3468
   39MOL0     H 5246   5.239   1.001  11.702 -3.5464 -0.9752  1.3111
   39MOL0     H 5247   4.810   1.000  11.514 -0.5519  0.3425  1.9725
   39MOL0     H 5248   4.642   0.843  11.446 -0.6679  0.8662  0.2118
   39MOL0     H 5249   2.963   0.214  11.734 -1.6092  0.2966  1.8887
   39MOL0     H 5250   2.762   0.089  11.757  0.3298  2.5567  2.6523
   39MOL0     H 5251   2.459  -0.105  11.693  0.8138  0.9605  0.2304
   39MOL0     H 5252   2.274  -0.274  11.705 -0.6711 -0.2404 -0.3859
   39MOL0     H 5253   2.143  -0.468  11.344 -0.0283 -1.5695  2.2006
   39MOL0     H 5254   2.041  -0.312  11.336 -1.2247 -1.4821 -1.5281
   39MOL0     H 5255   1.928  -0.465  11.528  1.6060 -0.2537 -0.0673
   39MOL0     H 5256   1.962  -0.593  11.409 -0.1399 -0.2802  0.2802
   39MOL0     H 5257   1.804  -0.499  11.237 -1.6303  1.2121 -1.3945
   39MOL0     H 5258   1.812  -0.345  11.299  1.3541 -0.7335 -1.6265
   39MOL0     H 5259   1.702  -0.450  11.519  0.7478  1.0115 -0.6508
   39MOL0     H 5260   1.618  -0.425  11.372 -1.2670 -0.0432  2.4063
   39MOL0     H 5261   1.619  -0.853  11.405 -0.2341  0.5042 -0.5155
   39MOL0     H 5262   2.231  -0.235  11.279  2.2987  0.6364 -0.5621
   39MOL0     H 5263   2.306  -0.042  11.177  0.3456 -0.5880 -0.6633
   39MOL0     H 5264   2.389   0.086  11.264  0.9701 -0.2307  0.8264
   39MOL0     H 5265   2.482  -0.048  11.194 -0.7978  0.6621 -0.8611
   40MOL0     O 5266   2.560  11.025   2.247 -0.3480  0.3829 -0.0849
   40MOL0     C 5267   2.574  11.030   2.367  0.0211  0.4780  0.1726
   40MOL0     O 5268   2.689  11.060   2.438  0.7601 -0.4435 -0.0529
   40MOL0     C 5269   2.799  11.091   2.358 -0.4141  0.2142 -0.3198
   40MOL0     C 5270   2.820  11.208   2.293 -0.2773 -0.2266  0.8768
   40MOL0     C 5271   2.929  11.221   2.223 -1.1504 -0.4026  0.3288
   40MOL0     C 5272   3.031  11.131   2.225 -0.2146 -0.4502  0.7911
   40MOL0     O 5273   3.140  11.159   2.149  0.3437 -0.7027  0.7505
   40MOL0     C 5274   3.234  11.059   2.117 -0.2357  0.3224  0.4360
   40MOL0     C 5275   3.354  11.123   2.043 -0.2267 -0.1073  0.1912
   40MOL0     C 5276   3.450  11.171   2.151  0.9352 -0.0313  0.9915
   40MOL0     C 5277   3.550  11.272   2.105 -0.0253  0.3568  0.6031
   40MOL0     C 5278   3.663  11.289   2.204 -0.5295 -0.0297  0.1453
   40MOL0     C 5279   3.621  11.374   2.328  0.1026 -0.0467  0.7327
   40MOL0     C 5280   3.728  11.386   2.441 -0.0800 -0.7262  1.5538
   40MOL0     C 5281   3.658  11.416   2.569 -0.5197  0.4011  0.7724
   40MOL0     N 5282   3.594  11.543   2.561  0.6668 -0.0536 -0.2066
   40MOL0     C 5283   3.465  11.576   2.522  0.7756 -0.9147 -0.6263
   40MOL0     C 5284   3.458  11.716   2.529 -0.1030 -1.6062 -0.6734
   40MOL0     C 5285   3.323  11.799   2.517  0.2000  0.5422  1.0107
   40MOL0     C 5286   3.279  11.874   2.645 -0.2390  0.5464  1.2494
   40MOL0     C 5287   3.139  11.940   2.630 -0.5692 -0.3216 -0.0593
   40MOL0     C 5288   3.113  12.036   2.738  0.9663 -0.0951  0.0922
   40MOL0     O 5289   3.213  12.147   2.757 -0.8196 -0.4862 -0.2099
   40MOL0     C 5290   3.231  12.244   2.656 -0.4643 -0.6711  0.0942
   40MOL0     C 5291   3.361  12.302   2.641  0.1203 -0.1886  0.3844
   40MOL0     C 5292   3.375  12.403   2.545  0.1118 -1.0092 -1.1556
   40MOL0     C 5293   3.267  12.464   2.473 -0.1440  1.0862 -1.2748
   40MOL0     C 5294   3.282  12.579   2.388 -0.9793  0.4183  0.8369
   40MOL0     O 5295   3.392  12.650   2.417  0.4263 -0.3771 -0.2821
   40MOL0     C 5296   3.414  12.767   2.339 -0.0437  0.0900  0.4445
   40MOL0     C 5297   3.498  12.772   2.230 -0.7539  0.0546 -0.1376
   40MOL0     C 5298   3.544  12.892   2.179 -0.4049 -0.1404 -0.3977
   40MOL0     C 5299   3.516  13.012   2.231 -0.0832  0.0239  0.3113
   40MOL0     O 5300   3.557  13.125   2.173 -0.7201 -0.5827  0.2484
   40MOL0     C 5301   3.473  13.245   2.180 -0.2639  0.6271  0.2248
   40MOL0     C 5302   3.515  13.336   2.064 -0.2258  0.1644  0.4033
   40MOL0     C 5303   3.481  13.478   2.098  0.2454  0.3149  0.8595
   40MOL0     C 5304   3.470  13.558   1.973  0.1638  0.2860  0.0763
   40MOL0     C 5305   3.437  13.710   2.000  0.6040 -0.1493  0.1200
   40MOL0     C 5306   3.472  13.787   1.868  0.3524  0.7437 -0.4228
   40MOL0     C 5307   3.475  13.936   1.904  1.1688  0.2756  0.2363
   40MOL0     C 5308   3.530  14.013   1.791  0.0238  0.1346 -0.1595
   40MOL0    Cl 5309   3.587  14.168   1.853 -0.1961 -0.0793  0.3403
   40MOL0     C 5310   3.435  13.010   2.350 -0.2286 -0.8529  0.2408
   40MOL0     C 5311   3.376  12.891   2.398  0.4145  0.0646  0.5230
   40MOL0     O 5312   3.208  12.602   2.293 -0.6084  0.1732  0.1495
   40MOL0     C 5313   3.140  12.399   2.498  0.0703  0.6638  0.3518
   40MOL0     C 5314   3.117  12.301   2.594 -0.0175  0.9411 -0.0721
   40MOL0     N 5315   3.580  11.762   2.569 -0.5066  0.5359  0.4195
   40MOL0     N 5316   3.657  11.661   2.578 -0.1773  0.5451  0.0687
   40MOL0     C 5317   3.010  11.007   2.296  0.1007  0.2931 -0.0401
   40MOL0     C 5318   2.894  10.992   2.364 -0.1022 -0.3854 -0.9706
   40MOL0     C 5319   2.454  10.997   2.442 -0.0422 -0.5426  0.3932
   40MOL0     C 5320   2.469  10.889   2.518  0.1930 -0.6121  0.0606
   40MOL0     C 5321   2.369  10.862   2.620  0.2561  0.0354  0.2661
   40MOL0     C 5322   2.249  10.940   2.615  0.3261  0.3285  0.0058
   40MOL0     O 5323   2.140  10.914   2.701  0.3094  0.5707 -0.7217
   40MOL0     C 5324   2.162  10.844   2.833 -0.0282  0.5232 -0.0245
   40MOL0     C 5325   2.070  10.891   2.942 -0.5023 -1.0513  0.2294
   40MOL0     C 5326   1.925  10.876   2.908 -0.8096 -0.7440 -0.3050
   40MOL0     C 5327   1.836  10.915   3.026  0.2752 -0.8987  0.4953
   40MOL0     C 5328   1.856  10.820   3.136  0.0251 -0.3776 -0.0048
   40MOL0     C 5329   1.904  10.770   3.230  0.6003  0.4074 -0.9897
   40MOL0     C 5330   2.236  11.048   2.524  0.5406  0.2864  0.2521
   40MOL0     C 5331   2.338  11.078   2.422 -0.5130 -0.2287  1.2167
   40MOL0     C 5332   2.330  11.201   2.342  0.6597  0.0956 -0.3532
   40MOL0     H 5333   2.758  11.297   2.302  0.4563  0.6617 -1.6834
   40MOL0     H 5334   2.946  11.304   2.155  0.2806 -0.7680  0.2226
   40MOL0     H 5335   3.268  10.998   2.200  1.6958 -5.4917 -3.9279
   40MOL0     H 5336   3.188  10.993   2.043  0.9361 -1.0016  0.8546
   40MOL0     H 5337   3.317  11.208   1.984  0.9318 -0.1633 -0.6551
   40MOL0     H 5338   3.416  11.052   1.987  0.3855 -0.5298  1.3646
   40MOL0     H 5339   3.501  11.084   2.193  1.5839 -0.5658 -0.8103
   40MOL0     H 5340   3.382  11.218   2.223 -2.3313 -1.0432 -1.1957
   40MOL0     H 5341   3.589  11.232   2.011 -0.5968 -3.6475  1.8523
   40MOL0     H 5342   3.507  11.370   2.084 -0.3286  0.1814  0.3987
   40MOL0     H 5343   3.704  11.196   2.245  0.3970  0.4492  0.3259
   40MOL0     H 5344   3.751  11.341   2.166  0.9765 -0.4376  2.8264
   40MOL0     H 5345   3.607  11.478   2.300 -1.7004 -0.4122  0.1844
   40MOL0     H 5346   3.523  11.348   2.368 -2.5993  1.4847 -4.1295
   40MOL0     H 5347   3.795  11.471   2.422 -1.6967  0.4893  1.0774
   40MOL0     H 5348   3.781  11.290   2.448  2.4157  0.6204  2.3778
   40MOL0     H 5349   3.587  11.334   2.584  2.2565 -2.2029  0.7187
   40MOL0     H 5350   3.729  11.409   2.653  0.3067  2.2927  0.2995
   40MOL0     H 5351   3.378  11.511   2.523  0.3391 -0.3340  0.2068
   40MOL0     H 5352   3.353  11.862   2.433  1.4985  2.9324  3.1281
   40MOL0     H 5353   3.241  11.730   2.495  0.7724  0.6377 -1.8045
   40MOL0     H 5354   3.273  11.815   2.737 -2.0318  0.3195  1.0237
   40MOL0     H 5355   3.350  11.957   2.652 -0.0328  0.4191  0.7570
   40MOL0     H 5356   3.062  11.862   2.634  1.1135 -2.0237  1.9277
   40MOL0     H 5357   3.140  11.989   2.533 -2.3728 -1.5737 -0.7679
   40MOL0     H 5358   3.119  11.979   2.831  1.1975 -2.8118 -1.4799
   40MOL0     H 5359   3.019  12.083   2.709  1.9708  1.0948 -1.4479
   40MOL0     H 5360   3.441  12.256   2.699  0.5188  1.3289  1.0808
   40MOL0     H 5361   3.470  12.452   2.525 -0.5928  0.9189 -0.0444
   40MOL0     H 5362   3.506  12.678   2.176 -1.2499  0.2708 -0.5975
   40MOL0     H 5363   3.610  12.885   2.093  1.5027  0.0068  0.9840
   40MOL0     H 5364   3.367  13.220   2.169 -0.0618  0.3797 -1.2976
   40MOL0     H 5365   3.482  13.296   2.276 -3.2541  1.0910  0.3593
   40MOL0     H 5366   3.623  13.327   2.049 -0.7879 -1.5708 -3.8128
   40MOL0     H 5367   3.460  13.307   1.974  3.5618  1.1903 -2.4856
   40MOL0     H 5368   3.385  13.491   2.149 -1.8710 -1.5027 -2.2777
   40MOL0     H 5369   3.551  13.519   2.170 -1.0001 -0.6021  2.6624
   40MOL0     H 5370   3.399  13.523   1.898  0.4581  0.7815 -0.4466
   40MOL0     H 5371   3.569  13.552   1.927  0.4349 -1.5641  0.8076
   40MOL0     H 5372   3.497  13.750   2.083  0.3343  0.3358  0.0814
   40MOL0     H 5373   3.331  13.724   2.020  0.4778 -0.7189 -0.1452
   40MOL0     H 5374   3.572  13.757   1.836  0.9277  0.0890  1.7524
   40MOL0     H 5375   3.402  13.771   1.786  0.3694  0.7459 -0.4376
   40MOL0     H 5376   3.524  13.965   1.997 -2.8112  1.1711  2.2525
   40MOL0     H 5377   3.373  13.962   1.933  1.0564 -3.7177  4.6288
   40MOL0     H 5378   3.605  13.958   1.734  1.5224 -0.0948  1.9418
   40MOL0     H 5379   3.453  14.039   1.718  0.9169  0.3922 -1.0199
   40MOL0     H 5380   3.408  13.094   2.413 -3.5405 -2.0090  0.5265
   40MOL0     H 5381   3.314  12.901   2.486 -0.1647 -2.1065  0.4059
   40MOL0     H 5382   3.056  12.447   2.449  0.6203  0.6170 -0.6758
   40MOL0     H 5383   3.018  12.271   2.625 -0.1059  0.6006 -0.6806
   40MOL0     H 5384   3.080  10.928   2.274 -0.1463  0.4534 -1.5236
   40MOL0     H 5385   2.878  10.899   2.417  1.8869 -0.5713 -0.6060
   40MOL0     H 5386   2.559  10.830   2.532  2.2136  2.2487  0.0120
   40MOL0     H 5387   2.381  10.786   2.696  0.6903 -1.7294 -1.4855
   40MOL0     H 5388   2.264  10.869   2.864 -0.6956  2.0665  1.0912
   40MOL0     H 5389   2.146  10.737   2.826 -3.0030  0.9922 -1.9650
   40MOL0     H 5390   2.085  10.996   2.968 -0.1183 -0.7820 -0.9798
   40MOL0     H 5391   2.104  10.831   3.026  1.5068 -0.8514 -0.3950
   40MOL0     H 5392   1.909  10.774   2.872  1.6398 -0.9651 -0.9207
   40MOL0     H 5393   1.908  10.950   2.828  0.0031 -1.2821 -0.9915
   40MOL0     H 5394   1.852  11.019   3.058  0.8481 -0.8735  0.1371
   40MOL0     H 5395   1.731  10.919   2.995  0.6914  2.6738 -0.9995
   40MOL0     H 5396   1.945  10.726   3.319 -0.9555  4.1056  1.8291
   40MOL0     H 5397   2.138  11.096   2.519 -0.8544 -2.3604  0.1969
   40MOL0     H 5398   2.352  11.189   2.235  1.7102 -1.7632  0.0167
   40MOL0     H 5399   2.232  11.249   2.347  1.6220  2.5502 -2.7062
   40MOL0     H 5400   2.404  11.268   2.385  0.7197  0.7112 -1.3832
   41MOL0     O 5401   6.263   2.217   2.796 -0.2717  1.0094 -0.0081
   41MOL0     C 5402   6.280   2.193   2.910  0.2614  0.5546  0.4938
   41MOL0     O 5403   6.234   2.262   3.018 -0.3519 -0.2682 -0.7150
   41MOL0     C 5404   6.123   2.335   2.994  0.6092 -0.1602 -0.6051
   41MOL0     C 5405   5.990   2.286   3.013 -0.5897 -0.0225 -1.0775
   41MOL0     C 5406   5.882   2.367   2.976 -0.7312  0.4666  0.1905
   41MOL0     C 5407   5.899   2.495   2.932 -1.1115 -1.3662 -1.4931
   41MOL0     O 5408   5.784   2.579   2.912 -0.0464 -0.4188 -0.8428
   41MOL0     C 5409   5.765   2.677   3.017  0.5877 -0.4155  0.1448
   41MOL0     C 5410   5.725   2.812   2.960 -0.2039  0.2952  0.7092
   41MOL0     C 5411   5.711   2.915   3.075  0.1673 -0.1767 -0.1598
   41MOL0     C 5412   5.667   3.053   3.029 -0.9560  0.0926  0.3887
   41MOL0     C 5413   5.511   3.052   3.003 -0.0942  0.8956  0.6164
   41MOL0     C 5414   5.447   3.185   2.985 -0.0582 -0.4445 -0.0605
   41MOL0     C 5415   5.292   3.182   2.967  0.9361  0.2022  0.1587
   41MOL0     C 5416   5.216   3.132   3.092 -0.9340  0.7863  0.2077
   41MOL0     N 5417   5.076   3.107   3.056 -0.5620  0.8983 -0.2711
   41MOL0     C 5418   5.026   3.052   2.933  0.1780 -0.3287 -0.5714
   41MOL0     C 5419   4.895   3.066   2.950  0.8468 -0.0321  0.0574
   41MOL0     C 5420   4.777   3.023   2.848 -0.5054  0.6990  1.4829
   41MOL0     C 5421   4.673   2.927   2.908  0.5906 -0.4862  0.1310
   41MOL0     C 5422   4.563   2.879   2.811  0.4187  0.3991  1.7525
   41MOL0     C 5423   4.463   2.775   2.884 -0.5978 -0.2639  0.2485
   41MOL0     O 5424   4.527   2.686   2.979 -0.0617  0.1491 -0.2104
   41MOL0     C 5425   4.614   2.595   2.935  1.0555  0.4505 -0.3220
   41MOL0     C 5426   4.613   2.538   2.808  0.6964  0.0896  0.0518
   41MOL0     C 5427   4.694   2.430   2.771 -0.1261  0.3009 -0.1531
   41MOL0     C 5428   4.800   2.396   2.855  0.8301 -0.7761 -0.9529
   41MOL0     C 5429   4.901   2.293   2.807  0.8088  0.2883  0.0817
   41MOL0     O 5430   4.951   2.191   2.887  0.6234 -0.2682  0.3144
   41MOL0     C 5431   5.049   2.115   2.839 -1.2316 -0.4303 -0.7903
   41MOL0     C 5432   5.163   2.081   2.915  0.0055 -0.6767  0.2542
   41MOL0     C 5433   5.261   1.994   2.853 -0.2841  0.7337 -0.1722
   41MOL0     C 5434   5.249   1.939   2.731 -0.2857 -0.5621  0.6426
   41MOL0     O 5435   5.344   1.856   2.669  0.5390  1.0481  0.2326
   41MOL0     C 5436   5.451   1.808   2.731 -0.0759  0.1845  0.6902
   41MOL0     C 5437   5.511   1.693   2.651  0.5043 -0.0531 -0.8392
   41MOL0     C 5438   5.660   1.674   2.708  0.4678  0.3116  0.2107
   41MOL0     C 5439   5.728   1.547   2.647  0.0296 -1.0785  0.1495
   41MOL0     C 5440   5.841   1.495   2.737 -0.2186  0.0246 -0.0990
   41MOL0     C 5441   5.794   1.367   2.821 -0.8012  0.8005 -0.5042
   41MOL0     C 5442   5.904   1.327   2.924 -0.2786 -0.4485  0.5248
   41MOL0     C 5443   5.891   1.183   2.981  0.7416 -0.0407  0.7021
   41MOL0    Cl 5444   5.732   1.135   3.037 -0.2152  0.3631 -0.0205
   41MOL0     C 5445   5.127   1.962   2.659 -2.0352 -0.5112  0.2085
   41MOL0     C 5446   5.026   2.050   2.712 -0.1935 -0.6622 -0.1281
   41MOL0     O 5447   4.925   2.310   2.687  0.9893 -0.4782  0.1225
   41MOL0     C 5448   4.804   2.452   2.986  0.1378  1.6530  0.1796
   41MOL0     C 5449   4.701   2.540   3.030  0.0629  0.4997  0.6026
   41MOL0     N 5450   4.859   3.114   3.076 -0.6293  1.1698  0.2329
   41MOL0     N 5451   4.973   3.136   3.135 -0.8053  0.5540  0.1018
   41MOL0     C 5452   6.035   2.550   2.931  0.6185  0.0910  0.7738
   41MOL0     C 5453   6.146   2.464   2.955  0.3421 -0.6568 -0.7227
   41MOL0     C 5454   6.373   2.090   2.940 -0.2323 -0.3213  0.1921
   41MOL0     C 5455   6.393   1.996   2.834  0.0534 -0.3163 -0.6355
   41MOL0     C 5456   6.485   1.887   2.849 -0.2454 -0.2893  0.6022
   41MOL0     C 5457   6.569   1.875   2.967 -0.3639 -0.3639 -0.6601
   41MOL0     O 5458   6.642   1.762   2.968  0.7216 -0.3580  0.3025
   41MOL0     C 5459   6.674   1.726   3.102 -0.6546  0.1372 -0.3651
   41MOL0     C 5460   6.751   1.593   3.108 -0.6497  1.0192  0.1658
   41MOL0     C 5461   6.820   1.569   3.234  0.1511 -0.2623  0.1732
   41MOL0     C 5462   6.903   1.437   3.224 -0.0420  0.7951 -0.7239
   41MOL0     C 5463   6.957   1.418   3.363  0.5309  0.1052 -0.1189
   41MOL0     C 5464   7.008   1.404   3.471  0.3839  0.4221  0.1680
   41MOL0     C 5465   6.563   1.980   3.065  0.1844  0.1972 -0.1993
   41MOL0     C 5466   6.464   2.084   3.053 -0.0361 -0.5636 -0.7535
   41MOL0     C 5467   6.480   2.196   3.150  0.1820  0.0051 -0.6372
   41MOL0     H 5468   5.973   2.189   3.058 -1.0333  1.0739  1.2831
   41MOL0     H 5469   5.777   2.342   2.980 -1.1130  2.0472  0.5200
   41MOL0     H 5470   5.682   2.641   3.078 -1.7070  1.5675 -1.6365
   41MOL0     H 5471   5.858   2.686   3.074  1.2811  0.1834 -1.0447
   41MOL0     H 5472   5.632   2.810   2.902  0.1260  1.5348  0.0919
   41MOL0     H 5473   5.799   2.848   2.889 -2.2173  1.0716 -1.1202
   41MOL0     H 5474   5.806   2.931   3.126  0.5421  0.9420 -1.1534
   41MOL0     H 5475   5.635   2.879   3.145  2.2770 -0.0654  2.3245
   41MOL0     H 5476   5.681   3.125   3.109 -1.4754  1.3515 -0.6190
   41MOL0     H 5477   5.704   3.089   2.932 -1.4795  1.8368  0.8121
   41MOL0     H 5478   5.481   2.983   2.923 -1.4764 -1.7184  3.2028
   41MOL0     H 5479   5.480   3.002   3.095  2.5903 -2.9717 -0.3114
   41MOL0     H 5480   5.480   3.241   3.073 -0.3584 -0.1850 -0.1139
   41MOL0     H 5481   5.487   3.231   2.894 -1.9478 -0.7869 -1.1014
   41MOL0     H 5482   5.272   3.120   2.879  0.2670  0.3959  0.1684
   41MOL0     H 5483   5.249   3.281   2.948  0.2210  0.0965  1.1614
   41MOL0     H 5484   5.244   3.034   3.132 -1.3726 -1.9013 -5.1269
   41MOL0     H 5485   5.216   3.207   3.172 -1.2744 -0.5126  1.4726
   41MOL0     H 5486   5.070   3.004   2.847 -1.4313  0.8741 -2.1593
   41MOL0     H 5487   4.742   3.120   2.813  2.9500  0.5396 -3.2953
   41MOL0     H 5488   4.834   2.980   2.765  0.7548  2.2847  1.4941
   41MOL0     H 5489   4.734   2.840   2.934  1.7134  0.2566  0.0612
   41MOL0     H 5490   4.636   2.968   3.002  0.4862  1.0383 -0.5505
   41MOL0     H 5491   4.622   2.841   2.727 -0.9666  1.1660  0.3771
   41MOL0     H 5492   4.507   2.961   2.765  1.1028  1.5606  2.9186
   41MOL0     H 5493   4.394   2.722   2.817  0.6642 -0.1058 -1.2329
   41MOL0     H 5494   4.390   2.827   2.946 -0.8654 -0.6810  0.2841
   41MOL0     H 5495   4.534   2.562   2.738  1.0558 -0.2711 -0.4890
   41MOL0     H 5496   4.678   2.374   2.679  0.7643 -1.3168  0.6391
   41MOL0     H 5497   5.175   2.121   3.015 -1.0387  4.2246 -1.3333
   41MOL0     H 5498   5.358   1.990   2.901 -1.0763  0.8776  1.5219
   41MOL0     H 5499   5.517   1.896   2.737 -0.2099  0.6799 -3.1011
   41MOL0     H 5500   5.432   1.773   2.833  1.6104 -4.4476 -0.3537
   41MOL0     H 5501   5.444   1.608   2.667  1.1474 -0.6718 -1.4039
   41MOL0     H 5502   5.512   1.719   2.545 -0.8145  1.9976 -0.4345
   41MOL0     H 5503   5.720   1.763   2.686 -0.5843  0.8900 -0.4202
   41MOL0     H 5504   5.657   1.665   2.817 -1.4890  0.2702  0.1855
   41MOL0     H 5505   5.759   1.581   2.548 -0.9493  0.7955  0.4331
   41MOL0     H 5506   5.657   1.465   2.628 -1.1209  0.2317 -1.4862
   41MOL0     H 5507   5.869   1.569   2.812 -0.5913  0.5279 -0.4519
   41MOL0     H 5508   5.920   1.459   2.671  2.0187 -0.8577  2.8407
   41MOL0     H 5509   5.702   1.390   2.875 -0.6052  2.3272 -0.7509
   41MOL0     H 5510   5.779   1.281   2.755  2.0851  0.8464 -1.3992
   41MOL0     H 5511   5.889   1.405   2.999 -0.9120  1.0742 -1.1250
   41MOL0     H 5512   6.005   1.324   2.882 -0.2121 -0.9933  0.7142
   41MOL0     H 5513   5.910   1.107   2.904  0.1954 -0.1871  0.7095
   41MOL0     H 5514   5.965   1.170   3.060  0.2546 -3.3750  0.7501
   41MOL0     H 5515   5.114   1.924   2.558 -0.9415 -1.1516  0.2989
   41MOL0     H 5516   4.937   2.078   2.657  0.0866  1.1858  0.3126
   41MOL0     H 5517   4.879   2.420   3.058 -1.4458 -1.8553  0.4570
   41MOL0     H 5518   4.695   2.581   3.130 -0.2720 -1.1158  1.2747
   41MOL0     H 5519   6.043   2.656   2.910 -4.8451  1.3908  3.3000
   41MOL0     H 5520   6.250   2.495   2.954  0.1989 -0.1742 -0.8274
   41MOL0     H 5521   6.338   1.998   2.740 -1.1980  3.1515  0.0259
   41MOL0     H 5522   6.521   1.826   2.766 -1.6287  1.6366 -1.5421
   41MOL0     H 5523   6.590   1.717   3.171  1.6055  0.0988  2.5421
   41MOL0     H 5524   6.736   1.807   3.142 -1.0848  0.1062  0.3741
   41MOL0     H 5525   6.840   1.598   3.043 -1.0167  1.7311 -0.2885
   41MOL0     H 5526   6.684   1.512   3.077  2.6704 -1.3502 -1.4792
   41MOL0     H 5527   6.740   1.562   3.308 -1.7057  2.0704 -1.4509
   41MOL0     H 5528   6.881   1.655   3.266 -1.1265  0.1469  1.6086
   41MOL0     H 5529   6.837   1.353   3.199 -1.0309  1.2743  0.1608
   41MOL0     H 5530   6.979   1.443   3.146  0.0112  2.1148 -0.5856
   41MOL0     H 5531   7.030   1.387   3.575 -0.2053  1.5833  0.4987
   41MOL0     H 5532   6.618   1.991   3.158 -1.8964  4.5565  0.7914
   41MOL0     H 5533   6.578   2.194   3.197  0.3063  2.4359 -0.6219
   41MOL0     H 5534   6.455   2.295   3.110 -0.6629  0.7302  1.5423
   41MOL0     H 5535   6.405   2.180   3.227 -2.3209  2.0175 -2.4587
   42MOL0     O 5536   0.575   8.128   2.976 -0.0773 -1.3598 -0.5686
   42MOL0     C 5537   0.613   8.046   2.893  0.2099 -0.2276  0.1783
   42MOL0     O 5538   0.581   7.917   2.902 -0.1151  0.3205 -1.1499
   42MOL0     C 5539   0.528   7.881   3.024  0.6976 -0.6035  0.3431
   42MOL0     C 5540   0.606   7.873   3.142 -0.0551 -0.2917 -0.2170
   42MOL0     C 5541   0.548   7.810   3.257  0.5776 -0.1512 -0.0030
   42MOL0     C 5542   0.432   7.747   3.245  0.1806 -0.3175 -0.2119
   42MOL0     O 5543   0.383   7.694   3.372 -0.0506  0.4015  0.7146
   42MOL0     C 5544   0.286   7.589   3.352  0.8837  0.0208  0.7715
   42MOL0     C 5545   0.299   7.486   3.465 -0.0270 -0.5169  0.5071
   42MOL0     C 5546   0.162   7.422   3.498 -0.8794  0.1157  0.0653
   42MOL0     C 5547   0.056   7.519   3.512  0.2579  0.5474  0.2754
   42MOL0     C 5548  -0.068   7.451   3.585 -0.3176 -0.0760 -0.7645
   42MOL0     C 5549  -0.054   7.436   3.736  0.5437 -0.4226  0.1676
   42MOL0     C 5550  -0.184   7.414   3.801 -0.2004  0.0540  0.2225
   42MOL0     C 5551  -0.167   7.326   3.927  0.9921  0.1007  0.2069
   42MOL0     N 5552  -0.295   7.313   3.999 -0.0230 -0.9273  0.3449
   42MOL0     C 5553  -0.309   7.299   4.141  0.1069 -0.2544  1.1974
   42MOL0     C 5554  -0.450   7.280   4.155  0.2839  0.0182 -0.1720
   42MOL0     C 5555  -0.525   7.232   4.287 -0.1334  0.0007  0.4960
   42MOL0     C 5556  -0.644   7.321   4.333  0.5019 -0.0065  0.0324
   42MOL0     C 5557  -0.764   7.308   4.232 -0.0241 -0.7228 -0.1347
   42MOL0     C 5558  -0.875   7.413   4.245  1.0587  0.0716 -0.6654
   42MOL0     O 5559  -0.982   7.366   4.157  0.0993  0.1370  0.3361
   42MOL0     C 5560  -1.022   7.447   4.056 -0.3928  0.3430 -0.2298
   42MOL0     C 5561  -1.157   7.476   4.034 -0.7884 -0.1076  0.6979
   42MOL0     C 5562  -1.192   7.551   3.916  0.2947  0.8316  0.1069
   42MOL0     C 5563  -1.088   7.609   3.837 -0.3615  0.5188 -0.3427
   42MOL0     C 5564  -1.129   7.686   3.725 -0.2598  0.0162 -0.2327
   42MOL0     O 5565  -1.023   7.732   3.638  0.0493  0.1075 -0.5498
   42MOL0     C 5566  -1.053   7.788   3.520  0.0024 -0.0378 -0.0832
   42MOL0     C 5567  -1.006   7.920   3.501  0.2614  0.8140  0.4897
   42MOL0     C 5568  -1.031   7.978   3.380 -0.4339 -0.4585 -0.2207
   42MOL0     C 5569  -1.096   7.921   3.273 -0.4729  0.4341  0.6700
   42MOL0     O 5570  -1.098   7.975   3.146  0.8240  0.3746  0.4162
   42MOL0     C 5571  -1.106   8.117   3.145 -0.3402 -0.3539  0.3687
   42MOL0     C 5572  -1.154   8.172   3.012 -0.3899  0.9485  0.6951
   42MOL0     C 5573  -1.286   8.106   2.965  1.1853  0.1664  0.5722
   42MOL0     C 5574  -1.356   8.168   2.842 -0.7253 -0.1949  0.0460
   42MOL0     C 5575  -1.501   8.140   2.845  0.9169 -0.3940  0.1072
   42MOL0     C 5576  -1.578   8.211   2.729  0.3081  0.1502 -0.0841
   42MOL0     C 5577  -1.536   8.162   2.589  0.9262 -0.9021 -0.2489
   42MOL0     C 5578  -1.646   8.215   2.478  0.1662 -0.4975  0.4846
   42MOL0    Cl 5579  -1.576   8.204   2.314  0.2315  0.1259 -0.0113
   42MOL0     C 5580  -1.131   7.789   3.287  0.7842 -0.1950 -0.1268
   42MOL0     C 5581  -1.116   7.726   3.409  0.0395  0.0326  0.0349
   42MOL0     O 5582  -1.253   7.707   3.706 -0.0595  0.3780 -0.1177
   42MOL0     C 5583  -0.959   7.568   3.862 -0.2031 -0.1442  0.7389
   42MOL0     C 5584  -0.922   7.493   3.969 -0.1247  0.7160 -0.0555
   42MOL0     N 5585  -0.498   7.302   4.031 -0.0981 -0.5868 -0.4437
   42MOL0     N 5586  -0.411   7.314   3.941  0.5319  0.3352  0.0897
   42MOL0     C 5587   0.355   7.753   3.127 -0.6862 -0.2781  0.1829
   42MOL0     C 5588   0.410   7.814   3.013  0.4351  0.1687 -0.9906
   42MOL0     C 5589   0.694   8.095   2.776 -0.2631  1.5241 -0.7391
   42MOL0     C 5590   0.712   8.229   2.752 -0.4390  0.3726 -0.7437
   42MOL0     C 5591   0.817   8.276   2.676 -0.0756  0.6943 -0.2270
   42MOL0     C 5592   0.905   8.195   2.603  0.3049  0.0623 -0.9995
   42MOL0     O 5593   1.004   8.253   2.533  0.0334 -0.1826 -0.1878
   42MOL0     C 5594   1.105   8.163   2.474  0.3835  0.0954 -0.2006
   42MOL0     C 5595   1.208   8.236   2.395 -0.2075 -0.3875  0.0555
   42MOL0     C 5596   1.301   8.319   2.484 -0.1773  0.1669 -0.2672
   42MOL0     C 5597   1.381   8.434   2.407  0.0343 -0.2002  0.1291
   42MOL0     C 5598   1.477   8.482   2.498  0.2972 -0.3800  0.3525
   42MOL0     C 5599   1.550   8.504   2.590  0.9125 -0.2479  0.6577
   42MOL0     C 5600   0.897   8.058   2.642  0.6094 -0.6949  0.5310
   42MOL0     C 5601   0.793   8.006   2.719 -0.3447  0.6709 -0.3960
   42MOL0     C 5602   0.817   7.856   2.753 -0.5132 -0.3344  0.3153
   42MOL0     H 5603   0.710   7.902   3.140 -0.5092  1.5096 -0.0727
   42MOL0     H 5604   0.598   7.816   3.354 -1.6866  0.9877  1.1819
   42MOL0     H 5605   0.194   7.647   3.342  1.3786  0.6671 -0.2238
   42MOL0     H 5606   0.279   7.541   3.254 -1.3969 -0.2085  0.9888
   42MOL0     H 5607   0.337   7.528   3.558 -0.3107 -3.3617  2.0232
   42MOL0     H 5608   0.376   7.414   3.434 -0.7667 -1.0549 -0.1305
   42MOL0     H 5609   0.180   7.354   3.582 -0.9234 -0.7165 -0.5737
   42MOL0     H 5610   0.134   7.353   3.418  0.9362 -1.3459  0.6059
   42MOL0     H 5611   0.093   7.612   3.556  0.4547 -0.7204  2.9994
   42MOL0     H 5612   0.023   7.534   3.409  2.6547 -1.4209 -0.8819
   42MOL0     H 5613  -0.157   7.511   3.561 -1.3578 -1.1497  0.2843
   42MOL0     H 5614  -0.081   7.349   3.550 -1.4719 -0.6094  1.0918
   42MOL0     H 5615   0.012   7.351   3.757 -0.6054 -2.2727 -2.8883
   42MOL0     H 5616  -0.004   7.524   3.778  1.2842 -0.8655  0.2404
   42MOL0     H 5617  -0.253   7.363   3.733 -1.6031  0.8674  0.9645
   42MOL0     H 5618  -0.227   7.505   3.845 -0.5531 -0.3938  0.8333
   42MOL0     H 5619  -0.124   7.229   3.904  0.0961  0.1199 -1.8229
   42MOL0     H 5620  -0.104   7.379   3.999  0.7812  1.7979 -0.7781
   42MOL0     H 5621  -0.232   7.308   4.217  2.4062  0.1327 -1.0335
   42MOL0     H 5622  -0.564   7.131   4.268  0.4240 -0.3929  1.3853
   42MOL0     H 5623  -0.453   7.227   4.369  0.9812  0.8285 -0.4097
   42MOL0     H 5624  -0.664   7.296   4.437 -1.1179  2.4581  0.4177
   42MOL0     H 5625  -0.610   7.425   4.330 -1.1108  0.5611  0.2234
   42MOL0     H 5626  -0.798   7.204   4.245  0.7020 -0.8163  1.2789
   42MOL0     H 5627  -0.723   7.311   4.131 -1.3275 -2.6792 -0.7771
   42MOL0     H 5628  -0.845   7.516   4.222 -2.1229  2.2961  3.6738
   42MOL0     H 5629  -0.918   7.412   4.346 -1.2058 -2.2664 -1.5637
   42MOL0     H 5630  -1.238   7.443   4.099 -0.2193 -1.3244  0.8136
   42MOL0     H 5631  -1.294   7.588   3.902  0.3073  0.0214 -2.7989
   42MOL0     H 5632  -0.951   7.945   3.591 -0.7077 -3.5987  2.5994
   42MOL0     H 5633  -0.980   8.072   3.360  2.3431 -1.8267 -0.0709
   42MOL0     H 5634  -1.172   8.154   3.224 -0.8694 -1.9682  0.7403
   42MOL0     H 5635  -1.009   8.167   3.153  1.1720 -2.5104 -2.4686
   42MOL0     H 5636  -1.168   8.280   3.011 -1.1189  0.8621 -0.3079
   42MOL0     H 5637  -1.074   8.144   2.944 -2.0610  2.1867 -1.9460
   42MOL0     H 5638  -1.266   8.000   2.948  4.0341  0.4593  1.6257
   42MOL0     H 5639  -1.348   8.107   3.055 -0.5349  0.5821 -0.5603
   42MOL0     H 5640  -1.318   8.125   2.749 -0.1563  2.3785 -1.0122
   42MOL0     H 5641  -1.337   8.276   2.832  1.8936 -0.6514 -0.5268
   42MOL0     H 5642  -1.551   8.176   2.935 -0.0466  1.8925 -1.2230
   42MOL0     H 5643  -1.531   8.035   2.847 -3.0331  0.5864  0.8064
   42MOL0     H 5644  -1.683   8.180   2.739 -0.1304  0.4203 -2.9982
   42MOL0     H 5645  -1.575   8.319   2.745 -3.0205 -0.1035  3.8923
   42MOL0     H 5646  -1.544   8.053   2.584 -1.5690 -0.7322 -1.1405
   42MOL0     H 5647  -1.435   8.192   2.562  1.2964  0.0032  1.9571
   42MOL0     H 5648  -1.742   8.163   2.490  1.1708 -2.0548  2.2697
   42MOL0     H 5649  -1.674   8.319   2.499  0.8918  0.0047 -0.9029
   42MOL0     H 5650  -1.172   7.732   3.204 -3.5370  0.1882  1.4695
   42MOL0     H 5651  -1.140   7.621   3.418 -0.4041  0.1757  0.5386
   42MOL0     H 5652  -0.881   7.604   3.795 -0.9027 -1.7473 -0.9955
   42MOL0     H 5653  -0.817   7.467   3.968 -0.5608 -1.6848  2.3602
   42MOL0     H 5654   0.258   7.704   3.120 -1.2714  0.7305  1.0803
   42MOL0     H 5655   0.361   7.819   2.916  0.9103  1.0553 -1.1934
   42MOL0     H 5656   0.642   8.299   2.797 -0.5834 -0.7380  0.8519
   42MOL0     H 5657   0.819   8.385   2.676  0.4937  0.7562  2.5375
   42MOL0     H 5658   1.050   8.096   2.407 -0.7212  2.4108 -1.7129
   42MOL0     H 5659   1.142   8.102   2.557 -0.4477  0.0334  0.1320
   42MOL0     H 5660   1.166   8.298   2.316  0.4365  0.8618  0.6497
   42MOL0     H 5661   1.281   8.166   2.353  4.3719  2.9035  1.7222
   42MOL0     H 5662   1.367   8.252   2.540 -2.5104  1.6303  4.8237
   42MOL0     H 5663   1.246   8.365   2.567 -0.8748 -0.3927 -0.4038
   42MOL0     H 5664   1.427   8.386   2.320  0.2577  1.4113 -0.6885
   42MOL0     H 5665   1.311   8.508   2.368 -0.8927 -1.0722  0.0939
   42MOL0     H 5666   1.614   8.523   2.674  1.8553  2.7242 -0.5956
   42MOL0     H 5667   0.976   7.988   2.618  2.9367  2.1537 -0.6890
   42MOL0     H 5668   0.722   7.803   2.743 -1.4877  1.0561  1.7376
   42MOL0     H 5669   0.892   7.809   2.689  0.3138 -4.2275  3.7393
   42MOL0     H 5670   0.840   7.839   2.859 -1.4758 -4.1876  0.0717
   43MOL0     O 5671   7.532   5.596   1.933  0.1305  0.6988 -0.0913
   43MOL0     C 5672   7.585   5.638   2.029 -0.7565  0.5036 -0.7641
   43MOL0     O 5673   7.714   5.681   2.029 -0.1672  0.3157  0.3382
   43MOL0     C 5674   7.796   5.645   1.927  0.1754  0.0391  0.9292
   43MOL0     C 5675   7.848   5.514   1.921 -0.6939 -0.1816 -0.3296
   43MOL0     C 5676   7.932   5.481   1.819 -1.6266  0.0440  0.2971
   43MOL0     C 5677   7.961   5.568   1.712 -0.5976 -0.4060  0.0591
   43MOL0     O 5678   8.030   5.522   1.611 -0.7959 -0.3020  1.4665
   43MOL0     C 5679   8.152   5.449   1.635 -0.1560 -0.6330  0.2109
   43MOL0     C 5680   8.249   5.473   1.518  0.5284  0.0466 -0.2836
   43MOL0     C 5681   8.384   5.406   1.559  0.4987  0.0250  0.2549
   43MOL0     C 5682   8.382   5.246   1.602  0.5262 -0.6914 -1.1570
   43MOL0     C 5683   8.525   5.209   1.627 -0.3342  0.7700 -0.3574
   43MOL0     C 5684   8.548   5.071   1.687  0.5592  0.7890  0.9166
   43MOL0     C 5685   8.492   4.961   1.597  0.1268 -0.3443  0.3520
   43MOL0     C 5686   8.516   4.832   1.675 -0.5013  0.5452 -0.2568
   43MOL0     N 5687   8.483   4.703   1.605 -1.3539 -0.5476  0.5084
   43MOL0     C 5688   8.555   4.643   1.496  0.7227 -0.2207  0.4796
   43MOL0     C 5689   8.475   4.539   1.457 -0.3869  0.0470  0.8167
   43MOL0     C 5690   8.498   4.434   1.343  0.0579 -0.5889 -1.6168
   43MOL0     C 5691   8.624   4.352   1.363 -0.1904  0.5914 -0.2138
   43MOL0     C 5692   8.656   4.273   1.230 -0.1616  0.1855  0.3729
   43MOL0     C 5693   8.757   4.352   1.144 -0.2132  0.2149 -0.0181
   43MOL0     O 5694   8.883   4.374   1.210  0.3303  0.0390  0.6677
   43MOL0     C 5695   8.947   4.482   1.147 -0.1523 -0.6187  1.2288
   43MOL0     C 5696   9.066   4.465   1.076 -0.2637  0.6689  0.1985
   43MOL0     C 5697   9.130   4.575   1.016 -1.2776  0.0164  0.2511
   43MOL0     C 5698   9.076   4.704   1.028 -0.2331 -0.0809  0.5628
   43MOL0     C 5699   9.128   4.808   0.937 -0.4317  0.1838 -0.9065
   43MOL0     O 5700   9.044   4.915   0.922  0.0866 -0.7118  0.7636
   43MOL0     C 5701   9.062   4.997   0.813  0.0223 -0.3120 -0.6817
   43MOL0     C 5702   8.976   5.104   0.812 -0.1638 -0.3658  0.8366
   43MOL0     C 5703   8.970   5.187   0.700 -0.4493 -0.2546  0.7225
   43MOL0     C 5704   9.060   5.173   0.594  1.0639  1.1643  0.1106
   43MOL0     O 5705   9.055   5.255   0.481  0.1915  0.2187 -0.4880
   43MOL0     C 5706   8.992   5.383   0.485  0.2767  0.2836  0.2824
   43MOL0     C 5707   8.933   5.415   0.350  0.1988 -0.3050 -0.0567
   43MOL0     C 5708   8.815   5.531   0.360 -0.8494  1.2712 -0.0721
   43MOL0     C 5709   8.691   5.483   0.296 -0.0353  0.0819 -0.3849
   43MOL0     C 5710   8.599   5.405   0.409 -1.3117 -1.1747 -0.5619
   43MOL0     C 5711   8.469   5.336   0.356  0.4730  0.1866  1.0116
   43MOL0     C 5712   8.480   5.203   0.265 -0.2994  0.2522 -0.5974
   43MOL0     C 5713   8.554   5.099   0.340  0.0855 -0.1953  0.2775
   43MOL0    Cl 5714   8.523   4.928   0.269 -0.2559  0.2232  0.3074
   43MOL0     C 5715   9.162   5.077   0.604 -1.3070  0.5387  0.1003
   43MOL0     C 5716   9.154   4.979   0.708  1.0957 -0.0925  0.0931
   43MOL0     O 5717   9.245   4.800   0.902 -0.0680  0.0430 -0.3921
   43MOL0     C 5718   8.957   4.721   1.102 -0.3140  0.2024 -0.1229
   43MOL0     C 5719   8.894   4.615   1.161  0.5721 -0.0903 -0.7321
   43MOL0     N 5720   8.364   4.541   1.535 -0.1514 -0.9624 -0.2706
   43MOL0     N 5721   8.368   4.641   1.626 -0.2714  0.5369  0.1559
   43MOL0     C 5722   7.910   5.697   1.716  0.4328  0.1972  0.7206
   43MOL0     C 5723   7.825   5.736   1.821  0.4570 -0.5775  0.5912
   43MOL0     C 5724   7.492   5.669   2.144  0.8221  0.3304  0.1183
   43MOL0     C 5725   7.358   5.672   2.108  0.4980 -0.0954  0.4600
   43MOL0     C 5726   7.267   5.696   2.206 -0.5517 -0.2140 -0.4843
   43MOL0     C 5727   7.306   5.723   2.338 -0.0826 -1.3470 -0.0008
   43MOL0     O 5728   7.214   5.753   2.444  0.0599 -0.7832  0.0527
   43MOL0     C 5729   7.093   5.812   2.395  1.4739  0.1537  0.3337
   43MOL0     C 5730   7.028   5.892   2.503 -0.8957 -0.4354 -0.8250
   43MOL0     C 5731   7.123   6.010   2.540 -0.3411  0.2037 -0.3387
   43MOL0     C 5732   7.063   6.094   2.652  0.3121 -0.4634  0.2826
   43MOL0     C 5733   7.065   6.030   2.786  0.0299  0.1214 -0.2442
   43MOL0     C 5734   7.067   5.950   2.876 -0.4808  0.1672  0.0156
   43MOL0     C 5735   7.440   5.718   2.376  0.5618  1.0234 -0.0218
   43MOL0     C 5736   7.531   5.682   2.278 -0.0945 -0.3293  0.5826
   43MOL0     C 5737   7.673   5.653   2.319  0.1101 -1.4620  0.5980
   43MOL0     H 5738   7.826   5.443   2.000 -2.5145  1.7188  0.9800
   43MOL0     H 5739   7.965   5.377   1.828  1.7356  1.0756  1.5563
   43MOL0     H 5740   8.205   5.486   1.724  2.6701 -0.8341 -1.3039
   43MOL0     H 5741   8.143   5.340   1.639  3.2371 -1.0576 -0.4494
   43MOL0     H 5742   8.257   5.580   1.495  3.6220 -0.3213 -1.3372
   43MOL0     H 5743   8.212   5.418   1.431 -0.5794 -1.3942  1.0311
   43MOL0     H 5744   8.433   5.462   1.638 -0.3273  1.8011 -0.4378
   43MOL0     H 5745   8.442   5.426   1.468  0.2360  0.1180  0.1043
   43MOL0     H 5746   8.316   5.235   1.688 -1.2061  0.2649 -2.2918
   43MOL0     H 5747   8.329   5.190   1.524 -1.9898 -1.7909  1.1809
   43MOL0     H 5748   8.579   5.208   1.532 -3.0333 -0.0445 -2.0075
   43MOL0     H 5749   8.571   5.277   1.699  2.1901 -0.0027 -1.1463
   43MOL0     H 5750   8.656   5.071   1.703  0.2438 -1.4578  4.0703
   43MOL0     H 5751   8.506   5.065   1.788  0.4669 -0.8424  0.8077
   43MOL0     H 5752   8.554   4.967   1.507  0.4325  2.8346  0.6611
   43MOL0     H 5753   8.384   4.975   1.582  0.2157  1.8063  1.3404
   43MOL0     H 5754   8.624   4.823   1.683 -0.6787 -0.0614  2.7935
   43MOL0     H 5755   8.475   4.833   1.777  0.8991  0.7329  0.3256
   43MOL0     H 5756   8.650   4.675   1.452 -0.5410  2.9265 -0.2456
   43MOL0     H 5757   8.414   4.364   1.345 -2.6059  2.3619  0.4522
   43MOL0     H 5758   8.491   4.496   1.253 -1.8350  0.3539 -0.8880
   43MOL0     H 5759   8.702   4.424   1.389 -1.1738  0.5823  3.1382
   43MOL0     H 5760   8.595   4.281   1.440 -0.9846 -2.5311 -3.1244
   43MOL0     H 5761   8.571   4.264   1.162  1.4519 -0.0587 -1.6970
   43MOL0     H 5762   8.700   4.177   1.259  3.2783  0.8918 -1.9200
   43MOL0     H 5763   8.710   4.438   1.097 -1.0852  0.9836  2.1440
   43MOL0     H 5764   8.778   4.291   1.056  0.8671 -1.0753  1.0817
   43MOL0     H 5765   9.103   4.363   1.075  0.8156  0.9028  3.7600
   43MOL0     H 5766   9.225   4.560   0.966  1.5483 -0.0933  5.0436
   43MOL0     H 5767   8.924   5.118   0.907 -0.8268 -0.2676  0.4632
   43MOL0     H 5768   8.903   5.270   0.723 -0.6422  0.1307 -1.0699
   43MOL0     H 5769   8.902   5.373   0.546 -0.1696 -1.9102 -0.6367
   43MOL0     H 5770   9.053   5.461   0.531  1.1170 -1.4753  2.3261
   43MOL0     H 5771   9.015   5.445   0.283  2.4912 -2.3838  1.5950
   43MOL0     H 5772   8.885   5.328   0.304  1.3852 -1.5675  0.9845
   43MOL0     H 5773   8.794   5.541   0.467  0.6267 -0.7132  0.4652
   43MOL0     H 5774   8.845   5.627   0.319 -1.3590  1.0073 -1.1066
   43MOL0     H 5775   8.702   5.423   0.205  0.2392 -0.6306  0.1060
   43MOL0     H 5776   8.626   5.567   0.270 -0.4907 -0.6616 -1.7829
   43MOL0     H 5777   8.564   5.489   0.470 -2.4262 -0.0404 -2.6243
   43MOL0     H 5778   8.653   5.335   0.474  0.0686  0.5388  0.2243
   43MOL0     H 5779   8.408   5.304   0.441 -1.3599 -0.6309 -0.5121
   43MOL0     H 5780   8.416   5.418   0.306 -0.3805  0.1192  1.7741
   43MOL0     H 5781   8.523   5.221   0.166  0.0291  5.1976  0.2198
   43MOL0     H 5782   8.375   5.173   0.258 -0.8812  1.6323  1.4407
   43MOL0     H 5783   8.662   5.118   0.340  0.0574  1.2149 -4.4568
   43MOL0     H 5784   8.513   5.106   0.441 -0.8936  1.6393 -0.1989
   43MOL0     H 5785   9.226   5.060   0.518 -1.5861  0.6908 -0.1387
   43MOL0     H 5786   9.205   4.884   0.695 -0.7152 -0.8531 -2.2202
   43MOL0     H 5787   8.904   4.816   1.111 -2.9995 -1.1279 -0.9549
   43MOL0     H 5788   8.803   4.643   1.213  0.7525 -3.1865  1.5630
   43MOL0     H 5789   7.926   5.776   1.643 -0.4189  1.4924  1.8910
   43MOL0     H 5790   7.776   5.832   1.808 -1.5698 -1.7168 -0.8251
   43MOL0     H 5791   7.320   5.648   2.009  0.7864 -0.7494  0.4983
   43MOL0     H 5792   7.161   5.685   2.186 -0.6684  2.2173 -1.4385
   43MOL0     H 5793   7.029   5.732   2.357  1.3523 -0.8865  2.5625
   43MOL0     H 5794   7.113   5.883   2.313 -2.0413  1.0645  0.1025
   43MOL0     H 5795   7.012   5.839   2.597 -0.4528  0.7267 -0.0771
   43MOL0     H 5796   6.927   5.924   2.476 -2.1387 -2.4697  1.1047
   43MOL0     H 5797   7.144   6.078   2.456 -0.7133  2.0180  0.9776
   43MOL0     H 5798   7.228   5.984   2.561  0.0400  2.3609  0.6550
   43MOL0     H 5799   7.124   6.185   2.656 -0.4875  0.1261 -0.4524
   43MOL0     H 5800   6.959   6.123   2.636  0.8406  1.5579  0.2729
   43MOL0     H 5801   7.070   5.882   2.959  0.1119 -4.1411 -3.2360
   43MOL0     H 5802   7.466   5.738   2.480 -3.3655  3.7264  0.6528
   43MOL0     H 5803   7.736   5.734   2.281 -0.1730 -2.0769 -1.2957
   43MOL0     H 5804   7.678   5.655   2.428 -0.8784  1.4825  0.6698
   43MOL0     H 5805   7.713   5.562   2.273 -1.5781 -1.9365  0.0280
   44MOL0     O 5806   5.453   7.022   6.744  0.3655 -0.1743  0.1279
   44MOL0     C 5807   5.450   7.084   6.858  0.6075  0.4556  0.8302
   44MOL0     O 5808   5.425   7.017   6.978 -0.5927 -0.2887  0.3094
   44MOL0     C 5809   5.432   6.883   6.988  0.3257 -0.0793 -0.1598
   44MOL0     C 5810   5.328   6.796   7.035 -0.1608 -0.0807 -0.1110
   44MOL0     C 5811   5.351   6.662   7.050  0.1010  0.7728  0.0304
   44MOL0     C 5812   5.476   6.598   7.005  0.2348  0.1174 -0.3130
   44MOL0     O 5813   5.497   6.462   7.025 -0.3083 -0.0061 -0.0502
   44MOL0     C 5814   5.625   6.410   7.048  0.5107  0.4432  0.3943
   44MOL0     C 5815   5.662   6.320   6.931  0.8180 -0.1356 -0.3160
   44MOL0     C 5816   5.782   6.252   6.968 -0.7341 -0.0966  0.1262
   44MOL0     C 5817   5.838   6.158   6.846  0.2658 -0.8884  0.1293
   44MOL0     C 5818   5.996   6.162   6.849  0.4162  0.2239  0.2015
   44MOL0     C 5819   6.053   6.087   6.972 -1.2847  0.0058 -0.0706
   44MOL0     C 5820   6.201   6.091   7.001 -0.0379 -0.7589  0.5700
   44MOL0     C 5821   6.269   5.980   7.091  0.1645 -0.0455  0.6728
   44MOL0     N 5822   6.418   5.973   7.060 -0.1267  0.4440 -0.7428
   44MOL0     C 5823   6.516   6.037   7.131  0.2169 -0.7051  0.0339
   44MOL0     C 5824   6.627   5.981   7.094  0.1853 -0.4062  0.0385
   44MOL0     C 5825   6.757   6.023   7.168 -0.1213  0.4047  0.2107
   44MOL0     C 5826   6.871   5.950   7.091  0.5984  0.6722  0.2616
   44MOL0     C 5827   6.896   6.017   6.957  0.0953  0.3530  0.5577
   44MOL0     C 5828   7.021   5.969   6.883  0.0908 -0.1224  0.0153
   44MOL0     O 5829   7.132   6.041   6.957 -0.0214  0.1046  0.0435
   44MOL0     C 5830   7.248   5.980   6.947 -0.6099 -0.1441  0.3863
   44MOL0     C 5831   7.300   5.897   6.839 -0.6456  0.5189 -0.2180
   44MOL0     C 5832   7.427   5.834   6.829 -0.5099 -0.3231 -0.1583
   44MOL0     C 5833   7.514   5.850   6.939  0.4631 -0.2117  0.0795
   44MOL0     C 5834   7.652   5.796   6.947 -0.3369 -1.0294  0.7978
   44MOL0     O 5835   7.705   5.732   6.842  0.0994 -0.0388  0.0055
   44MOL0     C 5836   7.825   5.669   6.849 -0.2349  0.8291 -1.0376
   44MOL0     C 5837   7.854   5.570   6.937  0.5476 -0.7349  0.1178
   44MOL0     C 5838   7.971   5.500   6.944  0.3773 -0.2397 -0.0555
   44MOL0     C 5839   8.078   5.532   6.860 -0.0884 -0.6228 -0.5399
   44MOL0     O 5840   8.206   5.499   6.862 -0.1556  0.0122  0.3809
   44MOL0     C 5841   8.247   5.374   6.917  0.6244  0.0517 -0.8118
   44MOL0     C 5842   8.236   5.257   6.822 -0.1876  0.0992  0.9869
   44MOL0     C 5843   8.095   5.204   6.787  0.2507 -0.7239 -0.1144
   44MOL0     C 5844   8.024   5.121   6.898 -0.1235  0.8279  0.3638
   44MOL0     C 5845   7.874   5.125   6.881  0.7239 -0.2311  0.2909
   44MOL0     C 5846   7.779   5.151   7.012 -0.4836 -0.1405  0.0013
   44MOL0     C 5847   7.628   5.157   6.991 -1.1025  0.7715  0.1870
   44MOL0     C 5848   7.577   5.011   6.972 -0.0365  0.5943  1.1425
   44MOL0    Cl 5849   7.398   5.013   6.952  0.0716 -0.0864 -0.2928
   44MOL0     C 5850   8.059   5.638   6.764 -0.0464  0.8091  0.2596
   44MOL0     C 5851   7.931   5.706   6.765  0.1972  0.7294 -0.3125
   44MOL0     O 5852   7.708   5.825   7.047  0.1047  0.0561 -0.2994
   44MOL0     C 5853   7.462   5.921   7.047 -0.8945  0.0313 -0.0708
   44MOL0     C 5854   7.332   5.978   7.053 -0.0191 -0.3204 -0.0462
   44MOL0     N 5855   6.609   5.899   6.987 -0.4265  0.2381 -0.3219
   44MOL0     N 5856   6.480   5.906   6.955 -0.6049 -0.2418 -0.7681
   44MOL0     C 5857   5.579   6.683   6.971 -0.5091 -0.2960  0.1199
   44MOL0     C 5858   5.559   6.819   6.958 -0.3440 -0.1708  0.7076
   44MOL0     C 5859   5.447   7.226   6.860 -0.5681 -1.1860  0.6755
   44MOL0     C 5860   5.381   7.288   6.971 -0.5493  0.3292  0.9256
   44MOL0     C 5861   5.367   7.425   6.989  0.3755 -0.5140 -0.1724
   44MOL0     C 5862   5.407   7.517   6.892 -0.3124  0.4376  0.0113
   44MOL0     O 5863   5.385   7.648   6.932  0.2665 -0.1502 -0.4135
   44MOL0     C 5864   5.435   7.748   6.843  0.2026 -0.1953  0.5564
   44MOL0     C 5865   5.322   7.826   6.776 -0.8875  0.4048  0.1034
   44MOL0     C 5866   5.214   7.885   6.880 -0.0326 -0.4421 -0.7987
   44MOL0     C 5867   5.143   8.009   6.835 -0.5275  0.1387  0.2649
   44MOL0     C 5868   5.076   7.985   6.710  0.0507 -0.0113  0.0586
   44MOL0     C 5869   5.015   7.981   6.606  0.5152 -0.4869  0.2471
   44MOL0     C 5870   5.461   7.465   6.772 -0.5702  1.2277  0.3953
   44MOL0     C 5871   5.494   7.325   6.770  0.3070  0.8186  0.4001
   44MOL0     C 5872   5.578   7.279   6.640 -0.0208  0.5228 -0.0895
   44MOL0     H 5873   5.234   6.841   7.066 -0.9411 -1.7822  0.0774
   44MOL0     H 5874   5.276   6.597   7.095 -0.3291  1.6176  0.5556
   44MOL0     H 5875   5.700   6.487   7.068 -1.5200  1.6803  4.1077
   44MOL0     H 5876   5.630   6.369   7.149  0.5944  1.6624  0.9006
   44MOL0     H 5877   5.673   6.376   6.837  0.1423 -0.1340 -0.4054
   44MOL0     H 5878   5.579   6.249   6.923 -0.9240  1.3881  2.5082
   44MOL0     H 5879   5.760   6.181   7.049 -1.5783 -0.4862 -0.4361
   44MOL0     H 5880   5.856   6.329   6.990 -1.2733  0.3336  0.4514
   44MOL0     H 5881   5.812   6.053   6.863  0.7079 -1.4882 -2.4319
   44MOL0     H 5882   5.791   6.191   6.753 -0.9884  2.0121  1.6692
   44MOL0     H 5883   6.029   6.119   6.754  0.5454  1.9405 -0.5512
   44MOL0     H 5884   6.039   6.262   6.843  2.0482 -0.5463 -2.4282
   44MOL0     H 5885   6.002   6.110   7.066  1.8167  2.4054  1.1987
   44MOL0     H 5886   6.052   5.981   6.947  0.0277  0.2177 -1.1313
   44MOL0     H 5887   6.219   6.188   7.047 -0.2220 -0.7829  0.6935
   44MOL0     H 5888   6.257   6.089   6.907  0.4425  1.6210  0.7503
   44MOL0     H 5889   6.254   5.993   7.199  3.3735 -0.9341  1.3316
   44MOL0     H 5890   6.225   5.882   7.070 -1.9983  0.8061  0.9523
   44MOL0     H 5891   6.498   6.104   7.214 -2.1912  0.4422 -1.2954
   44MOL0     H 5892   6.757   6.132   7.171 -2.0218  0.4711 -0.7001
   44MOL0     H 5893   6.750   5.983   7.269  0.2922  2.7659  1.2441
   44MOL0     H 5894   6.964   5.955   7.149 -0.5204 -0.1032  2.1993
   44MOL0     H 5895   6.845   5.845   7.075  1.5266 -0.1974  3.6136
   44MOL0     H 5896   6.897   6.126   6.967 -2.8877  0.6751 -1.4616
   44MOL0     H 5897   6.799   6.003   6.909  1.1871  2.3120 -2.5610
   44MOL0     H 5898   7.019   6.009   6.781 -0.3776  4.2900  1.5408
   44MOL0     H 5899   7.047   5.863   6.874 -1.2339 -0.2693 -3.0951
   44MOL0     H 5900   7.244   5.884   6.747  0.0345 -1.7950 -0.3745
   44MOL0     H 5901   7.451   5.768   6.746  2.1580  1.3630 -0.8783
   44MOL0     H 5902   7.773   5.553   7.007  0.4125 -1.4089 -0.1986
   44MOL0     H 5903   7.984   5.423   7.020  0.8456 -0.3813 -0.2791
   44MOL0     H 5904   8.348   5.376   6.959 -0.0175 -3.0528  1.1703
   44MOL0     H 5905   8.180   5.344   6.998  0.0024 -2.0169 -2.0122
   44MOL0     H 5906   8.293   5.296   6.737 -0.9083  1.0074  0.8996
   44MOL0     H 5907   8.287   5.172   6.868 -0.6550  0.9098  3.1454
   44MOL0     H 5908   8.038   5.291   6.755  2.6566 -0.2543 -3.7055
   44MOL0     H 5909   8.101   5.154   6.690  1.3163  1.3806 -1.1808
   44MOL0     H 5910   8.056   5.154   6.998  1.1680  3.4565 -0.8126
   44MOL0     H 5911   8.061   5.018   6.905  0.9134  1.3039  3.5257
   44MOL0     H 5912   7.848   5.028   6.838 -2.0100 -0.3385  1.9636
   44MOL0     H 5913   7.856   5.204   6.806  0.3088 -0.3777  0.2346
   44MOL0     H 5914   7.805   5.088   7.097  1.9781 -0.7804 -1.1450
   44MOL0     H 5915   7.803   5.252   7.044  2.4404 -1.5912  2.9016
   44MOL0     H 5916   7.604   5.226   6.909 -2.2629  0.6930  0.4438
   44MOL0     H 5917   7.589   5.201   7.083  0.1230 -0.5359  1.3877
   44MOL0     H 5918   7.622   4.952   6.892  1.8626  0.2591  2.4062
   44MOL0     H 5919   7.615   4.967   7.064  2.0800 -0.9878 -0.3917
   44MOL0     H 5920   8.142   5.677   6.707  0.7514 -0.6379  0.3897
   44MOL0     H 5921   7.923   5.797   6.707 -1.7007 -1.0844 -3.1851
   44MOL0     H 5922   7.515   5.939   7.140 -0.2071 -0.4746 -0.3546
   44MOL0     H 5923   7.298   6.022   7.146 -1.6805  1.6274 -1.4704
   44MOL0     H 5924   5.675   6.638   6.947 -0.2224  1.0799 -1.4605
   44MOL0     H 5925   5.640   6.888   6.936 -0.1933 -0.2813  0.9129
   44MOL0     H 5926   5.339   7.218   7.043 -0.9630 -1.0685 -0.6111
   44MOL0     H 5927   5.332   7.469   7.082 -0.0682  3.4712 -2.0004
   44MOL0     H 5928   5.507   7.713   6.769  0.8913 -0.1191  1.1784
   44MOL0     H 5929   5.483   7.829   6.899  0.6092  1.0046 -1.4445
   44MOL0     H 5930   5.265   7.765   6.704  1.3045 -1.7183  0.0380
   44MOL0     H 5931   5.372   7.900   6.714 -2.5096 -0.2653 -2.1438
   44MOL0     H 5932   5.264   7.907   6.975  2.7467 -2.5271 -1.6380
   44MOL0     H 5933   5.140   7.808   6.901 -1.2823 -0.5009 -4.6850
   44MOL0     H 5934   5.089   8.057   6.917 -2.1518  1.7147 -1.6235
   44MOL0     H 5935   5.221   8.082   6.811  1.7379 -1.9201  0.9267
   44MOL0     H 5936   4.950   7.976   6.521  3.4166  0.5461 -2.1983
   44MOL0     H 5937   5.487   7.515   6.680 -1.0501  0.4526 -0.1658
   44MOL0     H 5938   5.654   7.204   6.666 -0.3908 -0.2363 -1.1343
   44MOL0     H 5939   5.506   7.232   6.573 -0.3213  1.4432 -0.4193
   44MOL0     H 5940   5.626   7.361   6.586 -0.9706  0.6170 -0.8058
   45MOL0     O 5941   1.908   4.858   3.122 -0.1483 -0.1940  0.2166
   45MOL0     C 5942   1.930   4.963   3.058  0.3732  0.4422  0.2319
   45MOL0     O 5943   1.955   4.971   2.923 -0.1940 -0.4912 -0.2593
   45MOL0     C 5944   1.964   4.850   2.857  0.1321  0.1044  0.3628
   45MOL0     C 5945   1.852   4.768   2.827  1.0437 -0.4201  0.0540
   45MOL0     C 5946   1.863   4.642   2.760 -0.2333 -0.8973 -0.0299
   45MOL0     C 5947   1.987   4.597   2.718 -0.6017  0.1197 -0.6732
   45MOL0     O 5948   1.986   4.482   2.653 -0.3075  0.1611 -0.1750
   45MOL0     C 5949   2.081   4.388   2.710 -0.2116 -0.3080 -0.2038
   45MOL0     C 5950   2.086   4.257   2.619 -0.0762 -0.0691  0.6236
   45MOL0     C 5951   2.203   4.256   2.525  0.6742 -0.3976  0.5936
   45MOL0     C 5952   2.226   4.119   2.458  0.2637  0.7502  0.1321
   45MOL0     C 5953   2.294   4.101   2.330 -0.9548  0.5694  0.1484
   45MOL0     C 5954   2.448   4.087   2.355  0.5596  0.3582  0.2615
   45MOL0     C 5955   2.541   4.078   2.236  0.9736 -0.6103 -0.3789
   45MOL0     C 5956   2.572   3.941   2.177 -0.2194  0.0619  0.1746
   45MOL0     N 5957   2.648   3.854   2.263 -0.3931  0.4438  0.5677
   45MOL0     C 5958   2.784   3.851   2.295  0.8156  1.5075  0.5514
   45MOL0     C 5959   2.798   3.747   2.383  0.0736  0.2419  0.3187
   45MOL0     C 5960   2.927   3.708   2.445 -0.0031  0.8704 -0.7662
   45MOL0     C 5961   2.911   3.741   2.596 -0.5418 -0.2284 -0.7371
   45MOL0     C 5962   3.030   3.682   2.671  0.1619  0.1399  0.6015
   45MOL0     C 5963   3.009   3.687   2.816  0.2534  0.5291 -0.3827
   45MOL0     O 5964   3.117   3.625   2.879  0.3202 -0.3480  0.1367
   45MOL0     C 5965   3.226   3.703   2.930 -0.1300 -0.5332  0.7591
   45MOL0     C 5966   3.239   3.841   2.909 -1.6515  0.3476  0.0715
   45MOL0     C 5967   3.349   3.904   2.978  0.0501  0.5820  0.6427
   45MOL0     C 5968   3.442   3.842   3.063  0.3373 -0.4340 -0.6941
   45MOL0     C 5969   3.537   3.925   3.149  0.2275 -0.2122  0.3426
   45MOL0     O 5970   3.660   3.867   3.158 -0.5919  0.0819 -1.2960
   45MOL0     C 5971   3.750   3.908   3.254  0.8220  0.6441 -0.0456
   45MOL0     C 5972   3.887   3.946   3.225  0.6618  0.5726  0.7280
   45MOL0     C 5973   3.981   3.973   3.324  0.0457  0.4564  0.5938
   45MOL0     C 5974   3.934   3.985   3.452  0.2693 -0.0919 -0.5015
   45MOL0     O 5975   4.001   4.027   3.567  0.5128  0.5875 -0.3251
   45MOL0     C 5976   4.144   4.001   3.572 -0.6936 -1.0126  0.8038
   45MOL0     C 5977   4.169   3.923   3.698 -0.2106  0.1689 -0.8439
   45MOL0     C 5978   4.318   3.908   3.724  0.1612 -0.3765  0.1198
   45MOL0     C 5979   4.394   4.012   3.813  0.6288 -0.3606  0.3020
   45MOL0     C 5980   4.550   4.007   3.783  0.0636  0.8883 -0.8824
   45MOL0     C 5981   4.632   4.070   3.892 -0.5170 -0.1875 -0.0463
   45MOL0     C 5982   4.784   4.064   3.857 -0.5169 -0.9386  0.1679
   45MOL0     C 5983   4.861   4.153   3.949 -0.0031 -0.4455 -0.3333
   45MOL0    Cl 5984   5.032   4.161   3.917  0.3679  0.2529  0.1514
   45MOL0     C 5985   3.800   3.966   3.479  0.3888 -0.8239  0.8289
   45MOL0     C 5986   3.713   3.913   3.384  0.0595 -0.1735  0.7509
   45MOL0     O 5987   3.511   4.039   3.184 -1.0383 -1.0655 -0.0545
   45MOL0     C 5988   3.422   3.696   3.086 -0.5003 -1.1952  0.9044
   45MOL0     C 5989   3.315   3.637   3.025 -0.1214 -0.3666 -0.0636
   45MOL0     N 5990   2.676   3.683   2.406 -0.4279  0.4830  0.4140
   45MOL0     N 5991   2.589   3.748   2.332  0.0627  0.7526  0.4947
   45MOL0     C 5992   2.100   4.676   2.744 -0.4970  0.6530  1.0258
   45MOL0     C 5993   2.088   4.802   2.819 -0.2173  0.9050  0.4300
   45MOL0     C 5994   1.934   5.090   3.134 -0.6560 -0.4469 -0.1551
   45MOL0     C 5995   2.030   5.184   3.102  0.1069  0.0498  0.0358
   45MOL0     C 5996   2.058   5.305   3.169  0.0580  0.3158  0.5530
   45MOL0     C 5997   1.982   5.333   3.283 -0.1341 -0.2255  0.2056
   45MOL0     O 5998   2.004   5.444   3.365 -0.6452 -0.3611  0.2319
   45MOL0     C 5999   2.133   5.516   3.370  0.6556  0.7686 -0.5744
   45MOL0     C 6000   2.238   5.449   3.464  0.3033 -0.3182  0.0283
   45MOL0     C 6001   2.185   5.398   3.600 -0.4656  0.3725  0.9276
   45MOL0     C 6002   2.296   5.354   3.693  0.4238  0.5892 -0.6443
   45MOL0     C 6003   2.361   5.236   3.645  0.1581  0.3264 -0.2626
   45MOL0     C 6004   2.410   5.125   3.620 -0.0309 -0.1349  0.1543
   45MOL0     C 6005   1.874   5.245   3.313 -0.4460  1.1862 -0.7370
   45MOL0     C 6006   1.852   5.129   3.246 -0.9711 -0.2075 -0.4845
   45MOL0     C 6007   1.742   5.038   3.299  0.1249  0.3601 -0.7199
   45MOL0     H 6008   1.752   4.787   2.866  1.1212 -2.9920  1.7505
   45MOL0     H 6009   1.775   4.579   2.752 -0.1945 -1.1983  1.5500
   45MOL0     H 6010   2.177   4.437   2.730  0.6311 -1.7137 -0.6165
   45MOL0     H 6011   2.034   4.362   2.805  0.8453  3.4437  1.5395
   45MOL0     H 6012   2.002   4.228   2.556  1.8133 -4.0857 -0.3886
   45MOL0     H 6013   2.105   4.170   2.682  1.9786  0.8024  1.2867
   45MOL0     H 6014   2.297   4.292   2.568  1.1195 -3.4761  2.5627
   45MOL0     H 6015   2.184   4.317   2.437 -0.8602 -0.9252  0.5288
   45MOL0     H 6016   2.277   4.053   2.529 -2.2943 -1.2749  0.2460
   45MOL0     H 6017   2.124   4.080   2.449 -0.0064 -0.9277  6.0765
   45MOL0     H 6018   2.273   4.002   2.288  0.8890 -0.8594  2.2946
   45MOL0     H 6019   2.271   4.180   2.258 -2.7921  0.2817  0.3808
   45MOL0     H 6020   2.479   4.166   2.423 -0.1503 -2.0545  3.6797
   45MOL0     H 6021   2.475   3.993   2.403  0.1739 -0.5262 -1.1886
   45MOL0     H 6022   2.635   4.119   2.277  0.1608 -1.6272  2.8267
   45MOL0     H 6023   2.505   4.136   2.152  1.1560 -0.6484 -0.4854
   45MOL0     H 6024   2.479   3.893   2.148  1.4643 -2.0862 -2.0355
   45MOL0     H 6025   2.619   3.957   2.080 -1.9092 -4.4101 -1.6171
   45MOL0     H 6026   2.868   3.901   2.249  0.6316  0.1111 -1.3907
   45MOL0     H 6027   2.945   3.600   2.437 -0.4280  0.7996 -0.7584
   45MOL0     H 6028   3.010   3.760   2.396 -0.4961  1.1187 -1.3522
   45MOL0     H 6029   2.926   3.848   2.608 -0.6111 -0.3276  0.2861
   45MOL0     H 6030   2.814   3.713   2.638  0.3516  0.8161  2.2342
   45MOL0     H 6031   3.119   3.738   2.641 -0.9379  1.0495 -1.1155
   45MOL0     H 6032   3.040   3.577   2.641 -2.6769 -0.3552  1.1238
   45MOL0     H 6033   2.914   3.635   2.829 -0.6815  1.1675 -3.9192
   45MOL0     H 6034   3.001   3.790   2.851 -1.2976  0.0252  0.8904
   45MOL0     H 6035   3.185   3.887   2.827  3.6313  0.2058 -4.0126
   45MOL0     H 6036   3.367   4.008   2.955  0.8187  0.5936  1.2710
   45MOL0     H 6037   3.924   3.943   3.123 -1.1578  0.5563  0.0361
   45MOL0     H 6038   4.086   3.988   3.297  0.2492 -2.7251 -0.8111
   45MOL0     H 6039   4.186   3.969   3.476 -3.4362 -1.7471 -0.2369
   45MOL0     H 6040   4.196   4.097   3.581 -2.0869 -0.4054  2.8217
   45MOL0     H 6041   4.112   3.973   3.777 -3.5887 -1.2424 -2.1791
   45MOL0     H 6042   4.115   3.829   3.682  1.5365 -1.1695  0.7557
   45MOL0     H 6043   4.321   3.809   3.769 -0.0593 -0.3449  0.2064
   45MOL0     H 6044   4.368   3.896   3.627 -0.3026 -0.5810 -0.0980
   45MOL0     H 6045   4.362   4.004   3.917 -1.0056  3.7837  0.3239
   45MOL0     H 6046   4.367   4.115   3.786  2.1180  0.4862  1.8175
   45MOL0     H 6047   4.571   4.044   3.683  1.7339  0.6098 -0.6586
   45MOL0     H 6048   4.576   3.903   3.762 -1.7380  0.2356 -0.1429
   45MOL0     H 6049   4.609   4.175   3.911  0.0269 -0.0660 -0.0201
   45MOL0     H 6050   4.601   4.026   3.987  1.0766  3.8897  2.6110
   45MOL0     H 6051   4.805   4.091   3.754 -2.0783  1.0410  0.3190
   45MOL0     H 6052   4.811   3.958   3.850 -1.6764 -1.1117 -4.4641
   45MOL0     H 6053   4.810   4.251   3.949  0.4336 -0.2145  0.3748
   45MOL0     H 6054   4.834   4.121   4.050 -0.0268 -1.4599 -0.6492
   45MOL0     H 6055   3.776   3.975   3.585  0.0634 -3.7420  1.1095
   45MOL0     H 6056   3.609   3.891   3.407 -0.2404  2.5555  2.4053
   45MOL0     H 6057   3.489   3.642   3.152 -1.1503  0.8012  3.3670
   45MOL0     H 6058   3.282   3.534   3.038  0.9292 -0.6446  0.5213
   45MOL0     H 6059   2.198   4.651   2.705 -0.8071 -1.1571  1.2754
   45MOL0     H 6060   2.178   4.859   2.839  0.1253  0.2533  0.7721
   45MOL0     H 6061   2.099   5.152   3.025  1.3695  3.1491 -0.2652
   45MOL0     H 6062   2.131   5.376   3.131 -2.7194  1.4957 -3.1745
   45MOL0     H 6063   2.114   5.616   3.411  0.3772  0.1084  0.9611
   45MOL0     H 6064   2.166   5.528   3.267  0.1050  3.0375 -0.5382
   45MOL0     H 6065   2.309   5.524   3.499  0.6663 -1.2696  1.4181
   45MOL0     H 6066   2.286   5.373   3.401  1.3421  2.1909 -2.3789
   45MOL0     H 6067   2.114   5.317   3.581 -0.1906 -0.0403  1.6170
   45MOL0     H 6068   2.122   5.477   3.641 -2.0950  2.0351 -4.0898
   45MOL0     H 6069   2.368   5.433   3.717  0.8682 -0.2455  0.9192
   45MOL0     H 6070   2.238   5.323   3.780  3.2265 -1.2636  0.6914
   45MOL0     H 6071   2.453   5.029   3.602  0.3541 -0.3445  1.9265
   45MOL0     H 6072   1.818   5.282   3.398  0.2956 -0.3890  0.4978
   45MOL0     H 6073   1.647   5.061   3.250  0.6295 -1.2095 -2.5670
   45MOL0     H 6074   1.761   4.931   3.289 -1.7101 -0.1642  0.8358
   45MOL0     H 6075   1.733   5.052   3.407 -1.2615  0.9252 -0.8879
   46MOL0     O 6076   1.003   3.608   4.653 -0.5004 -0.1244 -0.7203
   46MOL0     C 6077   0.966   3.498   4.701 -0.5258 -0.4196 -0.1552
   46MOL0     O 6078   1.045   3.398   4.741 -0.7248  0.0237 -0.4434
   46MOL0     C 6079   1.181   3.407   4.726  0.5837  0.1054 -1.0219
   46MOL0     C 6080   1.261   3.495   4.645 -0.5322 -0.9720 -0.4465
   46MOL0     C 6081   1.405   3.490   4.647 -0.1106  0.3811 -1.2739
   46MOL0     C 6082   1.469   3.400   4.737 -0.0491 -0.1420 -0.3111
   46MOL0     O 6083   1.605   3.383   4.713  0.4023  0.3020 -0.4465
   46MOL0     C 6084   1.688   3.421   4.827  1.1163  0.9736 -0.5647
   46MOL0     C 6085   1.792   3.309   4.859  0.0352  0.2894  0.0416
   46MOL0     C 6086   1.720   3.191   4.927  0.3389  0.7431 -0.3834
   46MOL0     C 6087   1.823   3.098   4.984 -0.5404 -0.8018 -0.5103
   46MOL0     C 6088   1.751   2.971   5.040  0.6806  1.3377  1.0546
   46MOL0     C 6089   1.850   2.868   5.108  0.2421 -0.3706  0.3629
   46MOL0     C 6090   1.908   2.906   5.247  0.3774  0.5805  0.2642
   46MOL0     C 6091   1.786   2.924   5.350  0.0380  0.2088 -0.1826
   46MOL0     N 6092   1.843   2.899   5.485  0.1430  0.4749  0.1227
   46MOL0     C 6093   1.902   2.989   5.572 -0.0326  0.5994 -0.5250
   46MOL0     C 6094   1.965   2.916   5.671 -1.4706  0.7394  0.6099
   46MOL0     C 6095   2.075   2.969   5.766 -0.3603 -0.7426 -0.4241
   46MOL0     C 6096   2.126   3.103   5.707 -0.0728 -0.3315  0.3944
   46MOL0     C 6097   2.232   3.166   5.805  0.7360 -0.5852  1.1093
   46MOL0     C 6098   2.370   3.115   5.782 -0.2310  0.2160 -0.4120
   46MOL0     O 6099   2.426   3.187   5.679  0.1718 -0.1158  0.6488
   46MOL0     C 6100   2.562   3.170   5.659 -0.8764 -0.1365 -0.2108
   46MOL0     C 6101   2.646   3.092   5.737 -0.0674  0.0804  0.2568
   46MOL0     C 6102   2.779   3.071   5.704 -0.3723  0.1171  0.1398
   46MOL0     C 6103   2.840   3.136   5.597 -0.5764 -0.2187 -0.1549
   46MOL0     C 6104   2.989   3.118   5.575 -0.1402  1.4214  0.1012
   46MOL0     O 6105   3.061   3.068   5.678  0.2820 -0.7065  0.7357
   46MOL0     C 6106   3.202   3.066   5.672  0.2644 -0.1756  0.6765
   46MOL0     C 6107   3.290   3.143   5.594 -0.8429  0.3315 -0.4811
   46MOL0     C 6108   3.433   3.139   5.606 -0.2785  0.1113 -0.2258
   46MOL0     C 6109   3.495   3.054   5.708 -0.1838  0.3065  0.0435
   46MOL0     O 6110   3.628   3.063   5.728 -1.0307  0.7790 -0.4735
   46MOL0     C 6111   3.683   3.192   5.776  0.1784 -0.4075  0.9020
   46MOL0     C 6112   3.823   3.187   5.837  0.0348 -0.0633 -0.1422
   46MOL0     C 6113   3.937   3.138   5.761 -0.1101 -0.0864  0.6888
   46MOL0     C 6114   4.068   3.167   5.826 -1.1781 -1.7322  0.0252
   46MOL0     C 6115   4.140   3.286   5.756 -0.2662  0.2298 -0.1593
   46MOL0     C 6116   4.267   3.335   5.819  0.2810 -0.6637  0.2020
   46MOL0     C 6117   4.290   3.483   5.779  0.3929  0.4946 -0.0539
   46MOL0     C 6118   4.431   3.523   5.809 -0.1270  0.3842  0.4437
   46MOL0    Cl 6119   4.546   3.446   5.704 -0.0750  0.3712 -0.3097
   46MOL0     C 6120   3.402   2.973   5.782 -0.2544  0.5384 -0.1561
   46MOL0     C 6121   3.263   2.984   5.762  0.1321 -0.3072 -0.0581
   46MOL0     O 6122   3.032   3.139   5.462 -0.0246  0.3550 -0.4811
   46MOL0     C 6123   2.755   3.220   5.520 -0.4613 -0.2678  0.7160
   46MOL0     C 6124   2.619   3.233   5.548 -0.6041  0.0030 -0.5078
   46MOL0     N 6125   1.941   2.789   5.635 -0.0501  0.2500 -0.5924
   46MOL0     N 6126   1.871   2.777   5.528 -0.5606 -0.2380  0.2695
   46MOL0     C 6127   1.394   3.322   4.819 -0.2708 -0.0480 -0.2381
   46MOL0     C 6128   1.259   3.323   4.809  0.9802  0.0774 -0.1453
   46MOL0     C 6129   0.816   3.479   4.720 -0.7642  0.9312  0.9351
   46MOL0     C 6130   0.782   3.375   4.811  0.1015  0.6923  0.9804
   46MOL0     C 6131   0.647   3.339   4.832  0.4376  0.7234  0.1385
   46MOL0     C 6132   0.547   3.407   4.762  0.5701 -0.1609 -0.2056
   46MOL0     O 6133   0.409   3.383   4.780 -0.2244 -0.1837 -0.3590
   46MOL0     C 6134   0.368   3.249   4.816  0.0672 -1.2027 -0.0239
   46MOL0     C 6135   0.230   3.228   4.760 -0.3062 -0.4496  0.1261
   46MOL0     C 6136   0.126   3.322   4.822 -0.7856 -0.0874  0.2090
   46MOL0     C 6137   0.117   3.299   4.971 -0.7160 -0.2139 -0.2879
   46MOL0     C 6138   0.013   3.393   5.016 -0.0739  0.5395  0.6057
   46MOL0     C 6139  -0.074   3.469   5.046 -0.2265 -0.5290  0.7460
   46MOL0     C 6140   0.583   3.505   4.673 -0.5703  0.0696 -0.7423
   46MOL0     C 6141   0.716   3.538   4.648 -0.8011  0.1885 -0.4667
   46MOL0     C 6142   0.744   3.643   4.544 -0.0751  0.3304  0.8239
   46MOL0     H 6143   1.220   3.557   4.566  0.6498  1.9700  1.0783
   46MOL0     H 6144   1.464   3.550   4.579  0.0854  3.6292  1.5234
   46MOL0     H 6145   1.742   3.509   4.791  3.7266 -0.1643  0.2733
   46MOL0     H 6146   1.631   3.454   4.914  2.5189  0.9007  0.4276
   46MOL0     H 6147   1.862   3.354   4.930 -2.5732  3.6331  0.7692
   46MOL0     H 6148   1.845   3.282   4.768 -1.6437 -0.8699 -0.6505
   46MOL0     H 6149   1.661   3.141   4.850  0.4909 -2.3893  1.3742
   46MOL0     H 6150   1.645   3.214   5.004 -1.4011  1.0774 -2.0782
   46MOL0     H 6151   1.898   3.067   4.910 -0.0428 -2.4536  0.6122
   46MOL0     H 6152   1.875   3.157   5.060 -2.6981 -0.4126  0.7425
   46MOL0     H 6153   1.667   2.995   5.106 -0.7004 -3.9841  1.7271
   46MOL0     H 6154   1.707   2.926   4.951  0.9252 -0.5640  1.8459
   46MOL0     H 6155   1.810   2.767   5.119  2.5878 -1.3176  0.6860
   46MOL0     H 6156   1.929   2.871   5.032 -1.2415 -1.6795 -1.3068
   46MOL0     H 6157   1.958   3.003   5.256  1.1767  0.0021  3.3752
   46MOL0     H 6158   1.972   2.820   5.266  0.6637  0.7024 -0.1374
   46MOL0     H 6159   1.738   3.019   5.326 -1.2085 -0.8095 -2.0590
   46MOL0     H 6160   1.714   2.843   5.331 -0.8636  0.9374  0.0179
   46MOL0     H 6161   1.882   3.096   5.572  0.9755  0.9050  2.4954
   46MOL0     H 6162   2.046   2.994   5.869 -0.1982 -2.4511  0.0881
   46MOL0     H 6163   2.155   2.893   5.762 -0.1209 -0.8524  3.0142
   46MOL0     H 6164   2.166   3.104   5.606 -1.9592 -0.9848 -0.3944
   46MOL0     H 6165   2.035   3.163   5.707 -2.0627 -3.1176 -0.8223
   46MOL0     H 6166   2.199   3.150   5.908  1.0443 -0.1176  1.2824
   46MOL0     H 6167   2.236   3.275   5.794  0.8131 -0.6839  0.0276
   46MOL0     H 6168   2.368   3.009   5.754 -1.0858  0.1894 -0.2821
   46MOL0     H 6169   2.429   3.116   5.874 -0.3613 -0.9350 -0.2986
   46MOL0     H 6170   2.625   3.032   5.825  1.4468 -1.8949 -0.6402
   46MOL0     H 6171   2.831   2.994   5.759 -0.3785 -0.7681 -1.0706
   46MOL0     H 6172   3.262   3.212   5.515 -0.8502  2.4744  1.2623
   46MOL0     H 6173   3.499   3.209   5.557  1.4151 -0.8204  0.6415
   46MOL0     H 6174   3.663   3.257   5.691  2.8967 -2.0381 -1.1607
   46MOL0     H 6175   3.616   3.222   5.857  0.3734 -0.3294  1.0334
   46MOL0     H 6176   3.832   3.290   5.872  0.7567  0.1510 -0.9407
   46MOL0     H 6177   3.813   3.132   5.931 -1.4137 -1.1177 -0.8717
   46MOL0     H 6178   3.928   3.030   5.746  1.8806  0.1554 -4.2541
   46MOL0     H 6179   3.938   3.169   5.656  0.3937 -0.3353  0.6153
   46MOL0     H 6180   4.134   3.081   5.837  2.8552  1.2181  0.8476
   46MOL0     H 6181   4.053   3.208   5.926  3.7731  0.0698  0.2676
   46MOL0     H 6182   4.069   3.368   5.748  0.8816  1.2829  0.1078
   46MOL0     H 6183   4.174   3.240   5.662 -0.6992 -2.5974  0.9764
   46MOL0     H 6184   4.253   3.334   5.928 -0.7918 -0.8649  0.0801
   46MOL0     H 6185   4.351   3.270   5.795 -0.1448 -0.4858 -2.0046
   46MOL0     H 6186   4.222   3.538   5.844 -0.7187 -2.0340  1.0468
   46MOL0     H 6187   4.263   3.501   5.674  1.3857 -0.9040 -0.5712
   46MOL0     H 6188   4.436   3.632   5.800  1.6987  0.2861 -0.2077
   46MOL0     H 6189   4.452   3.501   5.914  0.5570  2.4998  0.7953
   46MOL0     H 6190   3.435   2.906   5.860 -3.8723 -0.1267  1.0166
   46MOL0     H 6191   3.200   2.916   5.819 -0.9737  1.5769  1.0725
   46MOL0     H 6192   2.807   3.278   5.445  1.5331  2.5047  3.9679
   46MOL0     H 6193   2.557   3.280   5.472 -0.4577 -0.8234 -1.1551
   46MOL0     H 6194   1.446   3.247   4.878  3.2965  2.2289 -0.1833
   46MOL0     H 6195   1.195   3.262   4.872 -2.6922  0.7546 -2.8873
   46MOL0     H 6196   0.859   3.316   4.860  2.2519  1.3370 -1.3483
   46MOL0     H 6197   0.628   3.278   4.920  0.4284  0.0408 -0.3260
   46MOL0     H 6198   0.368   3.233   4.924  0.2818 -0.3312  0.1171
   46MOL0     H 6199   0.443   3.178   4.779  1.1645 -0.1111  0.0525
   46MOL0     H 6200   0.197   3.127   4.786  1.8104 -0.8838  1.3011
   46MOL0     H 6201   0.247   3.240   4.652  1.0809 -2.3200  0.1062
   46MOL0     H 6202   0.026   3.310   4.779  0.0913  0.3259 -2.1179
   46MOL0     H 6203   0.142   3.422   4.780 -0.4378 -0.5439 -0.7834
   46MOL0     H 6204   0.097   3.195   4.997 -1.2777 -0.1413 -0.4095
   46MOL0     H 6205   0.204   3.330   5.029 -1.8563 -0.1160  1.4325
   46MOL0     H 6206  -0.151   3.536   5.080  0.0644  3.2196 -4.5900
   46MOL0     H 6207   0.514   3.558   4.609 -0.0201 -1.2554 -2.5084
   46MOL0     H 6208   0.834   3.622   4.486  0.7582  3.0283  0.9815
   46MOL0     H 6209   0.661   3.650   4.473  0.0993  0.4803  0.6350
   46MOL0     H 6210   0.755   3.734   4.605 -1.8050  0.2741  1.2714
   47MOL0     O 6211   9.274   4.827   3.867 -0.2515  0.0595  0.5161
   47MOL0     C 6212   9.341   4.907   3.927 -0.0627  0.8438 -0.7046
   47MOL0     O 6213   9.303   5.033   3.969  0.2634 -0.3223  0.0954
   47MOL0     C 6214   9.181   5.075   3.915  0.1858 -0.6138 -0.2676
   47MOL0     C 6215   9.083   5.120   4.008  1.4302  1.3600 -0.0321
   47MOL0     C 6216   8.963   5.176   3.955 -1.0250  0.4780 -0.3961
   47MOL0     C 6217   8.945   5.192   3.817 -0.0871 -0.4350  0.0621
   47MOL0     O 6218   8.822   5.258   3.784  0.0785  0.5270  0.3135
   47MOL0     C 6219   8.752   5.224   3.668  0.1993  0.9873 -0.0536
   47MOL0     C 6220   8.643   5.331   3.658 -0.2360  0.0887  0.1330
   47MOL0     C 6221   8.540   5.313   3.765 -0.8368 -0.6988  1.4013
   47MOL0     C 6222   8.465   5.449   3.790 -0.3667  0.6749 -0.0108
   47MOL0     C 6223   8.364   5.433   3.907  0.3325  0.3987  0.3914
   47MOL0     C 6224   8.449   5.448   4.037  0.2561  0.5263 -0.3945
   47MOL0     C 6225   8.347   5.441   4.152 -0.5127 -1.1282 -0.3403
   47MOL0     C 6226   8.436   5.447   4.283 -0.6068 -0.0432 -0.3861
   47MOL0     N 6227   8.489   5.582   4.306  0.3907 -0.3848  0.1727
   47MOL0     C 6228   8.609   5.621   4.369  1.2717  1.0832  0.6813
   47MOL0     C 6229   8.588   5.754   4.391 -0.1859 -0.1661  0.0189
   47MOL0     C 6230   8.686   5.855   4.445  0.2107  0.2796 -0.3307
   47MOL0     C 6231   8.825   5.843   4.392  0.3702  0.1006 -0.9729
   47MOL0     C 6232   8.842   5.855   4.235  0.0362  0.9769 -0.1192
   47MOL0     C 6233   8.982   5.822   4.204 -0.4679 -0.0164  0.3793
   47MOL0     O 6234   9.059   5.923   4.255 -1.2389  0.1994  0.6348
   47MOL0     C 6235   9.201   5.914   4.241  1.0640  0.9698 -0.3422
   47MOL0     C 6236   9.268   6.011   4.320 -0.7980  0.4976 -0.1085
   47MOL0     C 6237   9.417   6.013   4.332 -0.2619  1.2653  0.0367
   47MOL0     C 6238   9.483   5.903   4.267 -0.2584  0.4670  0.3596
   47MOL0     C 6239   9.634   5.902   4.246  0.4400  0.3282 -0.3956
   47MOL0     O 6240   9.699   6.019   4.274  0.5553 -0.3346 -0.8052
   47MOL0     C 6241   9.842   6.029   4.261 -0.3313  0.9875 -1.1812
   47MOL0     C 6242   9.888   6.161   4.270 -1.1399 -0.9933 -0.2174
   47MOL0     C 6243  10.021   6.185   4.268 -0.1438  0.5155 -0.4507
   47MOL0     C 6244  10.111   6.079   4.277  0.1409  0.7267 -0.1281
   47MOL0     O 6245  10.243   6.087   4.272  0.0598 -0.3995  0.0212
   47MOL0     C 6246  10.304   6.219   4.256  0.5863  0.3071  0.6493
   47MOL0     C 6247  10.441   6.212   4.321  0.0373  0.3065 -0.1941
   47MOL0     C 6248  10.561   6.161   4.233 -0.5063  0.4073 -0.3596
   47MOL0     C 6249  10.689   6.209   4.305 -0.4810 -0.4754 -0.1821
   47MOL0     C 6250  10.818   6.180   4.231 -0.4238  0.3870  0.2383
   47MOL0     C 6251  10.940   6.241   4.304 -0.2313  0.8278 -0.1462
   47MOL0     C 6252  11.062   6.175   4.234  0.2416 -0.6807  0.3146
   47MOL0     C 6253  11.104   6.215   4.096  0.6962 -0.6057  0.0584
   47MOL0    Cl 6254  11.160   6.379   4.097  0.3409 -0.0468  0.2091
   47MOL0     C 6255  10.067   5.952   4.277 -0.2417  0.3009 -0.2918
   47MOL0     C 6256   9.937   5.922   4.258  0.3814 -0.2299 -0.1683
   47MOL0     O 6257   9.684   5.795   4.213 -0.0878  0.2137  0.5828
   47MOL0     C 6258   9.411   5.806   4.189  1.1684 -0.1354  0.0981
   47MOL0     C 6259   9.273   5.808   4.176  0.6013  0.3740 -0.3537
   47MOL0     N 6260   8.468   5.788   4.348 -0.6545  0.2361 -0.0060
   47MOL0     N 6261   8.403   5.691   4.295 -0.0829 -0.2333 -0.2112
   47MOL0     C 6262   9.050   5.149   3.725 -0.1372 -0.1977 -0.6197
   47MOL0     C 6263   9.171   5.102   3.780  0.4219  0.0554  0.0212
   47MOL0     C 6264   9.485   4.877   3.936 -0.3195  0.3552  0.6002
   47MOL0     C 6265   9.566   4.906   3.822  1.2674  0.0853  0.7083
   47MOL0     C 6266   9.692   4.859   3.822  0.1536  0.6168  0.9113
   47MOL0     C 6267   9.756   4.814   3.942  0.3764 -0.3868  0.3354
   47MOL0     O 6268   9.891   4.782   3.946 -0.2114 -0.2745  0.5813
   47MOL0     C 6269   9.941   4.685   4.041  0.2999  0.0328 -0.0286
   47MOL0     C 6270  10.010   4.741   4.167 -0.6372  0.7055  0.4340
   47MOL0     C 6271  10.117   4.847   4.138 -0.3985  0.5154  0.1723
   47MOL0     C 6272  10.210   4.866   4.259  0.3644 -0.7875 -0.3814
   47MOL0     C 6273  10.292   4.990   4.234 -0.1433 -0.0752 -0.2607
   47MOL0     C 6274  10.355   5.090   4.214  0.7846  0.6744  0.4129
   47MOL0     C 6275   9.671   4.787   4.050 -0.4074 -0.1113 -1.4010
   47MOL0     C 6276   9.540   4.815   4.048 -0.1003  1.1008  0.9233
   47MOL0     C 6277   9.448   4.766   4.162  0.0639  0.3532 -0.3042
   47MOL0     H 6278   9.101   5.111   4.115 -0.9053 -1.8232  0.2300
   47MOL0     H 6279   8.897   5.201   4.037 -1.7585 -1.9163 -0.1631
   47MOL0     H 6280   8.821   5.234   3.584  1.7791 -1.5480  0.8245
   47MOL0     H 6281   8.721   5.119   3.674  0.0547  1.0125 -0.3515
   47MOL0     H 6282   8.596   5.311   3.562  0.7961 -2.4205  0.0856
   47MOL0     H 6283   8.686   5.432   3.664 -1.7923  0.8486 -0.9272
   47MOL0     H 6284   8.586   5.270   3.854 -0.0424 -1.6873  0.5290
   47MOL0     H 6285   8.470   5.247   3.713 -1.1906  3.2157 -3.9752
   47MOL0     H 6286   8.541   5.526   3.808 -0.9743  1.2163  0.2615
   47MOL0     H 6287   8.411   5.462   3.695 -0.4319 -2.3655 -0.4807
   47MOL0     H 6288   8.292   5.513   3.888 -0.7027 -0.8658 -1.4026
   47MOL0     H 6289   8.308   5.338   3.910  3.0020 -1.3451 -0.8179
   47MOL0     H 6290   8.520   5.366   4.046 -1.1787 -0.8149 -0.9955
   47MOL0     H 6291   8.504   5.543   4.036 -0.2288  0.8209 -0.0005
   47MOL0     H 6292   8.297   5.344   4.152 -0.7415 -1.0431  1.3724
   47MOL0     H 6293   8.272   5.521   4.158 -0.6310 -1.2196 -0.6220
   47MOL0     H 6294   8.385   5.416   4.374 -0.6284  0.9271 -0.0591
   47MOL0     H 6295   8.527   5.388   4.272  1.2972  2.8529 -1.7514
   47MOL0     H 6296   8.692   5.554   4.391  0.2375 -1.0769 -1.6158
   47MOL0     H 6297   8.639   5.948   4.411 -2.5095  0.1281  2.4914
   47MOL0     H 6298   8.683   5.862   4.555 -0.0651  2.3119 -0.4295
   47MOL0     H 6299   8.882   5.922   4.440 -1.9300  1.8621 -0.9661
   47MOL0     H 6300   8.870   5.751   4.431  0.9385  1.1058  0.8206
   47MOL0     H 6301   8.815   5.950   4.189  2.5096  1.9107  0.1896
   47MOL0     H 6302   8.777   5.778   4.193 -0.9613  1.7159  0.0183
   47MOL0     H 6303   8.993   5.817   4.095 -1.5503  2.3836  0.1009
   47MOL0     H 6304   9.015   5.728   4.250  1.1901 -0.1475 -0.9568
   47MOL0     H 6305   9.213   6.078   4.385 -1.3900  0.2065 -0.3001
   47MOL0     H 6306   9.463   6.102   4.374 -2.2633  1.8037  1.2340
   47MOL0     H 6307   9.818   6.243   4.283 -0.8673 -0.5525 -1.3917
   47MOL0     H 6308  10.050   6.287   4.246  1.8061 -0.1345 -1.1490
   47MOL0     H 6309  10.315   6.241   4.149 -4.1812  1.4644  0.1759
   47MOL0     H 6310  10.243   6.297   4.303 -0.4218  1.1898 -1.9360
   47MOL0     H 6311  10.472   6.309   4.360  0.0339 -0.3013  1.3861
   47MOL0     H 6312  10.432   6.148   4.409  0.8381  1.3389  0.6582
   47MOL0     H 6313  10.560   6.053   4.213  1.5622  0.6094 -1.9595
   47MOL0     H 6314  10.566   6.196   4.129 -2.3672 -0.5996 -0.8412
   47MOL0     H 6315  10.683   6.169   4.406  0.5938  0.4955  0.2976
   47MOL0     H 6316  10.693   6.318   4.320  3.0462 -0.7695  2.3977
   47MOL0     H 6317  10.814   6.224   4.131 -1.6502  0.5872  0.3642
   47MOL0     H 6318  10.827   6.072   4.223 -3.1699  0.0112  1.2872
   47MOL0     H 6319  10.956   6.349   4.302  1.8353  0.5591 -0.7406
   47MOL0     H 6320  10.947   6.216   4.410  1.6291  1.4751 -0.0904
   47MOL0     H 6321  11.049   6.067   4.227  0.4116 -0.5903 -4.1699
   47MOL0     H 6322  11.142   6.195   4.306 -3.1474  1.3008  3.9161
   47MOL0     H 6323  11.177   6.145   4.054  0.6483 -0.2735 -0.6022
   47MOL0     H 6324  11.014   6.224   4.033 -0.5182  5.1660  1.9907
   47MOL0     H 6325  10.144   5.877   4.294 -0.1677  0.5265  0.4299
   47MOL0     H 6326   9.918   5.815   4.262  1.4381 -0.4029  2.7026
   47MOL0     H 6327   9.454   5.724   4.133  0.7936 -0.0532 -0.3170
   47MOL0     H 6328   9.220   5.732   4.121  0.4515  0.5163 -0.4088
   47MOL0     H 6329   9.035   5.144   3.617 -2.2369  0.4512 -0.4014
   47MOL0     H 6330   9.252   5.066   3.715  1.6823  0.2988  1.4066
   47MOL0     H 6331   9.513   4.955   3.741 -2.4723 -1.9175  1.7439
   47MOL0     H 6332   9.763   4.864   3.740  0.0705  0.4406  0.8277
   47MOL0     H 6333  10.007   4.624   3.979 -1.3959  0.1112 -2.0097
   47MOL0     H 6334   9.865   4.612   4.070  0.9200  0.6857  3.7256
   47MOL0     H 6335  10.068   4.663   4.217  0.4082  0.7219 -0.7282
   47MOL0     H 6336   9.938   4.793   4.232  0.8411  1.9643  1.1264
   47MOL0     H 6337  10.064   4.937   4.106 -0.6112 -0.1194 -1.3120
   47MOL0     H 6338  10.183   4.813   4.058  1.2165  1.0240  1.2294
   47MOL0     H 6339  10.143   4.884   4.344 -2.1882  0.2003 -2.4748
   47MOL0     H 6340  10.270   4.776   4.276  0.0305 -0.9349  0.0475
   47MOL0     H 6341  10.403   5.178   4.177  2.1321  0.3500  1.3108
   47MOL0     H 6342   9.706   4.752   4.147 -3.0634  1.7490  0.3558
   47MOL0     H 6343   9.347   4.732   4.139 -0.0279 -1.2243  2.1058
   47MOL0     H 6344   9.485   4.676   4.212 -0.7972 -0.7729 -1.5889
   47MOL0     H 6345   9.435   4.850   4.230 -1.6027 -0.4785  0.4498
   48MOL0     O 6346   9.269   4.930  10.223 -0.4473  0.4264  0.3010
   48MOL0     C 6347   9.262   4.821  10.174  0.6855  0.2578 -0.6718
   48MOL0     O 6348   9.276   4.698  10.232 -0.1334 -1.2909  0.1589
   48MOL0     C 6349   9.306   4.680  10.364 -1.0563  0.2386 -0.6333
   48MOL0     C 6350   9.364   4.774  10.452  0.4978  0.9837 -0.7225
   48MOL0     C 6351   9.388   4.730  10.584  0.1683 -0.1495  0.5311
   48MOL0     C 6352   9.375   4.601  10.626  0.4523  0.6384 -0.4053
   48MOL0     O 6353   9.445   4.571  10.748  0.4283 -0.0123  0.0609
   48MOL0     C 6354   9.472   4.430  10.790 -0.5185  0.0229  0.2811
   48MOL0     C 6355   9.497   4.419  10.944  0.3751 -0.3541 -0.0653
   48MOL0     C 6356   9.387   4.441  11.048 -0.0682  0.1040  0.0775
   48MOL0     C 6357   9.454   4.392  11.182  0.4293  0.0547  0.1836
   48MOL0     C 6358   9.362   4.395  11.307 -0.5255  0.3391  0.2735
   48MOL0     C 6359   9.232   4.313  11.296 -0.6599 -0.1775 -0.3489
   48MOL0     C 6360   9.253   4.158  11.291 -0.1593 -1.1759 -0.3557
   48MOL0     C 6361   9.309   4.114  11.425 -0.1133  0.5748  0.9274
   48MOL0     N 6362   9.304   3.965  11.428  0.2145  0.1541  0.1705
   48MOL0     C 6363   9.191   3.887  11.457  0.2848  0.6834  0.3525
   48MOL0     C 6364   9.236   3.760  11.425 -0.2710  0.4962 -0.3597
   48MOL0     C 6365   9.140   3.642  11.421 -0.5044 -0.7726 -0.5432
   48MOL0     C 6366   9.153   3.540  11.533  0.4172  0.0699 -0.3585
   48MOL0     C 6367   9.028   3.452  11.557  1.0501  0.1092  0.7428
   48MOL0     C 6368   8.971   3.363  11.443 -0.1039  0.2855 -0.4941
   48MOL0     O 6369   9.071   3.287  11.370  0.8700 -0.0902 -0.1267
   48MOL0     C 6370   9.010   3.191  11.295 -0.4160  0.3358  0.1756
   48MOL0     C 6371   8.999   3.057  11.336 -0.1376  0.2570 -0.9849
   48MOL0     C 6372   8.965   2.961  11.244  0.3453  0.0914  0.7953
   48MOL0     C 6373   8.949   2.982  11.107 -0.2762 -0.0104  1.1202
   48MOL0     C 6374   8.923   2.872  11.005  0.5469  0.3225 -0.5375
   48MOL0     O 6375   8.944   2.750  11.047  0.1504 -0.9130 -0.9077
   48MOL0     C 6376   8.912   2.635  10.980  0.2354 -0.2519 -0.0977
   48MOL0     C 6377   8.919   2.509  11.051  0.3921 -0.0410  1.4183
   48MOL0     C 6378   8.883   2.393  10.990 -0.5025 -1.2953 -0.2802
   48MOL0     C 6379   8.842   2.395  10.857  0.4632 -0.1855  0.5858
   48MOL0     O 6380   8.815   2.269  10.806 -0.0534  0.4854  0.4894
   48MOL0     C 6381   8.759   2.254  10.674 -0.0447  0.0042  0.0082
   48MOL0     C 6382   8.729   2.100  10.658  0.7507  0.6969 -1.0404
   48MOL0     C 6383   8.861   2.020  10.653 -0.7228  0.7662  0.1555
   48MOL0     C 6384   8.961   2.045  10.535 -0.5873 -0.1170 -0.1703
   48MOL0     C 6385   9.041   1.919  10.516 -0.3733 -0.1642  0.1136
   48MOL0     C 6386   9.163   1.939  10.417  0.9036  0.7156  0.0522
   48MOL0     C 6387   9.203   1.801  10.367  0.5689  0.2710  0.0354
   48MOL0     C 6388   9.329   1.796  10.280  0.3391 -0.3794 -0.6689
   48MOL0    Cl 6389   9.395   1.640  10.239 -0.3618  0.4917 -0.0607
   48MOL0     C 6390   8.836   2.516  10.781 -0.6358 -0.3709 -0.1174
   48MOL0     C 6391   8.865   2.633  10.842  0.7909  0.0359 -0.3838
   48MOL0     O 6392   8.889   2.915  10.895 -0.0663  0.5018 -0.3490
   48MOL0     C 6393   8.952   3.115  11.074  0.8143  0.3561  0.4648
   48MOL0     C 6394   8.989   3.215  11.158 -0.6872 -0.1352 -0.6930
   48MOL0     N 6395   9.358   3.769  11.370  0.9734 -0.9935  0.5491
   48MOL0     N 6396   9.398   3.888  11.390  0.4705 -0.5154 -0.1924
   48MOL0     C 6397   9.316   4.501  10.543 -0.1524  0.7155 -0.3892
   48MOL0     C 6398   9.282   4.547  10.411  0.0219  0.0083 -0.9537
   48MOL0     C 6399   9.229   4.823  10.028  0.4532 -0.2692 -0.1489
   48MOL0     C 6400   9.297   4.915   9.950  0.1789 -0.4854  0.1382
   48MOL0     C 6401   9.281   4.913   9.811 -0.4374  0.2664 -1.1912
   48MOL0     C 6402   9.190   4.828   9.756  0.6846  0.3548  0.0956
   48MOL0     O 6403   9.127   4.840   9.631 -0.0498 -0.4589 -0.4329
   48MOL0     C 6404   9.185   4.945   9.546 -0.9762 -0.2592  1.1158
   48MOL0     C 6405   9.099   4.974   9.433  0.3078 -0.6601  0.1963
   48MOL0     C 6406   9.056   4.856   9.331  0.4643 -0.1408 -1.0050
   48MOL0     C 6407   9.180   4.802   9.263 -1.1593 -0.5210  0.8905
   48MOL0     C 6408   9.155   4.671   9.203 -0.6196  0.1292  0.6601
   48MOL0     C 6409   9.133   4.569   9.141 -0.4691 -0.0236  0.4592
   48MOL0     C 6410   9.124   4.733   9.828  1.3871 -0.3552 -0.7308
   48MOL0     C 6411   9.139   4.735   9.971  0.2911 -0.0791  0.9028
   48MOL0     C 6412   9.043   4.646  10.058 -0.2327  0.3122  0.3124
   48MOL0     H 6413   9.384   4.878  10.429 -2.3199  1.5990 -0.7892
   48MOL0     H 6414   9.436   4.794  10.658  0.1407 -0.2733  0.6572
   48MOL0     H 6415   9.380   4.372  10.774  0.2268 -1.2289  0.4433
   48MOL0     H 6416   9.558   4.398  10.731  1.6565  1.5525  2.4850
   48MOL0     H 6417   9.573   4.494  10.963  0.3458 -0.2096 -0.5006
   48MOL0     H 6418   9.531   4.316  10.959 -3.1602 -1.8667 -1.1865
   48MOL0     H 6419   9.292   4.388  11.039 -1.1697  1.2717  3.3757
   48MOL0     H 6420   9.356   4.545  11.061 -2.2095 -0.1202 -2.3597
   48MOL0     H 6421   9.506   4.296  11.174  1.0651  0.5178 -1.5376
   48MOL0     H 6422   9.529   4.466  11.211  0.2876 -0.7281  2.8962
   48MOL0     H 6423   9.415   4.355  11.394 -2.5392  0.9833  1.8486
   48MOL0     H 6424   9.341   4.500  11.328 -0.0121  0.5568 -0.2673
   48MOL0     H 6425   9.169   4.334  11.383 -1.8365 -1.8313 -0.7426
   48MOL0     H 6426   9.172   4.343  11.209  0.8333  1.5778 -0.8252
   48MOL0     H 6427   9.322   4.131  11.211 -2.0109  1.0834 -2.8862
   48MOL0     H 6428   9.160   4.102  11.278 -0.2393 -1.5302  1.4780
   48MOL0     H 6429   9.412   4.149  11.435  0.2075  0.2156 -0.7548
   48MOL0     H 6430   9.237   4.157  11.495 -1.1331  1.2462 -0.4705
   48MOL0     H 6431   9.092   3.913  11.494 -0.6411 -3.8028  1.5693
   48MOL0     H 6432   9.043   3.691  11.432  0.0671  0.3772 -0.4678
   48MOL0     H 6433   9.152   3.597  11.323 -1.3605 -1.4199 -0.3683
   48MOL0     H 6434   9.245   3.482  11.524 -0.1117 -0.4308 -3.5057
   48MOL0     H 6435   9.167   3.608  11.618 -2.0509  2.2030 -1.4969
   48MOL0     H 6436   8.946   3.513  11.597 -1.4542 -1.8474 -1.0449
   48MOL0     H 6437   9.058   3.386  11.639  0.3190 -0.0456  0.8977
   48MOL0     H 6438   8.930   3.432  11.368  1.6243  0.4601 -1.3132
   48MOL0     H 6439   8.890   3.296  11.473  1.4380 -2.5807 -2.2622
   48MOL0     H 6440   9.018   3.033  11.440 -2.8868 -0.4376 -0.5556
   48MOL0     H 6441   8.951   2.859  11.278 -0.1735  0.1754  0.8422
   48MOL0     H 6442   8.940   2.514  11.158 -2.0013  1.0662  1.9054
   48MOL0     H 6443   8.898   2.291  11.023  0.5181 -1.0789 -0.0338
   48MOL0     H 6444   8.667   2.312  10.683 -1.0832 -1.4369 -1.0045
   48MOL0     H 6445   8.831   2.282  10.597  1.0067 -0.5647  0.7455
   48MOL0     H 6446   8.676   2.060  10.744  0.2182  0.7374 -1.3441
   48MOL0     H 6447   8.662   2.088  10.572 -1.3141 -1.2427  0.7240
   48MOL0     H 6448   8.919   2.009  10.745  0.6092 -2.2625 -0.9269
   48MOL0     H 6449   8.829   1.917  10.633 -2.7770  1.3278  0.3376
   48MOL0     H 6450   9.031   2.128  10.546  1.0544 -1.5847  0.8455
   48MOL0     H 6451   8.901   2.062  10.444 -0.2666 -1.3405 -0.6276
   48MOL0     H 6452   8.966   1.848  10.481  0.6992 -0.3893 -1.8781
   48MOL0     H 6453   9.096   1.888  10.605  1.2191 -0.2005 -0.8454
   48MOL0     H 6454   9.107   1.998  10.344 -5.7713 -1.2727  2.8144
   48MOL0     H 6455   9.250   1.991  10.456  0.0055  0.6769  2.2819
   48MOL0     H 6456   9.127   1.752  10.306  0.4293  2.7495 -1.9154
   48MOL0     H 6457   9.219   1.741  10.458 -2.0712  1.8606  1.6908
   48MOL0     H 6458   9.306   1.851  10.188  0.8914 -1.7865 -1.6834
   48MOL0     H 6459   9.408   1.848  10.335 -0.3094 -2.1462  2.1383
   48MOL0     H 6460   8.812   2.533  10.676  1.6662 -0.2846 -0.6924
   48MOL0     H 6461   8.844   2.727  10.793  1.9316  1.4122  1.6308
   48MOL0     H 6462   8.927   3.151  10.975 -1.2054  0.0870  0.8231
   48MOL0     H 6463   9.005   3.317  11.125 -0.8008 -0.1744 -0.8736
   48MOL0     H 6464   9.292   4.404  10.585  2.4617  0.2336  0.1736
   48MOL0     H 6465   9.241   4.468  10.350 -2.7697  0.5456  0.0772
   48MOL0     H 6466   9.369   4.988   9.987 -0.7126  0.5556 -0.1341
   48MOL0     H 6467   9.343   4.985   9.758  1.8115 -0.2289  0.6194
   48MOL0     H 6468   9.285   4.915   9.515 -0.0617  2.3557  1.2924
   48MOL0     H 6469   9.212   5.031   9.609  0.2812 -0.3253  0.6834
   48MOL0     H 6470   9.149   5.051   9.373 -1.3772 -1.4649 -2.4030
   48MOL0     H 6471   9.016   5.026   9.482  1.6854  3.0135 -1.0048
   48MOL0     H 6472   8.991   4.914   9.264 -0.5517 -1.1848 -0.9563
   48MOL0     H 6473   8.997   4.780   9.383  0.5575 -0.5002 -1.4203
   48MOL0     H 6474   9.200   4.865   9.176  0.5484 -2.2719 -0.0795
   48MOL0     H 6475   9.259   4.811   9.338 -0.5299  1.5832  0.0455
   48MOL0     H 6476   9.101   4.490   9.076 -0.0954  0.1609  0.0423
   48MOL0     H 6477   9.051   4.668   9.781 -0.7740  2.1692 -1.0755
   48MOL0     H 6478   9.097   4.555  10.087  0.1917 -0.8439 -3.4494
   48MOL0     H 6479   9.001   4.688  10.150 -1.1399 -0.7315  0.3928
   48MOL0     H 6480   8.950   4.620  10.007 -0.7074  1.3241  0.6511
   49MOL0     O 6481   1.459  10.718   6.182 -0.1951  0.3189  0.0950
   49MOL0     C 6482   1.514  10.827   6.183 -0.2696 -0.1585  0.9066
   49MOL0     O 6483   1.507  10.916   6.281 -0.1861 -0.6958 -0.4912
   49MOL0     C 6484   1.438  10.866   6.388  0.0326  0.4394  0.0150
   49MOL0     C 6485   1.507  10.793   6.488  0.5845  0.7496  1.3143
   49MOL0     C 6486   1.433  10.749   6.598  0.1935 -0.5107 -1.0731
   49MOL0     C 6487   1.301  10.789   6.617 -0.2796  0.2378 -0.4047
   49MOL0     O 6488   1.254  10.771   6.744  0.8239 -0.0049  0.3216
   49MOL0     C 6489   1.112  10.789   6.767  0.0075 -0.1396  0.2373
   49MOL0     C 6490   1.065  10.726   6.897 -0.1044  0.1518 -0.8795
   49MOL0     C 6491   0.924  10.765   6.926 -0.4367 -0.2932  0.0542
   49MOL0     C 6492   0.878  10.686   7.047  0.2336 -0.5444  0.2854
   49MOL0     C 6493   0.725  10.687   7.057 -0.0967 -0.5284 -0.9718
   49MOL0     C 6494   0.671  10.821   7.105  0.3530 -0.0716  0.2299
   49MOL0     C 6495   0.710  10.880   7.243 -0.3027 -1.2784  0.3308
   49MOL0     C 6496   0.634  11.016   7.274  0.5613 -0.0281 -0.8924
   49MOL0     N 6497   0.655  11.055   7.412 -0.1129 -0.4446 -0.1756
   49MOL0     C 6498   0.706  11.172   7.459  0.2623  0.6333  0.3386
   49MOL0     C 6499   0.688  11.178   7.591  0.4996 -0.2669  0.1298
   49MOL0     C 6500   0.731  11.290   7.687 -0.3011 -0.6748 -0.1209
   49MOL0     C 6501   0.868  11.259   7.747 -0.3193 -0.2161  0.0864
   49MOL0     C 6502   0.894  11.333   7.871  0.0238  0.3582 -0.5410
   49MOL0     C 6503   1.037  11.301   7.935  0.5750  0.6138 -0.8944
   49MOL0     O 6504   1.139  11.374   7.860 -0.1098 -0.2471 -0.3371
   49MOL0     C 6505   1.262  11.359   7.915  0.0261  0.0312  0.6137
   49MOL0     C 6506   1.350  11.463   7.880  0.6686  0.0393 -0.4978
   49MOL0     C 6507   1.485  11.461   7.926  0.1050 -0.3027  0.5545
   49MOL0     C 6508   1.534  11.351   7.998  0.3588  0.5857  0.6398
   49MOL0     C 6509   1.674  11.344   8.037  0.2221 -0.2757 -0.9364
   49MOL0     O 6510   1.723  11.228   8.086  0.9245 -0.7244  0.6926
   49MOL0     C 6511   1.852  11.233   8.131  0.1649  0.2250  0.3634
   49MOL0     C 6512   1.882  11.290   8.253 -1.5454 -0.4324  0.4777
   49MOL0     C 6513   2.018  11.269   8.298  0.1549  0.4365  0.0807
   49MOL0     C 6514   2.106  11.192   8.236 -0.2906  0.6320  0.4370
   49MOL0     O 6515   2.225  11.168   8.299 -0.4058  0.2078 -0.2736
   49MOL0     C 6516   2.350  11.153   8.215 -0.1054 -0.3902 -0.2424
   49MOL0     C 6517   2.470  11.136   8.301 -0.4689  0.1827 -0.7543
   49MOL0     C 6518   2.585  11.071   8.199  0.3524 -0.2782  0.7838
   49MOL0     C 6519   2.723  11.089   8.266  0.1911  0.3174  0.5697
   49MOL0     C 6520   2.832  11.034   8.181  0.6862 -0.6751  0.1510
   49MOL0     C 6521   2.844  10.884   8.192 -0.1640  0.3282 -0.0034
   49MOL0     C 6522   2.958  10.855   8.080 -0.4812  0.3596 -0.9830
   49MOL0     C 6523   3.050  10.749   8.144  0.0957  0.6152 -0.1265
   49MOL0    Cl 6524   3.139  10.838   8.277 -0.2218  0.0795 -0.4694
   49MOL0     C 6525   2.069  11.124   8.118 -0.3893  0.3548  1.0068
   49MOL0     C 6526   1.940  11.148   8.064 -0.5931  0.5834 -0.8554
   49MOL0     O 6527   1.737  11.447   8.042  0.4753  0.7240  0.2413
   49MOL0     C 6528   1.440  11.245   8.032  0.2505 -0.2975 -0.3866
   49MOL0     C 6529   1.302  11.253   7.996 -0.3878 -0.8480  0.0504
   49MOL0     N 6530   0.619  11.066   7.625  0.0208 -0.0338  0.0887
   49MOL0     N 6531   0.591  10.997   7.515 -0.0238 -0.7959 -0.2368
   49MOL0     C 6532   1.235  10.857   6.520 -0.3671 -0.6993  0.3913
   49MOL0     C 6533   1.301  10.895   6.399 -0.0706 -0.4403 -0.5245
   49MOL0     C 6534   1.615  10.849   6.075 -0.1685 -0.0804  0.4829
   49MOL0     C 6535   1.706  10.953   6.097 -0.1795 -0.3102 -0.8489
   49MOL0     C 6536   1.814  10.978   6.013  0.0468 -0.3776 -0.5879
   49MOL0     C 6537   1.832  10.914   5.896  1.1054 -0.4532  0.0679
   49MOL0     O 6538   1.943  10.946   5.824 -0.3924  0.1224  0.4127
   49MOL0     C 6539   1.960  10.904   5.685  0.2236  0.0421 -0.2981
   49MOL0     C 6540   2.071  10.981   5.608  0.1468  0.5161  0.2762
   49MOL0     C 6541   2.213  10.937   5.638  0.4388 -1.1218 -0.7782
   49MOL0     C 6542   2.321  11.026   5.582  0.5428 -0.2303  1.0711
   49MOL0     C 6543   2.319  11.078   5.444 -0.3370  0.1135 -0.2284
   49MOL0     C 6544   2.304  11.116   5.331  0.8734  0.2735 -0.3318
   49MOL0     C 6545   1.744  10.809   5.861  0.1690 -0.1357 -0.0478
   49MOL0     C 6546   1.633  10.776   5.952  0.8480 -0.2357 -0.2728
   49MOL0     C 6547   1.555  10.662   5.901 -0.3275 -0.8372 -0.6655
   49MOL0     H 6548   1.608  10.754   6.477 -0.1214 -1.5743  2.4504
   49MOL0     H 6549   1.485  10.685   6.669 -0.6953 -0.8099 -0.6850
   49MOL0     H 6550   1.080  10.893   6.755 -0.4202 -0.5563 -3.0938
   49MOL0     H 6551   1.057  10.734   6.690 -1.7407  1.1633  0.5050
   49MOL0     H 6552   1.123  10.756   6.985 -0.1597  0.9060 -1.0926
   49MOL0     H 6553   1.076  10.618   6.901 -1.5136  0.0399  0.9295
   49MOL0     H 6554   0.865  10.746   6.836 -0.6774 -1.5783  0.4609
   49MOL0     H 6555   0.916  10.871   6.953 -0.6956 -0.3677  0.2753
   49MOL0     H 6556   0.900  10.580   7.029  1.0928 -0.0599 -1.9713
   49MOL0     H 6557   0.924  10.713   7.142 -0.2634  3.5569 -0.4395
   49MOL0     H 6558   0.684  10.671   6.957  1.2098  2.0342 -1.9950
   49MOL0     H 6559   0.688  10.613   7.130  0.0255  1.4720  1.2564
   49MOL0     H 6560   0.693  10.898   7.031  1.1108 -0.7434 -0.2655
   49MOL0     H 6561   0.564  10.809   7.086  0.3323 -1.0983  0.8789
   49MOL0     H 6562   0.818  10.897   7.245 -0.2264 -1.8630  1.3521
   49MOL0     H 6563   0.684  10.810   7.322 -1.8965  1.2446  2.1929
   49MOL0     H 6564   0.674  11.095   7.209  1.6036 -0.3964 -0.7230
   49MOL0     H 6565   0.528  10.993   7.260  0.2840  0.3620  0.4027
   49MOL0     H 6566   0.772  11.240   7.406  0.9376 -0.6269 -0.4844
   49MOL0     H 6567   0.734  11.388   7.638  1.6305 -0.7912 -0.3208
   49MOL0     H 6568   0.653  11.298   7.764  0.4434  1.7373  0.4826
   49MOL0     H 6569   0.862  11.153   7.774  3.4300  0.1238  3.0819
   49MOL0     H 6570   0.953  11.279   7.681 -1.7362  0.6049 -1.5725
   49MOL0     H 6571   0.819  11.303   7.944  0.3715  2.7281  0.9109
   49MOL0     H 6572   0.891  11.437   7.835  2.8414  0.7221  0.0138
   49MOL0     H 6573   1.054  11.193   7.927 -2.4061  0.0759 -1.1209
   49MOL0     H 6574   1.027  11.339   8.037 -2.5780  2.7399 -1.8362
   49MOL0     H 6575   1.329  11.545   7.812 -1.3299 -1.6789 -2.0387
   49MOL0     H 6576   1.550  11.543   7.897  1.2791 -1.3133  0.2865
   49MOL0     H 6577   1.810  11.360   8.294  0.6491  2.5267 -0.2799
   49MOL0     H 6578   2.047  11.331   8.383  2.6273  1.6354 -1.5193
   49MOL0     H 6579   2.348  11.066   8.149  2.2405 -0.4186 -0.3610
   49MOL0     H 6580   2.366  11.239   8.149  0.9853  1.3843  2.1779
   49MOL0     H 6581   2.509  11.224   8.353  4.3237 -2.2840  0.4974
   49MOL0     H 6582   2.439  11.067   8.380 -1.1994  2.7611  1.3439
   49MOL0     H 6583   2.563  10.964   8.190  3.3222 -0.8408 -0.9202
   49MOL0     H 6584   2.595  11.115   8.099 -0.5079  2.8448  1.9410
   49MOL0     H 6585   2.729  11.055   8.370 -0.7870 -0.9585  0.2339
   49MOL0     H 6586   2.750  11.195   8.260 -0.5147  0.5841  1.6435
   49MOL0     H 6587   2.925  11.082   8.214 -0.0011  0.2596  0.7788
   49MOL0     H 6588   2.809  11.069   8.080 -1.2775 -0.4604  0.6321
   49MOL0     H 6589   2.869  10.861   8.296 -1.2605  2.9584  0.9185
   49MOL0     H 6590   2.754  10.826   8.169 -0.1966  1.4989 -3.3056
   49MOL0     H 6591   3.025  10.937   8.054  0.7954  0.3574  1.9781
   49MOL0     H 6592   2.911  10.823   7.986 -0.8053  0.6671 -0.9300
   49MOL0     H 6593   2.998  10.663   8.187  1.6993  0.8101  2.4095
   49MOL0     H 6594   3.126  10.707   8.078 -0.3635  1.3304 -1.1188
   49MOL0     H 6595   2.126  11.046   8.069  1.7844  2.0296  0.7215
   49MOL0     H 6596   1.902  11.101   7.974  0.6730  0.2248 -1.2140
   49MOL0     H 6597   1.453  11.166   8.106 -2.8423 -0.4049  0.1795
   49MOL0     H 6598   1.241  11.167   8.022 -0.4568 -0.4324  1.3251
   49MOL0     H 6599   1.135  10.897   6.521  0.1827  1.0313 -2.1585
   49MOL0     H 6600   1.258  10.955   6.319  2.0877  2.3414  0.2252
   49MOL0     H 6601   1.714  10.996   6.197 -3.1400 -2.2287  0.3733
   49MOL0     H 6602   1.879  11.059   6.048  1.1482 -0.6181 -2.0046
   49MOL0     H 6603   1.865  10.915   5.632 -0.0427 -3.7730 -0.8678
   49MOL0     H 6604   1.989  10.799   5.680  2.9825  0.7568 -1.4565
   49MOL0     H 6605   2.065  11.088   5.629 -1.7813  0.7857 -1.3697
   49MOL0     H 6606   2.050  10.973   5.501 -4.1396  0.3358  0.9594
   49MOL0     H 6607   2.221  10.833   5.606  1.2680 -1.2864 -0.0834
   49MOL0     H 6608   2.226  10.939   5.746  0.3536  3.5510 -0.6201
   49MOL0     H 6609   2.349  11.108   5.649 -2.2643  1.2811  0.5839
   49MOL0     H 6610   2.407  10.959   5.585  0.9982  0.2890  0.1001
   49MOL0     H 6611   2.285  11.137   5.228  1.8088 -0.2215 -0.6083
   49MOL0     H 6612   1.748  10.767   5.761  0.2433  2.0636 -1.0251
   49MOL0     H 6613   1.449  10.681   5.920  0.4086  1.6923  1.5172
   49MOL0     H 6614   1.591  10.645   5.799 -2.9953 -0.1836 -1.7772
   49MOL0     H 6615   1.587  10.566   5.945  1.2307 -0.9659 -1.9549
   50MOL0     O 6616   0.133   1.985  10.648  0.2312  0.2843  0.1246
   50MOL0     C 6617   0.214   1.895  10.652  0.2768  0.7773  0.6890
   50MOL0     O 6618   0.325   1.879  10.581  0.1209 -0.4636 -0.4015
   50MOL0     C 6619   0.417   1.982  10.553 -0.4129 -0.1215  0.5468
   50MOL0     C 6620   0.419   2.105  10.618  0.3867  0.1767  0.2920
   50MOL0     C 6621   0.523   2.197  10.594 -0.4611  0.0893  0.1397
   50MOL0     C 6622   0.619   2.163  10.490  0.7588 -0.7643 -0.6643
   50MOL0     O 6623   0.725   2.248  10.456  0.0985  0.1539  0.8962
   50MOL0     C 6624   0.736   2.370  10.523 -0.0933  0.6482  0.0970
   50MOL0     C 6625   0.823   2.463  10.446 -0.0887  0.7216 -0.0398
   50MOL0     C 6626   0.836   2.596  10.515  0.4197  0.7261  0.1060
   50MOL0     C 6627   0.906   2.581  10.647 -0.1484 -0.0447 -0.0907
   50MOL0     C 6628   0.984   2.713  10.668  0.9515 -0.1304 -0.1862
   50MOL0     C 6629   1.122   2.716  10.606 -0.2149 -0.3315 -0.5257
   50MOL0     C 6630   1.231   2.795  10.685 -0.1300 -0.6740 -0.2051
   50MOL0     C 6631   1.216   2.944  10.710  0.5117 -0.8068 -1.0377
   50MOL0     N 6632   1.276   3.013  10.591  0.9702 -0.3541  0.2978
   50MOL0     C 6633   1.405   3.073  10.592  0.5095  0.8219  0.5422
   50MOL0     C 6634   1.402   3.135  10.469 -1.1332 -0.3142  0.0624
   50MOL0     C 6635   1.508   3.207  10.400  0.3277 -0.4453  0.2743
   50MOL0     C 6636   1.485   3.354  10.432 -0.6620  0.5010  0.6181
   50MOL0     C 6637   1.588   3.448  10.381 -0.0730  1.2993  0.5165
   50MOL0     C 6638   1.594   3.577  10.460  0.9025  0.0490 -0.2281
   50MOL0     O 6639   1.687   3.667  10.401  0.5112 -0.2235 -0.3304
   50MOL0     C 6640   1.816   3.664  10.416  0.3562 -0.5290  0.2527
   50MOL0     C 6641   1.882   3.755  10.332  0.1465 -0.1772  0.3872
   50MOL0     C 6642   2.014   3.792  10.356  0.9826 -0.5723 -0.6337
   50MOL0     C 6643   2.094   3.756  10.460 -0.3241  0.3588  0.2340
   50MOL0     C 6644   2.237   3.789  10.488 -0.4679  0.5712 -0.4205
   50MOL0     O 6645   2.315   3.712  10.572 -0.3439  0.0038 -0.2435
   50MOL0     C 6646   2.448   3.729  10.592 -0.7352  0.0819 -0.3819
   50MOL0     C 6647   2.519   3.612  10.617 -0.2993 -0.7201 -0.2250
   50MOL0     C 6648   2.663   3.613  10.633  0.7031  0.3852  1.0785
   50MOL0     C 6649   2.738   3.727  10.621 -0.3464  0.6274  0.8525
   50MOL0     O 6650   2.873   3.724  10.631 -0.3201 -0.6475 -0.1282
   50MOL0     C 6651   2.935   3.678  10.509  0.0122 -0.4643  0.4440
   50MOL0     C 6652   2.895   3.749  10.378  0.4173  0.2415 -0.5152
   50MOL0     C 6653   3.002   3.758  10.271 -0.2377  0.4724 -0.0875
   50MOL0     C 6654   3.051   3.626  10.221  0.2888 -0.4256  0.0534
   50MOL0     C 6655   3.080   3.647  10.067 -0.0004  0.6173 -1.1952
   50MOL0     C 6656   3.188   3.545  10.026 -0.0524  0.6019  1.4001
   50MOL0     C 6657   3.166   3.402  10.071 -0.0965  0.1565 -0.2773
   50MOL0     C 6658   3.281   3.296  10.031  0.0079 -0.5220  0.9655
   50MOL0    Cl 6659   3.269   3.251   9.862 -0.5261  0.5339  0.6030
   50MOL0     C 6660   2.666   3.844  10.590 -0.3795  0.2907 -0.0604
   50MOL0     C 6661   2.528   3.843  10.572 -0.5252  0.1116 -0.0803
   50MOL0     O 6662   2.280   3.887  10.432  0.5857  0.3229  0.5001
   50MOL0     C 6663   2.022   3.668  10.552  1.1983  0.1391 -0.2981
   50MOL0     C 6664   1.890   3.612  10.521  0.1553  0.5060 -0.4910
   50MOL0     N 6665   1.282   3.103  10.405  0.4880 -0.2380  0.8341
   50MOL0     N 6666   1.202   3.035  10.484 -0.3152  0.1655  0.8296
   50MOL0     C 6667   0.600   2.047  10.417  0.1177 -0.4189 -0.3359
   50MOL0     C 6668   0.505   1.948  10.451 -0.9098 -0.5132  0.6661
   50MOL0     C 6669   0.200   1.785  10.755 -0.4821 -0.0372  0.8766
   50MOL0     C 6670   0.209   1.650  10.710 -0.2346 -0.7001  0.2247
   50MOL0     C 6671   0.207   1.541  10.803 -0.4161 -1.2460  0.2064
   50MOL0     C 6672   0.187   1.563  10.939 -0.1712 -0.3513  0.1373
   50MOL0     O 6673   0.194   1.459  11.024 -0.1339  0.2166 -0.5581
   50MOL0     C 6674   0.110   1.351  11.003  0.3530  0.7314 -0.0269
   50MOL0     C 6675   0.153   1.245  11.100  0.6427 -0.0969 -0.2617
   50MOL0     C 6676   0.296   1.184  11.084  0.6281 -0.1030  0.1666
   50MOL0     C 6677   0.332   1.093  11.197  0.5566  1.0642 -0.0422
   50MOL0     C 6678   0.356   1.174  11.317  0.4771 -1.1785 -0.6272
   50MOL0     C 6679   0.359   1.245  11.425 -0.1824 -0.2134  0.8283
   50MOL0     C 6680   0.191   1.699  10.984  0.7052  0.2281  0.7405
   50MOL0     C 6681   0.203   1.808  10.892 -0.5545  0.2442 -0.3119
   50MOL0     C 6682   0.214   1.947  10.947  0.2308  0.2669 -0.8167
   50MOL0     H 6683   0.342   2.136  10.688  0.4270  1.1702 -0.0956
   50MOL0     H 6684   0.534   2.283  10.658 -0.7240 -1.6442  2.6393
   50MOL0     H 6685   0.639   2.417  10.542 -0.9056 -1.7782  2.6917
   50MOL0     H 6686   0.789   2.341  10.615  4.0033  1.0102 -1.9153
   50MOL0     H 6687   0.769   2.480  10.353 -1.4408 -0.3213  0.5194
   50MOL0     H 6688   0.921   2.420  10.426 -0.2240  0.7853 -0.8494
   50MOL0     H 6689   0.735   2.636  10.529  0.5349  1.6412 -1.5144
   50MOL0     H 6690   0.888   2.655  10.439  1.6401 -1.1373 -0.6009
   50MOL0     H 6691   0.831   2.564  10.725  1.0479  2.6431  1.7973
   50MOL0     H 6692   0.978   2.498  10.641 -1.0743 -0.8198 -0.8738
   50MOL0     H 6693   0.910   2.790  10.647 -2.2163 -3.0755 -0.7310
   50MOL0     H 6694   0.999   2.725  10.775 -1.4135  2.8225 -0.0657
   50MOL0     H 6695   1.160   2.614  10.601  0.4565 -0.1503  0.4070
   50MOL0     H 6696   1.117   2.760  10.506  0.5846  3.5392  0.9526
   50MOL0     H 6697   1.328   2.772  10.641  0.3353 -1.4313  1.1456
   50MOL0     H 6698   1.247   2.750  10.784 -3.5199 -1.7827 -0.0207
   50MOL0     H 6699   1.111   2.962  10.731  0.4751 -0.8488 -1.1881
   50MOL0     H 6700   1.269   2.978  10.800  2.2763 -1.8611 -1.6160
   50MOL0     H 6701   1.481   3.091  10.667 -0.2292  1.0815  1.2447
   50MOL0     H 6702   1.607   3.170  10.428  3.3268  4.3777 -2.5872
   50MOL0     H 6703   1.516   3.197  10.291  0.6820  1.4434  0.0880
   50MOL0     H 6704   1.391   3.391  10.391  0.4710  1.7875 -0.9848
   50MOL0     H 6705   1.475   3.350  10.541 -0.0121  2.9088  0.8207
   50MOL0     H 6706   1.555   3.466  10.278  0.2789  0.7089  0.2953
   50MOL0     H 6707   1.687   3.401  10.384 -0.7125 -0.1998 -0.4351
   50MOL0     H 6708   1.626   3.549  10.561 -0.7190  1.3862  0.6943
   50MOL0     H 6709   1.495   3.624  10.456  0.7955 -0.2492 -3.2696
   50MOL0     H 6710   1.813   3.796  10.258 -0.9585  2.4035  2.6421
   50MOL0     H 6711   2.061   3.854  10.280 -0.1914 -0.6010 -1.4199
   50MOL0     H 6712   2.474   3.517  10.642 -0.1644 -0.9631 -0.9093
   50MOL0     H 6713   2.697   3.515  10.663  2.4689  0.7777  0.4963
   50MOL0     H 6714   3.043   3.678  10.528 -0.1335 -1.5055  1.3911
   50MOL0     H 6715   2.923   3.571  10.491  1.1775 -0.7374  1.1368
   50MOL0     H 6716   2.810   3.689  10.345 -0.3585  1.5091 -0.9169
   50MOL0     H 6717   2.853   3.846  10.409 -1.6724 -0.4569 -1.0281
   50MOL0     H 6718   2.957   3.819  10.191 -0.6563 -1.7667 -1.6728
   50MOL0     H 6719   3.091   3.808  10.311 -0.1667 -0.3798  0.8495
   50MOL0     H 6720   2.979   3.546  10.242 -0.9794  0.3501 -1.2203
   50MOL0     H 6721   3.142   3.596  10.275 -0.3375  0.5845  1.7482
   50MOL0     H 6722   3.121   3.745  10.041  0.0228  0.7370 -0.7137
   50MOL0     H 6723   2.984   3.635  10.016 -1.0854  2.5816  0.2794
   50MOL0     H 6724   3.199   3.540   9.917 -0.3622  2.4383  1.2379
   50MOL0     H 6725   3.281   3.578  10.074  0.4564 -1.7570  2.1351
   50MOL0     H 6726   3.065   3.381  10.035 -1.9042  2.3479  2.9612
   50MOL0     H 6727   3.152   3.391  10.179 -1.3327  1.9516 -0.2097
   50MOL0     H 6728   3.380   3.331  10.062  0.4538  3.7071 -3.8477
   50MOL0     H 6729   3.255   3.201  10.078 -0.1546  0.0768  2.1196
   50MOL0     H 6730   2.716   3.937  10.565 -3.1296  1.2443 -2.6447
   50MOL0     H 6731   2.481   3.938  10.549 -0.1532  1.1059  2.7798
   50MOL0     H 6732   2.071   3.648  10.647 -1.4937  1.5529  1.5082
   50MOL0     H 6733   1.866   3.549  10.607  1.2659  1.4572  0.5555
   50MOL0     H 6734   0.670   2.031  10.335  1.3280 -0.2155  0.6329
   50MOL0     H 6735   0.497   1.850  10.406 -1.7434  0.1105 -0.6241
   50MOL0     H 6736   0.224   1.627  10.605 -1.1055  0.5007 -0.1798
   50MOL0     H 6737   0.217   1.440  10.763  1.2934 -1.0544  0.0722
   50MOL0     H 6738   0.119   1.308  10.902 -3.6440  1.9208 -1.0929
   50MOL0     H 6739   0.008   1.374  11.036 -0.2314 -2.5892  0.8717
   50MOL0     H 6740   0.079   1.165  11.095  0.7356 -0.1223 -1.6962
   50MOL0     H 6741   0.149   1.294  11.197 -1.2027 -1.4977  0.4170
   50MOL0     H 6742   0.365   1.269  11.087 -0.6040  1.1279 -2.8822
   50MOL0     H 6743   0.292   1.124  10.992 -2.2156  0.0122  0.1123
   50MOL0     H 6744   0.258   1.016  11.222  0.2856  1.2427 -0.2939
   50MOL0     H 6745   0.421   1.037  11.167 -0.4632 -0.9303  0.4763
   50MOL0     H 6746   0.388   1.280  11.522  3.0003 -0.5674  0.1187
   50MOL0     H 6747   0.198   1.716  11.091 -1.4479 -1.2514  1.1834
   50MOL0     H 6748   0.112   1.984  10.945  0.2198  0.4037  0.7934
   50MOL0     H 6749   0.238   1.946  11.054  1.9529  1.9852 -1.1333
   50MOL0     H 6750   0.284   2.014  10.895  1.1365  0.0835  0.1260
   51MOL0     O 6751   6.168   7.200   3.174 -0.5696 -0.2154  0.0639
   51MOL0     C 6752   6.160   7.291   3.087 -0.0789  0.0251  0.1267
   51MOL0     O 6753   6.260   7.351   3.013 -0.5479  0.0114 -0.0264
   51MOL0     C 6754   6.395   7.328   3.031 -0.1904  0.2048 -0.0598
   51MOL0     C 6755   6.481   7.443   3.022  0.3980  0.6414  0.6417
   51MOL0     C 6756   6.612   7.436   3.038  1.0607 -0.3794  0.1470
   51MOL0     C 6757   6.668   7.306   3.045 -0.8348  0.6779  0.4240
   51MOL0     O 6758   6.806   7.286   3.054 -0.3452 -0.6020 -0.1837
   51MOL0     C 6759   6.880   7.381   3.134  0.2964  0.8689 -0.1179
   51MOL0     C 6760   6.967   7.484   3.058  0.1872  0.0061  0.0321
   51MOL0     C 6761   7.026   7.564   3.172  0.8667  0.7127 -0.3743
   51MOL0     C 6762   7.105   7.673   3.104 -0.1551 -0.0888 -0.4985
   51MOL0     C 6763   7.180   7.758   3.203 -0.0609  0.1696 -0.1825
   51MOL0     C 6764   7.328   7.729   3.205 -0.3170  0.0356 -0.0184
   51MOL0     C 6765   7.410   7.826   3.285  0.5744 -0.3718 -0.1157
   51MOL0     C 6766   7.560   7.797   3.270  1.1787 -0.1653  0.7339
   51MOL0     N 6767   7.648   7.901   3.329 -0.6373  0.6104  0.0827
   51MOL0     C 6768   7.647   7.948   3.452  0.0317 -0.4274 -0.1674
   51MOL0     C 6769   7.745   8.042   3.464 -0.7395 -0.3844  0.6403
   51MOL0     C 6770   7.789   8.127   3.577  0.7524  0.0784  0.6566
   51MOL0     C 6771   7.756   8.062   3.713  0.3746 -0.2471  0.1697
   51MOL0     C 6772   7.816   8.138   3.833 -0.2441  0.8067 -0.2565
   51MOL0     C 6773   7.963   8.112   3.865 -0.3735 -0.2973 -0.3685
   51MOL0     O 6774   7.994   7.973   3.867  0.5206  0.1441  0.2848
   51MOL0     C 6775   8.109   7.937   3.930 -0.4348 -0.9564  0.3535
   51MOL0     C 6776   8.120   7.970   4.070  0.5061 -0.3097 -0.1667
   51MOL0     C 6777   8.247   7.951   4.128 -0.2406 -0.7492  0.2626
   51MOL0     C 6778   8.347   7.875   4.060  0.9759 -0.0800  0.5962
   51MOL0     C 6779   8.467   7.848   4.128  0.0596 -0.7674 -0.0482
   51MOL0     O 6780   8.553   7.762   4.070 -0.4816  0.3161 -0.3459
   51MOL0     C 6781   8.675   7.720   4.114 -0.1983 -0.1664  0.3488
   51MOL0     C 6782   8.749   7.782   4.213 -1.5554 -0.5601  0.0640
   51MOL0     C 6783   8.880   7.737   4.252  0.1974  0.3756  0.5001
   51MOL0     C 6784   8.922   7.623   4.195 -0.5601  0.3450  0.2287
   51MOL0     O 6785   9.046   7.575   4.242  0.3069  0.5634 -0.7607
   51MOL0     C 6786   9.153   7.668   4.255 -0.5501 -0.8109  0.0996
   51MOL0     C 6787   9.280   7.595   4.268 -0.2272  0.3712  0.0861
   51MOL0     C 6788   9.286   7.500   4.395 -0.4148  0.3151  0.3110
   51MOL0     C 6789   9.406   7.403   4.376  0.0088 -0.5737 -0.7051
   51MOL0     C 6790   9.415   7.311   4.497 -0.0920  0.8942 -0.3543
   51MOL0     C 6791   9.282   7.235   4.529 -1.1273 -0.4952 -0.5965
   51MOL0     C 6792   9.314   7.149   4.651  0.1425 -0.7159  0.1825
   51MOL0     C 6793   9.176   7.113   4.723  0.1713 -0.2077 -1.2225
   51MOL0    Cl 6794   9.097   7.001   4.611  0.0083 -0.2016  0.6043
   51MOL0     C 6795   8.850   7.554   4.092 -0.4695 -0.5015 -0.5846
   51MOL0     C 6796   8.730   7.613   4.046 -1.0395 -0.5587 -0.5461
   51MOL0     O 6797   8.486   7.906   4.236  0.1681 -0.5325 -0.6038
   51MOL0     C 6798   8.317   7.820   3.926 -0.5209  0.0513 -0.7263
   51MOL0     C 6799   8.197   7.860   3.865  0.2165  0.7921 -0.2500
   51MOL0     N 6800   7.804   8.054   3.337  0.6248 -0.7617  0.0755
   51MOL0     N 6801   7.734   7.976   3.257 -0.2318  0.6686  0.4349
   51MOL0     C 6802   6.588   7.193   3.038 -0.6379  0.0867 -1.1742
   51MOL0     C 6803   6.448   7.202   3.045  0.7118 -0.4535 -0.2031
   51MOL0     C 6804   6.020   7.354   3.061  0.6304 -0.3290  0.0133
   51MOL0     C 6805   6.011   7.475   2.987 -0.3665  1.1020  0.8926
   51MOL0     C 6806   5.884   7.538   2.966 -1.7794 -0.3274  0.1795
   51MOL0     C 6807   5.765   7.485   3.000 -0.2627  0.8697  0.1036
   51MOL0     O 6808   5.647   7.550   2.954  0.3772  0.3529 -0.2866
   51MOL0     C 6809   5.540   7.551   3.046 -0.5430  0.6720 -0.3276
   51MOL0     C 6810   5.417   7.618   2.988 -0.7796  0.3224  0.1877
   51MOL0     C 6811   5.356   7.536   2.864 -0.3190  0.7067  0.7069
   51MOL0     C 6812   5.242   7.439   2.907 -0.1987 -0.2045 -0.5274
   51MOL0     C 6813   5.133   7.505   2.966  0.7493  0.1122 -0.0842
   51MOL0     C 6814   5.037   7.556   3.018  0.4247  0.7031  0.5769
   51MOL0     C 6815   5.769   7.359   3.066  0.6796 -0.3745 -0.2940
   51MOL0     C 6816   5.893   7.295   3.108 -0.4534 -0.7741 -0.0388
   51MOL0     C 6817   5.882   7.166   3.178  0.7494 -0.2093 -0.3193
   51MOL0     H 6818   6.450   7.547   3.015  0.1173  0.4381 -2.7733
   51MOL0     H 6819   6.667   7.529   3.053 -0.8011  0.6333  1.0652
   51MOL0     H 6820   6.804   7.430   3.196 -2.2877 -0.1507 -2.2670
   51MOL0     H 6821   6.935   7.326   3.210 -2.8583 -0.3171  1.5219
   51MOL0     H 6822   6.903   7.549   2.998 -2.6485 -2.0572  0.6447
   51MOL0     H 6823   7.046   7.436   2.999  0.9712 -1.0316  1.8371
   51MOL0     H 6824   7.095   7.502   3.231  0.8792 -1.5004 -2.5594
   51MOL0     H 6825   6.945   7.599   3.237  1.4936 -1.0209  1.4776
   51MOL0     H 6826   7.168   7.626   3.029  0.2496 -3.3835  1.6951
   51MOL0     H 6827   7.029   7.730   3.050 -0.4289  1.2896  1.2330
   51MOL0     H 6828   7.161   7.862   3.175 -0.7986  0.0294 -0.2028
   51MOL0     H 6829   7.139   7.736   3.302  1.0059  4.5079  1.4593
   51MOL0     H 6830   7.338   7.629   3.247 -2.0551  0.9110  2.6741
   51MOL0     H 6831   7.358   7.721   3.100 -0.3477 -0.6716  0.0216
   51MOL0     H 6832   7.374   7.835   3.388  1.8104  2.5756  0.1488
   51MOL0     H 6833   7.395   7.923   3.239 -0.2821 -0.2452  0.4143
   51MOL0     H 6834   7.560   7.695   3.311 -2.1957 -0.0562  1.2843
   51MOL0     H 6835   7.592   7.797   3.165  0.4783  3.5709  0.3969
   51MOL0     H 6836   7.585   7.902   3.528 -2.0173  0.7864 -1.0409
   51MOL0     H 6837   7.893   8.160   3.571  1.1512 -1.3587 -0.9170
   51MOL0     H 6838   7.725   8.215   3.576 -0.8562 -1.0404  0.7736
   51MOL0     H 6839   7.647   8.065   3.726  0.4305  0.6886  0.5396
   51MOL0     H 6840   7.797   7.961   3.711 -1.7284 -1.1484 -1.5458
   51MOL0     H 6841   7.753   8.109   3.917  0.5606 -1.5276 -0.3843
   51MOL0     H 6842   7.802   8.244   3.809 -1.6330  0.2561 -2.0791
   51MOL0     H 6843   7.986   8.153   3.964  1.7124  1.1124 -1.3894
   51MOL0     H 6844   8.021   8.162   3.788  1.1743  0.6818  1.3444
   51MOL0     H 6845   8.043   8.020   4.127  0.8020 -1.6818  1.5063
   51MOL0     H 6846   8.272   7.988   4.227  0.6003  2.4715 -1.0199
   51MOL0     H 6847   8.707   7.865   4.267 -3.3484  0.1679 -2.2727
   51MOL0     H 6848   8.918   7.777   4.346 -0.2170  1.6756  0.1401
   51MOL0     H 6849   9.155   7.732   4.167 -0.4773 -0.9680 -0.0141
   51MOL0     H 6850   9.132   7.724   4.347  0.1319  1.5874 -1.1330
   51MOL0     H 6851   9.297   7.537   4.177 -0.7884  0.9497 -0.3895
   51MOL0     H 6852   9.359   7.671   4.272  2.1867 -1.8875 -1.4921
   51MOL0     H 6853   9.291   7.558   4.488 -0.0268  1.7362 -0.5824
   51MOL0     H 6854   9.192   7.443   4.398  0.5769 -1.3903  2.8919
   51MOL0     H 6855   9.498   7.461   4.366 -1.1633  1.4253 -0.4737
   51MOL0     H 6856   9.375   7.340   4.292 -0.9382 -2.2233  0.8154
   51MOL0     H 6857   9.453   7.365   4.585 -1.9181  1.3910  0.1647
   51MOL0     H 6858   9.492   7.240   4.467 -0.9005 -0.0778 -0.1799
   51MOL0     H 6859   9.192   7.295   4.549  0.0801  0.6324  1.8008
   51MOL0     H 6860   9.263   7.173   4.441  2.3263 -1.1737 -1.0073
   51MOL0     H 6861   9.377   7.196   4.727  2.9351 -0.8564 -1.9219
   51MOL0     H 6862   9.362   7.056   4.618  0.2672 -0.0646 -1.5469
   51MOL0     H 6863   9.184   7.055   4.815  0.0495 -2.8353 -2.7741
   51MOL0     H 6864   9.119   7.206   4.736 -1.4153 -1.2437 -0.3808
   51MOL0     H 6865   8.889   7.459   4.058  0.5128 -0.4142  0.2333
   51MOL0     H 6866   8.678   7.569   3.961  0.5372 -0.8625 -1.4034
   51MOL0     H 6867   8.388   7.751   3.881  0.0261 -0.3653  0.7075
   51MOL0     H 6868   8.180   7.820   3.765  2.3587 -0.6494 -0.1093
   51MOL0     H 6869   6.628   7.093   3.026 -2.1349 -0.6082 -0.5345
   51MOL0     H 6870   6.387   7.115   3.023 -0.4715 -0.0601  1.3548
   51MOL0     H 6871   6.096   7.525   2.940 -0.3490  2.4780  2.2799
   51MOL0     H 6872   5.885   7.630   2.909 -1.3320 -1.0862 -1.0815
   51MOL0     H 6873   5.563   7.604   3.139 -0.0530  2.2356 -1.2985
   51MOL0     H 6874   5.518   7.447   3.071  0.5627  0.4337 -0.2774
   51MOL0     H 6875   5.445   7.720   2.960  3.6374 -0.1136  2.3054
   51MOL0     H 6876   5.347   7.625   3.072 -0.1415 -4.1933  1.3542
   51MOL0     H 6877   5.431   7.479   2.807 -0.5722  1.5874 -0.5435
   51MOL0     H 6878   5.315   7.612   2.797  2.1492  4.0094  2.6634
   51MOL0     H 6879   5.199   7.379   2.826  0.7299 -2.1986  0.3810
   51MOL0     H 6880   5.286   7.364   2.974 -2.0891  0.0275  1.0625
   51MOL0     H 6881   4.930   7.569   3.017  0.5134  1.5555  0.8015
   51MOL0     H 6882   5.675   7.306   3.078  0.7201 -0.0906  1.5023
   51MOL0     H 6883   5.780   7.126   3.184 -0.1043  1.8399 -0.3396
   51MOL0     H 6884   5.934   7.084   3.127 -0.7790 -1.8932  0.6891
   51MOL0     H 6885   5.922   7.186   3.278  0.2430 -2.9576  0.5384
   52MOL0     O 6886   5.468   8.578  11.016 -0.1198  0.3718  0.2843
   52MOL0     C 6887   5.515   8.695  11.005  0.1875  0.6815  1.0762
   52MOL0     O 6888   5.553   8.780  11.102 -0.1596  0.5365  0.4572
   52MOL0     C 6889   5.501   8.754  11.228 -0.0958  0.4732 -0.1325
   52MOL0     C 6890   5.593   8.723  11.333  0.4270 -0.0046 -0.6231
   52MOL0     C 6891   5.540   8.694  11.465 -1.4948 -0.4799  0.7192
   52MOL0     C 6892   5.404   8.707  11.487 -0.3036  0.1835 -0.3963
   52MOL0     O 6893   5.367   8.685  11.618 -0.2061  0.6621 -0.8637
   52MOL0     C 6894   5.273   8.582  11.629  0.7326  0.5198 -0.2112
   52MOL0     C 6895   5.346   8.441  11.612  0.0351 -0.0293 -0.3931
   52MOL0     C 6896   5.446   8.422  11.729 -0.2516  0.2261  0.8488
   52MOL0     C 6897   5.497   8.279  11.726 -0.5910  0.3405 -0.1767
   52MOL0     C 6898   5.604   8.254  11.833 -0.4126  0.9616 -0.0189
   52MOL0     C 6899   5.673   8.115  11.799 -0.5932  0.3520  0.1325
   52MOL0     C 6900   5.780   8.127  11.688 -0.5404  0.5820 -0.6361
   52MOL0     C 6901   5.931   8.162  11.729  0.1383  0.7594 -0.0223
   52MOL0     N 6902   6.019   8.206  11.615 -0.8486  0.6316 -0.4764
   52MOL0     C 6903   6.008   8.199  11.477 -0.2301 -0.0092 -0.1034
   52MOL0     C 6904   6.134   8.210  11.432  0.4120  0.9792 -0.2821
   52MOL0     C 6905   6.182   8.204  11.295  0.6107 -0.3166  0.1896
   52MOL0     C 6906   6.227   8.342  11.241 -0.2040  0.1604 -0.4127
   52MOL0     C 6907   6.269   8.339  11.094 -1.2035 -0.4128  0.0546
   52MOL0     C 6908   6.403   8.420  11.071 -0.3510  0.0687  0.2934
   52MOL0     O 6909   6.386   8.566  11.090  0.2119  0.5709 -0.1092
   52MOL0     C 6910   6.502   8.624  11.053  1.0837 -0.0809  0.5140
   52MOL0     C 6911   6.559   8.628  10.930 -0.3878  0.3636 -0.2982
   52MOL0     C 6912   6.692   8.671  10.910 -0.1218 -0.6084  0.7344
   52MOL0     C 6913   6.769   8.728  11.010  0.0498  0.3613 -0.1439
   52MOL0     C 6914   6.905   8.785  10.981  0.6265 -0.8564  0.2948
   52MOL0     O 6915   6.967   8.831  11.090  0.4565  0.8462 -0.3919
   52MOL0     C 6916   7.096   8.876  11.087 -0.9016 -0.8033 -0.6654
   52MOL0     C 6917   7.119   9.011  11.113 -0.9137  0.1415 -0.5793
   52MOL0     C 6918   7.256   9.059  11.097  0.1971 -0.4182  0.2974
   52MOL0     C 6919   7.363   8.973  11.083 -0.5290 -0.7457 -0.4180
   52MOL0     O 6920   7.484   9.031  11.079  1.3091 -0.1736 -0.2013
   52MOL0     C 6921   7.586   8.971  10.996  0.6243  0.3911  0.1393
   52MOL0     C 6922   7.719   9.056  10.982 -0.0132  0.6075  0.4875
   52MOL0     C 6923   7.814   9.006  11.088 -0.8415 -0.7097 -1.0058
   52MOL0     C 6924   7.941   9.085  11.080 -0.8104 -0.2394 -0.1027
   52MOL0     C 6925   8.063   9.038  11.166  0.9373  0.2005  0.5004
   52MOL0     C 6926   8.129   8.910  11.115 -1.1641  0.4562 -0.7505
   52MOL0     C 6927   8.237   8.869  11.217  0.4252  0.9943  0.4327
   52MOL0     C 6928   8.334   8.753  11.177  0.1583 -0.9147  0.1325
   52MOL0    Cl 6929   8.407   8.779  11.019 -0.7876 -0.2029  0.0553
   52MOL0     C 6930   7.335   8.840  11.081 -0.1057  0.4786  0.8331
   52MOL0     C 6931   7.208   8.792  11.072  0.3486  0.2275 -0.4971
   52MOL0     O 6932   6.944   8.795  10.870 -0.3385 -0.2472 -0.3105
   52MOL0     C 6933   6.707   8.718  11.137  0.3316 -0.7815 -0.1970
   52MOL0     C 6934   6.574   8.679  11.153  0.1628  0.3691 -0.0562
   52MOL0     N 6935   6.218   8.238  11.540 -0.1872 -0.2021 -0.2977
   52MOL0     N 6936   6.145   8.238  11.647 -0.1532  0.3875 -0.6862
   52MOL0     C 6937   5.321   8.732  11.378 -0.1338  0.1714 -0.5272
   52MOL0     C 6938   5.371   8.765  11.258  1.0794  0.0223 -0.2366
   52MOL0     C 6939   5.526   8.741  10.865  0.6225 -0.4196  0.0787
   52MOL0     C 6940   5.576   8.655  10.775  0.9463  1.2076  0.3885
   52MOL0     C 6941   5.629   8.695  10.657 -0.1839  0.6914  0.8339
   52MOL0     C 6942   5.614   8.830  10.619  0.3540  0.0608 -0.8880
   52MOL0     O 6943   5.684   8.871  10.508  0.7680  0.1151  0.4586
   52MOL0     C 6944   5.663   9.008  10.468  0.8401 -0.1780 -0.6316
   52MOL0     C 6945   5.759   9.105  10.540 -0.1166  0.2329  0.2203
   52MOL0     C 6946   5.850   9.176  10.440 -0.1577 -0.0684 -0.0539
   52MOL0     C 6947   5.779   9.284  10.363  0.8631  0.1621 -0.1386
   52MOL0     C 6948   5.872   9.352  10.269  0.6674  0.8272  0.1107
   52MOL0     C 6949   5.952   9.419  10.208 -0.3436 -0.3969  0.8086
   52MOL0     C 6950   5.550   8.921  10.707 -0.1544 -0.4512  0.1254
   52MOL0     C 6951   5.513   8.877  10.832  0.3489  0.3718  0.4108
   52MOL0     C 6952   5.460   8.988  10.925  0.1970 -0.4444 -0.4178
   52MOL0     H 6953   5.701   8.725  11.323  0.5783 -3.6005 -0.7893
   52MOL0     H 6954   5.596   8.660  11.552 -1.3079  0.4193  0.9657
   52MOL0     H 6955   5.225   8.580  11.727  0.4752 -1.4820 -0.3381
   52MOL0     H 6956   5.190   8.594  11.559 -0.0143  1.6979  0.8448
   52MOL0     H 6957   5.405   8.426  11.521  1.4765  1.5493  0.2195
   52MOL0     H 6958   5.263   8.371  11.619 -0.7347  0.9530  0.6557
   52MOL0     H 6959   5.397   8.452  11.822 -0.3284  2.9482  0.0251
   52MOL0     H 6960   5.523   8.497  11.714 -0.2885 -0.2337 -2.5006
   52MOL0     H 6961   5.406   8.219  11.738  0.1362 -0.6404  0.6503
   52MOL0     H 6962   5.546   8.251  11.632  1.2830  1.2895  0.4781
   52MOL0     H 6963   5.681   8.332  11.836 -0.9805  1.5475 -0.4517
   52MOL0     H 6964   5.552   8.247  11.929  0.6626  0.3990  0.5381
   52MOL0     H 6965   5.721   8.061  11.881  0.5691  0.0871 -0.6957
   52MOL0     H 6966   5.587   8.054  11.770 -0.9299  0.4052  0.9881
   52MOL0     H 6967   5.750   8.204  11.616  0.9736 -0.9913 -3.1108
   52MOL0     H 6968   5.780   8.041  11.621  0.9221 -1.2594  1.5790
   52MOL0     H 6969   5.920   8.244  11.801  0.3124 -0.7634  1.7964
   52MOL0     H 6970   5.975   8.078  11.783  4.4870  0.9331 -2.8107
   52MOL0     H 6971   5.932   8.159  11.411  1.6716 -0.8128 -1.9267
   52MOL0     H 6972   6.266   8.134  11.287  1.3454  0.5473  0.1418
   52MOL0     H 6973   6.098   8.167  11.235  0.9345 -0.9119  0.0984
   52MOL0     H 6974   6.155   8.422  11.260  1.4181  1.1410  1.9777
   52MOL0     H 6975   6.314   8.364  11.304  0.1589 -1.2056 -0.4063
   52MOL0     H 6976   6.188   8.394  11.045  1.4092  3.8246 -0.0339
   52MOL0     H 6977   6.273   8.238  11.053 -2.9890 -0.5420  0.1259
   52MOL0     H 6978   6.449   8.380  10.980 -2.0021 -1.7759  0.1938
   52MOL0     H 6979   6.471   8.390  11.151 -1.8473 -1.6958  0.9909
   52MOL0     H 6980   6.521   8.601  10.832 -2.0514 -1.4781  0.7742
   52MOL0     H 6981   6.733   8.669  10.809 -1.9102 -1.8354 -0.0234
   52MOL0     H 6982   7.029   9.070  11.125 -0.7514  0.0861  1.1324
   52MOL0     H 6983   7.276   9.166  11.105 -0.0180 -0.4767  1.8714
   52MOL0     H 6984   7.618   8.871  11.025  1.0133  0.4234 -0.1666
   52MOL0     H 6985   7.541   8.969  10.896 -0.2570  1.6809  0.4778
   52MOL0     H 6986   7.774   9.036  10.890 -1.3914 -0.1332 -0.1810
   52MOL0     H 6987   7.697   9.163  10.982 -1.0174  0.4025  0.3138
   52MOL0     H 6988   7.776   9.013  11.190 -0.8889 -4.3763 -0.6628
   52MOL0     H 6989   7.832   8.900  11.070  0.3607 -0.3592 -2.1086
   52MOL0     H 6990   7.922   9.193  11.090 -1.6219 -0.5047  1.5048
   52MOL0     H 6991   7.974   9.090  10.976 -0.7896 -1.0153 -0.1401
   52MOL0     H 6992   8.017   9.016  11.263 -0.8129  0.4823 -0.2359
   52MOL0     H 6993   8.132   9.123  11.176  0.3054  0.8134 -0.2593
   52MOL0     H 6994   8.060   8.830  11.086  0.5439 -0.8915 -1.2894
   52MOL0     H 6995   8.188   8.951  11.033  2.1049  1.6334  1.9226
   52MOL0     H 6996   8.199   8.837  11.315  0.3806  0.0715  0.1192
   52MOL0     H 6997   8.294   8.960  11.235 -1.7986  2.6794 -0.5831
   52MOL0     H 6998   8.406   8.742  11.258 -0.1630 -0.0101  0.5500
   52MOL0     H 6999   8.266   8.667  11.173 -2.1938  0.7698  1.5234
   52MOL0     H 7000   7.418   8.770  11.077 -2.9931 -3.2353 -0.8625
   52MOL0     H 7001   7.192   8.686  11.051  1.1706  0.1415 -0.7071
   52MOL0     H 7002   6.765   8.734  11.228  1.5333 -1.1310 -0.8706
   52MOL0     H 7003   6.536   8.666  11.254  4.4494 -1.7353  1.5338
   52MOL0     H 7004   5.215   8.746  11.391 -0.4182 -0.3027 -2.1989
   52MOL0     H 7005   5.304   8.777  11.174  2.0136 -1.2764 -1.2224
   52MOL0     H 7006   5.606   8.555  10.807 -2.4002  0.2495  0.8817
   52MOL0     H 7007   5.684   8.624  10.596 -2.2208 -2.9968  2.9777
   52MOL0     H 7008   5.560   9.044  10.470  0.9660  0.1304  0.9278
   52MOL0     H 7009   5.693   9.009  10.362  2.1403  0.2144 -0.2818
   52MOL0     H 7010   5.827   9.044  10.599  0.3115  1.7426  1.3636
   52MOL0     H 7011   5.716   9.181  10.606  1.3068 -0.3129  1.8556
   52MOL0     H 7012   5.911   9.108  10.379  3.0493  1.0197  1.6905
   52MOL0     H 7013   5.925   9.227  10.501 -3.6092  2.0366  2.8504
   52MOL0     H 7014   5.700   9.257  10.291  0.1132  1.0753  0.3291
   52MOL0     H 7015   5.743   9.361  10.431 -0.0734  0.0573 -0.5044
   52MOL0     H 7016   6.012   9.481  10.145 -1.4759  0.1124  0.2056
   52MOL0     H 7017   5.525   9.022  10.677 -2.8534 -1.6297 -1.9686
   52MOL0     H 7018   5.526   9.057  10.978 -1.0184 -2.4175  4.0507
   52MOL0     H 7019   5.386   9.052  10.875  0.5184  0.3414  0.0942
   52MOL0     H 7020   5.399   8.944  11.004  0.0448  0.7393  0.1507
   53MOL0     O 7021   2.017   3.945   0.193 -0.2089 -0.9872 -0.2795
   53MOL0     C 7022   2.023   3.984   0.309 -0.2895  0.5554  0.5577
   53MOL0     O 7023   1.954   3.926   0.407 -0.0075 -0.5603 -0.0155
   53MOL0     C 7024   1.930   3.793   0.397  0.0568  0.2911 -0.7656
   53MOL0     C 7025   1.795   3.752   0.392 -0.1721 -1.0147  0.6788
   53MOL0     C 7026   1.757   3.621   0.406 -0.0242 -0.4674 -1.1588
   53MOL0     C 7027   1.851   3.518   0.418  0.7070  0.7250 -0.5357
   53MOL0     O 7028   1.796   3.392   0.437  0.9721  0.1054  0.2961
   53MOL0     C 7029   1.889   3.284   0.461  0.9426 -0.0953 -0.8633
   53MOL0     C 7030   1.812   3.157   0.466  0.7824 -0.3449 -0.6795
   53MOL0     C 7031   1.785   3.093   0.340 -0.2646  0.2391  0.9200
   53MOL0     C 7032   1.707   2.968   0.353  0.5455 -0.0859 -0.1926
   53MOL0     C 7033   1.709   2.889   0.217 -0.2468  0.1000 -0.4998
   53MOL0     C 7034   1.829   2.801   0.197  0.0882  1.6182  0.1382
   53MOL0     C 7035   1.803   2.691   0.102  0.5050  0.8170  0.2812
   53MOL0     C 7036   1.774   2.734  -0.044 -0.8415 -0.5693  0.5574
   53MOL0     N 7037   1.902   2.752  -0.115 -0.1583 -0.4349  0.3016
   53MOL0     C 7038   1.988   2.860  -0.101  1.0479 -0.1945 -0.4857
   53MOL0     C 7039   2.080   2.849  -0.188 -0.2639  0.3791  0.2760
   53MOL0     C 7040   2.177   2.949  -0.220 -0.2560  0.0070 -0.7819
   53MOL0     C 7041   2.171   2.973  -0.371  0.6266  0.7984  0.0465
   53MOL0     C 7042   2.297   3.044  -0.422  0.1703  0.3714  1.3201
   53MOL0     C 7043   2.309   3.058  -0.574 -0.2281 -0.6129  0.0087
   53MOL0     O 7044   2.446   3.094  -0.593 -1.0595 -0.2005 -0.2264
   53MOL0     C 7045   2.495   3.154  -0.706  0.3009  0.4200  0.0926
   53MOL0     C 7046   2.623   3.198  -0.694  0.2274  0.5190 -0.6437
   53MOL0     C 7047   2.689   3.252  -0.808  0.8955  0.4444  0.6361
   53MOL0     C 7048   2.619   3.270  -0.927 -0.7130 -0.2603  1.1797
   53MOL0     C 7049   2.687   3.326  -1.051 -0.6324  0.5092  0.1343
   53MOL0     O 7050   2.597   3.338  -1.162  0.3015  0.9656 -0.1978
   53MOL0     C 7051   2.626   3.312  -1.292  0.7507 -0.1535  0.1361
   53MOL0     C 7052   2.750   3.351  -1.346  0.6439 -0.2437  0.2436
   53MOL0     C 7053   2.767   3.351  -1.486  0.9597  0.0405 -0.1953
   53MOL0     C 7054   2.679   3.286  -1.563  0.3749 -0.2187  0.2824
   53MOL0     O 7055   2.692   3.274  -1.700  0.1209 -0.2571  0.0763
   53MOL0     C 7056   2.831   3.276  -1.756 -0.6157  0.0494 -0.7647
   53MOL0     C 7057   2.854   3.385  -1.856  0.5758  0.1439 -0.5049
   53MOL0     C 7058   2.986   3.357  -1.937  0.3872 -0.6992 -0.0831
   53MOL0     C 7059   3.081   3.457  -1.888 -0.8808  0.5735  0.5666
   53MOL0     C 7060   3.194   3.481  -1.984  0.4188  0.3520  0.6414
   53MOL0     C 7061   3.316   3.540  -1.911  0.3345  0.6663 -1.3078
   53MOL0     C 7062   3.270   3.668  -1.824 -0.2285 -0.0954  0.6404
   53MOL0     C 7063   3.374   3.748  -1.754  1.0914  0.3805  0.8551
   53MOL0    Cl 7064   3.292   3.860  -1.645  0.3832  0.0092  0.0542
   53MOL0     C 7065   2.553   3.252  -1.512 -0.5130 -0.6549 -0.1133
   53MOL0     C 7066   2.522   3.250  -1.380 -0.0692 -0.5891 -0.8125
   53MOL0     O 7067   2.809   3.336  -1.058  0.4130 -0.5350 -0.0428
   53MOL0     C 7068   2.487   3.236  -0.941  0.6886 -0.6309  0.9654
   53MOL0     C 7069   2.432   3.173  -0.832 -0.4401 -0.5180  0.6122
   53MOL0     N 7070   2.073   2.723  -0.238  0.0627 -0.2759  0.2149
   53MOL0     N 7071   1.963   2.668  -0.204 -0.0613 -0.3234 -0.5986
   53MOL0     C 7072   1.984   3.554   0.411  0.5864  0.4439 -1.2542
   53MOL0     C 7073   2.019   3.688   0.406 -0.2916  0.8743 -0.6554
   53MOL0     C 7074   2.126   4.083   0.346 -0.3044  0.4451 -0.1748
   53MOL0     C 7075   2.243   4.091   0.264  0.1841  0.5404 -0.4770
   53MOL0     C 7076   2.342   4.191   0.284  0.3076  0.3820  0.1673
   53MOL0     C 7077   2.329   4.292   0.382  0.8518  0.4834  0.1814
   53MOL0     O 7078   2.414   4.394   0.408  0.3690 -0.1513 -0.5221
   53MOL0     C 7079   2.510   4.422   0.307 -0.2887  0.1404 -0.8431
   53MOL0     C 7080   2.535   4.570   0.317 -0.3586  0.3700  0.0173
   53MOL0     C 7081   2.686   4.585   0.328 -1.0914 -0.1509  0.2812
   53MOL0     C 7082   2.777   4.559   0.210  0.8496 -0.1610 -0.5548
   53MOL0     C 7083   2.913   4.614   0.231 -0.3883  0.0295  0.0591
   53MOL0     C 7084   3.015   4.662   0.266  1.1277  0.5302 -0.1309
   53MOL0     C 7085   2.215   4.278   0.466  0.2922  0.5569  0.5898
   53MOL0     C 7086   2.116   4.173   0.459 -0.5834 -0.3192  0.6282
   53MOL0     C 7087   2.003   4.189   0.552  0.2155 -0.2503 -0.1012
   53MOL0     H 7088   1.720   3.827   0.371 -2.1162 -2.9403  0.3779
   53MOL0     H 7089   1.652   3.593   0.408 -0.2909  0.5364  0.3993
   53MOL0     H 7090   1.964   3.277   0.381  1.6293  2.2128 -0.4925
   53MOL0     H 7091   1.935   3.310   0.557 -3.3096  0.5541  1.2478
   53MOL0     H 7092   1.720   3.183   0.519 -0.3139  0.4008 -2.8094
   53MOL0     H 7093   1.866   3.084   0.526  1.0159  0.2105 -0.1989
   53MOL0     H 7094   1.883   3.078   0.296 -0.9515 -0.9194 -0.2696
   53MOL0     H 7095   1.728   3.153   0.269 -0.4322 -1.3620 -0.3600
   53MOL0     H 7096   1.752   2.908   0.432 -0.3451 -0.0242  0.3734
   53MOL0     H 7097   1.608   3.010   0.373  0.9585  2.3363 -2.5675
   53MOL0     H 7098   1.629   2.815   0.231  1.3946 -1.2310  2.7361
   53MOL0     H 7099   1.686   2.953   0.131  0.3930  0.1371 -0.6470
   53MOL0     H 7100   1.908   2.873   0.176 -0.0916  1.3887 -1.5207
   53MOL0     H 7101   1.848   2.747   0.290  0.3419  0.8077 -0.3768
   53MOL0     H 7102   1.723   2.626   0.138 -0.1193  2.3796  1.8957
   53MOL0     H 7103   1.890   2.626   0.104  1.1640  1.7015  0.9769
   53MOL0     H 7104   1.720   2.653  -0.093 -0.3765  0.4823 -1.8268
   53MOL0     H 7105   1.714   2.825  -0.055  0.0900 -0.0933 -0.8766
   53MOL0     H 7106   1.970   2.946  -0.038  2.4564 -1.0165  1.1262
   53MOL0     H 7107   2.157   3.034  -0.155  3.6098  0.2227  0.3901
   53MOL0     H 7108   2.275   2.910  -0.190 -2.7753 -2.5933  5.8372
   53MOL0     H 7109   2.157   2.875  -0.416  2.1785 -0.6762  2.5331
   53MOL0     H 7110   2.085   3.038  -0.392  0.6479  1.7469  2.4746
   53MOL0     H 7111   2.387   2.988  -0.393 -0.8078 -1.2733  1.2709
   53MOL0     H 7112   2.307   3.148  -0.389 -2.2877  1.2856 -0.5847
   53MOL0     H 7113   2.244   3.141  -0.603 -1.1208 -0.9766  0.9246
   53MOL0     H 7114   2.274   2.970  -0.630  0.9887 -0.2609 -1.3708
   53MOL0     H 7115   2.662   3.194  -0.593  1.3497  1.1753 -1.0409
   53MOL0     H 7116   2.795   3.270  -0.791  1.5144 -1.9644 -0.2020
   53MOL0     H 7117   2.835   3.394  -1.293  2.7527 -0.3838 -2.8158
   53MOL0     H 7118   2.865   3.383  -1.519  0.8352 -0.2453 -0.8618
   53MOL0     H 7119   2.915   3.272  -1.687  0.0983 -0.3689 -1.6423
   53MOL0     H 7120   2.836   3.179  -1.805  1.1295  1.8647 -4.5648
   53MOL0     H 7121   2.770   3.378  -1.926  1.4181  1.3246 -1.6746
   53MOL0     H 7122   2.853   3.488  -1.819  0.7749 -0.2455  0.6478
   53MOL0     H 7123   3.018   3.256  -1.913 -2.2956 -0.8322  4.1019
   53MOL0     H 7124   2.959   3.374  -2.042  0.0258 -0.6006  0.0234
   53MOL0     H 7125   3.113   3.410  -1.794 -1.9871 -0.1560  0.6020
   53MOL0     H 7126   3.030   3.550  -1.862 -5.4044 -0.7718 -2.3988
   53MOL0     H 7127   3.160   3.548  -2.062 -1.2938 -0.7106  0.4298
   53MOL0     H 7128   3.224   3.390  -2.036  1.3790  0.6439  0.6655
   53MOL0     H 7129   3.350   3.464  -1.840 -0.7308  0.2223 -1.2434
   53MOL0     H 7130   3.393   3.560  -1.986 -0.3404 -1.1727 -2.5489
   53MOL0     H 7131   3.205   3.634  -1.742  0.4063 -1.5827  0.5631
   53MOL0     H 7132   3.217   3.741  -1.886 -2.2984 -1.6512  0.4863
   53MOL0     H 7133   3.441   3.678  -1.702 -1.8387 -4.2663 -1.0392
   53MOL0     H 7134   3.420   3.802  -1.837 -0.9941 -0.6894 -1.0769
   53MOL0     H 7135   2.467   3.226  -1.574  0.8612  3.1129 -4.1531
   53MOL0     H 7136   2.429   3.211  -1.340 -0.1189 -0.5259 -0.8674
   53MOL0     H 7137   2.425   3.247  -1.030  4.3261  1.5318 -1.5613
   53MOL0     H 7138   2.334   3.128  -0.848 -0.1677 -0.9994  0.2467
   53MOL0     H 7139   2.057   3.473   0.416 -0.3812 -0.3776  0.7269
   53MOL0     H 7140   2.126   3.701   0.398  0.8934 -2.0836  4.9785
   53MOL0     H 7141   2.254   4.016   0.187  1.9093 -0.2096  0.4395
   53MOL0     H 7142   2.425   4.194   0.214 -0.6404 -0.0417 -1.0007
   53MOL0     H 7143   2.475   4.404   0.205 -2.8634 -1.5680  0.2468
   53MOL0     H 7144   2.598   4.361   0.329 -0.7232  0.2150  1.3957
   53MOL0     H 7145   2.487   4.607   0.408 -1.8656 -0.9878 -0.1799
   53MOL0     H 7146   2.497   4.637   0.238 -1.0756 -3.4838 -3.2450
   53MOL0     H 7147   2.732   4.529   0.410  2.5385  1.3454 -0.5226
   53MOL0     H 7148   2.696   4.691   0.352 -1.1327  0.2466 -1.3096
   53MOL0     H 7149   2.792   4.452   0.192  0.9043  0.0768 -2.1352
   53MOL0     H 7150   2.731   4.600   0.119 -2.3200  0.1880  1.0825
   53MOL0     H 7151   3.108   4.700   0.302  1.3101  0.8678 -0.9365
   53MOL0     H 7152   2.212   4.362   0.535  0.0119  1.8333 -0.9073
   53MOL0     H 7153   1.911   4.223   0.502 -1.9726 -3.4558  1.4400
   53MOL0     H 7154   1.972   4.096   0.600 -0.3357 -0.5330 -0.9740
   53MOL0     H 7155   2.031   4.268   0.622 -1.9697 -1.4652  2.3270
   54MOL0     O 7156   5.114  10.641   9.949  0.8205 -0.1243  0.8479
   54MOL0     C 7157   5.195  10.643   9.857 -0.0589  0.1390  0.4574
   54MOL0     O 7158   5.216  10.755   9.787  0.0295  0.3172 -0.3625
   54MOL0     C 7159   5.182  10.879   9.818  0.7730 -1.2127 -0.1565
   54MOL0     C 7160   5.212  10.975   9.719 -1.0066  0.0708  0.2638
   54MOL0     C 7161   5.187  11.108   9.734  0.3506  0.3620 -0.0661
   54MOL0     C 7162   5.151  11.157   9.865  0.4405 -0.2263 -0.6424
   54MOL0     O 7163   5.131  11.292   9.886 -0.2124  0.0536 -0.1641
   54MOL0     C 7164   5.041  11.351   9.795  0.6392 -0.3779  0.2901
   54MOL0     C 7165   4.895  11.351   9.847 -0.7326  0.3960  0.3013
   54MOL0     C 7166   4.890  11.345  10.009  0.2393  0.1375  0.5793
   54MOL0     C 7167   4.756  11.389  10.054 -0.3970 -0.1332  0.3499
   54MOL0     C 7168   4.767  11.441  10.203 -0.0115  0.1996  0.1483
   54MOL0     C 7169   4.790  11.324  10.298 -0.3014  0.5657 -0.1015
   54MOL0     C 7170   4.687  11.309  10.407 -0.4208 -0.5482 -0.2903
   54MOL0     C 7171   4.683  11.427  10.496 -0.0217 -0.9505  0.0775
   54MOL0     N 7172   4.651  11.393  10.636 -0.4740 -0.0419 -1.0811
   54MOL0     C 7173   4.740  11.376  10.740  0.5772  0.5494 -0.4201
   54MOL0     C 7174   4.668  11.382  10.848  0.4749 -0.8467  1.2089
   54MOL0     C 7175   4.732  11.401  10.977  0.6033 -0.4729 -0.0685
   54MOL0     C 7176   4.731  11.271  11.052 -0.5360 -0.3753 -0.8277
   54MOL0     C 7177   4.867  11.193  11.051 -0.4650  0.4444  0.2785
   54MOL0     C 7178   4.989  11.273  11.060  0.6379 -0.3180  0.6574
   54MOL0     O 7179   5.032  11.305  10.928  0.3148  0.4348  0.3385
   54MOL0     C 7180   5.112  11.411  10.903  0.6825  0.2773  0.0268
   54MOL0     C 7181   5.122  11.464  10.765  0.7120  0.2176 -0.6491
   54MOL0     C 7182   5.190  11.588  10.736 -0.4479  1.0186 -0.5401
   54MOL0     C 7183   5.245  11.655  10.844  0.7411 -1.4101 -0.4366
   54MOL0     C 7184   5.301  11.790  10.828  0.3346 -0.3387  0.4728
   54MOL0     O 7185   5.326  11.860  10.940 -0.8664 -0.0321 -0.3100
   54MOL0     C 7186   5.360  11.989  10.946 -0.3428  0.0313  0.9285
   54MOL0     C 7187   5.316  12.067  11.055 -0.1129  0.4032 -0.0399
   54MOL0     C 7188   5.336  12.206  11.067 -0.1402  0.2293  0.1695
   54MOL0     C 7189   5.406  12.276  10.972  0.9090  0.2675  0.2677
   54MOL0     O 7190   5.423  12.412  10.982  0.1557 -0.1189  0.5837
   54MOL0     C 7191   5.488  12.484  10.872 -0.7109 -0.0043 -0.4731
   54MOL0     C 7192   5.466  12.638  10.884 -0.4747 -0.7472 -0.2115
   54MOL0     C 7193   5.327  12.677  10.827 -0.3586  0.0047  0.5126
   54MOL0     C 7194   5.339  12.813  10.752  0.8436  0.1229  0.0355
   54MOL0     C 7195   5.300  12.928  10.855  0.8307  0.3825 -0.4574
   54MOL0     C 7196   5.304  13.072  10.796 -0.2266  0.3403 -0.8754
   54MOL0     C 7197   5.318  13.181  10.904 -0.3595  0.3368  0.1210
   54MOL0     C 7198   5.335  13.325  10.855  0.5862 -0.3695 -0.2848
   54MOL0    Cl 7199   5.202  13.363  10.739  0.0064  0.0293  0.0306
   54MOL0     C 7200   5.451  12.204  10.860 -0.5585 -0.1578 -0.4967
   54MOL0     C 7201   5.421  12.066  10.845 -0.8829 -0.6163 -0.4355
   54MOL0     O 7202   5.293  11.844  10.713  0.3103 -0.0290 -0.3718
   54MOL0     C 7203   5.232  11.601  10.975  1.3616 -0.5874 -0.0324
   54MOL0     C 7204   5.177  11.476  10.999  0.1746 -0.3652 -0.2214
   54MOL0     N 7205   4.536  11.386  10.817 -0.2742 -0.5549 -0.1400
   54MOL0     N 7206   4.527  11.380  10.687  0.0419  0.0818  0.2344
   54MOL0     C 7207   5.126  11.074   9.967  0.2865  0.5256  0.6052
   54MOL0     C 7208   5.133  10.931   9.942 -0.7834 -0.4502  0.6142
   54MOL0     C 7209   5.244  10.517   9.798 -0.7785  0.8717  0.1633
   54MOL0     C 7210   5.290  10.524   9.669  0.7162 -0.9209  0.2794
   54MOL0     C 7211   5.333  10.410   9.608 -0.0083 -0.4238  0.8712
   54MOL0     C 7212   5.346  10.292   9.672  0.3345  0.1224  1.1511
   54MOL0     O 7213   5.396  10.189   9.604 -0.9072  0.0559 -0.9660
   54MOL0     C 7214   5.477  10.091   9.671  0.4415  0.0566 -0.4326
   54MOL0     C 7215   5.590  10.145   9.757  0.9821 -1.7714 -0.1725
   54MOL0     C 7216   5.707  10.058   9.772  0.1697 -0.4028 -0.3050
   54MOL0     C 7217   5.813  10.128   9.867  0.3254 -0.0386  0.9489
   54MOL0     C 7218   5.920  10.036   9.908 -0.4403 -0.4583 -0.0129
   54MOL0     C 7219   5.994   9.955   9.946  0.4541 -0.4595 -0.2221
   54MOL0     C 7220   5.314  10.288   9.811  0.0441 -0.2137  0.5183
   54MOL0     C 7221   5.265  10.401   9.877  0.1055  0.2913  0.7057
   54MOL0     C 7222   5.233  10.375  10.023  0.4860 -0.1153 -0.0758
   54MOL0     H 7223   5.261  10.945   9.628 -1.2923  1.3274 -0.3290
   54MOL0     H 7224   5.211  11.171   9.649 -3.6217  1.6686 -0.4504
   54MOL0     H 7225   5.073  11.455   9.790  1.2855 -0.6032 -0.6857
   54MOL0     H 7226   5.039  11.312   9.692 -0.7719 -1.3270  0.6501
   54MOL0     H 7227   4.851  11.260   9.806 -0.4846  0.5227 -0.2516
   54MOL0     H 7228   4.839  11.440   9.816 -1.6747 -0.5362 -0.7661
   54MOL0     H 7229   4.961  11.412  10.059  0.7957 -1.0851  1.4763
   54MOL0     H 7230   4.915  11.246  10.047 -1.0186 -1.9463 -3.4381
   54MOL0     H 7231   4.715  11.464   9.986  5.1804  1.7711 -1.3650
   54MOL0     H 7232   4.688  11.303  10.059  0.4349 -0.9127 -1.1325
   54MOL0     H 7233   4.844  11.517  10.220 -1.6965  1.5953  2.1392
   54MOL0     H 7234   4.676  11.493  10.234  0.2317 -0.5389  2.2698
   54MOL0     H 7235   4.784  11.232  10.240  2.0278  0.6431 -0.5959
   54MOL0     H 7236   4.890  11.322  10.343 -0.0693  1.1282 -0.5752
   54MOL0     H 7237   4.715  11.218  10.461 -1.0259  0.3447  1.5950
   54MOL0     H 7238   4.587  11.285  10.369 -1.6983 -2.7926  3.8627
   54MOL0     H 7239   4.781  11.475  10.495 -1.4535  2.4213 -2.9854
   54MOL0     H 7240   4.615  11.499  10.450  2.0697  0.0640 -1.6044
   54MOL0     H 7241   4.847  11.361  10.742  0.4548 -0.4366 -0.3690
   54MOL0     H 7242   4.829  11.448  10.961  0.5362  0.2871  1.5428
   54MOL0     H 7243   4.671  11.471  11.034 -0.7110 -0.2043 -1.7235
   54MOL0     H 7244   4.705  11.296  11.155 -0.5285 -0.1485 -0.8806
   54MOL0     H 7245   4.657  11.206  11.004 -0.8573  1.2866 -2.7534
   54MOL0     H 7246   4.871  11.126  10.964 -0.5898  0.5600  0.1833
   54MOL0     H 7247   4.864  11.133  11.142 -1.7676  1.4661  0.9521
   54MOL0     H 7248   5.073  11.209  11.090  1.3863 -0.0765 -0.8011
   54MOL0     H 7249   4.976  11.353  11.133 -2.6535  0.0068 -0.1141
   54MOL0     H 7250   5.067  11.416  10.684 -1.9720  4.1855 -1.4996
   54MOL0     H 7251   5.190  11.639  10.641 -2.5826  1.2768 -0.4531
   54MOL0     H 7252   5.267  12.015  11.137 -5.3825  2.7683 -1.2868
   54MOL0     H 7253   5.297  12.270  11.145 -0.9333 -0.3660  0.2758
   54MOL0     H 7254   5.596  12.471  10.864 -0.8812 -0.5685 -2.1685
   54MOL0     H 7255   5.459  12.451  10.772 -0.6573 -4.7224  0.8090
   54MOL0     H 7256   5.473  12.668  10.989 -0.3472  2.3258 -0.9969
   54MOL0     H 7257   5.543  12.680  10.820 -0.2761 -1.8602 -0.7313
   54MOL0     H 7258   5.319  12.604  10.746  3.6390 -0.3026  0.1816
   54MOL0     H 7259   5.240  12.666  10.893  0.3686  2.8386  2.1167
   54MOL0     H 7260   5.270  12.824  10.667  0.8920 -0.2626 -0.0521
   54MOL0     H 7261   5.439  12.830  10.712 -0.2102  1.8732 -2.1072
   54MOL0     H 7262   5.365  12.913  10.941  2.3120 -1.7936 -1.8499
   54MOL0     H 7263   5.195  12.907  10.878  0.9072  0.5783  0.0790
   54MOL0     H 7264   5.393  13.079  10.732 -0.2673 -0.3818 -1.0173
   54MOL0     H 7265   5.211  13.094  10.743 -0.8023 -3.4084 -1.6777
   54MOL0     H 7266   5.414  13.158  10.952  0.8597  1.4585 -1.6386
   54MOL0     H 7267   5.232  13.176  10.972 -3.3370  0.6388 -3.3279
   54MOL0     H 7268   5.338  13.403  10.932 -2.6659  0.7240 -1.0673
   54MOL0     H 7269   5.430  13.341  10.804  1.1916 -0.6904  0.7229
   54MOL0     H 7270   5.513  12.251  10.784 -0.6114  2.0314  0.7291
   54MOL0     H 7271   5.458  12.011  10.758  1.2604  1.5362 -0.9945
   54MOL0     H 7272   5.262  11.653  11.066 -1.4320  1.2095 -0.0223
   54MOL0     H 7273   5.178  11.438  11.100  2.5757  1.4539  0.5348
   54MOL0     H 7274   5.095  11.105  10.066 -3.6187  2.3616 -0.9327
   54MOL0     H 7275   5.126  10.860  10.024 -2.1385 -0.2547  0.6916
   54MOL0     H 7276   5.279  10.619   9.618  0.9054 -0.4826  1.0329
   54MOL0     H 7277   5.357  10.419   9.502  0.2956  1.7055  1.0802
   54MOL0     H 7278   5.517  10.022   9.595 -2.0160 -0.3489 -1.4351
   54MOL0     H 7279   5.410  10.024   9.726 -0.9640  0.4101 -1.6562
   54MOL0     H 7280   5.558  10.184   9.854  2.9517 -4.4037  1.6632
   54MOL0     H 7281   5.632  10.228   9.699 -1.3475 -0.9169 -0.7873
   54MOL0     H 7282   5.741  10.048   9.669  0.1680 -1.1877 -0.2377
   54MOL0     H 7283   5.701   9.959   9.818  0.3689 -1.0178 -1.5594
   54MOL0     H 7284   5.838  10.227   9.827 -4.9815  0.9304 -0.8203
   54MOL0     H 7285   5.760  10.147   9.961 -0.2220  0.3824  0.5610
   54MOL0     H 7286   6.037   9.883  10.012 -0.8157  0.9402  2.2967
   54MOL0     H 7287   5.332  10.191   9.856  2.5836 -0.9032 -1.6998
   54MOL0     H 7288   5.126  10.353  10.032  0.5170  0.3823  1.9423
   54MOL0     H 7289   5.285  10.287  10.061  1.1294 -0.8882 -2.5881
   54MOL0     H 7290   5.261  10.460  10.085 -1.2552 -0.5237  1.3466
   55MOL0     O 7291  10.646   3.957   4.863  0.1329  0.2138 -0.7009
   55MOL0     C 7292  10.570   3.869   4.892  0.2760  0.6998 -0.3653
   55MOL0     O 7293  10.579   3.734   4.844 -0.1232 -0.2488  0.3528
   55MOL0     C 7294  10.686   3.695   4.761  0.7804  0.2952  0.0876
   55MOL0     C 7295  10.783   3.608   4.808  0.2667 -0.2350 -0.3216
   55MOL0     C 7296  10.890   3.580   4.721 -0.3713 -0.3513  0.3914
   55MOL0     C 7297  10.890   3.625   4.591 -0.5760  0.1017  0.2854
   55MOL0     O 7298  10.983   3.581   4.496  0.5627 -0.4924 -0.3951
   55MOL0     C 7299  11.049   3.456   4.507  0.7516  0.8443  0.2013
   55MOL0     C 7300  11.186   3.460   4.576 -1.0946  0.4235  0.0083
   55MOL0     C 7301  11.257   3.584   4.544  0.2135 -0.3010  0.5543
   55MOL0     C 7302  11.392   3.590   4.621  0.0208 -0.2098 -0.2039
   55MOL0     C 7303  11.467   3.716   4.575 -0.1061 -0.2132  0.7602
   55MOL0     C 7304  11.596   3.725   4.655 -0.1110  0.1604 -0.3653
   55MOL0     C 7305  11.667   3.866   4.651  0.3507  0.1791  0.1744
   55MOL0     C 7306  11.789   3.857   4.747 -0.2374 -0.0210  0.5862
   55MOL0     N 7307  11.863   3.989   4.744 -0.2914 -0.0072 -0.6445
   55MOL0     C 7308  11.913   4.051   4.638 -0.3955  0.1867 -0.5611
   55MOL0     C 7309  11.967   4.160   4.698  0.4828 -0.8308  0.1781
   55MOL0     C 7310  12.050   4.260   4.615  0.3234  0.1458  0.6678
   55MOL0     C 7311  12.199   4.244   4.614  0.7021 -1.1377  0.4591
   55MOL0     C 7312  12.268   4.382   4.588 -0.1763 -0.4365 -0.0086
   55MOL0     C 7313  12.425   4.379   4.607 -0.6965 -0.1184 -0.4211
   55MOL0     O 7314  12.454   4.314   4.737 -0.1180  0.0612 -0.0694
   55MOL0     C 7315  12.417   4.375   4.851  0.1424 -0.6098 -0.1686
   55MOL0     C 7316  12.429   4.291   4.965 -0.9753 -0.5087 -0.5821
   55MOL0     C 7317  12.388   4.347   5.092 -0.1653  0.2629  0.8025
   55MOL0     C 7318  12.358   4.479   5.107 -0.0030  0.6636  0.0876
   55MOL0     C 7319  12.298   4.524   5.238 -0.6936 -0.1812  0.4557
   55MOL0     O 7320  12.266   4.658   5.244 -0.0934 -0.1564 -0.1727
   55MOL0     C 7321  12.220   4.707   5.359 -0.0684  0.3378  0.4577
   55MOL0     C 7322  12.135   4.642   5.454 -0.4339  0.1598  0.1946
   55MOL0     C 7323  12.076   4.713   5.550  0.2668 -0.8275 -0.7076
   55MOL0     C 7324  12.113   4.847   5.577  0.4613 -0.3916  0.4563
   55MOL0     O 7325  12.054   4.923   5.665 -0.0616 -0.1696  1.0688
   55MOL0     C 7326  12.012   4.862   5.790  0.4073 -0.0415 -0.0937
   55MOL0     C 7327  12.004   4.973   5.889  0.8700 -0.8647  0.2837
   55MOL0     C 7328  11.920   5.098   5.857  0.5304 -0.7596  0.2254
   55MOL0     C 7329  11.865   5.163   5.980  0.6998 -0.3273  0.3075
   55MOL0     C 7330  11.795   5.305   5.955 -0.2580  0.5387 -0.0709
   55MOL0     C 7331  11.747   5.359   6.080  0.0301 -0.6205 -0.8314
   55MOL0     C 7332  11.645   5.469   6.060  0.3523 -0.4325  0.2948
   55MOL0     C 7333  11.596   5.521   6.196  0.3859 -0.2062  0.4324
   55MOL0    Cl 7334  11.481   5.659   6.174  0.3473  0.0689 -0.4711
   55MOL0     C 7335  12.195   4.917   5.493 -1.0388  0.4387  0.1396
   55MOL0     C 7336  12.241   4.848   5.375 -1.0506 -0.7559  0.2652
   55MOL0     O 7337  12.287   4.439   5.332  0.2751 -0.4752  0.1192
   55MOL0     C 7338  12.358   4.564   4.992 -0.4249  0.5449 -0.3460
   55MOL0     C 7339  12.393   4.515   4.866 -0.4986  0.6506  0.1149
   55MOL0     N 7340  11.930   4.170   4.835 -0.1699 -0.1638  0.2435
   55MOL0     N 7341  11.867   4.061   4.855  0.0730 -0.2926 -0.2249
   55MOL0     C 7342  10.792   3.713   4.547  0.0879 -0.3651  0.4295
   55MOL0     C 7343  10.684   3.751   4.631  0.2485  0.1623 -0.6085
   55MOL0     C 7344  10.463   3.892   4.991  0.1693 -0.2029 -0.4046
   55MOL0     C 7345  10.353   3.798   4.990 -0.5171 -0.3920  1.1214
   55MOL0     C 7346  10.248   3.822   5.078 -0.0959 -0.1366  0.3061
   55MOL0     C 7347  10.249   3.932   5.170 -0.2122 -0.1205  0.4977
   55MOL0     O 7348  10.136   3.970   5.241  0.0205  0.3471  0.4108
   55MOL0     C 7349  10.023   4.001   5.154  0.1553  0.0737 -0.6458
   55MOL0     C 7350   9.959   4.128   5.221 -0.1689  0.5693 -0.2228
   55MOL0     C 7351   9.880   4.087   5.347 -0.3866  0.2733  0.4051
   55MOL0     C 7352   9.750   3.997   5.323  0.3057  0.1674 -0.5944
   55MOL0     C 7353   9.672   3.959   5.451  0.5402  0.7718  0.6379
   55MOL0     C 7354   9.600   3.952   5.550  0.1522 -0.2936  0.2104
   55MOL0     C 7355  10.358   4.012   5.180 -0.2380 -0.6395  0.1479
   55MOL0     C 7356  10.463   3.995   5.089 -0.3829 -0.2718 -0.2784
   55MOL0     C 7357  10.587   4.077   5.117 -0.1494 -0.0933  0.1272
   55MOL0     H 7358  10.788   3.575   4.912  2.2341  0.0472 -0.2813
   55MOL0     H 7359  10.953   3.496   4.746 -0.7184 -2.0280 -3.6220
   55MOL0     H 7360  10.987   3.385   4.564  2.3477 -0.1570  0.7617
   55MOL0     H 7361  11.070   3.421   4.406  1.4360 -1.4550  1.0719
   55MOL0     H 7362  11.240   3.372   4.540  0.6332  2.6910 -3.4203
   55MOL0     H 7363  11.157   3.458   4.682  0.9427  3.2583  0.7320
   55MOL0     H 7364  11.202   3.669   4.584 -0.7827 -1.7618  2.5016
   55MOL0     H 7365  11.274   3.591   4.436  0.9220 -3.0774  0.4095
   55MOL0     H 7366  11.391   3.609   4.728  1.4917 -0.3846 -0.1396
   55MOL0     H 7367  11.453   3.501   4.601  0.5691  0.5540 -2.2525
   55MOL0     H 7368  11.503   3.711   4.472  0.5001 -0.1756  0.9671
   55MOL0     H 7369  11.417   3.811   4.595  0.3721  1.0712 -3.2389
   55MOL0     H 7370  11.575   3.699   4.759 -0.2602  1.7369  0.0193
   55MOL0     H 7371  11.669   3.651   4.620 -0.0349 -0.5960  1.2859
   55MOL0     H 7372  11.597   3.939   4.692 -0.6414 -1.9132  2.4734
   55MOL0     H 7373  11.692   3.884   4.546  0.7476  3.1418  0.6862
   55MOL0     H 7374  11.747   3.846   4.847  0.3747  0.2767  0.8807
   55MOL0     H 7375  11.849   3.772   4.711 -0.4762  0.6839 -1.6248
   55MOL0     H 7376  11.930   4.016   4.536  1.9298  0.6111 -0.3918
   55MOL0     H 7377  12.027   4.246   4.508 -0.1233  3.0028  0.3061
   55MOL0     H 7378  12.021   4.362   4.641 -0.5858 -0.8769  4.0747
   55MOL0     H 7379  12.235   4.203   4.709  0.8966 -0.2330  0.7853
   55MOL0     H 7380  12.228   4.175   4.534 -1.2474  2.6348 -3.9607
   55MOL0     H 7381  12.224   4.457   4.654 -0.4495  0.5596 -1.2850
   55MOL0     H 7382  12.251   4.428   4.491  2.5527  2.2924  0.6335
   55MOL0     H 7383  12.482   4.472   4.610 -1.0546  0.1305  2.6189
   55MOL0     H 7384  12.478   4.317   4.534 -0.6515  1.1718 -1.5105
   55MOL0     H 7385  12.468   4.191   4.958 -1.2736 -0.7280  0.6447
   55MOL0     H 7386  12.386   4.287   5.182 -3.7986 -0.7685  0.2056
   55MOL0     H 7387  12.106   4.538   5.444  0.5655 -0.1746  0.5961
   55MOL0     H 7388  12.017   4.652   5.617 -0.1327 -0.9251 -1.1441
   55MOL0     H 7389  11.916   4.811   5.780  0.8668 -0.8179 -0.6466
   55MOL0     H 7390  12.076   4.782   5.828  2.9984  1.9244 -0.0753
   55MOL0     H 7391  11.958   4.924   5.975  0.0245 -0.6288 -0.0326
   55MOL0     H 7392  12.105   4.994   5.927  0.9581 -1.8236  0.6005
   55MOL0     H 7393  11.990   5.171   5.816 -1.8243  1.9588  0.6812
   55MOL0     H 7394  11.839   5.092   5.782  1.0152  1.7071 -0.6145
   55MOL0     H 7395  11.939   5.178   6.059 -0.1247  1.9642  0.7140
   55MOL0     H 7396  11.781   5.098   6.007 -0.9170  1.2458 -0.7017
   55MOL0     H 7397  11.711   5.283   5.889 -0.4797  1.7647 -0.2070
   55MOL0     H 7398  11.865   5.374   5.907  1.2178 -1.2513 -0.6114
   55MOL0     H 7399  11.700   5.280   6.141 -0.2192 -1.0964 -1.6182
   55MOL0     H 7400  11.835   5.407   6.123 -0.9660  1.8487 -1.4116
   55MOL0     H 7401  11.557   5.435   6.005 -1.1040  1.4201  1.3864
   55MOL0     H 7402  11.689   5.551   6.003 -1.5390  0.8199  0.5772
   55MOL0     H 7403  11.538   5.442   6.245  0.6245 -0.7124 -0.0770
   55MOL0     H 7404  11.679   5.552   6.261  0.2077  1.3584 -0.0469
   55MOL0     H 7405  12.225   5.019   5.513  1.0940 -0.0625 -0.2648
   55MOL0     H 7406  12.301   4.906   5.305  2.9797 -3.5596  1.0132
   55MOL0     H 7407  12.340   4.670   5.010  0.4972  1.0040 -1.9854
   55MOL0     H 7408  12.392   4.593   4.791 -0.5836  1.3585  0.8360
   55MOL0     H 7409  10.782   3.747   4.445 -2.8805  0.5685  0.9403
   55MOL0     H 7410  10.590   3.799   4.606 -1.3580 -2.0758  0.7936
   55MOL0     H 7411  10.343   3.711   4.926  3.0742  1.2043 -1.9301
   55MOL0     H 7412  10.156   3.764   5.089 -1.2637  1.8882  1.8205
   55MOL0     H 7413   9.968   3.906   5.155  1.2400 -0.6107 -1.7261
   55MOL0     H 7414  10.046   4.024   5.049 -0.3332  4.2134  0.0189
   55MOL0     H 7415   9.893   4.179   5.150 -1.7909 -0.1350  0.7052
   55MOL0     H 7416  10.041   4.196   5.246  1.1548 -1.0276 -0.0545
   55MOL0     H 7417   9.841   4.182   5.385  0.5233  1.0956 -0.6439
   55MOL0     H 7418   9.948   4.047   5.423 -2.0543 -0.3196  1.6542
   55MOL0     H 7419   9.684   4.046   5.250  1.5826  1.6651 -0.8025
   55MOL0     H 7420   9.775   3.898   5.283  0.6491  0.2210 -0.5131
   55MOL0     H 7421   9.561   3.943   5.649  1.2569 -3.2451  0.4926
   55MOL0     H 7422  10.370   4.094   5.249 -1.6849  1.1244 -1.5681
   55MOL0     H 7423  10.680   4.018   5.123  0.2111  0.5569  1.2342
   55MOL0     H 7424  10.591   4.157   5.043  0.5889 -0.8778 -0.7197
   55MOL0     H 7425  10.578   4.135   5.209 -2.8739 -0.2442  0.0225
   56MOL0     O 7426   7.712   0.287   9.242  0.3021  1.0382  0.1899
   56MOL0     C 7427   7.775   0.234   9.151  0.9094 -0.2918 -0.0530
   56MOL0     O 7428   7.902   0.176   9.168  0.7477  0.4255  0.0619
   56MOL0     C 7429   7.963   0.204   9.293 -0.7236 -0.1639 -0.1081
   56MOL0     C 7430   8.037   0.322   9.295 -0.2042  0.2592  0.0867
   56MOL0     C 7431   8.105   0.368   9.407  0.4770  0.0466 -0.7698
   56MOL0     C 7432   8.092   0.288   9.523 -0.0487  0.5946 -1.0595
   56MOL0     O 7433   8.155   0.326   9.641 -0.3445  0.2905  0.3377
   56MOL0     C 7434   8.097   0.442   9.709 -0.4453  0.3744  0.5131
   56MOL0     C 7435   8.055   0.402   9.854 -0.8610 -0.2895 -0.3869
   56MOL0     C 7436   7.960   0.519   9.908  0.0308  0.1009  0.4633
   56MOL0     C 7437   7.885   0.468  10.023 -0.0680 -1.2369  0.4511
   56MOL0     C 7438   7.835   0.586  10.112  0.0353 -0.4030  0.2684
   56MOL0     C 7439   7.742   0.543  10.231 -1.0496 -1.1829  0.9903
   56MOL0     C 7440   7.700   0.672  10.303  0.3843 -0.6983 -1.1155
   56MOL0     C 7441   7.634   0.652  10.444 -0.3786 -0.1382 -0.5450
   56MOL0     N 7442   7.743   0.644  10.543  0.3334 -0.7626  0.4770
   56MOL0     C 7443   7.828   0.741  10.591 -0.9325 -0.5378  0.1113
   56MOL0     C 7444   7.911   0.677  10.677  0.9110  0.2595  0.0028
   56MOL0     C 7445   8.024   0.739  10.751 -0.9104 -0.4028 -0.6285
   56MOL0     C 7446   8.126   0.819  10.681 -0.3849 -0.7616 -0.3518
   56MOL0     C 7447   8.210   0.746  10.574  0.8307 -0.7913 -0.8099
   56MOL0     C 7448   8.313   0.837  10.510 -0.3708 -0.2214  0.2371
   56MOL0     O 7449   8.408   0.744  10.452 -0.1371 -0.1521  0.0373
   56MOL0     C 7450   8.513   0.793  10.373  0.2116  0.4274 -0.0008
   56MOL0     C 7451   8.574   0.708  10.273  0.0125  0.7459 -0.8375
   56MOL0     C 7452   8.675   0.749  10.193 -0.4930 -0.2202 -0.3298
   56MOL0     C 7453   8.706   0.889  10.190  0.3353 -0.0696 -1.1019
   56MOL0     C 7454   8.786   0.948  10.085 -0.1219 -0.8066 -0.7522
   56MOL0     O 7455   8.799   0.873   9.969  0.0621 -0.3887  0.6343
   56MOL0     C 7456   8.868   0.910   9.854  0.5003 -0.4688 -0.5882
   56MOL0     C 7457   8.966   1.009   9.846 -0.3745 -0.4899  0.2133
   56MOL0     C 7458   9.050   1.018   9.736 -0.0160  0.1022  0.6111
   56MOL0     C 7459   9.038   0.926   9.630  1.2546 -0.6053  0.1133
   56MOL0     O 7460   9.113   0.926   9.519  0.3182 -0.6886 -0.2767
   56MOL0     C 7461   9.244   0.975   9.543  0.0772  0.4213  0.1843
   56MOL0     C 7462   9.327   0.925   9.424  0.3478 -0.8088  0.1076
   56MOL0     C 7463   9.472   0.985   9.408 -0.1652  0.0993 -0.1996
   56MOL0     C 7464   9.489   1.104   9.312  0.0806  0.1338  0.6645
   56MOL0     C 7465   9.500   1.057   9.160  0.3030 -0.3739 -0.7867
   56MOL0     C 7466   9.513   1.170   9.050 -0.1184  0.2872  0.3424
   56MOL0     C 7467   9.431   1.294   9.080  0.8654 -0.2212 -0.2381
   56MOL0     C 7468   9.443   1.395   8.970  0.1076  0.2108 -0.2833
   56MOL0    Cl 7469   9.616   1.453   8.953 -0.4515 -0.4806 -0.0068
   56MOL0     C 7470   8.938   0.827   9.634  0.4791  0.5507  0.0735
   56MOL0     C 7471   8.853   0.815   9.751 -0.1975 -0.0665  0.1887
   56MOL0     O 7472   8.846   1.057  10.110 -0.3663 -0.2506 -0.0820
   56MOL0     C 7473   8.649   0.972  10.289 -0.9060 -0.0226  0.5766
   56MOL0     C 7474   8.556   0.924  10.384  0.0801 -0.4033 -0.4812
   56MOL0     N 7475   7.881   0.539  10.675  0.3569  0.9600  0.3014
   56MOL0     N 7476   7.785   0.523  10.587  0.0018  0.1021  1.3189
   56MOL0     C 7477   8.019   0.162   9.524 -0.3564 -0.2261  0.8335
   56MOL0     C 7478   7.945   0.130   9.406  0.1505 -0.1854 -0.6498
   56MOL0     C 7479   7.704   0.248   9.013 -0.6856 -1.1439  0.2647
   56MOL0     C 7480   7.570   0.284   9.016 -0.8866  0.4335  0.0146
   56MOL0     C 7481   7.496   0.275   8.901  0.1338  0.2450 -0.0858
   56MOL0     C 7482   7.554   0.240   8.775 -0.4338  0.7303 -0.1361
   56MOL0     O 7483   7.461   0.231   8.672 -0.1607  0.3624  0.1559
   56MOL0     C 7484   7.494   0.233   8.530  0.4977 -0.0499  0.0038
   56MOL0     C 7485   7.547   0.103   8.473  0.4895  0.0607 -0.0001
   56MOL0     C 7486   7.465  -0.029   8.495  0.0145 -0.1155 -0.6943
   56MOL0     C 7487   7.534  -0.156   8.454 -0.5837 -0.2269  1.1765
   56MOL0     C 7488   7.423  -0.252   8.432  0.3353 -0.2521  0.0318
   56MOL0     C 7489   7.344  -0.330   8.421 -0.5977  0.0042  0.6532
   56MOL0     C 7490   7.697   0.217   8.773  0.2579 -0.0077  0.9036
   56MOL0     C 7491   7.776   0.212   8.891  0.4278  0.0974  0.0347
   56MOL0     C 7492   7.931   0.189   8.884  0.1551 -0.8905 -0.3578
   56MOL0     H 7493   8.044   0.387   9.208 -0.0354  0.4730  0.2581
   56MOL0     H 7494   8.157   0.462   9.420 -1.0938  0.6564  2.1312
   56MOL0     H 7495   8.153   0.536   9.709 -3.5906  2.4039  1.9659
   56MOL0     H 7496   8.008   0.457   9.648 -2.5235 -3.3664  2.2766
   56MOL0     H 7497   8.150   0.394   9.907 -0.2498 -1.6177 -1.6172
   56MOL0     H 7498   7.996   0.311   9.863 -0.0659 -0.6620  1.6735
   56MOL0     H 7499   7.886   0.546   9.832 -0.3044 -1.7793  0.0546
   56MOL0     H 7500   8.014   0.608   9.941  0.1641  0.4119 -0.5544
   56MOL0     H 7501   7.792   0.423   9.985 -1.9558  1.7488  1.1168
   56MOL0     H 7502   7.944   0.393  10.076  0.0809 -0.2647  1.7047
   56MOL0     H 7503   7.924   0.620  10.164 -0.4778 -1.5807  2.0117
   56MOL0     H 7504   7.798   0.663  10.044 -1.4232  0.1035  1.5732
   56MOL0     H 7505   7.652   0.498  10.189 -2.8095  2.3749  0.5837
   56MOL0     H 7506   7.803   0.472  10.287  0.3281  0.4392  1.6558
   56MOL0     H 7507   7.641   0.741  10.242 -0.9591  1.6138  2.4490
   56MOL0     H 7508   7.794   0.727  10.318 -0.6975  0.6733  1.2165
   56MOL0     H 7509   7.573   0.732  10.486  0.9166  0.5768  0.0211
   56MOL0     H 7510   7.581   0.556  10.442 -0.6840 -0.0184 -3.5615
   56MOL0     H 7511   7.845   0.843  10.556  0.4648 -1.3957 -1.9155
   56MOL0     H 7512   7.991   0.799  10.836  1.6116 -1.0910  0.9427
   56MOL0     H 7513   8.080   0.662  10.805  0.7680  3.4663  3.8303
   56MOL0     H 7514   8.088   0.910  10.632 -0.6464 -0.0239  1.1792
   56MOL0     H 7515   8.196   0.856  10.757 -0.6045  0.8173 -0.8825
   56MOL0     H 7516   8.145   0.710  10.493  0.5635 -1.4215 -0.3267
   56MOL0     H 7517   8.254   0.654  10.614 -0.0064  0.1010  2.4554
   56MOL0     H 7518   8.358   0.912  10.575 -0.1083  0.7448 -1.0432
   56MOL0     H 7519   8.263   0.884  10.425 -0.9303 -2.4147 -0.7450
   56MOL0     H 7520   8.535   0.608  10.286 -0.9245  1.1742 -0.2199
   56MOL0     H 7521   8.719   0.683  10.119 -0.5110  0.1611 -0.6812
   56MOL0     H 7522   8.989   1.081   9.923 -0.6168  0.0251 -0.1900
   56MOL0     H 7523   9.135   1.085   9.736  0.8868 -1.0176  0.5315
   56MOL0     H 7524   9.249   1.084   9.555  1.0113  0.1926  2.3410
   56MOL0     H 7525   9.282   0.930   9.635 -1.3587 -3.9799 -1.1215
   56MOL0     H 7526   9.321   0.816   9.434 -0.9226 -0.6518  1.3079
   56MOL0     H 7527   9.284   0.950   9.326  3.3997  2.7525 -0.5318
   56MOL0     H 7528   9.497   1.018   9.509 -1.7323  2.3346 -0.4723
   56MOL0     H 7529   9.549   0.912   9.383  1.2414  1.8394 -1.1551
   56MOL0     H 7530   9.582   1.154   9.342 -0.6584  2.0325 -0.0805
   56MOL0     H 7531   9.400   1.166   9.312 -1.4128 -1.8230 -1.6755
   56MOL0     H 7532   9.408   1.005   9.132  0.8908 -1.1803 -1.2528
   56MOL0     H 7533   9.576   0.981   9.143  0.0029 -0.4621 -1.7740
   56MOL0     H 7534   9.620   1.189   9.062 -0.0764  1.3558 -1.4215
   56MOL0     H 7535   9.495   1.146   8.945  0.2474  0.2556  0.2868
   56MOL0     H 7536   9.451   1.337   9.178 -0.4225  1.0227 -0.4957
   56MOL0     H 7537   9.326   1.264   9.077  0.6244  0.3181  1.6219
   56MOL0     H 7538   9.408   1.344   8.880  0.9770  0.3404 -0.7071
   56MOL0     H 7539   9.374   1.475   8.996  0.0978 -0.2280  1.0693
   56MOL0     H 7540   8.945   0.755   9.553  3.0431  1.4906 -0.6199
   56MOL0     H 7541   8.787   0.730   9.761  0.4630 -0.3838  2.1798
   56MOL0     H 7542   8.658   1.079  10.303 -3.4092 -0.0755  3.8946
   56MOL0     H 7543   8.530   0.987  10.468  1.4668 -2.6605  1.7919
   56MOL0     H 7544   8.011   0.119   9.624  0.8160 -1.8544  0.2737
   56MOL0     H 7545   7.869   0.053   9.407 -0.3158  0.2646 -0.1584
   56MOL0     H 7546   7.513   0.319   9.102 -1.7743 -3.8136  1.3557
   56MOL0     H 7547   7.389   0.287   8.912 -0.3257 -0.0215 -3.3544
   56MOL0     H 7548   7.570   0.309   8.515 -0.0303  0.2829 -1.1270
   56MOL0     H 7549   7.398   0.261   8.484  1.6533  0.4565 -2.2359
   56MOL0     H 7550   7.653   0.092   8.497  0.7440  0.7672 -0.7364
   56MOL0     H 7551   7.553   0.112   8.364  1.7343  0.0199  0.0483
   56MOL0     H 7552   7.389  -0.014   8.417  3.0046 -1.4554 -4.1977
   56MOL0     H 7553   7.424  -0.027   8.596  0.8628 -0.6435 -0.3264
   56MOL0     H 7554   7.598  -0.133   8.368 -2.0102  1.2359  0.4286
   56MOL0     H 7555   7.592  -0.198   8.536 -0.5193 -0.0789  1.2075
   56MOL0     H 7556   7.289  -0.417   8.392  0.1333 -0.1850 -0.2497
   56MOL0     H 7557   7.744   0.184   8.681 -1.7150 -1.1473  0.2453
   56MOL0     H 7558   7.958   0.095   8.933  0.4713 -0.7709 -0.2981
   56MOL0     H 7559   7.964   0.187   8.780  0.9108  3.1845 -0.3443
   56MOL0     H 7560   7.981   0.270   8.938  0.2987 -0.5022 -1.0680
   57MOL0     O 7561   7.119   4.411   1.074  0.4748 -0.5209 -0.2883
   57MOL0     C 7562   7.140   4.283   1.082  0.3885 -0.0455 -0.3218
   57MOL0     O 7563   7.230   4.209   1.004 -0.0263  0.0201  0.7580
   57MOL0     C 7564   7.297   4.271   0.897  0.0009  0.1022  0.6515
   57MOL0     C 7565   7.236   4.368   0.809  0.6936  0.0227 -0.7736
   57MOL0     C 7566   7.302   4.419   0.698  0.7064 -0.4233 -0.2847
   57MOL0     C 7567   7.438   4.383   0.675  0.5877 -0.1823 -0.0492
   57MOL0     O 7568   7.514   4.416   0.572 -0.1688 -0.4488  0.4980
   57MOL0     C 7569   7.445   4.446   0.446  0.5374  0.2657 -1.2587
   57MOL0     C 7570   7.550   4.468   0.341  0.2709 -0.2274 -0.5415
   57MOL0     C 7571   7.640   4.347   0.317 -0.1166 -0.4984 -0.1182
   57MOL0     C 7572   7.737   4.395   0.207  0.1754 -0.3017 -0.0075
   57MOL0     C 7573   7.838   4.281   0.187 -0.1376 -0.1746  0.4015
   57MOL0     C 7574   7.934   4.294   0.063 -0.3217 -0.0627  0.1649
   57MOL0     C 7575   7.848   4.273  -0.060 -0.7553  0.1963  0.6168
   57MOL0     C 7576   7.945   4.291  -0.180 -0.2507 -0.1032 -0.6859
   57MOL0     N 7577   7.872   4.324  -0.302  0.4372 -0.2104  0.1489
   57MOL0     C 7578   7.920   4.384  -0.413  0.3363  0.0881  0.0166
   57MOL0     C 7579   7.814   4.374  -0.502 -0.6213  0.0038 -0.4864
   57MOL0     C 7580   7.811   4.429  -0.641  0.6696 -0.8311 -0.3742
   57MOL0     C 7581   7.929   4.375  -0.727 -0.0807 -0.7323  0.8306
   57MOL0     C 7582   7.947   4.440  -0.866  1.0940  0.3071 -0.4038
   57MOL0     C 7583   7.849   4.384  -0.972  1.1759 -1.3013 -0.6001
   57MOL0     O 7584   7.715   4.393  -0.936  0.3403  0.0760  0.3280
   57MOL0     C 7585   7.622   4.340  -1.028 -0.5523  0.4182  0.0830
   57MOL0     C 7586   7.487   4.359  -0.987  0.6294 -0.2403 -0.5255
   57MOL0     C 7587   7.390   4.299  -1.064 -0.6296 -0.5907  1.1883
   57MOL0     C 7588   7.413   4.226  -1.184 -0.5692  0.9163 -0.2935
   57MOL0     C 7589   7.299   4.176  -1.268 -0.1913  0.4390  0.4440
   57MOL0     O 7590   7.332   4.169  -1.405 -0.6145 -0.0709 -0.2102
   57MOL0     C 7591   7.248   4.111  -1.501 -0.5883  0.2857 -0.3884
   57MOL0     C 7592   7.304   4.024  -1.587  0.1509  0.9866 -0.6935
   57MOL0     C 7593   7.229   3.966  -1.679  0.7004  0.6360  0.7673
   57MOL0     C 7594   7.093   4.000  -1.694 -0.1956 -0.2498  0.9872
   57MOL0     O 7595   7.023   3.949  -1.808  0.1059  0.4595 -0.4727
   57MOL0     C 7596   6.978   4.049  -1.893 -0.0495  0.2594  0.3765
   57MOL0     C 7597   6.903   3.987  -2.011 -1.1042  0.5043 -0.8009
   57MOL0     C 7598   6.761   3.940  -1.974  0.9085  0.3500  0.2614
   57MOL0     C 7599   6.756   3.809  -1.905 -0.5623 -0.0272 -0.5127
   57MOL0     C 7600   6.621   3.759  -1.843  1.2385  0.4167 -0.1000
   57MOL0     C 7601   6.511   3.764  -1.945  0.5949  0.3798 -0.5395
   57MOL0     C 7602   6.512   3.649  -2.053  0.1838 -1.2349 -0.1495
   57MOL0     C 7603   6.516   3.517  -1.983  0.0964 -0.6057  1.0054
   57MOL0    Cl 7604   6.478   3.404  -2.101  0.1565  0.3601 -0.1033
   57MOL0     C 7605   7.038   4.090  -1.597 -0.5768  0.2305 -0.5658
   57MOL0     C 7606   7.116   4.148  -1.507 -0.3209 -0.3818  0.0317
   57MOL0     O 7607   7.188   4.153  -1.224 -0.0507  0.6013 -0.1931
   57MOL0     C 7608   7.548   4.205  -1.225  1.2908 -0.2369 -0.2208
   57MOL0     C 7609   7.654   4.255  -1.144  0.5883 -0.4659  0.6935
   57MOL0     N 7610   7.712   4.311  -0.444 -0.0619 -0.9334 -1.3265
   57MOL0     N 7611   7.739   4.287  -0.324  0.3113  0.6557 -0.6333
   57MOL0     C 7612   7.499   4.294   0.766 -0.0049 -0.6468  1.5347
   57MOL0     C 7613   7.425   4.233   0.871  0.3560  0.2099 -0.2739
   57MOL0     C 7614   7.047   4.208   1.174 -0.6126  0.2084  0.1327
   57MOL0     C 7615   7.073   4.066   1.184  0.2984  0.7608  0.0786
   57MOL0     C 7616   7.005   3.980   1.267 -0.5861 -0.9660  0.4022
   57MOL0     C 7617   6.897   4.025   1.340 -0.2659 -0.4891 -0.4091
   57MOL0     O 7618   6.835   3.945   1.423  0.2269 -0.1963  0.0947
   57MOL0     C 7619   6.724   3.873   1.356  0.2487  0.3243 -0.3348
   57MOL0     C 7620   6.661   3.784   1.468  0.3591  0.2049  0.8619
   57MOL0     C 7621   6.658   3.843   1.608  1.2976  0.3118 -0.3222
   57MOL0     C 7622   6.627   3.739   1.716 -0.1349 -1.0369  0.2408
   57MOL0     C 7623   6.483   3.722   1.735 -0.1019 -0.0096 -0.0680
   57MOL0     C 7624   6.361   3.719   1.729  0.1109  0.8727 -0.4432
   57MOL0     C 7625   6.871   4.160   1.340 -0.2971 -0.4561  0.4718
   57MOL0     C 7626   6.944   4.259   1.264  0.0170 -0.4338  0.0779
   57MOL0     C 7627   6.902   4.404   1.274 -0.1212  0.2919  0.1319
   57MOL0     H 7628   7.129   4.377   0.823  0.4908  0.6152 -2.4775
   57MOL0     H 7629   7.235   4.476   0.633 -2.5283 -2.5114  0.9832
   57MOL0     H 7630   7.397   4.349   0.427  0.9762 -0.7894  2.2862
   57MOL0     H 7631   7.375   4.530   0.455 -1.1379 -1.2774  4.0580
   57MOL0     H 7632   7.605   4.561   0.356 -1.2391  1.6023 -4.7910
   57MOL0     H 7633   7.500   4.484   0.245 -0.7151  0.8609  0.1200
   57MOL0     H 7634   7.583   4.257   0.291 -0.7997  0.0002 -0.3973
   57MOL0     H 7635   7.696   4.322   0.407 -1.1342  2.9969  1.6491
   57MOL0     H 7636   7.677   4.422   0.119 -0.2732  3.4657  1.2664
   57MOL0     H 7637   7.793   4.483   0.239  1.7917 -0.0526 -3.1017
   57MOL0     H 7638   7.899   4.279   0.278  0.6272 -0.6192 -0.1116
   57MOL0     H 7639   7.796   4.181   0.176  1.7185 -0.7323 -3.6046
   57MOL0     H 7640   7.990   4.388   0.072  0.1115 -0.4986  2.5389
   57MOL0     H 7641   8.002   4.209   0.066 -3.2210 -2.6026 -0.9956
   57MOL0     H 7642   7.770   4.350  -0.067 -2.7693 -1.4921  2.6509
   57MOL0     H 7643   7.807   4.172  -0.068 -1.1480  0.4195 -0.2403
   57MOL0     H 7644   8.013   4.369  -0.145 -2.4386  0.7580  2.0309
   57MOL0     H 7645   8.000   4.197  -0.190 -1.8167 -0.8551 -2.9166
   57MOL0     H 7646   8.020   4.422  -0.427 -0.1617  0.4069 -3.8376
   57MOL0     H 7647   7.722   4.397  -0.695  0.7353 -1.9752  0.1567
   57MOL0     H 7648   7.810   4.537  -0.629 -3.8802 -0.5200 -1.8261
   57MOL0     H 7649   8.025   4.385  -0.674  1.9995 -0.7494 -2.6626
   57MOL0     H 7650   7.916   4.267  -0.739  2.0489 -0.9689  0.2710
   57MOL0     H 7651   8.051   4.427  -0.898  1.4545 -1.1363  1.1928
   57MOL0     H 7652   7.944   4.550  -0.865 -4.3968  0.4901 -2.9865
   57MOL0     H 7653   7.879   4.279  -0.962  0.5358 -1.2648  4.1915
   57MOL0     H 7654   7.862   4.427  -1.071  1.5960 -1.1491 -0.4830
   57MOL0     H 7655   7.463   4.419  -0.901  0.2501  2.2564 -2.2654
   57MOL0     H 7656   7.286   4.310  -1.036 -0.8345 -0.4589  0.3968
   57MOL0     H 7657   7.411   4.006  -1.574  0.0641  0.0485 -1.1644
   57MOL0     H 7658   7.273   3.894  -1.747  0.5793  1.3725 -0.1253
   57MOL0     H 7659   6.928   4.127  -1.835 -0.8522  0.3526 -0.4257
   57MOL0     H 7660   7.077   4.091  -1.915  0.3884 -0.6128  0.5852
   57MOL0     H 7661   6.897   4.059  -2.093 -0.2437 -0.5144 -1.8061
   57MOL0     H 7662   6.960   3.902  -2.050 -0.2763 -0.4093  2.1597
   57MOL0     H 7663   6.712   4.022  -1.920 -1.5410 -2.7696  3.2099
   57MOL0     H 7664   6.702   3.930  -2.065  0.0103  3.9781  0.2972
   57MOL0     H 7665   6.827   3.820  -1.822 -2.1492 -0.1220  0.8983
   57MOL0     H 7666   6.792   3.727  -1.969 -1.7959 -2.3914  1.6335
   57MOL0     H 7667   6.597   3.825  -1.759 -1.5013  1.8279 -1.8343
   57MOL0     H 7668   6.626   3.658  -1.801 -0.3930  0.6015  0.6391
   57MOL0     H 7669   6.422   3.744  -1.885  0.6511  1.6132 -0.0074
   57MOL0     H 7670   6.500   3.865  -1.985  1.5270  0.1786 -1.3503
   57MOL0     H 7671   6.571   3.669  -2.143 -2.3019  3.5891 -1.0219
   57MOL0     H 7672   6.413   3.657  -2.098  0.2893 -2.7364 -0.6832
   57MOL0     H 7673   6.610   3.489  -1.934  0.7341 -1.7773 -0.7708
   57MOL0     H 7674   6.439   3.522  -1.905  0.3351 -0.9369  1.2650
   57MOL0     H 7675   6.935   4.125  -1.595  0.2408  2.7458  0.6928
   57MOL0     H 7676   7.069   4.216  -1.436  0.0439 -0.7840  0.6672
   57MOL0     H 7677   7.559   4.157  -1.322 -1.9774 -2.8060  0.4599
   57MOL0     H 7678   7.752   4.238  -1.187  0.6280  1.3368 -0.0276
   57MOL0     H 7679   7.591   4.251   0.728 -1.0173 -0.9033 -0.7607
   57MOL0     H 7680   7.474   4.164   0.939  0.1940  1.3936  1.0935
   57MOL0     H 7681   7.154   4.027   1.123  1.7430  3.9004 -0.2010
   57MOL0     H 7682   7.030   3.874   1.275 -1.2782 -1.1800 -0.1239
   57MOL0     H 7683   6.753   3.793   1.288 -0.5582 -0.6144  0.3810
   57MOL0     H 7684   6.657   3.943   1.304 -0.1761  0.8734  0.8975
   57MOL0     H 7685   6.718   3.691   1.465  0.1070 -0.0723  3.2326
   57MOL0     H 7686   6.557   3.760   1.447 -0.7316  3.9477  1.2433
   57MOL0     H 7687   6.575   3.915   1.605 -2.2905 -3.4779 -1.4028
   57MOL0     H 7688   6.751   3.889   1.644  0.4965 -1.0597  4.1965
   57MOL0     H 7689   6.680   3.647   1.689  0.7583  0.2021 -2.5786
   57MOL0     H 7690   6.660   3.778   1.813 -2.1948  0.0989  0.5254
   57MOL0     H 7691   6.255   3.731   1.732 -0.0363 -0.5002  1.7470
   57MOL0     H 7692   6.799   4.206   1.408  0.0323  0.3417  0.2896
   57MOL0     H 7693   6.829   4.414   1.355 -0.3706  0.3401 -0.1020
   57MOL0     H 7694   6.997   4.456   1.293  1.1664 -1.4697 -1.1357
   57MOL0     H 7695   6.871   4.443   1.177  1.7457  1.5651 -0.0096
   58MOL0     O 7696   4.343   4.353  11.245 -0.9558 -0.0964  0.3242
   58MOL0     C 7697   4.246   4.339  11.171 -0.1211  0.7614 -0.6900
   58MOL0     O 7698   4.231   4.406  11.052  0.2392 -1.3082 -0.0294
   58MOL0     C 7699   4.343   4.467  10.998  0.3986  0.1524  0.7762
   58MOL0     C 7700   4.361   4.603  11.033 -0.6862  0.2853  0.0939
   58MOL0     C 7701   4.486   4.663  10.993  0.1210 -0.8432  0.4002
   58MOL0     C 7702   4.567   4.594  10.898  0.9311 -0.7017 -0.2051
   58MOL0     O 7703   4.683   4.642  10.852  0.1022  0.1888 -0.2842
   58MOL0     C 7704   4.730   4.771  10.872 -0.5006  0.3252  0.1882
   58MOL0     C 7705   4.868   4.801  10.812 -0.6510  0.5866 -0.6608
   58MOL0     C 7706   4.873   4.823  10.663 -0.2207  0.0650  0.0971
   58MOL0     C 7707   4.877   4.697  10.585 -0.8285  0.5078 -0.1204
   58MOL0     C 7708   4.929   4.726  10.446  0.6120 -0.2714  1.3772
   58MOL0     C 7709   5.081   4.752  10.449 -0.5507 -0.3318 -0.1169
   58MOL0     C 7710   5.154   4.761  10.315 -0.0372 -0.7060 -0.3553
   58MOL0     C 7711   5.109   4.884  10.231 -0.1261  0.1857 -0.8563
   58MOL0     N 7712   5.146   5.011  10.308  0.2722  0.5923  0.0996
   58MOL0     C 7713   5.076   5.070  10.413  0.1912 -0.0107 -0.5433
   58MOL0     C 7714   5.153   5.176  10.446 -0.0443  0.3056 -0.3828
   58MOL0     C 7715   5.159   5.243  10.573 -0.2093  0.0289  0.0831
   58MOL0     C 7716   5.205   5.157  10.698  0.6361  0.0536  0.1942
   58MOL0     C 7717   5.198   5.238  10.831  0.0395 -0.0983  0.3490
   58MOL0     C 7718   5.076   5.340  10.841  0.7937 -0.2917  0.2074
   58MOL0     O 7719   5.051   5.393  10.972  0.5365 -0.2585 -0.0873
   58MOL0     C 7720   4.937   5.459  10.999  0.4514  0.5524 -0.0502
   58MOL0     C 7721   4.903   5.460  11.136 -0.4075  0.5173 -0.3186
   58MOL0     C 7722   4.810   5.553  11.179 -0.5060 -0.4797 -1.1418
   58MOL0     C 7723   4.725   5.611  11.082  0.3219  0.1629 -0.0840
   58MOL0     C 7724   4.605   5.680  11.129 -0.0194 -0.1360 -0.4044
   58MOL0     O 7725   4.594   5.692  11.265  0.1397 -0.5098  0.0366
   58MOL0     C 7726   4.482   5.748  11.310 -0.4030  0.3272  0.5243
   58MOL0     C 7727   4.404   5.662  11.393 -0.9573 -0.8674  0.5945
   58MOL0     C 7728   4.297   5.709  11.468  1.0382  0.3581  0.8190
   58MOL0     C 7729   4.261   5.850  11.468  0.3676  0.2983 -0.3776
   58MOL0     O 7730   4.145   5.885  11.526  0.2142  0.2769 -0.5917
   58MOL0     C 7731   4.094   6.016  11.511  0.3618 -0.2762 -0.6558
   58MOL0     C 7732   3.965   6.026  11.592 -0.1055  0.5728 -0.7885
   58MOL0     C 7733   3.998   5.994  11.744  0.2237 -0.3541 -0.3146
   58MOL0     C 7734   4.079   6.109  11.823  0.1911  1.2184 -0.2830
   58MOL0     C 7735   4.234   6.114  11.825 -0.0346  0.6809 -0.2782
   58MOL0     C 7736   4.275   6.061  11.960  0.3487 -0.4195 -0.1987
   58MOL0     C 7737   4.421   6.084  11.982 -0.1202 -0.3013  0.5948
   58MOL0     C 7738   4.453   6.085  12.135  0.3346  0.4680  0.0539
   58MOL0    Cl 7739   4.429   5.934  12.210  0.0289 -0.0951 -0.2130
   58MOL0     C 7740   4.342   5.931  11.374  0.4605 -0.5488 -0.2651
   58MOL0     C 7741   4.456   5.884  11.307 -0.4743 -0.0430  0.5674
   58MOL0     O 7742   4.529   5.731  11.054  0.3372  0.4008  0.9506
   58MOL0     C 7743   4.739   5.587  10.944  0.1539 -0.0698 -0.5140
   58MOL0     C 7744   4.857   5.520  10.904 -0.6162  0.7661 -0.1667
   58MOL0     N 7745   5.258   5.182  10.354 -0.2896 -0.1628  1.3086
   58MOL0     N 7746   5.239   5.096  10.258  0.0508  0.6407  0.1679
   58MOL0     C 7747   4.540   4.464  10.852  0.1259 -0.3773  0.6854
   58MOL0     C 7748   4.428   4.403  10.910 -0.1332  1.3244  0.9549
   58MOL0     C 7749   4.127   4.253  11.218 -0.6212 -0.7041 -0.6444
   58MOL0     C 7750   4.040   4.214  11.118 -0.7718 -1.3434 -0.2486
   58MOL0     C 7751   3.942   4.117  11.136  0.1183  0.7115 -0.7884
   58MOL0     C 7752   3.909   4.067  11.254 -0.3524  0.6375  0.3491
   58MOL0     O 7753   3.802   3.999  11.301 -0.0070 -0.5068  0.0352
   58MOL0     C 7754   3.708   3.952  11.202 -0.4527  0.1627 -1.0086
   58MOL0     C 7755   3.745   3.822  11.134 -0.6809 -1.3958  0.1310
   58MOL0     C 7756   3.629   3.757  11.057  0.3920  0.6350  0.0473
   58MOL0     C 7757   3.504   3.705  11.138  0.4295 -0.1399 -0.1647
   58MOL0     C 7758   3.497   3.555  11.119 -0.0964  0.9293  0.2765
   58MOL0     C 7759   3.488   3.436  11.136  0.3879  0.5765 -0.3065
   58MOL0     C 7760   3.983   4.120  11.362 -0.3297  0.2675  0.4989
   58MOL0     C 7761   4.091   4.212  11.351  1.3113  0.2112  0.6547
   58MOL0     C 7762   4.156   4.258  11.476  0.1756  0.3099  0.2949
   58MOL0     H 7763   4.296   4.662  11.097 -2.7671  1.5917 -2.9724
   58MOL0     H 7764   4.515   4.757  11.038  0.7524  0.8618 -3.1938
   58MOL0     H 7765   4.660   4.845  10.835  0.2437  0.9324 -0.0389
   58MOL0     H 7766   4.744   4.795  10.978  2.3990 -0.1855  0.0250
   58MOL0     H 7767   4.944   4.728  10.842  0.1673  1.3295 -0.8496
   58MOL0     H 7768   4.895   4.894  10.864 -0.4086 -0.1078  0.4849
   58MOL0     H 7769   4.967   4.877  10.650  0.2062  0.0784  2.7456
   58MOL0     H 7770   4.784   4.883  10.641 -0.1468 -0.1235 -0.7537
   58MOL0     H 7771   4.942   4.622  10.633 -1.1988  0.1815 -0.1277
   58MOL0     H 7772   4.779   4.649  10.576  1.4419 -5.2838  1.2102
   58MOL0     H 7773   4.920   4.641  10.378  0.0095  0.0145  1.0911
   58MOL0     H 7774   4.871   4.814  10.418 -0.9453 -1.4025  0.9354
   58MOL0     H 7775   5.109   4.840  10.508  1.0574 -1.0250  0.2070
   58MOL0     H 7776   5.125   4.670  10.507  0.8428  0.6552  0.2833
   58MOL0     H 7777   5.139   4.670  10.257 -1.6675 -1.4313  1.1216
   58MOL0     H 7778   5.262   4.769  10.333 -0.0363  0.4468 -0.7755
   58MOL0     H 7779   5.143   4.880  10.128 -3.2319 -2.4316 -1.9617
   58MOL0     H 7780   5.000   4.886  10.217  0.0287  1.8114 -2.0617
   58MOL0     H 7781   4.989   5.036  10.469 -1.6227  1.4677 -2.3296
   58MOL0     H 7782   5.221   5.332  10.560  0.2926 -0.0605  1.5975
   58MOL0     H 7783   5.059   5.284  10.590 -0.6928  0.5137 -3.3088
   58MOL0     H 7784   5.133   5.076  10.708 -1.9785  2.2598  0.2949
   58MOL0     H 7785   5.308   5.119  10.695  0.8947  0.5001  1.8963
   58MOL0     H 7786   5.290   5.293  10.854 -2.0577  4.3011 -0.5769
   58MOL0     H 7787   5.175   5.168  10.911  0.6426 -0.3126  0.3381
   58MOL0     H 7788   4.983   5.282  10.835  0.3812  0.3477  0.3192
   58MOL0     H 7789   5.085   5.410  10.758  1.0321 -0.8597 -0.2532
   58MOL0     H 7790   4.959   5.404  11.209 -2.2147 -4.3814 -2.2677
   58MOL0     H 7791   4.791   5.572  11.284 -1.2086 -0.1427 -1.3231
   58MOL0     H 7792   4.437   5.559  11.406  3.1070  0.2677  0.6066
   58MOL0     H 7793   4.231   5.640  11.519  0.4235  0.9122  0.7759
   58MOL0     H 7794   4.170   6.086  11.544 -1.7637  1.2489  1.3158
   58MOL0     H 7795   4.077   6.031  11.404  0.1517  0.7355 -0.4909
   58MOL0     H 7796   3.939   6.132  11.577  2.1055  1.4917  1.1986
   58MOL0     H 7797   3.885   5.964  11.553  1.6072 -1.4253 -1.2868
   58MOL0     H 7798   3.903   5.984  11.798 -0.6779 -0.6533 -1.8881
   58MOL0     H 7799   4.053   5.899  11.752  0.1776 -0.7046 -3.0514
   58MOL0     H 7800   4.032   6.105  11.922 -1.0908  0.1555 -0.8990
   58MOL0     H 7801   4.057   6.208  11.781  4.4023  1.4721 -2.3741
   58MOL0     H 7802   4.259   6.218  11.800  0.8553  0.5090 -0.1158
   58MOL0     H 7803   4.277   6.039  11.758  0.5398  0.2684  0.5447
   58MOL0     H 7804   4.216   6.114  12.035 -0.5429  1.2633 -1.9913
   58MOL0     H 7805   4.241   5.958  11.968  1.7357 -0.8937 -0.0985
   58MOL0     H 7806   4.444   6.178  11.931 -0.5201 -1.5410 -2.0204
   58MOL0     H 7807   4.482   6.006  11.936  0.0657  0.9957 -1.4730
   58MOL0     H 7808   4.557   6.109  12.158  0.1616  2.8743 -1.3562
   58MOL0     H 7809   4.381   6.151  12.184 -0.0838  0.5404 -0.6502
   58MOL0     H 7810   4.301   6.028  11.349 -2.4143 -2.0053 -1.6679
   58MOL0     H 7811   4.513   5.960  11.255  1.6097 -2.2526 -0.5507
   58MOL0     H 7812   4.674   5.617  10.863 -0.9326 -1.4750 -0.1966
   58MOL0     H 7813   4.878   5.512  10.798 -0.3652 -0.5705 -0.0363
   58MOL0     H 7814   4.603   4.412  10.781 -0.2129 -1.7087  1.3395
   58MOL0     H 7815   4.413   4.296  10.905 -2.4031  1.5612  1.5415
   58MOL0     H 7816   4.064   4.236  11.015  1.0496  0.5426  0.5015
   58MOL0     H 7817   3.893   4.062  11.056 -0.7087  2.6005 -1.6545
   58MOL0     H 7818   3.691   4.028  11.126  1.5598 -0.0405 -1.7385
   58MOL0     H 7819   3.613   3.931  11.251  0.0997  1.0667  0.5119
   58MOL0     H 7820   3.772   3.750  11.211 -1.2099 -2.3992 -0.6089
   58MOL0     H 7821   3.836   3.831  11.075  0.6856 -3.9227  1.6808
   58MOL0     H 7822   3.678   3.672  11.008  0.0369  0.4765 -0.0304
   58MOL0     H 7823   3.590   3.827  10.982 -5.8679  0.3448  2.4312
   58MOL0     H 7824   3.511   3.733  11.243 -1.3130  1.0076 -0.3014
   58MOL0     H 7825   3.415   3.753  11.097  1.5990  1.7866 -0.5696
   58MOL0     H 7826   3.457   3.334  11.149 -0.0825  0.6345 -0.9343
   58MOL0     H 7827   3.946   4.086  11.458 -1.3334 -0.7450 -0.2331
   58MOL0     H 7828   4.071   4.272  11.544 -0.9656  3.7923 -1.5997
   58MOL0     H 7829   4.232   4.193  11.519 -1.7909 -2.6563 -0.4370
   58MOL0     H 7830   4.214   4.350  11.465  1.7393 -0.8053 -1.2652
   59MOL0     O 7831   0.995   9.848   6.651 -0.1011 -0.5908  0.1208
   59MOL0     C 7832   1.043   9.740   6.664  1.4301  0.4230  0.2732
   59MOL0     O 7833   1.175   9.721   6.645  0.7477 -0.1500  0.2221
   59MOL0     C 7834   1.234   9.805   6.548  0.0802  0.1009  0.3971
   59MOL0     C 7835   1.213   9.805   6.412  0.6629  0.4027  0.1192
   59MOL0     C 7836   1.291   9.875   6.320  0.0076 -0.2476  0.4194
   59MOL0     C 7837   1.396   9.958   6.376 -0.0454  1.0388 -0.3945
   59MOL0     O 7838   1.484  10.021   6.288 -0.1627 -1.1197  0.3280
   59MOL0     C 7839   1.617  10.074   6.318 -0.4254  1.3151  0.1120
   59MOL0     C 7840   1.599  10.211   6.394 -1.5622  0.3714  0.2998
   59MOL0     C 7841   1.666  10.321   6.301  0.2755  0.9206  1.0135
   59MOL0     C 7842   1.670  10.460   6.368  1.0559  1.3488  0.0474
   59MOL0     C 7843   1.744  10.552   6.270  0.0193  0.2078 -0.3677
   59MOL0     C 7844   1.899  10.546   6.277  0.5726 -0.2378  0.3986
   59MOL0     C 7845   1.944  10.683   6.312 -0.6590 -0.4022 -0.1809
   59MOL0     C 7846   2.086  10.711   6.260  0.3716 -0.7043 -0.4077
   59MOL0     N 7847   2.187  10.675   6.365  0.7369  0.6133 -0.1796
   59MOL0     C 7848   2.227  10.745   6.480 -0.8199  0.0992 -1.5294
   59MOL0     C 7849   2.313  10.662   6.544 -0.2149 -1.0845 -0.2422
   59MOL0     C 7850   2.384  10.693   6.670 -0.0745 -0.2711 -0.2499
   59MOL0     C 7851   2.300  10.690   6.799  0.5691  0.0945  0.4488
   59MOL0     C 7852   2.288  10.550   6.846  0.3924  0.3922 -0.3865
   59MOL0     C 7853   2.185  10.550   6.963  0.4105 -0.4473 -0.0415
   59MOL0     O 7854   2.137  10.420   7.009  0.4949 -0.1231 -0.0536
   59MOL0     C 7855   2.008  10.409   7.067 -0.5719 -0.1274 -1.4429
   59MOL0     C 7856   1.918  10.515   7.088 -0.3662  0.4869  0.5844
   59MOL0     C 7857   1.799  10.492   7.157  0.6405 -0.2360  0.0719
   59MOL0     C 7858   1.755  10.367   7.196  0.4581  0.5806 -0.2949
   59MOL0     C 7859   1.632  10.355   7.283  0.2324  0.0232 -0.3289
   59MOL0     O 7860   1.583  10.223   7.290 -0.2608  0.4448 -0.0225
   59MOL0     C 7861   1.488  10.212   7.386 -0.2633 -0.1514 -0.2069
   59MOL0     C 7862   1.514  10.236   7.523  0.0274 -0.0276 -0.0518
   59MOL0     C 7863   1.414  10.205   7.618  0.3199 -0.1450 -0.5678
   59MOL0     C 7864   1.294  10.145   7.575  1.7325 -0.6162  0.4298
   59MOL0     O 7865   1.194  10.104   7.665 -0.3947 -0.3895 -0.5962
   59MOL0     C 7866   1.108   9.988   7.644  0.2336 -0.9755 -0.6616
   59MOL0     C 7867   1.089   9.905   7.776  0.1730  0.0125  0.2312
   59MOL0     C 7868   1.014   9.781   7.746 -0.1179 -0.3204 -0.4172
   59MOL0     C 7869   1.062   9.659   7.828 -0.3023  0.1974  0.3272
   59MOL0     C 7870   1.053   9.671   7.972  0.6550 -0.1276 -0.2276
   59MOL0     C 7871   1.031   9.537   8.042 -0.0745 -0.3000 -0.6484
   59MOL0     C 7872   0.988   9.555   8.184  0.0505 -0.3999  0.2728
   59MOL0     C 7873   0.844   9.596   8.199  0.1866  0.0429  0.0951
   59MOL0    Cl 7874   0.814   9.598   8.374  0.1638  0.2851 -0.0900
   59MOL0     C 7875   1.266  10.141   7.440  0.1424  0.1996 -0.4720
   59MOL0     C 7876   1.362  10.170   7.341 -0.4248  0.1860  0.5061
   59MOL0     O 7877   1.577  10.457   7.325 -0.3024  0.2812  0.1838
   59MOL0     C 7878   1.840  10.261   7.170  1.0960  0.0067 -0.5591
   59MOL0     C 7879   1.960  10.275   7.107  0.5471 -0.8160 -0.0316
   59MOL0     N 7880   2.328  10.547   6.468 -0.4601 -0.4085 -0.3504
   59MOL0     N 7881   2.247  10.554   6.370  0.1940  0.0965  0.4159
   59MOL0     C 7882   1.418   9.965   6.517  0.1587 -0.2806 -0.0747
   59MOL0     C 7883   1.330   9.896   6.598  0.0009 -0.6486 -0.7205
   59MOL0     C 7884   0.961   9.636   6.750 -0.7005  0.8883  0.8987
   59MOL0     C 7885   1.036   9.525   6.797  0.6061  0.3956  0.4451
   59MOL0     C 7886   0.978   9.434   6.886  0.4118  0.4907  1.0294
   59MOL0     C 7887   0.847   9.445   6.926 -0.5602  0.1454 -0.3447
   59MOL0     O 7888   0.796   9.366   7.032  0.0260 -0.3519 -0.5140
   59MOL0     C 7889   0.654   9.383   7.066 -0.7079 -0.4529  0.9909
   59MOL0     C 7890   0.619   9.321   7.201  0.1410 -0.3050 -0.2371
   59MOL0     C 7891   0.707   9.367   7.313 -0.0511 -0.2782  0.4840
   59MOL0     C 7892   0.647   9.339   7.453  0.1934  0.5554 -0.3769
   59MOL0     C 7893   0.745   9.376   7.552 -1.4362 -0.2672 -0.6246
   59MOL0     C 7894   0.826   9.404   7.643  1.1261  0.5245 -0.3822
   59MOL0     C 7895   0.771   9.554   6.879  0.1202  0.8759 -0.6135
   59MOL0     C 7896   0.828   9.657   6.795  0.2371 -0.3094 -0.5201
   59MOL0     C 7897   0.736   9.762   6.748 -0.5132 -0.6262  0.2083
   59MOL0     H 7898   1.135   9.740   6.373  0.2715  2.1269 -2.1942
   59MOL0     H 7899   1.286   9.870   6.211  1.2123  0.1870  0.3282
   59MOL0     H 7900   1.682  10.005   6.374 -0.8298  0.4664 -0.4386
   59MOL0     H 7901   1.671  10.091   6.225  0.8690 -0.1962  0.5420
   59MOL0     H 7902   1.665  10.197   6.480  1.9175 -3.2526 -2.5392
   59MOL0     H 7903   1.502  10.246   6.429 -1.9361 -2.3227  2.2580
   59MOL0     H 7904   1.609  10.337   6.209  4.9427  0.7464 -2.2371
   59MOL0     H 7905   1.767  10.298   6.268  0.8735  1.1689  2.5475
   59MOL0     H 7906   1.572  10.494   6.403  1.2241  0.8891  0.9970
   59MOL0     H 7907   1.736  10.449   6.455 -0.2407 -1.1522  0.8123
   59MOL0     H 7908   1.714  10.530   6.167 -2.0678  1.5385 -0.1067
   59MOL0     H 7909   1.708  10.653   6.292  0.4986  0.0735  1.1172
   59MOL0     H 7910   1.943  10.481   6.354 -1.7806 -3.7164 -0.9241
   59MOL0     H 7911   1.933  10.511   6.179  0.5190 -1.0241  0.6510
   59MOL0     H 7912   1.943  10.706   6.419 -1.0079 -1.0783 -0.0359
   59MOL0     H 7913   1.874  10.754   6.266 -0.7869 -1.2326 -1.3244
   59MOL0     H 7914   2.095  10.650   6.169  1.5316 -0.1364 -0.6953
   59MOL0     H 7915   2.097  10.818   6.244  1.9825 -0.8726 -0.6098
   59MOL0     H 7916   2.185  10.839   6.513 -0.0403 -0.4176  1.1206
   59MOL0     H 7917   2.468  10.624   6.670 -0.6893 -1.3031  3.8720
   59MOL0     H 7918   2.420  10.795   6.657  0.3308 -0.1283  1.6389
   59MOL0     H 7919   2.341  10.753   6.879  0.7863  2.2453 -1.2431
   59MOL0     H 7920   2.199  10.721   6.772 -0.3399 -1.3490  1.9783
   59MOL0     H 7921   2.383  10.507   6.880 -0.1158  1.3496  2.5442
   59MOL0     H 7922   2.251  10.482   6.769  3.8920 -1.2216 -0.8288
   59MOL0     H 7923   2.100  10.608   6.927  0.2981 -0.1667  0.6605
   59MOL0     H 7924   2.226  10.601   7.051  0.3307 -3.8963  2.1953
   59MOL0     H 7925   1.942  10.616   7.057 -0.7939  0.4365  0.0643
   59MOL0     H 7926   1.739  10.581   7.175  1.6051 -0.1577  3.5789
   59MOL0     H 7927   1.613  10.273   7.551 -0.1292 -0.3532  0.9633
   59MOL0     H 7928   1.415  10.219   7.726  1.3259  0.3047 -0.6207
   59MOL0     H 7929   1.014  10.032   7.611 -0.7345 -1.1702  1.6382
   59MOL0     H 7930   1.144   9.915   7.571  1.4194 -2.8866  1.6955
   59MOL0     H 7931   1.185   9.880   7.823 -0.0996 -0.0276  0.7660
   59MOL0     H 7932   1.024   9.954   7.849 -0.3050  1.3303 -1.0384
   59MOL0     H 7933   0.906   9.784   7.764 -0.3502 -1.0837 -1.5831
   59MOL0     H 7934   1.022   9.759   7.639  0.8994 -1.7877 -0.0812
   59MOL0     H 7935   1.166   9.643   7.798 -0.7485  1.9906 -2.6346
   59MOL0     H 7936   1.002   9.573   7.796 -0.0845  0.0412  0.3324
   59MOL0     H 7937   0.974   9.743   7.993 -0.5153 -1.7621  1.1983
   59MOL0     H 7938   1.144   9.720   8.009  0.2216  1.3899 -1.1000
   59MOL0     H 7939   0.952   9.480   7.992 -0.9976  1.0873 -0.7996
   59MOL0     H 7940   1.129   9.488   8.029  0.5651  1.6023 -4.5301
   59MOL0     H 7941   1.046   9.633   8.234 -1.1076 -1.3648  3.2761
   59MOL0     H 7942   0.995   9.456   8.228  0.2687 -0.4797  0.0646
   59MOL0     H 7943   0.826   9.697   8.162 -4.7611 -1.3763 -2.2675
   59MOL0     H 7944   0.773   9.527   8.153 -0.3470  2.0291 -2.2236
   59MOL0     H 7945   1.176  10.092   7.405 -1.7743  2.2865  1.2223
   59MOL0     H 7946   1.332  10.155   7.238  0.7543 -2.1004  0.4425
   59MOL0     H 7947   1.807  10.159   7.186  0.1661  0.2305 -0.9738
   59MOL0     H 7948   2.032  10.199   7.078  0.5045 -0.8101 -0.1532
   59MOL0     H 7949   1.490  10.027   6.570  1.1062 -1.1724 -0.2775
   59MOL0     H 7950   1.360   9.884   6.702  2.0394  0.7929 -1.0963
   59MOL0     H 7951   1.131   9.521   6.746  0.3722  3.6045 -0.4573
   59MOL0     H 7952   1.047   9.364   6.931 -0.4928 -0.6821  0.6512
   59MOL0     H 7953   0.590   9.337   6.990  0.3170 -2.9386  1.5367
   59MOL0     H 7954   0.620   9.486   7.076  0.2284  0.0466 -0.6078
   59MOL0     H 7955   0.633   9.215   7.180  1.1876 -0.3808  0.7446
   59MOL0     H 7956   0.516   9.342   7.231  0.6126  2.5753 -0.3888
   59MOL0     H 7957   0.710   9.476   7.317 -0.5589 -0.2952  1.5338
   59MOL0     H 7958   0.812   9.339   7.298 -0.1034  0.2204 -0.9895
   59MOL0     H 7959   0.546   9.381   7.462 -1.3203 -2.9017  0.2722
   59MOL0     H 7960   0.644   9.231   7.465  0.2918  0.4683 -1.0960
   59MOL0     H 7961   0.887   9.427   7.728  0.2052  4.1630 -0.5407
   59MOL0     H 7962   0.667   9.573   6.903  1.1728  3.6698  2.4661
   59MOL0     H 7963   0.768   9.772   6.643 -0.1609 -0.7258  0.3032
   59MOL0     H 7964   0.633   9.727   6.749 -1.5371  1.9557 -1.7232
   59MOL0     H 7965   0.745   9.854   6.806 -2.4571  0.4491 -1.0863
   60MOL0     O 7966   0.161   3.537   8.490  0.4318 -0.1670 -0.8266
   60MOL0     C 7967   0.082   3.600   8.556 -0.1929 -0.4019  0.7727
   60MOL0     O 7968   0.117   3.664   8.675 -0.9074  0.2406 -0.5559
   60MOL0     C 7969   0.240   3.636   8.736  0.4558  0.7678  0.3478
   60MOL0     C 7970   0.357   3.712   8.713  0.4285  0.2235 -0.0851
   60MOL0     C 7971   0.482   3.673   8.753  0.3958 -0.6503 -0.8792
   60MOL0     C 7972   0.494   3.552   8.814  0.9302 -0.1233  0.5646
   60MOL0     O 7973   0.627   3.514   8.850  0.5734  0.2894  0.1191
   60MOL0     C 7974   0.717   3.595   8.914 -0.0703 -0.4192  0.3236
   60MOL0     C 7975   0.838   3.511   8.949 -0.0034  0.1615 -0.2607
   60MOL0     C 7976   0.932   3.479   8.837  0.9059 -1.1388 -1.4443
   60MOL0     C 7977   1.069   3.430   8.897  0.5875  0.0605 -0.4055
   60MOL0     C 7978   1.163   3.376   8.783 -0.1905  0.0355  0.1742
   60MOL0     C 7979   1.305   3.424   8.808 -0.3250 -0.6288 -0.6195
   60MOL0     C 7980   1.334   3.564   8.752 -0.4120 -0.1137  0.3635
   60MOL0     C 7981   1.278   3.685   8.828  0.3446  0.0693 -0.2838
   60MOL0     N 7982   1.297   3.803   8.739 -0.0872 -0.1867 -0.2709
   60MOL0     C 7983   1.396   3.891   8.742 -0.3721 -0.7416 -0.0963
   60MOL0     C 7984   1.361   3.987   8.649 -0.0967 -0.0597  0.0814
   60MOL0     C 7985   1.433   4.121   8.616 -0.5600  0.7241  0.8674
   60MOL0     C 7986   1.576   4.093   8.563 -0.4389 -0.2974 -0.5429
   60MOL0     C 7987   1.682   4.073   8.675 -0.0360  0.1349 -0.3046
   60MOL0     C 7988   1.827   4.097   8.635 -0.1188 -0.7321 -0.5718
   60MOL0     O 7989   1.874   4.024   8.518 -0.8138  0.4224 -0.4284
   60MOL0     C 7990   2.004   4.052   8.480  0.6485  0.0661  0.8562
   60MOL0     C 7991   2.048   3.958   8.384  0.8754  0.6771 -0.3400
   60MOL0     C 7992   2.169   3.974   8.318 -0.4228 -0.0445 -0.7224
   60MOL0     C 7993   2.253   4.077   8.353 -0.2441 -0.6120 -0.3696
   60MOL0     C 7994   2.377   4.101   8.272  0.0890 -0.2826  0.1816
   60MOL0     O 7995   2.408   4.018   8.174  0.6287  0.0906 -0.1324
   60MOL0     C 7996   2.501   4.041   8.079 -0.5257 -0.5839 -0.5833
   60MOL0     C 7997   2.512   4.158   8.005  0.0073  0.8841 -0.6968
   60MOL0     C 7998   2.614   4.171   7.908 -1.1487  0.3586  0.3638
   60MOL0     C 7999   2.707   4.074   7.888  0.8613  0.3990  1.1764
   60MOL0     O 8000   2.816   4.084   7.802 -0.0270 -0.4550 -0.0370
   60MOL0     C 8001   2.839   4.203   7.725  0.0801 -0.0386 -0.3072
   60MOL0     C 8002   2.917   4.310   7.799  0.0980  0.2789  0.4088
   60MOL0     C 8003   3.041   4.252   7.884  0.3978 -0.7150 -0.5258
   60MOL0     C 8004   3.170   4.268   7.805  1.0618 -0.1153 -0.3752
   60MOL0     C 8005   3.299   4.250   7.889  0.0139 -1.0708  0.6010
   60MOL0     C 8006   3.431   4.237   7.805 -0.2819 -0.9095  0.5699
   60MOL0     C 8007   3.466   4.373   7.729 -0.0854  0.2107 -0.9559
   60MOL0     C 8008   3.600   4.371   7.648 -0.7879  0.6864  0.0772
   60MOL0    Cl 8009   3.747   4.319   7.736 -0.4234  0.0369  0.4701
   60MOL0     C 8010   2.700   3.960   7.961  0.5106  1.3886  0.1869
   60MOL0     C 8011   2.604   3.942   8.058 -0.5879  0.7528  0.3929
   60MOL0     O 8012   2.437   4.203   8.294 -0.4667 -0.2165 -0.8395
   60MOL0     C 8013   2.210   4.170   8.453 -0.2117 -0.4653  0.0822
   60MOL0     C 8014   2.087   4.156   8.523 -0.1885 -0.4084 -0.2944
   60MOL0     N 8015   1.235   3.957   8.595  0.5190  0.3109 -0.1370
   60MOL0     N 8016   1.203   3.842   8.643  0.4474  0.0905  0.2899
   60MOL0     C 8017   0.387   3.478   8.847  0.5145  0.8676  0.4436
   60MOL0     C 8018   0.254   3.517   8.808 -0.1961 -0.1311  0.1467
   60MOL0     C 8019  -0.062   3.612   8.513  0.2096  0.5366 -0.8767
   60MOL0     C 8020  -0.141   3.715   8.566  1.0576 -0.1706  0.6941
   60MOL0     C 8021  -0.280   3.728   8.531 -0.6521 -0.5204  0.2490
   60MOL0     C 8022  -0.338   3.636   8.449 -0.0989  0.6101 -0.1397
   60MOL0     O 8023  -0.473   3.643   8.403 -0.3507  0.0926 -0.0300
   60MOL0     C 8024  -0.572   3.742   8.439 -0.8307 -0.7562  0.4300
   60MOL0     C 8025  -0.540   3.888   8.383  0.3258  0.8295  0.6998
   60MOL0     C 8026  -0.654   3.979   8.394  0.2269 -0.5888  0.1921
   60MOL0     C 8027  -0.729   3.977   8.523 -0.5409  0.2907 -0.0253
   60MOL0     C 8028  -0.637   4.020   8.635  0.4600  0.3249  0.0552
   60MOL0     C 8029  -0.570   4.065   8.728 -0.8327 -0.2161  0.7067
   60MOL0     C 8030  -0.265   3.534   8.397 -0.4678  0.4926  0.0372
   60MOL0     C 8031  -0.128   3.520   8.422  0.4558  0.5078 -0.3888
   60MOL0     C 8032  -0.055   3.395   8.371 -0.0504 -0.5849 -0.1492
   60MOL0     H 8033   0.344   3.796   8.646 -0.7475 -1.3079 -1.8752
   60MOL0     H 8034   0.561   3.742   8.726 -1.2333  1.6580 -0.0979
   60MOL0     H 8035   0.737   3.671   8.837 -1.1316 -3.4170 -3.1905
   60MOL0     H 8036   0.683   3.638   9.009  0.3922 -0.2463  0.4124
   60MOL0     H 8037   0.798   3.422   8.997 -1.9813  1.6632  1.0247
   60MOL0     H 8038   0.894   3.564   9.027  0.7435  2.1829 -2.0793
   60MOL0     H 8039   0.947   3.560   8.764 -3.3373 -0.9671 -2.3493
   60MOL0     H 8040   0.899   3.393   8.778  0.4257 -1.7100 -0.3609
   60MOL0     H 8041   1.118   3.514   8.947  4.0176 -2.8659  1.6560
   60MOL0     H 8042   1.059   3.355   8.975  0.4898 -0.0402 -0.5150
   60MOL0     H 8043   1.161   3.268   8.794  3.1798 -0.5189 -2.7884
   60MOL0     H 8044   1.129   3.410   8.684  1.2048  0.1593 -0.2888
   60MOL0     H 8045   1.343   3.410   8.909  2.2373 -0.4383 -1.4871
   60MOL0     H 8046   1.366   3.353   8.751  1.3799  1.7104 -1.9030
   60MOL0     H 8047   1.301   3.580   8.649 -0.3713  2.4954  0.6772
   60MOL0     H 8048   1.444   3.569   8.749 -0.3502 -0.8597  0.9463
   60MOL0     H 8049   1.171   3.676   8.848  0.5719 -0.7974  0.6014
   60MOL0     H 8050   1.319   3.706   8.927  0.6118 -1.3839 -0.0716
   60MOL0     H 8051   1.478   3.906   8.812 -0.3756  0.9382 -0.4267
   60MOL0     H 8052   1.374   4.165   8.536 -0.7019 -1.3969 -0.2869
   60MOL0     H 8053   1.434   4.187   8.703 -0.8159  0.0002  1.4326
   60MOL0     H 8054   1.577   4.010   8.491 -0.6035  0.0114 -0.8989
   60MOL0     H 8055   1.604   4.175   8.497 -0.4929 -0.0615 -0.2700
   60MOL0     H 8056   1.671   3.969   8.705  1.0766  0.1545  0.2258
   60MOL0     H 8057   1.657   4.137   8.760  2.6917 -2.9757  3.1922
   60MOL0     H 8058   1.894   4.074   8.718 -3.5604 -2.7434  1.9003
   60MOL0     H 8059   1.852   4.199   8.604  0.4034 -1.0777 -1.3309
   60MOL0     H 8060   1.982   3.875   8.361 -0.2005  0.5430  2.7617
   60MOL0     H 8061   2.178   3.906   8.233 -0.9558  0.3250 -1.0828
   60MOL0     H 8062   2.440   4.239   8.008 -0.7165  0.3027 -1.6809
   60MOL0     H 8063   2.611   4.262   7.848 -4.3961  0.1337  0.0159
   60MOL0     H 8064   2.913   4.191   7.645  1.2940  0.4707  0.7050
   60MOL0     H 8065   2.748   4.238   7.676  0.3675  2.0018  0.4912
   60MOL0     H 8066   2.944   4.395   7.735 -0.0344  1.5265  1.9287
   60MOL0     H 8067   2.844   4.349   7.871  0.3425 -1.4943  1.6687
   60MOL0     H 8068   3.050   4.301   7.981  1.5808  0.7871 -1.3496
   60MOL0     H 8069   3.020   4.146   7.896 -0.1210 -0.7734 -1.7883
   60MOL0     H 8070   3.174   4.369   7.763 -1.2000  1.7582  3.4085
   60MOL0     H 8071   3.169   4.194   7.724 -1.3251  0.5414 -1.0100
   60MOL0     H 8072   3.292   4.155   7.942  0.5665 -1.1059  0.6114
   60MOL0     H 8073   3.311   4.332   7.961  1.8981 -1.1971  0.4627
   60MOL0     H 8074   3.516   4.214   7.869 -0.6776  0.6874  1.7387
   60MOL0     H 8075   3.420   4.152   7.738  1.4337  0.0294 -0.9895
   60MOL0     H 8076   3.480   4.457   7.797 -0.2614  0.5792 -1.3651
   60MOL0     H 8077   3.384   4.396   7.660 -0.1172  0.4104 -0.8532
   60MOL0     H 8078   3.589   4.290   7.576 -0.5933 -0.1623  0.9711
   60MOL0     H 8079   3.613   4.462   7.590 -0.2926 -0.1951 -1.2184
   60MOL0     H 8080   2.766   3.877   7.938 -2.1728 -0.6010 -0.8689
   60MOL0     H 8081   2.612   3.851   8.116  1.6777 -2.1879 -3.9424
   60MOL0     H 8082   2.256   4.266   8.476 -3.6117  1.0646  1.2309
   60MOL0     H 8083   2.066   4.220   8.607  1.1463 -0.4370  0.0827
   60MOL0     H 8084   0.404   3.380   8.892 -0.9620  0.0396 -0.7039
   60MOL0     H 8085   0.173   3.446   8.819  0.6339 -1.0131  0.8532
   60MOL0     H 8086  -0.102   3.786   8.639  1.7024  1.5154 -1.2067
   60MOL0     H 8087  -0.339   3.807   8.577 -1.8114 -0.8800 -0.5580
   60MOL0     H 8088  -0.579   3.747   8.548  1.8160 -0.5562  0.6589
   60MOL0     H 8089  -0.666   3.712   8.392 -0.5377 -2.5579  0.9251
   60MOL0     H 8090  -0.508   3.885   8.278 -0.9593 -5.0563  0.1250
   60MOL0     H 8091  -0.453   3.929   8.436  1.9295 -1.0921 -0.3019
   60MOL0     H 8092  -0.733   3.957   8.322  0.8526 -0.3122 -0.5889
   60MOL0     H 8093  -0.608   4.076   8.373  0.3934 -0.0638  2.6491
   60MOL0     H 8094  -0.803   4.057   8.513  0.2733  0.8096 -2.5258
   60MOL0     H 8095  -0.783   3.884   8.546 -0.8835  0.5487  0.2311
   60MOL0     H 8096  -0.513   4.102   8.812  0.2559 -1.0505  0.3682
   60MOL0     H 8097  -0.312   3.456   8.339 -1.4064  1.0942 -0.0342
   60MOL0     H 8098   0.037   3.410   8.314 -1.8023  2.6058 -2.4845
   60MOL0     H 8099  -0.046   3.334   8.461 -0.5504 -0.9694 -0.3596
   60MOL0     H 8100  -0.113   3.332   8.304 -0.6354  0.4342 -0.6099
   61MOL0     O 8101   9.807   8.130   4.317 -0.7640 -0.3814  0.3821
   61MOL0     C 8102   9.760   8.100   4.205 -0.3646  0.5590  0.1840
   61MOL0     O 8103   9.828   8.104   4.077  0.0877  0.0861  0.0237
   61MOL0     C 8104   9.954   8.054   4.051 -0.0678 -0.5646 -0.2862
   61MOL0     C 8105  10.029   7.989   4.140  0.6553  1.1782  0.3054
   61MOL0     C 8106  10.153   7.936   4.098 -0.7020 -0.0236  0.0579
   61MOL0     C 8107  10.207   7.959   3.969  0.3536 -0.0147  0.3767
   61MOL0     O 8108  10.327   7.921   3.911  0.6819  0.1040  0.0343
   61MOL0     C 8109  10.433   7.865   3.990  0.6816 -0.3886 -0.3178
   61MOL0     C 8110  10.510   7.968   4.064 -0.8700  0.4752 -0.2631
   61MOL0     C 8111  10.559   8.081   3.969 -0.8409  0.1876 -0.2053
   61MOL0     C 8112  10.597   8.210   4.056 -0.0065  0.8812 -0.1503
   61MOL0     C 8113  10.698   8.186   4.171 -0.0092  0.6047  0.7078
   61MOL0     C 8114  10.731   8.301   4.262 -0.0734 -0.9026  0.0594
   61MOL0     C 8115  10.855   8.270   4.341 -0.2673 -0.6091  0.4923
   61MOL0     C 8116  10.862   8.342   4.480  0.6590 -0.0145 -0.2833
   61MOL0     N 8117  10.978   8.322   4.567 -0.3829  0.2285  0.0198
   61MOL0     C 8118  11.106   8.298   4.531  0.6661  0.5678  0.7909
   61MOL0     C 8119  11.174   8.261   4.643  0.3134 -0.0345 -0.4715
   61MOL0     C 8120  11.321   8.225   4.658 -0.3988 -0.0205  0.3337
   61MOL0     C 8121  11.386   8.342   4.729  0.4710 -0.0177 -0.8346
   61MOL0     C 8122  11.521   8.288   4.777 -1.2296  0.1578  0.7027
   61MOL0     C 8123  11.611   8.390   4.848 -0.6300  0.3602  0.6549
   61MOL0     O 8124  11.556   8.401   4.980 -0.0427  0.1495 -0.1025
   61MOL0     C 8125  11.628   8.478   5.064 -1.7228 -0.0316 -0.1282
   61MOL0     C 8126  11.589   8.491   5.196  0.2451 -0.5068 -0.4652
   61MOL0     C 8127  11.657   8.568   5.287  0.0048 -0.3932  0.8281
   61MOL0     C 8128  11.770   8.640   5.249  0.9949  0.4811 -0.8215
   61MOL0     C 8129  11.834   8.739   5.343  0.3610 -0.1157  0.4881
   61MOL0     O 8130  11.817   8.710   5.478  0.3218 -0.6250 -0.3997
   61MOL0     C 8131  11.861   8.802   5.572 -0.1987  0.3205  0.2785
   61MOL0     C 8132  11.960   8.764   5.666 -1.0138 -0.5571  0.4147
   61MOL0     C 8133  12.012   8.852   5.760 -0.3533  0.3722  0.8232
   61MOL0     C 8134  11.959   8.987   5.766  0.5713 -0.3104  0.5970
   61MOL0     O 8135  11.989   9.071   5.863  0.0292 -0.8713 -0.0790
   61MOL0     C 8136  12.096   9.049   5.948 -0.9052 -0.1698 -0.1163
   61MOL0     C 8137  12.092   9.148   6.064  0.0622 -0.4955  0.2471
   61MOL0     C 8138  11.977   9.136   6.157 -0.2694  0.2244  0.0775
   61MOL0     C 8139  11.992   9.246   6.267 -0.2080  0.1384 -0.1070
   61MOL0     C 8140  11.869   9.252   6.361 -0.2966 -0.6599 -0.0012
   61MOL0     C 8141  11.827   9.390   6.409 -0.3361 -0.5599  1.2650
   61MOL0     C 8142  11.797   9.405   6.552 -0.0474 -0.1990 -0.4288
   61MOL0     C 8143  11.731   9.534   6.588  0.6910  0.6045  0.4441
   61MOL0    Cl 8144  11.821   9.680   6.544 -0.2132  0.2073  0.3238
   61MOL0     C 8145  11.853   9.013   5.675  0.1783 -0.6556 -0.4877
   61MOL0     C 8146  11.801   8.925   5.584 -0.0244  0.2873 -0.1850
   61MOL0     O 8147  11.888   8.837   5.295  0.3194  0.9589 -0.0001
   61MOL0     C 8148  11.820   8.614   5.122  0.0454 -0.5257  0.1499
   61MOL0     C 8149  11.756   8.534   5.032 -0.0538 -0.2952  1.0397
   61MOL0     N 8150  11.088   8.279   4.745  0.4927 -0.4550  1.2766
   61MOL0     N 8151  10.973   8.303   4.705 -1.2605 -0.5172  0.5322
   61MOL0     C 8152  10.125   8.028   3.885 -0.6401  0.6460  0.0490
   61MOL0     C 8153  10.001   8.070   3.920 -0.4810 -0.4239 -0.4232
   61MOL0     C 8154   9.614   8.080   4.198 -0.5378  0.1127 -0.5963
   61MOL0     C 8155   9.560   8.083   4.077  0.6833 -0.2777  0.8698
   61MOL0     C 8156   9.417   8.074   4.058 -0.4322  0.9834 -0.2404
   61MOL0     C 8157   9.335   8.070   4.173 -0.3566 -0.4631 -0.8298
   61MOL0     O 8158   9.205   8.058   4.147  0.3595  0.1380  0.5837
   61MOL0     C 8159   9.112   8.108   4.237  0.7235 -0.8623 -0.0675
   61MOL0     C 8160   8.969   8.106   4.183 -0.6116  0.0005  0.1133
   61MOL0     C 8161   8.942   8.213   4.075  0.9840 -0.2086  0.4996
   61MOL0     C 8162   8.981   8.357   4.111  0.3309 -0.3585 -0.0069
   61MOL0     C 8163   8.876   8.452   4.057 -1.0294 -0.2235  0.4642
   61MOL0     C 8164   8.790   8.521   4.022  0.6616  0.5321 -0.0295
   61MOL0     C 8165   9.392   8.069   4.303 -0.1033 -0.1553  0.3554
   61MOL0     C 8166   9.532   8.061   4.318  0.7201  0.6886  0.3556
   61MOL0     C 8167   9.588   8.038   4.458  0.1607  0.2429  0.2559
   61MOL0     H 8168  10.001   7.961   4.241  0.5070  1.8110  0.4439
   61MOL0     H 8169  10.219   7.908   4.180  1.5518  0.2505 -1.5529
   61MOL0     H 8170  10.385   7.794   4.057 -0.9677  0.4843 -0.5089
   61MOL0     H 8171  10.506   7.814   3.927  1.7975  0.8585 -0.0883
   61MOL0     H 8172  10.599   7.922   4.107  0.3775 -0.1708 -3.2748
   61MOL0     H 8173  10.442   8.034   4.119 -1.1320  2.3187 -2.6554
   61MOL0     H 8174  10.483   8.121   3.902  0.0116 -1.1761 -2.0642
   61MOL0     H 8175  10.641   8.047   3.905  1.9227  1.6020  2.3509
   61MOL0     H 8176  10.641   8.279   3.984  2.5670 -0.7776 -0.2964
   61MOL0     H 8177  10.503   8.246   4.098 -1.3604 -2.4525 -0.0173
   61MOL0     H 8178  10.668   8.103   4.236 -2.3227  1.3894  0.7369
   61MOL0     H 8179  10.790   8.158   4.119 -0.2160 -1.8724  1.5160
   61MOL0     H 8180  10.755   8.387   4.200  1.9875 -1.6953 -0.3144
   61MOL0     H 8181  10.642   8.317   4.324 -0.3501 -1.7297 -0.1164
   61MOL0     H 8182  10.946   8.292   4.284 -1.1120  0.8415 -0.3792
   61MOL0     H 8183  10.852   8.163   4.364 -0.9083 -0.7193 -0.0548
   61MOL0     H 8184  10.852   8.450   4.467  0.4587 -0.1112 -1.0236
   61MOL0     H 8185  10.773   8.304   4.531  1.0838 -1.5830 -0.6487
   61MOL0     H 8186  11.139   8.307   4.428 -2.0534 -0.3039 -0.2423
   61MOL0     H 8187  11.321   8.136   4.722  0.9324 -0.1235  0.2072
   61MOL0     H 8188  11.365   8.194   4.563 -3.7098 -2.2307 -0.6808
   61MOL0     H 8189  11.400   8.428   4.662  1.8018 -1.4632 -2.5053
   61MOL0     H 8190  11.329   8.376   4.816  1.6158 -3.0682  1.2848
   61MOL0     H 8191  11.588   8.255   4.697  2.6898  3.1892  2.3993
   61MOL0     H 8192  11.511   8.195   4.833 -0.8163  0.8779  2.0129
   61MOL0     H 8193  11.614   8.485   4.794 -3.1245 -0.2413 -0.7345
   61MOL0     H 8194  11.711   8.346   4.839  0.1899  2.3110 -0.1777
   61MOL0     H 8195  11.486   8.461   5.212 -0.6651 -0.5399 -4.9826
   61MOL0     H 8196  11.602   8.589   5.378 -0.8825  1.5247 -0.0859
   61MOL0     H 8197  11.992   8.660   5.667 -2.5535 -1.1526 -1.9161
   61MOL0     H 8198  12.091   8.814   5.824  0.7356 -0.2471 -0.8289
   61MOL0     H 8199  12.091   8.952   5.998  3.8681 -0.9859 -0.8283
   61MOL0     H 8200  12.196   9.061   5.906  0.5119  2.0848  3.5085
   61MOL0     H 8201  12.185   9.158   6.121 -0.3520 -0.5626  0.9469
   61MOL0     H 8202  12.069   9.244   6.017 -0.9230 -0.3456  0.9980
   61MOL0     H 8203  11.884   9.154   6.103 -1.5716 -0.6477  1.9222
   61MOL0     H 8204  11.979   9.033   6.193 -0.2660 -0.4012 -1.6577
   61MOL0     H 8205  12.003   9.341   6.215 -1.7761 -0.4626 -1.6307
   61MOL0     H 8206  12.083   9.221   6.322  0.6710 -0.3346 -1.7135
   61MOL0     H 8207  11.897   9.188   6.444  1.1628 -0.9699 -0.6988
   61MOL0     H 8208  11.785   9.205   6.310  0.6512 -2.6250  0.1546
   61MOL0     H 8209  11.896   9.463   6.366  0.7745 -2.1320  0.2638
   61MOL0     H 8210  11.733   9.404   6.356  0.1394  0.2688  0.6134
   61MOL0     H 8211  11.889   9.385   6.607  1.1646  0.4908 -2.1329
   61MOL0     H 8212  11.726   9.329   6.588  2.1297 -0.8963  2.7673
   61MOL0     H 8213  11.634   9.538   6.538 -0.6888 -0.3640  2.8699
   61MOL0     H 8214  11.720   9.547   6.696 -1.4570 -1.7298  0.5860
   61MOL0     H 8215  11.793   9.103   5.686  1.1721 -0.0301 -0.0243
   61MOL0     H 8216  11.714   8.952   5.523  0.2489 -2.2072 -1.7950
   61MOL0     H 8217  11.914   8.664   5.103 -0.1464  0.1059  0.8066
   61MOL0     H 8218  11.808   8.499   4.943 -0.8580 -0.5846  0.6627
   61MOL0     H 8219  10.171   8.062   3.793  1.7690  1.8265  1.5823
   61MOL0     H 8220   9.954   8.133   3.846 -1.5663 -1.3719 -0.5547
   61MOL0     H 8221   9.610   8.093   3.981 -0.1040 -1.2972  0.3531
   61MOL0     H 8222   9.379   8.064   3.957  1.2737 -3.4011 -0.6670
   61MOL0     H 8223   9.141   8.205   4.279  0.8805 -1.0526  0.2752
   61MOL0     H 8224   9.118   8.040   4.322 -0.3822 -1.3017 -0.3359
   61MOL0     H 8225   8.910   8.129   4.272  1.1433 -0.3020  1.4245
   61MOL0     H 8226   8.947   8.005   4.147  0.6378  0.5732 -2.5346
   61MOL0     H 8227   8.838   8.208   4.044  0.1149 -1.3145  3.3568
   61MOL0     H 8228   9.001   8.179   3.989  1.6061 -4.4722  2.3940
   61MOL0     H 8229   8.988   8.375   4.218  0.3300  1.9404 -0.3414
   61MOL0     H 8230   9.076   8.388   4.066 -0.4427  3.1236  0.4973
   61MOL0     H 8231   8.713   8.587   3.987  1.4579  1.2427 -0.4784
   61MOL0     H 8232   9.334   8.065   4.395 -1.6345 -3.0074 -0.6277
   61MOL0     H 8233   9.605   8.140   4.494  1.2930  0.3951 -0.6461
   61MOL0     H 8234   9.514   7.978   4.511  0.5304 -0.2598  0.2167
   61MOL0     H 8235   9.682   7.981   4.462  0.8030  1.2577  0.1105
   62MOL0     O 8236  10.468   9.183   4.236  0.3297 -0.3113 -0.0274
   62MOL0     C 8237  10.416   9.092   4.168  0.2389  0.7800 -0.5553
   62MOL0     O 8238  10.389   9.091   4.029 -0.6397 -0.5166 -0.0542
   62MOL0     C 8239  10.416   9.205   3.954 -0.6922  0.6982 -0.9431
   62MOL0     C 8240  10.548   9.232   3.911  0.4882  0.6999  0.7756
   62MOL0     C 8241  10.585   9.349   3.852  0.5502 -0.6550 -0.1692
   62MOL0     C 8242  10.491   9.453   3.828 -0.6314 -0.3681 -0.0734
   62MOL0     O 8243  10.517   9.571   3.767 -0.3361  0.3333 -0.0912
   62MOL0     C 8244  10.653   9.605   3.754 -0.3435  0.0956  0.6038
   62MOL0     C 8245  10.635   9.755   3.712  0.8601 -0.8201  0.1747
   62MOL0     C 8246  10.772   9.832   3.684 -0.2560 -0.0608 -0.2922
   62MOL0     C 8247  10.863   9.817   3.806 -0.1737  0.1956  0.0795
   62MOL0     C 8248  10.988   9.909   3.814  0.9805  0.9255  0.4389
   62MOL0     C 8249  11.084   9.866   3.924 -0.0910 -0.6613  0.4871
   62MOL0     C 8250  11.219   9.936   3.924  0.2816  0.2267  1.3021
   62MOL0     C 8251  11.336   9.871   3.992 -0.2206  0.4617 -0.2323
   62MOL0     N 8252  11.302   9.813   4.116 -0.0356  0.7801  0.2882
   62MOL0     C 8253  11.367   9.833   4.233  0.3666  0.1960  0.1561
   62MOL0     C 8254  11.289   9.777   4.329 -0.2361  0.9137  0.8675
   62MOL0     C 8255  11.320   9.750   4.477  0.2836  0.2474  0.2994
   62MOL0     C 8256  11.424   9.854   4.525 -0.1857  0.1661  0.4788
   62MOL0     C 8257  11.385  10.003   4.521  0.0576  0.3988  0.2424
   62MOL0     C 8258  11.515  10.072   4.539  0.2267 -0.2296 -0.0076
   62MOL0     O 8259  11.608  10.054   4.437 -0.6867 -0.4406  0.0715
   62MOL0     C 8260  11.588  10.104   4.314  0.0496 -0.9351  0.1760
   62MOL0     C 8261  11.482  10.193   4.277 -0.4721  0.5290  0.5485
   62MOL0     C 8262  11.459  10.220   4.143 -0.6376  0.1519 -0.3073
   62MOL0     C 8263  11.553  10.184   4.045 -0.2360 -0.3595 -0.9851
   62MOL0     C 8264  11.547  10.247   3.906  0.2913 -0.3215 -0.1517
   62MOL0     O 8265  11.431  10.261   3.840  1.1272 -0.2104  0.3553
   62MOL0     C 8266  11.438  10.304   3.716 -0.2461  0.7026  0.2751
   62MOL0     C 8267  11.376  10.225   3.617 -0.0723 -0.1036  0.1093
   62MOL0     C 8268  11.376  10.258   3.479  0.9645 -1.4140  0.3699
   62MOL0     C 8269  11.409  10.398   3.450 -0.2009  0.0834 -0.4918
   62MOL0     O 8270  11.406  10.449   3.325  0.3506  0.3213  0.8420
   62MOL0     C 8271  11.300  10.412   3.235  0.1951 -0.2947 -0.0733
   62MOL0     C 8272  11.151  10.436   3.264 -0.3614 -0.0861  0.2418
   62MOL0     C 8273  11.115  10.584   3.234 -0.6024 -0.8431 -0.0460
   62MOL0     C 8274  11.012  10.581   3.118 -0.0953 -0.0158 -0.0266
   62MOL0     C 8275  10.967  10.726   3.092 -0.3686  0.8718  0.1720
   62MOL0     C 8276  10.856  10.737   2.985 -0.4683 -0.8518 -0.5030
   62MOL0     C 8277  10.827  10.882   2.950 -0.4040 -0.0022  0.2999
   62MOL0     C 8278  10.786  10.902   2.800  0.1509  0.8702  0.2172
   62MOL0    Cl 8279  10.693  11.058   2.779 -0.3577 -0.4157  0.2406
   62MOL0     C 8280  11.456  10.486   3.556  0.4685  0.9651  0.0633
   62MOL0     C 8281  11.471  10.439   3.681  0.0594 -1.0457  0.4455
   62MOL0     O 8282  11.657  10.266   3.865  0.1751 -0.5489  0.0793
   62MOL0     C 8283  11.670  10.120   4.087  0.4816  0.7105 -0.2800
   62MOL0     C 8284  11.677  10.066   4.216 -0.7209 -0.0264  0.4445
   62MOL0     N 8285  11.182   9.711   4.274 -0.0622 -0.1817 -0.6447
   62MOL0     N 8286  11.196   9.739   4.148  0.3181  0.1065 -0.2676
   62MOL0     C 8287  10.363   9.424   3.872 -0.8174  0.6940 -0.0617
   62MOL0     C 8288  10.328   9.304   3.926 -0.2113 -0.1317  0.2395
   62MOL0     C 8289  10.388   8.967   4.250 -0.3935 -0.1819 -0.0253
   62MOL0     C 8290  10.438   8.953   4.384  0.1839  0.5729 -0.6302
   62MOL0     C 8291  10.401   8.844   4.467  0.2404  0.8767 -0.5987
   62MOL0     C 8292  10.311   8.748   4.415  0.5112 -0.0944  0.7897
   62MOL0     O 8293  10.251   8.639   4.479 -0.3524 -1.5910  0.0504
   62MOL0     C 8294  10.295   8.619   4.615 -0.3167 -0.4529 -0.3993
   62MOL0     C 8295  10.445   8.563   4.627 -1.0221  0.4398 -0.1588
   62MOL0     C 8296  10.455   8.528   4.780  0.9252 -0.1915  0.0934
   62MOL0     C 8297  10.566   8.423   4.804  0.1694 -0.2396 -0.3752
   62MOL0     C 8298  10.700   8.480   4.779 -0.3620  0.1373  0.3122
   62MOL0     C 8299  10.808   8.542   4.757  0.3908 -0.3065 -1.2487
   62MOL0     C 8300  10.280   8.759   4.282  0.3833 -0.2784 -0.1077
   62MOL0     C 8301  10.306   8.869   4.205  0.3907  0.7754  0.0375
   62MOL0     C 8302  10.224   8.876   4.078  0.2834 -0.3027  0.5917
   62MOL0     H 8303  10.618   9.160   3.953  0.3751 -1.8849 -2.9679
   62MOL0     H 8304  10.690   9.355   3.827  0.1808  0.0397 -1.6933
   62MOL0     H 8305  10.725   9.587   3.834  1.1200 -0.3148 -0.7481
   62MOL0     H 8306  10.709   9.551   3.676  1.6753 -0.0594  2.0725
   62MOL0     H 8307  10.586   9.830   3.775  1.4390  1.0146 -1.4533
   62MOL0     H 8308  10.577   9.759   3.619  2.8513  0.6781 -1.1040
   62MOL0     H 8309  10.756   9.935   3.650 -1.1196 -0.0936  0.0058
   62MOL0     H 8310  10.809   9.784   3.592 -1.9158 -2.2485  0.0981
   62MOL0     H 8311  10.805   9.848   3.894 -1.4515  4.6126 -2.0602
   62MOL0     H 8312  10.906   9.716   3.805  0.9394  0.6604 -0.2711
   62MOL0     H 8313  11.043   9.891   3.722 -0.8684  0.2266 -0.5812
   62MOL0     H 8314  10.950  10.009   3.838 -0.0816  0.6177  0.0881
   62MOL0     H 8315  11.030   9.882   4.017  0.2163 -0.6532  0.6650
   62MOL0     H 8316  11.107   9.759   3.920  2.3166 -0.2177  0.8448
   62MOL0     H 8317  11.204  10.033   3.971  0.9176  0.9195  0.1139
   62MOL0     H 8318  11.247   9.964   3.822  0.8733  1.6518  1.8349
   62MOL0     H 8319  11.374   9.797   3.921 -0.7288 -0.2148  0.1941
   62MOL0     H 8320  11.421   9.940   3.992  1.2086 -1.2142 -1.0152
   62MOL0     H 8321  11.456   9.893   4.249  0.6853 -0.3096  0.2966
   62MOL0     H 8322  11.224   9.766   4.526  0.3018 -0.4062  0.5571
   62MOL0     H 8323  11.350   9.647   4.499  2.6601  0.6015 -0.8785
   62MOL0     H 8324  11.450   9.824   4.627 -0.6681 -1.7483  0.0889
   62MOL0     H 8325  11.519   9.829   4.476  0.3531 -1.3738  2.1736
   62MOL0     H 8326  11.311  10.032   4.597  1.3089  3.8182  0.3626
   62MOL0     H 8327  11.346  10.018   4.420  1.1018 -5.4248 -1.3346
   62MOL0     H 8328  11.560  10.030   4.630  0.6824  0.1935 -0.0319
   62MOL0     H 8329  11.503  10.179   4.558  3.8871  0.4147 -0.6087
   62MOL0     H 8330  11.418  10.238   4.353 -0.8577 -0.1545  0.6366
   62MOL0     H 8331  11.370  10.267   4.104 -0.7632 -2.3650 -3.4447
   62MOL0     H 8332  11.339  10.128   3.650  3.1879 -1.9447 -1.1655
   62MOL0     H 8333  11.353  10.187   3.401  0.7656  0.2038 -1.0922
   62MOL0     H 8334  11.319  10.463   3.140  2.1072 -3.6995 -1.7366
   62MOL0     H 8335  11.308  10.309   3.198 -0.8223  1.0663 -4.6573
   62MOL0     H 8336  11.097  10.368   3.199 -2.0411  1.1282  0.2936
   62MOL0     H 8337  11.126  10.406   3.367 -1.5741 -0.7299 -0.2248
   62MOL0     H 8338  11.073  10.626   3.326  3.1963 -0.5096  1.7317
   62MOL0     H 8339  11.204  10.642   3.209 -1.5892  1.4759  1.3891
   62MOL0     H 8340  10.934  10.506   3.135  0.1173 -0.2815 -0.2034
   62MOL0     H 8341  11.063  10.532   3.034  2.9804  2.0029  0.4728
   62MOL0     H 8342  11.062  10.776   3.069  0.4044  0.5318  2.4002
   62MOL0     H 8343  10.936  10.788   3.176 -1.7618  1.0354 -0.4367
   62MOL0     H 8344  10.906  10.694   2.898  0.0922 -1.4701  0.1127
   62MOL0     H 8345  10.766  10.676   3.002 -0.8533 -0.6519 -1.7437
   62MOL0     H 8346  10.918  10.937   2.977  0.2042 -1.1238  0.5961
   62MOL0     H 8347  10.752  10.922   3.018 -0.8799  0.2062 -0.3353
   62MOL0     H 8348  10.875  10.912   2.737 -0.2249 -2.6795 -1.1316
   62MOL0     H 8349  10.719  10.825   2.762 -0.4155  1.9676 -1.0629
   62MOL0     H 8350  11.458  10.592   3.534 -1.8490  0.9571 -0.4477
   62MOL0     H 8351  11.499  10.492   3.772 -1.0446 -1.2909  0.9580
   62MOL0     H 8352  11.753  10.109   4.018  1.0345  0.1759  0.4493
   62MOL0     H 8353  11.756   9.997   4.245 -1.4497 -0.2521  1.9844
   62MOL0     H 8354  10.295   9.507   3.853 -1.2209 -0.1889 -3.0530
   62MOL0     H 8355  10.225   9.292   3.960  0.8417 -1.3211  3.3083
   62MOL0     H 8356  10.501   9.029   4.427 -0.7671  1.2522 -0.3946
   62MOL0     H 8357  10.439   8.838   4.568 -2.5527 -0.4932  0.4757
   62MOL0     H 8358  10.232   8.537   4.651 -0.5067 -0.7763 -1.4369
   62MOL0     H 8359  10.279   8.714   4.668 -1.9529 -0.1295 -1.3879
   62MOL0     H 8360  10.514   8.640   4.593  0.9146 -1.3348 -0.3975
   62MOL0     H 8361  10.461   8.485   4.553  0.3511 -0.2473  0.8211
   62MOL0     H 8362  10.356   8.492   4.810 -0.4853  2.0562 -1.5043
   62MOL0     H 8363  10.481   8.621   4.831  1.8843  0.7016 -1.8978
   62MOL0     H 8364  10.552   8.398   4.909 -2.4737  5.2185  0.8978
   62MOL0     H 8365  10.537   8.337   4.742 -0.8491  1.9064 -3.1290
   62MOL0     H 8366  10.902   8.590   4.739 -0.1957  2.4720  2.0121
   62MOL0     H 8367  10.226   8.675   4.239  2.2998 -0.2828 -2.7248
   62MOL0     H 8368  10.292   8.862   3.994 -1.2882 -1.6256 -0.5190
   62MOL0     H 8369  10.151   8.796   4.061 -3.3414  3.1696 -1.6885
   62MOL0     H 8370  10.174   8.973   4.082  0.5752 -0.1031 -0.4967
   63MOL0     O 8371   7.568   9.398   9.438  0.2455 -0.1539 -0.2405
   63MOL0     C 8372   7.662   9.406   9.357 -0.0324  0.1559  0.5508
   63MOL0     O 8373   7.672   9.334   9.240  0.4537 -0.7701  0.1281
   63MOL0     C 8374   7.559   9.261   9.208 -0.5322  0.1510  0.1626
   63MOL0     C 8375   7.545   9.130   9.236  0.4227  0.8447  0.2081
   63MOL0     C 8376   7.414   9.059   9.212 -0.1366 -0.1036  0.5289
   63MOL0     C 8377   7.312   9.125   9.144  0.2647  0.9295  0.0744
   63MOL0     O 8378   7.195   9.044   9.131  0.2082 -0.0383  0.1096
   63MOL0     C 8379   7.161   9.002   8.992 -0.2698 -0.3439  0.0373
   63MOL0     C 8380   7.065   9.095   8.914  1.3228 -0.0682  0.6962
   63MOL0     C 8381   6.929   9.087   8.994 -0.0343  0.7288  0.4227
   63MOL0     C 8382   6.846   8.951   8.964  0.5703 -1.2025 -0.4866
   63MOL0     C 8383   6.722   8.951   9.053  0.4909 -0.4258 -0.6444
   63MOL0     C 8384   6.632   9.076   9.052 -0.1772 -0.0803  0.5779
   63MOL0     C 8385   6.577   9.133   8.918  0.3707  0.0480 -0.2191
   63MOL0     C 8386   6.475   9.043   8.836 -0.7444 -0.2699  0.6138
   63MOL0     N 8387   6.397   8.938   8.905 -0.4930 -0.4105 -0.5571
   63MOL0     C 8388   6.437   8.811   8.921  0.4562 -0.9282 -1.2145
   63MOL0     C 8389   6.363   8.755   9.025  0.8264 -0.1970  0.8200
   63MOL0     C 8390   6.365   8.611   9.087  0.1362  0.4458  0.2746
   63MOL0     C 8391   6.487   8.566   9.163 -0.0775 -0.1981  0.0656
   63MOL0     C 8392   6.521   8.651   9.285 -0.8022  0.2448  0.7960
   63MOL0     C 8393   6.627   8.585   9.375 -0.6349  0.5228  0.7439
   63MOL0     O 8394   6.761   8.582   9.313 -0.0830  0.6497  1.0547
   63MOL0     C 8395   6.866   8.535   9.388  0.1297  0.3664  0.4622
   63MOL0     C 8396   6.857   8.459   9.505  0.2057 -0.0470 -0.5276
   63MOL0     C 8397   6.974   8.434   9.575 -0.5921 -0.5870 -0.2943
   63MOL0     C 8398   7.105   8.460   9.526 -0.2874  0.2438 -0.3980
   63MOL0     C 8399   7.230   8.425   9.590 -0.1646 -0.3932 -0.9219
   63MOL0     O 8400   7.218   8.373   9.719  1.0397 -0.1691 -0.3840
   63MOL0     C 8401   7.320   8.320   9.793  0.4228 -0.0039 -0.5226
   63MOL0     C 8402   7.295   8.187   9.828  0.3925 -0.3090  0.7705
   63MOL0     C 8403   7.397   8.109   9.897 -0.6260 -0.2415  0.3664
   63MOL0     C 8404   7.527   8.170   9.930  0.7479 -0.7151 -0.4611
   63MOL0     O 8405   7.630   8.092   9.999  0.0491 -0.0735  0.5403
   63MOL0     C 8406   7.757   8.165  10.025  0.2411  0.2141 -0.0860
   63MOL0     C 8407   7.874   8.065  10.025 -0.1863 -0.2554  0.0639
   63MOL0     C 8408   7.862   7.972  10.141 -1.1533  0.5917 -0.2626
   63MOL0     C 8409   7.973   7.858  10.125 -0.0161  0.4114  0.7159
   63MOL0     C 8410   7.957   7.753  10.240 -0.1975 -0.5431  0.4968
   63MOL0     C 8411   8.077   7.662  10.240  0.2388 -0.7097 -0.6502
   63MOL0     C 8412   8.073   7.568  10.362 -0.1481  0.1832  0.1448
   63MOL0     C 8413   8.177   7.448  10.366 -0.4215 -0.1806  0.8586
   63MOL0    Cl 8414   8.347   7.498  10.334  0.2144 -0.1278  0.2127
   63MOL0     C 8415   7.536   8.305   9.903  0.7199 -0.2541 -0.1697
   63MOL0     C 8416   7.436   8.386   9.843  0.1901  0.0115  0.2380
   63MOL0     O 8417   7.339   8.466   9.544  0.3645  0.1900 -0.6051
   63MOL0     C 8418   7.109   8.522   9.400 -1.1631 -0.6617 -0.7249
   63MOL0     C 8419   6.996   8.568   9.340 -0.9831  0.4017 -0.4977
   63MOL0     N 8420   6.274   8.852   9.059  0.3502  0.8083 -0.4116
   63MOL0     N 8421   6.279   8.950   8.972 -0.3968  0.4030 -0.8357
   63MOL0     C 8422   7.337   9.254   9.102  0.5833 -0.2880 -0.8479
   63MOL0     C 8423   7.453   9.322   9.137  1.4085  0.4209 -0.1866
   63MOL0     C 8424   7.782   9.480   9.400  1.3284  0.2703  0.2206
   63MOL0     C 8425   7.911   9.459   9.346  0.1431 -0.6225 -0.3260
   63MOL0     C 8426   8.023   9.532   9.388 -0.2105 -0.2574 -0.4151
   63MOL0     C 8427   8.017   9.611   9.505  0.5938 -0.1680 -0.2397
   63MOL0     O 8428   8.124   9.680   9.558  0.1147  0.9805 -1.0910
   63MOL0     C 8429   8.260   9.654   9.516 -0.1918  0.6011  0.4445
   63MOL0     C 8430   8.301   9.520   9.575  0.0828 -0.0074  0.4139
   63MOL0     C 8431   8.457   9.501   9.568  0.0186 -0.4557 -0.7118
   63MOL0     C 8432   8.506   9.349   9.579  0.5335  0.4178 -0.0699
   63MOL0     C 8433   8.445   9.285   9.696  0.9259  0.9743  0.3289
   63MOL0     C 8434   8.373   9.241   9.792  0.2593 -0.3040  0.4511
   63MOL0     C 8435   7.887   9.626   9.558 -0.1559 -1.9559 -0.6235
   63MOL0     C 8436   7.775   9.571   9.508 -0.2700  0.0969 -0.3833
   63MOL0     C 8437   7.653   9.619   9.580 -0.1300  0.1227  0.1045
   63MOL0     H 8438   7.627   9.079   9.287 -0.5871 -0.9999  0.0637
   63MOL0     H 8439   7.404   8.955   9.243  1.0632 -0.5020 -0.3829
   63MOL0     H 8440   7.258   9.013   8.943  0.5976  1.1318  1.9355
   63MOL0     H 8441   7.130   8.897   8.989  1.4801 -0.8791 -0.0740
   63MOL0     H 8442   7.056   9.064   8.810  1.5771 -2.3300  1.2909
   63MOL0     H 8443   7.097   9.200   8.921  0.9686  0.1789 -0.9530
   63MOL0     H 8444   6.873   9.176   8.966  2.0369  2.0246  0.1916
   63MOL0     H 8445   6.939   9.095   9.103 -2.2395  1.0199  0.6611
   63MOL0     H 8446   6.808   8.940   8.862 -1.3808  0.3053 -0.0010
   63MOL0     H 8447   6.910   8.865   8.984  0.2494 -1.0464  1.3753
   63MOL0     H 8448   6.660   8.868   9.020 -0.0322 -0.1720 -0.3114
   63MOL0     H 8449   6.749   8.925   9.156 -1.1006 -1.2454 -0.4205
   63MOL0     H 8450   6.545   9.065   9.118 -1.7584  1.2034 -1.1603
   63MOL0     H 8451   6.693   9.154   9.097 -2.0848  0.6896  1.9617
   63MOL0     H 8452   6.645   9.182   8.848  1.2208  0.3961  0.8190
   63MOL0     H 8453   6.519   9.218   8.956  1.0729  0.8296 -0.8581
   63MOL0     H 8454   6.408   9.114   8.787  0.5371  0.7901  0.3430
   63MOL0     H 8455   6.531   8.991   8.758 -1.0306  2.1439 -1.3132
   63MOL0     H 8456   6.513   8.760   8.863  1.8951  0.4396 -0.6154
   63MOL0     H 8457   6.285   8.607   9.161 -2.2546 -0.8899 -2.2423
   63MOL0     H 8458   6.351   8.538   9.008 -2.3440  0.5328  0.5678
   63MOL0     H 8459   6.478   8.463   9.198  1.5225  0.0121  1.2192
   63MOL0     H 8460   6.576   8.559   9.101  0.7086  2.9648  0.6638
   63MOL0     H 8461   6.425   8.668   9.336 -0.0061  0.6310  2.2461
   63MOL0     H 8462   6.552   8.751   9.254  1.2987 -0.2282  1.2603
   63MOL0     H 8463   6.603   8.480   9.397  3.4086 -0.7169  0.0701
   63MOL0     H 8464   6.619   8.640   9.469 -0.5651 -2.0264  2.3426
   63MOL0     H 8465   6.759   8.426   9.539  0.6303  1.2686  2.2737
   63MOL0     H 8466   6.969   8.386   9.672  0.4660 -0.9767 -0.4182
   63MOL0     H 8467   7.200   8.153   9.788  0.8707 -0.1400 -0.5773
   63MOL0     H 8468   7.386   8.003   9.917 -1.8501  0.1872  2.2347
   63MOL0     H 8469   7.785   8.234   9.946  0.8935 -0.2037 -0.2229
   63MOL0     H 8470   7.757   8.211  10.124  2.8739 -3.9767  2.1875
   63MOL0     H 8471   7.876   7.998   9.938  2.1097  0.2671 -0.3268
   63MOL0     H 8472   7.968   8.120  10.020 -0.1835 -0.3617 -1.7315
   63MOL0     H 8473   7.877   8.013  10.241 -2.6445 -1.5521  0.9315
   63MOL0     H 8474   7.766   7.919  10.146 -0.9764  0.4334  2.8875
   63MOL0     H 8475   8.075   7.899  10.133 -1.0411  2.9309  2.1218
   63MOL0     H 8476   7.982   7.809  10.028  2.5600 -1.3612  1.7506
   63MOL0     H 8477   7.864   7.701  10.215  0.4907 -0.9869 -1.3419
   63MOL0     H 8478   7.942   7.803  10.336 -1.6032  0.9068 -0.4275
   63MOL0     H 8479   8.074   7.611  10.143  0.3518  0.3814 -1.2399
   63MOL0     H 8480   8.169   7.716  10.260  0.4548 -1.0536 -0.7008
   63MOL0     H 8481   7.981   7.510  10.368  1.0555 -1.9861 -1.0608
   63MOL0     H 8482   8.082   7.633  10.450 -0.9892  0.4460  0.0443
   63MOL0     H 8483   8.188   7.396  10.462  0.7938  0.0227  0.8486
   63MOL0     H 8484   8.139   7.380  10.289  1.0826  1.4360 -1.4271
   63MOL0     H 8485   7.626   8.353   9.941 -0.0866  1.3515 -0.1927
   63MOL0     H 8486   7.440   8.494   9.834  0.3398 -0.1690 -2.7490
   63MOL0     H 8487   7.205   8.553   9.360 -2.3826  2.9315 -1.2545
   63MOL0     H 8488   7.013   8.609   9.241  0.8061 -0.9672 -0.8108
   63MOL0     H 8489   7.257   9.314   9.059 -1.3992 -0.7307  1.8978
   63MOL0     H 8490   7.474   9.421   9.100  0.7856  0.2842 -0.9294
   63MOL0     H 8491   7.909   9.390   9.262  0.9225  2.0007 -2.6528
   63MOL0     H 8492   8.111   9.530   9.325 -0.2098  2.1475 -0.5557
   63MOL0     H 8493   8.328   9.737   9.540 -2.6899  3.0570 -0.3983
   63MOL0     H 8494   8.277   9.656   9.408  2.0622  2.2358  0.7401
   63MOL0     H 8495   8.263   9.440   9.512  4.0603  0.1685 -2.6206
   63MOL0     H 8496   8.256   9.524   9.675 -1.3031  2.5092 -0.2124
   63MOL0     H 8497   8.500   9.559   9.651  0.4312  0.8879 -1.8268
   63MOL0     H 8498   8.505   9.536   9.476  0.1407 -2.1881 -1.3449
   63MOL0     H 8499   8.488   9.296   9.485 -0.1248 -2.6624  1.6431
   63MOL0     H 8500   8.615   9.343   9.587  0.5229 -0.1527 -0.2797
   63MOL0     H 8501   8.316   9.196   9.871 -2.8109 -3.2751 -3.0784
   63MOL0     H 8502   7.880   9.706   9.632  5.4994  1.1498 -2.7886
   63MOL0     H 8503   7.627   9.550   9.660  2.0509  0.0180  0.7864
   63MOL0     H 8504   7.666   9.720   9.621 -1.9812  0.9035 -1.0586
   63MOL0     H 8505   7.558   9.627   9.524 -0.4719  2.1264  0.8756
   64MOL0     O 8506   4.863   1.625   7.777 -0.7847  0.0692 -0.1418
   64MOL0     C 8507   4.794   1.535   7.719 -0.7807  0.2591  0.2283
   64MOL0     O 8508   4.853   1.417   7.669 -1.0513 -0.2562  0.4179
   64MOL0     C 8509   4.992   1.414   7.682 -0.4309 -0.5377  0.0502
   64MOL0     C 8510   5.064   1.503   7.599 -0.1175  0.1149 -0.2501
   64MOL0     C 8511   5.202   1.505   7.590 -0.1937 -0.2531 -0.6926
   64MOL0     C 8512   5.274   1.407   7.657  0.3495  0.0303 -0.2347
   64MOL0     O 8513   5.415   1.382   7.645  0.4560  0.6382 -0.0855
   64MOL0     C 8514   5.506   1.472   7.589  0.0670 -0.4205 -0.0301
   64MOL0     C 8515   5.629   1.391   7.607 -0.5782 -0.5328  0.0924
   64MOL0     C 8516   5.760   1.468   7.555  1.7402 -0.0895  0.1938
   64MOL0     C 8517   5.798   1.565   7.659 -0.7506  0.3629 -0.3302
   64MOL0     C 8518   5.906   1.511   7.762 -0.0416  0.4333  0.0024
   64MOL0     C 8519   5.964   1.615   7.856 -0.3218  0.5763  0.0934
   64MOL0     C 8520   6.081   1.547   7.932  0.0436 -0.3339  0.0324
   64MOL0     C 8521   6.107   1.612   8.067  1.0045 -1.1474 -0.5477
   64MOL0     N 8522   6.219   1.558   8.149  1.1332  0.2688  0.1523
   64MOL0     C 8523   6.218   1.422   8.195  0.2666 -0.7605 -0.5372
   64MOL0     C 8524   6.317   1.426   8.293  0.2722  0.3242  0.3045
   64MOL0     C 8525   6.349   1.312   8.394 -0.8045 -0.1714  0.2033
   64MOL0     C 8526   6.249   1.293   8.502  0.8315  0.1292 -0.4346
   64MOL0     C 8527   6.260   1.142   8.536  0.2711  0.8992 -0.9163
   64MOL0     C 8528   6.255   1.120   8.688  0.5206 -0.0293  0.2642
   64MOL0     O 8529   6.258   0.982   8.709 -0.2415 -0.3823  0.0803
   64MOL0     C 8530   6.377   0.909   8.701 -1.6205 -0.8454  0.7812
   64MOL0     C 8531   6.365   0.770   8.704 -0.3877  0.5929  0.1142
   64MOL0     C 8532   6.483   0.687   8.713  0.3459  0.0757  0.0926
   64MOL0     C 8533   6.609   0.736   8.725 -0.1446  0.1531 -0.4635
   64MOL0     C 8534   6.720   0.648   8.732 -0.1730  0.4071  1.2980
   64MOL0     O 8535   6.850   0.704   8.721 -0.1372  1.0549 -0.5508
   64MOL0     C 8536   6.942   0.628   8.794  0.0842 -0.8659 -0.7535
   64MOL0     C 8537   7.068   0.584   8.745  0.0657  0.3658  0.3655
   64MOL0     C 8538   7.144   0.496   8.821 -0.0358  0.4409  0.4512
   64MOL0     C 8539   7.110   0.459   8.952  0.4590  0.1969  0.4066
   64MOL0     O 8540   7.198   0.385   9.024 -0.1264 -0.3807 -0.4113
   64MOL0     C 8541   7.151   0.271   9.102  0.1676 -0.2082 -0.4829
   64MOL0     C 8542   7.245   0.216   9.208 -0.4838 -0.2832 -0.2625
   64MOL0     C 8543   7.275   0.311   9.327 -1.1965  0.0283  0.2123
   64MOL0     C 8544   7.306   0.242   9.460 -0.7311 -0.1484 -0.4761
   64MOL0     C 8545   7.390   0.340   9.539  0.0423 -0.3501 -0.4129
   64MOL0     C 8546   7.420   0.274   9.676 -0.5024 -0.0436 -0.0598
   64MOL0     C 8547   7.497   0.134   9.668 -0.1600  0.3591  0.5706
   64MOL0     C 8548   7.644   0.144   9.606 -0.6926  0.6086 -0.6257
   64MOL0    Cl 8549   7.760   0.234   9.720  0.3516  0.1704  0.1245
   64MOL0     C 8550   7.001   0.526   9.014 -0.3668 -0.6936  0.4050
   64MOL0     C 8551   6.921   0.608   8.939  0.4051 -0.3865 -0.3982
   64MOL0     O 8552   6.700   0.525   8.741  1.1872  0.4259 -0.8353
   64MOL0     C 8553   6.625   0.876   8.705  0.1209  0.2798  0.2477
   64MOL0     C 8554   6.508   0.955   8.688  0.6711  0.3840 -0.4516
   64MOL0     N 8555   6.372   1.550   8.296 -0.7771 -0.1174 -0.2675
   64MOL0     N 8556   6.311   1.624   8.207 -0.1622 -0.8782 -0.9901
   64MOL0     C 8557   5.204   1.323   7.747  0.2956  0.1144 -0.6161
   64MOL0     C 8558   5.059   1.319   7.759  0.2430 -0.6479  0.0175
   64MOL0     C 8559   4.649   1.535   7.741  0.6583 -0.9406 -0.3440
   64MOL0     C 8560   4.585   1.413   7.744  0.1311  0.5613 -0.6048
   64MOL0     C 8561   4.452   1.388   7.779 -1.0784  0.3944 -0.6060
   64MOL0     C 8562   4.367   1.490   7.812 -0.6849 -0.3491 -0.8652
   64MOL0     O 8563   4.238   1.465   7.843 -0.4147  0.5974  0.2102
   64MOL0     C 8564   4.144   1.558   7.895  0.1316  0.3036  1.1393
   64MOL0     C 8565   4.077   1.493   8.027 -0.6433  0.6905 -0.6536
   64MOL0     C 8566   4.020   1.352   8.011 -0.6158 -0.4267  1.0734
   64MOL0     C 8567   3.940   1.310   8.129 -0.0946  0.0026 -0.3684
   64MOL0     C 8568   3.878   1.178   8.114  0.2819  0.0869  0.1842
   64MOL0     C 8569   3.838   1.066   8.099  0.1113  0.3557  0.6248
   64MOL0     C 8570   4.425   1.620   7.810  0.3164 -0.2861 -0.7999
   64MOL0     C 8571   4.554   1.646   7.779 -0.1760 -1.0707  0.0387
   64MOL0     C 8572   4.592   1.800   7.799 -0.2397 -0.6128  0.3638
   64MOL0     H 8573   5.014   1.586   7.550  1.0608  2.2259  1.9153
   64MOL0     H 8574   5.257   1.561   7.515 -0.4082 -0.7974 -1.2638
   64MOL0     H 8575   5.473   1.480   7.485 -2.5772  0.1982  0.7733
   64MOL0     H 8576   5.499   1.565   7.646  1.3832 -1.3110  1.6460
   64MOL0     H 8577   5.624   1.304   7.540  0.6472 -1.4212  1.1183
   64MOL0     H 8578   5.645   1.343   7.704 -2.3306 -2.4855 -0.4846
   64MOL0     H 8579   5.739   1.521   7.462 -0.6135 -0.1015  0.6438
   64MOL0     H 8580   5.837   1.395   7.529  0.5450 -0.2255 -3.5479
   64MOL0     H 8581   5.846   1.651   7.612 -2.0239  1.5958  0.5227
   64MOL0     H 8582   5.716   1.602   7.723  0.5567  2.3640  0.2950
   64MOL0     H 8583   5.859   1.448   7.837  3.6577  2.3443  4.4156
   64MOL0     H 8584   5.989   1.461   7.712  0.5207  2.6207 -1.3948
   64MOL0     H 8585   6.006   1.697   7.798  4.1441 -1.3619  0.1650
   64MOL0     H 8586   5.888   1.656   7.924 -2.3554 -3.9686  0.9247
   64MOL0     H 8587   6.170   1.563   7.871  1.7560 -2.0410  1.9439
   64MOL0     H 8588   6.068   1.441   7.952 -0.6848 -0.6921 -2.1583
   64MOL0     H 8589   6.119   1.719   8.052  2.2737 -1.3734 -1.3003
   64MOL0     H 8590   6.013   1.605   8.124  1.5104  1.0881  0.6556
   64MOL0     H 8591   6.152   1.337   8.181 -1.3778  0.4649 -0.4097
   64MOL0     H 8592   6.347   1.223   8.331 -0.3063  1.4077 -2.1516
   64MOL0     H 8593   6.449   1.325   8.435 -1.3278  1.3360  1.0832
   64MOL0     H 8594   6.277   1.356   8.587  0.3743 -1.4016  0.9132
   64MOL0     H 8595   6.142   1.312   8.486  0.3958 -0.4472  1.5242
   64MOL0     H 8596   6.355   1.094   8.513 -0.4897 -0.2191 -1.8156
   64MOL0     H 8597   6.187   1.092   8.471  0.6074  3.0103 -3.0556
   64MOL0     H 8598   6.162   1.159   8.731  0.5561  0.4699 -0.0971
   64MOL0     H 8599   6.336   1.170   8.741  0.7066  0.6485 -0.6293
   64MOL0     H 8600   6.263   0.733   8.713  1.0451 -3.8674  0.3564
   64MOL0     H 8601   6.471   0.580   8.724  0.4465 -0.0276 -0.7070
   64MOL0     H 8602   7.109   0.610   8.647  0.5285 -1.6380 -0.0273
   64MOL0     H 8603   7.238   0.462   8.779 -0.9382 -2.0373  0.3219
   64MOL0     H 8604   7.060   0.292   9.159  1.7544 -0.3579  2.2448
   64MOL0     H 8605   7.119   0.197   9.028 -1.8462  1.3772 -1.3168
   64MOL0     H 8606   7.196   0.123   9.236 -1.1514 -0.8219 -3.0204
   64MOL0     H 8607   7.340   0.191   9.160  1.5410  2.2225  2.0997
   64MOL0     H 8608   7.358   0.370   9.288  0.0328 -2.3222 -0.9600
   64MOL0     H 8609   7.191   0.380   9.340 -1.1285  0.3391 -0.9101
   64MOL0     H 8610   7.368   0.155   9.435 -1.7354 -0.6041 -1.4183
   64MOL0     H 8611   7.215   0.212   9.512 -0.4990  0.3042  0.2071
   64MOL0     H 8612   7.334   0.433   9.555 -0.5661 -0.3917 -2.1004
   64MOL0     H 8613   7.487   0.367   9.496  0.6033 -2.3631 -0.4873
   64MOL0     H 8614   7.474   0.345   9.740  1.9461 -1.2793 -0.6837
   64MOL0     H 8615   7.328   0.258   9.735 -0.6522  3.2699  0.8245
   64MOL0     H 8616   7.434   0.064   9.611 -0.1516  1.6082 -1.0708
   64MOL0     H 8617   7.515   0.093   9.767  0.5540 -1.9813 -0.4420
   64MOL0     H 8618   7.680   0.042   9.588 -0.6794  0.8870 -2.2947
   64MOL0     H 8619   7.636   0.185   9.505 -2.5142 -0.7967 -1.1238
   64MOL0     H 8620   6.967   0.529   9.118  1.9799  2.3846  1.2391
   64MOL0     H 8621   6.831   0.642   8.989  1.2525  2.0362 -0.3943
   64MOL0     H 8622   6.726   0.909   8.725  0.5906 -2.2026  2.6813
   64MOL0     H 8623   6.523   1.060   8.670  0.9759  0.5582  0.6912
   64MOL0     H 8624   5.250   1.248   7.809 -0.3282  0.8726  0.8157
   64MOL0     H 8625   5.000   1.261   7.829  1.1839  0.6133  1.9404
   64MOL0     H 8626   4.622   1.311   7.731 -2.2067 -0.3837 -0.2775
   64MOL0     H 8627   4.417   1.286   7.775 -0.1196 -0.1726  2.5851
   64MOL0     H 8628   4.062   1.577   7.826  2.0447  0.1331 -1.3177
   64MOL0     H 8629   4.189   1.651   7.930  3.9612 -1.9216  2.8311
   64MOL0     H 8630   3.992   1.556   8.056 -0.5593  0.4190  0.1945
   64MOL0     H 8631   4.152   1.495   8.106  1.0780 -0.3377 -2.1830
   64MOL0     H 8632   4.110   1.290   8.004  0.5983  1.3677 -0.0073
   64MOL0     H 8633   3.961   1.346   7.920 -0.5558 -0.6444  1.0494
   64MOL0     H 8634   3.997   1.316   8.222 -1.7369 -3.2192  0.9980
   64MOL0     H 8635   3.865   1.389   8.140  1.5271  1.7730 -1.4219
   64MOL0     H 8636   3.803   0.966   8.080  2.5179 -0.4573  0.1506
   64MOL0     H 8637   4.363   1.707   7.828 -0.8860 -0.9991 -1.4142
   64MOL0     H 8638   4.656   1.853   7.727 -1.8540  1.8052  0.5924
   64MOL0     H 8639   4.501   1.861   7.797 -2.0258 -3.1766  0.0370
   64MOL0     H 8640   4.648   1.813   7.892 -1.5632  1.2994  0.9652
   65MOL0     O 8641   5.712   5.757   4.301 -0.8733  0.4594  0.7070
   65MOL0     C 8642   5.608   5.734   4.236  0.0155 -0.6689  0.3795
   65MOL0     O 8643   5.610   5.718   4.099  0.3478  0.2467 -0.1093
   65MOL0     C 8644   5.731   5.692   4.033 -0.1345 -0.2841 -0.3839
   65MOL0     C 8645   5.797   5.569   4.038 -0.6759  1.2633 -0.1233
   65MOL0     C 8646   5.923   5.545   3.992 -0.1943 -0.4773 -0.0366
   65MOL0     C 8647   5.993   5.646   3.911 -0.1437  0.2241  0.2600
   65MOL0     O 8648   6.113   5.620   3.856 -0.1924  0.0467  0.3782
   65MOL0     C 8649   6.184   5.716   3.789 -0.9779  0.6287 -0.3562
   65MOL0     C 8650   6.308   5.657   3.729 -0.5384  0.7218  0.6819
   65MOL0     C 8651   6.344   5.708   3.589 -0.7073  0.1029 -0.3049
   65MOL0     C 8652   6.486   5.683   3.557 -0.1049 -0.2554  0.8505
   65MOL0     C 8653   6.516   5.538   3.547 -0.2133  0.3617  0.7409
   65MOL0     C 8654   6.668   5.526   3.521  0.0223 -0.3752  1.0756
   65MOL0     C 8655   6.708   5.383   3.544 -0.1288 -0.1409  0.1495
   65MOL0     C 8656   6.665   5.294   3.421  0.3216  0.0189 -0.5251
   65MOL0     N 8657   6.726   5.166   3.432  0.2207  0.7380  0.2181
   65MOL0     C 8658   6.772   5.083   3.331 -0.2099 -0.3592  0.1914
   65MOL0     C 8659   6.839   4.989   3.390  0.5128  0.0701 -0.4677
   65MOL0     C 8660   6.913   4.868   3.330 -0.1604  0.1538 -0.2338
   65MOL0     C 8661   6.833   4.741   3.330 -0.4743 -0.2326 -0.2320
   65MOL0     C 8662   6.724   4.723   3.229  0.4013  0.1539  0.0533
   65MOL0     C 8663   6.646   4.586   3.233  0.1167  0.4637  0.0375
   65MOL0     O 8664   6.549   4.566   3.129 -0.6807  0.3381 -0.2471
   65MOL0     C 8665   6.470   4.453   3.154  0.0474  0.1843 -0.5226
   65MOL0     C 8666   6.357   4.457   3.082  1.2101  0.9891 -0.2522
   65MOL0     C 8667   6.260   4.354   3.103  0.1188  0.0894  0.4903
   65MOL0     C 8668   6.286   4.238   3.177 -0.0771 -0.4586  0.3465
   65MOL0     C 8669   6.180   4.132   3.201 -0.8504 -0.5215 -0.3073
   65MOL0     O 8670   6.056   4.172   3.224  0.1595  0.0907  0.0565
   65MOL0     C 8671   5.956   4.077   3.247  0.0314 -0.4383 -0.2964
   65MOL0     C 8672   5.898   3.995   3.148 -0.3384  0.6656  0.5058
   65MOL0     C 8673   5.776   3.922   3.175 -0.5524  0.0463  0.8046
   65MOL0     C 8674   5.717   3.924   3.297  0.8802  0.2485 -0.1361
   65MOL0     O 8675   5.603   3.853   3.308  0.1904  0.1112 -0.3044
   65MOL0     C 8676   5.556   3.825   3.444  0.6785 -0.0051 -0.2580
   65MOL0     C 8677   5.432   3.736   3.448  0.3065 -1.1823  1.0956
   65MOL0     C 8678   5.371   3.734   3.585 -0.4313  0.1260 -0.5897
   65MOL0     C 8679   5.234   3.670   3.582  0.4415 -0.2330  0.1344
   65MOL0     C 8680   5.187   3.648   3.737  0.1817 -0.1228  0.5643
   65MOL0     C 8681   5.079   3.533   3.752  0.2726 -0.0113 -0.8025
   65MOL0     C 8682   5.025   3.519   3.894  0.9204  0.4027  0.3762
   65MOL0     C 8683   4.905   3.421   3.898 -1.0253 -0.0079 -0.5765
   65MOL0    Cl 8684   4.744   3.507   3.868  0.1048 -0.0008 -0.4766
   65MOL0     C 8685   5.778   4.003   3.393 -0.1810  0.6461  0.4911
   65MOL0     C 8686   5.895   4.084   3.364  0.6802 -0.4357  0.4863
   65MOL0     O 8687   6.222   4.020   3.224  0.7355 -0.5502  0.2603
   65MOL0     C 8688   6.410   4.239   3.244  0.2344 -0.8224  0.3718
   65MOL0     C 8689   6.498   4.346   3.231 -0.2071 -0.1765 -0.2400
   65MOL0     N 8690   6.855   5.025   3.524  0.4608 -0.5705  0.2574
   65MOL0     N 8691   6.778   5.126   3.550  0.4304 -0.0982 -0.0811
   65MOL0     C 8692   5.916   5.769   3.899 -0.1393  0.1201 -0.4788
   65MOL0     C 8693   5.791   5.790   3.966 -0.5196  0.3401 -0.3653
   65MOL0     C 8694   5.483   5.726   4.323 -0.1516 -0.0380 -0.4471
   65MOL0     C 8695   5.363   5.752   4.259 -0.8588  0.6487  0.4459
   65MOL0     C 8696   5.240   5.763   4.327  0.2846 -0.1492 -1.2024
   65MOL0     C 8697   5.238   5.744   4.467 -0.3181 -0.9463  0.0159
   65MOL0     O 8698   5.131   5.758   4.557  0.3956  0.1367  0.3552
   65MOL0     C 8699   5.011   5.811   4.511  0.7619  0.3440  0.4279
   65MOL0     C 8700   4.899   5.781   4.609  0.2042 -0.5868 -0.1695
   65MOL0     C 8701   4.894   5.637   4.677 -0.1920 -0.4209  0.0315
   65MOL0     C 8702   4.758   5.600   4.739 -1.1765 -0.3189  0.7111
   65MOL0     C 8703   4.717   5.709   4.820  0.3828 -0.6167 -0.3521
   65MOL0     C 8704   4.672   5.806   4.885 -0.3084  0.3809  0.5117
   65MOL0     C 8705   5.351   5.705   4.532 -0.4759  0.2114 -1.0680
   65MOL0     C 8706   5.480   5.701   4.467  0.6350  0.1336  0.2010
   65MOL0     C 8707   5.604   5.656   4.541  0.6020 -0.4836 -0.0144
   65MOL0     H 8708   5.740   5.500   4.100 -0.6983 -0.1172 -1.6239
   65MOL0     H 8709   5.980   5.453   4.003  0.7932  0.1199  0.0041
   65MOL0     H 8710   6.131   5.759   3.704  0.0220  0.8522 -0.8877
   65MOL0     H 8711   6.218   5.792   3.860 -2.3197 -0.4323  1.5153
   65MOL0     H 8712   6.299   5.548   3.723  0.5560  0.5568  1.6451
   65MOL0     H 8713   6.392   5.673   3.797  1.9877  1.3436 -2.3793
   65MOL0     H 8714   6.321   5.813   3.570 -2.4713 -0.2997 -0.5127
   65MOL0     H 8715   6.274   5.677   3.511 -1.0608  1.8293 -0.7093
   65MOL0     H 8716   6.519   5.738   3.468 -0.6336 -0.4706  0.5183
   65MOL0     H 8717   6.548   5.721   3.640  2.5032 -1.7299 -0.3091
   65MOL0     H 8718   6.500   5.494   3.646  1.4185 -1.0501  0.4227
   65MOL0     H 8719   6.451   5.481   3.481 -1.4400 -1.9176  3.6725
   65MOL0     H 8720   6.698   5.566   3.424 -0.0672 -0.6545  0.9330
   65MOL0     H 8721   6.717   5.581   3.603  0.9943 -1.6345  1.3776
   65MOL0     H 8722   6.663   5.348   3.637  0.7403 -0.7032  0.3669
   65MOL0     H 8723   6.817   5.383   3.556  0.1696  2.1545 -1.8691
   65MOL0     H 8724   6.557   5.279   3.411  0.1110 -1.2300  2.4717
   65MOL0     H 8725   6.703   5.345   3.332  0.3360  0.3657 -0.3246
   65MOL0     H 8726   6.730   5.081   3.231  0.1831  1.3515 -0.0450
   65MOL0     H 8727   6.951   4.889   3.229 -0.1600 -0.6783 -0.4175
   65MOL0     H 8728   6.995   4.845   3.399 -1.1052 -1.6362  0.3615
   65MOL0     H 8729   6.911   4.667   3.312  0.8972  1.7142 -3.0044
   65MOL0     H 8730   6.789   4.729   3.429 -0.1395  1.1035  0.1013
   65MOL0     H 8731   6.766   4.731   3.129  1.4520  0.5552  0.5087
   65MOL0     H 8732   6.653   4.805   3.245 -3.0516 -2.5983 -0.1164
   65MOL0     H 8733   6.591   4.580   3.328 -0.0489 -0.2678 -0.0975
   65MOL0     H 8734   6.721   4.507   3.218 -1.5024 -0.7933 -2.1209
   65MOL0     H 8735   6.332   4.542   3.020  1.5237  1.6764  0.5369
   65MOL0     H 8736   6.165   4.367   3.051  1.3545 -2.3312 -2.6646
   65MOL0     H 8737   5.949   3.996   3.053 -0.3652 -0.1014  0.4839
   65MOL0     H 8738   5.739   3.867   3.089  1.7534  0.6704 -0.6944
   65MOL0     H 8739   5.622   3.784   3.520  1.9470 -0.4005 -1.5151
   65MOL0     H 8740   5.520   3.921   3.483 -2.2385 -0.7611 -0.8500
   65MOL0     H 8741   5.358   3.777   3.380 -1.3652 -1.5617  2.6141
   65MOL0     H 8742   5.456   3.633   3.420  0.8331 -1.1263  1.3112
   65MOL0     H 8743   5.438   3.677   3.650  1.7066  0.5834 -2.2557
   65MOL0     H 8744   5.368   3.835   3.625  0.7647 -0.4894  1.1677
   65MOL0     H 8745   5.246   3.573   3.533 -1.0340 -1.0756  1.3493
   65MOL0     H 8746   5.152   3.721   3.531 -1.0027 -0.9349  1.6612
   65MOL0     H 8747   5.155   3.744   3.776  0.2332 -0.0344  0.3922
   65MOL0     H 8748   5.269   3.617   3.802  0.8519  0.0055 -0.2068
   65MOL0     H 8749   4.992   3.558   3.691  0.5233 -0.9292 -1.5712
   65MOL0     H 8750   5.124   3.439   3.719 -0.8554 -0.0699 -2.2768
   65MOL0     H 8751   4.997   3.620   3.925 -1.7278  0.2301 -1.1366
   65MOL0     H 8752   5.107   3.494   3.962  2.4570  0.8059 -1.2463
   65MOL0     H 8753   4.912   3.332   3.834  1.4623 -1.2239  1.2306
   65MOL0     H 8754   4.898   3.383   4.000  0.1120  0.9552 -0.1288
   65MOL0     H 8755   5.752   4.009   3.498  0.3816 -2.0934  0.8590
   65MOL0     H 8756   5.950   4.136   3.442  4.5347 -0.7663 -1.7821
   65MOL0     H 8757   6.432   4.149   3.300  0.9646 -0.6492  0.3733
   65MOL0     H 8758   6.598   4.335   3.272 -0.4758 -3.3045 -0.1895
   65MOL0     H 8759   5.959   5.862   3.865  0.2863  0.2788  0.4697
   65MOL0     H 8760   5.750   5.890   3.959  0.8750  0.8980 -0.8338
   65MOL0     H 8761   5.357   5.781   4.155  1.3677  1.3482  0.4555
   65MOL0     H 8762   5.146   5.793   4.282  0.3526  3.0888  0.4794
   65MOL0     H 8763   4.994   5.750   4.422  1.0868  1.1134 -0.1660
   65MOL0     H 8764   5.014   5.917   4.487 -1.4351 -0.0154 -1.9181
   65MOL0     H 8765   4.804   5.806   4.563 -0.7272 -4.2048 -0.5298
   65MOL0     H 8766   4.927   5.850   4.689  0.7364 -0.7740 -0.1892
   65MOL0     H 8767   4.977   5.632   4.748  1.2922 -1.7674 -1.7070
   65MOL0     H 8768   4.916   5.561   4.602  1.3746  0.8135 -0.8025
   65MOL0     H 8769   4.679   5.582   4.665 -2.9696  0.2796  2.3945
   65MOL0     H 8770   4.759   5.507   4.798  0.6300 -2.5509 -2.5089
   65MOL0     H 8771   4.640   5.891   4.943 -0.5389  0.2323  0.6036
   65MOL0     H 8772   5.355   5.676   4.637  0.4395  2.2427 -0.4994
   65MOL0     H 8773   5.661   5.748   4.561  1.2353 -0.5698 -1.3134
   65MOL0     H 8774   5.588   5.607   4.637 -2.2382 -0.0503 -0.1734
   65MOL0     H 8775   5.656   5.594   4.467 -1.9024 -0.7430 -1.6623
   66MOL0     O 8776   1.823   8.858  11.008 -0.3959 -0.1539  0.8135
   66MOL0     C 8777   1.798   8.892  11.125  1.0996 -0.0174 -0.3002
   66MOL0     O 8778   1.856   8.846  11.235  0.0690  0.1915 -0.1716
   66MOL0     C 8779   1.985   8.810  11.239  0.3749  0.1029  0.4647
   66MOL0     C 8780   2.033   8.753  11.354 -0.4523 -0.3177 -0.6923
   66MOL0     C 8781   2.170   8.733  11.378  0.7174 -0.1101 -0.2776
   66MOL0     C 8782   2.262   8.775  11.288 -1.0188  0.0348  0.4443
   66MOL0     O 8783   2.396   8.780  11.327 -0.0671  0.3564  0.2613
   66MOL0     C 8784   2.493   8.837  11.245  0.1480 -0.6720 -0.0928
   66MOL0     C 8785   2.631   8.807  11.309  0.4940 -0.2373 -0.3693
   66MOL0     C 8786   2.645   8.855  11.451  0.5021  0.3731  0.1907
   66MOL0     C 8787   2.786   8.897  11.498  0.1594  0.3235 -0.4471
   66MOL0     C 8788   2.798   8.986  11.625  0.2656  0.5293  0.6767
   66MOL0     C 8789   2.739   8.902  11.743  0.1305 -0.6171 -0.9340
   66MOL0     C 8790   2.698   9.004  11.858  0.1175  0.2216 -0.8034
   66MOL0     C 8791   2.639   8.932  11.981 -0.1784  0.4195 -0.2054
   66MOL0     N 8792   2.731   8.833  12.049  0.0113  0.2251  0.4467
   66MOL0     C 8793   2.867   8.840  12.043 -0.3671  0.5932  0.3520
   66MOL0     C 8794   2.912   8.724  12.104  0.3826  0.5947  0.2960
   66MOL0     C 8795   3.051   8.679  12.089  0.2935 -0.6537  0.6038
   66MOL0     C 8796   3.133   8.734  12.212  0.8316 -0.5440  1.1803
   66MOL0     C 8797   3.279   8.671  12.203 -0.1037 -0.2202 -0.2277
   66MOL0     C 8798   3.379   8.708  12.306  0.3265 -0.3637  0.8018
   66MOL0     O 8799   3.327   8.693  12.433  0.0838  0.0236  0.1492
   66MOL0     C 8800   3.398   8.719  12.541  0.3891 -0.3634 -0.6680
   66MOL0     C 8801   3.348   8.684  12.670  0.1758 -0.2780 -0.3241
   66MOL0     C 8802   3.424   8.697  12.791 -0.1435 -0.4861  0.1905
   66MOL0     C 8803   3.556   8.749  12.775 -0.7739 -1.8214  0.5887
   66MOL0     C 8804   3.642   8.767  12.893  0.0628  0.4681  0.6900
   66MOL0     O 8805   3.604   8.699  13.012 -0.5095 -0.0878  0.4488
   66MOL0     C 8806   3.645   8.745  13.136 -0.5248  0.2582 -0.7150
   66MOL0     C 8807   3.772   8.797  13.170  0.2493 -1.2331  0.4236
   66MOL0     C 8808   3.814   8.819  13.299 -0.3807 -0.0461  0.1494
   66MOL0     C 8809   3.732   8.783  13.405 -0.0241  0.0072 -0.3573
   66MOL0     O 8810   3.772   8.777  13.536  0.0435  0.0252  0.5248
   66MOL0     C 8811   3.892   8.705  13.563  0.5286  0.0200  0.9670
   66MOL0     C 8812   3.921   8.716  13.707  0.3368 -0.5258  0.7136
   66MOL0     C 8813   3.836   8.648  13.810 -0.0231  0.0204  0.4486
   66MOL0     C 8814   3.913   8.612  13.940 -0.6962 -0.3266 -0.0957
   66MOL0     C 8815   3.844   8.519  14.040  0.3814  0.2243 -0.3469
   66MOL0     C 8816   3.827   8.369  14.013  0.6151  0.8122  0.2873
   66MOL0     C 8817   3.910   8.280  14.103  1.0014  0.2824  0.0663
   66MOL0     C 8818   3.872   8.135  14.072  0.2823 -0.0318  0.9404
   66MOL0    Cl 8819   4.009   8.046  14.145  0.1379 -0.5884 -0.0015
   66MOL0     C 8820   3.597   8.746  13.376  0.1450 -0.0479 -0.3480
   66MOL0     C 8821   3.555   8.716  13.245 -0.8729  0.1289  0.3534
   66MOL0     O 8822   3.733   8.851  12.884 -0.0055 -0.0483  0.4936
   66MOL0     C 8823   3.599   8.801  12.651 -0.0597  0.9201  0.4835
   66MOL0     C 8824   3.521   8.780  12.535  0.4286 -0.8220 -0.6471
   66MOL0     N 8825   2.803   8.649  12.144  0.4301  0.5900  0.0186
   66MOL0     N 8826   2.693   8.722  12.113  0.0511  0.4724  0.3506
   66MOL0     C 8827   2.221   8.824  11.159 -0.0609 -0.2453 -0.0397
   66MOL0     C 8828   2.081   8.841  11.139  0.1360  0.3474 -0.5721
   66MOL0     C 8829   1.714   9.011  11.138  0.3353 -0.1572  0.3507
   66MOL0     C 8830   1.738   9.103  11.244  0.4864  0.3391 -0.1486
   66MOL0     C 8831   1.668   9.213  11.258 -0.3720 -0.1584 -0.8263
   66MOL0     C 8832   1.552   9.237  11.188 -0.6106 -0.0310  0.2983
   66MOL0     O 8833   1.481   9.353  11.224 -0.6866  1.2693 -0.0122
   66MOL0     C 8834   1.356   9.376  11.163 -0.7196 -0.2852 -0.1373
   66MOL0     C 8835   1.292   9.487  11.253  0.2021  0.0083  0.3428
   66MOL0     C 8836   1.143   9.504  11.212 -0.1411  0.0829  0.7722
   66MOL0     C 8837   1.084   9.617  11.301 -0.4551  0.0812 -0.5233
   66MOL0     C 8838   1.157   9.742  11.285  0.0024 -0.1061  0.0029
   66MOL0     C 8839   1.227   9.836  11.283  0.4828 -0.2918 -0.4404
   66MOL0     C 8840   1.520   9.151  11.080  1.2416  0.3161 -0.1537
   66MOL0     C 8841   1.592   9.040  11.055 -0.1695  0.0164 -0.5154
   66MOL0     C 8842   1.545   8.951  10.943 -0.1026  0.0886 -0.2027
   66MOL0     H 8843   1.961   8.727  11.431  0.3091 -3.3668 -0.8832
   66MOL0     H 8844   2.205   8.698  11.475 -0.3105 -0.7871 -0.1316
   66MOL0     H 8845   2.499   8.791  11.146 -0.2745 -0.5367 -0.1834
   66MOL0     H 8846   2.475   8.945  11.246  0.8690 -0.3503 -4.3685
   66MOL0     H 8847   2.707   8.859  11.250  0.0333 -0.7428 -1.4216
   66MOL0     H 8848   2.644   8.699  11.313 -0.0887 -0.3539  4.4915
   66MOL0     H 8849   2.602   8.783  11.522  1.9707 -0.3623  0.3708
   66MOL0     H 8850   2.571   8.935  11.466 -0.5043 -0.2373 -1.2333
   66MOL0     H 8851   2.834   8.799  11.501 -1.0667 -0.6184 -4.8337
   66MOL0     H 8852   2.847   8.951  11.425  0.0923  2.2081  0.8014
   66MOL0     H 8853   2.899   9.026  11.637 -1.0246  3.2546  4.2966
   66MOL0     H 8854   2.735   9.072  11.602  0.3723  0.6503  0.8353
   66MOL0     H 8855   2.650   8.846  11.713  0.3691 -1.3937 -0.2492
   66MOL0     H 8856   2.815   8.827  11.767  3.2060  2.2981 -0.7614
   66MOL0     H 8857   2.621   9.074  11.825  0.3443  0.3309 -1.0972
   66MOL0     H 8858   2.786   9.063  11.885  1.1054 -1.1193 -0.9769
   66MOL0     H 8859   2.618   9.004  12.060  0.9556  2.4239 -1.6238
   66MOL0     H 8860   2.547   8.877  11.960 -1.5945  2.4078  0.5024
   66MOL0     H 8861   2.926   8.919  11.998 -1.4959  2.2552  1.6498
   66MOL0     H 8862   3.053   8.570  12.085  0.0938 -0.6492 -2.9097
   66MOL0     H 8863   3.093   8.714  11.994 -1.9915 -0.1189 -0.2887
   66MOL0     H 8864   3.147   8.843  12.213 -0.9977 -0.2634  2.8081
   66MOL0     H 8865   3.092   8.707  12.309  2.6886 -0.8782  1.9121
   66MOL0     H 8866   3.328   8.695  12.109 -1.6019  0.0377 -0.9622
   66MOL0     H 8867   3.272   8.562  12.210  1.2151 -0.3220 -0.2114
   66MOL0     H 8868   3.416   8.808  12.281  0.7803 -1.2170 -2.3952
   66MOL0     H 8869   3.467   8.646  12.289  3.2707  3.6066 -0.1438
   66MOL0     H 8870   3.246   8.653  12.689 -0.8216  2.1116 -1.4971
   66MOL0     H 8871   3.383   8.663  12.885  0.9805 -0.0724  0.8489
   66MOL0     H 8872   3.839   8.820  13.087  1.3749  0.3180  1.6939
   66MOL0     H 8873   3.914   8.843  13.334 -0.9378  0.7679  1.2310
   66MOL0     H 8874   3.878   8.598  13.544 -2.1180  0.8947 -3.4958
   66MOL0     H 8875   3.980   8.734  13.505  0.2967 -0.3098  0.4412
   66MOL0     H 8876   4.019   8.669  13.723  0.9578  1.2269  2.3206
   66MOL0     H 8877   3.918   8.823  13.726 -0.9894 -0.2889 -0.5963
   66MOL0     H 8878   3.746   8.706  13.827  0.2864  1.8786 -3.2355
   66MOL0     H 8879   3.799   8.554  13.767 -0.0160  1.0938 -2.1110
   66MOL0     H 8880   3.938   8.708  13.987 -0.3884  0.4969 -1.8635
   66MOL0     H 8881   4.007   8.568  13.908 -2.2656 -3.6944 -0.5164
   66MOL0     H 8882   3.746   8.566  14.053  1.3187  1.4888  3.9210
   66MOL0     H 8883   3.897   8.530  14.135 -1.1436  2.1821  0.3523
   66MOL0     H 8884   3.721   8.349  14.025  0.3842  1.1457 -1.0060
   66MOL0     H 8885   3.850   8.353  13.907 -0.3839  2.8444 -0.2818
   66MOL0     H 8886   3.888   8.291  14.209 -2.7556 -1.6769 -0.3370
   66MOL0     H 8887   4.017   8.299  14.089  0.5468  2.5082 -0.9275
   66MOL0     H 8888   3.775   8.104  14.112 -0.9030  0.7688 -1.1186
   66MOL0     H 8889   3.860   8.116  13.965 -3.2454 -1.0807  1.3698
   66MOL0     H 8890   3.525   8.738  13.457 -0.1846 -0.7074 -0.7020
   66MOL0     H 8891   3.465   8.665  13.212  1.3776 -1.9812 -3.2480
   66MOL0     H 8892   3.677   8.874  12.638 -0.0289  0.8251  0.1206
   66MOL0     H 8893   3.575   8.821  12.450  1.6231  1.7035  1.1835
   66MOL0     H 8894   2.284   8.857  11.077 -0.0552 -1.9034 -0.7365
   66MOL0     H 8895   2.051   8.901  11.054 -0.2149  0.1156 -0.6119
   66MOL0     H 8896   1.808   9.068  11.319 -0.6449 -0.8931  0.3796
   66MOL0     H 8897   1.699   9.278  11.339 -1.6590 -1.7423  1.0304
   66MOL0     H 8898   1.292   9.287  11.159 -2.5174  0.8295  1.5785
   66MOL0     H 8899   1.371   9.419  11.064 -1.7439 -2.6787 -1.4254
   66MOL0     H 8900   1.347   9.580  11.233  0.4934  0.4662  2.9890
   66MOL0     H 8901   1.317   9.460  11.355 -0.0723 -1.7402 -0.0235
   66MOL0     H 8902   1.084   9.414  11.229  2.6863 -2.1657 -0.5085
   66MOL0     H 8903   1.126   9.532  11.108 -3.7906 -0.6133  1.0563
   66MOL0     H 8904   0.977   9.626  11.276 -0.8725  0.0613  1.1742
   66MOL0     H 8905   1.088   9.581  11.404 -0.8195  0.1415 -0.4856
   66MOL0     H 8906   1.289   9.924  11.281  0.8370 -0.5479 -1.1452
   66MOL0     H 8907   1.442   9.181  11.010  0.1679  1.7255  1.5473
   66MOL0     H 8908   1.444   8.979  10.911  0.0186  1.0846  0.2321
   66MOL0     H 8909   1.617   8.945  10.861  0.9560  0.5856  0.6671
   66MOL0     H 8910   1.540   8.852  10.987 -0.1881 -0.5999 -1.6967
   67MOL0     O 8911  11.005   6.905   2.569  0.2546 -0.2190  0.0658
   67MOL0     C 8912  11.029   6.848   2.464  1.0976  0.1066  0.0920
   67MOL0     O 8913  11.157   6.837   2.419  0.1029 -0.0637 -0.0993
   67MOL0     C 8914  11.253   6.912   2.474 -0.3938 -0.3178 -0.8171
   67MOL0     C 8915  11.355   6.927   2.382 -0.3156 -0.1848  0.9368
   67MOL0     C 8916  11.480   6.990   2.415 -0.4896 -0.5075 -0.9076
   67MOL0     C 8917  11.494   7.068   2.527 -0.6573  0.0079  0.0218
   67MOL0     O 8918  11.612   7.141   2.546  0.3488 -0.3135 -0.4571
   67MOL0     C 8919  11.638   7.163   2.688 -1.0661  0.6570  0.4349
   67MOL0     C 8920  11.784   7.189   2.686  0.4690 -0.1927 -0.0044
   67MOL0     C 8921  11.873   7.067   2.662  0.1029  0.3700 -0.6738
   67MOL0     C 8922  12.013   7.110   2.615  0.3854 -0.7524 -0.7422
   67MOL0     C 8923  12.102   6.986   2.595  0.3037 -0.1041 -0.5831
   67MOL0     C 8924  12.227   7.019   2.508 -0.8102  0.0280 -0.4053
   67MOL0     C 8925  12.326   6.903   2.489  0.3366  0.3444 -0.9730
   67MOL0     C 8926  12.432   6.967   2.393 -0.2711 -0.1051  0.9531
   67MOL0     N 8927  12.560   6.892   2.368  0.3805  1.2803 -1.1136
   67MOL0     C 8928  12.580   6.754   2.365 -0.1233  0.2494 -0.4209
   67MOL0     C 8929  12.706   6.735   2.322  0.2637  0.2514  0.1710
   67MOL0     C 8930  12.759   6.594   2.314  0.1171  0.0714  0.1807
   67MOL0     C 8931  12.764   6.515   2.447 -0.3603 -0.3380 -0.8158
   67MOL0     C 8932  12.796   6.358   2.430 -0.7972  0.5039 -0.4797
   67MOL0     C 8933  12.806   6.283   2.560 -0.3641 -0.1146  0.0946
   67MOL0     O 8934  12.872   6.153   2.541  0.7843  0.3564  0.2000
   67MOL0     C 8935  13.000   6.132   2.578  0.0480 -0.1100 -0.0303
   67MOL0     C 8936  13.099   6.227   2.605 -1.0550  0.0558 -0.3555
   67MOL0     C 8937  13.236   6.197   2.631  0.4533  0.4994 -0.3203
   67MOL0     C 8938  13.276   6.060   2.632 -1.0433  0.1169  1.2715
   67MOL0     C 8939  13.415   6.024   2.663 -0.2610  0.0652 -0.1245
   67MOL0     O 8940  13.488   6.120   2.722 -0.0439  0.4797  0.4059
   67MOL0     C 8941  13.610   6.075   2.766 -0.1753  0.2724  0.7382
   67MOL0     C 8942  13.614   5.993   2.880 -0.8430  0.0441  0.3741
   67MOL0     C 8943  13.734   5.933   2.916  0.2506 -0.3883 -0.9096
   67MOL0     C 8944  13.852   5.987   2.859  0.6052 -0.6993 -0.1675
   67MOL0     O 8945  13.980   5.967   2.907 -0.7099 -0.4686  0.4542
   67MOL0     C 8946  14.022   5.925   3.035 -0.2859 -0.0744 -0.2896
   67MOL0     C 8947  14.167   5.963   3.045 -0.1632  0.0313 -0.0399
   67MOL0     C 8948  14.239   5.879   2.944  0.3032  1.3681  0.5284
   67MOL0     C 8949  14.386   5.927   2.940  0.3978 -0.6306 -0.1218
   67MOL0     C 8950  14.460   5.852   2.827 -0.1182 -0.5480 -1.0069
   67MOL0     C 8951  14.611   5.880   2.847  0.7495 -0.5273 -0.7355
   67MOL0     C 8952  14.701   5.803   2.752 -0.3536  0.0403  0.9567
   67MOL0     C 8953  14.853   5.810   2.783  0.7338 -0.1967 -0.0699
   67MOL0    Cl 8954  14.894   5.981   2.761 -0.2924 -0.3721 -0.4716
   67MOL0     C 8955  13.847   6.064   2.740  0.4047  0.7044 -0.7431
   67MOL0     C 8956  13.719   6.106   2.691  0.0838  0.2001 -0.0383
   67MOL0     O 8957  13.449   5.904   2.643 -0.2680  0.4385  0.7766
   67MOL0     C 8958  13.182   5.966   2.597  0.9834  0.7599  0.3676
   67MOL0     C 8959  13.049   5.998   2.573  0.0379  0.0429 -0.0892
   67MOL0     N 8960  12.770   6.860   2.302 -0.3227  0.1271  0.2235
   67MOL0     N 8961  12.682   6.950   2.341 -0.4803 -0.7038  0.5633
   67MOL0     C 8962  11.392   7.063   2.619  0.0385  0.0874  0.0969
   67MOL0     C 8963  11.277   6.980   2.594  0.1575 -1.4100 -0.2205
   67MOL0     C 8964  10.921   6.785   2.387  0.1521  0.7360  1.1329
   67MOL0     C 8965  10.959   6.718   2.268 -0.1814 -0.0147  0.7987
   67MOL0     C 8966  10.865   6.647   2.192 -0.0478 -0.7966  0.1346
   67MOL0     C 8967  10.732   6.643   2.238 -0.8758 -0.0896  0.4526
   67MOL0     O 8968  10.639   6.578   2.170 -0.5173  0.5848 -0.2126
   67MOL0     C 8969  10.562   6.477   2.246  0.1061  0.7662  0.3891
   67MOL0     C 8970  10.613   6.337   2.219  0.1590  0.0395  0.3981
   67MOL0     C 8971  10.641   6.254   2.335 -0.2893  0.3069 -0.2709
   67MOL0     C 8972  10.510   6.172   2.385  0.0888  0.7979 -0.1792
   67MOL0     C 8973  10.555   6.080   2.492  0.1322  0.4638 -0.1045
   67MOL0     C 8974  10.604   6.007   2.580  0.8085 -0.4100  0.9543
   67MOL0     C 8975  10.697   6.708   2.347 -0.1782  0.4394 -0.8710
   67MOL0     C 8976  10.787   6.782   2.426  0.8278  0.0535  0.9199
   67MOL0     C 8977  10.713   6.855   2.529 -0.1431 -1.1258 -0.1381
   67MOL0     H 8978  11.331   6.881   2.287  0.9028 -0.5573  0.7877
   67MOL0     H 8979  11.565   6.993   2.348  0.9125 -2.6561  0.6559
   67MOL0     H 8980  11.586   7.251   2.729  0.4977  1.2229  1.2891
   67MOL0     H 8981  11.624   7.077   2.754  3.7170 -1.7814 -1.2885
   67MOL0     H 8982  11.795   7.231   2.786 -1.7363  1.1527 -0.2566
   67MOL0     H 8983  11.809   7.269   2.614 -0.3166 -0.4488 -0.5820
   67MOL0     H 8984  11.834   6.988   2.597  1.2800  0.3257 -1.3495
   67MOL0     H 8985  11.885   7.020   2.760  2.9958  0.1778 -1.0276
   67MOL0     H 8986  12.002   7.153   2.515  0.4604 -0.9585 -0.8409
   67MOL0     H 8987  12.056   7.189   2.677  0.2789  1.3845 -3.2243
   67MOL0     H 8988  12.137   6.941   2.688  1.9805 -0.2247 -1.2417
   67MOL0     H 8989  12.049   6.911   2.536  0.5083 -0.4682 -0.3010
   67MOL0     H 8990  12.203   7.058   2.409  3.2198  3.3018 -0.3614
   67MOL0     H 8991  12.275   7.096   2.568 -3.4892  1.1506  0.4284
   67MOL0     H 8992  12.292   6.815   2.435  0.0188 -0.3723  0.3515
   67MOL0     H 8993  12.376   6.867   2.579 -0.5977 -0.0023 -0.5889
   67MOL0     H 8994  12.382   6.980   2.297  1.3213  0.0095  0.1064
   67MOL0     H 8995  12.448   7.067   2.435 -2.4745  0.5228  0.4024
   67MOL0     H 8996  12.509   6.677   2.390 -1.5228  1.7913  0.5958
   67MOL0     H 8997  12.690   6.547   2.243 -0.4593 -0.8295  1.3137
   67MOL0     H 8998  12.860   6.595   2.272  0.1611 -3.4412 -0.0621
   67MOL0     H 8999  12.834   6.565   2.515 -0.9351 -2.3619  1.4126
   67MOL0     H 9000  12.665   6.524   2.493 -0.9524 -0.6133 -2.0114
   67MOL0     H 9001  12.897   6.349   2.390 -0.8439 -1.2021 -0.2590
   67MOL0     H 9002  12.715   6.320   2.366 -0.2449  0.6102 -1.2471
   67MOL0     H 9003  12.709   6.251   2.600 -0.4930 -0.5733 -0.5569
   67MOL0     H 9004  12.852   6.354   2.629 -1.1646  0.7739 -0.2510
   67MOL0     H 9005  13.078   6.333   2.592 -1.4723 -0.0162 -0.2937
   67MOL0     H 9006  13.307   6.279   2.637 -0.6667  1.4353  0.7303
   67MOL0     H 9007  13.516   5.969   2.921 -1.0403 -1.1014 -0.7118
   67MOL0     H 9008  13.741   5.867   3.002  1.6610 -0.4732 -1.0802
   67MOL0     H 9009  13.959   5.973   3.111 -0.1561 -0.0128 -0.2216
   67MOL0     H 9010  14.006   5.817   3.040 -0.5632 -0.0004  0.5347
   67MOL0     H 9011  14.170   6.070   3.023  1.1961  0.1328  0.5747
   67MOL0     H 9012  14.209   5.945   3.144 -1.6997  2.6771  1.1952
   67MOL0     H 9013  14.228   5.773   2.968 -3.4848  0.7240 -2.9341
   67MOL0     H 9014  14.199   5.882   2.843 -0.5732  0.7723  0.8481
   67MOL0     H 9015  14.434   5.906   3.036  1.2255 -1.0229 -0.6132
   67MOL0     H 9016  14.385   6.036   2.927 -1.0302 -0.5999  0.0818
   67MOL0     H 9017  14.430   5.882   2.726  0.9607  2.0919 -0.6301
   67MOL0     H 9018  14.454   5.743   2.828  0.2728 -0.5663 -0.3738
   67MOL0     H 9019  14.629   5.988   2.856 -1.5810 -0.1143 -0.3828
   67MOL0     H 9020  14.617   5.837   2.948 -2.4324 -0.1339 -0.2847
   67MOL0     H 9021  14.688   5.843   2.651 -5.0328 -4.0868 -0.4850
   67MOL0     H 9022  14.661   5.701   2.757  1.8287 -0.8371  2.3609
   67MOL0     H 9023  14.854   5.790   2.891 -1.4191  1.5809  0.3329
   67MOL0     H 9024  14.900   5.727   2.729 -3.2979 -2.1512 -0.9352
   67MOL0     H 9025  13.942   6.091   2.695  0.0570  0.5249 -1.6097
   67MOL0     H 9026  13.712   6.167   2.602  0.2767  1.1925  0.6116
   67MOL0     H 9027  13.204   5.863   2.572 -0.8441  0.6133 -0.8278
   67MOL0     H 9028  12.991   5.915   2.533  0.0940 -0.8937  1.6656
   67MOL0     H 9029  11.377   7.129   2.703  0.7839 -1.1412  1.2488
   67MOL0     H 9030  11.207   6.982   2.677 -0.2321  1.8380 -0.5003
   67MOL0     H 9031  11.060   6.713   2.229 -2.4936 -2.5278 -6.1874
   67MOL0     H 9032  10.873   6.585   2.103 -3.1872 -0.8357 -0.2388
   67MOL0     H 9033  10.464   6.475   2.197  0.2025  1.2725  0.1620
   67MOL0     H 9034  10.547   6.498   2.353 -1.4351 -0.1582  0.3818
   67MOL0     H 9035  10.710   6.345   2.171 -0.2165  2.8026 -0.0673
   67MOL0     H 9036  10.545   6.288   2.149 -0.2845  1.4677 -0.2121
   67MOL0     H 9037  10.687   6.319   2.411 -1.0415 -0.1014  0.5540
   67MOL0     H 9038  10.716   6.178   2.309 -0.7914 -2.2306  4.5337
   67MOL0     H 9039  10.422   6.223   2.426  0.2239  0.2490  0.8233
   67MOL0     H 9040  10.473   6.112   2.301  1.5014 -0.9397  0.3970
   67MOL0     H 9041  10.642   5.938   2.652 -1.7799 -0.2484  2.6147
   67MOL0     H 9042  10.591   6.694   2.366 -0.0101 -1.4732 -1.1661
   67MOL0     H 9043  10.753   6.957   2.533  1.2445 -1.6788  0.4671
   67MOL0     H 9044  10.605   6.858   2.512 -0.5704 -5.5460  0.6107
   67MOL0     H 9045  10.743   6.806   2.621  2.1452 -3.1393 -1.8156
   68MOL0     O 9046   7.358   3.791   0.882  0.6294  0.1957 -0.2477
   68MOL0     C 9047   7.265   3.711   0.915 -0.2069  0.3823  0.3147
   68MOL0     O 9048   7.180   3.645   0.822  0.3992  0.2371  0.9214
   68MOL0     C 9049   7.225   3.637   0.690 -0.0281  0.2621 -0.6073
   68MOL0     C 9050   7.148   3.672   0.586 -0.1120 -0.4129  0.2833
   68MOL0     C 9051   7.198   3.663   0.456 -0.5451 -0.1064 -0.2714
   68MOL0     C 9052   7.325   3.607   0.436  0.4343 -0.3014 -0.3324
   68MOL0     O 9053   7.393   3.616   0.318  0.3380 -0.0952 -0.2358
   68MOL0     C 9054   7.323   3.557   0.203 -0.1123  0.3130 -1.0029
   68MOL0     C 9055   7.413   3.538   0.085  0.2250 -0.2055 -1.7130
   68MOL0     C 9056   7.359   3.463  -0.035 -0.0280 -0.4518 -0.5182
   68MOL0     C 9057   7.472   3.376  -0.097 -0.2021 -0.5696 -0.0405
   68MOL0     C 9058   7.597   3.456  -0.160  0.4859  0.9504 -0.1824
   68MOL0     C 9059   7.723   3.372  -0.155 -0.1269  0.5850  0.7524
   68MOL0     C 9060   7.825   3.414  -0.265  0.0258 -0.2543  0.0726
   68MOL0     C 9061   7.957   3.344  -0.245 -0.5097  0.0923  0.8578
   68MOL0     N 9062   8.035   3.422  -0.134  0.3887 -0.3871  0.6931
   68MOL0     C 9063   8.061   3.554  -0.143  0.2826 -0.0056 -1.0623
   68MOL0     C 9064   8.146   3.569  -0.032 -0.2673  1.0695  0.0830
   68MOL0     C 9065   8.232   3.693  -0.010  0.5091  0.2642 -0.2213
   68MOL0     C 9066   8.170   3.798   0.084 -0.0820  0.3607 -0.1284
   68MOL0     C 9067   8.149   3.755   0.233  0.8248  0.0154  0.6549
   68MOL0     C 9068   8.282   3.765   0.312  0.2808  0.2720  0.0066
   68MOL0     O 9069   8.396   3.718   0.240  0.2699  0.0020  0.0951
   68MOL0     C 9070   8.524   3.760   0.274 -0.7994 -0.1428  0.6060
   68MOL0     C 9071   8.626   3.745   0.178 -1.4910 -0.3411 -0.0063
   68MOL0     C 9072   8.765   3.760   0.213 -0.5322 -0.7863  0.8696
   68MOL0     C 9073   8.795   3.776   0.346  0.0174  0.5309  0.1566
   68MOL0     C 9074   8.937   3.797   0.382 -0.6453  0.1135 -0.8716
   68MOL0     O 9075   8.965   3.810   0.520 -0.1106 -0.1525  0.1230
   68MOL0     C 9076   9.083   3.825   0.589  0.0951 -0.6710 -0.1229
   68MOL0     C 9077   9.215   3.801   0.559  0.1522 -0.2577 -0.1104
   68MOL0     C 9078   9.320   3.859   0.638 -0.3810 -0.5170  0.0221
   68MOL0     C 9079   9.295   3.908   0.767 -0.5349 -0.3634 -0.1584
   68MOL0     O 9080   9.403   3.951   0.848 -0.5036 -0.6812  0.1744
   68MOL0     C 9081   9.525   4.024   0.787 -0.1598  0.2001  0.8395
   68MOL0     C 9082   9.602   4.085   0.904 -0.2433 -0.0461 -0.5532
   68MOL0     C 9083   9.530   4.208   0.958 -0.5626 -0.2454 -0.0830
   68MOL0     C 9084   9.572   4.238   1.101 -0.4757 -0.2755 -0.2343
   68MOL0     C 9085   9.492   4.365   1.157  0.2507  0.4137 -0.8691
   68MOL0     C 9086   9.535   4.388   1.299 -0.3827 -0.3485  0.5760
   68MOL0     C 9087   9.426   4.482   1.363  0.0100 -0.8415  0.7980
   68MOL0     C 9088   9.467   4.526   1.505 -0.1664 -0.5431 -0.3559
   68MOL0    Cl 9089   9.615   4.621   1.503  0.3280  0.1256 -0.0181
   68MOL0     C 9090   9.156   3.920   0.808  0.0695  0.2155  0.2005
   68MOL0     C 9091   9.053   3.881   0.716 -0.7888 -0.3146  0.0357
   68MOL0     O 9092   9.026   3.789   0.293  0.9404  0.0656 -0.0019
   68MOL0     C 9093   8.697   3.804   0.436 -0.2541  0.1565 -0.2575
   68MOL0     C 9094   8.562   3.798   0.401  0.6243  0.1134  0.1104
   68MOL0     N 9095   8.150   3.450   0.035 -0.2370  0.1387  0.1147
   68MOL0     N 9096   8.082   3.358  -0.026 -0.6394  0.9900 -0.1095
   68MOL0     C 9097   7.405   3.577   0.544  0.2171  0.3734  0.7393
   68MOL0     C 9098   7.352   3.588   0.668  0.2910 -0.3224  0.3628
   68MOL0     C 9099   7.248   3.675   1.062  0.2242 -0.1717 -0.0741
   68MOL0     C 9100   7.147   3.579   1.090 -0.6143 -0.3251  0.3786
   68MOL0     C 9101   7.103   3.568   1.223  0.0008  0.2207  0.1387
   68MOL0     C 9102   7.151   3.639   1.329  0.8793 -0.0443 -0.0432
   68MOL0     O 9103   7.101   3.605   1.455  0.2088  0.0631 -0.3747
   68MOL0     C 9104   7.133   3.698   1.558  0.3477  0.0956  0.1955
   68MOL0     C 9105   7.214   3.645   1.675 -0.2973 -0.2172  0.3190
   68MOL0     C 9106   7.125   3.540   1.746  0.6413 -0.5245 -0.8063
   68MOL0     C 9107   7.186   3.474   1.876 -0.1875 -0.0584 -0.3653
   68MOL0     C 9108   7.224   3.575   1.979  0.2252  0.8174 -0.2194
   68MOL0     C 9109   7.249   3.647   2.071 -0.5098  0.2683 -0.1977
   68MOL0     C 9110   7.266   3.712   1.300  0.3702 -0.7778  1.2589
   68MOL0     C 9111   7.312   3.743   1.172 -0.5128  1.7793 -0.1034
   68MOL0     C 9112   7.407   3.856   1.158 -0.6757  0.6624 -0.6685
   68MOL0     H 9113   7.054   3.724   0.603  0.9256  0.8222  2.8142
   68MOL0     H 9114   7.128   3.699   0.382 -0.6798 -0.0676 -0.1259
   68MOL0     H 9115   7.273   3.465   0.235  2.2271 -0.4523  0.7676
   68MOL0     H 9116   7.252   3.633   0.170  1.4341  2.2274 -0.1590
   68MOL0     H 9117   7.501   3.478   0.111 -0.3644 -0.2464  0.3067
   68MOL0     H 9118   7.444   3.633   0.042  2.7235  0.7851  1.7897
   68MOL0     H 9119   7.315   3.536  -0.103 -0.1360  1.7684  1.8013
   68MOL0     H 9120   7.280   3.396   0.002  1.8268 -1.7629  1.2955
   68MOL0     H 9121   7.503   3.309  -0.017  1.9275  2.8885  2.3397
   68MOL0     H 9122   7.433   3.317  -0.180 -0.0692  0.5426 -0.9353
   68MOL0     H 9123   7.572   3.489  -0.261 -2.8360  0.2668  0.3078
   68MOL0     H 9124   7.627   3.537  -0.093  2.1040 -1.2089  1.8806
   68MOL0     H 9125   7.761   3.390  -0.054 -1.6941  0.0743  1.4649
   68MOL0     H 9126   7.697   3.266  -0.162 -0.3129  0.7113 -0.7097
   68MOL0     H 9127   7.843   3.521  -0.280  1.0135 -0.3413  0.5211
   68MOL0     H 9128   7.784   3.381  -0.361 -0.1866 -1.1309  0.4559
   68MOL0     H 9129   7.957   3.239  -0.216 -2.6748 -0.2686 -0.2261
   68MOL0     H 9130   8.017   3.357  -0.336 -0.6802 -2.2694  0.3383
   68MOL0     H 9131   8.036   3.624  -0.222 -4.3942 -0.7805 -0.5700
   68MOL0     H 9132   8.334   3.668   0.020  0.7815  2.4656  0.9213
   68MOL0     H 9133   8.240   3.746  -0.105 -0.0740  3.7146  1.4768
   68MOL0     H 9134   8.228   3.891   0.080  3.1956 -1.5651 -1.6751
   68MOL0     H 9135   8.069   3.808   0.043 -0.0454 -0.8365 -0.5384
   68MOL0     H 9136   8.108   3.655   0.217  0.4218  0.1406  0.8713
   68MOL0     H 9137   8.073   3.820   0.278  0.2940 -0.8555  1.0361
   68MOL0     H 9138   8.271   3.707   0.403 -0.5681  1.8788  0.9736
   68MOL0     H 9139   8.301   3.871   0.333  0.2008  0.3612 -0.3531
   68MOL0     H 9140   8.611   3.720   0.073  0.6000  1.8385 -0.9395
   68MOL0     H 9141   8.849   3.750   0.145  0.3782  0.3498  1.7755
   68MOL0     H 9142   9.245   3.751   0.467  3.0581  2.1315 -0.6038
   68MOL0     H 9143   9.422   3.846   0.605 -0.0374 -1.7641  1.4519
   68MOL0     H 9144   9.591   3.961   0.726 -1.5875 -1.6571  1.1345
   68MOL0     H 9145   9.503   4.104   0.715  1.1422 -0.9025 -0.8807
   68MOL0     H 9146   9.615   4.014   0.986  0.7685  1.2160  0.4280
   68MOL0     H 9147   9.704   4.116   0.878 -0.1895 -0.2850 -0.6355
   68MOL0     H 9148   9.550   4.302   0.905 -2.3008  1.2107  1.6920
   68MOL0     H 9149   9.424   4.184   0.969 -0.1465 -1.4977  1.5081
   68MOL0     H 9150   9.678   4.268   1.101 -0.2380 -1.0064 -1.6177
   68MOL0     H 9151   9.550   4.152   1.166 -2.6790 -0.4430 -1.1161
   68MOL0     H 9152   9.385   4.344   1.149  0.4317 -0.4475 -1.0756
   68MOL0     H 9153   9.499   4.458   1.099 -2.5999  3.0980  2.5826
   68MOL0     H 9154   9.557   4.299   1.358 -0.5500  1.1710  3.0406
   68MOL0     H 9155   9.627   4.446   1.288  0.6693 -1.9103  0.8136
   68MOL0     H 9156   9.331   4.428   1.352  0.8742 -2.0069 -1.5478
   68MOL0     H 9157   9.412   4.573   1.305  0.7699  0.2602  2.2605
   68MOL0     H 9158   9.393   4.585   1.559  0.3770 -0.0781 -0.1115
   68MOL0     H 9159   9.479   4.433   1.561  0.4956  1.2402  2.6825
   68MOL0     H 9160   9.138   3.961   0.906 -3.6574  0.6096 -0.5084
   68MOL0     H 9161   8.953   3.919   0.733 -0.3863  0.8115  0.0184
   68MOL0     H 9162   8.726   3.821   0.540  0.5160 -2.9345  0.1492
   68MOL0     H 9163   8.488   3.799   0.481  1.9973  0.5507  1.4312
   68MOL0     H 9164   7.507   3.547   0.521  0.8855  2.0822  1.2569
   68MOL0     H 9165   7.412   3.564   0.756  0.8203  0.6020  0.2662
   68MOL0     H 9166   7.101   3.517   1.014  1.1288 -1.9065  0.5492
   68MOL0     H 9167   7.026   3.494   1.241  1.5488 -0.8062  3.1102
   68MOL0     H 9168   7.039   3.736   1.596  0.5123 -2.6210  3.9239
   68MOL0     H 9169   7.178   3.792   1.525 -0.1671  0.2674 -0.0194
   68MOL0     H 9170   7.261   3.721   1.739  1.8600 -0.9722 -0.2657
   68MOL0     H 9171   7.300   3.597   1.627 -1.2052 -3.4024  1.6029
   68MOL0     H 9172   7.089   3.461   1.680 -0.3684  0.1870 -1.1261
   68MOL0     H 9173   7.036   3.590   1.784 -0.7528 -2.8070 -0.8907
   68MOL0     H 9174   7.118   3.409   1.931 -1.7943  3.1398  1.6941
   68MOL0     H 9175   7.274   3.413   1.852 -0.6435 -1.7526  1.9782
   68MOL0     H 9176   7.263   3.731   2.136  0.4685  0.8428 -1.1069
   68MOL0     H 9177   7.318   3.769   1.377  1.0409 -1.5582  1.3919
   68MOL0     H 9178   7.354   3.947   1.127 -1.5980  1.2192  2.2288
   68MOL0     H 9179   7.453   3.888   1.252  2.1694 -2.0101 -1.0098
   68MOL0     H 9180   7.485   3.828   1.088 -0.3017 -1.4587  0.5160
   69MOL0     O 9181   3.205   2.821   2.983 -0.8220  0.0458  0.9136
   69MOL0     C 9182   3.159   2.827   3.097  0.5236 -0.5761 -0.4543
   69MOL0     O 9183   3.200   2.930   3.189  0.2263  0.2465 -0.0874
   69MOL0     C 9184   3.284   3.033   3.156  0.7714  0.2742 -0.8964
   69MOL0     C 9185   3.376   3.070   3.253  0.2208  0.0699 -0.0536
   69MOL0     C 9186   3.470   3.169   3.233 -0.1560 -0.0711 -0.0353
   69MOL0     C 9187   3.484   3.225   3.104  0.5535 -0.6237  0.1670
   69MOL0     O 9188   3.582   3.323   3.081  0.0849 -0.8128  0.0773
   69MOL0     C 9189   3.633   3.338   2.951  0.0722  0.1375 -0.5688
   69MOL0     C 9190   3.777   3.360   2.944  0.3052 -0.1363  0.6884
   69MOL0     C 9191   3.860   3.242   2.994 -0.0200  0.8323 -0.5870
   69MOL0     C 9192   4.009   3.284   2.976  0.4335  0.4101 -0.9430
   69MOL0     C 9193   4.100   3.216   3.076  0.0015 -0.1856 -0.7428
   69MOL0     C 9194   4.250   3.260   3.051  0.1286 -0.4098  0.4882
   69MOL0     C 9195   4.359   3.181   3.116  1.2251 -0.7463 -0.0362
   69MOL0     C 9196   4.359   3.166   3.263  0.4251 -0.1041  0.2747
   69MOL0     N 9197   4.449   3.061   3.310  0.3032  0.3307  0.2243
   69MOL0     C 9198   4.584   3.054   3.277 -0.6907 -0.4099  0.1642
   69MOL0     C 9199   4.622   2.932   3.292 -0.2543  0.3590 -0.9599
   69MOL0     C 9200   4.759   2.875   3.271 -0.3370 -0.1533  0.3792
   69MOL0     C 9201   4.788   2.758   3.356 -0.0659 -0.0616 -0.4581
   69MOL0     C 9202   4.932   2.701   3.311  0.2009  0.4256  0.4509
   69MOL0     C 9203   5.048   2.784   3.359  0.0851 -0.4032  0.8550
   69MOL0     O 9204   5.165   2.708   3.331 -0.0591 -0.5755 -0.3285
   69MOL0     C 9205   5.291   2.766   3.350  0.3187  0.2840 -0.4723
   69MOL0     C 9206   5.401   2.697   3.313 -0.1609 -0.0491  0.0417
   69MOL0     C 9207   5.533   2.738   3.336 -0.8062 -1.1442  0.3217
   69MOL0     C 9208   5.556   2.865   3.396  0.7254 -0.3606  0.0641
   69MOL0     C 9209   5.696   2.909   3.413  0.3521  0.5322 -0.2247
   69MOL0     O 9210   5.801   2.834   3.369 -0.2839 -0.2341 -0.8211
   69MOL0     C 9211   5.929   2.864   3.423  0.7439 -0.8961  0.1271
   69MOL0     C 9212   5.949   2.895   3.556 -0.5518 -0.5116 -0.7335
   69MOL0     C 9213   6.079   2.910   3.609  0.6604  0.6827  0.0186
   69MOL0     C 9214   6.197   2.890   3.528  0.4734 -0.5929 -0.0109
   69MOL0     O 9215   6.329   2.881   3.569  0.6686  0.3464 -0.1920
   69MOL0     C 9216   6.359   2.966   3.684 -0.3036  0.3062  0.0191
   69MOL0     C 9217   6.510   2.964   3.710 -0.8665 -0.0674 -0.2072
   69MOL0     C 9218   6.591   2.950   3.566 -0.3208  0.6072  0.2998
   69MOL0     C 9219   6.744   2.938   3.595 -0.9492  0.2967 -0.1857
   69MOL0     C 9220   6.823   2.914   3.467  0.2030  0.1135 -0.2688
   69MOL0     C 9221   6.977   2.885   3.496 -0.0344  0.3153  0.2489
   69MOL0     C 9222   7.032   2.789   3.396 -0.1353 -0.0514 -0.7141
   69MOL0     C 9223   7.165   2.730   3.430 -0.0447 -0.3621  0.3737
   69MOL0    Cl 9224   7.296   2.844   3.404  0.4771  0.2178 -0.1284
   69MOL0     C 9225   6.172   2.869   3.388 -0.0160 -0.3959 -0.6414
   69MOL0     C 9226   6.045   2.858   3.338  0.4319  0.4970  0.5016
   69MOL0     O 9227   5.710   3.019   3.470  0.2119  0.0830  0.1235
   69MOL0     C 9228   5.455   2.943   3.431 -1.4035 -1.2550 -0.0145
   69MOL0     C 9229   5.327   2.896   3.400 -0.4855  0.3589  0.3284
   69MOL0     N 9230   4.516   2.856   3.345  0.3249 -0.8635  0.2274
   69MOL0     N 9231   4.409   2.933   3.341 -0.2159  0.1416  0.3621
   69MOL0     C 9232   3.388   3.189   3.005 -0.0981 -0.1648 -0.3270
   69MOL0     C 9233   3.298   3.088   3.031 -0.5458  0.0655  0.4584
   69MOL0     C 9234   3.056   2.721   3.149 -0.0291 -0.9295  0.4470
   69MOL0     C 9235   3.034   2.704   3.291 -0.1426 -0.0126 -0.6684
   69MOL0     C 9236   2.940   2.612   3.341  1.1249  0.1495  0.8348
   69MOL0     C 9237   2.850   2.551   3.255  0.1561  0.3841 -0.4456
   69MOL0     O 9238   2.744   2.473   3.299 -0.0508 -0.1499  0.1715
   69MOL0     C 9239   2.771   2.375   3.396 -0.6708 -1.2836  0.1797
   69MOL0     C 9240   2.878   2.279   3.355 -0.0491 -0.0681 -0.2685
   69MOL0     C 9241   2.865   2.160   3.452 -0.9296 -0.3434  0.1444
   69MOL0     C 9242   2.911   2.026   3.391  0.2085  0.1519  0.7333
   69MOL0     C 9243   3.052   2.029   3.355 -1.3427  0.3291  0.9466
   69MOL0     C 9244   3.164   2.054   3.325  0.2401 -0.4565  0.1334
   69MOL0     C 9245   2.876   2.565   3.115 -0.2476 -0.7841 -0.1932
   69MOL0     C 9246   2.977   2.646   3.061  0.1523 -0.2968  0.1463
   69MOL0     C 9247   2.988   2.649   2.915 -0.8983  0.8809  0.3089
   69MOL0     H 9248   3.403   3.023   3.347 -1.4023 -0.2357  0.2904
   69MOL0     H 9249   3.532   3.201   3.316 -1.1021  0.3795  0.5188
   69MOL0     H 9250   3.611   3.251   2.890 -0.7921 -0.1480  0.1251
   69MOL0     H 9251   3.582   3.424   2.908 -0.2560 -0.7778 -2.0479
   69MOL0     H 9252   3.801   3.452   2.997 -1.7912  1.5837 -1.1729
   69MOL0     H 9253   3.800   3.371   2.838  0.7719 -0.4197  0.7572
   69MOL0     H 9254   3.837   3.143   2.954  0.0623  0.6955 -0.2998
   69MOL0     H 9255   3.844   3.238   3.102 -1.1544 -0.3467 -0.7835
   69MOL0     H 9256   4.055   3.266   2.878  0.6041  1.9396 -1.1656
   69MOL0     H 9257   4.015   3.392   2.987 -0.0804  0.2520  1.4059
   69MOL0     H 9258   4.059   3.235   3.175  0.4001 -0.2169 -0.5737
   69MOL0     H 9259   4.081   3.109   3.061  0.7878 -0.4385  0.0167
   69MOL0     H 9260   4.277   3.262   2.945 -0.6829  0.6694  0.2835
   69MOL0     H 9261   4.259   3.363   3.089 -2.0781  0.5278 -1.3387
   69MOL0     H 9262   4.453   3.223   3.079 -1.2578  2.3454 -3.6953
   69MOL0     H 9263   4.341   3.077   3.086  0.0428 -0.7167  0.5306
   69MOL0     H 9264   4.402   3.260   3.301  1.1978 -1.1858  2.2182
   69MOL0     H 9265   4.260   3.162   3.308 -0.8804  0.1688 -2.3980
   69MOL0     H 9266   4.652   3.135   3.253 -1.2880  1.4114  3.8941
   69MOL0     H 9267   4.765   2.837   3.169  0.1245  0.7428  0.0654
   69MOL0     H 9268   4.834   2.953   3.283 -0.7027  0.2201  0.2669
   69MOL0     H 9269   4.786   2.793   3.460 -1.0720 -1.1992 -0.0709
   69MOL0     H 9270   4.706   2.686   3.345  1.2624 -2.2713  2.5712
   69MOL0     H 9271   4.933   2.686   3.203 -2.2363  0.6978  0.3387
   69MOL0     H 9272   4.936   2.601   3.356 -2.0576  0.2597  0.3647
   69MOL0     H 9273   5.048   2.800   3.468 -1.5276 -0.7070  0.9198
   69MOL0     H 9274   5.062   2.881   3.311 -0.7429 -1.5075 -1.8024
   69MOL0     H 9275   5.397   2.597   3.271  1.4792  1.2361 -3.6302
   69MOL0     H 9276   5.618   2.674   3.316 -0.5786 -1.6013  2.4740
   69MOL0     H 9277   5.867   2.904   3.626  0.2134 -2.8489  0.5735
   69MOL0     H 9278   6.087   2.929   3.716  1.0398 -0.7741  0.2633
   69MOL0     H 9279   6.321   3.065   3.656 -3.1853 -0.7599 -0.1579
   69MOL0     H 9280   6.321   2.926   3.778  3.1446 -0.0590  1.4284
   69MOL0     H 9281   6.544   3.053   3.763 -0.3546  0.8720 -2.0499
   69MOL0     H 9282   6.539   2.877   3.769  0.1852  1.1079  1.0693
   69MOL0     H 9283   6.557   2.864   3.508  1.5140  0.2169 -0.2816
   69MOL0     H 9284   6.583   3.040   3.504 -0.1176  2.2977  2.5915
   69MOL0     H 9285   6.753   2.862   3.673 -2.8917  0.9335  0.7148
   69MOL0     H 9286   6.783   3.027   3.645  1.8908 -1.1465  0.4024
   69MOL0     H 9287   6.812   2.999   3.398 -0.7854 -0.4254 -0.8049
   69MOL0     H 9288   6.774   2.823   3.430 -2.5892 -0.6060  4.2942
   69MOL0     H 9289   7.028   2.981   3.481 -0.8173  0.4211 -2.2861
   69MOL0     H 9290   6.979   2.846   3.598 -1.6145 -0.8138 -0.1020
   69MOL0     H 9291   7.047   2.837   3.299  2.5648  2.7787  0.9314
   69MOL0     H 9292   6.964   2.704   3.382 -0.4877  0.2493 -0.8426
   69MOL0     H 9293   7.172   2.695   3.534  0.8036 -1.6129 -0.0874
   69MOL0     H 9294   7.174   2.647   3.359  1.8553 -1.3255  1.6378
   69MOL0     H 9295   6.258   2.845   3.327  1.0707  0.0998  0.6429
   69MOL0     H 9296   6.048   2.836   3.232 -0.3241  1.5802  0.2405
   69MOL0     H 9297   5.463   3.040   3.478  0.4410 -1.6046  0.4892
   69MOL0     H 9298   5.254   2.966   3.438 -0.6575  0.3461  0.0191
   69MOL0     H 9299   3.368   3.242   2.913 -2.2064  3.6948  2.0878
   69MOL0     H 9300   3.227   3.067   2.951 -1.9421 -0.4774  1.7869
   69MOL0     H 9301   3.100   2.752   3.364 -2.5745 -0.5016  2.0371
   69MOL0     H 9302   2.923   2.614   3.448 -2.8213 -0.4931  0.3393
   69MOL0     H 9303   2.677   2.322   3.414 -1.4611 -0.1892 -0.5866
   69MOL0     H 9304   2.805   2.410   3.493 -1.1820  0.2024 -0.1559
   69MOL0     H 9305   2.979   2.322   3.357 -0.4341  1.0243 -2.2665
   69MOL0     H 9306   2.857   2.245   3.254 -1.7541  1.3484 -0.4509
   69MOL0     H 9307   2.759   2.147   3.478 -1.5469  3.3146 -0.0344
   69MOL0     H 9308   2.930   2.174   3.538 -0.2131  1.7912 -0.6645
   69MOL0     H 9309   2.894   1.957   3.474 -1.6105 -0.7263 -0.3093
   69MOL0     H 9310   2.843   1.997   3.310 -0.8872 -2.5144  2.4803
   69MOL0     H 9311   3.266   2.059   3.292 -0.2795  0.7081 -1.3820
   69MOL0     H 9312   2.828   2.506   3.038  5.1499 -0.4837 -4.3176
   69MOL0     H 9313   2.899   2.605   2.868 -0.0813 -0.6067  0.0928
   69MOL0     H 9314   2.993   2.751   2.877 -0.9267  0.6916 -0.2196
   69MOL0     H 9315   3.068   2.582   2.881 -2.0126 -0.9145  1.0713
   70MOL0     O 9316   0.644   0.655   4.476  0.2607  0.1717 -0.2106
   70MOL0     C 9317   0.562   0.582   4.422  1.0273  1.5675 -0.0163
   70MOL0     O 9318   0.426   0.617   4.407 -0.8690 -0.1448 -0.0896
   70MOL0     C 9319   0.393   0.754   4.404 -0.5517  0.4286 -0.0402
   70MOL0     C 9320   0.402   0.845   4.511  0.1869 -0.2837 -0.5113
   70MOL0     C 9321   0.356   0.975   4.499 -0.0852 -0.4667  0.8487
   70MOL0     C 9322   0.316   1.021   4.370  1.0421 -0.3112  0.9121
   70MOL0     O 9323   0.273   1.149   4.343 -0.2749  0.2524  0.4598
   70MOL0     C 9324   0.296   1.251   4.444  0.3816 -0.5327  0.1640
   70MOL0     C 9325   0.301   1.384   4.366  0.2973 -0.0686  0.3671
   70MOL0     C 9326   0.353   1.511   4.443 -0.2158  0.5995  0.7009
   70MOL0     C 9327   0.239   1.585   4.500  0.7506 -0.4285 -0.6607
   70MOL0     C 9328   0.282   1.705   4.580  0.2830 -0.2710  0.1626
   70MOL0     C 9329   0.291   1.829   4.488  0.7343 -0.3209  0.7932
   70MOL0     C 9330   0.349   1.954   4.545  0.4248  0.3844  0.6075
   70MOL0     C 9331   0.485   1.929   4.608  0.3013 -0.4816  1.3089
   70MOL0     N 9332   0.589   1.917   4.503 -0.4363 -0.0813 -0.0610
   70MOL0     C 9333   0.618   1.796   4.441 -0.5783  0.0285  0.4837
   70MOL0     C 9334   0.735   1.822   4.369 -0.5716  0.1599 -0.0395
   70MOL0     C 9335   0.822   1.720   4.302  1.0089  0.0134  0.5329
   70MOL0     C 9336   0.832   1.750   4.151  0.1178  0.6517 -0.5997
   70MOL0     C 9337   0.946   1.678   4.067  0.7302  0.5473  0.5516
   70MOL0     C 9338   1.081   1.743   4.071 -1.1960 -0.6541  1.5524
   70MOL0     O 9339   1.141   1.728   4.205 -0.4309  0.7308  1.4150
   70MOL0     C 9340   1.221   1.827   4.250  0.5087  0.1082  0.3998
   70MOL0     C 9341   1.235   1.853   4.393 -0.9047  0.9683 -0.2348
   70MOL0     C 9342   1.308   1.956   4.442  0.2206 -0.1206  1.8111
   70MOL0     C 9343   1.388   2.031   4.347  0.6114  0.1603 -0.4736
   70MOL0     C 9344   1.468   2.147   4.400 -0.5704  0.8144  0.2732
   70MOL0     O 9345   1.577   2.185   4.332 -0.8523  0.2444 -0.8704
   70MOL0     C 9346   1.653   2.283   4.389 -0.3032  0.2474 -0.1187
   70MOL0     C 9347   1.792   2.260   4.413  0.3205  0.2034 -0.0505
   70MOL0     C 9348   1.880   2.361   4.453 -0.5141 -0.3866 -0.2109
   70MOL0     C 9349   1.846   2.497   4.457 -0.3745  0.6231  0.8820
   70MOL0     O 9350   1.943   2.594   4.484 -0.5103  0.0635 -0.2345
   70MOL0     C 9351   1.920   2.721   4.427  0.3062 -0.1059  0.6839
   70MOL0     C 9352   2.057   2.785   4.406 -0.8100  0.8600  0.3059
   70MOL0     C 9353   2.113   2.734   4.269 -0.0389 -0.0744 -0.8307
   70MOL0     C 9354   2.062   2.831   4.163 -0.1972  0.0905  0.3480
   70MOL0     C 9355   2.132   2.808   4.028  0.4127  0.4599 -0.4832
   70MOL0     C 9356   2.109   2.663   3.971  0.2146 -0.8098  0.0808
   70MOL0     C 9357   1.957   2.646   3.939  0.0552  0.2970  0.2099
   70MOL0     C 9358   1.913   2.509   3.891 -1.2420 -1.3298 -0.7465
   70MOL0    Cl 9359   1.755   2.537   3.812 -0.1676 -0.3331 -0.6294
   70MOL0     C 9360   1.708   2.516   4.433 -0.5890 -0.2739 -0.7168
   70MOL0     C 9361   1.616   2.418   4.400 -0.3725  0.3643 -0.4283
   70MOL0     O 9362   1.420   2.201   4.503 -0.2794 -0.0100  0.1937
   70MOL0     C 9363   1.375   1.998   4.210  0.8723  0.1653 -0.3060
   70MOL0     C 9364   1.295   1.902   4.162  0.7085  0.2280  0.1834
   70MOL0     N 9365   0.765   1.956   4.393 -0.2530  0.1217 -0.0226
   70MOL0     N 9366   0.679   2.009   4.468 -0.5619 -0.2054  0.6842
   70MOL0     C 9367   0.310   0.931   4.269  0.2291  1.5485  0.3179
   70MOL0     C 9368   0.349   0.803   4.287 -0.5227  0.6709  0.3212
   70MOL0     C 9369   0.612   0.448   4.383  0.0607  0.7855 -0.8662
   70MOL0     C 9370   0.743   0.414   4.427 -0.1360 -0.3779  0.7278
   70MOL0     C 9371   0.791   0.282   4.408 -0.7026 -0.3350 -0.3747
   70MOL0     C 9372   0.719   0.182   4.344 -0.8585  0.2970  0.2555
   70MOL0     O 9373   0.761   0.056   4.305 -0.5723  0.5444  0.1021
   70MOL0     C 9374   0.885   0.011   4.363 -0.0281 -0.4488 -0.2069
   70MOL0     C 9375   0.908  -0.124   4.305 -0.3325  0.1177  0.6011
   70MOL0     C 9376   0.803  -0.228   4.331 -0.5162 -0.2307 -0.4642
   70MOL0     C 9377   0.833  -0.344   4.251  1.0010  0.1871  0.2890
   70MOL0     C 9378   0.734  -0.453   4.268 -0.0849 -0.3741  0.0881
   70MOL0     C 9379   0.651  -0.541   4.285  0.2732  0.5255 -0.2088
   70MOL0     C 9380   0.581   0.217   4.319  0.1308 -0.1852  0.0085
   70MOL0     C 9381   0.529   0.348   4.323  1.5901 -0.0220 -0.4179
   70MOL0     C 9382   0.383   0.363   4.302 -0.7001  0.0399 -0.7125
   70MOL0     H 9383   0.432   0.811   4.610  0.8812 -1.8611 -1.2283
   70MOL0     H 9384   0.347   1.049   4.578 -0.7036 -0.4525  0.7690
   70MOL0     H 9385   0.218   1.250   4.521  0.7652 -1.0951  0.5572
   70MOL0     H 9386   0.392   1.239   4.494 -0.0707  1.7600  1.7119
   70MOL0     H 9387   0.201   1.406   4.328  0.6180  2.6660  0.8481
   70MOL0     H 9388   0.370   1.380   4.280 -0.1101  0.9111 -0.0266
   70MOL0     H 9389   0.410   1.569   4.370  0.3901 -0.2334  0.5040
   70MOL0     H 9390   0.432   1.490   4.516  1.8839  0.4793 -1.4967
   70MOL0     H 9391   0.153   1.608   4.437 -0.8364 -0.1342  1.4964
   70MOL0     H 9392   0.200   1.522   4.581  2.8615  1.2921  1.8563
   70MOL0     H 9393   0.217   1.729   4.664  0.8630  0.8851  0.2933
   70MOL0     H 9394   0.373   1.673   4.631 -0.2222 -0.6535  0.8501
   70MOL0     H 9395   0.350   1.796   4.402 -1.0857 -1.0937 -0.2189
   70MOL0     H 9396   0.191   1.855   4.452 -0.1541  0.4995  3.6066
   70MOL0     H 9397   0.281   1.972   4.629 -2.3966 -1.2160 -1.1946
   70MOL0     H 9398   0.360   2.037   4.476  2.2916 -1.1487 -1.0784
   70MOL0     H 9399   0.514   2.013   4.670  0.5621  1.0368 -0.7539
   70MOL0     H 9400   0.487   1.840   4.671 -1.2032 -1.9823 -0.6172
   70MOL0     H 9401   0.573   1.698   4.447 -0.9194  0.2021  0.8625
   70MOL0     H 9402   0.920   1.712   4.348  2.0939 -2.6479 -2.0053
   70MOL0     H 9403   0.769   1.627   4.323  0.4495  0.0482 -0.6387
   70MOL0     H 9404   0.732   1.730   4.111  0.4540 -1.2158 -0.5750
   70MOL0     H 9405   0.838   1.859   4.145 -0.1169  0.6777 -0.3892
   70MOL0     H 9406   0.914   1.691   3.963 -1.3968  1.8455  1.3060
   70MOL0     H 9407   0.959   1.578   4.108 -1.1366 -0.3230 -0.8363
   70MOL0     H 9408   1.068   1.849   4.047 -0.8085 -0.5187  1.9119
   70MOL0     H 9409   1.151   1.691   4.005 -1.6788 -1.5329  1.7086
   70MOL0     H 9410   1.182   1.780   4.453 -3.9356  2.5443 -0.7895
   70MOL0     H 9411   1.315   1.987   4.546 -0.5219  2.2216  1.2256
   70MOL0     H 9412   1.845   2.167   4.395  0.2453  0.2358 -0.4537
   70MOL0     H 9413   1.984   2.336   4.472 -0.5735 -0.2678  0.2863
   70MOL0     H 9414   1.863   2.717   4.334  1.6252 -3.2615 -0.1150
   70MOL0     H 9415   1.857   2.775   4.499  2.2020  0.6789  1.8376
   70MOL0     H 9416   2.040   2.893   4.399  1.3790  1.2058 -0.1502
   70MOL0     H 9417   2.130   2.757   4.481 -1.8251 -2.1187  0.2974
   70MOL0     H 9418   2.221   2.738   4.283  0.0600  5.4150 -1.1895
   70MOL0     H 9419   2.070   2.633   4.272 -1.5033  0.2960  5.7208
   70MOL0     H 9420   2.074   2.938   4.184 -3.0103  0.9181 -1.6423
   70MOL0     H 9421   1.955   2.818   4.148 -0.3607  1.9467 -0.4217
   70MOL0     H 9422   2.240   2.812   4.047 -0.1202  2.6252  2.9850
   70MOL0     H 9423   2.101   2.878   3.950 -1.7025 -2.2385 -2.2493
   70MOL0     H 9424   2.169   2.665   3.880 -0.0890 -0.2675 -0.1173
   70MOL0     H 9425   2.161   2.592   4.036 -0.4163 -0.8273  0.5766
   70MOL0     H 9426   1.934   2.728   3.870  1.5398 -0.8459 -1.7228
   70MOL0     H 9427   1.899   2.652   4.032 -1.6353 -2.8771 -0.4948
   70MOL0     H 9428   1.995   2.487   3.822 -0.0663  1.0993 -0.2374
   70MOL0     H 9429   1.900   2.430   3.966 -1.6227 -0.2148  0.4076
   70MOL0     H 9430   1.684   2.621   4.437  1.2028  0.2326 -2.0778
   70MOL0     H 9431   1.512   2.437   4.378  0.1519  2.9141 -1.1209
   70MOL0     H 9432   1.425   2.071   4.148 -0.2322  1.1441 -0.0632
   70MOL0     H 9433   1.288   1.900   4.054  1.0502  2.5784  0.0484
   70MOL0     H 9434   0.292   0.956   4.165  2.1615 -1.1264 -0.7494
   70MOL0     H 9435   0.343   0.732   4.205 -1.4023  2.1408 -0.9491
   70MOL0     H 9436   0.808   0.486   4.477 -0.9522  0.6481  0.3595
   70MOL0     H 9437   0.895   0.261   4.434 -0.0464  2.6107 -0.2278
   70MOL0     H 9438   0.885   0.008   4.473 -1.1154  0.6810 -0.1590
   70MOL0     H 9439   0.966   0.080   4.339 -1.2928 -0.2097 -4.7090
   70MOL0     H 9440   0.998  -0.158   4.357  0.0465 -2.4003 -1.5198
   70MOL0     H 9441   0.933  -0.104   4.201  4.4666 -0.0044  1.4982
   70MOL0     H 9442   0.700  -0.195   4.313  0.0083  1.7179 -0.1636
   70MOL0     H 9443   0.799  -0.250   4.438 -2.7316 -0.4661 -0.5294
   70MOL0     H 9444   0.827  -0.309   4.147  1.6914 -0.9041 -0.1375
   70MOL0     H 9445   0.933  -0.381   4.276  2.1884  2.9830  0.1334
   70MOL0     H 9446   0.595  -0.628   4.313  1.1190 -0.1135 -0.4648
   70MOL0     H 9447   0.518   0.138   4.283  1.7478 -0.4288 -2.5216
   70MOL0     H 9448   0.360   0.440   4.228 -4.5529 -0.9857 -0.7884
   70MOL0     H 9449   0.334   0.271   4.270  0.7006 -0.4659 -1.4670
   70MOL0     H 9450   0.334   0.388   4.397  2.9215 -1.0301  1.6324
   71MOL0     O 9451   6.820   9.337   4.382  0.1217  0.2294  0.2307
   71MOL0     C 9452   6.866   9.391   4.282  0.5380 -0.2034  0.0705
   71MOL0     O 9453   6.873   9.340   4.148  0.2238 -0.1510 -0.1653
   71MOL0     C 9454   6.781   9.237   4.120 -1.1526  1.0616 -0.2628
   71MOL0     C 9455   6.679   9.261   4.034  1.1636  0.6701  0.3345
   71MOL0     C 9456   6.590   9.153   3.996 -0.3277  0.1061  0.1992
   71MOL0     C 9457   6.594   9.032   4.070  0.5366  0.0776  0.6400
   71MOL0     O 9458   6.491   8.935   4.066 -0.0374 -0.2195  0.4732
   71MOL0     C 9459   6.370   8.966   3.995 -0.4267 -0.5545 -0.6245
   71MOL0     C 9460   6.282   8.844   3.978  0.2856  0.0827  0.1431
   71MOL0     C 9461   6.131   8.873   3.956 -0.1542  0.3838  0.1256
   71MOL0     C 9462   6.066   8.748   3.913  0.2184  0.8494 -0.6998
   71MOL0     C 9463   5.923   8.779   3.850  0.8581 -1.0683 -0.3648
   71MOL0     C 9464   5.940   8.892   3.738 -0.7244 -0.2717  1.1233
   71MOL0     C 9465   5.807   8.907   3.669 -0.8197  0.4050  0.0727
   71MOL0     C 9466   5.785   8.798   3.556 -0.6474  0.4649  0.5226
   71MOL0     N 9467   5.867   8.829   3.435  0.2838  0.8958 -0.1931
   71MOL0     C 9468   5.834   8.925   3.347 -0.0769  0.2018  0.1149
   71MOL0     C 9469   5.928   8.913   3.248 -0.2058  0.0939  0.6403
   71MOL0     C 9470   5.946   9.005   3.134 -0.4486 -0.1177  0.0180
   71MOL0     C 9471   5.939   9.148   3.196 -0.1035  0.5629 -0.2052
   71MOL0     C 9472   6.002   9.249   3.098 -0.1217 -0.1855 -0.0609
   71MOL0     C 9473   6.034   9.382   3.174 -0.8720 -0.3456  0.6809
   71MOL0     O 9474   5.915   9.437   3.238 -0.2863 -0.4517 -0.4967
   71MOL0     C 9475   5.857   9.532   3.167  0.7440 -0.6724 -0.5248
   71MOL0     C 9476   5.869   9.561   3.033 -0.4786 -0.5537  0.7818
   71MOL0     C 9477   5.780   9.646   2.960 -0.4128 -0.6281  0.0338
   71MOL0     C 9478   5.675   9.705   3.025 -0.2300 -0.1589 -0.1445
   71MOL0     C 9479   5.584   9.806   2.955  0.3760  0.7914 -0.8558
   71MOL0     O 9480   5.576   9.794   2.816 -0.5340  0.0991 -0.2913
   71MOL0     C 9481   5.510   9.890   2.752  0.7189  0.1342  0.8534
   71MOL0     C 9482   5.572  10.007   2.706 -0.5008 -0.8025 -0.5764
   71MOL0     C 9483   5.498  10.111   2.639  0.5666 -0.5049 -0.4623
   71MOL0     C 9484   5.361  10.101   2.615  0.1997 -0.0513  0.0992
   71MOL0     O 9485   5.294  10.199   2.545 -0.3817  0.0205 -0.1925
   71MOL0     C 9486   5.183  10.266   2.621 -0.1999  0.9429  0.3252
   71MOL0     C 9487   5.251  10.351   2.737 -0.2205  0.4294  0.5190
   71MOL0     C 9488   5.315  10.487   2.693  0.1237 -0.0597 -0.9241
   71MOL0     C 9489   5.284  10.569   2.814  0.5780 -0.8571  0.6262
   71MOL0     C 9490   5.388  10.680   2.806  0.5514 -0.4922  0.2769
   71MOL0     C 9491   5.366  10.783   2.932 -0.5246  0.5270  0.8009
   71MOL0     C 9492   5.479  10.888   2.911 -0.2660 -0.4108 -0.2163
   71MOL0     C 9493   5.461  11.007   2.997 -0.0344 -0.6549 -0.2102
   71MOL0    Cl 9494   5.367  11.125   2.907 -0.0513 -0.6753  0.1284
   71MOL0     C 9495   5.293   9.985   2.659  1.0205 -1.3798  0.5293
   71MOL0     C 9496   5.369   9.885   2.723 -0.4282 -0.3343 -0.4033
   71MOL0     O 9497   5.516   9.880   3.027  0.0991  0.1838 -0.6178
   71MOL0     C 9498   5.661   9.682   3.164 -0.2232 -0.9920 -0.3787
   71MOL0     C 9499   5.740   9.594   3.237  0.6779  0.5221  0.1925
   71MOL0     N 9500   6.017   8.810   3.288  0.2271  0.2332  0.2782
   71MOL0     N 9501   5.980   8.762   3.400  0.2060 -1.1925  0.8617
   71MOL0     C 9502   6.690   9.016   4.166 -0.0233 -0.4982 -0.4403
   71MOL0     C 9503   6.788   9.116   4.189  0.7211  0.9595 -0.0056
   71MOL0     C 9504   6.943   9.514   4.311  0.5675 -0.5584  0.3443
   71MOL0     C 9505   7.035   9.562   4.221 -0.5993 -0.1373 -0.2755
   71MOL0     C 9506   7.129   9.669   4.247 -0.0072  0.6915  0.4168
   71MOL0     C 9507   7.134   9.731   4.368  1.1544  0.2182 -1.0587
   71MOL0     O 9508   7.226   9.830   4.391  0.3540  0.5121  0.0551
   71MOL0     C 9509   7.222   9.913   4.507 -0.8548 -0.2928  0.2364
   71MOL0     C 9510   7.334  10.013   4.485  0.8455 -0.2108  0.3404
   71MOL0     C 9511   7.306  10.102   4.359 -0.6857 -0.3711  0.3419
   71MOL0     C 9512   7.428  10.190   4.316 -0.6035  0.3766  0.2944
   71MOL0     C 9513   7.440  10.186   4.166  0.8052 -0.6846  0.0294
   71MOL0     C 9514   7.452  10.179   4.039 -0.4429  0.6296  0.3440
   71MOL0     C 9515   7.039   9.699   4.459  0.5675 -0.4341 -0.5829
   71MOL0     C 9516   6.940   9.601   4.429  0.1293 -0.2437  1.1038
   71MOL0     C 9517   6.819   9.596   4.519 -0.1506 -0.7653  0.2123
   71MOL0     H 9518   6.675   9.352   3.974  0.7064 -0.3425 -1.2304
   71MOL0     H 9519   6.512   9.184   3.928 -0.0190 -3.9978 -2.3676
   71MOL0     H 9520   6.316   9.039   4.056  0.1995  0.9531 -1.8281
   71MOL0     H 9521   6.383   9.004   3.894  1.1119 -1.4029 -0.7852
   71MOL0     H 9522   6.294   8.786   4.070  1.4010  0.1067  0.0347
   71MOL0     H 9523   6.333   8.784   3.901  0.1098 -3.1537  2.3364
   71MOL0     H 9524   6.138   8.937   3.867 -2.1824  2.3845  1.3127
   71MOL0     H 9525   6.076   8.935   4.027  1.1872 -0.7043  2.2196
   71MOL0     H 9526   6.124   8.703   3.831 -0.6361 -0.8108 -0.4299
   71MOL0     H 9527   6.050   8.674   3.992  1.3377 -2.4452 -3.3237
   71MOL0     H 9528   5.890   8.688   3.800  2.1557 -0.3731 -2.6586
   71MOL0     H 9529   5.854   8.815   3.927  1.9976  3.8386 -1.2341
   71MOL0     H 9530   5.963   8.986   3.789  2.6260 -1.5743  2.2463
   71MOL0     H 9531   6.015   8.873   3.661 -1.0322 -0.3101  0.8284
   71MOL0     H 9532   5.796   9.001   3.614  1.4226  1.8054  1.8236
   71MOL0     H 9533   5.729   8.887   3.743 -3.2056  1.1490 -2.0652
   71MOL0     H 9534   5.817   8.697   3.586 -1.5711 -1.0516 -3.1153
   71MOL0     H 9535   5.680   8.783   3.529 -0.0977  0.6693 -1.9630
   71MOL0     H 9536   5.747   8.987   3.362 -1.8845 -2.4898  1.6817
   71MOL0     H 9537   6.042   8.984   3.088  0.7980 -1.9707  3.1764
   71MOL0     H 9538   5.868   8.977   3.062 -0.3770  1.5601 -0.7642
   71MOL0     H 9539   5.839   9.187   3.220  0.4035  2.6954 -1.3148
   71MOL0     H 9540   6.001   9.136   3.285  1.2136 -1.6629 -1.3476
   71MOL0     H 9541   5.938   9.271   3.012  2.0288 -2.8342 -2.5506
   71MOL0     H 9542   6.096   9.215   3.053 -0.8450  0.3456 -2.0702
   71MOL0     H 9543   6.082   9.460   3.115 -2.4121  1.1593  1.3275
   71MOL0     H 9544   6.116   9.362   3.243  0.6772  0.9079 -0.7149
   71MOL0     H 9545   5.949   9.511   2.980 -1.3026 -1.7228  0.6171
   71MOL0     H 9546   5.800   9.670   2.856 -2.7155 -0.3642 -0.3897
   71MOL0     H 9547   5.679  10.023   2.713 -0.6227 -0.7204  2.1873
   71MOL0     H 9548   5.551  10.202   2.614 -1.0252  0.8363  0.8050
   71MOL0     H 9549   5.133  10.330   2.547 -2.3322 -1.0472 -0.0709
   71MOL0     H 9550   5.107  10.196   2.656  1.3602 -0.6617  0.6401
   71MOL0     H 9551   5.168  10.375   2.804  0.9977 -1.8472  3.0006
   71MOL0     H 9552   5.327  10.287   2.782  0.3031 -0.2374 -1.2367
   71MOL0     H 9553   5.422  10.468   2.678  0.8631  1.2184  1.9649
   71MOL0     H 9554   5.263  10.538   2.612 -1.0427 -0.9094 -0.7346
   71MOL0     H 9555   5.295  10.516   2.909  0.7272  1.3942  1.9289
   71MOL0     H 9556   5.182  10.609   2.819  1.2734  1.3091 -0.8436
   71MOL0     H 9557   5.365  10.729   2.711 -2.9674 -0.5342  0.9577
   71MOL0     H 9558   5.491  10.642   2.802  1.3686  1.6861 -0.9452
   71MOL0     H 9559   5.267  10.828   2.930 -0.2047  1.4713 -3.7420
   71MOL0     H 9560   5.375  10.736   3.031 -0.4353 -1.0574  0.0815
   71MOL0     H 9561   5.481  10.923   2.808  0.5244  1.5047  0.4069
   71MOL0     H 9562   5.576  10.840   2.929 -0.1194  0.4048  1.3782
   71MOL0     H 9563   5.433  10.972   3.097 -0.3711  0.1485 -0.0159
   71MOL0     H 9564   5.558  11.056   3.007  0.0563 -0.8932  0.1105
   71MOL0     H 9565   5.190   9.963   2.633  1.3050 -0.0662 -2.0191
   71MOL0     H 9566   5.316   9.794   2.749  2.5196 -1.7782  0.9787
   71MOL0     H 9567   5.593   9.740   3.226 -1.5951 -1.9561 -0.9448
   71MOL0     H 9568   5.717   9.584   3.343 -1.3022  2.4635  0.0246
   71MOL0     H 9569   6.693   8.931   4.233 -0.0608 -2.2046 -2.5109
   71MOL0     H 9570   6.865   9.089   4.260 -0.0931 -3.0394 -0.4052
   71MOL0     H 9571   7.042   9.499   4.133  2.0824 -1.3953  0.7476
   71MOL0     H 9572   7.187   9.717   4.168  0.8808  0.8747  1.1661
   71MOL0     H 9573   7.239   9.857   4.600 -0.9482 -0.7298 -0.0070
   71MOL0     H 9574   7.129   9.971   4.517  1.8795  4.9353 -0.8374
   71MOL0     H 9575   7.428   9.958   4.479 -0.2345 -2.1540  0.1409
   71MOL0     H 9576   7.344  10.082   4.569 -0.2205 -1.4341  1.5319
   71MOL0     H 9577   7.224  10.171   4.384 -1.0382 -0.9005  0.6641
   71MOL0     H 9578   7.279  10.030   4.281  0.3778 -1.4368  0.9310
   71MOL0     H 9579   7.408  10.294   4.343  2.9791  0.7034  2.3805
   71MOL0     H 9580   7.528  10.162   4.350  0.1306  0.1103 -1.8948
   71MOL0     H 9581   7.463  10.166   3.933  0.4743 -1.3283  0.6414
   71MOL0     H 9582   7.035   9.750   4.555 -2.5147 -3.0588  0.8861
   71MOL0     H 9583   6.831   9.509   4.584 -0.3396  0.5111  2.0129
   71MOL0     H 9584   6.796   9.678   4.588  0.6094 -1.6069  1.5010
   71MOL0     H 9585   6.731   9.584   4.454  0.9334  0.8840 -1.7104
   72MOL0     O 9586   7.679  10.614   1.796  0.8296 -0.1064  0.0775
   72MOL0     C 9587   7.635  10.730   1.778  0.0559  0.3248  0.6983
   72MOL0     O 9588   7.713  10.829   1.730  0.6206 -0.5955  0.3407
   72MOL0     C 9589   7.841  10.826   1.694 -0.2525  0.1034 -0.5079
   72MOL0     C 9590   7.941  10.740   1.742  0.9994  0.6009 -0.8659
   72MOL0     C 9591   8.075  10.763   1.703 -0.3830  0.9126  0.4042
   72MOL0     C 9592   8.114  10.864   1.606  0.2394 -0.3302 -0.3857
   72MOL0     O 9593   8.242  10.893   1.555 -0.1574  0.3923  0.0384
   72MOL0     C 9594   8.352  10.825   1.608 -0.1092  0.7378 -0.3856
   72MOL0     C 9595   8.470  10.868   1.526 -0.4129 -0.1728  0.5312
   72MOL0     C 9596   8.495  10.796   1.392  0.3216 -0.3406 -0.1720
   72MOL0     C 9597   8.599  10.868   1.297 -0.2853 -0.3894 -0.1441
   72MOL0     C 9598   8.741  10.827   1.326  0.1035  0.5692 -0.4066
   72MOL0     C 9599   8.839  10.917   1.246  0.2834  0.2805 -0.1608
   72MOL0     C 9600   8.990  10.882   1.270 -0.3691 -0.4150 -0.5517
   72MOL0     C 9601   9.039  10.980   1.382 -0.4413 -0.9199  0.1049
   72MOL0     N 9602   9.189  10.963   1.417  1.4080  0.2002 -1.3239
   72MOL0     C 9603   9.239  11.042   1.517  0.9103 -0.0025  0.3097
   72MOL0     C 9604   9.373  11.020   1.518  0.6256  0.1767  0.6604
   72MOL0     C 9605   9.478  11.069   1.615 -0.5569 -0.1773  0.1583
   72MOL0     C 9606   9.588  11.141   1.554 -0.5459 -0.2909  0.3961
   72MOL0     C 9607   9.573  11.280   1.494  0.4299 -0.1545  0.4421
   72MOL0     C 9608   9.486  11.376   1.568  0.0129  0.3999 -0.1164
   72MOL0     O 9609   9.494  11.357   1.706 -1.5163  0.3796  0.0744
   72MOL0     C 9610   9.609  11.381   1.783 -0.7047  0.4257  0.1693
   72MOL0     C 9611   9.702  11.469   1.730 -0.6664 -0.5782  0.3665
   72MOL0     C 9612   9.823  11.499   1.793 -0.7050 -0.0226  0.5443
   72MOL0     C 9613   9.855  11.441   1.915 -0.1573  0.3864  0.8606
   72MOL0     C 9614   9.987  11.458   1.964 -0.6711  0.3523 -0.4854
   72MOL0     O 9615  10.009  11.414   2.092 -0.0180 -0.1535  0.1928
   72MOL0     C 9616  10.123  11.422   2.174  0.3082  0.1911  0.8024
   72MOL0     C 9617  10.102  11.403   2.309 -0.2971 -0.1440 -0.9043
   72MOL0     C 9618  10.204  11.395   2.403 -0.1047 -0.9994 -0.6127
   72MOL0     C 9619  10.333  11.383   2.352  0.5260  0.6615 -0.9621
   72MOL0     O 9620  10.441  11.367   2.443 -0.0150  0.5338  0.7870
   72MOL0     C 9621  10.515  11.249   2.415  1.1338  0.2840 -0.4234
   72MOL0     C 9622  10.653  11.302   2.400 -0.1380 -0.3307  0.1499
   72MOL0     C 9623  10.747  11.194   2.338 -0.8892  0.5744  1.0164
   72MOL0     C 9624  10.885  11.176   2.404 -0.7977  0.3008  0.7701
   72MOL0     C 9625  10.965  11.056   2.358 -0.1390 -0.1941 -0.2551
   72MOL0     C 9626  11.087  11.035   2.454  0.4038 -0.3428  0.4620
   72MOL0     C 9627  11.189  10.941   2.398 -0.2419 -0.3185 -0.1521
   72MOL0     C 9628  11.138  10.805   2.370 -0.0007  1.0842  1.6305
   72MOL0    Cl 9629  11.067  10.729   2.511 -0.2715  0.4014  0.4523
   72MOL0     C 9630  10.364  11.396   2.214  0.8376  0.1038  0.8587
   72MOL0     C 9631  10.255  11.422   2.124 -1.0941  0.9780 -0.1101
   72MOL0     O 9632  10.075  11.490   1.892  0.0420  0.4291  0.5551
   72MOL0     C 9633   9.762  11.353   1.972 -0.1250  0.1303 -0.0034
   72MOL0     C 9634   9.640  11.317   1.905  0.0554  0.0070 -0.4826
   72MOL0     N 9635   9.405  10.935   1.411  0.9882 -0.0354  0.5531
   72MOL0     N 9636   9.292  10.910   1.349  0.3589 -0.0554 -0.7575
   72MOL0     C 9637   8.011  10.946   1.563 -0.6547 -0.0982  0.4337
   72MOL0     C 9638   7.878  10.935   1.610  0.3968 -0.4712 -0.6088
   72MOL0     C 9639   7.490  10.768   1.795  0.7178 -0.2035 -0.3132
   72MOL0     C 9640   7.437  10.869   1.708 -0.3310  0.9930  0.4196
   72MOL0     C 9641   7.299  10.903   1.710  0.4316 -0.4179 -0.0000
   72MOL0     C 9642   7.217  10.847   1.809  0.2620 -0.3945  0.2073
   72MOL0     O 9643   7.082  10.875   1.806  0.2019 -0.4574  0.1575
   72MOL0     C 9644   7.055  11.011   1.841 -0.2380  0.5508  0.3788
   72MOL0     C 9645   6.920  11.043   1.777 -0.0562 -0.3825  0.2667
   72MOL0     C 9646   6.867  11.182   1.830  0.5913  0.1568 -0.2191
   72MOL0     C 9647   6.736  11.187   1.910  0.2470  0.3691 -0.2101
   72MOL0     C 9648   6.715  11.317   1.980  0.8588  0.6203  0.1536
   72MOL0     C 9649   6.704  11.418   2.055  0.1438  0.4255 -0.0333
   72MOL0     C 9650   7.270  10.747   1.887  0.3369 -0.0731 -0.6127
   72MOL0     C 9651   7.401  10.709   1.888 -0.5753  0.0207 -0.4871
   72MOL0     C 9652   7.446  10.603   1.988  0.2477  0.3303 -0.4857
   72MOL0     H 9653   7.928  10.654   1.807 -1.3930 -1.0572 -3.3320
   72MOL0     H 9654   8.157  10.716   1.755  0.0813  0.4082 -0.7325
   72MOL0     H 9655   8.367  10.853   1.712  1.7116 -0.0574 -0.3951
   72MOL0     H 9656   8.345  10.716   1.609 -0.9945  0.7869  1.0987
   72MOL0     H 9657   8.567  10.859   1.575 -0.3250 -3.9108 -0.0282
   72MOL0     H 9658   8.445  10.973   1.507  0.4352  0.1150  0.9852
   72MOL0     H 9659   8.404  10.787   1.331 -0.6973 -0.6854  1.3500
   72MOL0     H 9660   8.515  10.692   1.416 -1.9680 -0.7849 -0.0108
   72MOL0     H 9661   8.566  10.837   1.197 -0.6885  2.4693 -1.0010
   72MOL0     H 9662   8.575  10.975   1.293  0.8251 -0.0487  1.3989
   72MOL0     H 9663   8.765  10.834   1.433  4.0506 -1.2392 -1.0103
   72MOL0     H 9664   8.763  10.725   1.293  0.7627  0.3575  0.6365
   72MOL0     H 9665   8.817  10.905   1.139 -1.5453 -4.4616  0.4701
   72MOL0     H 9666   8.811  11.022   1.259 -1.7060  0.1158 -2.4209
   72MOL0     H 9667   9.045  10.884   1.175 -0.3167 -0.5076 -0.5232
   72MOL0     H 9668   9.000  10.779   1.306  0.7955  0.1435  0.7969
   72MOL0     H 9669   9.017  11.083   1.351  0.3298  0.2903  3.1976
   72MOL0     H 9670   8.986  10.964   1.476 -0.1519  0.4241  0.5193
   72MOL0     H 9671   9.198  11.106   1.594  2.0740 -0.6995  1.5594
   72MOL0     H 9672   9.434  11.134   1.691 -2.0498  0.0859 -0.8731
   72MOL0     H 9673   9.516  10.985   1.673 -1.1686 -2.0477 -1.9864
   72MOL0     H 9674   9.671  11.150   1.624  0.0603  2.2647 -0.5299
   72MOL0     H 9675   9.629  11.073   1.479  0.0811 -0.1712  0.6252
   72MOL0     H 9676   9.517  11.274   1.399 -1.8436  0.4311  1.6773
   72MOL0     H 9677   9.674  11.309   1.464  0.8976 -1.2595  0.8899
   72MOL0     H 9678   9.383  11.354   1.539  0.4106 -4.6758  1.4000
   72MOL0     H 9679   9.503  11.479   1.534  0.0662 -0.6347 -3.6850
   72MOL0     H 9680   9.686  11.512   1.631 -1.3444 -1.6991 -0.0393
   72MOL0     H 9681   9.896  11.558   1.739  1.1046 -2.4677  0.1372
   72MOL0     H 9682   9.999  11.393   2.341 -0.4924  0.8934 -1.1618
   72MOL0     H 9683  10.185  11.396   2.510 -2.5904 -2.7147 -0.9407
   72MOL0     H 9684  10.510  11.177   2.498 -1.0779  0.7487 -0.0900
   72MOL0     H 9685  10.483  11.185   2.332 -1.0077 -0.3070  0.7616
   72MOL0     H 9686  10.649  11.388   2.332 -2.4334 -1.2413 -0.9593
   72MOL0     H 9687  10.697  11.358   2.484  0.2305  3.1273 -2.1375
   72MOL0     H 9688  10.696  11.098   2.346 -0.2563 -0.0182 -1.2410
   72MOL0     H 9689  10.762  11.214   2.231 -3.2753 -0.5553  0.4164
   72MOL0     H 9690  10.868  11.175   2.512 -1.9344  0.4197  0.6010
   72MOL0     H 9691  10.943  11.266   2.380 -2.2273  1.3030  0.9236
   72MOL0     H 9692  11.001  11.077   2.257 -0.9037  0.5100 -0.3829
   72MOL0     H 9693  10.906  10.965   2.363 -0.0427 -0.1966  1.3749
   72MOL0     H 9694  11.144  11.127   2.466 -0.1769 -0.0373  0.9481
   72MOL0     H 9695  11.055  11.007   2.555 -2.8843 -0.3388 -0.4393
   72MOL0     H 9696  11.270  10.935   2.471  1.0013  0.8904 -1.3711
   72MOL0     H 9697  11.233  10.973   2.303  0.8457  0.8346  0.7069
   72MOL0     H 9698  11.065  10.800   2.289  0.8748 -2.2431  0.8724
   72MOL0     H 9699  11.219  10.739   2.337 -1.1471 -0.6370  2.1035
   72MOL0     H 9700  10.460  11.381   2.165  0.5539 -0.1579  0.3769
   72MOL0     H 9701  10.288  11.427   2.021  0.0612  1.5785  0.2674
   72MOL0     H 9702   9.792  11.298   2.061  0.1266  1.2399  0.6127
   72MOL0     H 9703   9.584  11.236   1.950  0.6372  0.8162  1.8468
   72MOL0     H 9704   8.049  11.021   1.493 -1.7744  0.1169  0.0229
   72MOL0     H 9705   7.813  11.011   1.568 -1.2160 -0.0924  2.3687
   72MOL0     H 9706   7.507  10.906   1.634  0.9645 -1.0773  0.5291
   72MOL0     H 9707   7.256  10.976   1.642  0.5174 -1.3373 -1.0724
   72MOL0     H 9708   7.127  11.073   1.786  0.5193 -1.7315 -1.3503
   72MOL0     H 9709   7.067  11.020   1.949 -0.3610 -1.4805  0.5931
   72MOL0     H 9710   6.848  10.966   1.807  1.0753 -1.6011 -0.0390
   72MOL0     H 9711   6.931  11.056   1.669  3.0145 -3.1852  0.0766
   72MOL0     H 9712   6.858  11.253   1.747  0.4522 -0.5353 -0.7947
   72MOL0     H 9713   6.946  11.225   1.894 -0.8202  3.2741 -0.4038
   72MOL0     H 9714   6.649  11.167   1.846  0.8124 -1.4053 -0.4925
   72MOL0     H 9715   6.743  11.106   1.983  2.5949  0.2287 -0.5102
   72MOL0     H 9716   6.679  11.504   2.114  1.7935 -0.8349  2.6759
   72MOL0     H 9717   7.204  10.698   1.957 -2.1791  0.2857 -2.5716
   72MOL0     H 9718   7.380  10.617   2.074 -0.3410 -1.8274 -0.5418
   72MOL0     H 9719   7.408  10.508   1.949 -2.3215  1.1237 -0.1019
   72MOL0     H 9720   7.552  10.601   2.016  0.0175 -3.7703  0.7593
   73MOL0     O 9721  11.192   8.806   2.644  0.7661  0.1922  0.4904
   73MOL0     C 9722  11.273   8.718   2.639 -0.5536 -0.4125  0.1987
   73MOL0     O 9723  11.399   8.725   2.564  0.4436  0.1101 -0.1872
   73MOL0     C 9724  11.434   8.846   2.515 -0.3843 -0.6459 -0.1138
   73MOL0     C 9725  11.379   8.892   2.398 -0.7840  0.6164  0.7644
   73MOL0     C 9726  11.414   9.015   2.339 -0.1817 -0.3499 -0.4236
   73MOL0     C 9727  11.519   9.086   2.395  0.1925 -0.1937  0.0201
   73MOL0     O 9728  11.577   9.202   2.344 -0.7603 -0.0598 -0.1050
   73MOL0     C 9729  11.589   9.234   2.204  0.4319  0.2766  0.9507
   73MOL0     C 9730  11.694   9.338   2.182  0.8625 -0.2459 -0.1072
   73MOL0     C 9731  11.737   9.367   2.038 -0.0179  0.2697  1.1679
   73MOL0     C 9732  11.847   9.465   2.020  0.3230 -0.1564 -0.1797
   73MOL0     C 9733  11.863   9.495   1.879 -0.6397 -0.7709  0.5413
   73MOL0     C 9734  11.917   9.640   1.854  0.4741 -0.0975  0.1768
   73MOL0     C 9735  11.899   9.676   1.703 -0.1220 -0.1557 -0.2421
   73MOL0     C 9736  11.772   9.755   1.660  0.3400 -0.6928 -0.3529
   73MOL0     N 9737  11.635   9.707   1.703  0.4908  0.3381 -0.5236
   73MOL0     C 9738  11.592   9.685   1.831 -0.0366 -0.3056  0.2393
   73MOL0     C 9739  11.458   9.681   1.825 -1.2469  0.8498  0.0378
   73MOL0     C 9740  11.356   9.700   1.939  0.0911 -0.6106  0.4724
   73MOL0     C 9741  11.267   9.574   1.976 -0.1060  0.1698  0.3838
   73MOL0     C 9742  11.167   9.623   2.081  0.1653  0.3809 -0.2065
   73MOL0     C 9743  11.051   9.529   2.109 -0.5167  0.3035  0.3520
   73MOL0     O 9744  11.113   9.412   2.169  0.4507 -0.9019  0.3780
   73MOL0     C 9745  11.026   9.315   2.202  1.0804  0.1637 -0.5895
   73MOL0     C 9746  10.895   9.294   2.159  0.5797  0.3436 -0.2868
   73MOL0     C 9747  10.827   9.179   2.190  0.0873  0.7111  0.0905
   73MOL0     C 9748  10.888   9.076   2.272  0.3371  0.7905  0.0166
   73MOL0     C 9749  10.802   8.963   2.325 -0.2962 -0.3006  0.2458
   73MOL0     O 9750  10.875   8.880   2.405  0.1870  0.6726  0.0470
   73MOL0     C 9751  10.810   8.793   2.498  0.3553  0.4774  0.6311
   73MOL0     C 9752  10.692   8.826   2.575  0.5206 -0.0242 -1.0319
   73MOL0     C 9753  10.636   8.729   2.660 -0.3725  0.0839  0.9884
   73MOL0     C 9754  10.709   8.611   2.676  0.1475  1.0395 -0.2288
   73MOL0     O 9755  10.666   8.526   2.774  0.0247 -0.0546 -0.3869
   73MOL0     C 9756  10.598   8.417   2.719 -0.3213 -0.4904 -0.3823
   73MOL0     C 9757  10.687   8.291   2.747  0.4532  0.0705  0.3495
   73MOL0     C 9758  10.704   8.255   2.893 -0.0933  0.2243  0.5833
   73MOL0     C 9759  10.783   8.124   2.901  1.1053  0.9040  0.4225
   73MOL0     C 9760  10.810   8.065   3.039  0.0224 -0.6553 -0.0661
   73MOL0     C 9761  10.703   8.090   3.144  0.2582  0.5032  0.2832
   73MOL0     C 9762  10.755   8.046   3.284  0.7055  0.1688  0.0182
   73MOL0     C 9763  10.867   8.128   3.332  0.1682 -0.2776  0.4995
   73MOL0    Cl 9764  10.869   8.150   3.504 -0.4713  0.0870  0.5693
   73MOL0     C 9765  10.820   8.579   2.597  0.7161  0.0070  0.6099
   73MOL0     C 9766  10.878   8.674   2.511  0.1762  0.9339  0.1337
   73MOL0     O 9767  10.685   8.958   2.297  0.2642  0.7803 -0.4304
   73MOL0     C 9768  11.019   9.095   2.301  0.4661  0.3930 -0.6989
   73MOL0     C 9769  11.086   9.206   2.270 -0.1082 -0.6501 -0.2233
   73MOL0     N 9770  11.432   9.675   1.690  0.5145 -1.1747 -1.3535
   73MOL0     N 9771  11.532   9.697   1.617 -0.6172 -0.8488 -0.4319
   73MOL0     C 9772  11.576   9.049   2.509 -0.4699  0.0300 -0.2245
   73MOL0     C 9773  11.534   8.933   2.574 -0.6143  0.6400 -0.8415
   73MOL0     C 9774  11.245   8.581   2.700  1.2700 -0.5932 -0.1835
   73MOL0     C 9775  11.328   8.473   2.678 -0.4945  0.5600 -0.1552
   73MOL0     C 9776  11.298   8.345   2.727 -0.7758  0.3810  0.1022
   73MOL0     C 9777  11.188   8.320   2.803  0.8819  0.2280  0.5697
   73MOL0     O 9778  11.161   8.190   2.848 -1.0056  0.1341 -0.3346
   73MOL0     C 9779  11.259   8.080   2.840 -0.7833 -0.4869  0.0422
   73MOL0     C 9780  11.224   7.992   2.955  0.8079  0.5802  0.8956
   73MOL0     C 9781  11.303   7.858   2.940 -0.5486 -0.0998  0.1730
   73MOL0     C 9782  11.460   7.855   2.963  0.7537 -0.4216 -0.3878
   73MOL0     C 9783  11.542   7.941   2.875 -0.7519  0.6234  0.5650
   73MOL0     C 9784  11.607   8.004   2.797 -1.8347 -0.3777  0.1918
   73MOL0     C 9785  11.097   8.431   2.829  0.2114  0.8558  0.3652
   73MOL0     C 9786  11.128   8.559   2.785  1.0734  0.5127  0.2409
   73MOL0     C 9787  11.030   8.669   2.841 -0.0265  0.2123  1.0064
   73MOL0     H 9788  11.313   8.837   2.332  0.1095  1.7623 -1.2054
   73MOL0     H 9789  11.355   9.056   2.259 -2.1081  3.8161  2.7546
   73MOL0     H 9790  11.615   9.142   2.151  0.3239 -0.1522  1.6407
   73MOL0     H 9791  11.496   9.279   2.167  1.2905  2.4877  1.2865
   73MOL0     H 9792  11.776   9.316   2.250  0.9545 -1.2378 -0.5163
   73MOL0     H 9793  11.645   9.433   2.204  0.0414  0.2416 -3.4033
   73MOL0     H 9794  11.645   9.397   1.988  0.2825 -0.9892 -0.1936
   73MOL0     H 9795  11.774   9.271   2.001  1.6016  1.3680 -0.2252
   73MOL0     H 9796  11.824   9.553   2.081  0.9454  0.6385 -1.0619
   73MOL0     H 9797  11.940   9.426   2.064 -1.1076 -3.2750  0.3820
   73MOL0     H 9798  11.923   9.418   1.831  0.7074  1.5815 -1.8340
   73MOL0     H 9799  11.770   9.505   1.822 -0.8490  0.1776  1.0182
   73MOL0     H 9800  11.866   9.711   1.920  0.0966 -0.0353 -0.1770
   73MOL0     H 9801  12.017   9.649   1.898  0.4014 -2.0365  0.8395
   73MOL0     H 9802  11.905   9.587   1.640  1.9277 -0.6463  0.5679
   73MOL0     H 9803  11.986   9.736   1.677  0.0564  0.5860  1.8570
   73MOL0     H 9804  11.780   9.857   1.698  0.7075  0.3965 -3.1700
   73MOL0     H 9805  11.775   9.766   1.551  0.2313  2.3941 -0.1450
   73MOL0     H 9806  11.652   9.691   1.922 -2.6886  0.7857  2.0264
   73MOL0     H 9807  11.415   9.740   2.022  2.9171  0.3316 -1.8263
   73MOL0     H 9808  11.286   9.773   1.898  1.0194  0.0614  0.0493
   73MOL0     H 9809  11.227   9.540   1.879  0.0663  1.1746 -0.0439
   73MOL0     H 9810  11.340   9.509   2.025 -0.1947  1.4593  2.3452
   73MOL0     H 9811  11.141   9.726   2.057 -1.2134 -0.4899 -2.8895
   73MOL0     H 9812  11.233   9.630   2.168 -0.1243 -0.2707  0.0746
   73MOL0     H 9813  10.991   9.503   2.021 -1.8408  2.2181  0.6283
   73MOL0     H 9814  10.983   9.570   2.184 -0.6505 -1.2465  1.1134
   73MOL0     H 9815  10.834   9.359   2.098 -1.9696 -2.1635 -0.6194
   73MOL0     H 9816  10.728   9.168   2.146  1.1899  0.6165 -2.5910
   73MOL0     H 9817  10.650   8.926   2.576  0.8255  0.2576  3.1027
   73MOL0     H 9818  10.547   8.747   2.718 -0.3667  0.7021  0.8097
   73MOL0     H 9819  10.505   8.413   2.776 -0.7275  1.3495 -0.8768
   73MOL0     H 9820  10.574   8.426   2.612 -2.1515  4.6254  0.2037
   73MOL0     H 9821  10.643   8.212   2.686  0.1759  0.1350  0.4663
   73MOL0     H 9822  10.787   8.311   2.706  0.2921  2.0341  0.8139
   73MOL0     H 9823  10.775   8.331   2.927  1.3131 -0.3397 -0.9074
   73MOL0     H 9824  10.606   8.255   2.940 -0.4813 -3.7634  0.1609
   73MOL0     H 9825  10.879   8.128   2.848  0.5390 -4.2862 -1.5510
   73MOL0     H 9826  10.722   8.050   2.848  0.5201 -0.7551  3.1982
   73MOL0     H 9827  10.901   8.115   3.073  0.0405 -1.5035  1.2045
   73MOL0     H 9828  10.820   7.956   3.035 -1.7876 -0.8846  0.6485
   73MOL0     H 9829  10.686   8.197   3.157 -0.4169  0.3654  0.6132
   73MOL0     H 9830  10.612   8.039   3.109  0.1012 -0.6801  2.2425
   73MOL0     H 9831  10.781   7.940   3.283  0.4364  0.1018 -0.9827
   73MOL0     H 9832  10.667   8.053   3.348 -0.7656 -3.5311 -1.2810
   73MOL0     H 9833  10.966   8.094   3.299 -0.0425  1.4362 -2.2212
   73MOL0     H 9834  10.856   8.230   3.295 -0.8703 -0.3958  0.4664
   73MOL0     H 9835  10.866   8.484   2.621 -0.3235 -0.6049  0.2449
   73MOL0     H 9836  10.974   8.658   2.461 -0.3319  0.5707 -0.7461
   73MOL0     H 9837  11.081   9.020   2.349 -0.5055 -0.1345 -0.2459
   73MOL0     H 9838  11.189   9.211   2.306 -0.4563 -2.1172  1.0870
   73MOL0     H 9839  11.658   9.109   2.547 -1.8171  0.6470  1.8816
   73MOL0     H 9840  11.583   8.896   2.663  2.5024  3.3740 -1.2046
   73MOL0     H 9841  11.419   8.482   2.619 -1.2711 -4.2410 -2.6262
   73MOL0     H 9842  11.368   8.267   2.699  3.8947  4.0402  0.4950
   73MOL0     H 9843  11.357   8.126   2.850 -0.6921 -0.0614 -2.2101
   73MOL0     H 9844  11.255   8.025   2.745  2.1728 -2.3358  0.8525
   73MOL0     H 9845  11.117   7.974   2.964  0.9046 -1.1254 -0.7256
   73MOL0     H 9846  11.248   8.037   3.052  4.0136  0.5331  0.2352
   73MOL0     H 9847  11.295   7.825   2.836 -3.1910 -0.7691  0.4998
   73MOL0     H 9848  11.265   7.776   3.001  0.1993  0.5990  1.6149
   73MOL0     H 9849  11.471   7.884   3.068 -0.8718 -0.7284 -0.1077
   73MOL0     H 9850  11.503   7.754   2.955  0.1526 -0.5496 -2.5851
   73MOL0     H 9851  11.684   8.046   2.736  0.3123  0.3473  3.2101
   73MOL0     H 9852  11.015   8.412   2.897  0.1250  3.3190  1.0636
   73MOL0     H 9853  11.012   8.740   2.760  2.2319 -0.7324 -0.4295
   73MOL0     H 9854  10.938   8.619   2.871 -1.0487  1.1817 -0.4002
   73MOL0     H 9855  11.081   8.713   2.928  4.3847 -5.0693  1.6044
   74MOL0     O 9856  10.734   4.028   2.647  0.2191 -0.0299  0.4658
   74MOL0     C 9857  10.622   4.082   2.655  0.2258  0.2841 -0.1428
   74MOL0     O 9858  10.503   4.018   2.638  0.4842  0.0831  0.0595
   74MOL0     C 9859  10.494   3.878   2.630  0.2085 -0.4945 -0.3915
   74MOL0     C 9860  10.595   3.779   2.630  1.1335  0.1991  0.7429
   74MOL0     C 9861  10.557   3.645   2.630 -0.6788  0.2702  0.5609
   74MOL0     C 9862  10.426   3.610   2.615 -0.9821 -0.7760 -0.3831
   74MOL0     O 9863  10.382   3.484   2.592  0.7140 -0.1726  0.1017
   74MOL0     C 9864  10.467   3.368   2.625 -0.4125  0.9471 -0.1174
   74MOL0     C 9865  10.415   3.234   2.564 -0.5202  0.5539 -0.7465
   74MOL0     C 9866  10.509   3.110   2.558  0.3216 -0.5337  0.6102
   74MOL0     C 9867  10.549   3.052   2.693 -0.6231 -0.3073 -0.1261
   74MOL0     C 9868  10.431   3.023   2.787  0.0640  0.2334 -0.0364
   74MOL0     C 9869  10.494   2.966   2.919  0.3839  0.3365 -0.3853
   74MOL0     C 9870  10.394   2.915   3.021 -0.3072 -0.4006  0.0346
   74MOL0     C 9871  10.449   2.888   3.159 -0.1421 -0.5421 -0.1065
   74MOL0     N 9872  10.527   2.766   3.156  0.7136 -0.3537 -0.8911
   74MOL0     C 9873  10.473   2.644   3.168  0.5278 -0.2850  0.1289
   74MOL0     C 9874  10.576   2.564   3.184 -0.1804  0.2671  0.0578
   74MOL0     C 9875  10.559   2.420   3.198  0.1042  0.4049 -0.1626
   74MOL0     C 9876  10.592   2.366   3.342 -0.1539 -0.8345  0.3500
   74MOL0     C 9877  10.726   2.317   3.369 -0.0526  0.7395  0.2252
   74MOL0     C 9878  10.756   2.197   3.280 -0.6918  0.6418  0.2349
   74MOL0     O 9879  10.894   2.186   3.244 -0.0154  0.1503 -0.9383
   74MOL0     C 9880  10.975   2.115   3.330 -0.1739 -0.1307 -0.0499
   74MOL0     C 9881  11.116   2.132   3.316 -0.3126 -0.3264 -1.1320
   74MOL0     C 9882  11.205   2.048   3.383 -0.3541 -0.2375  0.5798
   74MOL0     C 9883  11.159   1.937   3.463 -0.2683 -0.2932 -0.0571
   74MOL0     C 9884  11.253   1.849   3.541 -0.4910 -0.3041 -0.1835
   74MOL0     O 9885  11.392   1.863   3.513 -0.0738  0.5767 -0.1782
   74MOL0     C 9886  11.490   1.775   3.550 -0.3472  0.3233 -0.4338
   74MOL0     C 9887  11.617   1.816   3.595  1.0282 -0.2994 -1.8142
   74MOL0     C 9888  11.713   1.729   3.639 -1.1099  0.0135  1.0638
   74MOL0     C 9889  11.683   1.594   3.617 -0.7291 -0.0935 -0.4702
   74MOL0     O 9890  11.784   1.502   3.637 -0.3546  0.0553 -0.0305
   74MOL0     C 9891  11.784   1.449   3.771 -0.3241  0.7669  0.0042
   74MOL0     C 9892  11.828   1.296   3.778 -0.7477 -0.5423  0.5710
   74MOL0     C 9893  11.874   1.243   3.908 -0.5831  0.6131  0.6886
   74MOL0     C 9894  12.036   1.237   3.907  0.0459 -0.7294 -0.5182
   74MOL0     C 9895  12.113   1.171   4.015 -0.5202  0.2285  0.2058
   74MOL0     C 9896  12.075   1.207   4.155 -0.6715 -0.4469  1.1337
   74MOL0     C 9897  12.171   1.157   4.261  0.9462 -0.2095  0.2541
   74MOL0     C 9898  12.137   1.183   4.405  0.8719  0.1935  0.8741
   74MOL0    Cl 9899  12.162   1.355   4.442 -0.0779 -0.3684 -0.1291
   74MOL0     C 9900  11.569   1.549   3.566 -0.0421  0.5996  0.1493
   74MOL0     C 9901  11.468   1.641   3.533  0.9615 -0.8728 -0.1108
   74MOL0     O 9902  11.204   1.767   3.616 -0.1037  0.2307 -0.1295
   74MOL0     C 9903  11.017   1.914   3.474  0.3827  0.3181 -0.1620
   74MOL0     C 9904  10.929   2.005   3.409 -0.3421  0.0168 -0.8570
   74MOL0     N 9905  10.693   2.633   3.177 -0.5760 -0.3783 -0.1819
   74MOL0     N 9906  10.664   2.759   3.176  0.0485  0.5448  0.5228
   74MOL0     C 9907  10.327   3.705   2.631  0.8590  0.1617  0.9110
   74MOL0     C 9908  10.363   3.839   2.614  1.0624  0.2838 -0.4928
   74MOL0     C 9909  10.616   4.227   2.660  0.0985  0.6078 -0.8869
   74MOL0     C 9910  10.494   4.285   2.614  0.5028  0.2154 -0.3659
   74MOL0     C 9911  10.484   4.422   2.597 -0.0220  0.2033 -1.1980
   74MOL0     C 9912  10.587   4.506   2.646 -0.3472 -0.2670  0.5623
   74MOL0     O 9913  10.585   4.641   2.644  0.3826  0.0682  0.1869
   74MOL0     C 9914  10.471   4.704   2.581 -0.2184  0.5087 -0.3880
   74MOL0     C 9915  10.488   4.859   2.570 -0.6285 -0.5694 -0.1993
   74MOL0     C 9916  10.472   4.921   2.713 -0.8483  0.1135 -0.1800
   74MOL0     C 9917  10.480   5.077   2.699 -0.1811 -0.3405 -0.7084
   74MOL0     C 9918  10.502   5.154   2.828  1.2468  0.0575 -0.6691
   74MOL0     C 9919  10.508   5.205   2.943  0.8591 -0.2833 -0.0808
   74MOL0     C 9920  10.695   4.449   2.708  0.5997 -0.2759  0.3018
   74MOL0     C 9921  10.715   4.311   2.723 -0.1129  0.4200 -0.1939
   74MOL0     C 9922  10.837   4.255   2.795 -0.4993  0.3743  0.1320
   74MOL0     H 9923  10.697   3.816   2.624  0.4096  2.1663 -0.4047
   74MOL0     H 9924  10.637   3.572   2.627 -0.9307  0.0243 -0.5648
   74MOL0     H 9925  10.562   3.393   2.576 -0.9856  0.2238 -1.6473
   74MOL0     H 9926  10.471   3.367   2.734 -1.9305  1.3244 -0.0413
   74MOL0     H 9927  10.381   3.254   2.462 -0.2377  0.3136 -0.8884
   74MOL0     H 9928  10.330   3.207   2.627 -0.0920 -0.7079 -0.6868
   74MOL0     H 9929  10.598   3.151   2.510  0.2743 -0.7924  0.2922
   74MOL0     H 9930  10.474   3.029   2.493 -1.4493  1.6411 -1.3621
   74MOL0     H 9931  10.603   2.960   2.672  0.8557  0.9720 -2.4127
   74MOL0     H 9932  10.622   3.123   2.735  2.2538 -2.2887 -1.4771
   74MOL0     H 9933  10.384   3.118   2.813  0.9602  0.6190  0.1977
   74MOL0     H 9934  10.362   2.948   2.746  0.7093 -0.0120 -0.7181
   74MOL0     H 9935  10.540   2.874   2.881 -1.8406 -0.7784 -0.5239
   74MOL0     H 9936  10.558   3.037   2.972  0.5047 -1.1345  1.5546
   74MOL0     H 9937  10.341   2.826   2.985 -1.8192  0.7265 -0.6484
   74MOL0     H 9938  10.309   2.985   3.017  0.7779  0.9090 -2.0264
   74MOL0     H 9939  10.499   2.977   3.198 -2.6660  0.3792  1.2998
   74MOL0     H 9940  10.376   2.862   3.236  0.5881  0.5262  0.9933
   74MOL0     H 9941  10.367   2.624   3.165  0.3831  0.2787  1.1683
   74MOL0     H 9942  10.453   2.396   3.181 -0.0260  1.1735 -0.4772
   74MOL0     H 9943  10.621   2.366   3.126  1.4449  0.2810  1.0671
   74MOL0     H 9944  10.563   2.451   3.406 -3.5975  0.3544 -2.4226
   74MOL0     H 9945  10.525   2.282   3.362 -0.9717 -0.2092  0.3225
   74MOL0     H 9946  10.741   2.280   3.471 -0.7286  0.6353  0.2919
   74MOL0     H 9947  10.798   2.396   3.348 -0.0523  0.7588  0.2988
   74MOL0     H 9948  10.711   2.209   3.181  2.1431  4.9248 -0.8255
   74MOL0     H 9949  10.706   2.113   3.329 -3.1811  1.9507  0.1008
   74MOL0     H 9950  11.147   2.210   3.247 -2.0247  1.7486  0.3144
   74MOL0     H 9951  11.311   2.068   3.380 -0.3357 -0.3352  0.5988
   74MOL0     H 9952  11.646   1.921   3.592  0.0616 -0.0578 -4.0717
   74MOL0     H 9953  11.816   1.757   3.658 -1.0107  0.5666 -0.2457
   74MOL0     H 9954  11.862   1.507   3.822  1.3397 -1.6836  0.4067
   74MOL0     H 9955  11.685   1.460   3.815 -0.4890  1.2989 -0.4916
   74MOL0     H 9956  11.743   1.234   3.747 -0.2672 -0.2658 -1.4614
   74MOL0     H 9957  11.906   1.291   3.701  0.2935 -1.2866  1.6415
   74MOL0     H 9958  11.838   1.303   3.992  3.3390  0.4488  2.7783
   74MOL0     H 9959  11.843   1.139   3.924 -0.5158  0.6074  0.7812
   74MOL0     H 9960  12.064   1.342   3.896 -1.6026 -0.3045 -0.9600
   74MOL0     H 9961  12.070   1.173   3.826  1.1924 -1.6219  0.6173
   74MOL0     H 9962  12.219   1.184   3.993 -0.3661  1.0842  1.3464
   74MOL0     H 9963  12.112   1.063   4.001 -1.6754  0.4664 -1.9737
   74MOL0     H 9964  12.075   1.316   4.169 -3.6386 -0.1181 -0.6364
   74MOL0     H 9965  11.978   1.164   4.182 -0.1629 -2.2982  0.1812
   74MOL0     H 9966  12.263   1.212   4.242 -1.0592  3.1540 -0.4475
   74MOL0     H 9967  12.200   1.052   4.247  2.3697 -0.0005  1.4365
   74MOL0     H 9968  12.035   1.148   4.426 -0.2190  0.4443 -3.1553
   74MOL0     H 9969  12.202   1.124   4.470  3.2474  0.6497 -0.9827
   74MOL0     H 9970  11.556   1.447   3.533 -1.8383  0.6998  0.4208
   74MOL0     H 9971  11.369   1.616   3.498 -1.2148  1.5175  3.6604
   74MOL0     H 9972  10.975   1.826   3.523 -3.9845  1.6331 -1.1523
   74MOL0     H 9973  10.826   1.969   3.412 -0.3591  0.0308 -1.1615
   74MOL0     H 9974  10.220   3.695   2.622  0.3711  4.4862 -0.9007
   74MOL0     H 9975  10.282   3.909   2.594  0.7264  0.0507  0.0411
   74MOL0     H 9976  10.420   4.219   2.570 -0.1284 -0.6848  1.8755
   74MOL0     H 9977  10.399   4.478   2.558  1.6121  3.0356 -0.9986
   74MOL0     H 9978  10.382   4.674   2.637 -0.2623  1.3876  0.0309
   74MOL0     H 9979  10.472   4.661   2.480 -1.4637  0.5675 -0.4524
   74MOL0     H 9980  10.414   4.913   2.510  0.5099  1.2739 -0.0323
   74MOL0     H 9981  10.590   4.887   2.541 -1.1448 -0.1282 -1.6881
   74MOL0     H 9982  10.548   4.882   2.782 -0.4291  0.2222 -0.5751
   74MOL0     H 9983  10.374   4.891   2.750 -1.4167 -0.6566 -2.1911
   74MOL0     H 9984  10.556   5.090   2.621 -0.0930 -3.2266 -1.2221
   74MOL0     H 9985  10.385   5.119   2.666  0.1530 -1.1335 -2.7845
   74MOL0     H 9986  10.499   5.230   3.046 -0.8492  1.1328 -0.5292
   74MOL0     H 9987  10.764   4.523   2.747  0.0326 -0.2712  1.3180
   74MOL0     H 9988  10.823   4.164   2.854  2.8096 -0.3559 -0.0189
   74MOL0     H 9989  10.916   4.236   2.722  0.1294 -0.3915  0.9744
   74MOL0     H 9990  10.861   4.329   2.872 -2.3098 -0.8274  1.9621
   75MOL0     O 9991   6.887   6.998   9.973  0.2792  0.0549  0.1126
   75MOL0     C 9992   6.811   7.090   9.952 -0.1176  0.7480 -0.2374
   75MOL0     O 9993   6.680   7.062   9.927 -0.1287  0.5355 -0.1606
   75MOL0     C 9994   6.641   6.934   9.943 -0.5167 -0.4437 -0.6166
   75MOL0     C 9995   6.586   6.882  10.059  0.7003  0.0546 -0.0273
   75MOL0     C 9996   6.524   6.758  10.065 -0.3459  0.9662  0.0010
   75MOL0     C 9997   6.496   6.683   9.947 -0.5345 -0.4646  0.0674
   75MOL0     O 9998   6.429   6.561   9.936  0.3398  0.2412 -0.0571
   75MOL0     C 9999   6.371   6.491  10.043  0.2834  0.8528 -0.1337
   75MOL0     C10000   6.398   6.342  10.042 -0.7157  0.1587 -0.4930
   75MOL0     C10001   6.538   6.323  10.100  0.2044  0.1462 -0.0263
   75MOL0     C10002   6.606   6.195  10.047 -0.7925 -0.3062  0.2964
   75MOL0     C10003   6.737   6.189  10.130  0.6838  0.6458  0.3418
   75MOL0     C10004   6.783   6.046  10.112  0.7521  0.9837 -0.6162
   75MOL0     C10005   6.931   6.042  10.156  0.2725  0.6654  0.4203
   75MOL0     C10006   7.004   5.920  10.107  0.4721  0.2057  0.2603
   75MOL0     N10007   6.974   5.791  10.175  0.4270  0.3581 -0.2519
   75MOL0     C10008   6.877   5.705  10.141  0.4442 -0.2974 -0.6069
   75MOL0     C10009   6.902   5.585  10.183  0.9359 -0.2443 -0.6200
   75MOL0     C10010   6.819   5.467  10.151  0.4727 -0.0026  0.7420
   75MOL0     C10011   6.665   5.504  10.156  0.0147 -0.2344  0.4728
   75MOL0     C10012   6.625   5.515  10.297  0.4582 -0.0326  0.3454
   75MOL0     C10013   6.474   5.554  10.304  0.0116  0.4312 -0.8524
   75MOL0     O10014   6.471   5.698  10.271 -0.4657  0.2103  0.1421
   75MOL0     C10015   6.484   5.789  10.372 -0.3277 -0.0891 -0.1384
   75MOL0     C10016   6.547   5.768  10.495 -0.0626  0.7525 -0.0053
   75MOL0     C10017   6.550   5.865  10.599  0.4578  0.0486 -0.4578
   75MOL0     C10018   6.478   5.988  10.585 -0.1321 -0.6622 -0.4354
   75MOL0     C10019   6.469   6.091  10.691  0.0403 -0.2872  0.3628
   75MOL0     O10020   6.517   6.053  10.813 -0.4378 -0.4835 -0.0711
   75MOL0     C10021   6.510   6.134  10.926 -0.6729 -0.2617  0.2591
   75MOL0     C10022   6.619   6.129  11.005 -0.7793  0.5985 -0.5497
   75MOL0     C10023   6.635   6.203  11.122  0.5344  0.0987 -0.2623
   75MOL0     C10024   6.531   6.263  11.188 -0.1095  0.0399 -0.7215
   75MOL0     O10025   6.532   6.324  11.305 -0.4079 -0.0340  0.0804
   75MOL0     C10026   6.649   6.350  11.377 -0.2730 -0.4490 -0.3248
   75MOL0     C10027   6.711   6.471  11.317 -0.1331 -0.3419  0.5685
   75MOL0     C10028   6.639   6.602  11.354 -0.3709 -0.0109  0.0333
   75MOL0     C10029   6.728   6.725  11.318  0.8912 -0.4721  0.3525
   75MOL0     C10030   6.700   6.838  11.421 -0.1590 -0.0872 -0.2970
   75MOL0     C10031   6.785   6.962  11.391  1.0117  0.4109 -0.1217
   75MOL0     C10032   6.776   7.063  11.502 -0.5179  0.0149 -0.4459
   75MOL0     C10033   6.852   7.195  11.454 -0.1170 -0.1014  0.4117
   75MOL0    Cl10034   6.888   7.295  11.583 -0.3220 -0.2259 -0.4140
   75MOL0     C10035   6.411   6.243  11.118 -0.0732  0.5237  0.0929
   75MOL0     C10036   6.393   6.189  10.988  0.0016  0.5372  0.0405
   75MOL0     O10037   6.436   6.201  10.657 -0.1900 -0.0019  0.0877
   75MOL0     C10038   6.410   6.006  10.466  0.5641  1.0588  1.3473
   75MOL0     C10039   6.418   5.911  10.356 -0.2050 -0.8380 -1.1142
   75MOL0     N10040   7.012   5.587  10.256 -0.5035 -0.2680 -0.1815
   75MOL0     N10041   7.055   5.714  10.253 -0.4830 -0.2412  0.1084
   75MOL0     C10042   6.542   6.746   9.828 -0.0916  0.3091  0.3470
   75MOL0     C10043   6.619   6.863   9.827  0.8384  0.8924 -0.8757
   75MOL0     C10044   6.846   7.231   9.938  0.6788 -0.0555  0.4127
   75MOL0     C10045   6.742   7.331   9.907  0.4951 -0.4874  0.7820
   75MOL0     C10046   6.775   7.464   9.893  0.7244  0.1938 -0.0180
   75MOL0     C10047   6.903   7.512   9.913  0.1796  0.2602 -0.0671
   75MOL0     O10048   6.950   7.640   9.922 -0.2934  0.9098 -0.3095
   75MOL0     C10049   6.850   7.743   9.930 -0.4935  0.2196 -0.0697
   75MOL0     C10050   6.917   7.878   9.976  0.3642 -0.0600  0.9598
   75MOL0     C10051   7.002   7.959   9.874 -0.6712  0.3354 -0.2586
   75MOL0     C10052   6.916   8.003   9.763 -0.0537 -0.5529  0.4728
   75MOL0     C10053   6.821   8.112   9.798  0.8264 -0.1902  0.3356
   75MOL0     C10054   6.743   8.192   9.847  0.4365 -0.1218  0.6864
   75MOL0     C10055   7.007   7.417   9.939  0.4226  0.6071  0.9394
   75MOL0     C10056   6.977   7.281   9.951  0.0682 -0.0737  0.2168
   75MOL0     C10057   7.103   7.194   9.964  0.5547  0.0192  0.0039
   75MOL0     H10058   6.585   6.930  10.156 -3.4738 -2.4989  1.4478
   75MOL0     H10059   6.503   6.730  10.168  1.0509  2.4161  0.7075
   75MOL0     H10060   6.397   6.529  10.142 -0.6120 -0.0415  0.4597
   75MOL0     H10061   6.265   6.507  10.024  0.3893  1.6236 -0.1197
   75MOL0     H10062   6.383   6.301   9.942  2.1605 -0.5562 -0.7280
   75MOL0     H10063   6.325   6.295  10.109 -3.0509  0.2298 -2.8210
   75MOL0     H10064   6.530   6.323  10.209 -1.6736  2.2963 -0.0743
   75MOL0     H10065   6.604   6.405  10.072  1.2623  0.7024  3.6653
   75MOL0     H10066   6.540   6.109  10.062 -0.3669 -0.7794 -0.4871
   75MOL0     H10067   6.633   6.206   9.942  0.7399  2.4574  0.8968
   75MOL0     H10068   6.803   6.266  10.089 -0.4610  1.1366 -0.6583
   75MOL0     H10069   6.721   6.206  10.237 -0.2590 -3.8049  1.0860
   75MOL0     H10070   6.719   5.981  10.172  2.0608  0.1747 -0.0563
   75MOL0     H10071   6.769   6.020  10.007 -1.1739  2.3995 -0.7562
   75MOL0     H10072   6.948   6.052  10.264 -1.5841  1.7964  0.6542
   75MOL0     H10073   6.973   6.135  10.116 -0.1190  0.4748 -0.4692
   75MOL0     H10074   6.986   5.904  10.000  1.6325 -0.4434  0.1448
   75MOL0     H10075   7.112   5.937  10.109  1.0292 -2.5338 -1.1907
   75MOL0     H10076   6.798   5.736  10.073  0.7908 -0.2996 -1.0138
   75MOL0     H10077   6.836   5.417  10.055 -1.9766 -1.7604  1.1282
   75MOL0     H10078   6.847   5.396  10.229  0.9402  2.2207  2.7409
   75MOL0     H10079   6.643   5.601  10.109  2.2690  0.5172  0.8370
   75MOL0     H10080   6.600   5.431  10.108  2.1330 -2.2873  0.5251
   75MOL0     H10081   6.695   5.582  10.348 -3.4045  2.5947  2.7478
   75MOL0     H10082   6.644   5.419  10.346 -1.9846 -0.4014  0.7276
   75MOL0     H10083   6.435   5.551  10.406 -0.6381  1.0666 -1.0778
   75MOL0     H10084   6.420   5.476  10.249 -1.2445 -0.1701  1.1205
   75MOL0     H10085   6.593   5.670  10.510  1.1510  1.2885 -0.1055
   75MOL0     H10086   6.588   5.847  10.699 -0.9502  3.1011  0.7465
   75MOL0     H10087   6.702   6.069  10.970  0.3534  0.9143  1.4062
   75MOL0     H10088   6.736   6.210  11.159  1.1730  0.1535 -1.9312
   75MOL0     H10089   6.626   6.364  11.483 -0.9754 -0.2723 -0.4967
   75MOL0     H10090   6.724   6.272  11.359  0.3073 -0.0906  0.4712
   75MOL0     H10091   6.811   6.487  11.357 -0.2457 -0.3865  0.8718
   75MOL0     H10092   6.716   6.453  11.209 -0.2814 -0.8109  0.6371
   75MOL0     H10093   6.537   6.616  11.319 -0.9111 -0.2307  1.4588
   75MOL0     H10094   6.637   6.599  11.464  1.0046  1.9405  0.1719
   75MOL0     H10095   6.714   6.766  11.218 -0.8710 -1.2931  0.2341
   75MOL0     H10096   6.835   6.702  11.310  1.1767  1.4385 -2.5861
   75MOL0     H10097   6.725   6.810  11.524  0.0568  1.5671  0.1418
   75MOL0     H10098   6.594   6.861  11.431 -0.9629 -3.0667 -0.9792
   75MOL0     H10099   6.889   6.932  11.378  1.1564  0.5083  0.7062
   75MOL0     H10100   6.758   7.011  11.297 -0.2063 -1.0361 -0.5642
   75MOL0     H10101   6.826   7.019  11.589 -1.9439  4.2795  2.8771
   75MOL0     H10102   6.676   7.094  11.533  0.5624  2.4899  0.8863
   75MOL0     H10103   6.950   7.185  11.407  0.9259 -0.7234  2.5852
   75MOL0     H10104   6.785   7.239  11.379 -0.2753 -3.2903 -1.5046
   75MOL0     H10105   6.316   6.272  11.161  1.1496  1.7529  2.1325
   75MOL0     H10106   6.299   6.182  10.934  0.6393 -2.7905 -0.8533
   75MOL0     H10107   6.360   6.097  10.434  1.9993  1.5266  0.3220
   75MOL0     H10108   6.385   5.928  10.254 -0.8572  0.1393 -0.7578
   75MOL0     H10109   6.522   6.699   9.732 -3.0073 -0.9129  1.4370
   75MOL0     H10110   6.657   6.899   9.732 -1.4964 -1.1664 -2.7502
   75MOL0     H10111   6.638   7.300   9.905  0.8986 -2.0767  2.1356
   75MOL0     H10112   6.688   7.529   9.885 -0.6289 -1.7532 -2.5640
   75MOL0     H10113   6.772   7.726  10.004 -0.8061 -0.4689 -0.5422
   75MOL0     H10114   6.793   7.754   9.837 -1.9516  4.4239  1.0804
   75MOL0     H10115   6.992   7.859  10.054  2.9248  0.8733 -1.1440
   75MOL0     H10116   6.838   7.937  10.023  0.3325  0.7851 -0.1344
   75MOL0     H10117   7.086   7.895   9.844  1.3165  1.6745  1.9952
   75MOL0     H10118   7.050   8.038   9.933 -0.0048 -0.0714 -0.2373
   75MOL0     H10119   6.975   8.039   9.678 -1.7027 -1.1811 -1.0072
   75MOL0     H10120   6.870   7.919   9.711  0.8002  1.0100 -3.1212
   75MOL0     H10121   6.661   8.255   9.878  2.1055  2.0344  0.9550
   75MOL0     H10122   7.107   7.456   9.957  1.7309 -1.3992 -1.4221
   75MOL0     H10123   7.110   7.113   9.891  0.3738 -2.1287  2.2179
   75MOL0     H10124   7.192   7.255   9.975 -0.1136  1.3205 -1.4601
   75MOL0     H10125   7.100   7.151  10.065  3.2809  1.2346  0.6764
   76MOL0     O10126   1.707   9.349   2.654  0.1371  0.0992  0.1473
   76MOL0     C10127   1.806   9.422   2.670  0.4326  0.4448 -0.7262
   76MOL0     O10128   1.839   9.478   2.784 -0.1721 -0.4489 -0.4195
   76MOL0     C10129   1.806   9.424   2.901 -0.0173 -0.4982  0.3164
   76MOL0     C10130   1.721   9.481   2.992 -0.1855  0.1834 -0.7339
   76MOL0     C10131   1.685   9.416   3.114  0.2798 -0.4657 -0.0183
   76MOL0     C10132   1.744   9.298   3.150 -0.1443  0.8548  0.9202
   76MOL0     O10133   1.709   9.223   3.256 -0.9293 -0.7632 -0.2491
   76MOL0     C10134   1.631   9.265   3.369  0.6908  1.1851 -0.8467
   76MOL0     C10135   1.584   9.139   3.451  0.0687 -0.1676  0.4418
   76MOL0     C10136   1.709   9.074   3.513 -0.5635  0.0929 -1.0410
   76MOL0     C10137   1.681   8.969   3.629 -0.3356 -0.6112 -0.3639
   76MOL0     C10138   1.592   9.009   3.737  0.3819  0.8448 -1.0800
   76MOL0     C10139   1.612   8.925   3.861 -0.3337  0.0121  0.3463
   76MOL0     C10140   1.602   8.774   3.844  0.3137  0.4096 -0.2256
   76MOL0     C10141   1.576   8.698   3.971 -0.6454  0.7502  0.0175
   76MOL0     N10142   1.684   8.703   4.071  0.0669 -1.0200 -0.0249
   76MOL0     C10143   1.773   8.600   4.089 -0.6737 -0.2925 -0.8827
   76MOL0     C10144   1.863   8.644   4.184  1.1340  1.2944 -0.0072
   76MOL0     C10145   1.980   8.564   4.221 -1.0875 -0.5903 -0.4929
   76MOL0     C10146   1.979   8.517   4.366  0.2803  0.2623  0.0228
   76MOL0     C10147   1.859   8.424   4.390  0.3387  0.3483  0.2266
   76MOL0     C10148   1.875   8.340   4.514  0.0083 -0.2863  0.6969
   76MOL0     O10149   1.768   8.246   4.524  0.0833  0.0922 -0.3887
   76MOL0     C10150   1.738   8.189   4.645 -0.5695 -0.4027  0.1654
   76MOL0     C10151   1.815   8.206   4.760  0.3988 -0.5829 -1.3473
   76MOL0     C10152   1.768   8.140   4.876  0.7611 -0.3985 -0.1436
   76MOL0     C10153   1.636   8.076   4.881 -0.8858  0.3965  0.0226
   76MOL0     C10154   1.581   8.026   5.007  0.5938  0.3692 -0.1548
   76MOL0     O10155   1.481   7.942   5.001 -0.1516 -0.1303  0.0267
   76MOL0     C10156   1.420   7.881   5.108 -0.1030  0.2709 -0.5425
   76MOL0     C10157   1.424   7.739   5.129 -0.0791  0.5047 -0.1655
   76MOL0     C10158   1.366   7.678   5.240 -1.0544  0.1584 -0.9227
   76MOL0     C10159   1.301   7.753   5.333  0.3901 -0.0343  0.7524
   76MOL0     O10160   1.229   7.703   5.436 -0.2998  0.4593 -0.1892
   76MOL0     C10161   1.295   7.603   5.526 -0.1664  0.3630 -0.4282
   76MOL0     C10162   1.207   7.590   5.661  0.4873 -0.2279 -0.0024
   76MOL0     C10163   1.299   7.523   5.755  0.0038 -0.6082  0.3924
   76MOL0     C10164   1.219   7.475   5.877 -0.5374 -0.5727  1.1859
   76MOL0     C10165   1.309   7.433   5.996  1.1094 -0.1351 -0.3439
   76MOL0     C10166   1.232   7.444   6.125 -0.5965 -0.4461 -0.2524
   76MOL0     C10167   1.141   7.323   6.146 -0.3753 -0.4351  0.0651
   76MOL0     C10168   1.053   7.343   6.280  0.6731 -0.0730  0.6882
   76MOL0    Cl10169   0.997   7.185   6.330  0.2526 -0.0834  0.3546
   76MOL0     C10170   1.282   7.892   5.307  0.5970 -0.3145 -0.7255
   76MOL0     C10171   1.345   7.953   5.196 -0.6423  0.5711  0.0386
   76MOL0     O10172   1.629   8.062   5.117 -0.1724 -0.5230 -0.5767
   76MOL0     C10173   1.563   8.068   4.765  0.3796  0.3105  0.4595
   76MOL0     C10174   1.619   8.122   4.645 -0.8065  0.1083  0.3463
   76MOL0     N10175   1.823   8.783   4.219 -0.2915 -0.3878 -0.0295
   76MOL0     N10176   1.717   8.810   4.150 -0.3277  0.0285  0.0611
   76MOL0     C10177   1.834   9.234   3.066  0.2870 -0.2529 -0.3850
   76MOL0     C10178   1.865   9.296   2.943  0.6962  0.0490  0.0899
   76MOL0     C10179   1.894   9.459   2.558  0.4113 -0.5562  0.3724
   76MOL0     C10180   1.899   9.593   2.513  0.1771 -0.3248  0.0258
   76MOL0     C10181   1.971   9.631   2.404  0.8013 -0.5302 -0.6657
   76MOL0     C10182   2.041   9.538   2.328  0.2143 -0.9805  0.2958
   76MOL0     O10183   2.080   9.596   2.210 -0.0744  0.1898  0.0677
   76MOL0     C10184   2.146   9.524   2.107 -0.5423  0.3827 -0.3676
   76MOL0     C10185   2.218   9.631   2.017 -1.3752 -0.4077 -0.6313
   76MOL0     C10186   2.291   9.574   1.899 -0.6884 -0.8556 -0.7135
   76MOL0     C10187   2.411   9.494   1.925  0.3498 -0.0851 -0.5879
   76MOL0     C10188   2.508   9.583   1.978 -0.2863  0.1841 -0.1385
   76MOL0     C10189   2.585   9.657   2.029 -0.1530 -0.5315  0.3989
   76MOL0     C10190   2.035   9.403   2.365  0.5103 -0.1351 -0.1713
   76MOL0     C10191   1.968   9.361   2.479  1.0526  0.2586 -0.6999
   76MOL0     C10192   1.960   9.223   2.524 -0.3125 -0.3178 -1.5808
   76MOL0     H10193   1.669   9.576   2.990 -1.6072 -0.5232  0.4777
   76MOL0     H10194   1.606   9.465   3.171 -1.2521 -0.8418 -1.7152
   76MOL0     H10195   1.694   9.331   3.430  0.1594  1.3858 -0.5051
   76MOL0     H10196   1.530   9.302   3.347 -0.5525 -1.8781 -0.8141
   76MOL0     H10197   1.543   9.073   3.375  1.3506 -0.0137 -0.4029
   76MOL0     H10198   1.514   9.153   3.534  4.4782 -2.3622  5.0909
   76MOL0     H10199   1.767   9.164   3.535 -3.1371  2.6139 -3.7022
   76MOL0     H10200   1.768   9.022   3.437 -3.3993  1.6574 -4.5833
   76MOL0     H10201   1.648   8.877   3.579 -1.8749 -0.2235 -0.1275
   76MOL0     H10202   1.777   8.939   3.671  0.8975 -0.1711 -2.6902
   76MOL0     H10203   1.598   9.117   3.756 -1.1463  0.3790  3.2506
   76MOL0     H10204   1.493   8.985   3.697  1.0544 -0.1596 -2.2351
   76MOL0     H10205   1.717   8.937   3.890 -0.4292  0.2083  0.6206
   76MOL0     H10206   1.542   8.964   3.936 -3.0842  0.7768 -2.4282
   76MOL0     H10207   1.693   8.739   3.795  0.5638 -0.4411  0.7969
   76MOL0     H10208   1.518   8.754   3.776  1.0118  2.4377 -1.7944
   76MOL0     H10209   1.477   8.734   4.001 -0.7756 -0.0623  0.6003
   76MOL0     H10210   1.563   8.591   3.954  0.3557  0.5142  0.6458
   76MOL0     H10211   1.776   8.502   4.043  0.5473 -1.8601  2.2375
   76MOL0     H10212   1.999   8.479   4.155  2.2719 -0.8694  0.6158
   76MOL0     H10213   2.061   8.638   4.216 -2.1285  0.6836  0.6298
   76MOL0     H10214   2.072   8.467   4.393 -0.7327 -0.7801  1.7999
   76MOL0     H10215   1.972   8.596   4.441  1.6676  1.7283 -1.3217
   76MOL0     H10216   1.825   8.365   4.304 -0.7342 -0.2994  1.0763
   76MOL0     H10217   1.773   8.488   4.408  0.0832 -0.3157  1.4793
   76MOL0     H10218   1.874   8.406   4.602 -2.7796 -2.0847  2.1988
   76MOL0     H10219   1.964   8.277   4.507  0.2346  0.0761  0.2936
   76MOL0     H10220   1.899   8.275   4.758 -0.0933  0.0405 -0.9439
   76MOL0     H10221   1.832   8.140   4.964  2.1429 -0.5007 -1.1091
   76MOL0     H10222   1.470   7.670   5.059 -3.4130 -1.3414 -0.7829
   76MOL0     H10223   1.369   7.572   5.260  1.1755  0.9212  4.1248
   76MOL0     H10224   1.296   7.509   5.469  1.3375  0.4142 -0.5273
   76MOL0     H10225   1.395   7.633   5.558 -0.7842  0.6676  1.3135
   76MOL0     H10226   1.181   7.692   5.693 -0.7999 -0.6467  0.3332
   76MOL0     H10227   1.112   7.537   5.655 -0.1964  1.0854 -1.6805
   76MOL0     H10228   1.339   7.435   5.704 -3.0400 -0.2649 -3.0343
   76MOL0     H10229   1.374   7.598   5.780  0.5259 -1.1834  0.5705
   76MOL0     H10230   1.159   7.387   5.852 -0.8382 -1.0093  3.2851
   76MOL0     H10231   1.149   7.545   5.921  1.8192  0.3358  3.7816
   76MOL0     H10232   1.389   7.507   6.002  0.3588  0.6752 -0.2991
   76MOL0     H10233   1.343   7.330   5.979  1.8827  0.2847 -1.5042
   76MOL0     H10234   1.301   7.450   6.210 -1.7456  1.1386  0.6192
   76MOL0     H10235   1.173   7.535   6.137  1.1082  0.8058 -0.9964
   76MOL0     H10236   1.200   7.235   6.175 -1.2053 -0.2378  2.5783
   76MOL0     H10237   1.074   7.304   6.061  0.9641  0.9649 -1.3558
   76MOL0     H10238   1.110   7.383   6.365  0.7760  0.7803  0.2339
   76MOL0     H10239   0.969   7.412   6.270  0.2474 -0.4219  1.7649
   76MOL0     H10240   1.229   7.940   5.389 -0.0295 -4.9595  1.9022
   76MOL0     H10241   1.344   8.060   5.181  2.4669  0.4998 -1.5283
   76MOL0     H10242   1.467   8.017   4.769  0.3362  0.4454  1.2615
   76MOL0     H10243   1.569   8.106   4.550 -1.7767  2.0670  0.4797
   76MOL0     H10244   1.877   9.138   3.093 -0.8404 -1.0278 -1.2518
   76MOL0     H10245   1.943   9.256   2.879 -0.2190  0.1434 -1.1011
   76MOL0     H10246   1.853   9.664   2.581  0.2309  1.1751 -1.4439
   76MOL0     H10247   1.966   9.738   2.386  0.8943 -0.7930 -2.3591
   76MOL0     H10248   2.082   9.454   2.053 -1.5710  1.9101 -1.1934
   76MOL0     H10249   2.219   9.459   2.156 -0.8098 -0.4180 -1.0084
   76MOL0     H10250   2.287   9.693   2.075 -2.8061  0.6827 -0.0485
   76MOL0     H10251   2.148   9.702   1.973  0.2037  1.8806  0.3131
   76MOL0     H10252   2.321   9.650   1.826 -1.7663 -1.1524 -1.4918
   76MOL0     H10253   2.221   9.509   1.846  0.3935 -0.2168 -3.0749
   76MOL0     H10254   2.393   9.415   1.999  0.9357 -4.3060 -4.4967
   76MOL0     H10255   2.439   9.451   1.828  1.1441 -1.8431  0.3724
   76MOL0     H10256   2.653   9.728   2.071 -0.7600 -0.9369  2.1585
   76MOL0     H10257   2.095   9.331   2.310  0.1053 -0.7171  0.1489
   76MOL0     H10258   2.029   9.211   2.608 -1.3603  2.6404 -0.1667
   76MOL0     H10259   1.862   9.186   2.555  0.9487 -0.3439  3.0356
   76MOL0     H10260   2.003   9.152   2.452 -0.4959 -0.8443 -1.1739
   77MOL0     O10261   5.479   6.353   0.403 -0.1832  0.2042 -0.1894
   77MOL0     C10262   5.563   6.311   0.484 -0.1513 -0.3746  0.0730
   77MOL0     O10263   5.694   6.353   0.485  0.2166 -0.2129  0.8789
   77MOL0     C10264   5.720   6.486   0.450 -0.3263 -0.0821 -0.4085
   77MOL0     C10265   5.625   6.593   0.473 -0.6786 -0.8818 -0.2706
   77MOL0     C10266   5.651   6.728   0.434 -0.0570 -0.1480 -0.0606
   77MOL0     C10267   5.776   6.760   0.380 -0.0721 -0.9811  0.1181
   77MOL0     O10268   5.806   6.890   0.343  0.0461 -0.2569 -0.2908
   77MOL0     C10269   5.871   6.898   0.222  0.0736 -0.2671  0.3107
   77MOL0     C10270   5.852   7.029   0.146  0.3166  0.1546  0.6744
   77MOL0     C10271   5.871   7.159   0.226 -0.1021 -0.5149  0.2914
   77MOL0     C10272   5.880   7.283   0.134 -0.3414  0.5779  0.8313
   77MOL0     C10273   5.861   7.417   0.207  0.9239  0.0970  0.3772
   77MOL0     C10274   5.990   7.463   0.280 -0.4857 -0.3651 -0.2201
   77MOL0     C10275   5.990   7.603   0.345 -0.2710 -0.4724 -0.4851
   77MOL0     C10276   5.978   7.719   0.241 -1.1393  0.2147 -0.7810
   77MOL0     N10277   6.100   7.724   0.158 -0.2911  0.3690  0.2829
   77MOL0     C10278   6.216   7.787   0.194 -0.2605 -0.3167  0.4395
   77MOL0     C10279   6.284   7.773   0.075 -0.6177 -0.6476  0.5111
   77MOL0     C10280   6.415   7.834   0.055  0.9251 -0.0709  0.3077
   77MOL0     C10281   6.514   7.719   0.079  0.1014 -0.0564  0.3297
   77MOL0     C10282   6.648   7.760   0.029 -0.9075  0.3618  0.3771
   77MOL0     C10283   6.742   7.659   0.073  0.3316  0.9014  0.4711
   77MOL0     O10284   6.869   7.723   0.060 -0.6673 -0.2692  0.9782
   77MOL0     C10285   6.957   7.711   0.162 -0.1255 -0.5998 -0.5967
   77MOL0     C10286   6.958   7.615   0.261 -0.3105  0.8722 -0.7389
   77MOL0     C10287   7.051   7.624   0.359 -0.2323 -0.7725 -0.6360
   77MOL0     C10288   7.159   7.719   0.354  0.4067 -0.4002  0.1839
   77MOL0     C10289   7.257   7.715   0.464 -0.1311 -0.2680 -0.5256
   77MOL0     O10290   7.223   7.648   0.577 -0.0771 -0.5805  0.3478
   77MOL0     C10291   7.298   7.628   0.687  0.4447 -0.1297 -0.0004
   77MOL0     C10292   7.269   7.516   0.771  0.4279  0.3173  0.5006
   77MOL0     C10293   7.339   7.477   0.888 -0.2483 -0.5806 -0.3873
   77MOL0     C10294   7.449   7.562   0.927  1.1540  0.1591  1.0644
   77MOL0     O10295   7.530   7.545   1.031 -0.2238 -0.1128  0.1173
   77MOL0     C10296   7.479   7.495   1.150 -0.8761  0.5294  0.6013
   77MOL0     C10297   7.579   7.507   1.260 -0.0624 -1.1883 -0.9273
   77MOL0     C10298   7.503   7.460   1.387  0.1723 -0.1090  0.7838
   77MOL0     C10299   7.600   7.459   1.509 -1.4271  0.1130 -0.2532
   77MOL0     C10300   7.536   7.461   1.650 -0.2158  0.7026  0.4978
   77MOL0     C10301   7.643   7.481   1.764  0.3417 -0.9119  0.6317
   77MOL0     C10302   7.569   7.550   1.881  0.4478  0.1158  0.1998
   77MOL0     C10303   7.551   7.694   1.868 -0.2918 -0.0273  0.7320
   77MOL0    Cl10304   7.702   7.765   1.918 -0.6142  0.1010 -0.1080
   77MOL0     C10305   7.481   7.670   0.836  0.2669 -0.2924 -0.8812
   77MOL0     C10306   7.413   7.705   0.721 -0.1718  0.1540 -0.2119
   77MOL0     O10307   7.357   7.780   0.450 -0.1153 -0.3065 -0.3012
   77MOL0     C10308   7.169   7.808   0.253 -0.3800 -1.3407  1.0830
   77MOL0     C10309   7.065   7.805   0.159 -0.2250 -0.3290  0.3646
   77MOL0     N10310   6.220   7.688  -0.006  0.5574  0.9924  0.1925
   77MOL0     N10311   6.106   7.665   0.037  0.6725 -0.2850  0.2355
   77MOL0     C10312   5.872   6.654   0.367 -0.8101 -0.1537 -0.4083
   77MOL0     C10313   5.843   6.526   0.397 -1.0194 -0.3421  0.3835
   77MOL0     C10314   5.513   6.224   0.596  0.7613  1.1617  1.4516
   77MOL0     C10315   5.620   6.188   0.685  0.9168  0.2904 -0.1047
   77MOL0     C10316   5.603   6.116   0.803  1.2244  0.6637  0.6190
   77MOL0     C10317   5.472   6.067   0.832  0.2861 -0.0968  0.0390
   77MOL0     O10318   5.455   5.978   0.940  0.0374 -0.6837 -0.1508
   77MOL0     C10319   5.327   5.925   0.957 -0.5025 -0.0481  0.2501
   77MOL0     C10320   5.322   5.846   1.090 -0.7292 -1.3341 -0.2499
   77MOL0     C10321   5.194   5.791   1.134  0.3134 -0.0029  0.2680
   77MOL0     C10322   5.112   5.712   1.030  0.7870  1.0744 -0.1834
   77MOL0     C10323   5.178   5.608   0.950  0.0979 -0.4881 -0.0708
   77MOL0     C10324   5.234   5.522   0.880  0.3554 -0.5962 -0.1255
   77MOL0     C10325   5.367   6.102   0.744 -0.3357 -0.7337  0.1379
   77MOL0     C10326   5.383   6.178   0.637  0.2036 -0.8162 -0.3424
   77MOL0     C10327   5.259   6.216   0.561 -0.8217 -0.0005 -0.4905
   77MOL0     H10328   5.528   6.567   0.514 -1.4337 -0.8959 -1.9643
   77MOL0     H10329   5.576   6.804   0.450  2.5776  2.8779 -1.1356
   77MOL0     H10330   5.978   6.882   0.235  0.0411 -0.6999  0.0679
   77MOL0     H10331   5.824   6.825   0.155 -1.4814  1.3150 -0.3907
   77MOL0     H10332   5.751   7.024   0.106  0.0827  1.5801  1.0447
   77MOL0     H10333   5.914   7.035   0.056 -0.5789 -2.3733 -0.1849
   77MOL0     H10334   5.962   7.154   0.288 -2.3559  1.3627  4.1140
   77MOL0     H10335   5.788   7.176   0.295  0.3303  0.2952  0.6293
   77MOL0     H10336   5.965   7.271   0.067 -0.9988 -0.5493  0.1583
   77MOL0     H10337   5.798   7.264   0.064 -1.1236  0.1214  1.8340
   77MOL0     H10338   5.816   7.489   0.138  0.9149 -0.3468 -0.0935
   77MOL0     H10339   5.788   7.397   0.286 -0.2211 -1.7147 -1.0567
   77MOL0     H10340   6.010   7.391   0.361  1.3720  2.6715  2.2625
   77MOL0     H10341   6.073   7.457   0.209  1.5396 -0.2458  2.0131
   77MOL0     H10342   6.076   7.621   0.409 -1.0330  1.7226  0.0120
   77MOL0     H10343   5.905   7.608   0.413 -2.9067 -0.6914 -3.5237
   77MOL0     H10344   5.887   7.704   0.183 -1.1967  1.6673 -1.1015
   77MOL0     H10345   5.966   7.811   0.300 -0.0015  1.1012 -1.8816
   77MOL0     H10346   6.225   7.851   0.282 -3.6547  4.9819 -2.5150
   77MOL0     H10347   6.429   7.879  -0.044  2.1043 -3.2077 -1.0843
   77MOL0     H10348   6.423   7.911   0.132 -1.6364  0.6355 -0.0549
   77MOL0     H10349   6.517   7.695   0.185 -1.5332  1.6998  0.8259
   77MOL0     H10350   6.495   7.624   0.027  0.5605 -0.9638  1.7770
   77MOL0     H10351   6.678   7.860   0.064 -3.0846  0.1224  3.2383
   77MOL0     H10352   6.645   7.769  -0.080 -0.5357  2.3602  0.4993
   77MOL0     H10353   6.733   7.565   0.017  3.0752  0.2621  0.9701
   77MOL0     H10354   6.704   7.624   0.169  0.9652 -1.0785  0.0607
   77MOL0     H10355   6.887   7.534   0.254  1.5529 -1.4155  3.0383
   77MOL0     H10356   7.042   7.560   0.446 -1.4162 -2.1834 -1.7528
   77MOL0     H10357   7.182   7.461   0.734 -0.1410  2.9647 -2.5945
   77MOL0     H10358   7.313   7.393   0.951 -2.2964  1.1223  1.2010
   77MOL0     H10359   7.384   7.542   1.178 -1.6881 -0.0811 -1.0221
   77MOL0     H10360   7.445   7.391   1.155  0.5836  0.0725  2.6078
   77MOL0     H10361   7.659   7.434   1.243 -1.2986 -3.6992  2.7415
   77MOL0     H10362   7.605   7.612   1.274 -2.5328 -0.5839 -0.3878
   77MOL0     H10363   7.415   7.521   1.410 -1.2821 -2.4154  1.6707
   77MOL0     H10364   7.458   7.363   1.367  0.6918 -0.7388  2.4821
   77MOL0     H10365   7.665   7.547   1.507  0.1185 -0.6378  4.1577
   77MOL0     H10366   7.650   7.362   1.504 -0.8526  0.1673  2.5754
   77MOL0     H10367   7.481   7.371   1.677 -1.3678  0.6917 -1.7125
   77MOL0     H10368   7.475   7.551   1.644  0.0078  0.7569 -2.9261
   77MOL0     H10369   7.673   7.380   1.792  0.4211 -1.7534 -2.2020
   77MOL0     H10370   7.734   7.530   1.729 -0.5895  0.1971 -0.3473
   77MOL0     H10371   7.629   7.524   1.969 -1.1715 -4.0022  0.3138
   77MOL0     H10372   7.468   7.507   1.879  1.3534 -2.2155  1.0295
   77MOL0     H10373   7.523   7.708   1.764 -1.6570 -2.6129  0.6870
   77MOL0     H10374   7.463   7.724   1.926 -2.3033  1.2140 -2.6901
   77MOL0     H10375   7.571   7.721   0.869  0.0845 -0.1303 -0.6424
   77MOL0     H10376   7.449   7.785   0.656  0.2475  0.4660  0.3961
   77MOL0     H10377   7.246   7.878   0.224 -1.7216 -1.1577 -2.5262
   77MOL0     H10378   7.072   7.888   0.090  1.1601  0.0469  0.9176
   77MOL0     H10379   5.974   6.665   0.331 -0.9086 -2.7286 -1.6997
   77MOL0     H10380   5.929   6.464   0.373  0.4471  2.6865 -3.0977
   77MOL0     H10381   5.723   6.215   0.661  0.8731 -0.1808 -0.8619
   77MOL0     H10382   5.684   6.083   0.868  0.6446  0.6737  1.3559
   77MOL0     H10383   5.292   5.863   0.875 -1.5996 -2.1850  2.2234
   77MOL0     H10384   5.251   6.004   0.966 -0.9031 -0.6223  2.7770
   77MOL0     H10385   5.361   5.901   1.176  1.4344  1.1096 -2.5882
   77MOL0     H10386   5.392   5.762   1.085  0.4647 -0.8840  4.3459
   77MOL0     H10387   5.129   5.870   1.172  0.7964  0.6792 -0.3020
   77MOL0     H10388   5.211   5.732   1.225  0.7573  1.4121  1.1377
   77MOL0     H10389   5.030   5.668   1.088  1.9831 -1.3584 -0.2277
   77MOL0     H10390   5.082   5.791   0.960  1.8208  0.7013 -1.0688
   77MOL0     H10391   5.276   5.459   0.805 -2.2514  1.3330 -3.5116
   77MOL0     H10392   5.264   6.070   0.757 -1.7811  4.1900  4.1033
   77MOL0     H10393   5.270   6.289   0.480  0.1232  0.1804 -0.2138
   77MOL0     H10394   5.215   6.119   0.536 -1.8347 -0.0957  1.4783
   77MOL0     H10395   5.193   6.255   0.639  0.5003  1.1528  0.0919
   78MOL0     O10396   6.616   5.059   9.261  0.7230  0.3350  0.5629
   78MOL0     C10397   6.550   5.160   9.249 -0.4597 -0.4834  0.6277
   78MOL0     O10398   6.547   5.242   9.140  0.0532 -0.1731  0.5923
   78MOL0     C10399   6.616   5.223   9.021 -0.2098 -0.4599  0.1535
   78MOL0     C10400   6.718   5.130   9.005 -0.5048  0.6779  0.4565
   78MOL0     C10401   6.787   5.107   8.885 -0.3304 -0.0477  0.7092
   78MOL0     C10402   6.754   5.183   8.776 -0.7112 -0.1677 -0.0839
   78MOL0     O10403   6.811   5.188   8.646  0.7746  0.1785 -0.5412
   78MOL0     C10404   6.893   5.079   8.610  0.3381  0.3544 -0.1353
   78MOL0     C10405   6.876   5.074   8.453  0.0923 -0.0447 -0.1465
   78MOL0     C10406   6.916   5.202   8.381 -0.4692 -0.8004 -0.4048
   78MOL0     C10407   6.983   5.181   8.240  1.1186  0.0286  0.0908
   78MOL0     C10408   7.071   5.289   8.185  1.2720 -0.4473  0.9136
   78MOL0     C10409   7.133   5.258   8.053  0.0042 -0.3340 -0.0345
   78MOL0     C10410   7.222   5.374   8.003  1.2276 -0.5268  0.6797
   78MOL0     C10411   7.344   5.404   8.087  0.3149  0.4232  0.2152
   78MOL0     N10412   7.443   5.291   8.077  0.1271 -0.1263  0.1984
   78MOL0     C10413   7.537   5.261   7.979  0.8024 -0.0884  0.6373
   78MOL0     C10414   7.590   5.140   8.013 -0.2251  0.1751 -0.9140
   78MOL0     C10415   7.694   5.075   7.921 -0.6828  1.1593 -0.7616
   78MOL0     C10416   7.781   5.171   7.833 -0.2795 -0.0060  0.7571
   78MOL0     C10417   7.911   5.108   7.779 -0.6458 -0.3221 -0.4519
   78MOL0     C10418   7.980   5.193   7.667 -0.1994 -0.6034 -0.2289
   78MOL0     O10419   7.997   5.329   7.707  0.3739 -0.5075 -0.7530
   78MOL0     C10420   8.121   5.353   7.772  0.4847  0.5609  0.9405
   78MOL0     C10421   8.227   5.412   7.708  0.0839 -0.6088  0.7559
   78MOL0     C10422   8.354   5.427   7.769  0.5477  0.1832  0.3183
   78MOL0     C10423   8.372   5.404   7.912 -0.4579  0.6308  0.2950
   78MOL0     C10424   8.501   5.429   7.977  0.0809  0.3363  0.1460
   78MOL0     O10425   8.585   5.512   7.905  0.0997  0.1180 -0.3867
   78MOL0     C10426   8.699   5.538   7.961 -0.3736 -0.9211 -0.1432
   78MOL0     C10427   8.802   5.449   7.979  0.3077  0.3037  0.6623
   78MOL0     C10428   8.922   5.490   8.041  0.5566  0.3150 -0.0567
   78MOL0     C10429   8.936   5.617   8.093 -0.4410 -0.5667  0.2670
   78MOL0     O10430   9.063   5.646   8.137 -0.0031 -0.7453 -0.9758
   78MOL0     C10431   9.075   5.771   8.209  0.0330  0.0899  1.4339
   78MOL0     C10432   9.215   5.772   8.265 -0.4444  0.1090 -0.3338
   78MOL0     C10433   9.255   5.691   8.383 -0.7586 -0.0545 -1.2223
   78MOL0     C10434   9.408   5.692   8.418  0.0209  0.9629  0.7441
   78MOL0     C10435   9.439   5.588   8.522  1.0319 -0.3040  0.1050
   78MOL0     C10436   9.584   5.603   8.554  0.0045  0.3867  1.1922
   78MOL0     C10437   9.619   5.721   8.643 -0.1616  0.9790 -0.4198
   78MOL0     C10438   9.770   5.707   8.686 -0.3348  0.7510  0.1850
   78MOL0    Cl10439   9.782   5.590   8.826 -0.2281 -0.4343  0.3632
   78MOL0     C10440   8.838   5.711   8.058  0.3441 -0.3925 -0.5963
   78MOL0     C10441   8.716   5.674   7.998 -0.2150  0.4746 -1.0414
   78MOL0     O10442   8.517   5.394   8.096  0.4686  0.7806 -0.2937
   78MOL0     C10443   8.262   5.353   7.980 -0.4882 -0.3951 -0.2520
   78MOL0     C10444   8.143   5.326   7.911 -0.4255 -0.8172 -0.6195
   78MOL0     N10445   7.530   5.100   8.131  0.2972 -0.1572  0.5249
   78MOL0     N10446   7.450   5.196   8.169 -0.3395  0.5142  1.0285
   78MOL0     C10447   6.651   5.278   8.791 -0.0156  0.1498 -0.4751
   78MOL0     C10448   6.587   5.300   8.914  0.2205  1.0518  0.4028
   78MOL0     C10449   6.471   5.189   9.375  0.1115 -0.2571 -0.0019
   78MOL0     C10450   6.535   5.180   9.501  0.0383  0.5557  0.5439
   78MOL0     C10451   6.470   5.214   9.615  0.5578 -0.4795 -0.5282
   78MOL0     C10452   6.337   5.260   9.617  0.2643  0.3519  0.8450
   78MOL0     O10453   6.266   5.303   9.717 -0.2782 -0.8001 -0.4363
   78MOL0     C10454   6.288   5.262   9.851  0.3607  0.3570 -0.6087
   78MOL0     C10455   6.171   5.330   9.936  0.6199 -0.4750  0.3586
   78MOL0     C10456   6.194   5.350  10.084 -1.2116  0.3643  0.3363
   78MOL0     C10457   6.085   5.441  10.141 -0.2278 -0.0427  0.1179
   78MOL0     C10458   6.113   5.468  10.282  0.1191  0.4545  0.2481
   78MOL0     C10459   6.127   5.485  10.399  0.3948 -0.3630  0.4389
   78MOL0     C10460   6.273   5.279   9.489 -0.3006 -1.1189 -0.1984
   78MOL0     C10461   6.339   5.244   9.370  0.1146  0.3677  0.2320
   78MOL0     C10462   6.269   5.254   9.242  0.5737  0.6691  0.4478
   78MOL0     H10463   6.759   5.062   9.079 -2.0973  2.3030  2.9704
   78MOL0     H10464   6.872   5.040   8.878 -0.2087  0.0181  1.4817
   78MOL0     H10465   6.998   5.091   8.638  1.2961 -2.2111 -2.1921
   78MOL0     H10466   6.856   4.987   8.656  0.2670 -0.7280 -2.2618
   78MOL0     H10467   6.773   5.050   8.429  0.0388  0.5267 -0.5262
   78MOL0     H10468   6.936   4.995   8.406  0.9723  0.7100 -0.3394
   78MOL0     H10469   6.986   5.261   8.440 -2.5024 -0.1273  1.4711
   78MOL0     H10470   6.825   5.263   8.375 -1.7046 -2.4526  0.4213
   78MOL0     H10471   7.035   5.085   8.231  0.4856 -0.1790 -1.8134
   78MOL0     H10472   6.898   5.173   8.172  0.4870 -1.5000  1.0194
   78MOL0     H10473   7.014   5.382   8.177  1.3853 -0.3111  1.5792
   78MOL0     H10474   7.147   5.314   8.259  3.1379 -0.0268 -1.0543
   78MOL0     H10475   7.187   5.163   8.056 -0.2020 -0.4807 -0.6319
   78MOL0     H10476   7.052   5.246   7.980 -1.1874  2.3569  0.7335
   78MOL0     H10477   7.169   5.468   7.989  0.7035 -1.3074 -4.8713
   78MOL0     H10478   7.244   5.345   7.899 -0.6287 -4.0546  1.1045
   78MOL0     H10479   7.372   5.499   8.039  0.8188  0.4119  0.4779
   78MOL0     H10480   7.321   5.430   8.190 -0.8189  0.2884  0.0005
   78MOL0     H10481   7.558   5.319   7.889  1.0219 -1.9443 -0.5809
   78MOL0     H10482   7.762   5.028   7.992 -1.3878 -1.3909 -1.6821
   78MOL0     H10483   7.647   5.001   7.857 -0.4205  0.5521 -0.2604
   78MOL0     H10484   7.715   5.215   7.757  0.5033  1.2460  0.7739
   78MOL0     H10485   7.814   5.264   7.880  1.2204  0.5997 -1.3278
   78MOL0     H10486   7.881   5.013   7.734 -0.3358 -0.6609  0.0535
   78MOL0     H10487   7.978   5.084   7.861  0.7379  0.0974 -1.4120
   78MOL0     H10488   7.919   5.190   7.576  0.5474  1.3727 -0.8518
   78MOL0     H10489   8.076   5.158   7.629  0.1512  1.6143 -1.5290
   78MOL0     H10490   8.217   5.442   7.605  0.1949 -0.0458  0.9076
   78MOL0     H10491   8.430   5.472   7.705 -1.5232  3.1591 -0.2783
   78MOL0     H10492   8.795   5.353   7.930 -1.9901  1.2469 -1.0443
   78MOL0     H10493   9.006   5.422   8.052  2.1650  2.2179  0.0607
   78MOL0     H10494   9.071   5.846   8.130 -0.1074 -2.1576 -0.8089
   78MOL0     H10495   9.002   5.772   8.290 -0.6361  0.4855  0.8372
   78MOL0     H10496   9.280   5.740   8.183 -2.7227 -3.2502 -1.0042
   78MOL0     H10497   9.238   5.871   8.306  0.2313 -0.2368  0.1541
   78MOL0     H10498   9.194   5.708   8.472  1.0551 -0.9122  0.2589
   78MOL0     H10499   9.221   5.588   8.373 -1.0809 -0.0777 -0.0695
   78MOL0     H10500   9.442   5.786   8.460  1.9264  0.2700  0.8344
   78MOL0     H10501   9.463   5.673   8.325 -1.1062 -0.1686  0.2671
   78MOL0     H10502   9.406   5.490   8.485 -0.1854 -0.4392  1.4356
   78MOL0     H10503   9.380   5.610   8.611  1.3369 -0.2782  0.3014
   78MOL0     H10504   9.622   5.514   8.604  4.0409  0.1201 -1.8665
   78MOL0     H10505   9.644   5.619   8.464 -0.1194 -2.3599  0.5441
   78MOL0     H10506   9.555   5.727   8.732 -0.3628  0.5962 -0.5370
   78MOL0     H10507   9.596   5.818   8.599 -2.4382  0.8465  0.3420
   78MOL0     H10508   9.840   5.680   8.607  0.3501 -1.6831  1.5050
   78MOL0     H10509   9.796   5.805   8.728  0.7371  1.1294 -1.2938
   78MOL0     H10510   8.835   5.819   8.074 -4.3724 -0.5257  0.9796
   78MOL0     H10511   8.652   5.759   7.973  1.9798  2.1478 -1.2966
   78MOL0     H10512   8.267   5.319   8.083 -2.6447  0.4778  0.1893
   78MOL0     H10513   8.057   5.277   7.958 -1.7188  2.4197  0.6721
   78MOL0     H10514   6.620   5.343   8.710 -4.4177  1.2644  1.7966
   78MOL0     H10515   6.511   5.377   8.916 -0.9322 -0.0238 -0.2311
   78MOL0     H10516   6.632   5.132   9.504  0.2874  0.7762 -1.6857
   78MOL0     H10517   6.526   5.207   9.708  2.6028  0.9569 -1.5747
   78MOL0     H10518   6.380   5.301   9.894  0.7066  0.7179 -1.6448
   78MOL0     H10519   6.283   5.153   9.854 -2.2124  0.3680 -1.5226
   78MOL0     H10520   6.078   5.274   9.926  0.4616  0.0113 -1.2705
   78MOL0     H10521   6.163   5.431   9.894  1.4216  0.0020  1.3086
   78MOL0     H10522   6.288   5.401  10.108  0.0272 -2.2539  1.3247
   78MOL0     H10523   6.209   5.252  10.128  1.1131  0.8789  0.7934
   78MOL0     H10524   6.085   5.539  10.092 -0.1469 -0.8444 -1.5972
   78MOL0     H10525   5.985   5.396  10.142 -0.7491  1.1088  0.8252
   78MOL0     H10526   6.140   5.503  10.504  2.6994 -0.0437  0.1597
   78MOL0     H10527   6.173   5.321   9.498  0.5404  0.8534  0.5973
   78MOL0     H10528   6.161   5.252   9.255 -0.2929 -2.2412 -4.6332
   78MOL0     H10529   6.293   5.351   9.198 -0.3331 -0.4722 -2.8554
   78MOL0     H10530   6.296   5.168   9.181  0.6732 -1.1809  2.9285
   79MOL0     O10531   9.861   6.847   8.588 -0.4674  0.5536 -0.4140
   79MOL0     C10532   9.906   6.952   8.545 -0.2577  0.0654 -0.7225
   79MOL0     O10533   9.832   7.070   8.516 -0.2772 -0.3044 -0.1984
   79MOL0     C10534   9.694   7.077   8.529  0.3674 -0.8368 -0.4103
   79MOL0     C10535   9.609   6.968   8.530  0.6409 -0.6805 -0.4453
   79MOL0     C10536   9.476   6.992   8.558  0.3709  0.5963  0.0847
   79MOL0     C10537   9.423   7.124   8.574  0.3164 -0.4580  0.0717
   79MOL0     O10538   9.292   7.171   8.592  0.2383 -0.6539 -0.6357
   79MOL0     C10539   9.191   7.085   8.640  0.2213  0.1588  0.7683
   79MOL0     C10540   9.102   7.033   8.530  0.0453  0.6693  0.6301
   79MOL0     C10541   8.972   6.965   8.576 -0.6348 -0.3560 -0.2097
   79MOL0     C10542   8.998   6.828   8.636  0.4763 -0.0878  0.7303
   79MOL0     C10543   8.876   6.756   8.630 -0.2297 -1.0294  0.3117
   79MOL0     C10544   8.878   6.634   8.720  0.3793  0.7805  0.3910
   79MOL0     C10545   8.746   6.548   8.702 -0.0846 -0.7046 -0.3528
   79MOL0     C10546   8.612   6.598   8.757  0.1762  0.1999  0.4535
   79MOL0     N10547   8.612   6.608   8.904  0.1445 -0.5969 -0.4211
   79MOL0     C10548   8.657   6.521   9.004 -0.3507  0.1193  0.1867
   79MOL0     C10549   8.641   6.587   9.116  0.1362  0.0648 -0.6739
   79MOL0     C10550   8.664   6.542   9.259 -0.0331 -0.5433 -0.0917
   79MOL0     C10551   8.556   6.448   9.306 -0.0406  0.3309 -0.2410
   79MOL0     C10552   8.437   6.518   9.378  0.6461 -0.4991  0.6539
   79MOL0     C10553   8.489   6.576   9.506 -0.0595 -0.6028  0.4982
   79MOL0     O10554   8.398   6.553   9.612  0.0976  0.0356  0.0027
   79MOL0     C10555   8.273   6.619   9.617  0.2884  0.6946 -0.1976
   79MOL0     C10556   8.237   6.719   9.532  0.5700  0.0260  1.1137
   79MOL0     C10557   8.112   6.781   9.534 -0.3026 -0.0687  0.6156
   79MOL0     C10558   8.013   6.732   9.622  0.1768 -0.4868 -0.2512
   79MOL0     C10559   7.873   6.775   9.614 -0.7248  0.1177  0.3339
   79MOL0     O10560   7.841   6.863   9.518 -0.1353 -0.5824 -0.7803
   79MOL0     C10561   7.712   6.914   9.520 -0.9030 -0.4581  0.0204
   79MOL0     C10562   7.609   6.842   9.446 -0.0821 -0.5982 -0.0119
   79MOL0     C10563   7.487   6.901   9.423 -0.5096 -0.6569 -1.1472
   79MOL0     C10564   7.460   7.029   9.480 -0.2480  0.9988 -0.4274
   79MOL0     O10565   7.339   7.089   9.463  0.9465 -0.2183  0.0019
   79MOL0     C10566   7.218   7.007   9.436  0.2080 -0.3808  0.4674
   79MOL0     C10567   7.091   7.075   9.490  0.8207  0.5830 -0.4494
   79MOL0     C10568   6.981   7.016   9.416 -0.3725  1.0130  0.3602
   79MOL0     C10569   6.851   7.045   9.489 -0.0451  0.1714 -0.5451
   79MOL0     C10570   6.725   6.984   9.426 -0.7431 -0.2027  1.5054
   79MOL0     C10571   6.591   7.038   9.478  0.7706 -0.3970 -0.0163
   79MOL0     C10572   6.470   6.939   9.447 -0.0487  0.0846 -0.8409
   79MOL0     C10573   6.357   6.959   9.552  0.1543 -0.8916 -1.3331
   79MOL0    Cl10574   6.211   6.913   9.470  0.4394 -0.3728  0.1640
   79MOL0     C10575   7.559   7.097   9.549  0.1345  0.0416 -0.0570
   79MOL0     C10576   7.685   7.042   9.574  0.1674  0.8386 -0.6683
   79MOL0     O10577   7.794   6.722   9.697  0.3079 -1.1416  0.3892
   79MOL0     C10578   8.047   6.628   9.711 -0.3848  0.2463  0.0816
   79MOL0     C10579   8.174   6.573   9.709  0.1241 -0.2391 -0.6099
   79MOL0     N10580   8.593   6.711   9.086  0.3348 -0.0483  0.8943
   79MOL0     N10581   8.576   6.726   8.960 -0.4590  0.3801 -0.1560
   79MOL0     C10582   9.511   7.234   8.579 -1.0620  0.6927  0.8377
   79MOL0     C10583   9.648   7.212   8.552  0.2794  0.8274 -0.6391
   79MOL0     C10584  10.051   6.963   8.517  0.3045  0.6267 -0.2492
   79MOL0     C10585  10.102   6.889   8.412  0.3302  0.1856  1.2325
   79MOL0     C10586  10.241   6.875   8.393 -0.2470 -0.2200 -0.0347
   79MOL0     C10587  10.326   6.960   8.462 -0.0177  0.3312  0.4522
   79MOL0     O10588  10.460   6.955   8.428  0.0212 -0.5481  0.1247
   79MOL0     C10589  10.552   7.011   8.522  0.3930  0.4859 -0.3522
   79MOL0     C10590  10.699   7.002   8.494  0.0758 -0.4251 -0.4333
   79MOL0     C10591  10.731   7.106   8.385  0.3540  0.2263  0.0196
   79MOL0     C10592  10.880   7.127   8.367 -0.5645  0.0508 -1.0937
   79MOL0     C10593  10.903   7.239   8.284 -0.5016  0.2990 -0.4988
   79MOL0     C10594  10.917   7.338   8.215 -0.1914 -0.5241  0.9774
   79MOL0     C10595  10.279   7.042   8.570  0.2872 -0.2204  1.1741
   79MOL0     C10596  10.140   7.032   8.604  0.0629 -0.7933 -0.5583
   79MOL0     C10597  10.079   7.105   8.724 -0.7793  0.0882  0.3450
   79MOL0     H10598   9.635   6.871   8.489 -3.0140 -1.6684 -0.7966
   79MOL0     H10599   9.417   6.901   8.557  1.6108 -0.2235 -1.0101
   79MOL0     H10600   9.246   7.005   8.690  0.8186 -0.1225 -0.3106
   79MOL0     H10601   9.131   7.155   8.699 -0.4373  1.3711 -1.2498
   79MOL0     H10602   9.166   6.969   8.469  0.7226  1.4228  0.5437
   79MOL0     H10603   9.080   7.113   8.459  1.7842  1.4846  0.9576
   79MOL0     H10604   8.911   6.957   8.485  0.7233 -1.5577 -1.0531
   79MOL0     H10605   8.922   7.028   8.650 -1.7854  0.5127 -1.6598
   79MOL0     H10606   9.083   6.770   8.598 -0.9580 -0.3565 -2.3067
   79MOL0     H10607   9.008   6.847   8.744  0.7921  1.8364  0.4020
   79MOL0     H10608   8.796   6.819   8.670  0.2875 -0.3185  0.2467
   79MOL0     H10609   8.858   6.727   8.526  1.7384  2.3402 -1.1524
   79MOL0     H10610   8.967   6.572   8.700  2.6344  3.7057  0.5826
   79MOL0     H10611   8.901   6.667   8.821  4.3520 -1.8739  0.6016
   79MOL0     H10612   8.760   6.451   8.750  0.0769  0.1981  1.4745
   79MOL0     H10613   8.727   6.541   8.594  1.0465  2.9073 -0.9202
   79MOL0     H10614   8.598   6.698   8.715  0.7875 -1.0302 -2.9930
   79MOL0     H10615   8.533   6.538   8.711  1.1747  0.1755 -1.3188
   79MOL0     H10616   8.682   6.416   9.006 -1.6850 -0.2352  3.5464
   79MOL0     H10617   8.759   6.489   9.267  0.8296  1.1047  1.2621
   79MOL0     H10618   8.677   6.627   9.327  0.9322  0.9150 -2.0073
   79MOL0     H10619   8.521   6.388   9.221 -1.1748  0.1241  0.3586
   79MOL0     H10620   8.592   6.376   9.379 -4.1322  0.0988  1.8300
   79MOL0     H10621   8.359   6.445   9.402 -1.6285  0.7077 -2.4532
   79MOL0     H10622   8.393   6.598   9.318  0.1326 -2.1171 -1.2383
   79MOL0     H10623   8.514   6.681   9.491 -0.7500 -0.5658 -0.5680
   79MOL0     H10624   8.586   6.534   9.534 -0.7176 -0.8226  2.5560
   79MOL0     H10625   8.304   6.742   9.450  1.1128 -5.6838 -0.4709
   79MOL0     H10626   8.093   6.863   9.466 -0.6240 -0.9311 -0.3628
   79MOL0     H10627   7.619   6.740   9.411 -0.8591 -0.1048 -1.8056
   79MOL0     H10628   7.413   6.848   9.364 -0.8363 -1.9360  0.3566
   79MOL0     H10629   7.216   6.977   9.331 -3.8501  0.1537  0.2305
   79MOL0     H10630   7.219   6.913   9.493 -0.1692 -2.6232 -2.8956
   79MOL0     H10631   7.093   7.078   9.600 -0.9596 -0.0686 -0.3641
   79MOL0     H10632   7.097   7.180   9.460 -2.6971  0.8636 -0.5681
   79MOL0     H10633   6.960   7.055   9.316 -2.8022  1.0552  0.8214
   79MOL0     H10634   6.980   6.906   9.414 -3.3195  0.9261 -2.8353
   79MOL0     H10635   6.848   7.154   9.484  2.2977  0.4020  1.0505
   79MOL0     H10636   6.852   7.014   9.594  1.7204  0.9000 -0.2971
   79MOL0     H10637   6.734   6.878   9.453 -0.1790  0.6025  4.8397
   79MOL0     H10638   6.740   6.995   9.318  2.4415 -0.8085  1.8073
   79MOL0     H10639   6.590   7.061   9.585 -3.9800  0.5579 -0.0572
   79MOL0     H10640   6.569   7.142   9.454 -0.2669 -0.8155 -0.9905
   79MOL0     H10641   6.500   6.834   9.444  0.6393  0.2281  0.5550
   79MOL0     H10642   6.423   6.959   9.350 -0.6836 -1.5155 -0.8959
   79MOL0     H10643   6.388   6.895   9.635  0.1290  1.2210  0.4041
   79MOL0     H10644   6.357   7.065   9.580 -1.4923 -0.4809 -2.7279
   79MOL0     H10645   7.556   7.200   9.583  0.4492  0.5241 -1.3943
   79MOL0     H10646   7.758   7.103   9.628  0.5597  0.9484 -1.3188
   79MOL0     H10647   7.969   6.598   9.780 -1.4020  3.8489  0.7430
   79MOL0     H10648   8.204   6.498   9.782 -1.9220 -1.9737 -1.4496
   79MOL0     H10649   9.485   7.339   8.593  0.0415  1.0476  0.2986
   79MOL0     H10650   9.716   7.295   8.568  0.2323  0.4077  2.3284
   79MOL0     H10651  10.035   6.829   8.352  0.4060 -0.4270  1.7478
   79MOL0     H10652  10.275   6.818   8.308  0.1881 -2.6748  1.6673
   79MOL0     H10653  10.527   6.956   8.613 -1.1780  0.1425 -0.9591
   79MOL0     H10654  10.525   7.117   8.529  1.4573  0.7664 -0.3793
   79MOL0     H10655  10.723   6.901   8.460  0.3396  0.3668 -2.8052
   79MOL0     H10656  10.767   7.034   8.573  0.5840  1.1240 -1.4344
   79MOL0     H10657  10.692   7.204   8.412  2.8706  0.7893  2.0145
   79MOL0     H10658  10.682   7.079   8.291  0.3162  2.4613 -0.6486
   79MOL0     H10659  10.917   7.153   8.467 -2.8664  0.2850 -0.2533
   79MOL0     H10660  10.918   7.033   8.327  2.8998 -0.7485  3.2380
   79MOL0     H10661  10.926   7.416   8.143 -2.4952  2.6524  3.8224
   79MOL0     H10662  10.343   7.100   8.635  2.3483 -3.6780  2.5131
   79MOL0     H10663  10.045   7.033   8.799 -0.4534  1.8783  2.2841
   79MOL0     H10664  10.165   7.159   8.764 -0.5094 -0.9722  1.2451
   79MOL0     H10665   9.999   7.176   8.704 -0.6733  0.8557  2.4297
   80MOL0     O10666   4.556   3.158   8.924  0.3933  0.5025 -0.4843
   80MOL0     C10667   4.492   3.115   9.024 -0.6414 -0.2924 -1.1379
   80MOL0     O10668   4.486   2.988   9.067  0.2853 -0.4517 -0.0921
   80MOL0     C10669   4.569   2.893   9.011  1.1515  0.1313 -0.3648
   80MOL0     C10670   4.513   2.769   8.969 -0.2715  0.0032  0.0386
   80MOL0     C10671   4.598   2.669   8.918  0.0322 -1.2296  0.3678
   80MOL0     C10672   4.736   2.672   8.930 -0.7228  0.4723  0.1336
   80MOL0     O10673   4.816   2.562   8.897 -0.5718  0.5151  0.3250
   80MOL0     C10674   4.935   2.612   8.818  0.0908  0.1302 -0.2450
   80MOL0     C10675   4.994   2.488   8.735 -0.5051  0.6612  0.6467
   80MOL0     C10676   5.134   2.526   8.671  0.1413  0.3809 -0.2546
   80MOL0     C10677   5.243   2.564   8.775  0.0216  0.7216 -0.1006
   80MOL0     C10678   5.382   2.583   8.702 -0.5940  0.1131 -0.0643
   80MOL0     C10679   5.449   2.442   8.680 -0.9636 -0.1700  0.9186
   80MOL0     C10680   5.563   2.456   8.570  0.0164 -1.1481  0.3330
   80MOL0     C10681   5.689   2.532   8.624  0.3097  0.1183  0.4302
   80MOL0     N10682   5.808   2.521   8.541 -0.1477  0.2131 -0.3365
   80MOL0     C10683   5.920   2.601   8.540 -0.1340  0.3928  0.3450
   80MOL0     C10684   6.018   2.538   8.470  0.6458 -0.3968  0.3405
   80MOL0     C10685   6.150   2.588   8.452 -0.5924 -0.8316  0.4231
   80MOL0     C10686   6.149   2.722   8.362 -0.5227  0.4702 -0.2459
   80MOL0     C10687   6.116   2.691   8.210 -0.3228  0.6925 -1.6473
   80MOL0     C10688   6.214   2.590   8.154  0.4432 -1.0356 -0.2941
   80MOL0     O10689   6.350   2.620   8.178 -0.0789  0.3142 -0.1878
   80MOL0     C10690   6.432   2.516   8.167 -0.3114  0.7391  0.1793
   80MOL0     C10691   6.404   2.382   8.162  0.6786  0.0369  0.4247
   80MOL0     C10692   6.504   2.286   8.141  0.2670  0.9554 -0.4994
   80MOL0     C10693   6.643   2.325   8.124  0.2556  0.8010 -1.0833
   80MOL0     C10694   6.743   2.227   8.080  0.0053  0.5851 -0.1272
   80MOL0     O10695   6.701   2.095   8.058 -0.0096  0.9328  0.1475
   80MOL0     C10696   6.802   2.003   8.029  0.5580 -1.0523  0.7588
   80MOL0     C10697   6.894   1.984   8.127  0.0219  0.1813  0.5490
   80MOL0     C10698   6.985   1.878   8.111 -0.4228 -0.6769  0.2410
   80MOL0     C10699   6.995   1.791   8.004  0.3533  0.8444  0.0530
   80MOL0     O10700   7.088   1.687   7.992 -0.2451  0.1238  0.1934
   80MOL0     C10701   7.140   1.632   8.118 -0.3313 -0.7837  0.4397
   80MOL0     C10702   7.255   1.537   8.116  0.9335  0.2632 -0.0579
   80MOL0     C10703   7.266   1.465   7.984 -0.9298 -0.1545 -0.1417
   80MOL0     C10704   7.404   1.390   7.978 -0.9593  0.5140  0.7176
   80MOL0     C10705   7.438   1.329   7.844  0.4022  0.1177  0.3586
   80MOL0     C10706   7.568   1.264   7.841 -0.0565  0.4636  0.1849
   80MOL0     C10707   7.596   1.203   7.704 -0.4345 -0.2560  0.6664
   80MOL0     C10708   7.741   1.188   7.691 -0.6152 -1.0784 -0.1176
   80MOL0    Cl10709   7.786   1.100   7.539 -0.1749 -0.2645  0.4228
   80MOL0     C10710   6.887   1.814   7.907  0.4484  0.0703  0.1435
   80MOL0     C10711   6.793   1.910   7.919  0.3405  0.1099 -1.2402
   80MOL0     O10712   6.853   2.267   8.073 -1.1426  0.3271 -0.2316
   80MOL0     C10713   6.675   2.456   8.145 -0.2061  0.3965 -0.3975
   80MOL0     C10714   6.568   2.549   8.163 -0.3334 -1.1490  0.4360
   80MOL0     N10715   5.963   2.418   8.429  0.0922 -0.2782  0.1379
   80MOL0     N10716   5.840   2.402   8.472  0.0200 -0.1158 -0.0624
   80MOL0     C10717   4.790   2.802   8.979  0.3179  0.3158  0.1609
   80MOL0     C10718   4.712   2.907   9.010  0.5761  0.0243 -0.4908
   80MOL0     C10719   4.420   3.210   9.120  0.0220 -0.1271 -0.4657
   80MOL0     C10720   4.303   3.166   9.185 -0.4095 -0.9204 -0.2924
   80MOL0     C10721   4.220   3.253   9.262  0.2608 -0.0986 -0.2504
   80MOL0     C10722   4.258   3.382   9.276 -0.2810  0.3761  0.8070
   80MOL0     O10723   4.159   3.463   9.340  0.1007  0.5633  0.1651
   80MOL0     C10724   4.158   3.604   9.327 -0.0884  0.7817  0.5535
   80MOL0     C10725   4.006   3.636   9.332 -0.2382  0.1415 -0.0694
   80MOL0     C10726   3.953   3.604   9.464 -0.3048 -0.4307  0.1305
   80MOL0     C10727   3.794   3.606   9.462  0.2090 -0.6429 -0.0069
   80MOL0     C10728   3.735   3.524   9.573 -0.2487  0.0345 -0.3379
   80MOL0     C10729   3.665   3.444   9.645  0.3296  0.5781 -0.2113
   80MOL0     C10730   4.377   3.430   9.221 -0.8144  0.8544 -0.4732
   80MOL0     C10731   4.461   3.341   9.149  0.6068 -1.2705  0.5631
   80MOL0     C10732   4.592   3.409   9.100 -0.2944 -0.5447 -0.5374
   80MOL0     H10733   4.407   2.749   8.959  0.1541 -1.5890 -1.7312
   80MOL0     H10734   4.562   2.583   8.861  0.4643 -0.8341 -0.5179
   80MOL0     H10735   4.913   2.683   8.738  1.0877 -0.2864 -0.9066
   80MOL0     H10736   5.019   2.653   8.875  0.9005  2.0063 -2.6448
   80MOL0     H10737   4.912   2.462   8.668  0.2882 -2.2398  0.6584
   80MOL0     H10738   5.013   2.399   8.795 -0.5051 -0.9158 -1.5934
   80MOL0     H10739   5.118   2.597   8.589  1.2732 -0.2444 -1.0460
   80MOL0     H10740   5.175   2.436   8.623  1.8566  0.1407  1.4997
   80MOL0     H10741   5.221   2.649   8.839  0.0824  0.1736  0.6563
   80MOL0     H10742   5.261   2.484   8.847 -1.2759 -0.7559 -1.3371
   80MOL0     H10743   5.374   2.624   8.601  2.2704  1.7579  0.2896
   80MOL0     H10744   5.445   2.653   8.757 -0.7939 -0.0406  0.3649
   80MOL0     H10745   5.495   2.406   8.772 -0.6101  0.9515  1.1973
   80MOL0     H10746   5.376   2.371   8.642  2.0023 -3.8361  1.4588
   80MOL0     H10747   5.524   2.509   8.483  2.0818  1.7871  1.0051
   80MOL0     H10748   5.592   2.354   8.544 -0.7050 -0.9573 -1.3362
   80MOL0     H10749   5.667   2.639   8.639  0.3696 -0.1663  2.8601
   80MOL0     H10750   5.703   2.482   8.720 -1.0818 -3.2667 -0.9793
   80MOL0     H10751   5.932   2.690   8.600 -2.6012  1.1213 -0.1275
   80MOL0     H10752   6.184   2.613   8.553  4.9039 -2.1272 -0.7641
   80MOL0     H10753   6.226   2.515   8.423  1.3008  0.4243  1.9422
   80MOL0     H10754   6.077   2.794   8.402  1.1335  2.0254  0.0481
   80MOL0     H10755   6.246   2.772   8.371  0.0193 -0.8477  2.6876
   80MOL0     H10756   6.116   2.788   8.159  0.6837  1.1845 -0.7595
   80MOL0     H10757   6.014   2.652   8.218 -0.3254  0.9641  0.2152
   80MOL0     H10758   6.198   2.602   8.047 -1.8692  1.8282  0.2245
   80MOL0     H10759   6.171   2.494   8.186  1.9100 -0.8176  2.7637
   80MOL0     H10760   6.301   2.349   8.174  0.3255 -0.9494 -3.7413
   80MOL0     H10761   6.473   2.184   8.124  1.8227  0.3664 -0.0226
   80MOL0     H10762   6.897   2.028   8.226  1.4312  2.0163 -0.2260
   80MOL0     H10763   7.054   1.871   8.195 -0.5574 -0.6239  0.3552
   80MOL0     H10764   7.184   1.712   8.178 -0.9470  0.7765 -1.0911
   80MOL0     H10765   7.061   1.582   8.174  0.4181  0.0896  2.3623
   80MOL0     H10766   7.351   1.579   8.145  2.0927 -1.8366 -0.6151
   80MOL0     H10767   7.222   1.461   8.187 -1.3198  1.0485 -0.1745
   80MOL0     H10768   7.185   1.394   7.970 -1.3791  0.8288 -3.1797
   80MOL0     H10769   7.256   1.530   7.896  1.5356  0.1598 -0.2728
   80MOL0     H10770   7.402   1.308   8.050 -0.5780 -2.4055 -2.3354
   80MOL0     H10771   7.479   1.465   8.003 -2.1247  2.7418 -1.8470
   80MOL0     H10772   7.422   1.408   7.770 -0.3922  0.2783  0.6874
   80MOL0     H10773   7.355   1.262   7.818  0.2206  1.0984 -1.8060
   80MOL0     H10774   7.641   1.344   7.852 -0.0888  0.5496 -0.2086
   80MOL0     H10775   7.568   1.198   7.928  2.6668  0.4097  0.2266
   80MOL0     H10776   7.558   1.277   7.633 -0.8332 -2.9997 -2.1931
   80MOL0     H10777   7.539   1.110   7.713 -1.2297  0.2433  0.9146
   80MOL0     H10778   7.798   1.280   7.684 -0.7733 -0.6041  3.1009
   80MOL0     H10779   7.781   1.144   7.783  1.7640  2.5416  0.7734
   80MOL0     H10780   6.871   1.751   7.821 -2.6418  0.7343  0.1366
   80MOL0     H10781   6.726   1.930   7.836  0.5384  0.1731 -1.3860
   80MOL0     H10782   6.776   2.491   8.131 -0.3583 -0.0259 -2.9174
   80MOL0     H10783   6.586   2.653   8.190  0.6258 -1.7450  2.2669
   80MOL0     H10784   4.897   2.801   8.994  0.2552  2.9513  1.3682
   80MOL0     H10785   4.759   2.986   9.068  2.1513 -2.5284  1.9247
   80MOL0     H10786   4.271   3.063   9.183 -1.3326 -0.6482 -0.1247
   80MOL0     H10787   4.131   3.212   9.310 -1.0100  0.0798 -2.3320
   80MOL0     H10788   4.208   3.642   9.238 -2.6292  1.4765 -0.6777
   80MOL0     H10789   4.208   3.653   9.412  1.6316 -0.1493  0.1086
   80MOL0     H10790   3.961   3.567   9.259  2.6471  1.5347 -3.5172
   80MOL0     H10791   3.988   3.740   9.307  0.2952  0.3592  0.4207
   80MOL0     H10792   3.984   3.682   9.534 -2.0286  0.6180 -0.2124
   80MOL0     H10793   3.992   3.509   9.502  1.0552  0.9416  2.4652
   80MOL0     H10794   3.763   3.708   9.487  0.1977 -0.3647 -1.1391
   80MOL0     H10795   3.759   3.590   9.360 -2.4135 -3.2816  1.1924
   80MOL0     H10796   3.585   3.395   9.696 -1.9729  2.3680 -1.9025
   80MOL0     H10797   4.399   3.535   9.239  0.0815  0.5493  0.2801
   80MOL0     H10798   4.606   3.510   9.137 -2.4084 -0.7551  1.0018
   80MOL0     H10799   4.675   3.347   9.135  0.6987  0.2564 -1.4147
   80MOL0     H10800   4.583   3.397   8.991 -2.1482  0.9712 -0.5928
   81MOL0     O10801   6.849   9.755  10.459 -0.3264 -0.4190  0.9769
   81MOL0     C10802   6.899   9.650  10.430 -0.4579 -0.3464 -0.5591
   81MOL0     O10803   6.949   9.566  10.520 -0.2571 -0.1873  0.2388
   81MOL0     C10804   6.935   9.595  10.657 -0.9162  0.5863 -0.5229
   81MOL0     C10805   6.895   9.488  10.740  0.6999  0.9650 -0.0767
   81MOL0     C10806   6.877   9.506  10.878  0.7064  0.5574 -0.3019
   81MOL0     C10807   6.886   9.634  10.940 -0.3173 -0.1786 -0.8856
   81MOL0     O10808   6.870   9.657  11.073  0.5848 -0.2142  0.0228
   81MOL0     C10809   6.873   9.546  11.157 -0.3652  0.1701 -0.5570
   81MOL0     C10810   6.849   9.599  11.302  0.3961  0.4019 -0.6955
   81MOL0     C10811   6.878   9.748  11.324 -0.2154  0.5714 -0.1079
   81MOL0     C10812   6.833   9.785  11.464 -0.5557 -0.4412  0.0679
   81MOL0     C10813   6.873   9.929  11.505 -0.2944  0.9215  0.3926
   81MOL0     C10814   6.782   9.986  11.626  0.0202  0.4460  0.6516
   81MOL0     C10815   6.815  10.128  11.666 -0.7850  0.1112  0.2849
   81MOL0     C10816   6.723  10.184  11.771 -0.4190  0.3162 -0.2849
   81MOL0     N10817   6.676  10.324  11.766  0.3292 -0.8499  0.2334
   81MOL0     C10818   6.748  10.432  11.734  0.4558 -0.7905  0.3509
   81MOL0     C10819   6.655  10.516  11.688 -0.0022 -0.2594 -0.4291
   81MOL0     C10820   6.691  10.651  11.624  0.4159 -0.2964  0.3658
   81MOL0     C10821   6.699  10.662  11.462  0.2858 -0.4696  0.0670
   81MOL0     C10822   6.816  10.585  11.399 -0.2981  0.0967 -0.2487
   81MOL0     C10823   6.954  10.638  11.431  0.3516 -0.8574  0.1107
   81MOL0     O10824   6.983  10.607  11.563 -0.4311 -0.1539 -0.0612
   81MOL0     C10825   7.042  10.490  11.596  0.2919  0.0921 -0.2834
   81MOL0     C10826   7.050  10.374  11.517  0.0478  0.1750  0.3027
   81MOL0     C10827   7.093  10.250  11.556 -0.4385  0.0952  0.1037
   81MOL0     C10828   7.149  10.233  11.680 -0.6091  0.0404  0.0639
   81MOL0     C10829   7.203  10.098  11.729 -0.6475 -0.4726 -0.7769
   81MOL0     O10830   7.205  10.102  11.863 -0.7340 -0.4810 -0.2173
   81MOL0     C10831   7.247   9.993  11.939 -0.4223  0.5336 -0.7719
   81MOL0     C10832   7.318   9.880  11.899  0.3508  0.1358  0.1002
   81MOL0     C10833   7.359   9.789  11.999 -0.1752 -0.4422 -0.3895
   81MOL0     C10834   7.347   9.815  12.133  0.4723  0.3148 -0.8597
   81MOL0     O10835   7.397   9.738  12.235 -0.6220  0.3359 -0.7810
   81MOL0     C10836   7.492   9.637  12.198  0.0222 -0.5612  0.3296
   81MOL0     C10837   7.557   9.576  12.321  0.4994  0.1849 -0.3279
   81MOL0     C10838   7.638   9.684  12.396 -0.6695  0.6367  0.2294
   81MOL0     C10839   7.674   9.638  12.537  0.8616 -0.7997 -0.4412
   81MOL0     C10840   7.783   9.716  12.612 -0.3776  0.8008  0.5588
   81MOL0     C10841   7.764   9.859  12.634  0.1856 -0.6570 -0.2390
   81MOL0     C10842   7.895   9.907  12.699 -0.2193 -0.4644  0.4274
   81MOL0     C10843   7.883  10.054  12.734  0.1120  0.1557 -0.0371
   81MOL0    Cl10844   7.990  10.093  12.871 -0.0044  0.0043  0.0198
   81MOL0     C10845   7.269   9.925  12.179  0.2125 -0.3296  0.1169
   81MOL0     C10846   7.226  10.015  12.080 -0.8855  0.4457 -0.7689
   81MOL0     O10847   7.210  10.003  11.652 -0.0013 -0.0111  0.3882
   81MOL0     C10848   7.151  10.346  11.770  0.7137 -0.6456  0.2442
   81MOL0     C10849   7.093  10.473  11.725  0.9398  0.5466 -0.7891
   81MOL0     N10850   6.525  10.466  11.707 -0.2603  0.4053 -0.5181
   81MOL0     N10851   6.543  10.344  11.747  0.1546 -0.2988 -0.0868
   81MOL0     C10852   6.925   9.740  10.857  1.7235  0.3575  0.5032
   81MOL0     C10853   6.943   9.723  10.715  0.1154  0.4201 -0.3923
   81MOL0     C10854   6.916   9.606  10.291  1.0975 -0.3852 -0.3762
   81MOL0     C10855   6.935   9.703  10.191  0.5482 -0.6198 -0.4994
   81MOL0     C10856   6.940   9.665  10.058 -0.0061 -0.1219  0.0356
   81MOL0     C10857   6.936   9.532  10.011 -0.4728 -0.4655 -0.1015
   81MOL0     O10858   6.950   9.507   9.875 -0.9458  0.3349 -0.0494
   81MOL0     C10859   6.929   9.378   9.822  0.2875  0.5452  0.3422
   81MOL0     C10860   6.782   9.335   9.787 -0.1032 -0.4666  1.0428
   81MOL0     C10861   6.679   9.317   9.903  0.2615  0.0805  0.0372
   81MOL0     C10862   6.563   9.229   9.868 -0.1409  0.7003 -0.5647
   81MOL0     C10863   6.589   9.080   9.869  0.3425 -0.1255  1.3613
   81MOL0     C10864   6.600   8.959   9.879 -0.5249  0.3197 -0.6117
   81MOL0     C10865   6.924   9.441  10.112  0.3123 -0.3249 -0.6620
   81MOL0     C10866   6.902   9.467  10.253  0.1943  0.3881  0.0388
   81MOL0     C10867   6.860   9.356  10.346  0.7588  0.5645 -0.5355
   81MOL0     H10868   6.883   9.388  10.700  0.7541  0.0936  1.9715
   81MOL0     H10869   6.862   9.409  10.925  0.7077  0.6138 -0.1842
   81MOL0     H10870   6.791   9.480  11.127  1.8486 -2.7681 -0.5753
   81MOL0     H10871   6.973   9.500  11.157 -0.7073 -0.7866 -3.4484
   81MOL0     H10872   6.905   9.533  11.370 -1.1936 -1.2812 -0.9552
   81MOL0     H10873   6.742   9.586  11.320  1.0579 -0.8123  3.3954
   81MOL0     H10874   6.836   9.812  11.246  1.6069 -0.8825 -2.4645
   81MOL0     H10875   6.985   9.768  11.311  0.6611 -3.8521 -1.6886
   81MOL0     H10876   6.725   9.774  11.468 -0.5398 -0.4449  4.3770
   81MOL0     H10877   6.867   9.724  11.547 -3.6355  1.7320  3.1989
   81MOL0     H10878   6.977   9.922  11.538 -0.6454  2.2726  1.9288
   81MOL0     H10879   6.872  10.001  11.422 -1.2980  0.3723 -0.0904
   81MOL0     H10880   6.680   9.982  11.586  0.7022 -3.0332 -1.1186
   81MOL0     H10881   6.785   9.917  11.710  2.9765 -3.4447 -2.2880
   81MOL0     H10882   6.817  10.194  11.579 -4.9260  1.3567  0.9261
   81MOL0     H10883   6.916  10.124  11.709 -0.3698  2.4419 -0.3114
   81MOL0     H10884   6.633  10.123  11.779 -0.9115  0.7824 -1.9316
   81MOL0     H10885   6.766  10.169  11.870 -1.0867 -3.9900 -0.4496
   81MOL0     H10886   6.855  10.444  11.745  0.3785  3.3536 -1.6967
   81MOL0     H10887   6.608  10.717  11.650  0.2496 -0.1551 -0.4958
   81MOL0     H10888   6.782  10.700  11.660 -0.0286  1.1001 -0.3475
   81MOL0     H10889   6.601  10.623  11.432 -0.8362  2.4547 -0.3358
   81MOL0     H10890   6.709  10.763  11.422  0.4371 -1.9285 -4.1456
   81MOL0     H10891   6.815  10.591  11.290  1.5684 -4.3576 -0.7483
   81MOL0     H10892   6.799  10.478  11.415 -0.0523  0.0488 -0.3104
   81MOL0     H10893   6.949  10.747  11.423 -0.8393 -1.0057 -1.8464
   81MOL0     H10894   7.024  10.597  11.357  0.0706 -0.0649 -0.6088
   81MOL0     H10895   7.019  10.393  11.415 -0.4743  1.1471  0.6356
   81MOL0     H10896   7.084  10.162  11.494  3.3260  0.5404 -1.3613
   81MOL0     H10897   7.353   9.866  11.797 -1.9890  0.2999 -0.7826
   81MOL0     H10898   7.419   9.706  11.964  2.4792  0.7220  1.0501
   81MOL0     H10899   7.431   9.561  12.148 -3.5487  0.5385  2.6198
   81MOL0     H10900   7.565   9.687  12.134 -2.8978 -1.5322 -4.2339
   81MOL0     H10901   7.468   9.552  12.380  1.6449 -3.0735  0.2204
   81MOL0     H10902   7.621   9.492  12.296  1.2361  0.7764 -0.4691
   81MOL0     H10903   7.729   9.690  12.336 -0.2632 -2.5100  0.3752
   81MOL0     H10904   7.590   9.782  12.392 -0.6398  0.5943 -2.3888
   81MOL0     H10905   7.710   9.536  12.518  2.2172 -0.1398 -1.6000
   81MOL0     H10906   7.584   9.630  12.598  0.4501 -0.6903 -1.0291
   81MOL0     H10907   7.868   9.696  12.546 -0.9610  2.6711 -0.8547
   81MOL0     H10908   7.796   9.665  12.707 -0.9251 -1.1642 -0.3685
   81MOL0     H10909   7.737   9.917  12.545  0.8674  0.6673  0.3866
   81MOL0     H10910   7.682   9.865  12.706  1.8022  0.2296  1.5947
   81MOL0     H10911   7.983   9.887  12.637 -0.9039 -1.0773 -0.3569
   81MOL0     H10912   7.909   9.862  12.798 -0.5744  2.2295  1.7992
   81MOL0     H10913   7.915  10.114  12.648 -0.5327  0.8148  0.1689
   81MOL0     H10914   7.778  10.080  12.748 -0.0232  0.5651 -1.6837
   81MOL0     H10915   7.238   9.942  12.282 -1.5555 -0.3590 -0.3893
   81MOL0     H10916   7.177  10.105  12.116  1.4208  0.7505  1.9354
   81MOL0     H10917   7.198  10.330  11.866  1.3633 -0.2435 -0.0031
   81MOL0     H10918   7.073  10.546  11.803  0.2541 -2.4613  2.0878
   81MOL0     H10919   6.921   9.840  10.897 -2.4062  0.7235 -0.3269
   81MOL0     H10920   6.964   9.808  10.651 -1.8819  1.2395 -0.0240
   81MOL0     H10921   6.933   9.810  10.209  0.9274 -0.5772 -0.7068
   81MOL0     H10922   6.931   9.749   9.990 -0.5168 -0.7014 -0.6336
   81MOL0     H10923   6.976   9.302   9.885  1.7509 -0.3617 -1.7152
   81MOL0     H10924   6.984   9.372   9.727 -0.0468 -1.2821  0.2205
   81MOL0     H10925   6.818   9.240   9.747 -2.7126 -1.2198  0.2725
   81MOL0     H10926   6.743   9.390   9.701  2.8460 -0.4153 -0.3695
   81MOL0     H10927   6.644   9.415   9.935  2.3651  0.8699  0.0777
   81MOL0     H10928   6.744   9.274   9.980  1.6967 -0.8728 -1.6300
   81MOL0     H10929   6.488   9.243   9.946 -0.4786 -1.8739 -0.3394
   81MOL0     H10930   6.520   9.245   9.769 -2.5091  0.1717  0.3139
   81MOL0     H10931   6.619   8.854   9.883 -1.3689  0.1886  1.5097
   81MOL0     H10932   6.907   9.337  10.084 -6.0186  0.7161 -2.2463
   81MOL0     H10933   6.856   9.260  10.295 -1.7158  1.8612 -2.9956
   81MOL0     H10934   6.937   9.342  10.423 -1.0803 -1.1992  1.1379
   81MOL0     H10935   6.772   9.371  10.409 -1.1166 -4.4848 -1.4428
   82MOL0     O10936   0.921   5.772  11.033  0.3509 -0.5295  0.6535
   82MOL0     C10937   0.849   5.857  11.076 -0.0656  0.0343 -0.3505
   82MOL0     O10938   0.888   5.981  11.115  0.5350  0.1282 -0.6745
   82MOL0     C10939   1.012   6.020  11.146  0.1685 -0.3441  0.4661
   82MOL0     C10940   1.080   6.088  11.045 -1.2625  0.7571  0.4260
   82MOL0     C10941   1.217   6.104  11.040  0.3515 -0.1137 -0.5492
   82MOL0     C10942   1.291   6.069  11.156  0.3213 -0.4871  0.0069
   82MOL0     O10943   1.428   6.085  11.166 -0.1932 -0.5494 -1.3331
   82MOL0     C10944   1.512   6.091  11.048  0.4506  0.2651 -0.3794
   82MOL0     C10945   1.660   6.067  11.076 -0.3941 -1.1418  0.0535
   82MOL0     C10946   1.728   6.202  11.118 -0.7209  0.2317 -0.2302
   82MOL0     C10947   1.880   6.181  11.114 -0.5218 -0.8394  0.3714
   82MOL0     C10948   1.943   6.206  10.972  0.1597 -0.1953 -0.3359
   82MOL0     C10949   2.097   6.236  10.994  0.4982 -0.2378  0.4368
   82MOL0     C10950   2.168   6.237  10.861 -0.0725  0.5089 -0.0544
   82MOL0     C10951   2.312   6.289  10.861  0.4053  0.6068  1.3322
   82MOL0     N10952   2.367   6.276  10.725  0.1624  0.4508  0.9274
   82MOL0     C10953   2.425   6.160  10.681  0.4008  0.3191 -0.8396
   82MOL0     C10954   2.496   6.200  10.582  0.2340 -0.3513 -0.3797
   82MOL0     C10955   2.580   6.093  10.512  0.6913 -0.3254  0.7857
   82MOL0     C10956   2.704   6.152  10.443  0.7213  0.2159  0.2934
   82MOL0     C10957   2.806   6.036  10.409  0.1814 -0.1705  0.5119
   82MOL0     C10958   2.739   5.933  10.314  0.1320 -1.1220  0.3373
   82MOL0     O10959   2.827   5.831  10.266 -0.5372 -0.3571 -0.9432
   82MOL0     C10960   2.929   5.871  10.179 -0.1641  0.0317  0.3475
   82MOL0     C10961   2.914   5.947  10.066  0.1491 -0.9034 -0.0016
   82MOL0     C10962   3.025   5.985   9.990 -0.5953  0.2892  0.1446
   82MOL0     C10963   3.158   5.950  10.030  0.3414 -1.0772 -0.2729
   82MOL0     C10964   3.272   5.998   9.949  0.3340  0.5137 -0.6228
   82MOL0     O10965   3.390   5.950  10.001 -0.5491  0.1373 -0.3096
   82MOL0     C10966   3.509   5.992   9.930 -0.3059  0.5913  0.9280
   82MOL0     C10967   3.596   5.887   9.882  1.0417 -0.2440  0.3742
   82MOL0     C10968   3.727   5.923   9.842  0.2707 -0.1513 -0.9538
   82MOL0     C10969   3.776   6.047   9.844  0.1406 -0.3231  0.3585
   82MOL0     O10970   3.899   6.082   9.798 -0.1269  0.0540 -0.0640
   82MOL0     C10971   3.996   6.094   9.908  0.7043  0.3721  0.6946
   82MOL0     C10972   4.123   6.101   9.831  0.3733 -0.2145  0.1954
   82MOL0     C10973   4.251   6.111   9.913 -0.4032  0.9575 -0.0200
   82MOL0     C10974   4.375   6.115   9.826  0.6906  0.1582  0.4656
   82MOL0     C10975   4.503   6.125   9.904  0.3526 -0.4767  0.0357
   82MOL0     C10976   4.628   6.122   9.821  0.0561  0.2745  0.3132
   82MOL0     C10977   4.750   6.072   9.905 -0.5346 -0.3543  0.0069
   82MOL0     C10978   4.862   6.048   9.808 -0.3800 -0.6468  0.3067
   82MOL0    Cl10979   4.887   6.170   9.682  0.3869 -0.1226  0.3281
   82MOL0     C10980   3.686   6.154   9.873 -0.3164  0.3070  0.7377
   82MOL0     C10981   3.559   6.125   9.921  0.2213 -0.4225  0.4464
   82MOL0     O10982   3.261   6.055   9.843  0.2898 -0.2149  0.5499
   82MOL0     C10983   3.172   5.867  10.132  0.1357 -0.1286  0.5723
   82MOL0     C10984   3.062   5.820  10.205  0.3954 -0.1446 -0.0970
   82MOL0     N10985   2.481   6.332  10.549 -0.1417  0.6937  0.6095
   82MOL0     N10986   2.390   6.367  10.634  1.0630 -0.8872  0.3870
   82MOL0     C10987   1.219   6.009  11.262  0.5492  0.9413 -0.0703
   82MOL0     C10988   1.074   5.994  11.268  0.6295  0.4015  0.0614
   82MOL0     C10989   0.710   5.817  11.102  0.2917  1.1881 -0.5914
   82MOL0     C10990   0.645   5.889  11.206 -0.4841 -0.1013  0.6116
   82MOL0     C10991   0.525   5.847  11.252 -0.1634  0.4997 -0.6404
   82MOL0     C10992   0.463   5.733  11.201 -0.5673 -0.0043  0.0256
   82MOL0     O10993   0.348   5.696  11.257 -0.0556  0.1492  0.0737
   82MOL0     C10994   0.235   5.675  11.173  0.5675 -1.7400 -0.0568
   82MOL0     C10995   0.186   5.808  11.113  0.3502  0.2668 -0.3052
   82MOL0     C10996   0.053   5.779  11.042 -0.6513 -0.5330  0.8185
   82MOL0     C10997   0.016   5.915  10.977  0.6870  0.1944 -0.0481
   82MOL0     C10998  -0.131   5.889  10.943 -0.0388 -1.0008 -1.2137
   82MOL0     C10999  -0.239   5.875  10.895 -0.6973  0.0592 -0.3455
   82MOL0     C11000   0.522   5.658  11.098  0.4221 -0.3113 -0.2408
   82MOL0     C11001   0.641   5.705  11.045  0.3057  0.2360 -0.2764
   82MOL0     C11002   0.702   5.634  10.933  0.1701 -0.2057  0.2327
   82MOL0     H11003   1.034   6.126  10.954  0.4338 -1.2666 -1.3851
   82MOL0     H11004   1.266   6.132  10.947  1.1438  2.3021  0.5111
   82MOL0     H11005   1.475   6.012  10.982 -1.3555  2.5516 -2.3009
   82MOL0     H11006   1.498   6.181  10.988 -2.5052 -0.4430 -0.8856
   82MOL0     H11007   1.705   6.056  10.977  2.4006  2.6968  0.6586
   82MOL0     H11008   1.693   5.998  11.154  2.3018  3.4922  3.5454
   82MOL0     H11009   1.704   6.227  11.222 -1.1318  0.8471 -0.4675
   82MOL0     H11010   1.687   6.287  11.063  1.0977  0.6823 -0.9721
   82MOL0     H11011   1.914   6.250  11.192 -0.2919 -0.7328  0.1775
   82MOL0     H11012   1.919   6.084  11.148  2.1125 -0.0775 -0.2594
   82MOL0     H11013   1.927   6.118  10.908  2.6632 -2.0385  1.3502
   82MOL0     H11014   1.893   6.291  10.924  0.7135  1.0029  1.1419
   82MOL0     H11015   2.114   6.333  11.042  0.1929  1.6269 -2.8494
   82MOL0     H11016   2.147   6.161  11.054 -0.8645 -1.6150 -0.0768
   82MOL0     H11017   2.116   6.300  10.789  0.8062  0.8782 -0.3817
   82MOL0     H11018   2.169   6.133  10.828  1.4472 -0.9423  3.9330
   82MOL0     H11019   2.330   6.392  10.891  4.4636  1.2299 -2.1434
   82MOL0     H11020   2.375   6.233  10.931  0.9935 -0.4082  0.0362
   82MOL0     H11021   2.409   6.062  10.726  0.4287  0.3955 -0.6634
   82MOL0     H11022   2.614   6.012  10.577 -0.0800  0.1158  1.7644
   82MOL0     H11023   2.518   6.036  10.441  2.5116  0.2531 -1.3818
   82MOL0     H11024   2.671   6.218  10.363 -1.7736  3.8996  3.9430
   82MOL0     H11025   2.762   6.212  10.514  0.0678  0.2836  0.7796
   82MOL0     H11026   2.835   5.977  10.497 -0.2703 -0.4856  0.4525
   82MOL0     H11027   2.889   6.093  10.366  0.8530 -1.0184  0.6446
   82MOL0     H11028   2.713   5.996  10.228  0.7298 -1.1682  0.1133
   82MOL0     H11029   2.656   5.879  10.359 -0.4008 -0.7623 -0.2011
   82MOL0     H11030   2.816   5.988  10.043  1.5795  1.8982 -1.6383
   82MOL0     H11031   3.006   6.043   9.900  0.3405  0.5774  0.1214
   82MOL0     H11032   3.551   5.789   9.868  1.7769 -0.4339 -0.7881
   82MOL0     H11033   3.798   5.846   9.813  1.9445  0.9461  0.0402
   82MOL0     H11034   3.971   6.186   9.961  2.3613  1.3742 -0.1870
   82MOL0     H11035   3.995   6.004   9.969  0.6150 -0.5664 -0.6486
   82MOL0     H11036   4.130   6.001   9.787 -0.6541  0.3707 -1.4100
   82MOL0     H11037   4.111   6.186   9.763 -5.0915 -2.3751 -2.1658
   82MOL0     H11038   4.253   6.205   9.969 -2.7363  0.3517  1.2243
   82MOL0     H11039   4.251   6.027   9.982  1.7878  0.4765 -0.5393
   82MOL0     H11040   4.361   6.194   9.751  0.5157 -1.1025 -0.8661
   82MOL0     H11041   4.381   6.023   9.768 -1.0363  1.7021 -2.3686
   82MOL0     H11042   4.514   6.046   9.979  1.0493  0.1636  0.6335
   82MOL0     H11043   4.508   6.217   9.964 -0.5910 -0.1946 -0.2951
   82MOL0     H11044   4.607   6.047   9.744 -0.8342  0.9387 -0.1186
   82MOL0     H11045   4.651   6.220   9.780  0.5447  0.4152  0.9148
   82MOL0     H11046   4.722   5.983   9.962 -3.7471  0.1912 -0.5103
   82MOL0     H11047   4.785   6.151   9.973 -0.8394 -0.9644  0.8918
   82MOL0     H11048   4.954   6.053   9.866  0.3267  1.6831 -0.9062
   82MOL0     H11049   4.856   5.954   9.751  3.7174 -0.6245 -0.4956
   82MOL0     H11050   3.724   6.254   9.855 -0.7360  0.4546  0.6625
   82MOL0     H11051   3.485   6.205   9.924  0.0603 -0.4716 -1.3517
   82MOL0     H11052   3.273   5.830  10.144 -0.1264 -2.5629 -3.1504
   82MOL0     H11053   3.076   5.753  10.290 -2.4600  0.5644  1.0578
   82MOL0     H11054   1.287   5.983  11.343  1.2824  2.8629 -0.0204
   82MOL0     H11055   1.021   5.937  11.344  2.3436 -2.6620 -0.8428
   82MOL0     H11056   0.695   5.976  11.248  1.7332 -1.1357  0.2663
   82MOL0     H11057   0.493   5.902  11.340  2.9561  0.3900  0.6778
   82MOL0     H11058   0.168   5.630  11.246 -1.3735  1.8576  0.5655
   82MOL0     H11059   0.257   5.603  11.093 -2.9242 -1.2910 -1.5987
   82MOL0     H11060   0.257   5.851  11.041 -0.7963 -0.5748 -1.9998
   82MOL0     H11061   0.170   5.879  11.195  1.0799 -1.8912  1.8286
   82MOL0     H11062  -0.014   5.748  11.123  1.6827 -3.7610  1.7211
   82MOL0     H11063   0.048   5.692  10.976 -0.3263  0.6267 -0.7851
   82MOL0     H11064   0.021   6.001  11.045 -2.1943 -0.3603  0.9723
   82MOL0     H11065   0.082   5.926  10.890  0.2609 -0.7115 -0.4963
   82MOL0     H11066  -0.339   5.861  10.860 -0.8442 -0.4632  0.2671
   82MOL0     H11067   0.474   5.567  11.065 -1.5236  0.6754 -0.3002
   82MOL0     H11068   0.782   5.568  10.967 -1.3301 -1.8112  0.7709
   82MOL0     H11069   0.624   5.573  10.886  0.7128 -0.4821 -0.3211
   82MOL0     H11070   0.740   5.708  10.861  0.3807 -0.1571  0.3922
   83MOL0     O11071   1.225   5.526   5.711  0.1499 -0.4940 -0.7270
   83MOL0     C11072   1.193   5.506   5.595 -1.7666 -0.5508  0.0700
   83MOL0     O11073   1.271   5.546   5.493  0.1568  0.4489 -0.2396
   83MOL0     C11074   1.403   5.597   5.512  0.2310 -0.4470 -0.1067
   83MOL0     C11075   1.448   5.712   5.452  0.5626  0.5823 -0.3172
   83MOL0     C11076   1.583   5.752   5.444  0.8456  1.5051  1.1840
   83MOL0     C11077   1.676   5.676   5.515  0.2954  0.2319  1.2518
   83MOL0     O11078   1.814   5.691   5.484  0.5540 -0.4399 -0.2996
   83MOL0     C11079   1.890   5.752   5.585  0.1875 -0.2993  0.2734
   83MOL0     C11080   2.033   5.753   5.545  0.4803 -0.4483  0.1858
   83MOL0     C11081   2.114   5.621   5.574 -0.1999  0.1270 -0.1854
   83MOL0     C11082   2.223   5.600   5.476  0.2348  0.0888 -0.2883
   83MOL0     C11083   2.329   5.499   5.509  1.0085  0.2185 -1.1323
   83MOL0     C11084   2.434   5.495   5.399 -0.1951  0.2951  0.1410
   83MOL0     C11085   2.577   5.453   5.453  0.1155  0.1697 -0.1263
   83MOL0     C11086   2.675   5.471   5.332 -0.0580  0.3794  0.0470
   83MOL0     N11087   2.796   5.394   5.350  0.1167 -0.6554  1.1491
   83MOL0     C11088   2.804   5.272   5.402 -0.9594 -0.0919  0.3741
   83MOL0     C11089   2.940   5.245   5.394 -0.1607  0.0554 -0.4122
   83MOL0     C11090   3.013   5.126   5.450 -0.1744  0.7467 -0.2160
   83MOL0     C11091   3.071   5.027   5.351 -0.2514 -0.4522  0.8632
   83MOL0     C11092   2.964   4.958   5.265  0.1114  0.5276 -0.0638
   83MOL0     C11093   2.877   4.852   5.334 -0.0360 -0.1227 -0.6891
   83MOL0     O11094   2.789   4.916   5.429 -0.2735  0.6944 -0.5292
   83MOL0     C11095   2.675   4.836   5.456 -0.7156 -0.3886 -0.6320
   83MOL0     C11096   2.602   4.883   5.569  0.0164  0.8685 -0.8725
   83MOL0     C11097   2.516   4.794   5.628  0.8732 -0.6293 -0.3594
   83MOL0     C11098   2.488   4.669   5.581 -0.5376  0.6069 -0.7964
   83MOL0     C11099   2.400   4.576   5.649  0.8715 -0.4622 -0.0404
   83MOL0     O11100   2.322   4.638   5.742 -0.0232  0.0332  0.3223
   83MOL0     C11101   2.222   4.577   5.805  0.3368  0.0452 -0.3322
   83MOL0     C11102   2.106   4.555   5.735  0.7877  0.8449  1.0423
   83MOL0     C11103   1.996   4.502   5.802 -0.3600 -0.4841 -0.4317
   83MOL0     C11104   1.991   4.473   5.937 -0.4480 -0.2962 -0.6889
   83MOL0     O11105   1.874   4.429   5.998  0.0124  0.0631  0.3441
   83MOL0     C11106   1.863   4.406   6.141 -0.3735  0.0758  0.6649
   83MOL0     C11107   1.728   4.340   6.154 -0.3728  0.1131  0.7707
   83MOL0     C11108   1.671   4.356   6.297  0.5708  0.2319  0.6955
   83MOL0     C11109   1.734   4.279   6.410 -0.5480  0.2888 -0.1345
   83MOL0     C11110   1.658   4.295   6.544  0.8634  0.3192  0.5464
   83MOL0     C11111   1.511   4.270   6.532 -0.5705 -0.0301  0.9666
   83MOL0     C11112   1.451   4.271   6.673  0.0330 -0.5422  0.4687
   83MOL0     C11113   1.300   4.228   6.671 -0.6259 -0.1296  0.2021
   83MOL0    Cl11114   1.215   4.248   6.517 -0.5945  0.3440 -0.3614
   83MOL0     C11115   2.109   4.503   6.009  0.1146  0.2512 -0.4405
   83MOL0     C11116   2.224   4.550   5.946 -0.0843  0.3278 -0.3625
   83MOL0     O11117   2.397   4.448   5.631  0.4096  0.7038  0.0704
   83MOL0     C11118   2.545   4.629   5.464  0.1316  0.4162 -0.1862
   83MOL0     C11119   2.639   4.708   5.405  0.7451  0.4253  0.5601
   83MOL0     N11120   3.000   5.350   5.324 -0.4849 -0.3669  0.3253
   83MOL0     N11121   2.914   5.430   5.288  0.6487 -0.7969  0.9864
   83MOL0     C11122   1.628   5.560   5.583  0.1248  0.0090 -0.2313
   83MOL0     C11123   1.501   5.518   5.579 -0.8512 -0.4084  0.5511
   83MOL0     C11124   1.067   5.445   5.566  0.0888  0.7044  0.2187
   83MOL0     C11125   1.015   5.475   5.440  1.0022  0.1571 -0.4791
   83MOL0     C11126   0.888   5.441   5.394 -0.2972  0.4587 -0.6572
   83MOL0     C11127   0.816   5.349   5.465  0.1590  0.0001 -0.5229
   83MOL0     O11128   0.702   5.310   5.398  0.4565 -0.0990  0.1537
   83MOL0     C11129   0.598   5.254   5.482 -0.8994 -0.2923 -1.4719
   83MOL0     C11130   0.518   5.376   5.542 -1.3647 -0.7963 -0.8965
   83MOL0     C11131   0.437   5.448   5.436  0.4381  0.0531 -0.9063
   83MOL0     C11132   0.364   5.571   5.497  0.6237  0.1663 -0.5591
   83MOL0     C11133   0.232   5.542   5.553  0.5117 -0.3121 -0.6398
   83MOL0     C11134   0.138   5.507   5.619 -0.3848  0.3297  0.1009
   83MOL0     C11135   0.865   5.317   5.599 -0.0573 -0.1426  1.8080
   83MOL0     C11136   0.988   5.369   5.653 -0.6065  0.4394  0.1184
   83MOL0     C11137   1.035   5.324   5.783  0.3671 -0.4041  0.0390
   83MOL0     H11138   1.378   5.767   5.390 -0.5177  1.6572  1.7852
   83MOL0     H11139   1.616   5.835   5.383  0.4542  2.7618  2.6047
   83MOL0     H11140   1.843   5.849   5.600 -0.1364 -0.3224 -0.5172
   83MOL0     H11141   1.892   5.700   5.681 -0.8165 -1.5451 -0.3510
   83MOL0     H11142   2.091   5.837   5.585  0.5017 -0.4985  0.2620
   83MOL0     H11143   2.030   5.770   5.437 -1.9754 -0.6438  0.1622
   83MOL0     H11144   2.040   5.540   5.570  0.1163 -0.3662  2.3213
   83MOL0     H11145   2.153   5.633   5.676 -1.3651  0.5286  0.2373
   83MOL0     H11146   2.171   5.582   5.382 -1.0848 -3.6233  0.9823
   83MOL0     H11147   2.283   5.691   5.466  3.9087 -2.0221  0.3782
   83MOL0     H11148   2.389   5.534   5.594  0.9607  0.6968 -1.2930
   83MOL0     H11149   2.287   5.400   5.529 -1.0255  1.2895  0.1836
   83MOL0     H11150   2.401   5.415   5.333 -0.0548  2.3227 -2.5690
   83MOL0     H11151   2.430   5.587   5.339  0.5896  0.4674  0.3424
   83MOL0     H11152   2.575   5.350   5.487  1.0347 -0.4744 -1.8965
   83MOL0     H11153   2.608   5.516   5.538 -1.8007  0.7125  0.2131
   83MOL0     H11154   2.639   5.417   5.244 -0.2492 -0.2479  0.4986
   83MOL0     H11155   2.688   5.577   5.310  1.4790 -0.0104 -1.1232
   83MOL0     H11156   2.728   5.205   5.442  0.7421 -1.6250  1.2199
   83MOL0     H11157   3.094   5.163   5.512 -1.0770  0.4780  1.1541
   83MOL0     H11158   2.954   5.075   5.527  0.3155  1.9994  1.0274
   83MOL0     H11159   3.142   5.072   5.281 -0.9367 -0.8755 -0.1182
   83MOL0     H11160   3.130   4.953   5.406  1.3452  1.2092  1.5107
   83MOL0     H11161   3.007   4.896   5.186  3.4778 -0.5804  2.3954
   83MOL0     H11162   2.907   5.036   5.214  1.0737  1.1782 -0.1711
   83MOL0     H11163   2.939   4.771   5.372 -0.2596  0.2343  0.4638
   83MOL0     H11164   2.820   4.799   5.257 -1.1413 -2.4110  1.5814
   83MOL0     H11165   2.620   4.984   5.604  0.5248  1.2647 -2.2130
   83MOL0     H11166   2.459   4.833   5.712  2.3956 -0.2369  0.5331
   83MOL0     H11167   2.095   4.564   5.628  0.5365 -2.5634  0.6589
   83MOL0     H11168   1.905   4.477   5.749 -1.2633  2.3066 -0.3774
   83MOL0     H11169   1.936   4.334   6.177 -1.6207 -1.6774 -0.1566
   83MOL0     H11170   1.866   4.499   6.198  2.5778  1.3528 -1.3200
   83MOL0     H11171   1.648   4.371   6.086  0.0014  3.4426  1.6882
   83MOL0     H11172   1.743   4.233   6.137  0.0700  0.5355 -1.9120
   83MOL0     H11173   1.641   4.459   6.319 -2.6833 -0.4099 -0.2180
   83MOL0     H11174   1.574   4.308   6.295  1.1347 -1.0007 -2.5855
   83MOL0     H11175   1.831   4.329   6.418 -1.5337  2.0311  1.5347
   83MOL0     H11176   1.751   4.174   6.384 -1.4741  0.2595 -0.6456
   83MOL0     H11177   1.663   4.403   6.560 -0.9647  0.4285  0.5866
   83MOL0     H11178   1.696   4.238   6.629 -1.1240 -3.2383 -0.7239
   83MOL0     H11179   1.464   4.353   6.478  0.3697  0.4109  0.8075
   83MOL0     H11180   1.502   4.177   6.475 -1.0201  0.6891 -0.1695
   83MOL0     H11181   1.468   4.366   6.724  0.8568 -1.5321  2.1366
   83MOL0     H11182   1.506   4.200   6.736 -0.1705  0.7846  2.2411
   83MOL0     H11183   1.301   4.120   6.688  0.1434 -0.1082  0.3379
   83MOL0     H11184   1.238   4.276   6.747  1.3468  0.3596  1.5733
   83MOL0     H11185   2.112   4.495   6.118 -3.0221  1.2402 -0.1820
   83MOL0     H11186   2.313   4.571   6.004 -1.6214  0.0713  2.2435
   83MOL0     H11187   2.515   4.532   5.427 -0.7230  0.0242  1.4494
   83MOL0     H11188   2.687   4.665   5.319 -1.2761  1.5536 -1.2364
   83MOL0     H11189   1.698   5.490   5.628 -1.4014 -1.4944 -0.1157
   83MOL0     H11190   1.482   5.418   5.617  0.2879 -1.0149 -0.3886
   83MOL0     H11191   1.072   5.531   5.366 -0.8885 -0.2926 -2.3844
   83MOL0     H11192   0.854   5.474   5.296  0.6617 -2.2073 -1.9917
   83MOL0     H11193   0.637   5.187   5.559 -0.1730  0.8938 -0.7779
   83MOL0     H11194   0.530   5.195   5.421  0.0991  0.1807 -3.1060
   83MOL0     H11195   0.579   5.446   5.599 -0.9006 -2.2877  0.5301
   83MOL0     H11196   0.454   5.326   5.615  1.5825  1.4584  3.7311
   83MOL0     H11197   0.367   5.383   5.385  0.6987  0.0090 -1.2132
   83MOL0     H11198   0.503   5.484   5.356  1.3733  0.6574  0.1151
   83MOL0     H11199   0.422   5.635   5.564 -3.3779  2.4887  1.0607
   83MOL0     H11200   0.349   5.637   5.411 -0.3953 -1.6382 -1.8336
   83MOL0     H11201   0.061   5.496   5.693 -0.7567 -0.0473 -0.3424
   83MOL0     H11202   0.820   5.238   5.659 -1.4168 -0.9527 -0.1891
   83MOL0     H11203   0.973   5.241   5.817 -3.5339  2.1459 -0.2054
   83MOL0     H11204   1.136   5.283   5.769  0.8721  1.2212 -1.5716
   83MOL0     H11205   1.044   5.407   5.854 -2.3438  2.4742 -2.6658
   84MOL0     O11206   0.083   9.785   3.696  0.0604  0.7379  0.1582
   84MOL0     C11207   0.195   9.753   3.740 -0.4117 -0.7976 -0.1929
   84MOL0     O11208   0.315   9.786   3.684 -0.3113 -0.0915 -0.2252
   84MOL0     C11209   0.321   9.876   3.576  0.4482  0.1978 -0.7585
   84MOL0     C11210   0.403   9.853   3.461  0.6036 -0.6299  0.2896
   84MOL0     C11211   0.409   9.950   3.361  0.5066  0.5587  0.9946
   84MOL0     C11212   0.326  10.065   3.369  0.0923 -0.0886  0.5518
   84MOL0     O11213   0.350  10.162   3.275 -1.7420 -0.4696 -0.2487
   84MOL0     C11214   0.272  10.283   3.271 -1.5648 -0.0491 -0.0175
   84MOL0     C11215   0.334  10.371   3.151 -0.3677  1.7313  0.5986
   84MOL0     C11216   0.300  10.322   3.000 -0.0181  0.4158  0.8083
   84MOL0     C11217   0.388  10.394   2.903 -0.0765 -0.3764 -1.1449
   84MOL0     C11218   0.364  10.351   2.756  0.1068 -0.3996 -0.3613
   84MOL0     C11219   0.412  10.465   2.661  0.6220  0.4075  0.3154
   84MOL0     C11220   0.435  10.412   2.519  0.0008 -0.2674  0.2296
   84MOL0     C11221   0.471  10.511   2.408 -0.4851 -0.3290  0.4928
   84MOL0     N11222   0.593  10.469   2.322 -0.2476  0.1040 -0.1937
   84MOL0     C11223   0.703  10.551   2.306 -0.5138  0.4071 -0.7602
   84MOL0     C11224   0.783  10.480   2.220 -0.7331 -0.3745  0.9516
   84MOL0     C11225   0.921  10.507   2.165 -0.3499 -0.4890  0.1088
   84MOL0     C11226   0.922  10.559   2.024  0.0277 -0.5973  0.2510
   84MOL0     C11227   1.056  10.555   1.950  0.2119 -0.0518 -0.3112
   84MOL0     C11228   1.091  10.424   1.869  0.2623 -0.2419 -0.1892
   84MOL0     O11229   1.017  10.402   1.749 -0.1762  0.2621  0.4424
   84MOL0     C11230   1.049  10.488   1.644  0.7905  0.5479 -0.2354
   84MOL0     C11231   0.930  10.520   1.568  0.3472 -0.2592  0.0619
   84MOL0     C11232   0.931  10.610   1.460 -0.6370 -0.3714 -0.8614
   84MOL0     C11233   1.051  10.663   1.416  0.0972  0.2841  0.6337
   84MOL0     C11234   1.049  10.745   1.293 -0.8315  0.3689  0.1143
   84MOL0     O11235   0.938  10.787   1.234  0.7052 -0.3804  0.6231
   84MOL0     C11236   0.949  10.880   1.126 -0.0579  0.6448  0.2892
   84MOL0     C11237   1.008  11.001   1.154 -1.0106  0.0418 -0.3864
   84MOL0     C11238   1.033  11.097   1.055  0.1104  0.8388  0.1027
   84MOL0     C11239   0.969  11.080   0.929  0.3102  0.4758 -0.2140
   84MOL0     O11240   0.976  11.164   0.821 -0.6268  0.1806  0.3646
   84MOL0     C11241   1.004  11.302   0.838  0.4314  0.1348 -0.3144
   84MOL0     C11242   0.981  11.374   0.704  0.6921 -0.0102 -0.2023
   84MOL0     C11243   0.838  11.362   0.629  0.0145 -0.4508  0.3471
   84MOL0     C11244   0.725  11.424   0.717 -0.2803 -0.5364 -0.0061
   84MOL0     C11245   0.590  11.404   0.658  0.1575 -0.4505 -0.1286
   84MOL0     C11246   0.498  11.496   0.733  0.2470 -0.6075 -0.2438
   84MOL0     C11247   0.353  11.494   0.680  0.5314  0.8291  0.5266
   84MOL0     C11248   0.248  11.448   0.775 -0.1487  0.6714  0.1154
   84MOL0    Cl11249   0.090  11.496   0.711  0.5719  0.3437 -0.2233
   84MOL0     C11250   0.883  10.966   0.918 -0.1585  0.5877  0.7630
   84MOL0     C11251   0.884  10.864   1.007 -0.5023  0.8748  0.1529
   84MOL0     O11252   1.163  10.776   1.259 -0.2152  0.5369  0.1388
   84MOL0     C11253   1.168  10.630   1.482  0.7093 -0.1742 -0.2281
   84MOL0     C11254   1.166  10.548   1.598  0.0935  0.3137  1.1652
   84MOL0     N11255   0.713  10.369   2.181 -0.2636 -0.4111  0.2344
   84MOL0     N11256   0.601  10.364   2.239  0.3491 -0.9654  0.1785
   84MOL0     C11257   0.242  10.084   3.477  0.3740 -0.4598 -0.9264
   84MOL0     C11258   0.236   9.985   3.577 -0.3637  0.5640 -0.4008
   84MOL0     C11259   0.209   9.662   3.860 -0.7186 -0.8463  0.6710
   84MOL0     C11260   0.279   9.710   3.969 -1.1255 -0.1107 -1.0888
   84MOL0     C11261   0.276   9.643   4.092  0.4088 -0.3820 -0.2482
   84MOL0     C11262   0.206   9.521   4.101  0.2878 -0.6304 -0.0854
   84MOL0     O11263   0.207   9.432   4.209  0.2648 -0.9692  0.3262
   84MOL0     C11264   0.310   9.452   4.309  0.1730 -0.1403  0.6030
   84MOL0     C11265   0.248   9.548   4.419  0.1958  0.1898  1.5693
   84MOL0     C11266   0.251   9.471   4.547  0.8979 -0.7145  0.0550
   84MOL0     C11267   0.225   9.534   4.692  0.4844  0.4272 -0.6259
   84MOL0     C11268   0.085   9.538   4.715  0.1714 -1.1149 -0.5735
   84MOL0     C11269  -0.029   9.569   4.740  0.8429 -0.5707 -0.9466
   84MOL0     C11270   0.132   9.477   3.992  0.0302 -0.1877 -0.2476
   84MOL0     C11271   0.148   9.539   3.871  1.0764 -0.1647  0.6366
   84MOL0     C11272   0.078   9.488   3.743 -1.0020 -0.0776 -1.1865
   84MOL0     H11273   0.463   9.763   3.451  0.8399 -0.4531  0.1039
   84MOL0     H11274   0.463   9.938   3.268  0.3891 -0.9819  1.0951
   84MOL0     H11275   0.169  10.257   3.246 -0.9907 -2.1176 -0.4402
   84MOL0     H11276   0.287  10.348   3.358 -1.4551  1.7944 -1.3598
   84MOL0     H11277   0.443  10.365   3.157 -0.1498  0.8642 -2.5363
   84MOL0     H11278   0.313  10.479   3.152  1.9875  2.4404 -3.2432
   84MOL0     H11279   0.202  10.364   2.975  0.9513  1.0368 -2.3493
   84MOL0     H11280   0.284  10.215   2.986 -4.3828  0.8831  0.7091
   84MOL0     H11281   0.373  10.500   2.922 -1.8942 -0.6854 -0.6730
   84MOL0     H11282   0.494  10.376   2.926  0.0083  2.2371  0.9770
   84MOL0     H11283   0.424  10.264   2.728  1.2668  0.6486 -1.2288
   84MOL0     H11284   0.258  10.341   2.732 -1.0158  2.3184  2.7792
   84MOL0     H11285   0.335  10.541   2.645 -0.5596 -0.8512 -0.2093
   84MOL0     H11286   0.500  10.519   2.698 -1.7084  3.8193  1.3896
   84MOL0     H11287   0.347  10.363   2.477  0.8704  0.3767 -2.6046
   84MOL0     H11288   0.520  10.343   2.520  0.3089 -0.1259 -3.3231
   84MOL0     H11289   0.395  10.541   2.336  0.8283 -0.1390 -0.8849
   84MOL0     H11290   0.511  10.600   2.458  3.7128 -2.0766  0.6892
   84MOL0     H11291   0.725  10.645   2.356 -1.6758 -0.7221  2.0631
   84MOL0     H11292   0.973  10.581   2.225  0.3355  2.0025 -3.2751
   84MOL0     H11293   0.985  10.418   2.165  2.3691  1.3555 -0.7754
   84MOL0     H11294   0.856  10.504   1.956  1.1234  0.3853 -1.6699
   84MOL0     H11295   0.882  10.661   2.024  0.3538 -0.4573 -0.9978
   84MOL0     H11296   1.142  10.585   2.010  0.0208 -1.3138  0.6481
   84MOL0     H11297   1.043  10.634   1.876  1.6634  1.3253  0.8462
   84MOL0     H11298   1.071  10.343   1.939 -0.9679  0.9355  0.8849
   84MOL0     H11299   1.198  10.437   1.853 -0.2403  0.9176 -3.5613
   84MOL0     H11300   0.831  10.482   1.592 -0.7035  2.1012 -0.2925
   84MOL0     H11301   0.842  10.628   1.401 -0.9660  3.1706  0.4410
   84MOL0     H11302   1.064  11.026   1.244  2.6755  0.4576 -2.5926
   84MOL0     H11303   1.083  11.191   1.075 -0.4662  1.2771 -0.4628
   84MOL0     H11304   0.930  11.338   0.910 -2.7385 -2.1635 -2.1408
   84MOL0     H11305   1.110  11.317   0.859  0.7447  0.3796 -1.9428
   84MOL0     H11306   1.009  11.479   0.720  2.3850 -0.3527 -0.7250
   84MOL0     H11307   1.064  11.331   0.647  1.3192  2.1778 -1.0585
   84MOL0     H11308   0.857  11.401   0.528  6.4151 -5.3013 -1.0040
   84MOL0     H11309   0.824  11.258   0.596 -0.3562 -0.5056  0.6693
   84MOL0     H11310   0.753  11.530   0.718  1.6126 -0.8944 -2.6853
   84MOL0     H11311   0.728  11.376   0.815  1.4083  0.0530  0.2668
   84MOL0     H11312   0.563  11.299   0.675 -2.8786  0.1957 -0.3379
   84MOL0     H11313   0.589  11.432   0.552 -2.6623  1.1251  0.2202
   84MOL0     H11314   0.487  11.462   0.837 -1.6447 -2.7874 -1.0740
   84MOL0     H11315   0.549  11.592   0.732  1.4057 -1.1924 -1.3781
   84MOL0     H11316   0.352  11.431   0.591  1.1867 -0.5238  1.4410
   84MOL0     H11317   0.332  11.598   0.653  0.8863  0.6342 -0.5497
   84MOL0     H11318   0.258  11.341   0.793  3.2375  0.9223  0.2340
   84MOL0     H11319   0.262  11.481   0.878 -0.6944 -2.6575  1.3887
   84MOL0     H11320   0.820  10.980   0.831  4.0033  3.3761 -2.2077
   84MOL0     H11321   0.835  10.772   0.976 -1.1115  0.9048  0.9830
   84MOL0     H11322   1.263  10.660   1.439  0.1167  0.9606 -0.7833
   84MOL0     H11323   1.263  10.532   1.646 -0.5281 -1.4600  1.9287
   84MOL0     H11324   0.185  10.175   3.490  0.9381 -0.2387  0.0909
   84MOL0     H11325   0.173  10.007   3.663 -1.1207  0.3151 -0.8800
   84MOL0     H11326   0.322   9.809   3.958 -2.7767  1.0852  1.9696
   84MOL0     H11327   0.321   9.692   4.178  2.3578 -0.2280 -1.2995
   84MOL0     H11328   0.408   9.489   4.280  1.7775 -1.7427  3.5210
   84MOL0     H11329   0.337   9.353   4.348  2.3940  0.0366 -0.3419
   84MOL0     H11330   0.144   9.574   4.400  1.0126  0.9899 -2.9300
   84MOL0     H11331   0.308   9.637   4.439 -0.0548  0.2339  2.1465
   84MOL0     H11332   0.343   9.413   4.561 -0.3851 -3.0856 -0.7074
   84MOL0     H11333   0.178   9.389   4.550 -0.1137 -0.1372 -3.6040
   84MOL0     H11334   0.285   9.468   4.754  1.3737  0.8719 -1.0046
   84MOL0     H11335   0.265   9.636   4.691 -2.2731  1.7499  2.5340
   84MOL0     H11336  -0.135   9.566   4.753  0.7876 -2.9272 -1.4919
   84MOL0     H11337   0.085   9.380   4.006 -0.7118  0.2968  0.6898
   84MOL0     H11338   0.139   9.482   3.652 -1.1633  1.3996 -1.4074
   84MOL0     H11339   0.056   9.383   3.765 -0.2257 -0.5768 -2.6303
   84MOL0     H11340  -0.015   9.543   3.727 -1.6747 -0.7737  0.2363
   85MOL0     O11341   6.936  11.311  10.296 -0.3999  0.7830 -0.5021
   85MOL0     C11342   6.856  11.331  10.386 -0.9271 -0.4760 -0.0411
   85MOL0     O11343   6.734  11.273  10.394  0.2114 -0.1099 -0.0785
   85MOL0     C11344   6.691  11.204  10.289  0.9612 -0.1501  0.7833
   85MOL0     C11345   6.560  11.236  10.240  0.4432  0.1393  0.0737
   85MOL0     C11346   6.502  11.157  10.141  0.3855 -0.1714  0.1797
   85MOL0     C11347   6.563  11.040  10.091  0.7299 -1.5741  0.3228
   85MOL0     O11348   6.486  10.968  10.005 -0.1118 -0.1940 -0.3783
   85MOL0     C11349   6.545  10.849   9.941 -0.6767  0.3798  0.3089
   85MOL0     C11350   6.445  10.798   9.847 -0.1657 -0.9360  0.2339
   85MOL0     C11351   6.409  10.904   9.728  0.3892  0.0642  0.2492
   85MOL0     C11352   6.329  10.836   9.614 -0.4838  0.1390  0.3653
   85MOL0     C11353   6.257  10.942   9.523  0.9735  0.1984  0.3994
   85MOL0     C11354   6.139  10.884   9.438 -0.5261  0.2520 -1.0233
   85MOL0     C11355   6.085  10.994   9.346 -0.4683  0.2539  0.3394
   85MOL0     C11356   6.005  10.919   9.237  0.3610 -0.2141  0.9588
   85MOL0     N11357   5.988  11.012   9.119 -0.4577  0.0283  0.8631
   85MOL0     C11358   5.985  10.958   8.990  0.0680  0.4196  0.0049
   85MOL0     C11359   5.967  11.064   8.909  0.3562  0.1850 -0.2876
   85MOL0     C11360   5.919  11.066   8.766 -0.5905  0.5200  0.0050
   85MOL0     C11361   5.766  11.060   8.770  0.0012  0.2406  0.3917
   85MOL0     C11362   5.687  11.190   8.815 -0.2232 -0.9755  0.8716
   85MOL0     C11363   5.536  11.177   8.807 -0.7202  0.4971  0.6700
   85MOL0     O11364   5.483  11.077   8.889  0.0440 -0.2180  0.0812
   85MOL0     C11365   5.345  11.064   8.896  0.3418  0.7736  0.1853
   85MOL0     C11366   5.255  11.172   8.875  0.0251  1.0939  0.1852
   85MOL0     C11367   5.117  11.151   8.903  0.6450 -0.2926 -0.5028
   85MOL0     C11368   5.069  11.022   8.921  0.1038 -0.3471  0.3638
   85MOL0     C11369   4.922  10.995   8.955 -0.4746 -0.0424  0.8273
   85MOL0     O11370   4.877  10.865   8.936 -0.6355  0.1571  0.3718
   85MOL0     C11371   4.748  10.840   8.967  0.5446 -0.0606 -0.4039
   85MOL0     C11372   4.639  10.886   8.888 -0.2150  0.2036  0.3673
   85MOL0     C11373   4.510  10.851   8.924 -0.3915 -0.4917 -0.9342
   85MOL0     C11374   4.492  10.764   9.041 -0.1423 -0.3800  0.4140
   85MOL0     O11375   4.368  10.719   9.075 -0.2783  0.1660  0.7272
   85MOL0     C11376   4.256  10.730   8.978  0.2725  1.1151 -0.5495
   85MOL0     C11377   4.147  10.632   9.017  0.3070  0.1551 -0.2503
   85MOL0     C11378   4.024  10.659   8.932 -0.2511  0.0208  0.4614
   85MOL0     C11379   3.910  10.720   9.003 -0.1286 -0.2159  0.4855
   85MOL0     C11380   3.782  10.699   8.918  0.4558  1.0727 -0.4777
   85MOL0     C11381   3.660  10.767   8.990 -0.4943 -0.1493  0.6522
   85MOL0     C11382   3.527  10.711   8.952 -0.4427 -0.7922  0.5444
   85MOL0     C11383   3.424  10.820   8.934  0.7927  0.4419 -0.8736
   85MOL0    Cl11384   3.422  10.952   9.053 -0.1797  0.3348  0.1621
   85MOL0     C11385   4.596  10.731   9.122  0.1718  0.0318 -0.8280
   85MOL0     C11386   4.723  10.774   9.088  0.9801  0.1021  0.4713
   85MOL0     O11387   4.865  11.100   8.986  0.3470 -0.1992 -0.6371
   85MOL0     C11388   5.152  10.912   8.925 -0.1784  0.3196 -1.6763
   85MOL0     C11389   5.294  10.936   8.925 -0.9905  0.8107 -0.2275
   85MOL0     N11390   5.973  11.177   8.987 -0.4807  0.8417  0.5652
   85MOL0     N11391   5.994  11.150   9.112 -0.2160  0.3752  0.4992
   85MOL0     C11392   6.685  11.004  10.145  0.2142 -0.8785  0.3197
   85MOL0     C11393   6.747  11.088  10.241 -0.5357 -0.0220  0.7409
   85MOL0     C11394   6.907  11.416  10.498 -0.8381  0.1139 -0.3167
   85MOL0     C11395   6.828  11.427  10.620 -0.5655  0.0611  0.0840
   85MOL0     C11396   6.877  11.484  10.731  0.2588 -0.2993  0.1455
   85MOL0     C11397   6.994  11.556  10.728 -0.1767  0.3670  0.5853
   85MOL0     O11398   7.013  11.636  10.838  0.5320 -0.2643 -0.0540
   85MOL0     C11399   7.125  11.728  10.828  1.2853 -0.4281  0.8032
   85MOL0     C11400   7.103  11.848  10.732  0.1130  0.6006 -0.8229
   85MOL0     C11401   6.960  11.897  10.744  0.5127 -0.0411 -0.1928
   85MOL0     C11402   6.919  12.037  10.692 -0.3965  0.8513  0.1197
   85MOL0     C11403   6.773  12.050  10.705 -0.5374  0.7670  0.6977
   85MOL0     C11404   6.655  12.052  10.742 -0.6771  0.1848  0.7457
   85MOL0     C11405   7.068  11.558  10.605  0.2245 -0.3186  0.3089
   85MOL0     C11406   7.028  11.494  10.491 -0.0158  0.2956 -0.0361
   85MOL0     C11407   7.116  11.525  10.371  0.5466 -0.1213 -0.1595
   85MOL0     H11408   6.510  11.311  10.300  1.2808 -0.2633  1.3186
   85MOL0     H11409   6.403  11.168  10.099  1.1891 -0.6374 -1.9369
   85MOL0     H11410   6.629  10.871   9.875 -1.8807  0.4132 -1.2687
   85MOL0     H11411   6.555  10.766  10.012 -0.1076  0.3411  0.1816
   85MOL0     H11412   6.353  10.769   9.898  0.4275 -1.3630  1.0858
   85MOL0     H11413   6.484  10.708   9.798 -1.2538 -0.8874 -0.7824
   85MOL0     H11414   6.502  10.937   9.680 -0.1033 -0.4384 -1.0991
   85MOL0     H11415   6.355  10.990   9.768  1.6477  1.2575 -0.5343
   85MOL0     H11416   6.397  10.776   9.552 -0.0676 -1.6474  2.4172
   85MOL0     H11417   6.259  10.762   9.653  0.9694 -0.0370  2.8771
   85MOL0     H11418   6.222  11.029   9.579  2.3440  0.3400  1.0700
   85MOL0     H11419   6.336  10.978   9.456  1.0499 -0.3167  0.2043
   85MOL0     H11420   6.180  10.799   9.383  2.3498  0.5727  0.4616
   85MOL0     H11421   6.060  10.855   9.510  0.3898  2.3955  0.9732
   85MOL0     H11422   6.161  11.053   9.294 -1.3853  0.5513 -0.7186
   85MOL0     H11423   6.020  11.062   9.402 -2.8645 -0.2470 -1.6256
   85MOL0     H11424   6.044  10.830   9.187 -1.5688 -0.2289 -0.6297
   85MOL0     H11425   5.906  10.888   9.274 -0.3833  1.1128  0.1327
   85MOL0     H11426   5.998  10.855   8.960  0.5994 -0.3196  2.5425
   85MOL0     H11427   5.960  11.156   8.719  1.9695  1.0288  2.8363
   85MOL0     H11428   5.951  10.977   8.711 -3.3457 -0.1858 -0.6015
   85MOL0     H11429   5.732  11.035   8.670 -1.2913  0.1677  0.8281
   85MOL0     H11430   5.736  10.972   8.827  0.3778  0.5818  1.1367
   85MOL0     H11431   5.703  11.271   8.743  2.5156  0.2671  2.7262
   85MOL0     H11432   5.714  11.219   8.917  1.1875 -0.3825  0.3500
   85MOL0     H11433   5.513  11.153   8.703  2.3223  2.7956 -0.7081
   85MOL0     H11434   5.495  11.276   8.831  0.4805  0.8036  1.5568
   85MOL0     H11435   5.293  11.271   8.852 -2.6510  2.6752  2.0012
   85MOL0     H11436   5.054  11.238   8.920  1.3882 -0.2357  2.4199
   85MOL0     H11437   4.656  10.943   8.798  0.1512 -0.0606  0.2691
   85MOL0     H11438   4.421  10.893   8.879 -0.0780  0.8615 -0.3319
   85MOL0     H11439   4.211  10.829   8.978 -1.4188  0.3883 -0.0039
   85MOL0     H11440   4.285  10.702   8.876  0.6958 -0.6501  0.0089
   85MOL0     H11441   4.183  10.531   8.993  2.2413  0.8230 -0.3763
   85MOL0     H11442   4.130  10.646   9.124  0.1255  3.1030 -0.5964
   85MOL0     H11443   4.064  10.712   8.845 -0.8351 -3.2236 -1.9817
   85MOL0     H11444   3.989  10.562   8.895  0.6693 -1.0581  2.2536
   85MOL0     H11445   3.920  10.827   9.021  3.2167 -0.0879 -1.4161
   85MOL0     H11446   3.901  10.657   9.092  2.5006 -1.3665  0.0293
   85MOL0     H11447   3.746  10.595   8.917  0.4913  1.0474  0.2180
   85MOL0     H11448   3.798  10.725   8.813  1.5487 -1.3512 -0.9847
   85MOL0     H11449   3.668  10.745   9.097 -0.5767 -0.7581  0.5370
   85MOL0     H11450   3.667  10.875   8.975 -2.8670  0.2576  1.9763
   85MOL0     H11451   3.497  10.641   9.031  1.1352 -1.8700  0.2466
   85MOL0     H11452   3.524  10.646   8.863 -0.0297 -3.6659  2.4779
   85MOL0     H11453   3.455  10.876   8.845 -2.3638  1.5464 -1.4122
   85MOL0     H11454   3.322  10.783   8.919  0.6190  1.2425 -1.7995
   85MOL0     H11455   4.590  10.672   9.213 -1.0642 -0.9157 -1.4794
   85MOL0     H11456   4.793  10.734   9.162 -0.4944 -1.8381  0.8969
   85MOL0     H11457   5.111  10.813   8.940  1.0873 -0.1029 -0.8632
   85MOL0     H11458   5.365  10.853   8.925 -1.2113  0.6006 -1.3839
   85MOL0     H11459   6.730  10.909  10.118  2.1010  0.1902 -0.4982
   85MOL0     H11460   6.839  11.065  10.293  1.1232 -1.2657 -2.4313
   85MOL0     H11461   6.735  11.371  10.622 -0.5564 -0.3451 -3.6420
   85MOL0     H11462   6.814  11.475  10.820 -0.0244 -1.3092 -0.1404
   85MOL0     H11463   7.214  11.680  10.785  0.9533  1.8192 -2.7925
   85MOL0     H11464   7.155  11.766  10.926  0.2973  0.4136  0.7979
   85MOL0     H11465   7.120  11.817  10.628 -1.3887  0.7595 -1.1424
   85MOL0     H11466   7.171  11.927  10.764 -0.6447  1.4396 -1.2295
   85MOL0     H11467   6.936  11.899  10.851 -1.3335  2.3915 -0.5565
   85MOL0     H11468   6.893  11.824  10.698 -0.7487  1.5185 -0.9488
   85MOL0     H11469   6.970  12.121  10.739  0.1713  0.7269 -0.2634
   85MOL0     H11470   6.944  12.039  10.585  0.0041  3.2044  0.2145
   85MOL0     H11471   6.553  12.058  10.773 -1.3448 -2.1210 -0.7681
   85MOL0     H11472   7.153  11.624  10.600 -0.6662  0.8362 -0.1219
   85MOL0     H11473   7.165  11.434  10.334 -2.3123 -2.4014  1.2226
   85MOL0     H11474   7.052  11.553  10.286 -1.0339  2.2291  1.6600
   85MOL0     H11475   7.186  11.607  10.387 -1.1561  1.2038  0.8252
   86MOL0     O11476   4.976   3.734   9.331  0.5083  0.7211 -0.6932
   86MOL0     C11477   4.987   3.800   9.229  1.1579 -0.1580  0.2290
   86MOL0     O11478   5.027   3.734   9.112  0.5466 -0.0966  0.6600
   86MOL0     C11479   5.039   3.598   9.112 -0.3803  0.5364  0.3543
   86MOL0     C11480   4.955   3.519   9.042  0.1772  0.0030  0.6150
   86MOL0     C11481   4.975   3.384   9.036  1.3295  1.0251 -0.1228
   86MOL0     C11482   5.073   3.314   9.107 -0.1691 -0.2357 -0.9028
   86MOL0     O11483   5.094   3.179   9.099  1.1746 -0.4560  0.5450
   86MOL0     C11484   5.110   3.093   9.216  0.5498  0.9286  0.1517
   86MOL0     C11485   5.132   2.939   9.180  0.2462 -1.2686 -0.4719
   86MOL0     C11486   5.245   2.916   9.077 -0.2380  0.8879  0.4103
   86MOL0     C11487   5.378   2.835   9.107 -0.2997 -0.4515  0.1570
   86MOL0     C11488   5.472   2.919   9.184 -0.3958  0.6063 -0.4175
   86MOL0     C11489   5.598   2.838   9.230  0.2626  0.2585 -0.2843
   86MOL0     C11490   5.728   2.918   9.219 -0.2008  0.1751  0.1186
   86MOL0     C11491   5.837   2.845   9.292 -0.0382  0.7999  0.9434
   86MOL0     N11492   5.952   2.938   9.321 -0.0568  0.6140  0.1483
   86MOL0     C11493   5.948   3.053   9.398  0.3922  0.1862  0.4301
   86MOL0     C11494   6.047   3.133   9.352  0.2961 -0.0204 -0.0706
   86MOL0     C11495   6.060   3.282   9.381  0.3303  0.3939  0.0682
   86MOL0     C11496   6.087   3.357   9.252  1.8192 -0.2065 -0.4865
   86MOL0     C11497   6.113   3.517   9.252  0.0999 -0.3010 -1.0701
   86MOL0     C11498   6.170   3.571   9.129  0.3488  0.6359  1.5567
   86MOL0     O11499   6.182   3.715   9.128 -0.3461 -0.9851  0.5632
   86MOL0     C11500   6.311   3.772   9.106  0.4624 -0.2787 -0.0040
   86MOL0     C11501   6.395   3.701   9.003  0.6042  0.2926  0.8833
   86MOL0     C11502   6.513   3.759   8.975  0.5723 -0.0935 -0.2946
   86MOL0     C11503   6.544   3.885   9.035 -0.7379  0.1437  0.2350
   86MOL0     C11504   6.684   3.942   9.015  0.6570 -0.0705 -1.6184
   86MOL0     O11505   6.709   4.071   9.055 -0.8321 -0.2598  0.1755
   86MOL0     C11506   6.795   4.141   8.975 -0.2223 -0.1976 -0.4041
   86MOL0     C11507   6.929   4.150   9.009  0.0247 -0.0750 -0.0358
   86MOL0     C11508   7.023   4.204   8.926 -0.7993 -0.0500  0.1972
   86MOL0     C11509   6.978   4.257   8.800 -0.4475 -0.6130 -0.4573
   86MOL0     O11510   7.073   4.297   8.716  0.2642 -0.3000  0.5950
   86MOL0     C11511   7.026   4.388   8.609  0.3214  0.4386  0.0478
   86MOL0     C11512   7.105   4.519   8.605 -0.2786  0.4574  0.3759
   86MOL0     C11513   7.257   4.502   8.595 -0.2016 -0.2467  0.0028
   86MOL0     C11514   7.298   4.476   8.452  1.0168  0.1298 -0.5652
   86MOL0     C11515   7.445   4.462   8.453  0.4441 -0.2651  0.5551
   86MOL0     C11516   7.496   4.427   8.323 -0.6261 -0.0933  1.1398
   86MOL0     C11517   7.649   4.411   8.325  0.1328  0.5124  0.8958
   86MOL0     C11518   7.711   4.379   8.187 -0.6685  0.1691 -0.5552
   86MOL0    Cl11519   7.886   4.376   8.198 -0.4041 -0.3843 -0.1277
   86MOL0     C11520   6.836   4.254   8.773 -0.0798 -0.1373 -0.1410
   86MOL0     C11521   6.750   4.192   8.852 -0.3301 -0.0115 -0.4689
   86MOL0     O11522   6.766   3.866   8.949  0.0385 -0.1130 -0.1692
   86MOL0     C11523   6.465   3.961   9.123 -0.3211 -1.1995  0.1719
   86MOL0     C11524   6.340   3.892   9.156 -0.0955 -0.3069 -0.0764
   86MOL0     N11525   6.119   3.072   9.255  0.0355 -0.5141  0.2595
   86MOL0     N11526   6.062   2.953   9.243 -1.4685  0.2216  0.3121
   86MOL0     C11527   5.167   3.399   9.176 -0.4167  0.3175  0.0998
   86MOL0     C11528   5.155   3.536   9.158  0.0506  0.3728 -0.1328
   86MOL0     C11529   4.924   3.932   9.209 -0.5321 -0.0885  0.1261
   86MOL0     C11530   4.843   3.970   9.314  0.6722  0.6077  0.4307
   86MOL0     C11531   4.783   4.091   9.315  0.7798  0.7749 -0.1880
   86MOL0     C11532   4.780   4.168   9.196  0.1548 -0.7380 -0.5045
   86MOL0     O11533   4.710   4.284   9.168  0.1297 -0.1191 -0.0745
   86MOL0     C11534   4.586   4.295   9.239  0.6961  0.7429 -0.0299
   86MOL0     C11535   4.594   4.380   9.362 -0.1367 -0.1075  0.1221
   86MOL0     C11536   4.462   4.375   9.433 -1.1350  0.6258  0.1740
   86MOL0     C11537   4.444   4.463   9.553 -0.6735  0.3698 -0.2130
   86MOL0     C11538   4.547   4.438   9.658 -0.4212  0.4586 -0.7175
   86MOL0     C11539   4.645   4.440   9.723 -0.4234 -0.5009  0.5386
   86MOL0     C11540   4.859   4.123   9.087  0.1127 -0.3259  0.4778
   86MOL0     C11541   4.947   4.017   9.094 -0.1033 -0.0056 -1.5755
   86MOL0     C11542   5.056   4.006   9.001  0.3366 -0.3621  0.0946
   86MOL0     H11543   4.880   3.565   8.978 -1.2602 -3.9451 -0.8167
   86MOL0     H11544   4.911   3.318   8.979  3.4138  0.1368 -1.6034
   86MOL0     H11545   5.199   3.123   9.272  1.1816 -0.0974 -0.2694
   86MOL0     H11546   5.019   3.107   9.275  0.5188  2.6444 -0.2657
   86MOL0     H11547   5.034   2.901   9.151 -1.2050 -0.3523  2.7363
   86MOL0     H11548   5.151   2.877   9.268 -1.7015  1.2752  1.9410
   86MOL0     H11549   5.263   3.009   9.022 -2.1749  0.5820 -0.8465
   86MOL0     H11550   5.195   2.848   9.007  2.9319  1.1978 -2.4153
   86MOL0     H11551   5.344   2.753   9.171  1.2124  0.0858  1.7097
   86MOL0     H11552   5.425   2.806   9.012 -0.0383  2.7242 -0.7960
   86MOL0     H11553   5.496   3.019   9.145 -0.0109  0.3931 -0.7366
   86MOL0     H11554   5.419   2.927   9.279 -0.1605 -4.1364  0.3412
   86MOL0     H11555   5.590   2.824   9.338  3.2937 -2.4386 -0.2530
   86MOL0     H11556   5.604   2.738   9.188 -1.1248  0.4277 -0.9314
   86MOL0     H11557   5.724   3.013   9.273 -1.7738 -1.5523  3.3255
   86MOL0     H11558   5.751   2.935   9.114  0.0840  1.9086  0.4169
   86MOL0     H11559   5.802   2.807   9.388 -2.8361 -2.1184 -1.0249
   86MOL0     H11560   5.870   2.765   9.225  0.6825 -0.2530  2.5080
   86MOL0     H11561   5.867   3.084   9.463  0.5957  0.8883  0.3613
   86MOL0     H11562   5.965   3.316   9.423 -0.1616  1.8168 -2.0404
   86MOL0     H11563   6.142   3.290   9.453  0.2459 -3.8091  0.8656
   86MOL0     H11564   6.169   3.307   9.201  1.1343 -0.0752 -1.7480
   86MOL0     H11565   6.011   3.338   9.176 -1.0785  3.1936  1.2511
   86MOL0     H11566   6.176   3.533   9.340 -1.8428 -0.6270  0.4351
   86MOL0     H11567   6.016   3.567   9.261  0.1307 -0.5710  5.6833
   86MOL0     H11568   6.120   3.534   9.039  0.3963  0.4265  1.6139
   86MOL0     H11569   6.271   3.529   9.120  0.6625  1.3483  1.7549
   86MOL0     H11570   6.374   3.608   8.951  0.9752  0.9701 -0.5277
   86MOL0     H11571   6.582   3.717   8.902  1.1164  0.0633  0.1263
   86MOL0     H11572   6.953   4.101   9.102  0.7324 -0.6517 -0.5126
   86MOL0     H11573   7.129   4.205   8.949 -0.4364 -0.5730 -1.3733
   86MOL0     H11574   7.032   4.338   8.512 -1.1735  0.5982 -0.1530
   86MOL0     H11575   6.925   4.428   8.618 -0.2532 -0.3028 -2.3998
   86MOL0     H11576   7.087   4.587   8.521 -1.7624 -0.6216 -0.2131
   86MOL0     H11577   7.090   4.570   8.701 -0.2230  0.3799  0.4260
   86MOL0     H11578   7.307   4.594   8.625 -0.6870 -0.3681  1.2594
   86MOL0     H11579   7.296   4.415   8.648  2.8430  0.0470 -1.5301
   86MOL0     H11580   7.285   4.557   8.380 -0.8883 -0.8146 -1.3712
   86MOL0     H11581   7.238   4.393   8.412 -1.0231  0.9473  0.5849
   86MOL0     H11582   7.478   4.389   8.528  1.0224 -0.7289 -0.1346
   86MOL0     H11583   7.487   4.557   8.489  1.1037 -1.1394  2.2392
   86MOL0     H11584   7.446   4.332   8.298 -1.5328  0.1650  1.9058
   86MOL0     H11585   7.467   4.497   8.245 -0.5778  1.5932  2.5835
   86MOL0     H11586   7.660   4.321   8.386 -1.2331  1.1546  2.1929
   86MOL0     H11587   7.697   4.497   8.374 -0.1248  2.0275 -1.3651
   86MOL0     H11588   7.678   4.287   8.140  0.4891 -2.0018  2.5189
   86MOL0     H11589   7.686   4.462   8.120 -0.7019  3.4062  3.0556
   86MOL0     H11590   6.790   4.275   8.677  2.9765  0.2744 -1.6248
   86MOL0     H11591   6.646   4.175   8.824 -0.6324  0.4817  0.3091
   86MOL0     H11592   6.489   4.058   9.164 -0.8932 -0.9804 -0.0042
   86MOL0     H11593   6.282   3.940   9.233  1.0131 -0.5901  0.9799
   86MOL0     H11594   5.247   3.359   9.237 -0.0298 -2.0873 -1.8460
   86MOL0     H11595   5.218   3.596   9.223 -0.5070  1.8309 -0.8936
   86MOL0     H11596   4.837   3.901   9.398  2.5400 -1.3801 -0.9650
   86MOL0     H11597   4.738   4.125   9.408  3.8082  0.4334  1.5082
   86MOL0     H11598   4.554   4.196   9.272  1.1014  0.9492  1.0048
   86MOL0     H11599   4.511   4.326   9.165  0.8206 -0.5124 -0.7167
   86MOL0     H11600   4.614   4.482   9.329 -2.0550  0.1233 -0.4832
   86MOL0     H11601   4.678   4.349   9.425  0.3407 -1.1491 -0.9976
   86MOL0     H11602   4.441   4.272   9.462  1.2958  0.4174  1.4416
   86MOL0     H11603   4.388   4.404   9.357  0.4091  0.6495 -1.3989
   86MOL0     H11604   4.458   4.564   9.513  2.9321  0.4711  0.9807
   86MOL0     H11605   4.343   4.451   9.594 -0.2924  0.0823  0.6649
   86MOL0     H11606   4.730   4.439   9.788  1.7438  1.3587 -2.0023
   86MOL0     H11607   4.870   4.177   8.993 -2.0321 -0.9985 -0.2335
   86MOL0     H11608   5.150   3.992   9.056  0.2617  1.0096  0.6037
   86MOL0     H11609   5.041   3.914   8.942  0.6285 -1.9294  2.3441
   86MOL0     H11610   5.067   4.094   8.937  0.2501  1.7996  2.8706
   87MOL0     O11611   4.147   8.351  10.256 -0.3432 -0.1115  0.5795
   87MOL0     C11612   4.207   8.301  10.167  0.0702  1.2691 -0.1627
   87MOL0     O11613   4.177   8.311  10.032  0.4261  0.4058 -0.7307
   87MOL0     C11614   4.066   8.381  10.002 -0.6634 -0.0471 -0.2187
   87MOL0     C11615   3.945   8.316   9.975 -0.3122 -0.8478  0.1589
   87MOL0     C11616   3.832   8.392   9.973  0.1279  0.0724 -0.1710
   87MOL0     C11617   3.833   8.531  10.000 -0.8274  0.6147  0.3475
   87MOL0     O11618   3.711   8.595   9.973  0.4909 -0.2782  0.2793
   87MOL0     C11619   3.590   8.542  10.047  0.7182  1.1449 -0.5935
   87MOL0     C11620   3.483   8.655  10.080 -0.2411 -0.7916  0.7061
   87MOL0     C11621   3.417   8.700   9.946 -0.9210 -0.5376 -0.1185
   87MOL0     C11622   3.319   8.826   9.975 -0.4092  0.5282 -0.1179
   87MOL0     C11623   3.285   8.900   9.838 -0.5186 -0.7456 -0.3033
   87MOL0     C11624   3.163   8.832   9.772 -0.2258 -0.2254  0.4470
   87MOL0     C11625   3.161   8.853   9.616  0.1364  0.7959  0.4172
   87MOL0     C11626   3.067   8.968   9.583 -0.0161 -0.0798  0.9675
   87MOL0     N11627   3.028   8.979   9.447 -0.2169  0.3045  0.7823
   87MOL0     C11628   3.110   8.997   9.342  0.5328  0.0264  0.2437
   87MOL0     C11629   3.036   9.000   9.228 -0.3740  0.3217  0.0769
   87MOL0     C11630   3.068   9.026   9.082 -0.5808 -0.1169 -0.0487
   87MOL0     C11631   3.221   9.069   9.065  0.7925  0.5834 -0.3549
   87MOL0     C11632   3.251   9.209   9.122 -0.9685 -0.0714  0.5148
   87MOL0     C11633   3.146   9.309   9.096 -0.4159  0.3475  0.6835
   87MOL0     O11634   3.039   9.290   9.180  0.0572  0.0328 -0.5957
   87MOL0     C11635   3.038   9.335   9.310 -0.4009  0.9230 -0.2750
   87MOL0     C11636   2.924   9.313   9.379  0.9305  1.0118  0.2291
   87MOL0     C11637   2.933   9.330   9.517 -0.3089 -0.1002 -0.4803
   87MOL0     C11638   3.043   9.373   9.587 -0.2479  0.4872  0.0952
   87MOL0     C11639   3.044   9.382   9.733 -0.0509  0.3062 -0.0844
   87MOL0     O11640   2.927   9.375   9.793  0.1763 -0.1579  0.4041
   87MOL0     C11641   2.933   9.372   9.930 -0.0451  0.0857  0.5791
   87MOL0     C11642   3.003   9.268  10.000  1.3451  1.0165 -0.9329
   87MOL0     C11643   2.999   9.254  10.142 -0.2452 -0.4259 -0.0504
   87MOL0     C11644   2.911   9.346  10.214  0.5082  0.2815 -0.4262
   87MOL0     O11645   2.885   9.325  10.348 -0.1530  0.3010  0.0924
   87MOL0     C11646   2.980   9.243  10.421 -0.4439 -0.3591 -0.9362
   87MOL0     C11647   2.939   9.233  10.565  0.2221 -0.9681 -0.5124
   87MOL0     C11648   3.050   9.194  10.666 -0.6776  0.0869 -0.4982
   87MOL0     C11649   2.992   9.183  10.803  0.6000  1.5693 -0.6585
   87MOL0     C11650   3.109   9.176  10.901  0.2019 -0.8716 -0.5419
   87MOL0     C11651   3.199   9.063  10.898  0.1079 -0.0515  0.9930
   87MOL0     C11652   3.308   9.074  11.015  0.6137 -0.7707 -0.2977
   87MOL0     C11653   3.405   8.950  11.013 -0.1930 -0.1606  0.8105
   87MOL0    Cl11654   3.312   8.796  10.974 -0.2482  0.0868  0.5660
   87MOL0     C11655   2.829   9.442  10.149 -0.2669 -0.3189 -0.6365
   87MOL0     C11656   2.843   9.457  10.007  0.2568 -0.1258 -0.5671
   87MOL0     O11657   3.153   9.392   9.782 -0.8622 -0.3513  0.1327
   87MOL0     C11658   3.160   9.390   9.518 -0.1218 -0.1239  0.5191
   87MOL0     C11659   3.162   9.371   9.377 -0.6789 -0.4168 -0.1454
   87MOL0     N11660   2.902   8.990   9.262 -1.0862  0.6980 -0.5158
   87MOL0     N11661   2.904   8.973   9.393  0.2375  0.4742  0.1311
   87MOL0     C11662   3.958   8.597  10.023 -0.4411 -0.0065 -0.1952
   87MOL0     C11663   4.073   8.521  10.025  0.5880 -0.0327  0.0370
   87MOL0     C11664   4.297   8.181  10.193  0.3862 -1.1445 -0.3890
   87MOL0     C11665   4.344   8.107  10.083 -0.9694 -0.3238  0.2626
   87MOL0     C11666   4.439   8.008  10.098 -0.0046  0.4372  0.0787
   87MOL0     C11667   4.501   7.982  10.225 -0.0056 -0.1887  0.3918
   87MOL0     O11668   4.599   7.888  10.236  0.6707  0.3563 -0.3638
   87MOL0     C11669   4.586   7.788  10.348 -0.4847  0.5169  0.3483
   87MOL0     C11670   4.677   7.670  10.319 -0.6241  0.2713  0.5450
   87MOL0     C11671   4.639   7.594  10.190  0.8104 -0.0909 -0.1457
   87MOL0     C11672   4.682   7.449  10.214 -0.5840 -0.1414  0.0328
   87MOL0     C11673   4.607   7.369  10.314 -0.7099 -1.2140  0.1484
   87MOL0     C11674   4.544   7.316  10.398  0.8200  0.0997  0.1018
   87MOL0     C11675   4.451   8.055  10.329  0.0830  0.4679 -0.4411
   87MOL0     C11676   4.367   8.168  10.309 -0.2500  1.1849  0.6867
   87MOL0     C11677   4.328   8.247  10.436 -0.4913 -0.4432 -0.4384
   87MOL0     H11678   3.943   8.208   9.981 -0.8221 -0.8223  0.4469
   87MOL0     H11679   3.744   8.339   9.940  0.2441  0.9912 -2.0921
   87MOL0     H11680   3.553   8.459   9.986  1.7823 -1.9630  2.6186
   87MOL0     H11681   3.616   8.503  10.146 -0.9421 -2.4425 -1.4128
   87MOL0     H11682   3.546   8.736  10.118  0.2418 -0.1536 -1.3233
   87MOL0     H11683   3.403   8.624  10.148 -0.3638  0.3954  1.1181
   87MOL0     H11684   3.341   8.638   9.898 -1.4797  1.5779 -2.1555
   87MOL0     H11685   3.496   8.726   9.874  3.0217 -3.2482  2.7548
   87MOL0     H11686   3.228   8.815  10.034  0.0922 -2.4612  0.2590
   87MOL0     H11687   3.365   8.901  10.039 -1.3326  1.1086 -0.1077
   87MOL0     H11688   3.259   9.005   9.854 -0.0954  0.0461 -3.8962
   87MOL0     H11689   3.368   8.907   9.767 -2.4298 -2.1222 -2.8498
   87MOL0     H11690   3.167   8.723   9.777  0.5752 -0.1891  0.6576
   87MOL0     H11691   3.070   8.862   9.822 -0.7549  0.6808 -1.0162
   87MOL0     H11692   3.111   8.766   9.574 -1.0467  2.3355 -1.5723
   87MOL0     H11693   3.261   8.855   9.572 -1.0237  1.5681 -2.4598
   87MOL0     H11694   2.976   8.961   9.644  0.4084  1.5825  1.8567
   87MOL0     H11695   3.122   9.057   9.613  1.4284 -0.9279  0.9076
   87MOL0     H11696   3.218   9.009   9.344  0.4783  0.6969 -0.3401
   87MOL0     H11697   3.065   8.933   9.024  0.8300 -0.1001 -0.1694
   87MOL0     H11698   3.004   9.098   9.029 -0.2547 -1.1888 -1.9635
   87MOL0     H11699   3.288   9.004   9.122  3.6836  2.2198 -1.6888
   87MOL0     H11700   3.251   9.059   8.960  0.2084 -0.0665 -0.4706
   87MOL0     H11701   3.346   9.229   9.072 -1.0139 -1.7706 -0.3178
   87MOL0     H11702   3.286   9.204   9.226 -0.3099 -3.2879  0.2348
   87MOL0     H11703   3.104   9.298   8.995  0.3480 -1.4917  0.5291
   87MOL0     H11704   3.189   9.409   9.108  2.5817 -0.7606 -0.0279
   87MOL0     H11705   2.840   9.279   9.319  1.3328  1.5329 -0.6570
   87MOL0     H11706   2.839   9.313   9.568 -2.1298  3.6492 -2.1977
   87MOL0     H11707   3.052   9.193   9.939  1.0509  1.2627 -1.4813
   87MOL0     H11708   3.066   9.178  10.180  1.5222  2.4369  3.2271
   87MOL0     H11709   2.995   9.141  10.384 -2.2189 -1.1507  0.3393
   87MOL0     H11710   3.069   9.306  10.426 -2.3075  2.3850  1.0254
   87MOL0     H11711   2.905   9.328  10.606 -0.4561 -2.2154  2.0325
   87MOL0     H11712   2.859   9.158  10.564 -0.8474  0.1482 -0.4818
   87MOL0     H11713   3.107   9.105  10.638  0.0428  0.9853 -2.0176
   87MOL0     H11714   3.129   9.270  10.676 -0.6908 -0.1850  2.3043
   87MOL0     H11715   2.942   9.086  10.813  1.6291  1.2613  2.5290
   87MOL0     H11716   2.914   9.258  10.820 -2.1052 -1.3822  1.2265
   87MOL0     H11717   3.063   9.201  10.997 -1.8062 -0.1684 -1.6158
   87MOL0     H11718   3.174   9.260  10.874 -0.3642  0.1107  1.0148
   87MOL0     H11719   3.137   8.973  10.902  3.4829 -2.6151  0.0538
   87MOL0     H11720   3.244   9.065  10.798 -2.6571  4.0261 -0.4383
   87MOL0     H11721   3.247   9.086  11.105 -0.7001  0.1949 -1.2716
   87MOL0     H11722   3.369   9.161  10.988  0.6580 -1.3105 -2.0697
   87MOL0     H11723   3.483   8.966  10.939 -0.3546  3.1437  1.2123
   87MOL0     H11724   3.455   8.935  11.109  1.9498  1.2070 -0.0413
   87MOL0     H11725   2.770   9.508  10.213 -3.0664 -3.5084  0.3305
   87MOL0     H11726   2.780   9.537   9.968 -0.5116  0.0369  0.9432
   87MOL0     H11727   3.255   9.426   9.558  0.3437 -0.8320  0.0793
   87MOL0     H11728   3.254   9.385   9.320 -1.5458  2.1263 -1.0577
   87MOL0     H11729   3.947   8.700  10.055  0.1167  0.6741 -2.0881
   87MOL0     H11730   4.167   8.568  10.055 -0.0896  1.3490  0.0796
   87MOL0     H11731   4.307   8.123   9.983  3.1057 -2.4561 -1.8200
   87MOL0     H11732   4.454   7.939  10.016  2.0289 -0.1040  0.8376
   87MOL0     H11733   4.482   7.753  10.345 -0.1892 -0.3183 -1.0974
   87MOL0     H11734   4.601   7.831  10.447 -0.3154  1.4619 -0.0843
   87MOL0     H11735   4.677   7.604  10.406 -0.1744  0.0971  0.4161
   87MOL0     H11736   4.776   7.714  10.306  0.3967 -2.3260 -1.2989
   87MOL0     H11737   4.689   7.645  10.107  0.0289 -0.8557 -1.1083
   87MOL0     H11738   4.532   7.606  10.171  1.1878  0.3297 -2.1473
   87MOL0     H11739   4.671   7.380  10.130  2.0352 -0.2630 -0.2817
   87MOL0     H11740   4.788   7.459  10.239 -0.1893  3.8022 -2.3482
   87MOL0     H11741   4.504   7.257  10.479  2.6632 -1.0980  0.1942
   87MOL0     H11742   4.480   8.019  10.427  2.0698 -2.7436 -2.0451
   87MOL0     H11743   4.392   8.223  10.521 -0.6072  2.1066  0.4558
   87MOL0     H11744   4.337   8.356  10.426  1.8619 -0.3386  1.8018
   87MOL0     H11745   4.226   8.223  10.470 -0.5629  0.3810 -0.0464
   88MOL0     O11746   9.291   2.460   8.450 -0.0212 -0.7360 -0.0703
   88MOL0     C11747   9.363   2.361   8.455  0.2019  0.0422 -0.6973
   88MOL0     O11748   9.357   2.263   8.359 -1.7471 -0.2669  0.2987
   88MOL0     C11749   9.241   2.259   8.289  0.0950 -0.0748  0.0986
   88MOL0     C11750   9.124   2.198   8.319  1.1532  0.0730 -0.9990
   88MOL0     C11751   9.013   2.213   8.237  0.7457  0.2835  0.9579
   88MOL0     C11752   9.015   2.285   8.118 -0.3742 -0.4843  0.3217
   88MOL0     O11753   8.901   2.282   8.040 -0.2846 -0.1531 -0.0730
   88MOL0     C11754   8.920   2.329   7.905  0.1499 -0.1613 -0.7833
   88MOL0     C11755   8.822   2.248   7.814  0.4349  0.5798 -0.4751
   88MOL0     C11756   8.782   2.319   7.692 -1.0655  0.3325  0.1993
   88MOL0     C11757   8.665   2.241   7.631  1.2023 -0.0243  0.2402
   88MOL0     C11758   8.632   2.267   7.486  0.5648  0.2849  0.2420
   88MOL0     C11759   8.601   2.420   7.479 -0.0963 -0.1794  0.5508
   88MOL0     C11760   8.533   2.466   7.357 -0.6418  0.4317 -0.3656
   88MOL0     C11761   8.469   2.604   7.379  0.0573  0.0197 -0.0145
   88MOL0     N11762   8.564   2.710   7.381 -0.3014 -0.6288 -0.1950
   88MOL0     C11763   8.618   2.760   7.274  0.3831 -0.9514  0.3167
   88MOL0     C11764   8.690   2.871   7.316  0.0910 -0.0224 -0.1710
   88MOL0     C11765   8.769   2.977   7.237 -0.1409  0.7938  0.3082
   88MOL0     C11766   8.924   2.970   7.259  0.3625 -0.7054 -0.6668
   88MOL0     C11767   8.976   2.857   7.165 -0.9754  0.3684 -0.7609
   88MOL0     C11768   9.128   2.847   7.162  0.3832  0.4635  0.2051
   88MOL0     O11769   9.187   2.829   7.293  0.3890  0.4771 -0.2433
   88MOL0     C11770   9.305   2.768   7.299  0.8278  1.0865 -0.9696
   88MOL0     C11771   9.331   2.682   7.409  0.5754 -0.2718  0.1364
   88MOL0     C11772   9.463   2.617   7.420  0.0016 -0.4391  0.0289
   88MOL0     C11773   9.560   2.634   7.320  0.7618  0.3671 -0.4678
   88MOL0     C11774   9.694   2.578   7.339 -0.4592 -0.1579  0.3062
   88MOL0     O11775   9.717   2.503   7.444 -0.1529 -0.5609  0.1517
   88MOL0     C11776   9.845   2.468   7.474  0.3694  0.1655 -0.5818
   88MOL0     C11777   9.901   2.346   7.435 -0.6687 -0.0327 -0.7343
   88MOL0     C11778  10.029   2.312   7.472 -0.5117 -0.5417 -0.3116
   88MOL0     C11779  10.112   2.411   7.542 -0.3288 -0.3927 -0.2441
   88MOL0     O11780  10.247   2.393   7.578  0.1464  0.6568 -0.0065
   88MOL0     C11781  10.287   2.264   7.642  0.1391 -0.4119  0.7333
   88MOL0     C11782  10.421   2.242   7.569  0.4848  0.3270 -0.8190
   88MOL0     C11783  10.499   2.124   7.628 -0.9091  0.2614  0.9508
   88MOL0     C11784  10.633   2.103   7.540  0.2912 -0.3316  1.2803
   88MOL0     C11785  10.689   1.959   7.537 -0.8526  0.1475  0.5244
   88MOL0     C11786  10.800   1.930   7.430  0.5091 -0.0236 -0.4434
   88MOL0     C11787  10.912   2.025   7.455 -0.9273  0.6151  0.7780
   88MOL0     C11788  11.018   1.992   7.357  0.6983  0.7184 -0.4260
   88MOL0    Cl11789  10.954   1.957   7.194  0.0952  0.1142  0.0802
   88MOL0     C11790  10.054   2.535   7.570 -0.3766 -0.0970  0.5955
   88MOL0     C11791   9.922   2.564   7.536  0.6959 -0.5614  0.2606
   88MOL0     O11792   9.773   2.610   7.249 -0.6331 -0.7621 -0.3131
   88MOL0     C11793   9.537   2.733   7.218  1.0183 -0.0773  0.0695
   88MOL0     C11794   9.409   2.799   7.213  0.1617  0.0767 -0.3421
   88MOL0     N11795   8.699   2.864   7.455 -0.1578  0.0170  0.5381
   88MOL0     N11796   8.620   2.766   7.488  0.6771  0.4143  0.2201
   88MOL0     C11797   9.137   2.345   8.084 -0.2942 -0.6935 -0.6490
   88MOL0     C11798   9.251   2.325   8.169  0.0925 -0.2779 -0.0742
   88MOL0     C11799   9.471   2.359   8.554  0.3263 -0.2030 -0.2668
   88MOL0     C11800   9.534   2.483   8.575  0.8774  0.0856 -0.6834
   88MOL0     C11801   9.660   2.480   8.632  1.2407  0.3392  1.0400
   88MOL0     C11802   9.722   2.372   8.685  1.1814 -0.2796 -0.3710
   88MOL0     O11803   9.841   2.395   8.758  0.3769  0.1085 -0.6278
   88MOL0     C11804   9.917   2.285   8.821  0.7648 -0.3756 -0.8127
   88MOL0     C11805  10.016   2.342   8.917 -0.8552 -0.1807 -0.0984
   88MOL0     C11806  10.098   2.234   8.990  0.1537 -0.4341 -0.1070
   88MOL0     C11807  10.166   2.283   9.109  0.1768 -0.3627 -0.9562
   88MOL0     C11808  10.230   2.169   9.183 -0.0579  0.6523 -0.7568
   88MOL0     C11809  10.268   2.082   9.257  0.2223  1.7361  0.7497
   88MOL0     C11810   9.655   2.256   8.668 -0.3251  0.7219  0.2552
   88MOL0     C11811   9.525   2.239   8.609 -0.8119  0.4242  0.2077
   88MOL0     C11812   9.447   2.118   8.635 -0.1850  0.1866 -0.0052
   88MOL0     H11813   9.111   2.133   8.405  1.0803 -0.7654 -1.6287
   88MOL0     H11814   8.919   2.165   8.261  0.1184  0.6246 -0.6894
   88MOL0     H11815   8.900   2.436   7.899 -1.9391 -0.4596 -0.0513
   88MOL0     H11816   9.021   2.296   7.879  0.6877  0.9180 -0.1045
   88MOL0     H11817   8.735   2.232   7.878 -0.3821 -0.1997 -1.7336
   88MOL0     H11818   8.863   2.152   7.781  0.9155  0.5798  0.1085
   88MOL0     H11819   8.863   2.320   7.619 -1.1815 -1.0013  0.0163
   88MOL0     H11820   8.759   2.422   7.722  1.6568  1.1366 -0.2629
   88MOL0     H11821   8.682   2.133   7.636 -0.5196 -0.2617  2.0614
   88MOL0     H11822   8.578   2.271   7.690  1.1416 -0.2573  0.2693
   88MOL0     H11823   8.715   2.247   7.417  2.6851  3.9054  1.4915
   88MOL0     H11824   8.542   2.208   7.463 -0.5506  0.3742  3.8759
   88MOL0     H11825   8.557   2.459   7.571 -3.5565 -1.5967 -0.3567
   88MOL0     H11826   8.700   2.467   7.470  0.5320 -1.7270 -1.2440
   88MOL0     H11827   8.453   2.397   7.329 -0.6400  1.5806 -3.7082
   88MOL0     H11828   8.594   2.476   7.266 -1.9338 -1.2673 -1.4921
   88MOL0     H11829   8.393   2.618   7.302 -0.9176  1.2994  1.1379
   88MOL0     H11830   8.419   2.619   7.475 -0.4830  0.8778 -0.4187
   88MOL0     H11831   8.610   2.727   7.171  1.1657 -2.7639  0.7913
   88MOL0     H11832   8.746   2.969   7.131 -3.7187 -2.8892  1.1076
   88MOL0     H11833   8.747   3.082   7.262  0.5072  0.9538  0.2418
   88MOL0     H11834   8.963   3.071   7.242  4.2604 -2.3867 -3.4957
   88MOL0     H11835   8.951   2.941   7.361  3.4116  3.1335 -0.1414
   88MOL0     H11836   8.935   2.871   7.064 -2.3568  1.2479 -0.1111
   88MOL0     H11837   8.934   2.769   7.214  0.3130  2.4595  4.9354
   88MOL0     H11838   9.178   2.933   7.116  2.1826  0.6566  2.3438
   88MOL0     H11839   9.151   2.761   7.099 -1.1895 -0.9302  1.4265
   88MOL0     H11840   9.255   2.678   7.486 -0.8017  1.3699 -1.0432
   88MOL0     H11841   9.491   2.549   7.500  1.2687  2.1646  1.9301
   88MOL0     H11842   9.838   2.267   7.395 -0.0352 -0.8533 -0.1646
   88MOL0     H11843  10.068   2.211   7.464  1.6548  0.1918  0.3689
   88MOL0     H11844  10.308   2.282   7.747  2.3171 -1.7828  0.5838
   88MOL0     H11845  10.224   2.175   7.631 -0.9546  0.2269  1.5706
   88MOL0     H11846  10.398   2.229   7.463 -0.1039  1.8831 -0.9029
   88MOL0     H11847  10.481   2.331   7.584 -0.0432  0.5591 -0.0045
   88MOL0     H11848  10.530   2.135   7.732 -2.8240 -0.2800  1.6179
   88MOL0     H11849  10.431   2.038   7.626 -0.0982 -0.5001 -2.6856
   88MOL0     H11850  10.708   2.169   7.583 -0.6634  0.6310  1.4913
   88MOL0     H11851  10.622   2.129   7.434  3.9385  1.3909  1.1684
   88MOL0     H11852  10.601   1.898   7.515 -1.1699  0.4448  0.9453
   88MOL0     H11853  10.729   1.933   7.635 -1.8973  0.5240  1.0675
   88MOL0     H11854  10.832   1.826   7.427  1.0155  0.1182 -0.1046
   88MOL0     H11855  10.742   1.955   7.341 -1.3227  0.1069  0.7308
   88MOL0     H11856  10.939   2.039   7.560  2.0454  2.7969 -0.1266
   88MOL0     H11857  10.886   2.124   7.416 -3.7110 -0.3759 -0.1111
   88MOL0     H11858  11.096   2.068   7.352  1.4065  0.0372  0.0534
   88MOL0     H11859  11.072   1.908   7.402 -1.0452  0.1460  0.6766
   88MOL0     H11860  10.117   2.601   7.629  0.4316 -1.6850  1.5983
   88MOL0     H11861   9.883   2.664   7.553  0.2613 -1.0918  2.8379
   88MOL0     H11862   9.619   2.748   7.148 -0.9875 -1.4041 -2.7363
   88MOL0     H11863   9.395   2.879   7.141 -2.9568 -0.5056 -0.5033
   88MOL0     H11864   9.154   2.415   8.003  1.1877  0.5082  0.6232
   88MOL0     H11865   9.342   2.384   8.161  0.4079 -0.3639  2.2457
   88MOL0     H11866   9.493   2.578   8.541  0.8520  0.9889  1.6731
   88MOL0     H11867   9.710   2.575   8.652  3.3954 -0.3712 -0.5779
   88MOL0     H11868   9.966   2.223   8.745 -0.5129 -0.0776 -1.9338
   88MOL0     H11869   9.849   2.222   8.880  4.7752 -2.0457  2.5184
   88MOL0     H11870   9.972   2.408   8.992  0.6091  1.2113 -0.4063
   88MOL0     H11871  10.096   2.400   8.872  1.8097 -3.6361 -0.2527
   88MOL0     H11872  10.169   2.193   8.918  0.3348  1.6550 -1.1897
   88MOL0     H11873  10.034   2.155   9.031 -0.4137  0.4996  0.8549
   88MOL0     H11874  10.246   2.352   9.081  4.4193 -3.5983  1.8744
   88MOL0     H11875  10.106   2.338   9.182  0.8008 -0.0052 -0.7084
   88MOL0     H11876  10.313   2.018   9.330  2.4488 -0.1974 -2.1171
   88MOL0     H11877   9.701   2.161   8.693  4.5136  1.6756 -3.5211
   88MOL0     H11878   9.348   2.120   8.587 -0.9135 -0.4540  1.4066
   88MOL0     H11879   9.498   2.029   8.597  0.7502  0.1379  1.3161
   88MOL0     H11880   9.423   2.109   8.741  0.7607  1.2317  0.3075
   89MOL0     O11881   4.345   9.041   0.452  0.4897  0.7221  0.4927
   89MOL0     C11882   4.286   9.098   0.367  0.8122 -0.0500 -0.1200
   89MOL0     O11883   4.322   9.111   0.240 -0.0670 -0.4727  0.8056
   89MOL0     C11884   4.450   9.093   0.208  0.6034  0.5684 -0.1095
   89MOL0     C11885   4.488   8.987   0.133  0.3152  0.3458  1.0838
   89MOL0     C11886   4.622   8.953   0.115  0.0618  0.6813  0.6721
   89MOL0     C11887   4.724   9.041   0.154 -0.0987 -0.9685 -0.4707
   89MOL0     O11888   4.856   9.012   0.137 -0.5449  0.4271  0.4630
   89MOL0     C11889   4.953   9.119   0.120 -0.0376 -0.2178 -0.3405
   89MOL0     C11890   5.080   9.042   0.102  0.1006  0.2002 -0.1238
   89MOL0     C11891   5.189   9.134   0.062 -0.1452 -0.0773  0.3652
   89MOL0     C11892   5.324   9.064   0.089 -0.1106 -0.1194  0.4945
   89MOL0     C11893   5.446   9.153   0.060 -0.0819 -0.5326  0.3647
   89MOL0     C11894   5.572   9.078   0.068 -0.6273 -0.5362 -0.1643
   89MOL0     C11895   5.697   9.172   0.057 -0.1886 -0.6349  0.2364
   89MOL0     C11896   5.817   9.104  -0.001  0.3504 -0.3485 -0.0686
   89MOL0     N11897   5.931   9.188   0.038  0.1081  0.2398 -0.5788
   89MOL0     C11898   6.058   9.150   0.023 -0.3663 -0.3115 -0.1818
   89MOL0     C11899   6.122   9.255   0.071  0.1741  0.1498  0.7786
   89MOL0     C11900   6.272   9.262   0.076 -0.4592  0.4427  0.0781
   89MOL0     C11901   6.343   9.218   0.207 -0.1476 -0.2405  0.2310
   89MOL0     C11902   6.296   9.288   0.332  0.0896 -0.9461 -0.7520
   89MOL0     C11903   6.371   9.252   0.456 -0.7677  0.3676  0.6071
   89MOL0     O11904   6.368   9.106   0.476 -0.2589 -0.0689 -0.5077
   89MOL0     C11905   6.400   9.056   0.604  0.1195 -0.5380 -0.9702
   89MOL0     C11906   6.433   8.914   0.619 -0.4117 -0.4149  0.6350
   89MOL0     C11907   6.446   8.857   0.749  1.3098 -0.4433 -0.3973
   89MOL0     C11908   6.422   8.938   0.869  0.2960 -0.4469  0.9504
   89MOL0     C11909   6.438   8.869   1.005 -1.1645  0.1493 -0.2287
   89MOL0     O11910   6.430   8.951   1.112  0.1733 -0.3660 -0.9892
   89MOL0     C11911   6.425   8.887   1.238  0.3133 -1.3025  0.4934
   89MOL0     C11912   6.326   8.943   1.324  0.0290  0.5769  0.2144
   89MOL0     C11913   6.309   8.893   1.455 -1.2670  0.2782 -0.7048
   89MOL0     C11914   6.401   8.794   1.498  0.3662 -0.1643  0.7540
   89MOL0     O11915   6.371   8.735   1.616  0.4000 -0.2122 -0.3064
   89MOL0     C11916   6.401   8.820   1.732  0.7101 -1.0792 -0.3011
   89MOL0     C11917   6.523   8.757   1.795 -1.0049 -0.5861 -0.4048
   89MOL0     C11918   6.493   8.620   1.859  0.6235  0.0640  0.6173
   89MOL0     C11919   6.607   8.538   1.905 -0.2564  0.4728  0.0837
   89MOL0     C11920   6.585   8.386   1.926  0.0094 -0.2897 -0.7554
   89MOL0     C11921   6.476   8.355   2.022 -0.2428  0.0755 -0.5099
   89MOL0     C11922   6.470   8.201   2.037  0.9400 -0.0436 -0.4539
   89MOL0     C11923   6.379   8.158   2.156  1.3096  0.3238 -0.0631
   89MOL0    Cl11924   6.246   8.049   2.105  0.1935  0.0431  0.1346
   89MOL0     C11925   6.506   8.751   1.419  0.4323  0.0862 -0.2875
   89MOL0     C11926   6.522   8.797   1.286  0.4819  0.3192  0.4881
   89MOL0     O11927   6.462   8.749   1.011 -0.6954 -1.1198 -0.7519
   89MOL0     C11928   6.395   9.076   0.849 -0.1037  0.1689  0.7795
   89MOL0     C11929   6.382   9.130   0.720  0.7472  0.2666 -0.8881
   89MOL0     N11930   6.041   9.355   0.122  0.2293 -0.1701 -0.5958
   89MOL0     N11931   5.918   9.319   0.086 -0.7682 -0.0372 -0.6211
   89MOL0     C11932   4.686   9.154   0.222 -0.6940 -0.6505  0.1051
   89MOL0     C11933   4.553   9.170   0.268  0.4389 -0.5089 -0.7928
   89MOL0     C11934   4.161   9.172   0.408 -0.0111  0.2420 -0.4183
   89MOL0     C11935   4.072   9.185   0.308 -0.3104 -0.2741 -0.0487
   89MOL0     C11936   3.945   9.239   0.326 -0.2972 -0.9996 -0.4378
   89MOL0     C11937   3.902   9.269   0.462  0.1502  0.5723  0.4110
   89MOL0     O11938   3.772   9.313   0.471 -0.8376  0.2874  0.3070
   89MOL0     C11939   3.728   9.385   0.584 -0.6191 -0.2122  0.3877
   89MOL0     C11940   3.720   9.303   0.717  0.6035 -0.9667  0.2236
   89MOL0     C11941   3.684   9.156   0.695 -0.2672  0.0256 -0.1266
   89MOL0     C11942   3.664   9.083   0.830  0.8174 -0.4777 -0.1203
   89MOL0     C11943   3.788   9.044   0.900 -0.2123  0.0483 -0.2099
   89MOL0     C11944   3.895   9.005   0.953  0.2300 -0.4691 -0.4324
   89MOL0     C11945   4.005   9.278   0.561  0.5070  0.9322 -1.2443
   89MOL0     C11946   4.132   9.234   0.527  0.7578  0.2360  0.2629
   89MOL0     C11947   4.235   9.259   0.637 -0.6761 -0.5468 -0.2676
   89MOL0     H11948   4.418   8.927   0.075 -0.4547  0.8258  1.5040
   89MOL0     H11949   4.650   8.867   0.055  1.2192 -0.0579  2.2040
   89MOL0     H11950   4.934   9.180   0.031 -3.0136 -1.1827 -0.4791
   89MOL0     H11951   4.954   9.183   0.209  0.3052  0.4750 -0.8308
   89MOL0     H11952   5.072   8.972   0.019  2.5100  0.0485 -0.2896
   89MOL0     H11953   5.106   8.991   0.196 -1.7707 -0.6108 -0.0109
   89MOL0     H11954   5.183   9.232   0.111 -0.8425  0.0305  0.0786
   89MOL0     H11955   5.165   9.161  -0.041 -2.5467  2.7053  1.4880
   89MOL0     H11956   5.333   9.022   0.190  0.5087  1.0145  0.9423
   89MOL0     H11957   5.321   8.980   0.019  0.2584  1.6207 -1.7147
   89MOL0     H11958   5.433   9.200  -0.038 -0.9993 -2.6485 -0.5892
   89MOL0     H11959   5.438   9.237   0.130 -2.0466 -0.8393  0.5431
   89MOL0     H11960   5.574   9.013   0.156 -3.2486 -0.1367  0.2569
   89MOL0     H11961   5.576   9.005  -0.014 -2.6455  1.6297 -2.3268
   89MOL0     H11962   5.720   9.202   0.160  0.5548  1.1189 -0.3990
   89MOL0     H11963   5.677   9.256  -0.011 -1.2763 -2.2183 -1.4841
   89MOL0     H11964   5.833   9.002   0.035  2.5436  0.0870  0.3267
   89MOL0     H11965   5.816   9.110  -0.110  4.5868 -0.0794 -0.2468
   89MOL0     H11966   6.103   9.062  -0.023  1.3618  1.0836 -1.2704
   89MOL0     H11967   6.313   9.205  -0.008 -1.8899  0.6616 -0.7985
   89MOL0     H11968   6.302   9.365   0.054  2.2672 -0.3670 -0.4725
   89MOL0     H11969   6.339   9.109   0.212 -0.5619 -0.2036  1.0539
   89MOL0     H11970   6.445   9.256   0.200 -0.4929  0.6780 -0.0301
   89MOL0     H11971   6.188   9.280   0.345 -0.2297  1.0536 -1.8395
   89MOL0     H11972   6.298   9.397   0.321 -2.8260 -0.7791 -0.5594
   89MOL0     H11973   6.326   9.307   0.540  0.1450  0.2308  1.2093
   89MOL0     H11974   6.473   9.290   0.439 -1.3660  1.1862 -1.4608
   89MOL0     H11975   6.448   8.862   0.525 -0.8572  4.3911 -2.5005
   89MOL0     H11976   6.470   8.752   0.745 -0.5321 -0.8857 -0.7580
   89MOL0     H11977   6.249   9.004   1.278  0.8405  0.1613 -1.7618
   89MOL0     H11978   6.234   8.935   1.521  1.7211  1.7340  2.0616
   89MOL0     H11979   6.404   8.926   1.705 -2.9071 -0.9906 -0.9199
   89MOL0     H11980   6.311   8.809   1.794 -0.5841 -0.7109 -2.0555
   89MOL0     H11981   6.603   8.744   1.721 -1.4047  0.7234 -1.1025
   89MOL0     H11982   6.553   8.826   1.874 -0.4959 -1.5714  0.2933
   89MOL0     H11983   6.418   8.641   1.936  0.3037  1.1593  0.0385
   89MOL0     H11984   6.444   8.565   1.777 -0.1030 -0.1227  1.1685
   89MOL0     H11985   6.653   8.584   1.993  0.0656  3.3556 -1.4767
   89MOL0     H11986   6.683   8.540   1.826  0.4029  0.7641  0.7194
   89MOL0     H11987   6.672   8.326   1.956 -1.7889 -2.2481  0.8471
   89MOL0     H11988   6.552   8.343   1.831 -0.6483 -1.8863  0.1616
   89MOL0     H11989   6.514   8.396   2.116 -1.9659 -0.9700  0.6824
   89MOL0     H11990   6.375   8.391   2.002 -0.1615  0.8468  0.3849
   89MOL0     H11991   6.572   8.175   2.067  0.7753  1.5647  1.8270
   89MOL0     H11992   6.455   8.154   1.940 -0.0803  1.4826 -1.0910
   89MOL0     H11993   6.457   8.106   2.212  0.4848 -1.3566 -0.4128
   89MOL0     H11994   6.343   8.241   2.218  0.6512 -0.7482  1.0436
   89MOL0     H11995   6.588   8.689   1.454  0.6467  0.2392 -0.5102
   89MOL0     H11996   6.609   8.775   1.224 -0.2011 -0.1833 -0.3050
   89MOL0     H11997   6.378   9.131   0.941  0.0672  0.1493  0.8221
   89MOL0     H11998   6.340   9.231   0.722  0.3391  0.1272 -1.9977
   89MOL0     H11999   4.756   9.227   0.260 -2.1055 -0.0341  1.6971
   89MOL0     H12000   4.535   9.262   0.324 -0.1626 -0.4966 -1.0014
   89MOL0     H12001   4.098   9.139   0.213 -1.4476 -1.3718  0.1545
   89MOL0     H12002   3.873   9.256   0.245 -0.3551  1.3692  0.0211
   89MOL0     H12003   3.620   9.392   0.567 -0.7074 -2.7428 -0.4560
   89MOL0     H12004   3.783   9.480   0.583  1.2698 -1.2670  1.4687
   89MOL0     H12005   3.638   9.355   0.767  1.5610  1.0216 -0.1698
   89MOL0     H12006   3.814   9.315   0.771 -0.0293 -0.4381  1.2270
   89MOL0     H12007   3.765   9.104   0.644 -0.2149 -1.8591  1.7660
   89MOL0     H12008   3.598   9.158   0.627  1.0290 -1.3849 -1.9117
   89MOL0     H12009   3.598   9.147   0.889  0.0827 -1.0055 -0.3524
   89MOL0     H12010   3.616   8.990   0.800 -0.1355  0.6613 -2.4287
   89MOL0     H12011   3.987   8.967   0.994  2.0548  0.9264 -2.9377
   89MOL0     H12012   3.992   9.307   0.664 -1.7438 -5.3579  0.6680
   89MOL0     H12013   4.319   9.310   0.590 -2.3761  0.6655 -2.1258
   89MOL0     H12014   4.197   9.323   0.716  1.0671 -2.3090  2.1481
   89MOL0     H12015   4.260   9.167   0.692 -0.8999 -0.5182 -0.1198
   90MOL0     O12016   5.106  10.426   7.442  0.3920  0.0817 -0.0199
   90MOL0     C12017   5.168  10.529   7.451 -0.2567 -0.3158 -0.5791
   90MOL0     O12018   5.268  10.565   7.373 -0.4587  0.8941  0.5286
   90MOL0     C12019   5.284  10.505   7.252  0.5264 -0.5727 -0.0731
   90MOL0     C12020   5.182  10.509   7.162  0.4050 -0.6175 -0.6675
   90MOL0     C12021   5.186  10.443   7.036 -0.0719  0.1762 -0.4291
   90MOL0     C12022   5.312  10.387   6.997  0.5309 -0.1283 -0.5485
   90MOL0     O12023   5.354  10.346   6.874 -0.5532 -0.0532  0.3215
   90MOL0     C12024   5.279  10.396   6.764 -0.0448 -0.7095 -0.0425
   90MOL0     C12025   5.355  10.390   6.631  0.4009 -1.1937  0.0187
   90MOL0     C12026   5.342  10.256   6.559 -1.0743 -0.5909 -0.0762
   90MOL0     C12027   5.437  10.257   6.441 -0.2220  0.7517  0.0761
   90MOL0     C12028   5.460  10.120   6.385  0.3891  1.5763 -0.1648
   90MOL0     C12029   5.528  10.110   6.252  0.5218 -0.1036 -0.1087
   90MOL0     C12030   5.659  10.175   6.238  0.1560 -0.3216  0.9090
   90MOL0     C12031   5.772  10.104   6.303 -0.4017  0.1142  0.1072
   90MOL0     N12032   5.812   9.973   6.257 -0.0338 -0.1730 -0.7996
   90MOL0     C12033   5.888   9.946   6.145  0.2718 -0.1728 -0.7244
   90MOL0     C12034   5.912   9.815   6.158 -0.8689 -0.0610  0.3775
   90MOL0     C12035   5.984   9.728   6.048 -0.2013 -0.4438 -0.2308
   90MOL0     C12036   6.136   9.718   6.080  0.4947 -0.5719  0.5427
   90MOL0     C12037   6.224   9.643   5.974  0.1687 -0.2531 -0.6124
   90MOL0     C12038   6.294   9.737   5.880 -0.5539  0.1452 -1.2504
   90MOL0     O12039   6.319   9.674   5.747  0.6220 -0.3352  0.4938
   90MOL0     C12040   6.433   9.598   5.734 -0.1551 -0.3817  1.1733
   90MOL0     C12041   6.531   9.562   5.833  0.2716 -0.5730 -0.7950
   90MOL0     C12042   6.654   9.497   5.797  0.4568  0.5574 -0.1419
   90MOL0     C12043   6.684   9.465   5.670  0.5586 -0.9792  0.1141
   90MOL0     C12044   6.798   9.372   5.633 -0.4000  0.9851 -1.0430
   90MOL0     O12045   6.798   9.320   5.507 -0.0034  0.4262 -0.8164
   90MOL0     C12046   6.875   9.214   5.460  0.1986  0.1608 -0.6640
   90MOL0     C12047   6.990   9.164   5.515 -0.2631  0.3704  0.8047
   90MOL0     C12048   7.062   9.055   5.457 -0.0851  0.4482 -0.6534
   90MOL0     C12049   7.004   8.985   5.355 -0.8594  1.3107 -0.3686
   90MOL0     O12050   7.072   8.872   5.314  0.7112 -0.4951  0.6933
   90MOL0     C12051   7.046   8.830   5.178 -0.0276  0.1889  0.1764
   90MOL0     C12052   7.167   8.746   5.132  0.2022  0.4937 -0.9053
   90MOL0     C12053   7.292   8.818   5.105 -0.7473  0.3724 -0.0916
   90MOL0     C12054   7.270   8.938   5.012 -0.2055  0.8700 -0.9800
   90MOL0     C12055   7.402   8.983   4.956  0.6640  0.3854 -0.5946
   90MOL0     C12056   7.471   9.063   5.063  0.1753  0.6886  0.3460
   90MOL0     C12057   7.609   9.114   5.008 -0.5925 -0.0118  0.2168
   90MOL0     C12058   7.683   9.216   5.094 -0.1590  0.0963  0.1810
   90MOL0    Cl12059   7.607   9.375   5.119 -0.0944 -0.2405 -0.1341
   90MOL0     C12060   6.891   9.040   5.292  0.3166  0.6223  0.6526
   90MOL0     C12061   6.818   9.143   5.349  0.4961 -0.4831 -0.4086
   90MOL0     O12062   6.879   9.352   5.722 -0.3012  0.5461 -0.4841
   90MOL0     C12063   6.592   9.502   5.565  0.5151 -0.2353 -0.5537
   90MOL0     C12064   6.470   9.566   5.600  1.0348 -0.0559  0.2215
   90MOL0     N12065   5.866   9.771   6.286  0.2832  0.2031 -0.0094
   90MOL0     N12066   5.796   9.864   6.340 -0.0239 -1.0061 -0.4263
   90MOL0     C12067   5.412  10.382   7.092 -0.1026  0.3824  0.3031
   90MOL0     C12068   5.405  10.438   7.223 -0.9645  0.1703 -0.0486
   90MOL0     C12069   5.155  10.603   7.581 -0.0120 -0.4865 -0.1244
   90MOL0     C12070   5.265  10.659   7.643  0.5437 -0.3858  0.4018
   90MOL0     C12071   5.249  10.728   7.765  0.0532  0.6806  0.1207
   90MOL0     C12072   5.130  10.720   7.835  1.0771 -0.3283  0.1248
   90MOL0     O12073   5.099  10.782   7.954 -0.1471  0.5513  0.3540
   90MOL0     C12074   5.179  10.885   8.005 -1.1326  0.2105  0.6675
   90MOL0     C12075   5.151  10.916   8.149 -0.3478 -0.0731 -0.1791
   90MOL0     C12076   5.175  10.818   8.256 -0.1231 -0.4100  0.1417
   90MOL0     C12077   5.316  10.747   8.258  0.0372  0.0640  1.1307
   90MOL0     C12078   5.423  10.829   8.316  0.2412 -0.6562 -0.5811
   90MOL0     C12079   5.508  10.898   8.365  0.4805 -0.6441 -0.8648
   90MOL0     C12080   5.023  10.649   7.787 -0.1144  0.4538 -0.8351
   90MOL0     C12081   5.028  10.603   7.649 -0.2041 -0.4888 -0.0972
   90MOL0     C12082   4.895  10.572   7.591 -0.7761  0.2229  0.1176
   90MOL0     H12083   5.082  10.551   7.169  0.0143 -1.3572 -1.5757
   90MOL0     H12084   5.102  10.453   6.968 -0.9695  0.8579  0.7355
   90MOL0     H12085   5.184  10.345   6.749 -0.3857 -0.1287  0.1151
   90MOL0     H12086   5.266  10.502   6.789  1.7958  0.3526 -2.9779
   90MOL0     H12087   5.457  10.418   6.660  0.8416 -1.2356 -1.3844
   90MOL0     H12088   5.325  10.472   6.565 -0.2129 -2.6233 -1.5486
   90MOL0     H12089   5.238  10.250   6.528 -1.3449  0.9585  0.4211
   90MOL0     H12090   5.374  10.174   6.624  0.3653 -0.0938 -0.1012
   90MOL0     H12091   5.390  10.320   6.365 -1.4432 -0.9489 -0.6386
   90MOL0     H12092   5.534  10.290   6.479 -0.2229 -0.2889  1.0486
   90MOL0     H12093   5.507  10.053   6.458 -0.7576 -0.1643 -0.9574
   90MOL0     H12094   5.365  10.073   6.361 -0.2547  0.7070  3.4425
   90MOL0     H12095   5.530  10.008   6.212 -1.2511  0.3428 -1.4826
   90MOL0     H12096   5.467  10.164   6.178  0.6537  0.2455  0.0349
   90MOL0     H12097   5.644  10.283   6.249  0.4101  0.4606 -4.0937
   90MOL0     H12098   5.677  10.166   6.131 -0.2058 -1.5237  0.9418
   90MOL0     H12099   5.864  10.162   6.297  2.0496 -3.5544 -0.5908
   90MOL0     H12100   5.746  10.104   6.409 -1.1191  0.6654 -0.0591
   90MOL0     H12101   5.904  10.018   6.066 -2.3618  0.6961 -0.5370
   90MOL0     H12102   5.959   9.622   6.048 -1.1121 -0.2365 -0.0654
   90MOL0     H12103   5.963   9.772   5.951 -0.9890  0.1735  0.2066
   90MOL0     H12104   6.181   9.814   6.108  1.9926 -1.6681  2.1355
   90MOL0     H12105   6.138   9.658   6.172  0.4790 -0.3064  0.7160
   90MOL0     H12106   6.151   9.584   5.918 -0.3391  1.6312 -2.0250
   90MOL0     H12107   6.292   9.590   6.041  0.4413  2.0908  1.0900
   90MOL0     H12108   6.384   9.782   5.923 -2.3450  1.9619  0.8433
   90MOL0     H12109   6.229   9.822   5.858  0.7412  1.3720 -0.4971
   90MOL0     H12110   6.508   9.595   5.934 -1.0594  0.6619 -1.4670
   90MOL0     H12111   6.721   9.459   5.874  2.3997 -1.2017 -2.5616
   90MOL0     H12112   7.038   9.205   5.603  4.0132 -3.3906  0.6231
   90MOL0     H12113   7.158   9.017   5.493 -0.5052  0.7401  0.8781
   90MOL0     H12114   6.956   8.767   5.177  2.3248 -3.5593  1.6771
   90MOL0     H12115   7.034   8.918   5.114 -0.9123  1.0413  1.4749
   90MOL0     H12116   7.176   8.684   5.222 -2.1769  1.4179  0.0530
   90MOL0     H12117   7.132   8.680   5.052 -0.1410 -2.0382  1.2206
   90MOL0     H12118   7.334   8.844   5.202  0.1662 -4.7664  1.1679
   90MOL0     H12119   7.361   8.743   5.065 -3.0743 -1.3445 -1.1546
   90MOL0     H12120   7.222   9.012   5.077 -1.5963 -0.7596 -0.0977
   90MOL0     H12121   7.205   8.914   4.928 -2.1836 -0.9266  0.9319
   90MOL0     H12122   7.374   9.039   4.866  0.3966 -0.6661 -1.1804
   90MOL0     H12123   7.475   8.905   4.934  0.6860  0.1803  0.2044
   90MOL0     H12124   7.401   9.141   5.090  1.4619  1.3454  1.9264
   90MOL0     H12125   7.485   9.002   5.153 -0.9707 -0.5511 -0.2629
   90MOL0     H12126   7.590   9.156   4.908  0.1798 -4.1362 -1.9008
   90MOL0     H12127   7.685   9.038   4.987  1.8090  2.1244  0.7385
   90MOL0     H12128   7.720   9.182   5.191  3.2120  2.1799 -0.2064
   90MOL0     H12129   7.769   9.246   5.032  2.1272 -0.6717  2.7959
   90MOL0     H12130   6.848   8.990   5.206  2.2475 -1.4020  0.7977
   90MOL0     H12131   6.734   9.178   5.290 -1.2322 -2.1894  0.9384
   90MOL0     H12132   6.605   9.466   5.463  1.0119  1.8212 -1.2559
   90MOL0     H12133   6.404   9.599   5.521 -0.1882  0.9667  1.6006
   90MOL0     H12134   5.507  10.347   7.055 -0.5813 -0.2069 -0.3917
   90MOL0     H12135   5.476  10.415   7.302 -0.5767  1.4700 -0.0028
   90MOL0     H12136   5.360  10.658   7.589 -0.2491  0.5246 -1.0781
   90MOL0     H12137   5.337  10.782   7.796  3.2524 -3.9554  0.0647
   90MOL0     H12138   5.150  10.970   7.944 -0.9438  1.5289  2.3410
   90MOL0     H12139   5.287  10.869   7.997 -0.6373  3.1695  0.3598
   90MOL0     H12140   5.049  10.953   8.165 -0.1548  0.5677 -0.4303
   90MOL0     H12141   5.216  11.002   8.165 -0.6675  0.6476 -2.4358
   90MOL0     H12142   5.102  10.736   8.264 -0.4067 -0.1480  0.2352
   90MOL0     H12143   5.174  10.872   8.351 -1.5196 -0.8187  0.3946
   90MOL0     H12144   5.322  10.648   8.303 -3.2194 -1.0332 -0.5636
   90MOL0     H12145   5.343  10.731   8.153 -0.6002  0.3701  0.9196
   90MOL0     H12146   5.592  10.942   8.415 -1.3250  3.8630 -1.3104
   90MOL0     H12147   4.937  10.643   7.852 -0.0584 -1.2027 -0.8655
   90MOL0     H12148   4.852  10.483   7.638 -3.3792  2.6230  2.7288
   90MOL0     H12149   4.830  10.657   7.615 -2.1733 -1.4075  2.5511
   90MOL0     H12150   4.903  10.561   7.483  2.8081 -0.0010  0.2889
   91MOL0     O12151   8.343   6.655  10.755 -0.3637  0.2975  0.8695
   91MOL0     C12152   8.464   6.653  10.731  0.6562  1.3259 -0.0435
   91MOL0     O12153   8.561   6.649  10.834  0.1267  0.7376 -0.9994
   91MOL0     C12154   8.502   6.631  10.956 -0.1854  0.2511 -0.4939
   91MOL0     C12155   8.550   6.528  11.034 -0.6151  0.2895 -1.0724
   91MOL0     C12156   8.510   6.511  11.165 -0.8255 -0.1596  0.4801
   91MOL0     C12157   8.426   6.598  11.227  0.4898 -0.4071  0.3221
   91MOL0     O12158   8.398   6.560  11.350  0.0639  0.1007  0.1949
   91MOL0     C12159   8.295   6.631  11.427 -1.1746  0.0193  0.7502
   91MOL0     C12160   8.300   6.583  11.570 -0.6741  0.3315  0.3260
   91MOL0     C12161   8.433   6.584  11.641 -0.7212 -0.4221  0.0392
   91MOL0     C12162   8.418   6.543  11.787  0.0589 -0.6182 -0.8711
   91MOL0     C12163   8.551   6.557  11.869  0.6742 -0.0328 -0.1175
   91MOL0     C12164   8.670   6.463  11.809  0.2538 -0.0814 -0.6649
   91MOL0     C12165   8.644   6.316  11.839  0.6999 -0.3479  0.9016
   91MOL0     C12166   8.770   6.238  11.814 -0.0797 -0.1701 -0.2281
   91MOL0     N12167   8.870   6.281  11.921  1.2828 -0.1605 -0.4076
   91MOL0     C12168   8.990   6.328  11.892 -0.4709 -0.1044  0.2504
   91MOL0     C12169   9.023   6.402  11.996  0.5076  0.3749 -0.2396
   91MOL0     C12170   9.147   6.487  12.013  1.5718  0.2936 -0.6239
   91MOL0     C12171   9.282   6.414  12.019  0.8424  0.1851 -0.1963
   91MOL0     C12172   9.395   6.515  12.018 -0.6528 -0.4858 -0.0919
   91MOL0     C12173   9.536   6.454  12.043 -0.8744  0.9563  0.2812
   91MOL0     O12174   9.636   6.557  12.074  0.4948  0.4473 -0.1078
   91MOL0     C12175   9.770   6.523  12.058  0.0644 -0.1988  0.0507
   91MOL0     C12176   9.816   6.392  12.046  0.3261 -0.2753  1.2041
   91MOL0     C12177   9.956   6.372  12.026  1.7690  0.5865 -0.4775
   91MOL0     C12178  10.045   6.474  12.054 -0.3835 -0.6827 -0.7773
   91MOL0     C12179  10.190   6.442  12.071 -0.5937  0.5833  0.3714
   91MOL0     O12180  10.270   6.549  12.095  0.2060 -0.2943 -0.2745
   91MOL0     C12181  10.407   6.556  12.078 -0.3429 -0.0035  0.3756
   91MOL0     C12182  10.486   6.659  12.144 -0.5672  0.2267  0.5730
   91MOL0     C12183  10.621   6.674  12.108  0.1200  0.0906  0.7599
   91MOL0     C12184  10.677   6.590  12.008 -0.1689  0.0735  0.0095
   91MOL0     O12185  10.811   6.595  11.971  0.2571 -0.7409 -0.6352
   91MOL0     C12186  10.880   6.718  11.992 -0.0445 -0.2217 -0.3107
   91MOL0     C12187  11.036   6.704  11.967  0.4390  0.1483  0.1842
   91MOL0     C12188  11.111   6.830  11.957 -0.4602 -0.5792 -0.2779
   91MOL0     C12189  11.242   6.819  11.886  0.7899 -0.6680  0.2433
   91MOL0     C12190  11.325   6.942  11.922  0.0273 -0.1235  0.2291
   91MOL0     C12191  11.463   6.957  11.859  0.1733 -0.4462 -0.4471
   91MOL0     C12192  11.461   6.955  11.706  0.1438 -0.6701  0.6015
   91MOL0     C12193  11.603   6.947  11.646  0.1611 -0.4318  1.5382
   91MOL0    Cl12194  11.699   7.093  11.680  0.0995 -0.0146  0.2038
   91MOL0     C12195  10.602   6.500  11.942 -0.7743  0.6326 -0.3162
   91MOL0     C12196  10.469   6.489  11.969 -0.0875 -0.3031 -0.0374
   91MOL0     O12197  10.232   6.318  12.064 -0.3346 -0.3002 -0.2163
   91MOL0     C12198   9.994   6.603  12.083 -0.6709 -0.1423  0.5711
   91MOL0     C12199   9.862   6.629  12.075 -0.0210  0.2394 -0.6353
   91MOL0     N12200   8.928   6.388  12.096  0.4345 -0.2972  0.2015
   91MOL0     N12201   8.835   6.314  12.045  0.9396 -0.2091 -0.6077
   91MOL0     C12202   8.383   6.705  11.151 -0.4485 -0.5206  0.5333
   91MOL0     C12203   8.414   6.722  11.016  0.3701  0.6951  0.2204
   91MOL0     C12204   8.518   6.630  10.605  0.3620  0.2893 -0.2041
   91MOL0     C12205   8.602   6.521  10.584  0.2651  0.3671  0.3763
   91MOL0     C12206   8.657   6.494  10.460  0.5293  0.3215 -0.3148
   91MOL0     C12207   8.650   6.594  10.362  0.7823 -0.4414 -0.0729
   91MOL0     O12208   8.704   6.591  10.233  0.3998 -0.5052  0.5788
   91MOL0     C12209   8.802   6.493  10.204  0.1820 -0.0910  1.0815
   91MOL0     C12210   8.745   6.359  10.176  0.5773  1.0445  0.2225
   91MOL0     C12211   8.748   6.326  10.016  0.5047  0.2178 -0.0581
   91MOL0     C12212   8.608   6.338   9.955 -0.6256  0.1191 -0.7704
   91MOL0     C12213   8.559   6.475   9.960  0.8741 -0.8924  0.1756
   91MOL0     C12214   8.499   6.581   9.959 -0.2169  0.1996 -0.4387
   91MOL0     C12215   8.563   6.704  10.375  0.1777  0.5818 -0.4097
   91MOL0     C12216   8.493   6.717  10.496 -0.4353 -0.1875 -0.0007
   91MOL0     C12217   8.394   6.824  10.518 -0.5368  0.1531  0.1101
   91MOL0     H12218   8.613   6.445  11.005 -1.6395 -0.7320 -0.4273
   91MOL0     H12219   8.539   6.423  11.222  2.8276  0.5538 -0.0312
   91MOL0     H12220   8.326   6.735  11.429 -0.5720 -0.1395  0.2009
   91MOL0     H12221   8.198   6.626  11.376 -1.0287  1.6717  0.2567
   91MOL0     H12222   8.268   6.479  11.576  4.0999 -1.3281  1.6985
   91MOL0     H12223   8.241   6.648  11.635  1.2472  0.9786  1.5137
   91MOL0     H12224   8.468   6.686  11.626 -2.1327  0.2842  1.4063
   91MOL0     H12225   8.504   6.522  11.584  1.1700  2.9542 -1.5517
   91MOL0     H12226   8.351   6.605  11.847  0.8295  0.1145 -0.7546
   91MOL0     H12227   8.385   6.438  11.788  0.4176 -0.7468  1.2682
   91MOL0     H12228   8.577   6.664  11.868 -0.7966  0.3504 -0.1156
   91MOL0     H12229   8.533   6.524  11.971  2.5432 -3.3651 -0.7166
   91MOL0     H12230   8.670   6.478  11.700 -0.6840 -0.4063 -0.7235
   91MOL0     H12231   8.764   6.503  11.847  0.6734 -1.7273  0.0893
   91MOL0     H12232   8.563   6.276  11.776 -1.1061 -0.0025  2.8954
   91MOL0     H12233   8.591   6.303  11.934 -1.7794 -5.1074 -0.7946
   91MOL0     H12234   8.748   6.131  11.827 -1.9495  0.1523 -0.5521
   91MOL0     H12235   8.818   6.253  11.717  0.3134 -1.1231 -0.1989
   91MOL0     H12236   9.050   6.325  11.802  0.8448  1.7290  1.0120
   91MOL0     H12237   9.140   6.564  11.936  0.0130  0.5642 -0.2435
   91MOL0     H12238   9.134   6.542  12.106  2.0983 -1.5932  0.6358
   91MOL0     H12239   9.284   6.346  12.106 -0.7175 -1.7033 -1.5482
   91MOL0     H12240   9.291   6.350  11.931  1.1934 -1.6054  1.0675
   91MOL0     H12241   9.377   6.580  12.104  1.4603  1.7597 -1.2130
   91MOL0     H12242   9.384   6.578  11.929 -2.9573  0.4063  0.7680
   91MOL0     H12243   9.567   6.408  11.948 -1.3441  1.9694 -0.3775
   91MOL0     H12244   9.543   6.388  12.130 -0.9963  1.1187  0.4132
   91MOL0     H12245   9.750   6.307  12.030  0.6686 -0.9789  3.1848
   91MOL0     H12246   9.993   6.275  11.994  2.9231  0.8293  0.0723
   91MOL0     H12247  10.437   6.712  12.225 -1.6657 -0.1345  0.1557
   91MOL0     H12248  10.677   6.755  12.153  2.1639 -1.6827  1.5496
   91MOL0     H12249  10.834   6.787  11.921  1.6053 -0.1286 -1.3442
   91MOL0     H12250  10.867   6.736  12.099  5.2881 -0.1877  0.5970
   91MOL0     H12251  11.084   6.640  12.042 -0.6850  0.0510  0.8546
   91MOL0     H12252  11.049   6.651  11.872  1.2669  2.3553 -1.0118
   91MOL0     H12253  11.046   6.907  11.914 -0.4602 -0.2332  0.3298
   91MOL0     H12254  11.135   6.865  12.058  0.8972 -2.4103  0.0849
   91MOL0     H12255  11.230   6.808  11.778  0.3969  2.4708 -0.1317
   91MOL0     H12256  11.289   6.730  11.928  1.0388  0.3409  2.1972
   91MOL0     H12257  11.346   6.936  12.029 -0.7931 -0.1910  0.3882
   91MOL0     H12258  11.267   7.032  11.902 -0.0605  0.3300  2.3198
   91MOL0     H12259  11.506   7.049  11.900 -2.0407  0.4730 -0.0535
   91MOL0     H12260  11.532   6.877  11.887 -0.5135 -2.2615 -3.4538
   91MOL0     H12261  11.411   7.046  11.674 -0.7957 -1.7856 -1.2414
   91MOL0     H12262  11.413   6.866  11.663 -0.9622  0.4813 -0.6104
   91MOL0     H12263  11.653   6.859  11.688 -0.6714 -2.7519 -1.8621
   91MOL0     H12264  11.593   6.928  11.539 -1.2196 -0.9090  1.7297
   91MOL0     H12265  10.642   6.430  11.869 -0.7522 -0.6352  0.8690
   91MOL0     H12266  10.420   6.417  11.903  0.7332 -0.4686 -0.4722
   91MOL0     H12267  10.062   6.685  12.102 -0.1034 -1.0308  2.6344
   91MOL0     H12268   9.828   6.732  12.085  0.1136  0.2351 -0.1382
   91MOL0     H12269   8.326   6.781  11.203  0.5810 -0.1172  1.0854
   91MOL0     H12270   8.368   6.800  10.956 -1.2623 -1.0706 -0.9434
   91MOL0     H12271   8.608   6.455  10.670 -4.1941 -1.9484 -0.7814
   91MOL0     H12272   8.717   6.405  10.444  1.3525  0.8081  0.0183
   91MOL0     H12273   8.858   6.476  10.296 -0.0971 -1.0421  1.0798
   91MOL0     H12274   8.872   6.526  10.126 -2.2240  1.6335 -0.5218
   91MOL0     H12275   8.648   6.359  10.226  1.7741  2.3905  2.6815
   91MOL0     H12276   8.805   6.280  10.222  0.4189 -0.1921 -1.5949
   91MOL0     H12277   8.782   6.225   9.989  0.2940  0.5343 -1.5955
   91MOL0     H12278   8.821   6.393   9.970 -0.9773  0.4475 -2.1782
   91MOL0     H12279   8.607   6.301   9.852 -0.8093 -0.4910 -0.5557
   91MOL0     H12280   8.548   6.268  10.014  1.9617 -1.9650 -0.4093
   91MOL0     H12281   8.463   6.682   9.971 -0.1248  0.1556  0.3039
   91MOL0     H12282   8.546   6.767  10.288 -0.7115 -3.2338 -3.3440
   91MOL0     H12283   8.391   6.885  10.427  0.6880  0.0080 -0.0315
   91MOL0     H12284   8.298   6.775  10.537  1.3164 -3.0458  1.9683
   91MOL0     H12285   8.431   6.875  10.607 -0.6829  0.1102  0.1960
   92MOL0     O12286   8.712   2.667   3.877 -0.9685  0.6604  0.2957
   92MOL0     C12287   8.699   2.788   3.866  0.3491  0.4745 -0.9391
   92MOL0     O12288   8.802   2.877   3.887  0.0191  0.0466  0.1410
   92MOL0     C12289   8.908   2.830   3.959  0.1850  0.4111  1.1674
   92MOL0     C12290   9.010   2.771   3.877 -0.5944  0.6913 -0.5541
   92MOL0     C12291   9.142   2.761   3.931 -0.2536  0.0315  0.4451
   92MOL0     C12292   9.158   2.772   4.068  0.1895 -0.4989 -0.3464
   92MOL0     O12293   9.290   2.765   4.115 -0.6012  0.4694  0.1276
   92MOL0     C12294   9.321   2.804   4.250  0.7266 -0.2648 -0.1463
   92MOL0     C12295   9.470   2.836   4.240 -0.0428 -0.5167  0.5761
   92MOL0     C12296   9.529   2.867   4.376 -0.0062 -1.1445  0.0778
   92MOL0     C12297   9.505   2.755   4.479 -0.6299 -0.6673 -0.0055
   92MOL0     C12298   9.616   2.760   4.577  0.5454  0.3526 -0.3023
   92MOL0     C12299   9.607   2.663   4.692 -0.6072  0.5821 -0.3875
   92MOL0     C12300   9.544   2.529   4.664 -0.7718  1.2286  1.1978
   92MOL0     C12301   9.562   2.441   4.788  0.5137  0.0977 -0.2468
   92MOL0     N12302   9.475   2.496   4.896  0.3172 -0.2651 -0.5456
   92MOL0     C12303   9.519   2.580   5.003 -0.3056  0.1836 -0.0385
   92MOL0     C12304   9.411   2.585   5.087  0.4790 -0.5890 -0.5011
   92MOL0     C12305   9.399   2.660   5.216 -0.0026 -0.2778 -0.1416
   92MOL0     C12306   9.393   2.809   5.196 -0.2267  0.4609 -0.4460
   92MOL0     C12307   9.350   2.878   5.321 -0.3264 -0.5614 -0.4409
   92MOL0     C12308   9.295   3.015   5.282 -0.7949 -0.2949  0.5475
   92MOL0     O12309   9.285   3.096   5.397  0.3511  0.3295  0.3427
   92MOL0     C12310   9.154   3.115   5.445 -0.3452  0.3378  0.0487
   92MOL0     C12311   9.125   3.254   5.468  0.4920 -0.7068  0.2575
   92MOL0     C12312   8.993   3.288   5.508 -0.2093  0.4291 -0.3282
   92MOL0     C12313   8.893   3.193   5.515 -0.5598 -0.9486  0.0340
   92MOL0     C12314   8.746   3.226   5.544 -0.4005  0.4536 -0.3543
   92MOL0     O12315   8.672   3.120   5.587  0.9860  0.2279  0.3489
   92MOL0     C12316   8.532   3.148   5.586 -0.9068 -0.3400  0.1069
   92MOL0     C12317   8.452   3.037   5.562  0.4243 -0.5846  0.2864
   92MOL0     C12318   8.313   3.040   5.560  0.3997 -0.4198 -0.4194
   92MOL0     C12319   8.248   3.168   5.576  0.6352  0.3103  0.4745
   92MOL0     O12320   8.110   3.192   5.560  0.4822  0.0818  0.0943
   92MOL0     C12321   8.030   3.084   5.500  0.3327 -0.3336 -0.4678
   92MOL0     C12322   7.988   2.979   5.616 -0.1412 -1.0177  0.3981
   92MOL0     C12323   7.966   2.844   5.561 -1.0650 -0.3210 -0.9036
   92MOL0     C12324   7.969   2.736   5.672 -0.0242  0.3373 -0.5357
   92MOL0     C12325   7.847   2.734   5.764  0.8998  0.1651 -0.5218
   92MOL0     C12326   7.828   2.611   5.853  0.3272 -0.1095 -0.1775
   92MOL0     C12327   7.710   2.621   5.934  0.3099  0.1551  0.1267
   92MOL0     C12328   7.705   2.525   6.049  0.1712 -0.5803  0.6172
   92MOL0    Cl12329   7.734   2.356   5.978 -0.2749 -0.0653  0.2170
   92MOL0     C12330   8.322   3.277   5.605  0.3484  0.2917  0.1275
   92MOL0     C12331   8.462   3.265   5.622 -0.0126  0.0045 -0.3205
   92MOL0     O12332   8.713   3.335   5.515 -0.8030 -0.8206 -0.1503
   92MOL0     C12333   8.931   3.056   5.494 -0.1768 -0.0078 -0.0557
   92MOL0     C12334   9.055   3.019   5.454 -0.6824  0.1941  0.0043
   92MOL0     N12335   9.302   2.516   5.028 -0.0822  0.5588 -0.6591
   92MOL0     N12336   9.341   2.470   4.913  0.7501  0.3456  0.7555
   92MOL0     C12337   9.047   2.820   4.151 -1.1338  0.7306  0.1931
   92MOL0     C12338   8.925   2.850   4.095 -0.6186 -0.2797 -0.1523
   92MOL0     C12339   8.575   2.843   3.805  0.2365 -0.4198  0.1109
   92MOL0     C12340   8.557   2.982   3.807 -0.1199 -0.1817 -0.4355
   92MOL0     C12341   8.450   3.040   3.751 -0.5955 -0.4277 -0.1123
   92MOL0     C12342   8.343   2.967   3.698 -0.1522  0.8747 -0.1219
   92MOL0     O12343   8.223   3.024   3.691 -0.2655 -0.8956 -0.2510
   92MOL0     C12344   8.191   3.051   3.551 -0.6562 -0.0246 -1.1874
   92MOL0     C12345   8.032   3.040   3.527 -0.0870 -0.4100  0.4041
   92MOL0     C12346   7.962   3.116   3.633  0.2415  0.0063  0.6026
   92MOL0     C12347   7.815   3.088   3.605  0.7175  0.0267 -1.3530
   92MOL0     C12348   7.722   3.154   3.712 -0.2440  0.4234  0.2350
   92MOL0     C12349   7.634   3.191   3.781 -1.2625 -0.5886 -0.5669
   92MOL0     C12350   8.353   2.829   3.695 -0.4202 -0.7091 -1.7014
   92MOL0     C12351   8.471   2.765   3.745  0.3171 -0.1692  1.2459
   92MOL0     C12352   8.460   2.622   3.747 -1.4049 -0.2511  0.4569
   92MOL0     H12353   9.000   2.745   3.772  0.3875 -0.9704 -0.2795
   92MOL0     H12354   9.226   2.727   3.871 -2.2538 -1.9149 -1.4503
   92MOL0     H12355   9.270   2.897   4.275  2.1449  1.4497 -3.1244
   92MOL0     H12356   9.285   2.738   4.330 -2.4433  0.2189 -1.0352
   92MOL0     H12357   9.487   2.926   4.180  1.0992 -0.7596  0.5137
   92MOL0     H12358   9.520   2.747   4.199 -0.3706 -0.0444 -0.9292
   92MOL0     H12359   9.488   2.964   4.408 -3.6195 -1.6617 -2.4094
   92MOL0     H12360   9.637   2.885   4.372  0.0317 -0.9459  1.3881
   92MOL0     H12361   9.420   2.791   4.538 -0.8632  0.8170 -1.2221
   92MOL0     H12362   9.481   2.654   4.442 -0.0063 -0.9812  0.4275
   92MOL0     H12363   9.711   2.735   4.528  0.9604  1.9158 -0.3336
   92MOL0     H12364   9.627   2.864   4.609 -0.4342  0.8052 -1.3885
   92MOL0     H12365   9.706   2.650   4.737 -1.2685  2.0805  1.6391
   92MOL0     H12366   9.552   2.703   4.778 -1.2963 -0.7764 -0.1594
   92MOL0     H12367   9.600   2.486   4.580 -3.8301  1.7777 -1.3302
   92MOL0     H12368   9.442   2.530   4.624 -0.7188  0.8456  1.0450
   92MOL0     H12369   9.515   2.346   4.758  0.6866 -0.1802  0.3558
   92MOL0     H12370   9.666   2.434   4.819 -0.2022 -2.8810  1.9327
   92MOL0     H12371   9.617   2.624   5.017 -0.6587  0.4697  1.7291
   92MOL0     H12372   9.316   2.617   5.273 -0.2564  0.9385  0.4413
   92MOL0     H12373   9.493   2.635   5.267 -0.0908 -0.1632  0.0807
   92MOL0     H12374   9.490   2.848   5.163  0.1039  3.2471  3.2231
   92MOL0     H12375   9.311   2.830   5.126  0.6612 -1.6749 -2.2503
   92MOL0     H12376   9.437   2.889   5.387  0.4199  0.5334 -1.5566
   92MOL0     H12377   9.275   2.824   5.379 -0.1763  2.8630  3.4381
   92MOL0     H12378   9.196   3.006   5.235  0.0366 -0.6848 -1.2479
   92MOL0     H12379   9.357   3.056   5.202 -1.8699 -1.7548 -1.1293
   92MOL0     H12380   9.194   3.337   5.462 -2.6544  2.1559  0.5111
   92MOL0     H12381   8.964   3.389   5.536 -2.6265 -0.9672  2.9223
   92MOL0     H12382   8.509   2.945   5.548  0.7186 -0.5275  1.0376
   92MOL0     H12383   8.255   2.948   5.559  1.9547 -1.4778  1.0157
   92MOL0     H12384   7.942   3.118   5.444 -0.0098 -2.0444 -1.0384
   92MOL0     H12385   8.089   3.033   5.423 -0.1372 -1.1049 -0.3254
   92MOL0     H12386   8.064   2.981   5.695  0.2621 -0.0173  0.0001
   92MOL0     H12387   7.899   3.024   5.660  1.0740  1.2455  0.7094
   92MOL0     H12388   7.869   2.851   5.510 -0.0474 -1.7134 -3.1796
   92MOL0     H12389   8.049   2.816   5.496 -0.7139  1.4931 -1.2866
   92MOL0     H12390   8.056   2.757   5.735 -0.8953  0.5350  0.6403
   92MOL0     H12391   7.978   2.640   5.621  0.1300  0.3173 -0.4735
   92MOL0     H12392   7.769   2.752   5.690  0.9430  1.5322 -0.2613
   92MOL0     H12393   7.857   2.818   5.833  4.3047  0.7700 -1.5497
   92MOL0     H12394   7.820   2.523   5.788  0.6611 -1.1309  1.1128
   92MOL0     H12395   7.918   2.592   5.912  1.1565  2.5045 -0.4485
   92MOL0     H12396   7.618   2.594   5.882  0.2585  0.2202  0.1830
   92MOL0     H12397   7.694   2.721   5.976 -2.2617 -0.5439  0.9780
   92MOL0     H12398   7.789   2.560   6.111 -2.2495  0.3027  3.6358
   92MOL0     H12399   7.608   2.536   6.097  1.0202  0.2954  2.2452
   92MOL0     H12400   8.271   3.372   5.605  1.4250  0.8879 -0.2078
   92MOL0     H12401   8.519   3.355   5.644  1.4148 -1.4969  2.6411
   92MOL0     H12402   8.859   2.977   5.510 -0.7857 -0.1736 -3.1154
   92MOL0     H12403   9.070   2.912   5.441 -4.1159 -0.0378 -3.9477
   92MOL0     H12404   9.060   2.848   4.255  1.2693 -2.0868  0.7905
   92MOL0     H12405   8.839   2.888   4.147 -1.0166  0.6646 -1.4417
   92MOL0     H12406   8.634   3.034   3.864  3.0636 -2.7573 -2.0997
   92MOL0     H12407   8.432   3.146   3.758  0.1427 -0.3281  0.3200
   92MOL0     H12408   8.234   2.981   3.479 -0.5398 -2.6429  1.2518
   92MOL0     H12409   8.223   3.154   3.532 -0.9309  0.6808  1.6433
   92MOL0     H12410   7.996   2.937   3.526  1.7586 -1.3095  4.4135
   92MOL0     H12411   8.014   3.074   3.425 -2.4058 -1.4504  0.4070
   92MOL0     H12412   8.001   3.219   3.628  6.4383 -1.7973  2.9959
   92MOL0     H12413   7.984   3.073   3.731  3.2900 -1.0663 -0.4357
   92MOL0     H12414   7.791   3.130   3.506  0.0381  0.9642 -0.8089
   92MOL0     H12415   7.788   2.982   3.612 -2.1146  0.6888 -0.8594
   92MOL0     H12416   7.565   3.207   3.862  1.7905 -0.3753  2.2352
   92MOL0     H12417   8.264   2.780   3.657 -1.7540  3.5247 -4.7222
   92MOL0     H12418   8.382   2.587   3.678 -1.0791  0.0161 -0.0521
   92MOL0     H12419   8.554   2.574   3.719 -2.6011 -1.9062 -1.0006
   92MOL0     H12420   8.435   2.580   3.845 -1.6600  1.5254  1.1956
   93MOL0     O12421   5.522   0.960   1.950  0.2117  0.9930  0.2111
   93MOL0     C12422   5.503   1.000   2.067  0.2742  0.3943 -0.2272
   93MOL0     O12423   5.578   0.962   2.181 -0.5351  0.5473 -0.3294
   93MOL0     C12424   5.666   0.860   2.155  0.3480  0.0925 -0.7260
   93MOL0     C12425   5.639   0.726   2.177  0.1739 -0.0203  0.5215
   93MOL0     C12426   5.725   0.623   2.122  0.5568 -0.8996 -0.1535
   93MOL0     C12427   5.841   0.661   2.053 -0.0404  0.2749 -0.6129
   93MOL0     O12428   5.932   0.564   2.020  0.7025 -0.6444  0.8820
   93MOL0     C12429   6.051   0.596   1.946  0.1970 -0.6995  0.0764
   93MOL0     C12430   6.117   0.463   1.902 -0.0496  0.2480  0.4498
   93MOL0     C12431   6.131   0.372   2.021  0.6238  0.2687 -0.8288
   93MOL0     C12432   6.231   0.266   1.965 -0.2279  0.0973  0.3288
   93MOL0     C12433   6.250   0.160   2.066 -1.0089 -0.1772 -0.0460
   93MOL0     C12434   6.310   0.045   1.986 -0.0818  0.1980 -0.1957
   93MOL0     C12435   6.282  -0.088   2.060  0.2662  0.6949  0.4529
   93MOL0     C12436   6.362  -0.088   2.189  0.6442  0.8194  0.4856
   93MOL0     N12437   6.338  -0.212   2.272 -0.1860 -0.0415  0.5798
   93MOL0     C12438   6.425  -0.319   2.276 -0.1690  1.6120 -0.4232
   93MOL0     C12439   6.379  -0.404   2.375  0.4329  0.2818 -0.2388
   93MOL0     C12440   6.438  -0.532   2.436  0.0729  0.6050  0.1147
   93MOL0     C12441   6.379  -0.660   2.365  0.5571 -1.0522  0.7030
   93MOL0     C12442   6.471  -0.712   2.250 -0.8670 -0.1586 -0.1802
   93MOL0     C12443   6.440  -0.836   2.185 -0.3281  1.1039  0.0942
   93MOL0     O12444   6.443  -0.934   2.285 -0.1503 -0.1107 -0.6281
   93MOL0     C12445   6.563  -0.992   2.327  1.1925  0.0813  0.0556
   93MOL0     C12446   6.675  -1.028   2.245 -0.2621 -0.1016 -1.1876
   93MOL0     C12447   6.776  -1.100   2.299  0.2052 -0.2716  0.0823
   93MOL0     C12448   6.788  -1.124   2.432 -0.1110 -0.9105 -0.6473
   93MOL0     C12449   6.894  -1.190   2.501 -0.4088  0.0693  1.6884
   93MOL0     O12450   6.956  -1.292   2.423 -0.4128 -0.4164  0.3375
   93MOL0     C12451   7.065  -1.362   2.451 -0.1950 -0.5389  0.3851
   93MOL0     C12452   7.107  -1.442   2.354 -0.2330  0.1303  0.3943
   93MOL0     C12453   7.229  -1.524   2.375 -0.2598  0.2767 -0.5861
   93MOL0     C12454   7.307  -1.512   2.486 -0.7611  0.0930 -0.0347
   93MOL0     O12455   7.430  -1.576   2.497  0.5902  0.0384 -0.7513
   93MOL0     C12456   7.420  -1.717   2.525 -0.3647  0.3343  0.1961
   93MOL0     C12457   7.542  -1.759   2.617  0.8770  0.6719  0.3982
   93MOL0     C12458   7.574  -1.904   2.588  0.6856  0.5258  0.4764
   93MOL0     C12459   7.652  -1.962   2.713  0.5394  0.4588  0.4754
   93MOL0     C12460   7.679  -2.115   2.716 -0.0994  0.3863  0.1852
   93MOL0     C12461   7.746  -2.150   2.842 -0.7259 -0.1184 -0.4672
   93MOL0     C12462   7.787  -2.298   2.854 -0.4790  0.2482  1.1685
   93MOL0     C12463   7.852  -2.326   2.992  0.4194  0.2567  0.5140
   93MOL0    Cl12464   7.887  -2.509   2.994  0.2248 -0.2324  0.5180
   93MOL0     C12465   7.261  -1.423   2.577  1.1080  0.0721  0.2034
   93MOL0     C12466   7.149  -1.346   2.560  0.7088 -0.4902 -0.9235
   93MOL0     O12467   6.913  -1.173   2.617 -0.1393  0.1330  0.2093
   93MOL0     C12468   6.686  -1.073   2.519  0.6187 -0.1395  0.2619
   93MOL0     C12469   6.572  -1.012   2.462 -0.3447  0.2075 -0.4690
   93MOL0     N12470   6.264  -0.347   2.429 -0.2188  0.2840  0.1354
   93MOL0     N12471   6.247  -0.229   2.376  0.1384 -0.5629 -0.9514
   93MOL0     C12472   5.869   0.798   2.042 -0.1765  0.2539  0.0114
   93MOL0     C12473   5.788   0.898   2.090  0.5150  0.1000 -1.0185
   93MOL0     C12474   5.385   1.094   2.091 -0.2152 -0.5542 -1.0073
   93MOL0     C12475   5.296   1.072   2.198  1.1141  0.0056  1.4329
   93MOL0     C12476   5.183   1.154   2.219 -0.2445  0.4082  0.3262
   93MOL0     C12477   5.150   1.258   2.137  0.2791 -0.8061  0.1937
   93MOL0     O12478   5.046   1.335   2.175 -0.2480 -0.3517  0.4281
   93MOL0     C12479   4.987   1.418   2.070 -0.6812 -0.6013 -0.1737
   93MOL0     C12480   4.851   1.455   2.134  0.4701  0.4138  0.1788
   93MOL0     C12481   4.759   1.333   2.147 -0.2677  0.8781  0.0987
   93MOL0     C12482   4.613   1.363   2.183 -0.3969 -0.4599  1.3163
   93MOL0     C12483   4.534   1.241   2.158  0.3537 -0.1967  0.8009
   93MOL0     C12484   4.450   1.161   2.129  0.0812  0.3200 -0.0050
   93MOL0     C12485   5.245   1.282   2.034 -0.4172 -0.0362 -0.1425
   93MOL0     C12486   5.356   1.203   2.002 -0.5186  0.1494 -0.5256
   93MOL0     C12487   5.448   1.247   1.893 -0.7330 -0.4164  0.0662
   93MOL0     H12488   5.557   0.700   2.243  0.2863 -0.1694  0.6044
   93MOL0     H12489   5.722   0.516   2.139  3.4074 -1.2159 -1.1309
   93MOL0     H12490   6.036   0.651   1.853 -0.6766  2.7302  2.0500
   93MOL0     H12491   6.120   0.655   2.008 -0.4892  2.4741 -1.9341
   93MOL0     H12492   6.210   0.494   1.852 -1.1252  0.6391 -1.3976
   93MOL0     H12493   6.057   0.415   1.825  0.7112  2.1475 -1.4470
   93MOL0     H12494   6.036   0.330   2.055  2.9613 -1.9066  3.9622
   93MOL0     H12495   6.178   0.418   2.109 -0.5926 -0.7666  0.4030
   93MOL0     H12496   6.189   0.221   1.875 -0.6449  0.0208  0.5607
   93MOL0     H12497   6.331   0.309   1.955  0.7002 -1.9704  0.3112
   93MOL0     H12498   6.305   0.198   2.152 -4.2055  0.5016  1.8405
   93MOL0     H12499   6.153   0.126   2.103 -0.7072  0.5896  1.5241
   93MOL0     H12500   6.269   0.038   1.885 -1.5973 -0.8950  0.4613
   93MOL0     H12501   6.419   0.056   1.988  0.0170 -0.3195  3.0970
   93MOL0     H12502   6.328  -0.159   1.990  1.0294 -0.4561  2.0577
   93MOL0     H12503   6.174  -0.099   2.074  0.0707  1.1551 -0.5935
   93MOL0     H12504   6.468  -0.062   2.179  0.5478  1.3126  0.7055
   93MOL0     H12505   6.315  -0.016   2.257  0.0275 -0.7267  1.7769
   93MOL0     H12506   6.520  -0.320   2.223 -0.2527 -0.5928 -0.5951
   93MOL0     H12507   6.547  -0.542   2.426 -0.0379  0.3632 -0.9590
   93MOL0     H12508   6.410  -0.533   2.542 -0.3228  0.7999  0.0124
   93MOL0     H12509   6.352  -0.735   2.440 -0.1694 -1.8519 -0.3234
   93MOL0     H12510   6.282  -0.630   2.324  1.0127  0.0416  0.4012
   93MOL0     H12511   6.569  -0.727   2.297 -1.0197 -3.1433 -0.5913
   93MOL0     H12512   6.475  -0.632   2.175  1.6883  0.2982  0.3285
   93MOL0     H12513   6.511  -0.856   2.105 -0.2422  1.5901  0.0462
   93MOL0     H12514   6.338  -0.839   2.146 -0.2460 -0.3633 -0.0590
   93MOL0     H12515   6.671  -1.009   2.138  1.0521  0.7401 -1.1064
   93MOL0     H12516   6.851  -1.136   2.229  0.3499  2.8129 -1.5198
   93MOL0     H12517   7.062  -1.459   2.256 -1.1290 -0.2936  0.8676
   93MOL0     H12518   7.272  -1.578   2.291  2.7125  1.2589  0.2094
   93MOL0     H12519   7.329  -1.745   2.578 -0.2343  1.6860  1.2081
   93MOL0     H12520   7.426  -1.785   2.440 -0.8889  0.1780  0.2836
   93MOL0     H12521   7.622  -1.686   2.601 -1.3204  2.7609 -2.0155
   93MOL0     H12522   7.499  -1.735   2.715 -2.6119  4.2488 -1.7117
   93MOL0     H12523   7.478  -1.955   2.579  1.4367 -1.0629  1.1543
   93MOL0     H12524   7.629  -1.913   2.494 -1.8078  0.5116 -1.0551
   93MOL0     H12525   7.580  -1.940   2.792 -0.3532  2.2043 -0.7431
   93MOL0     H12526   7.745  -1.912   2.742  0.4181 -0.0628  1.8153
   93MOL0     H12527   7.734  -2.147   2.627  2.0044  1.0005  1.2012
   93MOL0     H12528   7.578  -2.157   2.709 -0.7532  2.0467 -1.0630
   93MOL0     H12529   7.845  -2.105   2.855 -0.9682 -0.0894  1.6774
   93MOL0     H12530   7.688  -2.123   2.931  1.0798  0.4286  0.5888
   93MOL0     H12531   7.846  -2.333   2.768 -0.1734 -2.1009  2.2638
   93MOL0     H12532   7.694  -2.354   2.856 -0.9909  0.5563 -3.4786
   93MOL0     H12533   7.947  -2.271   2.989  3.1852 -4.0409 -0.0131
   93MOL0     H12534   7.783  -2.297   3.070  0.2216 -0.9215  0.7984
   93MOL0     H12535   7.319  -1.408   2.667 -1.5986 -0.3002  2.1318
   93MOL0     H12536   7.113  -1.296   2.650 -0.8510 -1.6075 -0.8872
   93MOL0     H12537   6.693  -1.083   2.627  1.7997 -2.3711  0.0399
   93MOL0     H12538   6.485  -0.981   2.520  0.7718  0.6543  1.0194
   93MOL0     H12539   5.963   0.822   1.994 -1.1218  0.1831 -1.9372
   93MOL0     H12540   5.823   1.000   2.080  0.1153  0.2514 -0.8793
   93MOL0     H12541   5.306   0.974   2.244  2.6939 -0.9256 -0.7403
   93MOL0     H12542   5.105   1.123   2.288  0.3721  2.7717  2.2138
   93MOL0     H12543   4.989   1.366   1.974 -0.0310  1.6247 -1.4460
   93MOL0     H12544   5.048   1.506   2.046  0.0954 -1.8152 -3.0831
   93MOL0     H12545   4.811   1.538   2.074  1.7296  2.3487  1.8684
   93MOL0     H12546   4.873   1.512   2.225  1.5151  0.2852  0.0230
   93MOL0     H12547   4.796   1.259   2.219  3.2983  0.5583 -1.8852
   93MOL0     H12548   4.768   1.269   2.059  2.7891  0.9724  0.2619
   93MOL0     H12549   4.613   1.393   2.288 -1.3432  1.2158  0.8724
   93MOL0     H12550   4.569   1.450   2.133  0.0184 -0.5597  0.7640
   93MOL0     H12551   4.366   1.098   2.111  0.9716 -0.4599 -1.6630
   93MOL0     H12552   5.223   1.373   1.979  0.6598  0.1116 -0.3499
   93MOL0     H12553   5.531   1.178   1.874  0.5082  1.1384 -0.2594
   93MOL0     H12554   5.402   1.279   1.799 -0.2443  1.5561  0.4668
   93MOL0     H12555   5.509   1.331   1.924  1.4362 -2.1354  0.7233
   94MOL0     O12556   6.689   3.488   5.256 -0.9278 -0.7902 -1.2561
   94MOL0     C12557   6.721   3.602   5.216 -0.0202  0.1428 -0.1772
   94MOL0     O12558   6.654   3.713   5.237  0.4592 -0.1139 -0.0676
   94MOL0     C12559   6.530   3.709   5.297 -0.3526 -0.1354  0.5032
   94MOL0     C12560   6.403   3.648   5.238  0.7845  0.1170 -0.6257
   94MOL0     C12561   6.291   3.663   5.324 -0.4637 -0.3655  0.0595
   94MOL0     C12562   6.288   3.716   5.448  0.2825  0.6539 -1.1171
   94MOL0     O12563   6.167   3.717   5.504  0.2479  0.0572 -0.9123
   94MOL0     C12564   6.129   3.833   5.587 -0.4800 -0.2988  0.0510
   94MOL0     C12565   5.992   3.808   5.647  0.1983  0.4283  0.5342
   94MOL0     C12566   5.952   3.899   5.769  0.7606  1.3297  0.4899
   94MOL0     C12567   6.031   3.856   5.900  0.4429  0.2544  0.7696
   94MOL0     C12568   5.948   3.895   6.020 -0.0030  0.9286 -0.2967
   94MOL0     C12569   6.021   3.854   6.149 -1.0661  0.6414  0.6251
   94MOL0     C12570   5.915   3.879   6.257  0.1804  0.6198  0.1890
   94MOL0     C12571   5.986   3.882   6.390  0.2568 -0.3025 -0.2445
   94MOL0     N12572   6.006   3.747   6.454  0.4821  0.0162 -0.7084
   94MOL0     C12573   6.130   3.685   6.470 -0.4831 -0.1699 -0.0919
   94MOL0     C12574   6.108   3.572   6.544  0.1271 -0.6535  0.1448
   94MOL0     C12575   6.222   3.485   6.582 -0.2563 -0.0640  0.1345
   94MOL0     C12576   6.212   3.352   6.521 -0.3295  0.6923  0.1431
   94MOL0     C12577   6.212   3.329   6.364  0.4025  0.1386 -0.0820
   94MOL0     C12578   6.337   3.361   6.286  0.3284 -0.6860 -0.5990
   94MOL0     O12579   6.368   3.500   6.290  0.1255  0.3921  0.1851
   94MOL0     C12580   6.462   3.546   6.194 -0.9758 -0.3193  0.7577
   94MOL0     C12581   6.578   3.469   6.144  0.3347 -0.1512 -0.5665
   94MOL0     C12582   6.669   3.527   6.052 -1.0949  0.2509 -0.0441
   94MOL0     C12583   6.646   3.658   6.003  0.0501 -0.7161 -0.2776
   94MOL0     C12584   6.706   3.714   5.880 -0.8393  0.5878 -0.1399
   94MOL0     O12585   6.841   3.680   5.867 -0.4971 -0.6120 -0.6235
   94MOL0     C12586   6.906   3.694   5.750 -0.4144  0.6221  1.5932
   94MOL0     C12587   7.038   3.734   5.769  0.2570  0.5681 -0.1577
   94MOL0     C12588   7.128   3.730   5.664 -0.3404 -0.2058 -0.0239
   94MOL0     C12589   7.093   3.704   5.534 -0.6779 -0.2381 -0.9027
   94MOL0     O12590   7.193   3.727   5.442  0.4532 -0.3081 -0.1648
   94MOL0     C12591   7.234   3.632   5.348  0.3315  0.2261  0.2692
   94MOL0     C12592   7.383   3.650   5.324 -0.0966  0.1613  0.1946
   94MOL0     C12593   7.473   3.642   5.441 -0.0809  0.0456 -0.2833
   94MOL0     C12594   7.629   3.662   5.418 -0.6548 -0.4814  0.2356
   94MOL0     C12595   7.719   3.620   5.538  0.1653  0.3177  0.1159
   94MOL0     C12596   7.865   3.680   5.536 -0.3070 -0.5413  0.2546
   94MOL0     C12597   7.942   3.649   5.677 -0.0951 -0.1370 -0.2201
   94MOL0     C12598   7.961   3.497   5.692  0.3625 -0.5422 -0.3327
   94MOL0    Cl12599   8.075   3.449   5.834 -0.0918 -0.3232 -0.4460
   94MOL0     C12600   6.961   3.670   5.510  0.4867  0.7292 -0.4010
   94MOL0     C12601   6.865   3.664   5.611 -0.4847  0.0830 -0.2256
   94MOL0     O12602   6.637   3.772   5.802  1.1046 -0.2182  0.7883
   94MOL0     C12603   6.541   3.739   6.063 -0.2976  0.1976  0.3344
   94MOL0     C12604   6.448   3.681   6.150  0.2362  0.4810 -0.5705
   94MOL0     N12605   5.973   3.577   6.578  0.2858 -0.3163  0.7462
   94MOL0     N12606   5.909   3.681   6.532  0.1809 -0.7012  0.0002
   94MOL0     C12607   6.410   3.766   5.499 -0.6582 -0.3308  0.7387
   94MOL0     C12608   6.528   3.764   5.425 -0.2025 -0.3920  1.1079
   94MOL0     C12609   6.848   3.615   5.141  0.3206 -0.0394  0.2459
   94MOL0     C12610   6.927   3.502   5.125  0.0166  0.1885 -0.7366
   94MOL0     C12611   7.031   3.494   5.039 -0.5256  0.8983 -0.0808
   94MOL0     C12612   7.072   3.609   4.974  0.0343 -0.1865 -0.4360
   94MOL0     O12613   7.175   3.587   4.894  0.4507  0.1951  0.3898
   94MOL0     C12614   7.251   3.709   4.841 -0.3800  0.5560  0.2410
   94MOL0     C12615   7.380   3.747   4.925  0.0740  0.5668  0.3097
   94MOL0     C12616   7.449   3.615   4.955  0.3551 -0.1396  0.0553
   94MOL0     C12617   7.546   3.571   4.840 -0.5477 -0.6139 -0.4658
   94MOL0     C12618   7.652   3.676   4.834  0.0739 -0.5374 -0.6069
   94MOL0     C12619   7.747   3.752   4.849 -0.3943  0.3085 -0.0521
   94MOL0     C12620   7.007   3.731   4.998  0.4108 -0.8199 -0.0326
   94MOL0     C12621   6.890   3.735   5.077 -0.1796  0.0730  0.6069
   94MOL0     C12622   6.815   3.867   5.077 -0.1346  0.3652 -0.4310
   94MOL0     H12623   6.393   3.607   5.137 -1.6922 -1.3882  0.1266
   94MOL0     H12624   6.196   3.649   5.272 -0.4393  4.7321 -1.9490
   94MOL0     H12625   6.202   3.848   5.667  1.0160  3.6727 -1.7972
   94MOL0     H12626   6.131   3.926   5.529 -1.1010 -2.5221 -3.8996
   94MOL0     H12627   5.986   3.704   5.681  2.3126  0.9393  2.6806
   94MOL0     H12628   5.917   3.823   5.569 -0.0289  1.5396  0.9535
   94MOL0     H12629   5.848   3.868   5.788  0.5669  0.9335 -1.0691
   94MOL0     H12630   5.975   4.004   5.750  4.0856  0.8241  1.1698
   94MOL0     H12631   6.044   3.749   5.915  1.5519  0.2319 -0.1532
   94MOL0     H12632   6.124   3.910   5.921 -0.8274  1.9609  2.3054
   94MOL0     H12633   5.929   4.003   6.022  3.6663  1.7367 -1.3712
   94MOL0     H12634   5.847   3.853   6.023  0.7596 -0.9502  2.3064
   94MOL0     H12635   6.050   3.749   6.145 -0.3649  0.8629 -0.8802
   94MOL0     H12636   6.111   3.915   6.156 -0.9202  1.3499 -4.0322
   94MOL0     H12637   5.843   3.798   6.268  0.5675  0.4340  1.5224
   94MOL0     H12638   5.867   3.976   6.240 -2.5340 -0.9055 -1.7770
   94MOL0     H12639   6.078   3.941   6.390  0.3020 -0.3722  0.1723
   94MOL0     H12640   5.914   3.925   6.460  1.7941  2.4080 -0.1893
   94MOL0     H12641   6.224   3.710   6.421 -0.1947 -1.4314 -0.2211
   94MOL0     H12642   6.311   3.540   6.550 -0.1456 -1.8667 -3.0559
   94MOL0     H12643   6.228   3.487   6.691  0.5246 -1.4115  0.1327
   94MOL0     H12644   6.295   3.295   6.563  1.5606  3.1122 -0.1051
   94MOL0     H12645   6.124   3.303   6.564  1.3894 -1.2883  1.6164
   94MOL0     H12646   6.131   3.392   6.325  0.1776 -1.2937 -2.1015
   94MOL0     H12647   6.187   3.224   6.343 -2.2772  0.5421  0.6622
   94MOL0     H12648   6.320   3.325   6.185 -1.4710  2.9775 -1.7878
   94MOL0     H12649   6.418   3.300   6.326  0.8390 -0.2608 -0.9786
   94MOL0     H12650   6.583   3.368   6.183 -1.9537  0.1176  0.6287
   94MOL0     H12651   6.748   3.469   6.005  1.5116  2.3890  1.3475
   94MOL0     H12652   7.070   3.747   5.871 -1.1139  0.5127  0.3037
   94MOL0     H12653   7.234   3.743   5.685 -0.5241  1.2232  0.1020
   94MOL0     H12654   7.212   3.533   5.388 -0.3693  0.3976  0.3067
   94MOL0     H12655   7.170   3.642   5.260 -2.2227  3.4849  2.2694
   94MOL0     H12656   7.407   3.569   5.254  2.0486  2.7240 -2.3035
   94MOL0     H12657   7.408   3.743   5.272  2.1341 -0.4575  0.0334
   94MOL0     H12658   7.452   3.715   5.520  1.8157  1.6344 -1.1785
   94MOL0     H12659   7.449   3.541   5.476 -4.4730  0.2319 -2.0739
   94MOL0     H12660   7.658   3.766   5.403  0.3336 -1.0110 -1.8630
   94MOL0     H12661   7.661   3.596   5.337  1.0422 -1.2710  1.5024
   94MOL0     H12662   7.723   3.513   5.562  2.5263  0.1403 -0.7915
   94MOL0     H12663   7.666   3.683   5.610  0.1114 -0.3122  0.6399
   94MOL0     H12664   7.926   3.639   5.455  1.3181  4.3229 -1.3859
   94MOL0     H12665   7.863   3.785   5.505 -0.2760 -0.8857 -0.9661
   94MOL0     H12666   7.905   3.689   5.772  2.5703  0.9661  0.4316
   94MOL0     H12667   8.043   3.690   5.669 -0.7660  1.7037  0.2135
   94MOL0     H12668   7.868   3.443   5.710  2.2489 -3.9144  0.0361
   94MOL0     H12669   8.000   3.442   5.606 -1.1961 -0.7789 -0.9152
   94MOL0     H12670   6.936   3.649   5.407 -3.2808  1.4629  0.1969
   94MOL0     H12671   6.761   3.640   5.594 -1.0001  1.5932  0.6417
   94MOL0     H12672   6.495   3.833   6.037  1.2451  1.1099  0.7754
   94MOL0     H12673   6.368   3.738   6.198  0.0089 -0.5145  0.2738
   94MOL0     H12674   6.417   3.809   5.598  2.5055  0.6311  0.2196
   94MOL0     H12675   6.618   3.803   5.471  2.2324 -1.1585 -2.5508
   94MOL0     H12676   6.898   3.407   5.169  0.2080  0.6318  0.3733
   94MOL0     H12677   7.091   3.404   5.027 -3.7395 -1.8408  2.3409
   94MOL0     H12678   7.187   3.796   4.822 -1.4106 -0.0026  1.0303
   94MOL0     H12679   7.267   3.667   4.741  2.1129 -0.7768  1.1107
   94MOL0     H12680   7.350   3.805   5.013  0.8094  2.9588 -0.9361
   94MOL0     H12681   7.445   3.816   4.871  1.4993 -1.2979 -0.4721
   94MOL0     H12682   7.380   3.532   4.969 -1.3705  1.0801 -0.8858
   94MOL0     H12683   7.506   3.627   5.048  0.2264 -1.0142  0.2592
   94MOL0     H12684   7.605   3.484   4.870  1.3047  0.8260  0.2283
   94MOL0     H12685   7.498   3.552   4.743 -2.9730  1.6968  0.1602
   94MOL0     H12686   7.827   3.824   4.846  0.2634 -0.4338 -0.8038
   94MOL0     H12687   7.026   3.818   4.937  0.6403  1.2027  2.7458
   94MOL0     H12688   6.803   3.901   5.180  0.7755  0.9398 -0.5031
   94MOL0     H12689   6.868   3.946   5.023  4.9217  0.7789  4.2986
   94MOL0     H12690   6.726   3.841   5.019  0.9911 -1.1837 -1.5292
   95MOL0     O12691   6.200   7.045  10.630 -0.2132 -0.0862 -0.2629
   95MOL0     C12692   6.118   7.133  10.645 -0.1513 -0.4594  1.2458
   95MOL0     O12693   6.140   7.267  10.603  0.1035  0.2681  0.2904
   95MOL0     C12694   6.266   7.308  10.632 -0.6594 -0.2314  0.4803
   95MOL0     C12695   6.290   7.404  10.738  1.3738  0.9100  0.8892
   95MOL0     C12696   6.410   7.472  10.746 -0.5378 -1.0669  0.1006
   95MOL0     C12697   6.514   7.446  10.664  0.2230 -0.4078  0.0203
   95MOL0     O12698   6.629   7.523  10.687  0.1657  0.0065 -0.0558
   95MOL0     C12699   6.757   7.468  10.652  0.8418 -0.7250  0.2680
   95MOL0     C12700   6.850   7.590  10.664 -0.5258  0.5173  0.4450
   95MOL0     C12701   6.984   7.519  10.652  1.2745 -0.3866 -0.0843
   95MOL0     C12702   7.100   7.618  10.638  0.9615 -0.2295  0.6000
   95MOL0     C12703   7.143   7.686  10.759 -0.2947  0.1761 -0.9558
   95MOL0     C12704   7.267   7.779  10.735 -0.0343  0.0730 -0.3854
   95MOL0     C12705   7.269   7.873  10.859  0.1353 -0.2220 -0.3156
   95MOL0     C12706   7.416   7.885  10.892  0.1292 -0.6941 -0.1635
   95MOL0     N12707   7.483   7.980  10.795 -0.3205  0.0854 -0.4547
   95MOL0     C12708   7.519   7.958  10.667  0.6604 -0.6001 -0.2574
   95MOL0     C12709   7.574   8.075  10.624 -0.3055  0.2374  0.3588
   95MOL0     C12710   7.592   8.088  10.466 -0.7198  0.0033  0.0601
   95MOL0     C12711   7.456   8.156  10.423  0.8011 -0.2704 -0.0375
   95MOL0     C12712   7.457   8.171  10.270 -0.3661 -0.5516 -0.9818
   95MOL0     C12713   7.322   8.206  10.228  0.0407 -0.4951  0.3974
   95MOL0     O12714   7.238   8.102  10.251 -0.3779  0.5486 -0.3120
   95MOL0     C12715   7.103   8.121  10.247 -0.2445  0.9066  0.0401
   95MOL0     C12716   7.041   8.236  10.193  0.1246 -1.3349  0.2249
   95MOL0     C12717   6.906   8.241  10.179  0.2639 -0.4493  0.2680
   95MOL0     C12718   6.822   8.134  10.214  0.5957  0.2280  0.0787
   95MOL0     C12719   6.676   8.145  10.190  0.0777  0.5918 -0.0296
   95MOL0     O12720   6.607   8.030  10.222  0.6680  0.0704 -0.1949
   95MOL0     C12721   6.467   8.029  10.205 -0.1581  0.1525  0.5124
   95MOL0     C12722   6.402   7.904  10.149  0.4605 -1.1238  0.6250
   95MOL0     C12723   6.271   7.890  10.148  0.2085 -0.6860  0.2111
   95MOL0     C12724   6.186   7.984  10.199 -0.6163  0.2434  0.6806
   95MOL0     O12725   6.049   7.979  10.207 -0.6517 -0.2374 -0.2695
   95MOL0     C12726   5.988   7.902  10.106 -0.6254 -0.5264  0.1047
   95MOL0     C12727   5.835   7.902  10.125  0.4185  0.2907 -0.0531
   95MOL0     C12728   5.778   7.826  10.254  0.1494  0.0902  0.0811
   95MOL0     C12729   5.725   7.693  10.231  0.8869  0.5143  0.3900
   95MOL0     C12730   5.837   7.598  10.183 -0.0300 -0.8428 -0.3969
   95MOL0     C12731   5.774   7.469  10.165 -0.0057  1.0624  0.4338
   95MOL0     C12732   5.861   7.386  10.071 -0.3091 -0.5898  0.5204
   95MOL0     C12733   5.810   7.245  10.062 -0.7406  0.7626  0.4506
   95MOL0    Cl12734   5.641   7.263  10.011  0.3630 -0.0803 -0.2983
   95MOL0     C12735   6.240   8.102  10.250  0.3181 -0.4162 -0.7406
   95MOL0     C12736   6.380   8.119  10.262 -0.8686  0.4005  0.2444
   95MOL0     O12737   6.631   8.246  10.142 -0.1970 -0.1568 -0.4208
   95MOL0     C12738   6.885   8.014  10.266  0.2125 -0.6767  0.6329
   95MOL0     C12739   7.018   8.017  10.285 -0.6678  0.1252  0.3415
   95MOL0     N12740   7.573   8.162  10.729 -0.1986  0.3734  0.2331
   95MOL0     N12741   7.534   8.098  10.826  0.8643 -0.9356 -0.3314
   95MOL0     C12742   6.491   7.346  10.566  0.0464  0.1075 -0.3807
   95MOL0     C12743   6.373   7.275  10.548  0.9555 -0.0100  0.8171
   95MOL0     C12744   5.979   7.101  10.701  0.5726 -0.3307  0.2221
   95MOL0     C12745   5.882   7.212  10.698  0.0642  0.3195  0.0013
   95MOL0     C12746   5.759   7.190  10.750  0.5874  0.4106  0.4521
   95MOL0     C12747   5.716   7.073  10.814 -0.8942 -0.1434 -0.5601
   95MOL0     O12748   5.584   7.068  10.860  0.6441  0.6375 -0.1631
   95MOL0     C12749   5.541   6.946  10.929 -0.3214 -0.1970  0.3812
   95MOL0     C12750   5.501   6.836  10.828  0.0567 -0.5974 -0.2501
   95MOL0     C12751   5.374   6.891  10.750  0.0404  0.2676 -0.5669
   95MOL0     C12752   5.248   6.895  10.846 -0.4750 -0.1001  1.8109
   95MOL0     C12753   5.116   6.908  10.787  0.8709 -0.3561 -0.1712
   95MOL0     C12754   5.002   6.937  10.750 -0.2121  0.7371 -0.3741
   95MOL0     C12755   5.817   6.970  10.815 -0.0722 -0.7850 -0.6018
   95MOL0     C12756   5.947   6.985  10.756 -0.1641  0.8952 -1.1956
   95MOL0     C12757   6.033   6.860  10.765  0.4269  0.3516  0.9248
   95MOL0     H12758   6.212   7.447  10.800 -2.3276  0.1672 -2.7757
   95MOL0     H12759   6.436   7.549  10.818  0.9410  0.6581 -2.1303
   95MOL0     H12760   6.792   7.389  10.719  3.6457  0.5086  0.4163
   95MOL0     H12761   6.763   7.431  10.550  0.7089  0.5615 -0.2341
   95MOL0     H12762   6.841   7.658  10.749 -0.8358  1.0328  0.0084
   95MOL0     H12763   6.831   7.635  10.566 -0.6352 -1.5197 -0.5195
   95MOL0     H12764   6.988   7.460  10.560  0.0370  0.7652 -0.9215
   95MOL0     H12765   7.008   7.447  10.730  0.2137  1.0072  1.6044
   95MOL0     H12766   7.178   7.565  10.583  0.5016  0.4060 -0.7192
   95MOL0     H12767   7.077   7.696  10.565  1.6827  0.4915  1.1260
   95MOL0     H12768   7.063   7.744  10.806  0.6468 -0.0096  0.9822
   95MOL0     H12769   7.159   7.614  10.840 -2.7678  1.7022  1.0110
   95MOL0     H12770   7.349   7.706  10.737  1.1862  1.2464 -3.0099
   95MOL0     H12771   7.251   7.830  10.640  1.2541  0.7759 -0.2445
   95MOL0     H12772   7.239   7.827  10.953  0.8980  0.1851  0.1323
   95MOL0     H12773   7.220   7.970  10.842 -0.2109 -0.3983 -0.3219
   95MOL0     H12774   7.428   7.923  10.994 -0.3535 -0.8890 -0.0301
   95MOL0     H12775   7.460   7.786  10.881  0.2819 -0.4243 -2.3575
   95MOL0     H12776   7.505   7.869  10.606  2.4666 -1.0128 -0.1289
   95MOL0     H12777   7.682   8.144  10.441 -3.5873  3.2426 -4.4402
   95MOL0     H12778   7.601   7.987  10.425  1.9823 -2.1603  5.0804
   95MOL0     H12779   7.377   8.083  10.444  1.4133 -0.1814  3.0921
   95MOL0     H12780   7.430   8.253  10.467  1.6753  0.1293 -0.3863
   95MOL0     H12781   7.506   8.079  10.239 -1.4421 -1.9759  1.2475
   95MOL0     H12782   7.511   8.260  10.236 -4.0114  1.1030 -3.0455
   95MOL0     H12783   7.312   8.232  10.122  0.6068  0.0080  0.4595
   95MOL0     H12784   7.287   8.279  10.301  4.4064  1.0949  1.1939
   95MOL0     H12785   7.090   8.325  10.155 -1.0316 -0.8552 -0.2216
   95MOL0     H12786   6.871   8.335  10.138  0.4758 -1.0187 -1.2828
   95MOL0     H12787   6.468   7.828  10.109  4.1553  1.7220  0.7582
   95MOL0     H12788   6.228   7.794  10.121  0.8164 -0.5961 -1.1729
   95MOL0     H12789   6.013   7.949  10.010  4.6942  0.8019  1.7706
   95MOL0     H12790   6.014   7.796  10.101 -2.1620 -0.8640 -1.5841
   95MOL0     H12791   5.785   7.998  10.119 -1.1334 -0.4667  0.2947
   95MOL0     H12792   5.788   7.847  10.043 -0.6388  0.2339  0.5690
   95MOL0     H12793   5.867   7.815  10.316  0.2678  0.3993 -0.0323
   95MOL0     H12794   5.701   7.884  10.305 -1.5410  0.2170 -2.4503
   95MOL0     H12795   5.648   7.704  10.155  0.1508 -3.6647  0.2916
   95MOL0     H12796   5.676   7.648  10.317  1.9426 -1.0827  0.1963
   95MOL0     H12797   5.908   7.606  10.266 -2.4177  1.5624  1.6433
   95MOL0     H12798   5.883   7.626  10.088  1.8098 -0.2380  0.6096
   95MOL0     H12799   5.755   7.417  10.260 -2.0385  3.1488  1.2792
   95MOL0     H12800   5.677   7.488  10.118  1.0220  1.7786 -1.4583
   95MOL0     H12801   5.965   7.383  10.104  0.0730 -0.6924 -0.6592
   95MOL0     H12802   5.858   7.430   9.971  0.7429 -2.3460 -0.3132
   95MOL0     H12803   5.870   7.197   9.984 -0.6137  3.8784 -1.5628
   95MOL0     H12804   5.809   7.188  10.155 -4.4832 -2.9539 -1.5194
   95MOL0     H12805   6.176   8.179  10.291 -0.2792  0.0648 -2.4664
   95MOL0     H12806   6.416   8.209  10.311 -0.7362  0.6786 -0.3487
   95MOL0     H12807   6.824   7.930  10.300  1.4902 -1.5378  0.8492
   95MOL0     H12808   7.076   7.935  10.326  0.5691 -0.3925 -2.2746
   95MOL0     H12809   6.576   7.336  10.498 -0.6601  0.6171 -1.3627
   95MOL0     H12810   6.357   7.201  10.470 -1.4004 -1.0728  2.1797
   95MOL0     H12811   5.921   7.306  10.660  0.6762  0.3699  0.7188
   95MOL0     H12812   5.677   7.261  10.748 -0.2096 -0.2845 -4.0212
   95MOL0     H12813   5.455   6.967  10.993 -0.4954 -0.8652  0.3767
   95MOL0     H12814   5.620   6.904  10.993 -0.4922  0.5701  1.1043
   95MOL0     H12815   5.487   6.743  10.884 -0.1870 -1.7610 -2.1566
   95MOL0     H12816   5.589   6.817  10.765  0.1898 -1.3615  0.1566
   95MOL0     H12817   5.377   6.833  10.658  2.7342 -0.6383  0.0016
   95MOL0     H12818   5.399   6.991  10.713  0.5983  0.2743 -0.1947
   95MOL0     H12819   5.244   6.800  10.900 -2.6078  0.0107  1.9193
   95MOL0     H12820   5.267   6.975  10.917 -1.2952  2.0820 -0.3082
   95MOL0     H12821   4.909   6.981  10.720 -1.0470  1.5957  2.9906
   95MOL0     H12822   5.788   6.883  10.872 -1.4462 -0.0241 -0.0846
   95MOL0     H12823   5.969   6.782  10.807 -0.4759 -1.1088 -2.7326
   95MOL0     H12824   6.081   6.824  10.673  0.7313 -2.9464  2.2617
   95MOL0     H12825   6.113   6.898  10.828 -0.7283  2.7409  1.0734
   96MOL0     O12826  10.278   1.881   0.809 -0.2292  0.4099 -0.1221
   96MOL0     C12827  10.297   1.874   0.931  0.4627 -0.3540  0.2365
   96MOL0     O12828  10.412   1.860   0.997  0.0105  0.2517  0.2693
   96MOL0     C12829  10.510   1.767   0.959  0.5836  0.4739 -0.1401
   96MOL0     C12830  10.482   1.640   0.903 -0.2006 -0.6839 -0.0010
   96MOL0     C12831  10.580   1.542   0.887 -0.2800 -0.0520 -0.0235
   96MOL0     C12832  10.718   1.584   0.899  0.4862 -0.3903  0.2795
   96MOL0     O12833  10.827   1.490   0.875 -0.1545  0.6694 -0.5941
   96MOL0     C12834  10.795   1.380   0.787 -0.6570 -0.2044  0.6684
   96MOL0     C12835  10.919   1.368   0.699 -0.3011 -0.2006 -0.5671
   96MOL0     C12836  10.917   1.258   0.595  0.0901  0.5733  0.0175
   96MOL0     C12837  10.929   1.307   0.447  0.3373  0.2954  0.2001
   96MOL0     C12838  10.856   1.216   0.344 -0.2588  0.5719  0.7933
   96MOL0     C12839  10.851   1.273   0.199  0.6620 -0.4505 -0.1995
   96MOL0     C12840  10.953   1.224   0.107 -0.0459 -0.3342  0.7551
   96MOL0     C12841  10.970   1.308  -0.027  0.4616  0.0713 -0.6701
   96MOL0     N12842  11.041   1.239  -0.123 -0.2498 -0.1097 -0.2451
   96MOL0     C12843  10.986   1.155  -0.209 -0.1722  0.4187  0.2995
   96MOL0     C12844  11.083   1.135  -0.310 -0.7240 -0.5217 -0.3216
   96MOL0     C12845  11.080   1.054  -0.441 -0.4558 -0.6350 -0.3104
   96MOL0     C12846  11.018   0.915  -0.427 -0.0490  0.9975 -0.0286
   96MOL0     C12847  11.106   0.827  -0.336  0.1102 -0.7377  0.0487
   96MOL0     C12848  11.050   0.695  -0.294 -0.0780  0.0347 -0.0948
   96MOL0     O12849  11.139   0.620  -0.211 -0.4021  1.1370 -0.3348
   96MOL0     C12850  11.166   0.671  -0.082  0.1625  0.1419  0.5729
   96MOL0     C12851  11.263   0.599  -0.008  0.2682 -0.7034  0.4732
   96MOL0     C12852  11.286   0.626   0.129  0.1092  0.1587  0.2437
   96MOL0     C12853  11.214   0.726   0.195  0.4675  0.2520  0.0549
   96MOL0     C12854  11.237   0.769   0.339 -0.1623  0.2314  1.0284
   96MOL0     O12855  11.151   0.855   0.393  0.0308 -0.3540  0.1237
   96MOL0     C12856  11.193   0.914   0.509 -1.0084 -0.3547  0.9045
   96MOL0     C12857  11.228   0.839   0.620 -1.2301  0.3861 -0.2870
   96MOL0     C12858  11.281   0.895   0.735 -0.5074  0.2475 -0.6778
   96MOL0     C12859  11.306   1.035   0.739  0.0192  0.0968  0.0204
   96MOL0     O12860  11.357   1.088   0.852  0.7247  0.1784  0.3889
   96MOL0     C12861  11.463   1.175   0.833 -0.3962  0.5942 -0.6176
   96MOL0     C12862  11.494   1.230   0.974 -0.9050 -0.4894 -0.5172
   96MOL0     C12863  11.621   1.324   0.966  0.1273 -0.5051 -0.1274
   96MOL0     C12864  11.752   1.251   0.993  0.8262 -0.7088  0.0726
   96MOL0     C12865  11.871   1.346   0.987  0.0077  0.0547 -0.3427
   96MOL0     C12866  11.924   1.399   0.854 -0.5409 -0.0258 -0.2995
   96MOL0     C12867  12.059   1.475   0.854  0.0399 -0.5974  0.6434
   96MOL0     C12868  12.094   1.523   0.711 -0.8912  0.8877  1.0570
   96MOL0    Cl12869  11.947   1.587   0.631 -0.5833 -0.1743  0.0144
   96MOL0     C12870  11.274   1.115   0.628  0.1626 -0.1640 -0.7331
   96MOL0     C12871  11.228   1.051   0.516 -0.3419 -0.4594  0.4005
   96MOL0     O12872  11.337   0.724   0.389 -0.1277 -0.2421 -0.6222
   96MOL0     C12873  11.115   0.798   0.121 -0.0478  0.2033 -0.3022
   96MOL0     C12874  11.085   0.765  -0.009 -0.1914 -1.0789 -0.3933
   96MOL0     N12875  11.195   1.210  -0.276 -0.5030 -0.7001 -0.2703
   96MOL0     N12876  11.170   1.273  -0.163 -0.0787 -0.3852 -0.0353
   96MOL0     C12877  10.747   1.708   0.954  0.4328 -0.7167 -0.8413
   96MOL0     C12878  10.643   1.795   0.988 -0.2641  0.3592  0.0272
   96MOL0     C12879  10.173   1.915   1.015 -0.7709  0.4018  0.2981
   96MOL0     C12880  10.182   2.000   1.128 -0.6633 -0.1138  0.6854
   96MOL0     C12881  10.081   2.072   1.181 -0.0742  0.0832 -0.3110
   96MOL0     C12882   9.963   2.071   1.117  0.5709 -0.6509 -0.5072
   96MOL0     O12883   9.869   2.159   1.164 -0.2658  0.6751 -0.0861
   96MOL0     C12884   9.742   2.149   1.111  0.8998  0.0023  0.1435
   96MOL0     C12885   9.665   2.275   1.159  0.1964 -0.8765  0.0321
   96MOL0     C12886   9.515   2.276   1.172 -0.4604 -0.1007 -0.3875
   96MOL0     C12887   9.453   2.407   1.156  0.0777 -0.6849  0.3102
   96MOL0     C12888   9.495   2.501   1.259 -0.3325  0.3360 -0.0103
   96MOL0     C12889   9.549   2.561   1.351 -0.4179 -0.3623 -0.0456
   96MOL0     C12890   9.940   1.979   1.011  0.5464 -0.5651  0.3250
   96MOL0     C12891  10.043   1.901   0.966 -0.1159  0.0784  0.1275
   96MOL0     C12892  10.003   1.787   0.874  0.5986 -0.6039 -0.5078
   96MOL0     H12893  10.383   1.607   0.875 -0.0737  1.7754 -4.1095
   96MOL0     H12894  10.551   1.443   0.855 -3.2779  1.1923 -1.6124
   96MOL0     H12895  10.776   1.286   0.840 -3.4455 -0.2821 -0.2814
   96MOL0     H12896  10.707   1.405   0.727 -0.1076  2.2588  0.8106
   96MOL0     H12897  11.010   1.358   0.758  1.0735  3.3191 -1.8554
   96MOL0     H12898  10.919   1.466   0.651  1.2719  1.1697  2.0452
   96MOL0     H12899  10.818   1.212   0.602  0.2763  0.5096  3.7754
   96MOL0     H12900  10.987   1.180   0.625 -2.3256 -2.0593 -0.7697
   96MOL0     H12901  10.872   1.400   0.444 -1.8289 -0.9964 -1.1303
   96MOL0     H12902  11.030   1.324   0.408 -0.1564  0.1654 -1.1798
   96MOL0     H12903  10.909   1.121   0.347 -1.2774  0.0058  1.2000
   96MOL0     H12904  10.750   1.199   0.365 -0.5833  0.5506 -0.7045
   96MOL0     H12905  10.755   1.256   0.150  0.1974 -3.3932  1.5284
   96MOL0     H12906  10.873   1.381   0.198 -0.5457 -0.1851 -1.3280
   96MOL0     H12907  10.920   1.122   0.082  0.5172 -0.0982 -1.1274
   96MOL0     H12908  11.046   1.223   0.166  1.3135  1.8521 -1.1923
   96MOL0     H12909  10.877   1.340  -0.074  0.0823  0.4513  0.3170
   96MOL0     H12910  11.017   1.401   0.004 -1.7423  0.4331  1.9711
   96MOL0     H12911  10.886   1.113  -0.205  0.2753 -0.6971  0.1911
   96MOL0     H12912  11.027   1.103  -0.523  2.4029 -0.9283 -2.4898
   96MOL0     H12913  11.185   1.048  -0.470 -0.3613  1.4182 -0.5037
   96MOL0     H12914  10.922   0.918  -0.374 -0.4567 -1.8386 -0.4776
   96MOL0     H12915  11.007   0.870  -0.526  0.7892  0.6969  0.0053
   96MOL0     H12916  11.125   0.892  -0.250  1.3981  3.8985 -3.3521
   96MOL0     H12917  11.200   0.814  -0.390  0.4937  1.6720 -0.0071
   96MOL0     H12918  11.022   0.637  -0.383 -2.0085  0.6927  0.0380
   96MOL0     H12919  10.956   0.709  -0.240  0.0091  1.0251 -0.1853
   96MOL0     H12920  11.306   0.517  -0.064 -1.9586 -0.0966 -2.2906
   96MOL0     H12921  11.359   0.565   0.181  2.1722  2.1510 -0.1571
   96MOL0     H12922  11.219   0.732   0.607 -0.3634  0.4011 -1.1006
   96MOL0     H12923  11.316   0.827   0.811 -0.2306 -1.3617 -2.1746
   96MOL0     H12924  11.546   1.134   0.774 -1.6086 -1.6520 -0.8481
   96MOL0     H12925  11.429   1.263   0.777 -0.6947  0.8602 -0.0284
   96MOL0     H12926  11.411   1.296   1.002 -1.5964 -0.8795 -1.5667
   96MOL0     H12927  11.506   1.148   1.046 -0.7107  1.1398  1.3643
   96MOL0     H12928  11.622   1.373   0.868  0.2298 -0.2852 -0.0169
   96MOL0     H12929  11.623   1.404   1.039  2.7088  0.3630 -1.0217
   96MOL0     H12930  11.755   1.165   0.925 -0.2346  0.2420 -1.2088
   96MOL0     H12931  11.750   1.209   1.094  4.2181 -1.1313  0.0767
   96MOL0     H12932  11.956   1.289   1.026 -0.2542 -2.8502 -3.5291
   96MOL0     H12933  11.850   1.424   1.060 -2.3789 -2.4371  1.8468
   96MOL0     H12934  11.942   1.306   0.798 -0.5696  0.9479 -1.9973
   96MOL0     H12935  11.836   1.452   0.816 -0.7995  0.9192  1.5397
   96MOL0     H12936  12.135   1.415   0.905 -0.2915  0.0037  1.8739
   96MOL0     H12937  12.049   1.566   0.915  2.3090 -0.3373  0.6862
   96MOL0     H12938  12.170   1.602   0.710 -1.7639  1.7302 -0.2835
   96MOL0     H12939  12.145   1.438   0.664  1.0897  0.7879  3.1808
   96MOL0     H12940  11.283   1.223   0.618  0.1143 -0.2244 -1.4982
   96MOL0     H12941  11.195   1.109   0.431  0.5944  1.2130  1.1395
   96MOL0     H12942  11.060   0.883   0.159 -0.8044 -0.0507 -0.8034
   96MOL0     H12943  11.007   0.822  -0.059  0.3712  0.8094  0.7443
   96MOL0     H12944  10.848   1.742   0.972  0.3105 -0.6202 -0.3131
   96MOL0     H12945  10.666   1.887   1.041 -0.2792 -0.8078  2.1685
   96MOL0     H12946  10.282   2.016   1.167 -0.4617 -0.4959  0.3348
   96MOL0     H12947  10.110   2.137   1.262 -0.7873 -0.3451  0.2982
   96MOL0     H12948   9.679   2.065   1.143 -0.6369 -0.9175 -4.5266
   96MOL0     H12949   9.742   2.136   1.003  1.2042 -2.4835  0.3945
   96MOL0     H12950   9.694   2.358   1.093 -2.9028 -0.4125 -0.9055
   96MOL0     H12951   9.699   2.300   1.260  1.4653 -0.0506 -0.5680
   96MOL0     H12952   9.493   2.248   1.276  2.8568  1.3066  0.8394
   96MOL0     H12953   9.466   2.203   1.107  2.4568 -2.7927  0.2083
   96MOL0     H12954   9.481   2.441   1.056 -2.0199  0.3871  0.0144
   96MOL0     H12955   9.344   2.396   1.166  0.1735 -0.7526  1.3617
   96MOL0     H12956   9.589   2.622   1.430 -1.3371  1.6283 -1.0595
   96MOL0     H12957   9.846   1.965   0.959 -0.6486 -0.4834  2.3501
   96MOL0     H12958  10.037   1.804   0.771  0.2638  1.5279 -0.3242
   96MOL0     H12959  10.062   1.701   0.907  3.0825  1.5654  1.1153
   96MOL0     H12960   9.894   1.772   0.876  0.8100 -2.3085  1.1726
   97MOL0     O12961   0.749  10.570   8.907  0.2490  0.6104  0.0713
   97MOL0     C12962   0.817  10.602   8.811 -0.6630  0.4252 -0.1671
   97MOL0     O12963   0.946  10.558   8.785 -0.0572  0.3937 -0.0653
   97MOL0     C12964   1.004  10.495   8.890 -0.9327 -0.2578  0.1073
   97MOL0     C12965   1.069  10.571   9.001 -0.2225  0.4367 -0.0408
   97MOL0     C12966   1.163  10.504   9.085 -0.1778 -0.2599  0.0135
   97MOL0     C12967   1.188  10.367   9.072  0.5303  0.0333 -0.2432
   97MOL0     O12968   1.257  10.296   9.162 -0.1428 -0.5550  0.1631
   97MOL0     C12969   1.338  10.366   9.253 -0.2098 -0.5162 -0.5106
   97MOL0     C12970   1.374  10.274   9.367  0.6686  1.0335 -0.4597
   97MOL0     C12971   1.444  10.141   9.309  0.1552  0.7735 -0.3634
   97MOL0     C12972   1.501  10.043   9.425  0.5205 -0.0592  1.2023
   97MOL0     C12973   1.642  10.007   9.398 -0.0509 -0.4781 -0.1933
   97MOL0     C12974   1.735  10.128   9.427  0.2767 -0.1951 -0.5781
   97MOL0     C12975   1.890  10.100   9.401  0.3553  1.3683 -0.1846
   97MOL0     C12976   1.962  10.232   9.402  0.1242 -0.3428  0.5722
   97MOL0     N12977   2.100  10.208   9.365 -0.4712 -0.2766 -0.3214
   97MOL0     C12978   2.140  10.191   9.237  1.0082  0.8317  0.0496
   97MOL0     C12979   2.273  10.186   9.239 -0.1296 -0.6140 -0.1285
   97MOL0     C12980   2.360  10.165   9.117 -0.6925  0.5171 -0.0623
   97MOL0     C12981   2.513  10.167   9.148  0.4542  0.4590 -0.0155
   97MOL0     C12982   2.567  10.312   9.179  0.3977  0.1944 -0.7707
   97MOL0     C12983   2.707  10.340   9.123 -0.2111  0.1128 -0.1696
   97MOL0     O12984   2.747  10.471   9.177  0.2899 -0.2082 -0.1134
   97MOL0     C12985   2.824  10.541   9.090  0.0724  0.3331 -1.2963
   97MOL0     C12986   2.948  10.506   9.050 -0.1595 -0.1292  0.3913
   97MOL0     C12987   3.029  10.584   8.964 -0.7344 -0.2007  0.6050
   97MOL0     C12988   2.970  10.695   8.904  0.1938 -0.6435 -0.8114
   97MOL0     C12989   3.043  10.792   8.823 -0.1141 -0.4548  1.4776
   97MOL0     O12990   3.006  10.922   8.804 -0.1265  0.3103  0.2352
   97MOL0     C12991   3.094  10.996   8.721  0.9197 -0.3033  0.0546
   97MOL0     C12992   3.202  11.062   8.781 -0.2119 -0.3802  0.9883
   97MOL0     C12993   3.289  11.137   8.705 -0.0911  0.1764  0.3031
   97MOL0     C12994   3.277  11.143   8.567 -1.0582 -0.2433 -0.9655
   97MOL0     O12995   3.359  11.229   8.512 -0.0285 -0.5401  0.2574
   97MOL0     C12996   3.349  11.251   8.367  1.0851 -0.2584 -0.0797
   97MOL0     C12997   3.496  11.290   8.326 -0.1361  0.0703  0.4316
   97MOL0     C12998   3.504  11.349   8.178 -0.2155 -0.9404 -0.6275
   97MOL0     C12999   3.468  11.499   8.170 -0.6431 -0.5410 -0.7978
   97MOL0     C13000   3.453  11.541   8.024  0.5089 -0.7327  0.2595
   97MOL0     C13001   3.449  11.695   8.028 -0.3981 -0.2763 -0.1331
   97MOL0     C13002   3.488  11.751   7.890  0.0771  0.2012  0.3740
   97MOL0     C13003   3.508  11.898   7.886  0.0164  0.4255 -0.3071
   97MOL0    Cl13004   3.369  11.977   7.959 -0.6443  0.1731  0.1108
   97MOL0     C13005   3.166  11.077   8.505  0.3529  0.1836  0.4605
   97MOL0     C13006   3.074  11.003   8.580 -0.0774  0.2711  0.2446
   97MOL0     O13007   3.137  10.736   8.766  0.0904  0.7596  0.3901
   97MOL0     C13008   2.839  10.743   8.952  0.1040  0.4531  0.1821
   97MOL0     C13009   2.769  10.668   9.050  0.0718 -0.0256  1.3305
   97MOL0     N13010   2.311  10.200   9.370 -0.1324  0.1226  0.3777
   97MOL0     N13011   2.213  10.219   9.442 -0.4231  0.7092 -0.1000
   97MOL0     C13012   1.123  10.295   8.973  0.6831  0.7915  0.2980
   97MOL0     C13013   1.039  10.354   8.876 -0.7358  0.1934 -0.5426
   97MOL0     C13014   0.755  10.692   8.712  0.4499  0.1256 -0.0225
   97MOL0     C13015   0.624  10.670   8.669  0.5664 -0.0971 -0.1889
   97MOL0     C13016   0.562  10.759   8.577 -0.5045  0.7433 -0.7937
   97MOL0     C13017   0.630  10.862   8.522  0.4731  0.9498  0.1993
   97MOL0     O13018   0.560  10.941   8.438 -0.0997 -0.2293  0.3799
   97MOL0     C13019   0.587  11.079   8.469 -0.5775 -0.1923  0.0639
   97MOL0     C13020   0.522  11.167   8.365 -0.1151 -0.1571  1.2912
   97MOL0     C13021   0.366  11.151   8.347 -0.0296 -0.0428  0.7100
   97MOL0     C13022   0.290  11.258   8.265  0.0315  0.4668 -0.2365
   97MOL0     C13023   0.278  11.373   8.347 -0.0748 -0.6443  0.7135
   97MOL0     C13024   0.274  11.480   8.406 -0.3399 -0.7809 -0.1395
   97MOL0     C13025   0.767  10.879   8.564  0.2623  0.6665  0.1355
   97MOL0     C13026   0.827  10.795   8.654 -0.7331  0.6452 -0.4496
   97MOL0     C13027   0.973  10.822   8.674 -0.3893 -0.5703 -0.7867
   97MOL0     H13028   1.033  10.673   9.003  0.4820  0.6885 -0.0075
   97MOL0     H13029   1.211  10.553   9.169  0.5803 -3.0575  1.3543
   97MOL0     H13030   1.426  10.415   9.211 -0.1012  1.4417  1.7803
   97MOL0     H13031   1.282  10.439   9.313 -0.4871 -2.0941  1.2624
   97MOL0     H13032   1.280  10.250   9.418  2.3907 -1.2827  1.8648
   97MOL0     H13033   1.442  10.314   9.443  1.9499 -0.0635 -0.9814
   97MOL0     H13034   1.520  10.155   9.232 -0.4367  1.0191 -0.9084
   97MOL0     H13035   1.366  10.093   9.249 -0.9395  3.3276 -1.1300
   97MOL0     H13036   1.499  10.082   9.527 -0.0702 -0.2533  1.2701
   97MOL0     H13037   1.443   9.951   9.412  2.6602 -1.2147 -1.2034
   97MOL0     H13038   1.668   9.929   9.470  0.7914  1.2810  1.5055
   97MOL0     H13039   1.655   9.979   9.294  0.5785 -2.5341  0.3905
   97MOL0     H13040   1.700  10.217   9.373  2.6115  1.1552 -0.0111
   97MOL0     H13041   1.724  10.148   9.534 -0.6954  0.3772 -0.7734
   97MOL0     H13042   1.910  10.040   9.311 -2.6128  0.8729 -0.6212
   97MOL0     H13043   1.926  10.035   9.481  1.0051 -1.0158 -2.2857
   97MOL0     H13044   1.912  10.301   9.333 -1.8064  2.0527  4.0537
   97MOL0     H13045   1.943  10.288   9.494 -3.0615 -0.4458  0.1086
   97MOL0     H13046   2.068  10.172   9.158  1.6283  2.9953 -1.1307
   97MOL0     H13047   2.346  10.072   9.061 -0.5759  1.2785 -1.4079
   97MOL0     H13048   2.336  10.246   9.048 -0.9074 -1.5214 -2.5130
   97MOL0     H13049   2.529  10.096   9.229 -1.9601 -0.7353 -0.5094
   97MOL0     H13050   2.561  10.129   9.057  2.5922 -1.6901  1.8652
   97MOL0     H13051   2.572  10.323   9.287  1.5978  0.0038 -0.7980
   97MOL0     H13052   2.499  10.386   9.134 -0.8760  0.4631  1.4484
   97MOL0     H13053   2.701  10.355   9.015  0.8620  1.9727 -0.0099
   97MOL0     H13054   2.782  10.266   9.152 -0.0684  0.2266 -0.2445
   97MOL0     H13055   2.981  10.411   9.093  1.0816  0.5053  0.8933
   97MOL0     H13056   3.125  10.556   8.923 -0.6680  0.7641  0.0638
   97MOL0     H13057   3.230  11.052   8.885  2.0857 -0.2805  0.4505
   97MOL0     H13058   3.371  11.184   8.759  0.2199  1.0241 -0.8479
   97MOL0     H13059   3.314  11.160   8.318 -1.0258  0.5430 -0.1748
   97MOL0     H13060   3.283  11.335   8.341 -1.3014 -2.1819 -0.5692
   97MOL0     H13061   3.534  11.365   8.397 -2.3341  1.3789  0.3145
   97MOL0     H13062   3.560  11.202   8.336  1.3282  0.8803 -1.2729
   97MOL0     H13063   3.610  11.336   8.155  0.5182 -1.3709  2.5416
   97MOL0     H13064   3.437  11.288   8.117  0.0986 -3.0254  1.0004
   97MOL0     H13065   3.551  11.560   8.207 -5.3729  3.0224  6.0710
   97MOL0     H13066   3.377  11.525   8.224 -1.7978 -1.8922 -1.9996
   97MOL0     H13067   3.366  11.501   7.972  0.9943  1.3679 -2.3550
   97MOL0     H13068   3.536  11.501   7.964 -1.0407  1.1226 -3.4192
   97MOL0     H13069   3.353  11.727   8.068 -0.5889  2.1048 -2.2480
   97MOL0     H13070   3.522  11.732   8.100  0.4351 -1.5382 -0.2878
   97MOL0     H13071   3.413  11.723   7.815  1.3464 -1.1124 -0.4514
   97MOL0     H13072   3.585  11.713   7.858  0.5970  1.6015  0.1863
   97MOL0     H13073   3.596  11.920   7.947 -0.1774 -0.4322  0.3100
   97MOL0     H13074   3.531  11.918   7.781 -1.6499 -0.4033 -0.8668
   97MOL0     H13075   3.151  11.080   8.398 -3.0386  0.3287  0.8532
   97MOL0     H13076   2.986  10.973   8.525 -1.3126  2.2617  1.0010
   97MOL0     H13077   2.806  10.844   8.931  2.5979  1.6283  1.4541
   97MOL0     H13078   2.681  10.709   9.099  0.6992  1.8137  1.0081
   97MOL0     H13079   1.156  10.194   8.955  2.7511  1.4836 -0.0356
   97MOL0     H13080   0.996  10.306   8.789  1.1732  2.2060 -2.7434
   97MOL0     H13081   0.583  10.588   8.728  0.0635 -1.0572 -1.8026
   97MOL0     H13082   0.458  10.741   8.549  0.2470 -1.2554 -2.5519
   97MOL0     H13083   0.691  11.110   8.468 -0.2334 -1.0422 -3.4507
   97MOL0     H13084   0.549  11.093   8.570  1.3289  0.0498  0.7810
   97MOL0     H13085   0.562  11.138   8.268 -0.6260  0.2099  0.9628
   97MOL0     H13086   0.554  11.272   8.371  4.8169 -1.0826 -2.5339
   97MOL0     H13087   0.318  11.133   8.443 -0.5626  0.1490  0.4833
   97MOL0     H13088   0.367  11.057   8.291 -0.1298  0.2401  0.2307
   97MOL0     H13089   0.355  11.287   8.182  1.5210  0.8981  1.0358
   97MOL0     H13090   0.199  11.214   8.222 -0.1289 -0.1531  0.6954
   97MOL0     H13091   0.271  11.572   8.461 -1.9583  1.6854 -3.8676
   97MOL0     H13092   0.815  10.968   8.523  1.3098 -0.3058 -0.8086
   97MOL0     H13093   1.028  10.734   8.640 -1.2814 -1.4194 -0.1013
   97MOL0     H13094   1.005  10.915   8.627  2.0046  1.1743  3.7087
   97MOL0     H13095   0.993  10.836   8.780 -3.5206 -0.5725 -0.0831
   98MOL0     O13096  10.625  11.329  10.379 -0.4125 -0.0955  0.3902
   98MOL0     C13097  10.707  11.386  10.446 -0.5093  0.6345 -0.7799
   98MOL0     O13098  10.676  11.452  10.564  0.4146  0.0017  0.3827
   98MOL0     C13099  10.551  11.496  10.604 -0.3878 -0.0391  0.0297
   98MOL0     C13100  10.444  11.516  10.518 -0.8011 -0.5018 -0.1370
   98MOL0     C13101  10.333  11.583  10.574  0.2260 -0.1651  0.2668
   98MOL0     C13102  10.333  11.647  10.699 -0.2888 -0.0070  0.1640
   98MOL0     O13103  10.222  11.727  10.729 -0.9475 -0.7469 -0.8793
   98MOL0     C13104  10.215  11.804  10.860 -0.2567 -0.2544  0.1363
   98MOL0     C13105  10.079  11.884  10.861  0.2899  0.9289  0.1815
   98MOL0     C13106  10.055  11.976  10.977  0.0641 -0.2134 -0.1029
   98MOL0     C13107   9.915  12.040  10.968  0.8684  0.2733 -0.2729
   98MOL0     C13108   9.872  12.088  11.111 -1.0354  0.0577 -0.5412
   98MOL0     C13109   9.780  11.988  11.174  1.1130 -0.8717 -0.2380
   98MOL0     C13110   9.640  11.993  11.107 -0.0015 -0.7422 -0.3494
   98MOL0     C13111   9.545  11.879  11.150  0.7596  0.6311 -0.6406
   98MOL0     N13112   9.618  11.755  11.152  0.1638 -0.0674  1.4684
   98MOL0     C13113   9.620  11.656  11.250 -0.3684  0.3964  0.5870
   98MOL0     C13114   9.653  11.541  11.180 -0.1889 -0.2086  0.3289
   98MOL0     C13115   9.639  11.395  11.224  0.7064  0.3958 -0.4606
   98MOL0     C13116   9.756  11.354  11.315 -0.7950  0.3121  1.0456
   98MOL0     C13117   9.752  11.212  11.363  0.1103  0.2457  0.5380
   98MOL0     C13118   9.880  11.164  11.433 -0.5139  0.0566  0.9686
   98MOL0     O13119   9.990  11.174  11.337  0.6929 -0.1949 -0.4551
   98MOL0     C13120  10.113  11.142  11.382 -0.1898  0.6987 -0.5693
   98MOL0     C13121  10.211  11.108  11.287 -0.9886 -0.6529 -0.3808
   98MOL0     C13122  10.345  11.083  11.311  0.1999 -0.0391  0.3367
   98MOL0     C13123  10.387  11.092  11.444 -0.1462  0.4449 -0.2449
   98MOL0     C13124  10.527  11.054  11.491  0.1157  0.4545 -0.7689
   98MOL0     O13125  10.556  11.054  11.629  0.6109 -0.6309  0.6819
   98MOL0     C13126  10.646  10.965  11.665 -0.2182 -0.3278 -0.0910
   98MOL0     C13127  10.779  11.004  11.670 -0.7470 -0.0869  0.4202
   98MOL0     C13128  10.878  10.920  11.722 -0.1148  0.9724 -1.0812
   98MOL0     C13129  10.853  10.792  11.780  0.0936 -1.0866  0.9079
   98MOL0     O13130  10.939  10.702  11.829  0.2357 -0.1253 -0.0840
   98MOL0     C13131  11.060  10.693  11.756  0.7961  0.0248  0.6609
   98MOL0     C13132  11.087  10.548  11.711 -0.0929 -0.3550  0.4808
   98MOL0     C13133  11.235  10.514  11.675  0.6081 -0.4458 -0.4881
   98MOL0     C13134  11.284  10.550  11.535 -0.0954 -0.8456 -0.8181
   98MOL0     C13135  11.432  10.495  11.503 -0.9847 -0.0430  0.8435
   98MOL0     C13136  11.537  10.538  11.603 -0.7572  0.3660  0.2723
   98MOL0     C13137  11.567  10.690  11.621  0.9149  0.0970 -0.5501
   98MOL0     C13138  11.605  10.753  11.496  0.5701 -0.9657  0.5703
   98MOL0    Cl13139  11.577  10.922  11.508  0.0964  0.2927 -0.1705
   98MOL0     C13140  10.715  10.758  11.783 -0.6915 -0.0399 -0.0032
   98MOL0     C13141  10.618  10.841  11.720 -0.0005  0.2078 -0.0048
   98MOL0     O13142  10.606  11.018  11.404 -0.3955 -0.0783  0.4517
   98MOL0     C13143  10.297  11.123  11.551  0.1318  0.6005 -0.2731
   98MOL0     C13144  10.165  11.151  11.518  0.2759  0.1989  0.1447
   98MOL0     N13145   9.682  11.582  11.049  0.2917 -0.1513 -0.1131
   98MOL0     N13146   9.653  11.699  11.029 -0.2030  0.5229  0.0194
   98MOL0     C13147  10.447  11.633  10.778 -0.1557 -0.3872  0.6433
   98MOL0     C13148  10.557  11.559  10.729  0.2108  0.1762 -0.6916
   98MOL0     C13149  10.846  11.350  10.417 -0.2253 -0.2822  1.3415
   98MOL0     C13150  10.880  11.217  10.393  0.0334  0.8664 -0.1318
   98MOL0     C13151  11.012  11.172  10.374 -0.0245 -0.8346  0.6106
   98MOL0     C13152  11.118  11.270  10.378  0.0975  1.3662  0.6732
   98MOL0     O13153  11.248  11.222  10.389  0.4363 -0.1678 -0.6538
   98MOL0     C13154  11.330  11.260  10.277 -0.1433 -0.3397 -0.1535
   98MOL0     C13155  11.420  11.144  10.254  0.0608  0.2429 -0.2946
   98MOL0     C13156  11.404  11.075  10.123 -0.7702  0.9640  0.3009
   98MOL0     C13157  11.497  10.951  10.124 -0.3263  0.7321  0.0801
   98MOL0     C13158  11.509  10.886   9.996  0.0463  1.1394 -0.1355
   98MOL0     C13159  11.518  10.829   9.887 -0.5055  0.0839  0.2931
   98MOL0     C13160  11.085  11.394  10.410 -0.5802 -0.5810 -0.9261
   98MOL0     C13161  10.957  11.438  10.424  0.0851 -0.1387 -0.0761
   98MOL0     C13162  10.931  11.582  10.462  0.7716  0.3039 -0.5317
   98MOL0     H13163  10.445  11.477  10.417  2.0007  0.2497 -0.4656
   98MOL0     H13164  10.247  11.606  10.512 -0.6033 -0.9022  1.1237
   98MOL0     H13165  10.211  11.726  10.936 -2.9215 -0.8652 -0.5405
   98MOL0     H13166  10.298  11.874  10.873 -0.0227 -0.7001  1.1389
   98MOL0     H13167   9.998  11.811  10.852  1.1598  0.0115 -0.3309
   98MOL0     H13168  10.067  11.936  10.766 -0.9467 -4.1904 -2.8761
   98MOL0     H13169  10.123  12.061  10.972 -2.1081  1.6022 -1.0079
   98MOL0     H13170  10.068  11.921  11.071 -0.8204  0.8797  0.6941
   98MOL0     H13171   9.917  12.127  10.903 -2.8846 -0.6681 -1.9016
   98MOL0     H13172   9.847  11.965  10.925  3.7580 -0.7429 -3.4994
   98MOL0     H13173   9.963  12.108  11.169  0.2706  0.2554 -2.5386
   98MOL0     H13174   9.815  12.181  11.101  1.5932  1.5804 -2.8314
   98MOL0     H13175   9.825  11.890  11.153  1.3504 -0.5907 -1.0937
   98MOL0     H13176   9.764  11.996  11.282  0.7578  1.8689 -0.4216
   98MOL0     H13177   9.648  12.001  10.998  0.8831  1.6660 -0.1621
   98MOL0     H13178   9.597  12.088  11.139  3.4965 -0.0287  3.0280
   98MOL0     H13179   9.513  11.898  11.253  2.1648 -0.3930  0.0216
   98MOL0     H13180   9.454  11.877  11.088 -1.5526 -1.2368  2.5234
   98MOL0     H13181   9.588  11.669  11.353 -2.3098  1.0074 -0.0421
   98MOL0     H13182   9.547  11.385  11.282  1.5468 -2.3129  0.5534
   98MOL0     H13183   9.647  11.329  11.137 -0.5330 -0.1918 -0.1563
   98MOL0     H13184   9.850  11.372  11.262 -1.2621 -0.7865 -0.2035
   98MOL0     H13185   9.765  11.420  11.401 -1.3636  1.3912  0.3083
   98MOL0     H13186   9.716  11.145  11.285 -2.5539  1.1318  0.9132
   98MOL0     H13187   9.680  11.194  11.443 -1.0721 -1.8941 -0.8961
   98MOL0     H13188   9.876  11.067  11.484 -1.4478  1.5579  3.9989
   98MOL0     H13189   9.894  11.235  11.515  0.7518  0.8177  0.1333
   98MOL0     H13190  10.181  11.114  11.183  2.2116 -1.7153 -1.4952
   98MOL0     H13191  10.407  11.051  11.229  1.6712  0.0191  1.3871
   98MOL0     H13192  10.799  11.099  11.622  0.6573 -0.7401 -0.3365
   98MOL0     H13193  10.978  10.962  11.733 -0.6848  2.1018  0.0673
   98MOL0     H13194  11.044  10.745  11.661 -0.1731 -0.9681  0.2593
   98MOL0     H13195  11.140  10.749  11.804 -2.6923  5.0517  1.3760
   98MOL0     H13196  11.060  10.496  11.804  1.1627  2.3906  2.5141
   98MOL0     H13197  11.024  10.530  11.624  3.1684 -1.1484 -1.9101
   98MOL0     H13198  11.298  10.556  11.754 -0.6339  0.8765 -0.1517
   98MOL0     H13199  11.240  10.407  11.695  0.0310 -0.6158 -1.2378
   98MOL0     H13200  11.272  10.657  11.516  2.0109 -0.6508 -1.2122
   98MOL0     H13201  11.213  10.506  11.464  0.2027 -1.4890 -0.7194
   98MOL0     H13202  11.465  10.515  11.401  2.2445 -0.8504  1.6204
   98MOL0     H13203  11.428  10.386  11.512  0.3800  0.0376  3.4003
   98MOL0     H13204  11.522  10.487  11.699  3.7006 -1.0246  0.4490
   98MOL0     H13205  11.636  10.498  11.578 -0.7664 -0.3307  1.2728
   98MOL0     H13206  11.644  10.703  11.697 -1.1682  4.7698  1.1322
   98MOL0     H13207  11.479  10.733  11.671 -0.7208 -1.2226 -2.1409
   98MOL0     H13208  11.710  10.729  11.477  1.0534 -0.7019  2.6690
   98MOL0     H13209  11.553  10.707  11.411 -1.3136 -1.0295  1.6881
   98MOL0     H13210  10.682  10.670  11.837 -3.5277  0.7899 -0.2143
   98MOL0     H13211  10.518  10.801  11.707 -0.3164  1.3077 -1.2087
   98MOL0     H13212  10.335  11.135  11.652 -0.1165  2.3457 -0.3520
   98MOL0     H13213  10.097  11.178  11.598  1.9437  1.9507  1.0579
   98MOL0     H13214  10.450  11.696  10.867  1.8433  1.5404 -0.6975
   98MOL0     H13215  10.647  11.561  10.790 -1.2562 -1.8736  1.7300
   98MOL0     H13216  10.798  11.146  10.402  0.6330 -0.4616 -3.6024
   98MOL0     H13217  11.049  11.072  10.356 -1.7653 -1.1846 -1.4301
   98MOL0     H13218  11.389  11.345  10.315  0.9245 -0.0510 -2.3205
   98MOL0     H13219  11.288  11.291  10.181  1.5994 -3.1909 -1.9819
   98MOL0     H13220  11.398  11.060  10.321  1.6070 -1.3729 -1.7025
   98MOL0     H13221  11.523  11.175  10.273  0.0621  1.2626 -1.7907
   98MOL0     H13222  11.435  11.130  10.034  1.7637 -1.3501 -0.3993
   98MOL0     H13223  11.306  11.030  10.111 -0.0728 -0.5406 -0.0065
   98MOL0     H13224  11.599  10.980  10.151  0.2187 -3.4749  3.6179
   98MOL0     H13225  11.460  10.877  10.195  0.4525  1.4522  1.2793
   98MOL0     H13226  11.515  10.788   9.788 -2.1206 -0.3828  0.5058
   98MOL0     H13227  11.164  11.463  10.438 -2.7037  0.7073  2.4881
   98MOL0     H13228  11.022  11.643  10.464 -0.4203  2.2033 -1.4620
   98MOL0     H13229  10.862  11.637  10.398 -1.2001  0.5883  1.6836
   98MOL0     H13230  10.887  11.593  10.562 -1.5671  0.7499 -1.5561
   99MOL0     O13231   6.318   0.990  10.810  0.0329  0.2523 -0.5131
   99MOL0     C13232   6.360   0.951  10.705 -0.0176 -0.1628  0.0493
   99MOL0     O13233   6.435   1.025  10.614  0.0108  0.2421  0.4266
   99MOL0     C13234   6.467   1.155  10.634 -0.1571 -0.3869 -0.8738
   99MOL0     C13235   6.408   1.256  10.720  0.0237  0.4495 -0.1022
   99MOL0     C13236   6.429   1.392  10.702  0.6438  0.9974 -0.7809
   99MOL0     C13237   6.515   1.438  10.608 -0.5318  0.4705  0.9483
   99MOL0     O13238   6.530   1.572  10.587 -0.8727 -0.2764  0.1796
   99MOL0     C13239   6.644   1.611  10.505 -0.1852  0.6750  0.0914
   99MOL0     C13240   6.648   1.760  10.479 -0.2745 -0.2849 -0.2683
   99MOL0     C13241   6.653   1.842  10.611  0.2863 -0.2425 -0.6626
   99MOL0     C13242   6.771   1.813  10.694 -0.2155 -0.5650 -0.3728
   99MOL0     C13243   6.907   1.855  10.636  1.1895 -0.5134 -0.4216
   99MOL0     C13244   7.023   1.810  10.725  0.2840 -1.3782  0.2260
   99MOL0     C13245   7.055   1.915  10.827  0.2319 -0.2238  1.7834
   99MOL0     C13246   7.115   1.860  10.950 -0.4918 -0.2860 -0.0851
   99MOL0     N13247   7.131   1.966  11.052 -0.3498  0.1176 -0.6052
   99MOL0     C13248   7.046   1.998  11.163  0.2872 -0.6888  0.0734
   99MOL0     C13249   7.120   2.077  11.247  0.7236  0.4084  0.5316
   99MOL0     C13250   7.089   2.114  11.385 -0.5778  0.7162 -0.0228
   99MOL0     C13251   7.116   2.256  11.430 -0.7991 -0.3310  0.4924
   99MOL0     C13252   7.047   2.369  11.359  0.8017 -1.3378 -0.1655
   99MOL0     C13253   7.022   2.489  11.452  0.5046  0.1067 -0.6843
   99MOL0     O13254   7.120   2.495  11.564 -0.0002 -0.7954 -0.3056
   99MOL0     C13255   7.250   2.534  11.526 -0.1515  0.9888 -0.0775
   99MOL0     C13256   7.284   2.631  11.429  0.4381 -0.1215 -0.2141
   99MOL0     C13257   7.417   2.683  11.415  0.6515  0.1924 -0.3181
   99MOL0     C13258   7.520   2.614  11.480  0.6218  0.1470 -0.4080
   99MOL0     C13259   7.660   2.657  11.472 -0.0399 -0.0140 -0.1492
   99MOL0     O13260   7.686   2.769  11.395  0.8285  0.3285  0.8418
   99MOL0     C13261   7.815   2.789  11.346 -0.1156 -0.7821 -0.9618
   99MOL0     C13262   7.868   2.714  11.239  0.1624 -0.3289 -0.2928
   99MOL0     C13263   7.991   2.741  11.185 -0.5472 -0.8082 -0.0494
   99MOL0     C13264   8.069   2.861  11.221  0.6464  0.5920  0.5621
   99MOL0     O13265   8.190   2.889  11.165 -0.3042 -0.0102  0.1750
   99MOL0     C13266   8.227   3.027  11.151 -0.2761 -0.0063 -0.5066
   99MOL0     C13267   8.314   3.078  11.262  0.4078  0.3872  0.4462
   99MOL0     C13268   8.451   3.004  11.259  0.0593  0.9659  0.1289
   99MOL0     C13269   8.459   2.892  11.370  0.0263 -0.3704  0.6914
   99MOL0     C13270   8.604   2.840  11.382  0.2202  0.6420 -0.0997
   99MOL0     C13271   8.665   2.771  11.251  0.6123 -0.7002  0.3784
   99MOL0     C13272   8.585   2.655  11.188  0.0605 -0.3847 -0.3699
   99MOL0     C13273   8.584   2.547  11.299  0.5987  0.3597 -0.5928
   99MOL0    Cl13274   8.486   2.416  11.253  0.4377 -0.2825  0.4493
   99MOL0     C13275   8.010   2.941  11.322  0.2075 -0.3234 -0.8984
   99MOL0     C13276   7.880   2.909  11.380 -1.4617  0.5528 -0.5513
   99MOL0     O13277   7.749   2.585  11.522 -0.7907 -0.1741  0.3297
   99MOL0     C13278   7.492   2.506  11.566 -0.0333 -0.0648 -0.8661
   99MOL0     C13279   7.360   2.469  11.588  0.6157 -0.1904 -0.6418
   99MOL0     N13280   7.242   2.100  11.189 -0.1869 -0.0103  0.0947
   99MOL0     N13281   7.244   2.047  11.067  0.4832  0.7007  0.2922
   99MOL0     C13282   6.595   1.332  10.541 -0.9873  0.1507  0.1805
   99MOL0     C13283   6.563   1.197  10.546  0.9646 -0.4152  0.4804
   99MOL0     C13284   6.314   0.817  10.668  0.4578  0.6151 -0.5370
   99MOL0     C13285   6.300   0.811  10.529  0.4158 -0.0402  0.3980
   99MOL0     C13286   6.264   0.685  10.473 -0.6986 -0.2159  0.5545
   99MOL0     C13287   6.237   0.576  10.551  0.8076 -0.9060  0.5574
   99MOL0     O13288   6.213   0.462  10.481  0.2382  0.2133 -0.4153
   99MOL0     C13289   6.085   0.406  10.515  0.6238 -0.1169  0.6736
   99MOL0     C13290   6.070   0.271  10.444 -0.2756 -0.1525 -0.2624
   99MOL0     C13291   6.066   0.276  10.293 -1.2631  0.2696  0.0648
   99MOL0     C13292   5.992   0.155  10.228 -0.0276 -0.3374 -0.0223
   99MOL0     C13293   6.044   0.031  10.266 -0.6095  0.7424 -0.6038
   99MOL0     C13294   6.089  -0.074  10.313 -0.1945 -0.0312  0.9893
   99MOL0     C13295   6.251   0.592  10.687 -0.0930  0.9388 -0.3527
   99MOL0     C13296   6.289   0.710  10.749  0.2874 -0.2930  0.0031
   99MOL0     C13297   6.285   0.728  10.898  0.5244 -0.4492 -0.3075
   99MOL0     H13298   6.338   1.219  10.794 -1.4597  1.4468 -0.9654
   99MOL0     H13299   6.361   1.460  10.752 -0.5457 -0.0258 -0.9578
   99MOL0     H13300   6.738   1.574  10.546 -0.6081 -0.7225 -0.1551
   99MOL0     H13301   6.636   1.565  10.406  0.4874 -1.6621  1.0577
   99MOL0     H13302   6.560   1.801  10.429  0.1024  1.1382  0.1718
   99MOL0     H13303   6.736   1.776  10.415 -0.0035 -1.3096 -0.1691
   99MOL0     H13304   6.558   1.825  10.663  0.1240  0.4627 -0.7193
   99MOL0     H13305   6.645   1.950  10.596 -2.9772 -0.3322 -0.4186
   99MOL0     H13306   6.758   1.868  10.787  1.7822  0.9942 -0.9456
   99MOL0     H13307   6.776   1.705  10.712  1.3555 -0.5880 -0.8186
   99MOL0     H13308   6.932   1.806  10.541  1.5039 -0.9125 -0.1343
   99MOL0     H13309   6.910   1.961  10.609  0.0311 -0.8596 -2.1029
   99MOL0     H13310   7.026   1.705  10.758 -5.2414 -1.4927  1.3097
   99MOL0     H13311   7.112   1.818  10.663  1.1584  1.2563  1.6420
   99MOL0     H13312   6.969   1.972  10.864  0.7350  0.6272  1.6693
   99MOL0     H13313   7.125   1.991  10.793  0.5055 -0.4520  1.8306
   99MOL0     H13314   7.056   1.776  10.988 -0.9808 -0.5085 -1.2839
   99MOL0     H13315   7.212   1.819  10.919  0.9003  1.2581  1.9470
   99MOL0     H13316   6.951   1.949  11.179  0.8085 -2.3250 -1.5217
   99MOL0     H13317   6.986   2.087  11.414  0.4644 -5.6692 -0.6585
   99MOL0     H13318   7.153   2.052  11.448 -1.7296 -1.1071 -0.5506
   99MOL0     H13319   7.093   2.256  11.536 -1.5082 -0.4442  0.3415
   99MOL0     H13320   7.223   2.273  11.416 -0.2950 -0.0533  4.0039
   99MOL0     H13321   6.946   2.338  11.330 -0.8151  1.7940  1.5314
   99MOL0     H13322   7.098   2.405  11.270  1.3069  2.7610  1.5559
   99MOL0     H13323   6.927   2.476  11.504 -0.4543 -0.2983 -2.4647
   99MOL0     H13324   7.016   2.584  11.399 -0.5010  0.3480 -0.1681
   99MOL0     H13325   7.215   2.694  11.374 -1.4140 -1.4051  0.5361
   99MOL0     H13326   7.442   2.765  11.349 -1.3060  0.2625 -1.0511
   99MOL0     H13327   7.806   2.629  11.210  0.3030  0.1360 -2.0803
   99MOL0     H13328   8.026   2.689  11.096 -1.4772  2.0999 -2.2593
   99MOL0     H13329   8.277   3.039  11.055  0.1589  1.4242 -0.1299
   99MOL0     H13330   8.134   3.084  11.147  1.3721  2.9314  0.2839
   99MOL0     H13331   8.335   3.184  11.248 -0.8798  0.3065 -2.9865
   99MOL0     H13332   8.267   3.061  11.359 -1.8310 -1.7028 -0.8955
   99MOL0     H13333   8.472   2.947  11.168 -1.8198  2.2612 -1.1798
   99MOL0     H13334   8.533   3.076  11.267  1.3166 -0.4053  0.0419
   99MOL0     H13335   8.387   2.813  11.346  0.3361 -0.1993 -0.9522
   99MOL0     H13336   8.435   2.944  11.463 -0.9951 -0.4503  0.4843
   99MOL0     H13337   8.612   2.786  11.477 -1.0478  2.3658  1.0271
   99MOL0     H13338   8.673   2.924  11.391  0.6005  0.5469 -1.7436
   99MOL0     H13339   8.677   2.845  11.171 -2.2505 -0.5481  0.0011
   99MOL0     H13340   8.770   2.746  11.271  1.5754  0.5766 -2.5536
   99MOL0     H13341   8.644   2.631  11.099  0.9485 -1.7153  0.5385
   99MOL0     H13342   8.481   2.683  11.170  0.1996  0.2031 -0.2605
   99MOL0     H13343   8.686   2.509  11.307  1.1934  1.6926 -1.5234
   99MOL0     H13344   8.548   2.585  11.396 -1.7578 -1.5300 -0.6221
   99MOL0     H13345   8.040   3.041  11.353 -2.9268  0.3248  0.5089
   99MOL0     H13346   7.830   2.977  11.448 -1.5977  0.9427 -1.0379
   99MOL0     H13347   7.569   2.453  11.621 -0.5022  3.1352  3.3354
   99MOL0     H13348   7.333   2.394  11.662 -2.0787  0.0495 -1.2657
   99MOL0     H13349   6.674   1.352  10.469  0.5117 -0.2001  1.6605
   99MOL0     H13350   6.607   1.126  10.477 -0.9430  2.3210 -4.0108
   99MOL0     H13351   6.318   0.897  10.466  4.6689 -1.4892 -0.7151
   99MOL0     H13352   6.255   0.681  10.365 -0.1439 -3.5686  0.5372
   99MOL0     H13353   6.020   0.487  10.479  0.1846 -1.2036 -1.1187
   99MOL0     H13354   6.078   0.390  10.623  1.6636 -2.6431  0.4267
   99MOL0     H13355   5.981   0.222  10.483 -1.7152  2.7075  0.2834
   99MOL0     H13356   6.155   0.209  10.475  0.2190  0.8647  0.4746
   99MOL0     H13357   6.171   0.269  10.265 -1.0430 -1.4852  1.1965
   99MOL0     H13358   6.025   0.373  10.263  2.0666  1.3555 -1.4332
   99MOL0     H13359   5.885   0.152  10.249 -0.0712  0.5734 -0.1080
   99MOL0     H13360   6.031   0.172  10.127 -0.5897 -2.5475 -0.6680
   99MOL0     H13361   6.120  -0.168  10.354  1.0799  0.6458  1.6492
   99MOL0     H13362   6.235   0.503  10.748  0.9378  1.2527  0.4074
   99MOL0     H13363   6.287   0.631  10.949 -1.3982 -0.8840 -0.9650
   99MOL0     H13364   6.377   0.776  10.933  0.2249 -0.2723  0.2440
   99MOL0     H13365   6.205   0.786  10.945  2.0884 -0.0927  2.0361
  100MOL0     O13366   1.142   0.613  10.027  0.2089  0.7082  0.3214
  100MOL0     C13367   1.146   0.584  10.144 -0.2091  0.3591 -0.5448
  100MOL0     O13368   1.255   0.563  10.219  0.1112 -0.3625 -0.1893
  100MOL0     C13369   1.373   0.602  10.153 -0.8317  0.0185 -1.0151
  100MOL0     C13370   1.449   0.711  10.199  0.8150 -0.4627 -0.3618
  100MOL0     C13371   1.574   0.746  10.141 -0.4321 -0.1839  0.9775
  100MOL0     C13372   1.629   0.663  10.043 -0.5187  0.2465  0.3217
  100MOL0     O13373   1.749   0.703   9.988  0.4960 -1.0284  0.2477
  100MOL0     C13374   1.750   0.762   9.857  0.2301 -0.1698 -0.0007
  100MOL0     C13375   1.816   0.903   9.848 -0.5858  0.8282  0.3157
  100MOL0     C13376   1.965   0.894   9.877  0.6283 -0.5281 -0.5753
  100MOL0     C13377   2.017   1.031   9.919 -0.6620 -0.5585  0.2388
  100MOL0     C13378   2.168   1.039   9.935 -0.4133 -0.0364  0.4923
  100MOL0     C13379   2.238   1.051   9.795  0.3917  0.6478 -0.5389
  100MOL0     C13380   2.262   1.200   9.758 -0.4484  0.2782 -0.5379
  100MOL0     C13381   2.230   1.213   9.608 -0.4965 -0.1396  0.6066
  100MOL0     N13382   2.092   1.173   9.578  0.2166 -0.2284  0.5097
  100MOL0     C13383   1.985   1.254   9.601  0.6629  0.3336  0.3295
  100MOL0     C13384   1.881   1.182   9.541 -1.4343 -0.7778 -0.1952
  100MOL0     C13385   1.740   1.219   9.557  0.0612 -0.6060 -0.2163
  100MOL0     C13386   1.707   1.256   9.709 -1.4631  0.3982  0.2887
  100MOL0     C13387   1.565   1.214   9.734  0.0402  1.1026 -0.0353
  100MOL0     C13388   1.530   1.227   9.886 -0.2954 -0.1368  0.8456
  100MOL0     O13389   1.453   1.113   9.936 -0.6293  0.6746 -0.1590
  100MOL0     C13390   1.420   1.113  10.065  0.8459  0.2902 -0.3549
  100MOL0     C13391   1.337   1.006  10.107 -0.3175 -0.3718  0.7050
  100MOL0     C13392   1.272   1.003  10.226  0.0473 -0.0123 -0.0723
  100MOL0     C13393   1.294   1.105  10.317  1.1617  0.5136  0.6813
  100MOL0     C13394   1.222   1.105  10.451 -0.9016  0.3287  0.3593
  100MOL0     O13395   1.113   1.018  10.475  0.5056  0.0479  0.4786
  100MOL0     C13396   1.050   1.042  10.595 -0.1227 -0.3610  0.2011
  100MOL0     C13397   1.076   0.978  10.719 -0.8162  0.9204  0.8102
  100MOL0     C13398   1.011   1.013  10.836 -0.5995 -0.4790  0.5044
  100MOL0     C13399   0.912   1.119  10.832  0.5522  0.2767  0.4751
  100MOL0     O13400   0.845   1.172  10.933  0.6061  0.1701 -0.1468
  100MOL0     C13401   0.849   1.098  11.053  0.5497 -0.4777 -0.3254
  100MOL0     C13402   0.769   1.183  11.148 -0.2223 -0.2855  0.0511
  100MOL0     C13403   0.785   1.141  11.297  0.9124 -0.3109  0.0826
  100MOL0     C13404   0.744   1.257  11.394  0.3090  0.1300  0.4844
  100MOL0     C13405   0.720   1.202  11.538 -0.0354  0.2859 -0.6884
  100MOL0     C13406   0.725   1.315  11.639  1.0938 -0.7339 -0.6175
  100MOL0     C13407   0.701   1.270  11.785 -0.3034  0.6675 -0.3230
  100MOL0     C13408   0.569   1.206  11.808 -0.1178  0.3011 -0.2533
  100MOL0    Cl13409   0.535   1.170  11.979  0.3289  0.1194  0.3757
  100MOL0     C13410   0.883   1.174  10.702 -0.2139 -0.0715  0.0632
  100MOL0     C13411   0.951   1.141  10.590  0.8490  0.3463 -0.0332
  100MOL0     O13412   1.264   1.184  10.536  0.0700  0.7831 -0.3510
  100MOL0     C13413   1.387   1.212  10.284  0.4179  0.1883 -0.3383
  100MOL0     C13414   1.436   1.214  10.151 -0.0836 -0.5196 -0.7401
  100MOL0     N13415   1.931   1.069   9.470 -0.1518 -0.0390 -0.4510
  100MOL0     N13416   2.058   1.060   9.495 -0.8164 -0.0972 -0.1380
  100MOL0     C13417   1.566   0.542  10.001  0.6996  0.3546 -0.4816
  100MOL0     C13418   1.428   0.518  10.051 -1.1012  0.6932 -0.5454
  100MOL0     C13419   1.009   0.543  10.201  0.2427  0.0234 -1.1592
  100MOL0     C13420   0.943   0.432  10.145  0.4160 -0.2784 -0.5578
  100MOL0     C13421   0.810   0.404  10.190  0.0235  0.0842  0.7373
  100MOL0     C13422   0.744   0.478  10.292  0.1543  1.5653 -0.4843
  100MOL0     O13423   0.621   0.434  10.340 -0.1500 -0.1749  0.2762
  100MOL0     C13424   0.507   0.466  10.253 -0.0963  0.5831  0.4110
  100MOL0     C13425   0.434   0.584  10.308  0.1004 -0.5447  0.3636
  100MOL0     C13426   0.332   0.644  10.201  0.7068 -0.0766 -0.1772
  100MOL0     C13427   0.213   0.723  10.264 -0.2970 -0.2104  0.2700
  100MOL0     C13428   0.105   0.748  10.167  0.0353 -0.2622 -0.0307
  100MOL0     C13429   0.010   0.782  10.086 -0.3878  1.1433 -0.6041
  100MOL0     C13430   0.813   0.583  10.345  0.4038  0.1737 -0.0355
  100MOL0     C13431   0.939   0.611  10.304 -0.2793 -0.4657  0.4694
  100MOL0     C13432   1.002   0.739  10.369  0.5972 -0.0894 -0.0137
  100MOL0     H13433   1.417   0.771  10.284 -0.0338 -1.5808  0.1364
  100MOL0     H13434   1.633   0.826  10.185 -2.3488 -0.0280  3.4857
  100MOL0     H13435   1.798   0.689   9.791 -1.2407 -0.3712 -0.9024
  100MOL0     H13436   1.646   0.770   9.825 -0.0457 -2.6236  0.0927
  100MOL0     H13437   1.760   0.962   9.921 -1.7069  0.4134 -0.1923
  100MOL0     H13438   1.802   0.946   9.748  0.5542  0.4779 -0.0167
  100MOL0     H13439   2.022   0.845   9.798 -2.3027 -1.4304 -2.2863
  100MOL0     H13440   1.970   0.832   9.967  0.5737  0.2457 -0.0282
  100MOL0     H13441   1.991   1.111   9.848 -0.7912 -1.8374 -1.1987
  100MOL0     H13442   1.962   1.061  10.009  1.2804  0.7595  1.0676
  100MOL0     H13443   2.190   1.119  10.006  1.5309 -0.6416  0.6313
  100MOL0     H13444   2.207   0.946   9.977 -0.0286 -0.1019 -0.0014
  100MOL0     H13445   2.333   0.999   9.785  0.7533  0.1819  3.6668
  100MOL0     H13446   2.185   1.001   9.713  1.0744  0.2109 -0.7186
  100MOL0     H13447   2.363   1.227   9.791  0.9669 -2.8466 -1.7908
  100MOL0     H13448   2.185   1.254   9.812 -0.5898 -2.8987  2.8083
  100MOL0     H13449   2.226   1.319   9.581  0.4517 -0.1474  0.4075
  100MOL0     H13450   2.291   1.156   9.537 -3.9192 -0.0049 -2.7696
  100MOL0     H13451   1.971   1.355   9.636  0.9467  0.0768  1.2204
  100MOL0     H13452   1.698   1.292   9.488 -3.2759 -0.9874  1.1754
  100MOL0     H13453   1.675   1.135   9.528 -0.2159 -0.2698 -0.5776
  100MOL0     H13454   1.776   1.201   9.773 -1.2917  0.2436 -0.0262
  100MOL0     H13455   1.720   1.365   9.717  0.1019  0.6193 -3.2059
  100MOL0     H13456   1.542   1.111   9.704 -0.9970  0.7928  1.6867
  100MOL0     H13457   1.498   1.279   9.677  1.1038 -0.3832 -3.2382
  100MOL0     H13458   1.468   1.317   9.897  0.7148  0.3321  3.0840
  100MOL0     H13459   1.627   1.248   9.932  1.4665 -1.8345 -1.8135
  100MOL0     H13460   1.339   0.916  10.047  1.3157 -0.4867  0.8666
  100MOL0     H13461   1.215   0.922  10.269  0.3965 -0.9212 -1.2531
  100MOL0     H13462   1.150   0.899  10.727  0.6727  1.9123 -1.7763
  100MOL0     H13463   1.040   0.958  10.925  0.0136 -1.5314 -0.3288
  100MOL0     H13464   0.800   1.000  11.056 -4.0609  1.6104  0.4949
  100MOL0     H13465   0.955   1.094  11.081  0.8950 -1.0750 -1.6387
  100MOL0     H13466   0.797   1.288  11.139 -1.6563  0.2050  1.0908
  100MOL0     H13467   0.665   1.175  11.116 -0.3606 -0.5582  0.5687
  100MOL0     H13468   0.714   1.060  11.316  0.4529  0.4722  1.9083
  100MOL0     H13469   0.885   1.106  11.324  0.2699 -0.5030  2.3904
  100MOL0     H13470   0.655   1.307  11.356  1.0179  0.8631 -0.2561
  100MOL0     H13471   0.825   1.330  11.399  1.6588 -1.3703  1.5904
  100MOL0     H13472   0.799   1.131  11.565 -0.5419  0.7538  2.4377
  100MOL0     H13473   0.627   1.146  11.551  0.0496  0.0686 -1.0186
  100MOL0     H13474   0.819   1.371  11.638  1.0747 -0.7038 -1.1305
  100MOL0     H13475   0.654   1.397  11.630 -0.3660 -1.8174  0.4345
  100MOL0     H13476   0.706   1.353  11.856 -2.2838 -0.7912  1.6700
  100MOL0     H13477   0.787   1.217  11.826  0.5277  0.9160 -1.7004
  100MOL0     H13478   0.480   1.259  11.772 -2.9313 -1.4541  3.3585
  100MOL0     H13479   0.574   1.113  11.751  1.1394  1.5673 -2.3371
  100MOL0     H13480   0.792   1.234  10.697  1.5643  2.7538 -2.9460
  100MOL0     H13481   0.929   1.175  10.489  0.6821  0.2786 -0.0212
  100MOL0     H13482   1.403   1.294  10.353  1.1725  1.1458 -1.6180
  100MOL0     H13483   1.482   1.304  10.110 -0.3629  1.5267  3.0387
  100MOL0     H13484   1.620   0.484   9.927  1.6812 -4.0466  3.1838
  100MOL0     H13485   1.383   0.425  10.017  1.9743 -0.4728 -1.8251
  100MOL0     H13486   0.988   0.380  10.061 -0.7875  0.2250 -1.5515
  100MOL0     H13487   0.754   0.316  10.160  1.1882 -0.5948  0.5274
  100MOL0     H13488   0.441   0.380  10.238  1.9481 -0.8104 -0.8854
  100MOL0     H13489   0.545   0.500  10.157 -0.7228  3.3708  1.0430
  100MOL0     H13490   0.513   0.658  10.324 -0.7539 -0.1378  3.2735
  100MOL0     H13491   0.380   0.557  10.399 -1.4865 -2.5973 -1.1045
  100MOL0     H13492   0.303   0.559  10.139 -1.1365 -1.3288  2.2150
  100MOL0     H13493   0.381   0.710  10.128 -1.0160  1.8370  0.3096
  100MOL0     H13494   0.170   0.663  10.344  1.4081 -1.7758  0.0641
  100MOL0     H13495   0.246   0.818  10.308 -0.6531 -0.1455  0.4045
  100MOL0     H13496  -0.073   0.815  10.027  1.1797  3.4117 -1.6545
  100MOL0     H13497   0.754   0.641  10.415 -0.4533  0.9624 -1.3651
  100MOL0     H13498   0.963   0.747  10.470  2.2166  1.8781  0.5186
  100MOL0     H13499   1.109   0.744  10.390  1.2254 -2.7328 -2.0088
  100MOL0     H13500   0.978   0.831  10.314 -0.3588  1.6808  3.1255
  101MOL0     O13501   1.258   4.941   8.262  0.2268  0.4685  0.2982
  101MOL0     C13502   1.156   4.985   8.311  0.1205  0.3266  0.2186
  101MOL0     O13503   1.130   5.117   8.335 -0.9673 -0.7621  0.7518
  101MOL0     C13504   1.227   5.211   8.296 -0.6645  0.2281  0.3832
  101MOL0     C13505   1.189   5.307   8.192 -0.2610  0.1849 -0.2571
  101MOL0     C13506   1.282   5.404   8.149 -0.7371  1.1877 -0.4450
  101MOL0     C13507   1.408   5.400   8.208 -0.8554 -0.0069  0.2521
  101MOL0     O13508   1.509   5.484   8.172 -0.1994  0.5636  0.5756
  101MOL0     C13509   1.461   5.604   8.101 -0.4697  0.2043 -0.3494
  101MOL0     C13510   1.564   5.706   8.070 -0.9183  0.4314  0.8348
  101MOL0     C13511   1.674   5.726   8.168  0.6219 -0.1055 -0.4667
  101MOL0     C13512   1.775   5.830   8.110  0.4357  0.9072 -0.1765
  101MOL0     C13513   1.878   5.850   8.224  0.2113 -0.0761 -0.1583
  101MOL0     C13514   1.996   5.935   8.168  0.1454  0.2914  0.4645
  101MOL0     C13515   1.973   6.088   8.169 -0.5763 -1.0771 -1.0430
  101MOL0     C13516   2.104   6.176   8.155  0.2263 -0.1362  0.2351
  101MOL0     N13517   2.184   6.170   8.037  0.4033  0.7337 -0.4069
  101MOL0     C13518   2.276   6.071   8.010 -0.7988 -0.3027  0.4767
  101MOL0     C13519   2.321   6.103   7.884  0.9321 -0.4942  0.0807
  101MOL0     C13520   2.428   6.043   7.804  0.1939 -0.5079  0.2075
  101MOL0     C13521   2.563   6.038   7.874 -0.1877  0.4900 -0.2969
  101MOL0     C13522   2.618   6.170   7.936  0.4654  0.2628 -0.5476
  101MOL0     C13523   2.745   6.147   8.016  0.0394  0.2279  0.4066
  101MOL0     O13524   2.856   6.114   7.925  0.4057 -0.1588 -0.4516
  101MOL0     C13525   2.984   6.092   7.970  0.4375 -0.2281 -0.1307
  101MOL0     C13526   3.026   6.103   8.103  0.2508 -0.1936 -0.0999
  101MOL0     C13527   3.163   6.074   8.131  0.5989  0.2550 -0.2502
  101MOL0     C13528   3.257   6.031   8.032 -0.2342  0.2302  0.2390
  101MOL0     C13529   3.408   6.022   8.068  0.3595  0.4116  0.2861
  101MOL0     O13530   3.489   5.957   7.970  0.2167  0.5164  0.4790
  101MOL0     C13531   3.627   5.976   7.979 -0.0658 -0.3720  0.0901
  101MOL0     C13532   3.707   5.894   8.065  0.0771  0.3416 -0.3754
  101MOL0     C13533   3.848   5.926   8.077  0.0074 -0.3378  0.2610
  101MOL0     C13534   3.906   6.027   7.996 -0.2015 -0.2936 -1.0913
  101MOL0     O13535   4.036   6.057   8.019  0.0392  0.4811 -0.0006
  101MOL0     C13536   4.103   6.158   7.938  0.0257  0.8442  0.3723
  101MOL0     C13537   4.240   6.207   7.998  0.2756 -0.1429  0.5294
  101MOL0     C13538   4.307   6.101   8.079  0.8289  0.8341  0.5776
  101MOL0     C13539   4.457   6.126   8.099  0.1507 -0.0897 -0.0885
  101MOL0     C13540   4.532   6.124   7.972  0.4884 -0.3649 -0.2802
  101MOL0     C13541   4.674   6.174   7.993 -0.8454  0.2356  0.1322
  101MOL0     C13542   4.758   6.062   8.056  0.8256  0.4948  0.8266
  101MOL0     C13543   4.913   6.085   8.046  0.6232  0.0555 -0.6691
  101MOL0    Cl13544   4.997   5.964   8.150 -0.1670  0.3537 -0.2591
  101MOL0     C13545   3.828   6.102   7.910  0.5765 -0.7547  0.0053
  101MOL0     C13546   3.690   6.079   7.901 -0.1087  0.4896 -0.8426
  101MOL0     O13547   3.451   6.061   8.180 -1.1261 -0.7801  0.1030
  101MOL0     C13548   3.199   6.014   7.902 -0.4424 -0.0280 -0.2736
  101MOL0     C13549   3.070   6.046   7.876 -0.0603  0.3514  0.0085
  101MOL0     N13550   2.245   6.217   7.849 -0.0013  0.1225  0.7504
  101MOL0     N13551   2.158   6.257   7.933 -0.6838 -0.1923 -0.0650
  101MOL0     C13552   1.450   5.306   8.299 -0.3950 -0.5517 -0.3373
  101MOL0     C13553   1.360   5.212   8.349  0.3793 -0.6284  0.5986
  101MOL0     C13554   1.030   4.895   8.332 -1.0499 -0.1479 -0.2681
  101MOL0     C13555   0.905   4.954   8.365  0.3046 -0.8431 -0.2594
  101MOL0     C13556   0.794   4.872   8.396 -0.8496 -0.3367 -0.7053
  101MOL0     C13557   0.806   4.736   8.406 -0.0636 -0.5178 -0.1765
  101MOL0     O13558   0.696   4.662   8.447 -0.2560  0.0437  0.4731
  101MOL0     C13559   0.717   4.522   8.495 -0.3769 -0.7606  0.7490
  101MOL0     C13560   0.758   4.485   8.638 -0.1316 -0.3751 -0.6686
  101MOL0     C13561   0.686   4.579   8.738 -0.6389 -0.0176 -0.3591
  101MOL0     C13562   0.760   4.580   8.877  0.0472  0.5462 -0.2802
  101MOL0     C13563   0.703   4.469   8.949 -0.2752  0.5039 -0.4609
  101MOL0     C13564   0.666   4.381   9.026 -0.4389  0.3641 -1.1810
  101MOL0     C13565   0.928   4.681   8.379 -0.2887 -0.2760 -0.4750
  101MOL0     C13566   1.037   4.758   8.334 -0.7257 -0.5180 -0.2567
  101MOL0     C13567   1.171   4.680   8.309  0.6088  0.0424  0.0546
  101MOL0     H13568   1.095   5.306   8.138 -0.7513 -1.8574  0.5482
  101MOL0     H13569   1.241   5.456   8.062 -3.0134 -0.5920 -0.5389
  101MOL0     H13570   1.416   5.586   8.003  1.2187 -0.1902 -1.1036
  101MOL0     H13571   1.387   5.654   8.164 -0.2696  1.2881 -0.9341
  101MOL0     H13572   1.503   5.794   8.048 -0.6676  0.1922 -1.0047
  101MOL0     H13573   1.599   5.680   7.970  0.8486  0.2612  1.4748
  101MOL0     H13574   1.723   5.632   8.195  0.0948  0.4250  2.7151
  101MOL0     H13575   1.620   5.750   8.260  0.5400 -2.6614  0.2235
  101MOL0     H13576   1.825   5.771   8.032 -0.1302 -1.2776  1.0339
  101MOL0     H13577   1.739   5.928   8.079  0.6120  1.1145  0.2786
  101MOL0     H13578   1.832   5.901   8.309 -0.6596  0.8083 -1.1343
  101MOL0     H13579   1.919   5.756   8.262 -3.0066 -0.7077  2.1173
  101MOL0     H13580   2.077   5.922   8.240  1.2371  1.5669 -0.4715
  101MOL0     H13581   2.033   5.900   8.071  3.1891  1.6472  1.0303
  101MOL0     H13582   1.933   6.112   8.268  0.7227  0.2389 -0.7969
  101MOL0     H13583   1.902   6.121   8.092 -1.7448  2.6349  1.3074
  101MOL0     H13584   2.067   6.279   8.158 -1.8238 -0.8497  1.9329
  101MOL0     H13585   2.171   6.155   8.238 -3.4097 -1.9914  2.9601
  101MOL0     H13586   2.308   5.982   8.063  2.8780 -0.1368 -1.1838
  101MOL0     H13587   2.393   5.949   7.760  1.0218 -0.7402  0.0199
  101MOL0     H13588   2.442   6.115   7.723 -1.8410 -0.8884 -0.5398
  101MOL0     H13589   2.566   5.957   7.948 -0.7869  1.1006  0.4204
  101MOL0     H13590   2.630   6.003   7.795 -0.3194  2.7936 -1.4927
  101MOL0     H13591   2.547   6.209   8.010 -1.8352 -1.9958 -1.4124
  101MOL0     H13592   2.619   6.255   7.867 -1.9812  2.7013  2.1514
  101MOL0     H13593   2.718   6.065   8.083 -1.0585 -0.5012 -0.8569
  101MOL0     H13594   2.764   6.237   8.073  2.9451 -0.5711  0.8508
  101MOL0     H13595   2.967   6.138   8.187  0.4265 -0.4563  0.1347
  101MOL0     H13596   3.201   6.084   8.232 -2.6808 -1.1762  1.2731
  101MOL0     H13597   3.660   5.809   8.114 -2.2203  1.9510  0.3849
  101MOL0     H13598   3.899   5.866   8.151 -2.4681 -2.3411  0.4572
  101MOL0     H13599   4.121   6.128   7.835  1.2851 -0.3295  0.8985
  101MOL0     H13600   4.042   6.248   7.928  2.5043  2.3419 -3.3512
  101MOL0     H13601   4.300   6.240   7.913  0.9990 -0.0039  1.0861
  101MOL0     H13602   4.221   6.293   8.063 -1.8644 -0.4552  0.3828
  101MOL0     H13603   4.254   6.103   8.174 -3.1882  2.1530 -1.4898
  101MOL0     H13604   4.283   6.003   8.037 -1.4710  0.9318  1.5030
  101MOL0     H13605   4.502   6.052   8.165  1.5776  1.9244  1.2972
  101MOL0     H13606   4.458   6.211   8.167 -0.5931 -1.8510  2.2470
  101MOL0     H13607   4.486   6.179   7.890 -1.7652 -0.3331  0.9001
  101MOL0     H13608   4.517   6.026   7.926  0.9442  0.5472 -2.5009
  101MOL0     H13609   4.718   6.188   7.894  1.9477 -0.8429  1.1096
  101MOL0     H13610   4.689   6.267   8.048  2.8172 -0.1910  0.1032
  101MOL0     H13611   4.742   5.970   7.999  1.3926  0.3812  0.8492
  101MOL0     H13612   4.732   6.047   8.161 -1.7700 -2.5407 -0.0735
  101MOL0     H13613   4.958   6.098   7.947 -2.3863 -1.0704 -2.2936
  101MOL0     H13614   4.926   6.178   8.102 -0.9439 -0.3671  0.4368
  101MOL0     H13615   3.866   6.193   7.865  0.6884 -0.1591  1.2661
  101MOL0     H13616   3.628   6.155   7.853  1.2518  2.5420  0.4608
  101MOL0     H13617   3.264   5.973   7.825  0.1483  2.2856 -1.0976
  101MOL0     H13618   3.039   6.041   7.772  4.9576  1.2256 -1.7951
  101MOL0     H13619   1.554   5.319   8.326  0.0777  1.2015 -2.7012
  101MOL0     H13620   1.399   5.154   8.432  0.1147  0.3059  1.4035
  101MOL0     H13621   0.887   5.060   8.377  4.0602 -0.2629  1.6486
  101MOL0     H13622   0.708   4.910   8.451  0.4758  1.0313  0.5158
  101MOL0     H13623   0.780   4.474   8.420 -1.7688  0.2258 -1.1277
  101MOL0     H13624   0.626   4.466   8.474 -0.0227 -0.7328 -1.0301
  101MOL0     H13625   0.866   4.503   8.643 -0.2756  0.3111  0.0120
  101MOL0     H13626   0.742   4.381   8.668 -1.8352  0.1587  0.4098
  101MOL0     H13627   0.586   4.538   8.758 -0.4550  0.9301  3.1985
  101MOL0     H13628   0.667   4.680   8.700 -1.5799  1.2254  3.0279
  101MOL0     H13629   0.867   4.575   8.856 -0.2308  0.9616 -1.9570
  101MOL0     H13630   0.734   4.670   8.934 -1.9418 -2.6468  4.4473
  101MOL0     H13631   0.649   4.303   9.097  2.1599 -0.0944 -0.9517
  101MOL0     H13632   0.959   4.577   8.392  1.9465  0.5790  1.9291
  101MOL0     H13633   1.198   4.665   8.204  0.5784  0.7879 -0.0648
  101MOL0     H13634   1.258   4.731   8.352 -0.1940 -0.9543  3.1531
  101MOL0     H13635   1.157   4.584   8.360 -0.5912 -0.1997 -0.6844
  102MOL0     O13636  11.310   7.855   0.631 -0.1193  0.3051 -0.0390
  102MOL0     C13637  11.333   7.834   0.752  0.9519  0.1067  0.1573
  102MOL0     O13638  11.462   7.821   0.808  0.2824  0.6077  0.2355
  102MOL0     C13639  11.573   7.837   0.739  0.1010  0.2493  1.3591
  102MOL0     C13640  11.610   7.959   0.680 -0.8224 -0.2150 -0.0477
  102MOL0     C13641  11.737   7.973   0.614  0.8553 -0.0858  0.1482
  102MOL0     C13642  11.823   7.861   0.596  1.1093 -0.9252  0.0033
  102MOL0     O13643  11.931   7.880   0.510  0.5434 -0.8314 -0.0048
  102MOL0     C13644  12.034   7.779   0.500  0.1762 -0.2970  0.8258
  102MOL0     C13645  12.131   7.781   0.617 -0.5734  0.2187 -0.9968
  102MOL0     C13646  12.236   7.886   0.596  0.5115 -0.6690 -1.2665
  102MOL0     C13647  12.352   7.864   0.681 -0.9800  0.5200  0.6449
  102MOL0     C13648  12.456   7.974   0.666 -1.2401 -0.0568  0.3772
  102MOL0     C13649  12.519   7.974   0.521  0.0706  0.6462 -0.7667
  102MOL0     C13650  12.649   8.049   0.523  0.3949  0.6231  0.7433
  102MOL0     C13651  12.763   7.981   0.607  0.0065 -0.4149 -0.5150
  102MOL0     N13652  12.899   8.001   0.541 -0.2668 -0.8122  0.1058
  102MOL0     C13653  12.987   8.101   0.568 -0.8237 -0.6247  0.8063
  102MOL0     C13654  13.083   8.093   0.479  0.3931  0.7786  0.8865
  102MOL0     C13655  13.193   8.191   0.460 -0.0159 -0.4115 -0.1875
  102MOL0     C13656  13.297   8.161   0.576  0.1409  0.0085  0.5121
  102MOL0     C13657  13.433   8.226   0.539 -0.8529  0.3434 -0.5035
  102MOL0     C13658  13.514   8.213   0.660 -0.6726 -0.0538 -0.3171
  102MOL0     O13659  13.652   8.248   0.629  0.7079  0.2365 -0.1099
  102MOL0     C13660  13.736   8.275   0.736  0.2510  0.3788  0.3256
  102MOL0     C13661  13.858   8.328   0.699 -0.6663 -0.3263  0.0043
  102MOL0     C13662  13.956   8.374   0.785 -1.1521  0.5273  0.6325
  102MOL0     C13663  13.927   8.360   0.923  0.9512 -0.0980 -0.6451
  102MOL0     C13664  14.021   8.380   1.028  0.1462 -0.7376 -0.0714
  102MOL0     O13665  14.157   8.391   0.990  0.3887  0.7331  0.5358
  102MOL0     C13666  14.262   8.379   1.080  0.1010  0.2212 -0.5076
  102MOL0     C13667  14.266   8.293   1.190 -0.4545  0.2461  0.6536
  102MOL0     C13668  14.389   8.269   1.252  0.0230  1.0342  0.5991
  102MOL0     C13669  14.499   8.335   1.221 -0.7388 -0.4429  0.4667
  102MOL0     O13670  14.619   8.330   1.282  0.5909  0.6971 -0.4384
  102MOL0     C13671  14.639   8.238   1.383 -0.0244 -0.1488 -0.1286
  102MOL0     C13672  14.769   8.280   1.460 -0.1658  0.3965 -0.1103
  102MOL0     C13673  14.787   8.202   1.595 -0.9323 -0.4430  0.3958
  102MOL0     C13674  14.918   8.246   1.662  0.0291 -0.4810  0.0213
  102MOL0     C13675  14.931   8.189   1.796 -0.2349  0.3856 -0.0975
  102MOL0     C13676  15.049   8.240   1.873  0.3590 -0.0450 -0.0779
  102MOL0     C13677  15.072   8.159   2.001  0.1892  0.4002  0.2093
  102MOL0     C13678  15.173   8.208   2.097  0.3681  0.5104  0.6111
  102MOL0    Cl13679  15.186   8.375   2.143 -0.3660 -0.2074  0.5990
  102MOL0     C13680  14.491   8.422   1.114 -0.0222 -0.4184 -0.0157
  102MOL0     C13681  14.373   8.443   1.042 -0.8719  0.4708  0.0913
  102MOL0     O13682  13.987   8.387   1.147 -0.4636 -0.7533 -0.1494
  102MOL0     C13683  13.806   8.306   0.968 -0.0718 -0.4697 -0.2865
  102MOL0     C13684  13.712   8.271   0.874 -0.1046  0.0807  0.0604
  102MOL0     N13685  13.061   7.986   0.397  0.3319  0.9243 -0.3301
  102MOL0     N13686  12.948   7.936   0.434 -0.8107  0.2689  0.4914
  102MOL0     C13687  11.778   7.745   0.661  0.2639  0.2487  0.2022
  102MOL0     C13688  11.660   7.733   0.738 -0.7090  0.1909 -1.0502
  102MOL0     C13689  11.229   7.841   0.856  0.0846 -0.2261 -0.3156
  102MOL0     C13690  11.257   7.898   0.975 -0.2121 -0.0324  0.6718
  102MOL0     C13691  11.156   7.928   1.071 -0.8858  0.7829  0.4773
  102MOL0     C13692  11.030   7.881   1.054  0.4294 -0.4716  0.3782
  102MOL0     O13693  10.927   7.873   1.145  0.0396  0.0618  0.0110
  102MOL0     C13694  10.958   7.922   1.277 -1.0037  0.3865  0.1811
  102MOL0     C13695  10.849   7.904   1.378  0.6402  0.1634  0.3479
  102MOL0     C13696  10.785   7.764   1.373  0.6529 -0.7742  0.3829
  102MOL0     C13697  10.684   7.737   1.262  0.2631  0.2076  0.8781
  102MOL0     C13698  10.618   7.615   1.291  0.5345  0.6384  0.0289
  102MOL0     C13699  10.564   7.504   1.314 -0.4827 -0.1350  0.5886
  102MOL0     C13700  10.996   7.831   0.928  0.0192 -0.3856 -1.5228
  102MOL0     C13701  11.088   7.820   0.824  0.0024 -0.3446  0.1649
  102MOL0     C13702  11.045   7.756   0.698  0.0303 -0.1918  0.1950
  102MOL0     H13703  11.561   8.055   0.695  0.4263  0.1041  2.8153
  102MOL0     H13704  11.771   8.061   0.560 -2.4450  0.9058 -0.5523
  102MOL0     H13705  11.997   7.676   0.493  1.5929 -0.7231 -1.0593
  102MOL0     H13706  12.088   7.793   0.407 -1.0856  0.1761  0.1379
  102MOL0     H13707  12.166   7.677   0.611 -0.5018  0.2544 -1.2163
  102MOL0     H13708  12.087   7.797   0.716 -0.3666  1.3982 -1.0866
  102MOL0     H13709  12.207   7.986   0.630  2.2845 -1.4093  3.0465
  102MOL0     H13710  12.258   7.895   0.489  0.2628  3.0180 -1.1403
  102MOL0     H13711  12.312   7.853   0.782 -0.8058 -1.4649  0.5386
  102MOL0     H13712  12.393   7.764   0.666  0.2202  0.8683  1.4345
  102MOL0     H13713  12.414   8.074   0.683  1.8725  2.2759 -3.5218
  102MOL0     H13714  12.532   7.949   0.740 -0.9993  0.3485  0.2743
  102MOL0     H13715  12.545   7.871   0.496 -0.9769  0.5625 -1.5821
  102MOL0     H13716  12.449   8.022   0.453  0.8025  0.6876 -1.5049
  102MOL0     H13717  12.613   8.146   0.558 -0.5574  0.9525 -1.0510
  102MOL0     H13718  12.676   8.071   0.420 -1.8029  0.1727  0.0309
  102MOL0     H13719  12.773   8.028   0.705  0.1820 -0.5281 -0.4781
  102MOL0     H13720  12.743   7.874   0.622 -0.5850 -0.8139 -3.4941
  102MOL0     H13721  12.965   8.176   0.644 -0.3372  0.7972 -0.4150
  102MOL0     H13722  13.240   8.167   0.364 -1.4172 -0.0587 -0.9991
  102MOL0     H13723  13.156   8.294   0.461  1.5514  0.1693  0.2708
  102MOL0     H13724  13.263   8.205   0.670  1.3601  0.3909  0.7920
  102MOL0     H13725  13.300   8.059   0.613  0.4706  1.4326  4.9423
  102MOL0     H13726  13.436   8.331   0.506  1.7396  0.6249  0.3585
  102MOL0     H13727  13.492   8.165   0.470 -1.8174 -3.0098  1.4393
  102MOL0     H13728  13.502   8.112   0.701  3.2237  0.1198  1.7508
  102MOL0     H13729  13.476   8.280   0.737  0.5180 -0.8040  0.9817
  102MOL0     H13730  13.880   8.317   0.593  1.0808  2.3998 -0.0224
  102MOL0     H13731  14.040   8.434   0.751 -0.4885 -0.7566 -0.0754
  102MOL0     H13732  14.175   8.246   1.225 -2.4720  1.5386 -2.4103
  102MOL0     H13733  14.393   8.181   1.314  3.6840 -0.0517 -0.8916
  102MOL0     H13734  14.559   8.248   1.457  0.3547  1.7646  0.0776
  102MOL0     H13735  14.635   8.135   1.347  0.6428 -0.0179 -0.5966
  102MOL0     H13736  14.852   8.251   1.394  1.3008  0.1373  1.7460
  102MOL0     H13737  14.773   8.387   1.484  1.2199  0.2280  0.5701
  102MOL0     H13738  14.701   8.234   1.655 -1.7197  1.1106 -1.4619
  102MOL0     H13739  14.791   8.093   1.588  0.9677 -0.6004  2.8899
  102MOL0     H13740  14.916   8.355   1.657 -1.5685 -0.1198  4.4635
  102MOL0     H13741  15.001   8.211   1.600  0.8117 -1.4986  1.5753
  102MOL0     H13742  14.937   8.080   1.797 -0.3541  0.3587 -1.1029
  102MOL0     H13743  14.837   8.208   1.850  1.3940  2.7169  2.1323
  102MOL0     H13744  15.135   8.245   1.806 -1.2241 -0.1326 -2.2188
  102MOL0     H13745  15.028   8.345   1.894  1.4368  0.0710  0.4804
  102MOL0     H13746  15.085   8.053   1.980 -1.0580  0.0641  1.0339
  102MOL0     H13747  14.977   8.167   2.053 -0.1415 -1.2974 -0.0678
  102MOL0     H13748  15.131   8.161   2.185 -0.0002 -1.5679 -0.6106
  102MOL0     H13749  15.272   8.166   2.075  2.9379  4.6864  2.8815
  102MOL0     H13750  14.569   8.484   1.072 -1.6053  1.1399 -0.8200
  102MOL0     H13751  14.367   8.505   0.953  1.3825 -0.9282 -1.1483
  102MOL0     H13752  13.773   8.284   1.069  0.0807 -0.0494 -0.1384
  102MOL0     H13753  13.613   8.246   0.910 -1.9262  5.6662 -0.1004
  102MOL0     H13754  11.833   7.652   0.649 -1.0781 -0.7376  1.4244
  102MOL0     H13755  11.631   7.644   0.793 -0.2178  1.5493  1.5394
  102MOL0     H13756  11.358   7.927   1.003 -0.6725  0.1590  2.2433
  102MOL0     H13757  11.170   7.981   1.165  0.1602 -0.8926  1.3055
  102MOL0     H13758  10.978   8.030   1.277 -2.4681  0.6794  0.1349
  102MOL0     H13759  11.048   7.871   1.313 -1.9445 -1.1552  0.4499
  102MOL0     H13760  10.769   7.977   1.362 -2.3609 -2.9991 -0.3066
  102MOL0     H13761  10.886   7.931   1.477 -0.0660  0.4826  0.5342
  102MOL0     H13762  10.738   7.725   1.463  0.8664  1.7480  1.6805
  102MOL0     H13763  10.870   7.697   1.354  0.4127 -1.2100  0.8043
  102MOL0     H13764  10.624   7.828   1.251  2.8536  2.0453  0.8925
  102MOL0     H13765  10.739   7.726   1.169  0.2173  0.9465  0.7516
  102MOL0     H13766  10.516   7.412   1.341  0.0332 -0.7670 -0.5411
  102MOL0     H13767  10.893   7.803   0.912  0.7317 -2.4046 -3.0678
  102MOL0     H13768  11.037   7.826   0.614  0.2168 -0.6410 -0.1971
  102MOL0     H13769  11.106   7.669   0.672  1.7243  0.8895  0.3701
  102MOL0     H13770  10.946   7.715   0.716  1.6996 -3.0865  4.0430
  103MOL0     O13771   6.399   0.501   0.171 -0.0151  1.0028 -0.4560
  103MOL0     C13772   6.489   0.585   0.190 -0.4233 -0.0772  0.1336
  103MOL0     O13773   6.526   0.631   0.307  0.8227 -0.0518 -0.1844
  103MOL0     C13774   6.447   0.605   0.421  0.1290  0.0152 -0.3506
  103MOL0     C13775   6.491   0.521   0.527  1.1739 -0.8705  0.7848
  103MOL0     C13776   6.406   0.477   0.634  0.1578  0.0696 -0.4383
  103MOL0     C13777   6.274   0.525   0.638  0.4837 -0.2655 -0.2269
  103MOL0     O13778   6.179   0.494   0.735 -0.4261 -0.1804  0.4502
  103MOL0     C13779   6.214   0.409   0.844  0.1989  0.0429 -0.1081
  103MOL0     C13780   6.104   0.430   0.946  0.2034 -0.8072  0.1906
  103MOL0     C13781   6.081   0.576   1.012  0.3350  0.6646 -0.7219
  103MOL0     C13782   5.962   0.656   0.957  0.0242 -0.4495  0.6945
  103MOL0     C13783   5.966   0.802   0.993 -0.0499 -0.0410  0.8865
  103MOL0     C13784   5.978   0.841   1.146  0.5538 -0.1846 -0.4451
  103MOL0     C13785   5.981   0.995   1.168  0.2484 -0.3488 -0.9532
  103MOL0     C13786   5.942   1.036   1.311  0.4863 -0.6426  0.9391
  103MOL0     N13787   6.038   1.000   1.405  0.0134 -0.0700 -0.3287
  103MOL0     C13788   6.156   1.060   1.431 -1.1131  0.1913 -0.4055
  103MOL0     C13789   6.228   0.979   1.513 -0.7532 -0.4202 -0.0740
  103MOL0     C13790   6.368   1.013   1.579  0.4650 -0.4812 -0.8567
  103MOL0     C13791   6.468   0.893   1.561  1.4538 -0.1194 -0.5066
  103MOL0     C13792   6.574   0.918   1.458  0.3783  0.9114  0.1952
  103MOL0     C13793   6.661   0.800   1.420 -0.2642  0.2418  0.3512
  103MOL0     O13794   6.748   0.750   1.522 -0.1030  0.4869 -0.7027
  103MOL0     C13795   6.845   0.654   1.500  0.7231 -0.2793 -0.2177
  103MOL0     C13796   6.942   0.636   1.594 -0.1631 -0.5258  0.0306
  103MOL0     C13797   7.041   0.535   1.577  0.7745 -0.6413  0.7120
  103MOL0     C13798   7.027   0.448   1.459  0.5175  0.0839  0.1849
  103MOL0     C13799   7.128   0.334   1.431  0.0881  0.4145 -0.5117
  103MOL0     O13800   7.245   0.337   1.507 -0.3764 -0.5901  0.0293
  103MOL0     C13801   7.337   0.240   1.477 -0.4143 -0.0037 -0.1357
  103MOL0     C13802   7.381   0.219   1.345 -0.4683 -0.0278  0.9811
  103MOL0     C13803   7.485   0.129   1.307  0.3765  0.0018 -0.4723
  103MOL0     C13804   7.555   0.067   1.417  0.3506 -0.0714 -0.3278
  103MOL0     O13805   7.668  -0.005   1.373 -0.6263  0.1505 -0.1841
  103MOL0     C13806   7.770  -0.023   1.479  0.0370  0.9714 -0.1529
  103MOL0     C13807   7.896  -0.047   1.407 -0.1205 -0.4621  0.4217
  103MOL0     C13808   8.005  -0.081   1.508 -0.0709  0.6935  0.1616
  103MOL0     C13809   8.144  -0.115   1.446  0.3194 -0.5132 -0.0556
  103MOL0     C13810   8.265  -0.120   1.540  0.8193  0.0138 -0.3416
  103MOL0     C13811   8.390  -0.145   1.461  0.0417 -0.4187 -0.3413
  103MOL0     C13812   8.513  -0.155   1.544 -0.2140  0.5016 -0.2907
  103MOL0     C13813   8.635  -0.130   1.455  0.0798 -0.1258  0.2829
  103MOL0    Cl13814   8.759  -0.219   1.544 -0.1463  0.6775 -0.3827
  103MOL0     C13815   7.508   0.089   1.550 -0.2283 -0.0390  1.0456
  103MOL0     C13816   7.400   0.168   1.580 -0.3119  0.4087  0.0215
  103MOL0     O13817   7.083   0.241   1.362  0.2918 -0.7525 -0.1822
  103MOL0     C13818   6.938   0.476   1.364  0.4526  0.3030 -0.1292
  103MOL0     C13819   6.847   0.578   1.387 -0.4113  0.4616  0.4139
  103MOL0     N13820   6.149   0.868   1.537 -0.6835 -0.3823 -0.7916
  103MOL0     N13821   6.036   0.881   1.479 -0.7104  0.2551  0.9300
  103MOL0     C13822   6.228   0.601   0.526  0.3154 -0.3149  0.1840
  103MOL0     C13823   6.312   0.651   0.425 -0.3089  0.1255 -0.1253
  103MOL0     C13824   6.555   0.661   0.070  0.5701  0.1504 -0.0252
  103MOL0     C13825   6.641   0.762   0.096 -0.4540  0.1256  0.4816
  103MOL0     C13826   6.700   0.841  -0.004  0.0808  0.0487  0.3644
  103MOL0     C13827   6.673   0.812  -0.131  0.4531  0.6238  0.8587
  103MOL0     O13828   6.745   0.874  -0.231  0.1652 -0.0178  0.3332
  103MOL0     C13829   6.723   0.860  -0.366  0.5365 -0.0107  0.4217
  103MOL0     C13830   6.639   0.985  -0.411 -0.2532  0.7623  0.7224
  103MOL0     C13831   6.680   1.123  -0.368  0.5221  0.6437 -0.8224
  103MOL0     C13832   6.562   1.197  -0.290 -0.5986 -0.6626  0.2676
  103MOL0     C13833   6.599   1.330  -0.253 -0.3317 -0.4796 -1.0703
  103MOL0     C13834   6.648   1.433  -0.217  0.3653 -0.5827  0.1078
  103MOL0     C13835   6.586   0.711  -0.156  0.5609 -0.1761 -0.4776
  103MOL0     C13836   6.524   0.635  -0.064  0.1601 -0.2513 -0.2114
  103MOL0     C13837   6.423   0.536  -0.108  0.3310  0.2801 -0.3984
  103MOL0     H13838   6.588   0.471   0.520  0.9054 -1.1978 -0.8935
  103MOL0     H13839   6.446   0.403   0.702  1.7517  1.9328  0.7595
  103MOL0     H13840   6.201   0.308   0.803 -0.3329  0.9195 -2.2674
  103MOL0     H13841   6.315   0.420   0.883  0.4201 -1.8684 -0.0631
  103MOL0     H13842   6.129   0.358   1.024  2.2745  0.1914  0.5053
  103MOL0     H13843   6.015   0.406   0.887 -0.7698  1.5770  0.5941
  103MOL0     H13844   6.161   0.649   0.995  1.0242  1.1892  3.5858
  103MOL0     H13845   6.073   0.567   1.121 -2.8178 -0.9452 -0.9918
  103MOL0     H13846   5.955   0.652   0.848 -2.9834 -2.3185  0.8353
  103MOL0     H13847   5.871   0.622   1.007 -1.1865  0.7340 -0.5966
  103MOL0     H13848   6.048   0.858   0.947 -1.2428  1.0259 -0.0239
  103MOL0     H13849   5.871   0.834   0.949 -1.2266 -1.4387  2.2839
  103MOL0     H13850   5.899   0.793   1.204 -0.1878  2.0210  0.5033
  103MOL0     H13851   6.065   0.801   1.199 -1.3718  0.9465  4.0347
  103MOL0     H13852   5.902   1.022   1.097 -0.1590 -3.7476 -1.9332
  103MOL0     H13853   6.080   1.040   1.154 -0.0971 -0.3420 -4.1241
  103MOL0     H13854   5.939   1.145   1.304 -0.5654 -0.6465  1.2713
  103MOL0     H13855   5.842   0.998   1.330 -0.2475  0.6317 -0.2464
  103MOL0     H13856   6.192   1.152   1.386  1.4901  0.6567  2.2964
  103MOL0     H13857   6.403   1.104   1.530 -1.0994  0.1512 -0.8727
  103MOL0     H13858   6.354   1.018   1.688  2.2234 -2.7036 -0.4599
  103MOL0     H13859   6.517   0.884   1.659  1.8680  1.7249 -0.5012
  103MOL0     H13860   6.421   0.796   1.543  0.8675  0.4981 -2.5508
  103MOL0     H13861   6.640   0.993   1.502  1.4948 -0.7185  1.3860
  103MOL0     H13862   6.517   0.949   1.369  0.4760 -1.9215 -0.9711
  103MOL0     H13863   6.714   0.834   1.330 -3.7469 -1.0817 -2.4590
  103MOL0     H13864   6.606   0.715   1.377  1.9920 -0.5711 -1.1092
  103MOL0     H13865   6.964   0.705   1.675  2.4668 -2.9692  1.5621
  103MOL0     H13866   7.115   0.514   1.654 -1.1192  1.3319  3.2408
  103MOL0     H13867   7.335   0.273   1.263  1.8884 -0.6467 -0.8441
  103MOL0     H13868   7.513   0.126   1.203  0.9818 -2.2462 -0.3123
  103MOL0     H13869   7.775   0.060   1.551 -2.5054  0.9038  0.2092
  103MOL0     H13870   7.748  -0.106   1.547  4.0899 -0.2955 -0.1346
  103MOL0     H13871   7.880  -0.126   1.334 -1.5301  2.4586 -2.7055
  103MOL0     H13872   7.919   0.042   1.347 -1.6500 -0.5477 -0.3506
  103MOL0     H13873   8.020   0.001   1.578  1.9170  0.0945  0.4991
  103MOL0     H13874   7.975  -0.167   1.570  0.4967  0.7581  0.5322
  103MOL0     H13875   8.174  -0.042   1.370 -0.3938 -0.7428 -0.5724
  103MOL0     H13876   8.138  -0.207   1.387 -0.7139  0.6588 -1.8931
  103MOL0     H13877   8.242  -0.209   1.599  1.5286 -0.2972 -0.5240
  103MOL0     H13878   8.271  -0.038   1.613  0.7046  0.3408 -0.6975
  103MOL0     H13879   8.362  -0.236   1.406 -1.8163  0.2754 -0.6301
  103MOL0     H13880   8.410  -0.078   1.378  1.8094  1.3560  1.4229
  103MOL0     H13881   8.504  -0.252   1.593 -1.0271  0.1018 -1.1975
  103MOL0     H13882   8.514  -0.078   1.622  1.2936 -0.6115  0.8481
  103MOL0     H13883   8.617  -0.163   1.352 -0.0942  1.5586 -0.2716
  103MOL0     H13884   8.656  -0.022   1.453 -0.9925  0.0903 -0.8811
  103MOL0     H13885   7.542   0.036   1.639 -1.6228 -1.6552  0.6783
  103MOL0     H13886   7.381   0.185   1.685 -0.7454  0.2952 -0.0352
  103MOL0     H13887   6.938   0.426   1.268 -1.3215  0.3775 -0.2015
  103MOL0     H13888   6.777   0.578   1.304  1.5630  0.1072 -1.3313
  103MOL0     H13889   6.126   0.636   0.534  1.2859  2.3653  2.6685
  103MOL0     H13890   6.280   0.721   0.348  0.7926 -1.7930 -2.4664
  103MOL0     H13891   6.661   0.794   0.198  0.4097  1.5952 -0.1245
  103MOL0     H13892   6.772   0.909   0.039  0.7152 -0.9868  0.9744
  103MOL0     H13893   6.667   0.774  -0.405  2.5032 -1.0022 -0.3825
  103MOL0     H13894   6.819   0.856  -0.417  0.2150 -2.7357 -0.1566
  103MOL0     H13895   6.537   0.954  -0.385 -0.8139  0.4434 -1.6277
  103MOL0     H13896   6.630   0.988  -0.520  0.2617  1.5955  0.6954
  103MOL0     H13897   6.710   1.172  -0.461  1.3416  1.1155 -0.3285
  103MOL0     H13898   6.766   1.109  -0.302 -0.8617 -3.4433  0.4067
  103MOL0     H13899   6.482   1.209  -0.364  1.0054  3.2659 -1.1218
  103MOL0     H13900   6.537   1.135  -0.204  0.8143 -2.9085 -0.8088
  103MOL0     H13901   6.654   1.536  -0.186 -0.4245 -1.1946  2.4416
  103MOL0     H13902   6.558   0.693  -0.259 -0.8499  0.3308 -0.2069
  103MOL0     H13903   6.324   0.580  -0.098  0.4158  0.4358 -0.2338
  103MOL0     H13904   6.440   0.506  -0.212  1.0164 -0.0733 -0.1928
  103MOL0     H13905   6.434   0.444  -0.049  1.9040  2.1795  2.5485
  104MOL0     O13906   4.375   5.684   7.447  0.1108 -0.2388 -1.2541
  104MOL0     C13907   4.396   5.751   7.343  0.9364  0.0130  0.5225
  104MOL0     O13908   4.299   5.780   7.254 -0.5380 -0.7777 -0.6597
  104MOL0     C13909   4.173   5.730   7.264 -0.1635  1.1541  0.2706
  104MOL0     C13910   4.152   5.595   7.269  1.0636 -0.9867  0.2605
  104MOL0     C13911   4.027   5.537   7.250 -0.2742  0.2596  0.2110
  104MOL0     C13912   3.917   5.620   7.231 -0.6492  0.7178 -0.8145
  104MOL0     O13913   3.799   5.564   7.208  0.6208  0.2412  0.0591
  104MOL0     C13914   3.702   5.606   7.306  0.1301  0.0555  0.8622
  104MOL0     C13915   3.570   5.550   7.241  0.1271 -0.0926 -0.4544
  104MOL0     C13916   3.569   5.402   7.275  0.6793 -0.0062  1.2030
  104MOL0     C13917   3.441   5.354   7.204  0.3399  1.0183  0.3542
  104MOL0     C13918   3.431   5.198   7.213  0.6577 -0.2984 -0.2261
  104MOL0     C13919   3.397   5.126   7.081  0.7162 -0.0869 -0.3619
  104MOL0     C13920   3.258   5.170   7.012  0.0417 -0.0836  0.0415
  104MOL0     C13921   3.148   5.121   7.104  0.0033  0.1370  0.0460
  104MOL0     N13922   3.019   5.127   7.034  0.4719 -0.6431 -0.6062
  104MOL0     C13923   2.945   5.236   6.997  0.1774 -0.4812  0.8366
  104MOL0     C13924   2.837   5.179   6.932  1.1921 -0.0886 -0.4276
  104MOL0     C13925   2.717   5.246   6.858 -0.2998  0.0602 -0.5130
  104MOL0     C13926   2.567   5.218   6.891 -0.0774 -0.7364 -0.2132
  104MOL0     C13927   2.515   5.293   7.008  1.1048 -0.0879  0.4750
  104MOL0     C13928   2.358   5.313   6.999  0.9857 -0.8457 -0.8969
  104MOL0     O13929   2.319   5.422   6.916  0.5480 -0.1351  0.4546
  104MOL0     C13930   2.324   5.552   6.972  0.0330 -0.3591 -0.3087
  104MOL0     C13931   2.304   5.652   6.874 -0.1544  0.2366  0.1908
  104MOL0     C13932   2.297   5.786   6.906 -0.0055  0.4492 -0.0334
  104MOL0     C13933   2.336   5.830   7.032 -0.8821 -0.6234  0.0255
  104MOL0     C13934   2.325   5.971   7.076 -1.2198  0.0513 -0.3804
  104MOL0     O13935   2.340   5.999   7.210 -0.6237 -0.1699  0.5486
  104MOL0     C13936   2.301   6.116   7.264 -0.2106 -1.0241 -0.9007
  104MOL0     C13937   2.186   6.194   7.232 -0.1085 -0.2796 -0.2380
  104MOL0     C13938   2.149   6.306   7.308 -0.2147  0.1707 -0.0160
  104MOL0     C13939   2.232   6.353   7.414  1.0250  0.0242  1.3124
  104MOL0     O13940   2.193   6.474   7.474  0.2995  0.1535  0.2146
  104MOL0     C13941   2.256   6.505   7.595 -0.8488 -0.0690 -0.4476
  104MOL0     C13942   2.216   6.622   7.675 -0.0676 -1.3815 -0.5777
  104MOL0     C13943   2.263   6.624   7.822 -0.0470  0.0864  0.6078
  104MOL0     C13944   2.411   6.642   7.841  0.5748  0.2722  0.5157
  104MOL0     C13945   2.449   6.667   7.983  0.4784 -0.9853 -0.8642
  104MOL0     C13946   2.568   6.587   8.033 -0.4427 -0.1057 -0.0824
  104MOL0     C13947   2.697   6.641   7.978 -0.5966 -0.3501 -0.1345
  104MOL0     C13948   2.809   6.537   8.011  0.6994  0.1505 -0.4306
  104MOL0    Cl13949   2.812   6.435   7.869  0.2604  0.4944 -0.1659
  104MOL0     C13950   2.338   6.273   7.450  0.4010 -0.2011 -0.7905
  104MOL0     C13951   2.365   6.152   7.385 -0.4532 -0.5146  1.6638
  104MOL0     O13952   2.293   6.055   6.986 -1.3171 -0.2420  0.2218
  104MOL0     C13953   2.386   5.733   7.121  0.5906  0.1975 -0.4563
  104MOL0     C13954   2.377   5.592   7.099  0.0955  0.4670 -0.2071
  104MOL0     N13955   2.854   5.041   6.922  0.7331  0.1858 -0.3042
  104MOL0     N13956   2.956   5.012   6.997  0.0068 -0.0460 -0.0175
  104MOL0     C13957   3.939   5.755   7.233  0.3039 -0.7268 -0.0240
  104MOL0     C13958   4.063   5.811   7.246  0.3354 -0.3031  0.2995
  104MOL0     C13959   4.533   5.793   7.302 -0.7719  0.2708  0.4692
  104MOL0     C13960   4.574   5.824   7.167  0.5082 -0.5526  0.7273
  104MOL0     C13961   4.709   5.846   7.124  0.1203  0.3788  0.8076
  104MOL0     C13962   4.814   5.830   7.211  0.4383 -0.0670  0.3357
  104MOL0     O13963   4.932   5.861   7.157 -0.7310  0.6672  0.2438
  104MOL0     C13964   5.050   5.847   7.247  1.1011  0.1362  0.9667
  104MOL0     C13965   5.086   5.696   7.254  0.3121 -0.0684 -0.3254
  104MOL0     C13966   5.183   5.668   7.363 -1.1950 -0.5168  0.5399
  104MOL0     C13967   5.322   5.719   7.309 -0.0843 -0.2018  0.2695
  104MOL0     C13968   5.418   5.689   7.412  0.1227  0.1636 -0.1262
  104MOL0     C13969   5.518   5.703   7.479  0.0981  0.3305 -0.2250
  104MOL0     C13970   4.780   5.812   7.347  0.5038  0.0188 -0.1414
  104MOL0     C13971   4.643   5.804   7.397 -1.0074  0.4208  0.7515
  104MOL0     C13972   4.632   5.786   7.550  0.1566  0.1561  0.2005
  104MOL0     H13973   4.240   5.533   7.281  0.9171 -0.9961  1.3846
  104MOL0     H13974   4.020   5.430   7.238  0.5798  0.3383 -1.2411
  104MOL0     H13975   3.714   5.567   7.407  0.6724  0.5344  0.9864
  104MOL0     H13976   3.690   5.715   7.310  0.6520  0.1483  0.1591
  104MOL0     H13977   3.579   5.567   7.133 -1.3499 -5.3268 -1.7239
  104MOL0     H13978   3.475   5.590   7.278 -0.3098 -2.4533  1.2554
  104MOL0     H13979   3.553   5.388   7.382  0.5208  1.8646  1.4640
  104MOL0     H13980   3.651   5.354   7.221 -0.6103  1.9466 -2.8747
  104MOL0     H13981   3.346   5.398   7.238 -1.6842 -3.4192  1.2271
  104MOL0     H13982   3.479   5.377   7.105  3.8907  0.7639  1.5274
  104MOL0     H13983   3.531   5.160   7.239 -0.2775 -1.5950  1.7885
  104MOL0     H13984   3.367   5.177   7.300 -0.6316 -0.1159 -1.0977
  104MOL0     H13985   3.479   5.148   7.013 -0.2778  0.9267 -1.2804
  104MOL0     H13986   3.393   5.018   7.100 -3.3755 -0.0148  0.2012
  104MOL0     H13987   3.243   5.137   6.909  0.8718 -1.8886  0.4662
  104MOL0     H13988   3.254   5.279   7.027  2.0608 -0.3085  3.1161
  104MOL0     H13989   3.170   5.016   7.127  2.7510  1.0995  2.4124
  104MOL0     H13990   3.139   5.182   7.194 -2.0364 -1.1524  0.7980
  104MOL0     H13991   2.957   5.342   7.016  0.5162 -0.4720  0.5818
  104MOL0     H13992   2.730   5.354   6.847  0.9741 -0.2368 -2.5284
  104MOL0     H13993   2.741   5.216   6.755  1.2559  2.4964 -0.9286
  104MOL0     H13994   2.513   5.246   6.801 -2.3681  2.1585  1.8645
  104MOL0     H13995   2.561   5.112   6.920 -1.1056 -0.9999 -1.3194
  104MOL0     H13996   2.571   5.386   7.023 -0.7270  1.1194  0.0981
  104MOL0     H13997   2.526   5.234   7.100 -1.0437 -1.8597 -0.3015
  104MOL0     H13998   2.321   5.326   7.101  0.9576 -3.1862 -0.5478
  104MOL0     H13999   2.297   5.224   6.981  0.3762 -0.9174  1.3081
  104MOL0     H14000   2.281   5.626   6.771 -1.0242  2.0884 -0.1230
  104MOL0     H14001   2.261   5.860   6.836  0.6854  0.6384 -0.1857
  104MOL0     H14002   2.128   6.183   7.142 -1.2655 -0.1737  0.4769
  104MOL0     H14003   2.072   6.367   7.264  0.2787  2.0530  1.5634
  104MOL0     H14004   2.241   6.427   7.670  1.3980 -2.0457 -1.9116
  104MOL0     H14005   2.361   6.517   7.567 -1.3508 -2.3145 -3.9364
  104MOL0     H14006   2.240   6.710   7.615  1.6284 -2.7431 -2.0071
  104MOL0     H14007   2.107   6.621   7.690 -0.0245 -1.4630 -0.2639
  104MOL0     H14008   2.211   6.707   7.870 -0.6797 -0.2828  0.5705
  104MOL0     H14009   2.231   6.539   7.883 -0.7613 -0.8942 -1.0495
  104MOL0     H14010   2.442   6.730   7.785 -3.1632  0.8812 -0.8364
  104MOL0     H14011   2.458   6.552   7.799  0.3843  0.1989  0.4601
  104MOL0     H14012   2.367   6.643   8.051  1.1254 -1.5463 -0.2620
  104MOL0     H14013   2.468   6.773   8.004  1.4669 -1.4526  0.7485
  104MOL0     H14014   2.565   6.584   8.142  0.1230 -4.7880  0.0062
  104MOL0     H14015   2.552   6.486   7.996 -4.5165 -0.4794  2.1404
  104MOL0     H14016   2.727   6.736   8.025  1.8133 -0.9156 -0.4028
  104MOL0     H14017   2.698   6.661   7.871 -1.7909  0.4047 -0.0235
  104MOL0     H14018   2.912   6.573   8.010  1.6755 -2.3138  0.6737
  104MOL0     H14019   2.800   6.481   8.105 -0.4127  0.4840 -0.3152
  104MOL0     H14020   2.400   6.298   7.536  1.1108  1.3697 -1.7322
  104MOL0     H14021   2.424   6.074   7.431 -2.0297 -4.0509 -1.7403
  104MOL0     H14022   2.414   5.763   7.221 -2.1686 -1.8543  1.0846
  104MOL0     H14023   2.420   5.524   7.172 -1.0413  0.7495  0.7504
  104MOL0     H14024   3.857   5.823   7.213  1.6311  1.0063  0.1825
  104MOL0     H14025   4.077   5.918   7.249  0.8719 -0.3387 -0.6911
  104MOL0     H14026   4.503   5.826   7.085  0.0699 -2.5921  0.9987
  104MOL0     H14027   4.729   5.872   7.021  1.0561  1.4777  1.2414
  104MOL0     H14028   5.030   5.882   7.349  2.0200  1.3008  0.7673
  104MOL0     H14029   5.119   5.911   7.191 -0.6402  1.5398  0.3273
  104MOL0     H14030   5.112   5.657   7.155 -0.3743  2.0818 -1.4063
  104MOL0     H14031   4.997   5.639   7.279  2.4355 -4.2083 -1.2539
  104MOL0     H14032   5.185   5.563   7.391  0.6364 -0.6537  0.0173
  104MOL0     H14033   5.175   5.731   7.453  0.8522 -0.2622  0.5928
  104MOL0     H14034   5.353   5.664   7.220  0.5461  0.6037 -0.0239
  104MOL0     H14035   5.334   5.826   7.289  1.7513 -0.7281 -1.8641
  104MOL0     H14036   5.613   5.709   7.527  0.1497  1.5670 -0.4308
  104MOL0     H14037   4.858   5.824   7.421  1.0802 -1.4672 -0.4753
  104MOL0     H14038   4.719   5.829   7.599  0.9928  0.0182 -1.0924
  104MOL0     H14039   4.540   5.835   7.581 -0.2245 -0.9941  0.9739
  104MOL0     H14040   4.634   5.682   7.585 -1.5202  0.5621  1.6073
  105MOL0     O14041   6.623   6.020   2.343  0.2731 -0.5953 -0.5313
  105MOL0     C14042   6.628   5.940   2.248 -0.2092  0.3048 -0.0265
  105MOL0     O14043   6.521   5.849   2.220 -0.3685 -0.6885  0.1948
  105MOL0     C14044   6.403   5.853   2.298 -0.1511  0.7105 -0.7333
  105MOL0     C14045   6.384   5.895   2.438 -0.3399  0.3226 -0.0764
  105MOL0     C14046   6.265   5.877   2.510 -0.2332  0.7357  0.5056
  105MOL0     C14047   6.152   5.816   2.448 -1.1578 -0.6241  0.3309
  105MOL0     O14048   6.030   5.800   2.516  0.7955 -0.3070 -0.2513
  105MOL0     C14049   5.907   5.798   2.442 -0.1490 -0.7609 -0.0326
  105MOL0     C14050   5.791   5.788   2.536 -0.0881  0.5761 -0.3539
  105MOL0     C14051   5.657   5.772   2.466  0.4613  0.3832 -0.1404
  105MOL0     C14052   5.542   5.754   2.561  0.2211 -0.3120 -0.2534
  105MOL0     C14053   5.419   5.715   2.489  0.3430 -0.6617  1.6612
  105MOL0     C14054   5.306   5.692   2.585 -0.4979  0.4118  0.2385
  105MOL0     C14055   5.167   5.695   2.524  0.4616  0.9601 -0.2751
  105MOL0     C14056   5.067   5.714   2.642  0.1634 -0.3583  0.5133
  105MOL0     N14057   4.922   5.683   2.615  0.2501 -0.3393  0.6452
  105MOL0     C14058   4.869   5.556   2.627 -0.4315 -0.4460 -0.2132
  105MOL0     C14059   4.740   5.571   2.622  0.0218  0.1179  0.1341
  105MOL0     C14060   4.637   5.464   2.645 -0.4410  0.5524 -0.7813
  105MOL0     C14061   4.706   5.320   2.647  0.6833  0.5394  0.6204
  105MOL0     C14062   4.717   5.280   2.798 -0.0512  0.0632 -0.0637
  105MOL0     C14063   4.847   5.323   2.866 -0.2208  0.5115 -0.4613
  105MOL0     O14064   4.960   5.259   2.807  0.1070  0.0390  0.5444
  105MOL0     C14065   5.086   5.296   2.845  0.2345  0.4273 -0.4208
  105MOL0     C14066   5.102   5.391   2.953  0.0430  1.0083 -0.1325
  105MOL0     C14067   5.233   5.426   2.989  0.3089  0.0824  0.3047
  105MOL0     C14068   5.342   5.356   2.937  0.2386 -0.4355 -0.2076
  105MOL0     C14069   5.478   5.389   2.981  0.7517 -0.5570 -0.1369
  105MOL0     O14070   5.565   5.317   2.905  0.1322 -0.5678 -0.0410
  105MOL0     C14071   5.693   5.366   2.900  0.8941 -0.6717  0.0081
  105MOL0     C14072   5.733   5.384   2.767 -0.2282 -0.1698 -0.5908
  105MOL0     C14073   5.866   5.428   2.746  0.5786  1.0197  0.4639
  105MOL0     C14074   5.952   5.458   2.851  0.3886  0.5018  0.4763
  105MOL0     O14075   6.079   5.501   2.834 -0.6093  0.0723  0.0010
  105MOL0     C14076   6.109   5.584   2.727 -0.0578  0.4908 -0.0600
  105MOL0     C14077   6.181   5.508   2.618 -0.5694 -0.1543 -0.0933
  105MOL0     C14078   6.326   5.490   2.660 -0.6075  0.6621 -0.2567
  105MOL0     C14079   6.408   5.405   2.562  0.0502  0.4204 -0.0060
  105MOL0     C14080   6.518   5.485   2.495  0.3920 -0.2890  0.3158
  105MOL0     C14081   6.616   5.390   2.443 -0.7240  0.2559  0.3826
  105MOL0     C14082   6.743   5.456   2.369 -0.3533  0.1633 -0.5253
  105MOL0     C14083   6.757   5.386   2.234  0.2180 -0.0948  0.4372
  105MOL0    Cl14084   6.921   5.444   2.186  0.2694 -0.1030 -0.3910
  105MOL0     C14085   5.907   5.451   2.986 -0.0415 -0.6158  0.2682
  105MOL0     C14086   5.775   5.406   3.005 -0.3431 -0.9453 -0.2466
  105MOL0     O14087   5.494   5.484   3.056 -0.9364 -0.6783 -0.8899
  105MOL0     C14088   5.324   5.267   2.836 -0.2179 -0.2545  0.3781
  105MOL0     C14089   5.195   5.238   2.793 -0.7508 -0.0626  0.0779
  105MOL0     N14090   4.707   5.703   2.616  0.0041  0.1085  0.3071
  105MOL0     N14091   4.815   5.772   2.614 -1.1321 -0.9507  0.2350
  105MOL0     C14092   6.164   5.780   2.310 -0.1438 -0.2298  0.5946
  105MOL0     C14093   6.286   5.799   2.243  0.5684 -1.4353  0.5324
  105MOL0     C14094   6.735   5.965   2.148 -0.2426 -0.3949  0.2513
  105MOL0     C14095   6.775   6.100   2.132 -0.3134  0.6489  0.0998
  105MOL0     C14096   6.892   6.134   2.073 -0.1561 -0.1793 -0.0636
  105MOL0     C14097   6.966   6.031   2.002  1.4506 -1.1553  0.2501
  105MOL0     O14098   7.088   6.059   1.947  0.2682 -0.3672  0.2162
  105MOL0     C14099   7.154   6.182   1.964 -0.4913 -0.5251  1.2222
  105MOL0     C14100   7.307   6.156   1.944  0.6012 -0.1587 -0.5913
  105MOL0     C14101   7.382   6.053   2.034 -0.7879 -0.0876  0.1691
  105MOL0     C14102   7.397   6.075   2.192  0.2753  0.4752 -1.2470
  105MOL0     C14103   7.483   6.191   2.221 -0.1327 -0.1344 -0.2850
  105MOL0     C14104   7.539   6.292   2.259  0.0474  1.3512 -0.1570
  105MOL0     C14105   6.923   5.900   1.991 -1.2038 -0.5171  0.2768
  105MOL0     C14106   6.808   5.864   2.066  0.0134  0.1711  0.1209
  105MOL0     C14107   6.748   5.730   2.067  0.1160  0.4237  0.0063
  105MOL0     H14108   6.470   5.932   2.495  1.5388 -4.9213  1.1430
  105MOL0     H14109   6.256   5.914   2.612  0.6237 -2.0194  1.6630
  105MOL0     H14110   5.886   5.887   2.382  3.4670  0.8909  0.9440
  105MOL0     H14111   5.895   5.710   2.378  1.0091 -1.3951  0.6076
  105MOL0     H14112   5.770   5.881   2.591 -1.6085 -0.9170  1.7060
  105MOL0     H14113   5.817   5.703   2.598 -2.2976  0.4202  0.4424
  105MOL0     H14114   5.660   5.674   2.416  3.6520 -0.1867  0.9478
  105MOL0     H14115   5.640   5.836   2.379  0.9541 -0.6306 -1.0069
  105MOL0     H14116   5.574   5.668   2.621  1.2209 -0.0060 -0.3255
  105MOL0     H14117   5.524   5.850   2.610 -2.5813 -2.2649  2.9724
  105MOL0     H14118   5.390   5.785   2.410  3.0631 -1.8554 -0.5737
  105MOL0     H14119   5.442   5.625   2.431  2.5728 -0.5506  2.2893
  105MOL0     H14120   5.326   5.596   2.634 -1.8309 -0.3748 -0.6929
  105MOL0     H14121   5.308   5.774   2.657  2.4846  2.7081 -2.1387
  105MOL0     H14122   5.149   5.604   2.466  1.5209  1.0781 -0.7996
  105MOL0     H14123   5.161   5.775   2.449  1.6432 -2.3419 -4.2406
  105MOL0     H14124   5.090   5.659   2.734  1.6174  2.8425  2.2605
  105MOL0     H14125   5.077   5.821   2.666  1.1632 -0.4376  0.5064
  105MOL0     H14126   4.931   5.467   2.624  1.6744  0.9000  0.7366
  105MOL0     H14127   4.574   5.488   2.732  0.7409 -1.0689  0.5975
  105MOL0     H14128   4.577   5.460   2.554 -0.4988  0.2957 -0.7330
  105MOL0     H14129   4.639   5.250   2.597 -0.9899  1.3970  1.5824
  105MOL0     H14130   4.798   5.313   2.587 -0.7060 -0.7942 -1.4906
  105MOL0     H14131   4.714   5.171   2.798 -0.8218  0.0765  0.2081
  105MOL0     H14132   4.631   5.318   2.855  1.9181  3.6313  0.8252
  105MOL0     H14133   4.838   5.290   2.970 -2.2339 -3.5372 -1.7119
  105MOL0     H14134   4.863   5.431   2.877 -1.4293  0.7012 -0.3868
  105MOL0     H14135   5.025   5.443   3.008  1.3182  0.2658  2.5408
  105MOL0     H14136   5.247   5.518   3.046 -0.4097  0.8278 -0.6928
  105MOL0     H14137   5.665   5.358   2.687 -0.3090  1.3180 -1.0265
  105MOL0     H14138   5.899   5.455   2.646  3.0728  2.8961  1.6864
  105MOL0     H14139   6.016   5.633   2.695 -1.3061 -0.2389  2.2068
  105MOL0     H14140   6.179   5.661   2.761  1.7040 -1.4668  0.9207
  105MOL0     H14141   6.138   5.409   2.606  4.8463 -3.1311  1.6814
  105MOL0     H14142   6.186   5.565   2.525  0.3383  0.5114  0.3470
  105MOL0     H14143   6.371   5.590   2.667 -1.7776  1.0875  2.7801
  105MOL0     H14144   6.311   5.437   2.755 -3.5023 -0.5772 -1.2819
  105MOL0     H14145   6.352   5.337   2.497  0.1704 -1.4047  1.6955
  105MOL0     H14146   6.455   5.340   2.638 -2.8709  0.3625  1.9172
  105MOL0     H14147   6.560   5.548   2.574  3.6626 -1.5202 -0.2941
  105MOL0     H14148   6.471   5.537   2.411  1.1975 -2.1459 -1.3566
  105MOL0     H14149   6.660   5.333   2.526  1.7804 -0.4948 -1.3459
  105MOL0     H14150   6.573   5.315   2.376  1.4350 -2.4725  1.8098
  105MOL0     H14151   6.836   5.443   2.425  0.3089 -0.1073 -1.6292
  105MOL0     H14152   6.719   5.561   2.348 -7.3586 -0.4428  1.9037
  105MOL0     H14153   6.766   5.277   2.227  1.6182  0.1021 -2.4830
  105MOL0     H14154   6.676   5.419   2.168  1.2823 -0.7541 -1.2802
  105MOL0     H14155   5.966   5.468   3.076  2.2185 -1.0905 -1.0650
  105MOL0     H14156   5.737   5.396   3.106 -4.5374 -3.5595 -1.8280
  105MOL0     H14157   5.406   5.217   2.786 -0.8941 -0.2694 -0.7540
  105MOL0     H14158   5.186   5.161   2.717  1.8245 -0.6002  0.2274
  105MOL0     H14159   6.082   5.737   2.254  0.8332 -0.8176 -0.4056
  105MOL0     H14160   6.287   5.744   2.150 -2.3432 -4.1109  1.8890
  105MOL0     H14161   6.707   6.167   2.182 -0.5495  0.1276  0.4953
  105MOL0     H14162   6.936   6.233   2.075 -1.4807  0.4131  1.6013
  105MOL0     H14163   7.140   6.210   2.068 -0.1008 -0.0925  1.1645
  105MOL0     H14164   7.111   6.244   1.885  2.7617 -1.0161 -1.1985
  105MOL0     H14165   7.365   6.248   1.957 -0.8963  0.7463 -0.0290
  105MOL0     H14166   7.321   6.126   1.839 -2.2414 -0.4914 -0.9395
  105MOL0     H14167   7.482   6.037   1.993 -0.7680 -1.8333  0.8249
  105MOL0     H14168   7.330   5.957   2.025  1.4330 -1.3762  0.2898
  105MOL0     H14169   7.304   6.100   2.242  0.6685  1.1820 -0.8515
  105MOL0     H14170   7.430   5.986   2.247 -3.9559  1.2465  3.1538
  105MOL0     H14171   7.592   6.379   2.294  1.4140 -0.6888  3.4111
  105MOL0     H14172   6.985   5.828   1.938 -1.5089 -0.1248 -0.6270
  105MOL0     H14173   6.727   5.689   2.166 -0.2932  0.9208  0.1290
  105MOL0     H14174   6.654   5.733   2.011 -0.9347  4.1099  1.6697
  105MOL0     H14175   6.814   5.651   2.029  0.7944  0.8924  0.1789
  106MOL0     O14176   4.033  10.408   0.072 -0.3042  0.1180 -0.2486
  106MOL0     C14177   4.135  10.357   0.115  0.6973 -0.5369 -0.2682
  106MOL0     O14178   4.252  10.362   0.044  0.4551  0.0560 -0.3172
  106MOL0     C14179   4.248  10.388  -0.092  0.3408 -0.2795 -0.1017
  106MOL0     C14180   4.332  10.487  -0.151 -0.4485  0.4387  0.0841
  106MOL0     C14181   4.329  10.540  -0.273 -0.0127 -0.3546 -0.9271
  106MOL0     C14182   4.217  10.500  -0.351 -0.4275 -0.3691 -0.0396
  106MOL0     O14183   4.196  10.567  -0.469 -0.3113 -0.7321 -0.5081
  106MOL0     C14184   4.068  10.588  -0.528  0.2203  0.0198  0.7411
  106MOL0     C14185   4.077  10.633  -0.675 -0.0909  0.1812  0.9022
  106MOL0     C14186   4.119  10.500  -0.754 -0.5228  0.2879  1.0698
  106MOL0     C14187   4.141  10.539  -0.897 -0.5222  0.3334  0.0994
  106MOL0     C14188   4.173  10.409  -0.972 -0.1755 -0.5167  0.1468
  106MOL0     C14189   4.175  10.417  -1.120 -0.3817  0.5286  1.2559
  106MOL0     C14190   4.241  10.292  -1.189  0.7359 -0.0708  0.6882
  106MOL0     C14191   4.222  10.299  -1.336  0.6031 -0.0444  1.2177
  106MOL0     N14192   4.080  10.281  -1.383  0.1760 -0.0299  0.5393
  106MOL0     C14193   4.023  10.375  -1.459  0.5235  0.6439 -0.7326
  106MOL0     C14194   3.904  10.326  -1.497 -0.4053  0.2391  0.5662
  106MOL0     C14195   3.795  10.378  -1.590  0.5062 -0.1885  0.4070
  106MOL0     C14196   3.803  10.536  -1.606  0.3144 -0.7174 -0.5565
  106MOL0     C14197   3.899  10.578  -1.721 -0.3536  0.0335  0.3350
  106MOL0     C14198   3.821  10.549  -1.844 -0.5432 -0.1205  0.7452
  106MOL0     O14199   3.898  10.593  -1.961  0.6854  0.7494 -0.0941
  106MOL0     C14200   4.019  10.535  -1.987  0.4652  0.1112 -1.0979
  106MOL0     C14201   4.120  10.622  -2.034  0.2609 -0.1712 -0.0171
  106MOL0     C14202   4.246  10.576  -2.070  0.4775  0.1153 -0.4098
  106MOL0     C14203   4.269  10.438  -2.064  0.7584  0.5555  0.7415
  106MOL0     C14204   4.396  10.379  -2.115 -0.6923 -0.1535 -0.6375
  106MOL0     O14205   4.392  10.263  -2.176 -0.3621 -0.3540  0.0876
  106MOL0     C14206   4.511  10.205  -2.220 -0.8068 -0.4097  1.0104
  106MOL0     C14207   4.609  10.180  -2.128 -0.6784 -0.2914  0.1911
  106MOL0     C14208   4.735  10.126  -2.167  0.5083 -0.5593  0.3021
  106MOL0     C14209   4.755  10.089  -2.298 -0.5953  0.4852  0.9647
  106MOL0     O14210   4.867  10.020  -2.325 -0.6046  0.6176 -0.4713
  106MOL0     C14211   4.909   9.997  -2.456  0.2583  0.7690  0.3488
  106MOL0     C14212   5.060   9.961  -2.461 -0.0729 -0.4282 -1.3993
  106MOL0     C14213   5.132  10.011  -2.584 -0.0668  1.0260 -0.5600
  106MOL0     C14214   5.275   9.973  -2.560 -0.2662  0.2155 -0.1128
  106MOL0     C14215   5.348  10.077  -2.481 -0.1953  0.2398  0.2721
  106MOL0     C14216   5.498  10.046  -2.458 -0.0257 -0.6896 -0.0183
  106MOL0     C14217   5.572  10.172  -2.414 -0.2646 -0.6631  0.2245
  106MOL0     C14218   5.728  10.164  -2.409  0.7754 -0.1555  0.1465
  106MOL0    Cl14219   5.794  10.171  -2.573 -0.1606  0.0696  0.2217
  106MOL0     C14220   4.650  10.115  -2.396  0.1687  0.3303  0.1620
  106MOL0     C14221   4.519  10.172  -2.354 -1.5284  0.3570  0.1855
  106MOL0     O14222   4.498  10.447  -2.091  0.7490  0.4736 -1.0594
  106MOL0     C14223   4.175  10.347  -2.014 -0.3669 -0.0199 -0.0118
  106MOL0     C14224   4.050  10.403  -1.978  0.2532  0.0341  0.5023
  106MOL0     N14225   3.892  10.201  -1.448 -0.3753  0.1761 -1.1109
  106MOL0     N14226   4.000  10.173  -1.378  0.2034  0.4854  0.7098
  106MOL0     C14227   4.128  10.407  -0.298  0.3188  0.2222  0.7872
  106MOL0     C14228   4.142  10.347  -0.177 -0.2915 -0.4972 -0.3269
  106MOL0     C14229   4.145  10.313   0.252 -0.5511 -0.4332  0.3381
  106MOL0     C14230   4.277  10.295   0.306 -0.2287 -0.4479 -0.1049
  106MOL0     C14231   4.294  10.238   0.429  0.1873 -0.0069 -0.6732
  106MOL0     C14232   4.189  10.206   0.517 -0.9020  0.0391  0.6645
  106MOL0     O14233   4.215  10.169   0.645  0.1698  0.5606 -0.1565
  106MOL0     C14234   4.129  10.063   0.698 -1.0709 -0.3046 -0.2242
  106MOL0     C14235   4.205  10.004   0.816 -0.3767  0.3849  0.2099
  106MOL0     C14236   4.178   9.859   0.857  0.5464 -0.3785  0.1604
  106MOL0     C14237   4.275   9.845   0.987 -1.0535 -0.7741 -0.1775
  106MOL0     C14238   4.205   9.910   1.106  0.2908  0.6721 -0.0640
  106MOL0     C14239   4.152   9.929   1.211 -0.7374 -0.3230  0.8996
  106MOL0     C14240   4.058  10.236   0.465 -0.4134  0.2717 -0.9933
  106MOL0     C14241   4.036  10.281   0.338  0.5529 -0.2192  0.2358
  106MOL0     C14242   3.889  10.301   0.315  0.4345  0.5837  0.1288
  106MOL0     H14243   4.414  10.513  -0.086 -0.5279 -0.1280  0.4146
  106MOL0     H14244   4.394  10.616  -0.314  0.5605 -1.1908 -1.5823
  106MOL0     H14245   3.994  10.507  -0.531  1.7609 -1.4109 -1.7964
  106MOL0     H14246   4.018  10.675  -0.482  0.5209  0.4510  0.2655
  106MOL0     H14247   4.156  10.708  -0.684  0.5383 -0.4520  0.9529
  106MOL0     H14248   3.983  10.678  -0.709  1.1029  2.2190  0.1240
  106MOL0     H14249   4.048  10.418  -0.743 -1.2067  0.6857 -0.2593
  106MOL0     H14250   4.216  10.479  -0.708  1.6574  2.4110 -2.1546
  106MOL0     H14251   4.052  10.577  -0.949  1.2234  1.2662 -2.3703
  106MOL0     H14252   4.212  10.621  -0.913  1.3642 -1.0169  1.2667
  106MOL0     H14253   4.271  10.376  -0.934 -0.0941 -1.9273 -1.1657
  106MOL0     H14254   4.106  10.324  -0.958  0.6998 -1.1542  0.5797
  106MOL0     H14255   4.069  10.423  -1.147 -0.5320  0.1082  1.7222
  106MOL0     H14256   4.214  10.509  -1.164 -0.9900 -0.3596 -1.2756
  106MOL0     H14257   4.201  10.200  -1.146 -1.7542  0.5608 -0.1286
  106MOL0     H14258   4.350  10.295  -1.179  0.9897 -0.8412 -1.4519
  106MOL0     H14259   4.265  10.393  -1.371  1.8779 -0.9220  0.3269
  106MOL0     H14260   4.279  10.217  -1.381 -3.7928 -2.3462 -0.8621
  106MOL0     H14261   4.070  10.470  -1.484  4.7511 -0.5133  1.8106
  106MOL0     H14262   3.805  10.331  -1.688  1.5373  2.4423 -0.8308
  106MOL0     H14263   3.699  10.350  -1.545  0.3187  1.2916  0.9603
  106MOL0     H14264   3.707  10.588  -1.614  0.2660 -0.9799 -2.1124
  106MOL0     H14265   3.843  10.583  -1.516  0.1883 -3.8541  1.2490
  106MOL0     H14266   3.995  10.526  -1.712  1.2102  1.4779 -4.5537
  106MOL0     H14267   3.921  10.684  -1.702  0.6350 -0.2020  0.5531
  106MOL0     H14268   3.734  10.615  -1.832  0.1400  1.1013 -0.8213
  106MOL0     H14269   3.799  10.442  -1.849 -1.4573 -0.0355  2.1714
  106MOL0     H14270   4.091  10.725  -2.053  0.7781  0.1205  0.7585
  106MOL0     H14271   4.329  10.639  -2.102 -1.3702  2.5883 -0.5944
  106MOL0     H14272   4.602  10.212  -2.025 -0.7315 -0.5053  0.2542
  106MOL0     H14273   4.825  10.125  -2.107 -0.5634 -2.2575  2.0218
  106MOL0     H14274   4.853   9.924  -2.514 -2.1513  2.6259  0.1614
  106MOL0     H14275   4.908  10.096  -2.504 -0.4012  1.0242  0.8685
  106MOL0     H14276   5.096   9.988  -2.361 -1.5397  1.2009 -1.2595
  106MOL0     H14277   5.060   9.852  -2.455 -0.7213 -0.3590  1.1985
  106MOL0     H14278   5.091   9.957  -2.669 -2.6258  0.4351  0.9298
  106MOL0     H14279   5.122  10.120  -2.592 -0.1288  0.9252 -1.9143
  106MOL0     H14280   5.316   9.971  -2.662  0.5756  1.4344  0.1846
  106MOL0     H14281   5.281   9.872  -2.519 -1.5828 -0.0133 -0.4310
  106MOL0     H14282   5.294  10.073  -2.386 -1.0703  1.6334 -0.1240
  106MOL0     H14283   5.338  10.170  -2.539  4.1726  0.1268 -0.9688
  106MOL0     H14284   5.507   9.957  -2.395 -0.3598  0.5750  1.8811
  106MOL0     H14285   5.568  10.017  -2.537  2.5396 -1.0608  2.2391
  106MOL0     H14286   5.532  10.201  -2.316  1.7294 -0.4345  1.0132
  106MOL0     H14287   5.546  10.249  -2.487  1.2273 -1.4208 -1.1582
  106MOL0     H14288   5.768  10.259  -2.371 -0.9798  0.9843 -0.6989
  106MOL0     H14289   5.758  10.078  -2.350  0.6975 -0.0938  0.2779
  106MOL0     H14290   4.664  10.078  -2.497 -2.1828 -3.5723  1.0522
  106MOL0     H14291   4.440  10.194  -2.425 -0.9731  0.0308 -0.5490
  106MOL0     H14292   4.189  10.239  -2.019  0.7441 -0.1691  3.5389
  106MOL0     H14293   3.978  10.330  -1.940 -1.0959  2.1575  2.2550
  106MOL0     H14294   4.045  10.377  -0.361  2.8407 -0.7902 -2.3704
  106MOL0     H14295   4.064  10.274  -0.155 -0.8807  0.1163 -0.3405
  106MOL0     H14296   4.364  10.329   0.250 -0.3563 -0.4749 -0.3213
  106MOL0     H14297   4.390  10.219   0.476  0.0518 -1.3262 -0.8862
  106MOL0     H14298   4.108   9.985   0.625 -1.3059  0.8773 -1.4613
  106MOL0     H14299   4.031  10.102   0.726 -0.6715 -0.1167  0.9668
  106MOL0     H14300   4.197  10.065   0.907  0.0543 -0.9124  1.1581
  106MOL0     H14301   4.309  10.014   0.785 -0.8072  1.4696 -0.9753
  106MOL0     H14302   4.195   9.789   0.774  0.3649 -0.5361  0.2524
  106MOL0     H14303   4.074   9.836   0.885  0.4671 -0.4110 -0.1539
  106MOL0     H14304   4.290   9.740   1.013  1.1112 -0.0770  1.6537
  106MOL0     H14305   4.377   9.882   0.971 -0.8179 -0.5284  1.6976
  106MOL0     H14306   4.105   9.957   1.303 -0.0315  2.8673  0.4188
  106MOL0     H14307   3.979  10.227   0.539 -1.8023  1.9436 -2.1852
  106MOL0     H14308   3.829  10.283   0.404  0.9817 -1.8536  0.0752
  106MOL0     H14309   3.862  10.404   0.291 -0.7295  0.1847 -0.3679
  106MOL0     H14310   3.854  10.227   0.242 -2.3000  1.1484  0.7854
  107MOL0     O14311   6.166   7.084   0.564  0.2826  0.4107  0.3407
  107MOL0     C14312   6.209   7.063   0.680  0.4180  0.3743  0.0592
  107MOL0     O14313   6.283   7.156   0.751  0.3523  0.1416 -0.4155
  107MOL0     C14314   6.291   7.284   0.696  0.1735  1.4803  0.4731
  107MOL0     C14315   6.177   7.359   0.667 -0.0406 -0.4980  0.3593
  107MOL0     C14316   6.187   7.488   0.630 -0.5635 -1.7647 -0.3390
  107MOL0     C14317   6.307   7.557   0.617 -0.3700  1.2980 -0.1092
  107MOL0     O14318   6.301   7.685   0.560 -0.2065  0.3810  0.4889
  107MOL0     C14319   6.423   7.746   0.531 -0.3173 -0.2718  0.5729
  107MOL0     C14320   6.406   7.901   0.537 -0.8955  0.7273  0.2302
  107MOL0     C14321   6.505   7.962   0.455 -0.5606 -0.0726  0.4134
  107MOL0     C14322   6.632   8.012   0.537  0.9371  0.1934 -1.3368
  107MOL0     C14323   6.721   8.124   0.477 -0.8014 -0.7048 -0.2332
  107MOL0     C14324   6.754   8.104   0.334 -0.0268 -0.3201  0.0717
  107MOL0     C14325   6.825   8.229   0.275 -0.0127 -0.9860 -0.6726
  107MOL0     C14326   6.729   8.350   0.260  0.6938 -0.4446  0.0937
  107MOL0     N14327   6.776   8.452   0.165  0.6664 -0.4427 -0.0915
  107MOL0     C14328   6.905   8.490   0.165 -1.2494 -0.0475  0.5780
  107MOL0     C14329   6.914   8.540   0.036  0.2572  0.2856 -0.5901
  107MOL0     C14330   7.041   8.574  -0.040 -0.3415  0.1209 -0.8348
  107MOL0     C14331   7.181   8.559   0.028  0.5578  0.5954  0.6003
  107MOL0     C14332   7.288   8.586  -0.080 -0.1957 -1.2911  0.2428
  107MOL0     C14333   7.426   8.567  -0.010 -0.4335 -1.1940 -0.3266
  107MOL0     O14334   7.515   8.670  -0.068 -0.6244  0.4246  0.4156
  107MOL0     C14335   7.632   8.693  -0.003  0.1309 -0.4492 -0.4229
  107MOL0     C14336   7.683   8.623   0.098  0.1649 -0.0105  0.1812
  107MOL0     C14337   7.801   8.645   0.168  0.3602  0.3257 -0.5418
  107MOL0     C14338   7.880   8.751   0.120  1.0139 -0.9402 -0.4857
  107MOL0     C14339   8.007   8.778   0.190  0.4001 -0.7845 -0.8518
  107MOL0     O14340   8.025   8.701   0.300 -0.0587  0.3041 -0.6802
  107MOL0     C14341   8.148   8.707   0.362  0.1161 -0.6489  0.7585
  107MOL0     C14342   8.163   8.777   0.480 -0.4148 -0.7797  0.2670
  107MOL0     C14343   8.287   8.786   0.542  0.5534  0.0318 -0.0113
  107MOL0     C14344   8.391   8.707   0.497 -0.4394 -0.6397 -0.0996
  107MOL0     O14345   8.518   8.696   0.544 -0.1528 -0.5620  0.2786
  107MOL0     C14346   8.569   8.791   0.634 -0.2783  0.1273 -0.8029
  107MOL0     C14347   8.719   8.804   0.635  0.2292  0.4287  0.3095
  107MOL0     C14348   8.781   8.875   0.516  0.4013 -0.0006 -0.4171
  107MOL0     C14349   8.922   8.813   0.494  0.5556 -1.5362 -0.6481
  107MOL0     C14350   8.986   8.857   0.371  0.9218  0.6856  0.5914
  107MOL0     C14351   9.037   9.002   0.388 -0.2347  1.0107 -0.4041
  107MOL0     C14352   9.126   9.042   0.279  0.6111 -0.3266  0.7013
  107MOL0     C14353   9.047   9.029   0.148 -0.2308  0.2770 -0.8066
  107MOL0    Cl14354   8.881   9.109   0.138 -0.1955 -0.1194 -0.1364
  107MOL0     C14355   8.372   8.625   0.387 -0.1171 -0.5339  1.0686
  107MOL0     C14356   8.249   8.624   0.316 -0.1104  0.6731  0.3860
  107MOL0     O14357   8.069   8.882   0.167 -0.4176  0.3732  0.7546
  107MOL0     C14358   7.833   8.827   0.014 -0.1890 -0.5927 -0.9333
  107MOL0     C14359   7.710   8.807  -0.042 -0.9232 -0.5512 -0.0265
  107MOL0     N14360   6.787   8.541  -0.023  0.7345 -0.0819  0.5266
  107MOL0     N14361   6.705   8.493   0.060  0.2319  0.3929  0.3879
  107MOL0     C14362   6.421   7.479   0.643  0.1567  0.4287  0.7657
  107MOL0     C14363   6.415   7.351   0.689 -0.2835 -0.3974 -0.2193
  107MOL0     C14364   6.170   6.934   0.739 -0.9087  0.0818 -0.1776
  107MOL0     C14365   6.053   6.860   0.695 -1.1898  0.3195  0.2794
  107MOL0     C14366   6.015   6.742   0.753 -0.2442 -0.5130 -0.4561
  107MOL0     C14367   6.082   6.697   0.868 -1.2654  0.4639 -0.2395
  107MOL0     O14368   6.034   6.584   0.926 -0.3340 -0.0499  0.0184
  107MOL0     C14369   6.095   6.543   1.051 -0.5205  0.5526  0.2711
  107MOL0     C14370   6.051   6.405   1.097 -0.2297  0.0215 -0.2499
  107MOL0     C14371   6.049   6.287   0.993  0.3208 -0.3509 -0.0201
  107MOL0     C14372   6.003   6.161   1.069 -1.0978  0.1644 -1.2111
  107MOL0     C14373   5.861   6.163   1.120 -0.8741  0.2039  0.6305
  107MOL0     C14374   5.746   6.154   1.151  0.4761  0.0727 -0.2123
  107MOL0     C14375   6.198   6.766   0.909  0.0125 -0.0277 -0.6724
  107MOL0     C14376   6.246   6.881   0.843 -0.1314  0.3022 -0.2961
  107MOL0     C14377   6.380   6.937   0.889  0.3666 -0.4253  0.2762
  107MOL0     H14378   6.080   7.313   0.679  0.1656 -0.9434  0.3291
  107MOL0     H14379   6.096   7.546   0.623 -0.6460 -2.0209 -1.6163
  107MOL0     H14380   6.493   7.731   0.613  1.6220 -0.9930 -1.1273
  107MOL0     H14381   6.468   7.699   0.443 -0.5001  1.0306 -0.2393
  107MOL0     H14382   6.426   7.937   0.638  3.3220  0.5973 -0.3605
  107MOL0     H14383   6.309   7.907   0.487 -0.4450 -2.1168 -1.1647
  107MOL0     H14384   6.475   8.057   0.410  0.3282 -0.3216 -0.7584
  107MOL0     H14385   6.526   7.903   0.365  0.0936  0.5644  0.1353
  107MOL0     H14386   6.598   8.047   0.635  0.5374  1.1634 -1.8061
  107MOL0     H14387   6.699   7.931   0.566  0.1555  0.2728  0.8191
  107MOL0     H14388   6.668   8.218   0.493  2.3486  0.9857  1.2940
  107MOL0     H14389   6.815   8.125   0.534  0.2741 -0.6147 -1.9463
  107MOL0     H14390   6.824   8.021   0.321  2.3785  1.5386  0.4204
  107MOL0     H14391   6.659   8.083   0.283 -0.3107  1.9753 -0.4506
  107MOL0     H14392   6.871   8.214   0.177 -0.3314  2.7309 -1.5446
  107MOL0     H14393   6.903   8.247   0.350 -0.2955 -0.1267 -0.5729
  107MOL0     H14394   6.635   8.321   0.211  0.6089  0.4589 -0.2974
  107MOL0     H14395   6.704   8.397   0.355 -0.8702  0.1120 -0.5606
  107MOL0     H14396   6.978   8.481   0.245  0.0542 -0.3995 -0.6174
  107MOL0     H14397   7.032   8.526  -0.138 -2.1999  0.7946 -1.0331
  107MOL0     H14398   7.038   8.682  -0.058 -1.7576  0.8340  2.7558
  107MOL0     H14399   7.188   8.630   0.111  0.2854  0.1016  1.0467
  107MOL0     H14400   7.204   8.459   0.065  3.0139  0.8889 -0.0137
  107MOL0     H14401   7.283   8.690  -0.112  4.1223 -0.2756  2.2221
  107MOL0     H14402   7.282   8.521  -0.168 -0.2071 -0.7195 -0.1794
  107MOL0     H14403   7.464   8.464  -0.009 -0.9539 -1.3950  1.1865
  107MOL0     H14404   7.406   8.609   0.089 -2.1115  1.0382 -1.5163
  107MOL0     H14405   7.630   8.534   0.129 -2.6070  1.2589 -0.5316
  107MOL0     H14406   7.837   8.590   0.254 -1.3689 -2.3396 -1.4007
  107MOL0     H14407   8.085   8.838   0.525  1.7096  0.3603  2.7002
  107MOL0     H14408   8.310   8.851   0.626 -1.3603  0.8976 -0.0966
  107MOL0     H14409   8.526   8.887   0.604  2.2639  1.0885 -1.5954
  107MOL0     H14410   8.547   8.763   0.738 -0.8403 -0.1340 -0.9874
  107MOL0     H14411   8.749   8.871   0.715  0.0855 -1.0687  1.6604
  107MOL0     H14412   8.753   8.701   0.640 -4.1786 -1.3740 -1.3025
  107MOL0     H14413   8.711   8.858   0.434 -0.1493 -0.5838  0.1587
  107MOL0     H14414   8.784   8.983   0.532 -2.0600  0.2267 -1.1296
  107MOL0     H14415   8.923   8.703   0.496  4.4222 -1.6606 -1.4543
  107MOL0     H14416   8.983   8.842   0.580 -0.8318  1.8316 -0.6386
  107MOL0     H14417   8.920   8.859   0.284  1.4791  3.5019  0.1292
  107MOL0     H14418   9.063   8.780   0.355 -0.2023 -0.6023  1.1879
  107MOL0     H14419   8.954   9.073   0.385 -1.5265 -0.4382 -2.6340
  107MOL0     H14420   9.089   9.012   0.483  0.8931  0.1434 -0.9103
  107MOL0     H14421   9.212   8.976   0.291  1.9976  1.4079  0.7627
  107MOL0     H14422   9.164   9.144   0.295 -1.1299  0.4780  0.0492
  107MOL0     H14423   9.116   9.081   0.080  2.4582 -1.5183  0.3839
  107MOL0     H14424   9.048   8.926   0.112 -1.6588  0.3762 -1.1681
  107MOL0     H14425   8.449   8.555   0.355 -0.0817 -0.6407  1.3822
  107MOL0     H14426   8.247   8.562   0.227  0.4981 -1.8870  2.0555
  107MOL0     H14427   7.889   8.910  -0.029 -1.5257 -0.9644 -3.5502
  107MOL0     H14428   7.680   8.878  -0.117  1.3627  2.1307  1.4224
  107MOL0     H14429   6.520   7.522   0.627 -0.6235  4.1050  4.3179
  107MOL0     H14430   6.500   7.300   0.732 -0.0958 -0.4707 -0.6744
  107MOL0     H14431   6.003   6.898   0.607  0.0637 -1.8790 -1.4878
  107MOL0     H14432   5.914   6.709   0.729 -0.7693  2.0028 -2.0302
  107MOL0     H14433   6.076   6.612   1.134  2.5249  1.8391  0.0419
  107MOL0     H14434   6.202   6.528   1.037 -1.0260 -1.7093 -1.8015
  107MOL0     H14435   5.950   6.415   1.137 -0.1547 -0.4074  0.0474
  107MOL0     H14436   6.109   6.377   1.186 -0.7341 -0.9236 -0.2081
  107MOL0     H14437   6.149   6.280   0.950 -0.2377 -2.0764 -1.1318
  107MOL0     H14438   5.984   6.300   0.907  0.6386 -1.3826 -0.4369
  107MOL0     H14439   6.010   6.073   1.004  0.0053 -2.9900  2.7977
  107MOL0     H14440   6.062   6.150   1.160 -1.7296  1.5703 -0.6121
  107MOL0     H14441   5.642   6.143   1.170  0.0213  2.0866 -1.2663
  107MOL0     H14442   6.259   6.727   0.990 -2.1926  0.0688  1.1221
  107MOL0     H14443   6.448   6.859   0.924  1.5566 -0.2842 -1.5912
  107MOL0     H14444   6.437   6.961   0.799 -0.8368 -3.0844 -1.3100
  107MOL0     H14445   6.361   7.027   0.948 -0.3408  1.6376 -2.8927
  108MOL0     O14446  11.308   6.434   2.691 -0.9403 -0.7194  0.1466
  108MOL0     C14447  11.262   6.475   2.797  0.4143  0.5665 -0.4748
  108MOL0     O14448  11.324   6.543   2.893  1.2020 -0.7170  1.0038
  108MOL0     C14449  11.458   6.566   2.868  0.0545 -0.1676 -1.1401
  108MOL0     C14450  11.556   6.475   2.908  0.3358  0.0725  0.0328
  108MOL0     C14451  11.695   6.493   2.874  0.6629 -1.0915  0.1279
  108MOL0     C14452  11.733   6.602   2.791  0.7161 -0.9641  0.0833
  108MOL0     O14453  11.863   6.626   2.778 -0.5053 -0.3272  0.0104
  108MOL0     C14454  11.926   6.746   2.834 -0.5657  0.1444  0.3125
  108MOL0     C14455  12.038   6.708   2.930 -0.1159  0.4100  0.5730
  108MOL0     C14456  12.159   6.645   2.854  0.7225 -0.3301 -0.1913
  108MOL0     C14457  12.256   6.604   2.952 -0.1787 -0.1444  1.0233
  108MOL0     C14458  12.200   6.481   3.029  0.1094  0.5723  0.5865
  108MOL0     C14459  12.323   6.422   3.110  0.2184  0.0351 -0.1089
  108MOL0     C14460  12.262   6.295   3.186  0.6371  0.2150  0.4745
  108MOL0     C14461  12.359   6.226   3.272  0.5172 -0.5276  0.1838
  108MOL0     N14462  12.456   6.146   3.194 -0.3397 -0.8215 -0.8916
  108MOL0     C14463  12.543   6.176   3.094 -0.7373 -0.0678  1.1102
  108MOL0     C14464  12.589   6.058   3.040  0.9425 -1.1848  0.2094
  108MOL0     C14465  12.705   6.049   2.951  0.0618 -0.3155 -0.3201
  108MOL0     C14466  12.828   6.075   3.043 -0.2494  0.0795  1.0760
  108MOL0     C14467  12.949   6.079   2.951 -1.3847  0.2122  0.4321
  108MOL0     C14468  13.076   6.078   3.033  1.1599 -0.0910  0.7362
  108MOL0     O14469  13.082   5.947   3.092 -0.1378 -0.6857 -0.0097
  108MOL0     C14470  13.193   5.876   3.050 -0.2966 -0.2390 -1.1731
  108MOL0     C14471  13.304   5.864   3.136  0.2111 -0.0727  0.7296
  108MOL0     C14472  13.406   5.777   3.096 -0.1136  0.1910  0.1880
  108MOL0     C14473  13.407   5.709   2.971 -0.2714  0.2172 -0.1195
  108MOL0     C14474  13.515   5.616   2.937  0.3151 -0.5257  0.3446
  108MOL0     O14475  13.515   5.571   2.803 -0.1185 -0.7591 -0.0584
  108MOL0     C14476  13.616   5.500   2.743  0.1638  0.4358 -0.4903
  108MOL0     C14477  13.580   5.403   2.653 -0.0582 -0.1833  0.5955
  108MOL0     C14478  13.682   5.321   2.595 -0.1824 -1.2711 -0.7287
  108MOL0     C14479  13.816   5.339   2.619 -0.0866 -0.3080  0.5696
  108MOL0     O14480  13.905   5.253   2.554 -1.0989  0.6098  0.0814
  108MOL0     C14481  14.024   5.317   2.489  0.0212 -0.2473 -0.7098
  108MOL0     C14482  14.087   5.223   2.382  0.3201 -0.2896 -0.9758
  108MOL0     C14483  13.985   5.180   2.279 -0.4169 -0.5984  0.6633
  108MOL0     C14484  13.959   5.291   2.178  0.1017  0.2943  0.0780
  108MOL0     C14485  13.851   5.256   2.075  0.2901  0.4946 -0.4098
  108MOL0     C14486  13.717   5.284   2.135  0.0194  0.1593  0.0295
  108MOL0     C14487  13.598   5.261   2.040  0.4103  0.0170 -0.2297
  108MOL0     C14488  13.468   5.320   2.099  1.2568 -0.6638  0.1904
  108MOL0    Cl14489  13.440   5.250   2.262 -0.2883 -0.0057  0.0445
  108MOL0     C14490  13.848   5.450   2.701 -0.5620 -0.2029  0.2640
  108MOL0     C14491  13.744   5.526   2.768  0.6633 -0.7398 -0.5565
  108MOL0     O14492  13.603   5.587   3.022  0.3882 -0.2478  0.5380
  108MOL0     C14493  13.300   5.729   2.884  0.1182 -1.1160 -0.0159
  108MOL0     C14494  13.196   5.813   2.925 -0.1790 -0.1297  0.3422
  108MOL0     N14495  12.525   5.954   3.101  0.4087 -0.5410  0.1766
  108MOL0     N14496  12.439   6.010   3.189  0.1653 -0.2928 -0.1726
  108MOL0     C14497  11.631   6.692   2.748 -0.1225 -0.5650 -0.3291
  108MOL0     C14498  11.496   6.667   2.782 -0.5814 -0.7498 -0.5582
  108MOL0     C14499  11.136   6.425   2.839 -0.0334 -0.2909 -0.7353
  108MOL0     C14500  11.126   6.299   2.898  0.8846 -0.0837  0.0496
  108MOL0     C14501  11.000   6.251   2.930  0.1694  0.1189  0.5301
  108MOL0     C14502  10.881   6.312   2.889 -0.2938 -0.2812  0.4667
  108MOL0     O14503  10.764   6.244   2.900  0.8379 -1.1035 -0.1013
  108MOL0     C14504  10.683   6.307   2.998 -0.6986  0.0501  0.7289
  108MOL0     C14505  10.584   6.195   3.042 -0.2598  0.0777  0.0870
  108MOL0     C14506  10.488   6.177   2.926 -0.9619 -0.5418  0.2694
  108MOL0     C14507  10.390   6.059   2.924  0.6085  0.1810 -0.2452
  108MOL0     C14508  10.331   6.043   3.058  0.0776 -0.1048  0.3611
  108MOL0     C14509  10.273   6.010   3.161 -0.6502  0.5987 -0.7268
  108MOL0     C14510  10.884   6.437   2.821 -0.6736 -0.5215  0.1002
  108MOL0     C14511  11.011   6.497   2.805  0.4152 -0.0669  0.5189
  108MOL0     C14512  11.017   6.628   2.731  0.1261 -0.6099  0.2476
  108MOL0     H14513  11.534   6.391   2.973  1.5055  0.8740  1.5260
  108MOL0     H14514  11.778   6.438   2.920  1.5529  0.1113  0.0086
  108MOL0     H14515  11.965   6.809   2.753  2.3502 -1.2702  0.5033
  108MOL0     H14516  11.847   6.806   2.879 -0.6168  0.8090 -0.6309
  108MOL0     H14517  11.987   6.641   3.000  0.4597 -0.8351 -0.1632
  108MOL0     H14518  12.068   6.801   2.979  0.7848 -0.2168  1.2568
  108MOL0     H14519  12.200   6.726   2.793  0.0470 -0.2036 -0.4925
  108MOL0     H14520  12.130   6.564   2.785 -4.4198  3.0229 -2.6031
  108MOL0     H14521  12.353   6.579   2.906 -0.4705  0.4237  0.0519
  108MOL0     H14522  12.282   6.686   3.020  0.7876  0.7982 -0.4137
  108MOL0     H14523  12.120   6.508   3.099 -2.0038 -3.4112 -0.0205
  108MOL0     H14524  12.161   6.408   2.958  1.9023  1.4790 -1.4265
  108MOL0     H14525  12.402   6.401   3.038  2.4298  0.9223  1.9465
  108MOL0     H14526  12.365   6.503   3.169  3.2200 -1.0723 -0.5608
  108MOL0     H14527  12.231   6.217   3.116  2.9892 -2.0804  1.8085
  108MOL0     H14528  12.170   6.326   3.237 -1.0177  1.3689 -2.9217
  108MOL0     H14529  12.417   6.303   3.324  2.1628 -0.8470 -1.1132
  108MOL0     H14530  12.308   6.168   3.350  0.1618  1.0358  1.1445
  108MOL0     H14531  12.570   6.280   3.081 -0.9218 -0.0985  0.4404
  108MOL0     H14532  12.693   5.952   2.902 -0.7996 -0.2470 -0.2619
  108MOL0     H14533  12.696   6.115   2.864  0.9073 -2.4768 -2.1467
  108MOL0     H14534  12.824   6.180   3.073 -1.0597  0.8595 -1.4911
  108MOL0     H14535  12.843   5.996   3.117  1.9766 -0.9763 -0.3898
  108MOL0     H14536  12.943   6.169   2.889  0.5960  1.1564  1.4918
  108MOL0     H14537  12.938   5.988   2.891 -1.3720 -1.5282  2.9158
  108MOL0     H14538  13.068   6.165   3.098 -4.8653  0.4450 -0.1272
  108MOL0     H14539  13.166   6.087   2.972 -0.7724 -2.2345 -2.8597
  108MOL0     H14540  13.307   5.930   3.222 -0.5666  1.1035 -0.1114
  108MOL0     H14541  13.476   5.752   3.175  0.3615  3.2374  0.8610
  108MOL0     H14542  13.475   5.375   2.646  0.6199 -2.5154 -1.4621
  108MOL0     H14543  13.653   5.233   2.538 -1.5844  0.0739 -2.1873
  108MOL0     H14544  13.996   5.417   2.454 -3.1434  0.5583  3.4185
  108MOL0     H14545  14.098   5.349   2.563 -0.1940 -0.3462 -0.4517
  108MOL0     H14546  14.173   5.269   2.333  1.2955 -1.1616 -0.1374
  108MOL0     H14547  14.129   5.131   2.423  1.8794  0.5351 -0.6113
  108MOL0     H14548  14.037   5.102   2.223  0.2646  0.1770  0.1874
  108MOL0     H14549  13.896   5.130   2.318  0.1701 -0.7229  1.9027
  108MOL0     H14550  14.053   5.311   2.126 -0.4258 -0.9183 -1.4251
  108MOL0     H14551  13.918   5.379   2.228  1.3009  1.2758 -0.6104
  108MOL0     H14552  13.846   5.155   2.031  0.9640 -0.6179  1.9009
  108MOL0     H14553  13.861   5.323   1.989  0.5782 -0.3947 -1.0868
  108MOL0     H14554  13.696   5.223   2.224 -1.5047  2.0326  1.0445
  108MOL0     H14555  13.714   5.387   2.171 -0.0875 -1.1827  4.6138
  108MOL0     H14556  13.576   5.159   2.009 -0.2146  0.3650 -0.9905
  108MOL0     H14557  13.625   5.315   1.949 -3.0076  1.7621 -0.4045
  108MOL0     H14558  13.473   5.427   2.121  2.2042 -1.1526  2.7015
  108MOL0     H14559  13.387   5.304   2.027  0.0719  5.8075 -0.5007
  108MOL0     H14560  13.951   5.469   2.726 -0.8499 -1.4258  2.5718
  108MOL0     H14561  13.782   5.611   2.824  4.5205 -1.6909 -1.4053
  108MOL0     H14562  13.306   5.681   2.787 -0.9771 -0.6423 -0.3284
  108MOL0     H14563  13.108   5.828   2.864 -0.1536  0.3107  0.4108
  108MOL0     H14564  11.655   6.777   2.685 -0.8612  0.7728  1.1220
  108MOL0     H14565  11.433   6.743   2.738 -0.4726  0.0699  0.6826
  108MOL0     H14566  11.214   6.247   2.933  0.5593 -0.2818  0.5866
  108MOL0     H14567  10.998   6.164   2.994  1.9729  0.3325  0.9375
  108MOL0     H14568  10.630   6.393   2.956 -2.2641 -0.8985  0.6861
  108MOL0     H14569  10.736   6.329   3.091 -2.2256 -0.8010  1.8532
  108MOL0     H14570  10.520   6.228   3.125  0.8422  0.5205  0.7939
  108MOL0     H14571  10.629   6.099   3.068 -3.6739 -2.2001 -1.7555
  108MOL0     H14572  10.545   6.160   2.833 -1.7072  2.2756 -0.8020
  108MOL0     H14573  10.422   6.262   2.905 -0.0363  0.1702  0.1511
  108MOL0     H14574  10.314   6.072   2.846 -1.3176 -1.4834  1.2331
  108MOL0     H14575  10.440   5.966   2.897 -0.3717 -1.4835  3.1998
  108MOL0     H14576  10.222   5.960   3.242  0.7793 -1.3584 -0.9741
  108MOL0     H14577  10.802   6.503   2.793  2.7057  4.6888  1.0251
  108MOL0     H14578  11.042   6.710   2.799 -2.1460  0.7040 -0.3902
  108MOL0     H14579  11.085   6.633   2.646 -1.3487  2.9310 -0.9181
  108MOL0     H14580  10.921   6.654   2.684  0.8596  0.4771 -0.6910
  109MOL0     O14581   2.306   0.386  10.870 -0.1509 -0.4299  0.1956
  109MOL0     C14582   2.246   0.360  10.977 -0.7332 -0.9607 -0.1920
  109MOL0     O14583   2.284   0.386  11.106 -0.2063  0.1455 -0.4140
  109MOL0     C14584   2.397   0.453  11.131  0.0984 -0.8046 -0.6620
  109MOL0     C14585   2.405   0.598  11.130  0.2157 -0.2482 -0.4210
  109MOL0     C14586   2.529   0.657  11.135 -0.1133 -0.0988  0.4838
  109MOL0     C14587   2.644   0.578  11.145  0.0901  0.1269  0.3392
  109MOL0     O14588   2.769   0.640  11.139  0.1404  0.1297 -0.1112
  109MOL0     C14589   2.886   0.564  11.146 -1.0722 -0.2282 -0.8265
  109MOL0     C14590   3.014   0.652  11.132  0.3268  0.4857  0.1532
  109MOL0     C14591   3.026   0.751  11.244 -0.1705 -0.1987 -0.0378
  109MOL0     C14592   3.133   0.849  11.205 -0.0140  0.0105 -0.1028
  109MOL0     C14593   3.133   0.960  11.320 -0.0948 -0.5485 -0.6175
  109MOL0     C14594   3.269   1.009  11.361  0.0039  0.0824 -0.3869
  109MOL0     C14595   3.277   1.149  11.421  0.2515 -0.1211 -0.4656
  109MOL0     C14596   3.411   1.177  11.482  0.3291 -0.2086 -0.2119
  109MOL0     N14597   3.519   1.217  11.389 -0.4484 -0.2141 -0.0749
  109MOL0     C14598   3.564   1.342  11.374 -0.0380 -0.6874  0.0388
  109MOL0     C14599   3.663   1.343  11.288  0.5687  0.3344 -0.3202
  109MOL0     C14600   3.731   1.460  11.221 -0.0955  0.0440 -0.0048
  109MOL0     C14601   3.882   1.461  11.241 -0.3556  0.9772 -0.3876
  109MOL0     C14602   3.941   1.589  11.184 -1.2110  0.1234  0.5371
  109MOL0     C14603   4.084   1.601  11.217 -0.5333  0.6043 -0.2083
  109MOL0     O14604   4.128   1.724  11.152  0.0433 -0.3484  0.6290
  109MOL0     C14605   4.265   1.760  11.173  0.9633 -0.1799 -0.2214
  109MOL0     C14606   4.369   1.683  11.221 -0.8404  0.3766  0.0999
  109MOL0     C14607   4.500   1.722  11.207  0.3010  0.3117 -0.0069
  109MOL0     C14608   4.535   1.829  11.128  0.3070  0.4072 -0.3199
  109MOL0     C14609   4.674   1.875  11.105  0.4365  0.1917 -0.6312
  109MOL0     O14610   4.756   1.839  11.207 -0.1757  0.2110 -0.0413
  109MOL0     C14611   4.873   1.909  11.224  0.0726 -0.0503 -0.1692
  109MOL0     C14612   4.977   1.903  11.125 -0.5985 -0.4122  0.2218
  109MOL0     C14613   5.102   1.971  11.144  0.9084  0.4012  0.4175
  109MOL0     C14614   5.116   2.033  11.267  0.1606 -0.8494 -0.0604
  109MOL0     O14615   5.240   2.075  11.303 -0.0240  0.2435  0.1062
  109MOL0     C14616   5.301   2.012  11.419 -0.7672  0.5097  0.3054
  109MOL0     C14617   5.387   1.889  11.390 -0.1485 -1.1372  1.2295
  109MOL0     C14618   5.486   1.905  11.266 -0.0507  0.0281 -0.2987
  109MOL0     C14619   5.612   1.991  11.282 -0.0617  0.6542  0.8070
  109MOL0     C14620   5.636   2.097  11.168  1.5082  0.0327 -0.1958
  109MOL0     C14621   5.780   2.148  11.165 -0.3889 -0.5866 -0.7215
  109MOL0     C14622   5.811   2.245  11.279  0.5386  0.1992  0.0533
  109MOL0     C14623   5.732   2.373  11.264 -0.2236 -0.0779 -0.2728
  109MOL0    Cl14624   5.789   2.483  11.135  0.6810 -0.3783  0.3828
  109MOL0     C14625   5.021   2.045  11.364  0.2216 -0.5658 -0.0607
  109MOL0     C14626   4.895   1.986  11.337 -0.2185 -0.7662 -0.4239
  109MOL0     O14627   4.706   1.932  10.999 -0.1376 -0.4183 -0.1706
  109MOL0     C14628   4.426   1.902  11.070 -1.4894  0.1187 -0.0817
  109MOL0     C14629   4.295   1.869  11.093  0.0044 -0.1790  0.4254
  109MOL0     N14630   3.688   1.214  11.256  0.5858  0.6363  0.1478
  109MOL0     N14631   3.602   1.136  11.321 -0.1257 -0.2845 -0.5024
  109MOL0     C14632   2.632   0.437  11.169  0.1644 -0.6415  0.2405
  109MOL0     C14633   2.509   0.379  11.172  0.2777  0.0240  0.5231
  109MOL0     C14634   2.129   0.269  10.965  0.6560  0.5079 -0.3205
  109MOL0     C14635   2.058   0.241  11.092 -0.4750 -0.2143  0.7717
  109MOL0     C14636   1.941   0.160  11.084 -0.0783 -0.5291  0.1325
  109MOL0     C14637   1.885   0.111  10.967 -0.2696  0.4289  0.0896
  109MOL0     O14638   1.776   0.023  10.981  0.1722 -0.3084  0.0362
  109MOL0     C14639   1.743  -0.076  10.885  0.9760 -0.4795  0.2116
  109MOL0     C14640   1.605  -0.126  10.933 -0.7660 -0.7099 -0.4226
  109MOL0     C14641   1.617  -0.173  11.076 -0.9037  0.0604 -0.5748
  109MOL0     C14642   1.491  -0.264  11.105 -0.5545  0.8879 -0.3687
  109MOL0     C14643   1.366  -0.187  11.108 -0.0742 -0.0485  0.9188
  109MOL0     C14644   1.270  -0.122  11.080 -0.4359  0.4737  0.1710
  109MOL0     C14645   1.944   0.149  10.835  0.1023  0.3242 -0.4530
  109MOL0     C14646   2.069   0.225  10.834  0.1796  0.7139 -0.1534
  109MOL0     C14647   2.124   0.242  10.700  0.0237  0.1064 -0.2083
  109MOL0     H14648   2.320   0.665  11.116  1.4133  1.1268 -1.4248
  109MOL0     H14649   2.545   0.764  11.119 -1.3557  0.4241  2.4033
  109MOL0     H14650   2.897   0.511  11.242  2.7032 -0.2823 -1.1440
  109MOL0     H14651   2.893   0.494  11.062  0.6129  2.5406 -3.1567
  109MOL0     H14652   3.015   0.693  11.030  1.2718  0.2578  0.0581
  109MOL0     H14653   3.102   0.587  11.128  0.5386  0.5407  2.4669
  109MOL0     H14654   3.058   0.696  11.333 -0.5263 -0.5626 -0.1341
  109MOL0     H14655   2.930   0.798  11.268 -0.0739 -0.4936  0.9751
  109MOL0     H14656   3.229   0.797  11.200  0.6070  1.0651  0.5336
  109MOL0     H14657   3.123   0.892  11.105 -0.6536 -0.2385 -0.1516
  109MOL0     H14658   3.081   1.050  11.285 -1.5775  0.2393  3.1718
  109MOL0     H14659   3.088   0.941  11.418 -1.4502 -0.7197 -1.2486
  109MOL0     H14660   3.312   0.935  11.429 -0.4165 -2.0899 -2.3383
  109MOL0     H14661   3.323   1.011  11.265  0.3328  0.0756 -0.2038
  109MOL0     H14662   3.200   1.141  11.498  0.4722  2.7948  0.1709
  109MOL0     H14663   3.251   1.228  11.350  2.5985  1.7604  0.6405
  109MOL0     H14664   3.403   1.264  11.547 -0.9420  2.4025 -3.5673
  109MOL0     H14665   3.439   1.092  11.546 -3.4120 -0.6857  1.0722
  109MOL0     H14666   3.535   1.437  11.418  2.6421  0.4243 -0.3636
  109MOL0     H14667   3.701   1.449  11.117  0.2306  0.9836 -0.2069
  109MOL0     H14668   3.692   1.557  11.252 -0.3047 -0.5053  1.5462
  109MOL0     H14669   3.907   1.460  11.347 -0.7235 -0.5397 -0.2973
  109MOL0     H14670   3.926   1.369  11.201  5.2934  2.7015  0.9978
  109MOL0     H14671   3.892   1.678  11.224  0.4722  0.9665  0.8083
  109MOL0     H14672   3.936   1.586  11.074  0.0822 -3.1979  0.4362
  109MOL0     H14673   4.141   1.512  11.187  0.7294  1.0345  0.8270
  109MOL0     H14674   4.095   1.611  11.325  1.0515 -1.5222 -0.1111
  109MOL0     H14675   4.359   1.592  11.280 -3.1887  0.2258 -0.4261
  109MOL0     H14676   4.570   1.653  11.253  0.2084 -0.2945 -0.7583
  109MOL0     H14677   4.969   1.851  11.030 -0.5489 -1.3370  0.7165
  109MOL0     H14678   5.185   1.969  11.075  0.7122  2.4616  0.0593
  109MOL0     H14679   5.368   2.085  11.465 -0.7360  0.7796 -0.1619
  109MOL0     H14680   5.219   1.994  11.489 -1.8132  2.4202 -0.3422
  109MOL0     H14681   5.465   1.877  11.465  0.8520  2.8003  1.0687
  109MOL0     H14682   5.320   1.804  11.383 -0.6717 -0.6789  0.3418
  109MOL0     H14683   5.524   1.806  11.241 -1.9521 -2.2235  4.5531
  109MOL0     H14684   5.426   1.952  11.187 -1.5660 -1.5292 -0.1308
  109MOL0     H14685   5.704   1.931  11.289  0.4013  1.1734 -0.4453
  109MOL0     H14686   5.618   2.041  11.378  2.0611  2.1606 -0.0326
  109MOL0     H14687   5.569   2.178  11.195  1.8336 -0.1588  1.2727
  109MOL0     H14688   5.603   2.050  11.075 -0.2674  0.5446  0.1358
  109MOL0     H14689   5.846   2.062  11.177  0.4579  0.1975  0.4493
  109MOL0     H14690   5.810   2.199  11.073  0.8963 -0.8216 -0.4542
  109MOL0     H14691   5.917   2.262  11.256  0.5100 -0.4047 -0.5341
  109MOL0     H14692   5.795   2.198  11.377 -2.4300 -2.3627 -1.4815
  109MOL0     H14693   5.624   2.357  11.255 -0.1990 -0.7557  0.4723
  109MOL0     H14694   5.739   2.421  11.362  0.1781 -1.4188  0.3774
  109MOL0     H14695   5.040   2.075  11.467  1.0208  0.5323 -0.5008
  109MOL0     H14696   4.816   2.003  11.409  0.9954  0.1871  0.7379
  109MOL0     H14697   4.458   1.986  11.011  2.8147 -0.0308  1.6521
  109MOL0     H14698   4.212   1.927  11.053 -0.3774 -0.0389  1.3839
  109MOL0     H14699   2.718   0.372  11.176  1.3307  0.6725 -1.1737
  109MOL0     H14700   2.505   0.271  11.177  0.6293  0.0672  2.0003
  109MOL0     H14701   2.083   0.280  11.190 -2.2104  1.5203  0.5861
  109MOL0     H14702   1.884   0.121  11.169 -2.7911  1.6407 -0.5527
  109MOL0     H14703   1.801  -0.169  10.886  1.0295 -0.4667 -0.5678
  109MOL0     H14704   1.736  -0.022  10.790 -2.5929 -0.0891  0.5476
  109MOL0     H14705   1.573  -0.201  10.859 -3.4329  1.7580 -2.0159
  109MOL0     H14706   1.529  -0.048  10.920  1.1191  1.1521 -0.6404
  109MOL0     H14707   1.615  -0.090  11.147 -0.3226 -0.5933  0.2208
  109MOL0     H14708   1.711  -0.227  11.087 -0.9869 -0.0769 -0.5283
  109MOL0     H14709   1.497  -0.329  11.017  2.4356 -0.8447  0.9474
  109MOL0     H14710   1.511  -0.309  11.203 -1.5837  2.6297  0.6980
  109MOL0     H14711   1.188  -0.057  11.057 -0.5592  0.0595 -0.5872
  109MOL0     H14712   1.894   0.096  10.755  1.1881 -1.7660  0.1842
  109MOL0     H14713   2.052   0.215  10.622 -1.6906  0.3461  1.2482
  109MOL0     H14714   2.157   0.343  10.677  2.1503 -0.4190  0.2923
  109MOL0     H14715   2.205   0.168  10.698  0.6388  0.7722  0.0007
  110MOL0     O14716   2.234   1.885   6.216  0.0686 -0.2429  0.0182
  110MOL0     C14717   2.220   1.775   6.276  0.5294  0.8574 -0.1822
  110MOL0     O14718   2.319   1.681   6.294  0.2465 -0.1551 -0.7160
  110MOL0     C14719   2.452   1.714   6.264  0.1752 -0.1828  0.2205
  110MOL0     C14720   2.543   1.773   6.355  0.3332 -0.8749  0.5857
  110MOL0     C14721   2.680   1.792   6.328  0.4707  0.1286  0.5158
  110MOL0     C14722   2.732   1.747   6.209  0.8506  0.5512  0.1490
  110MOL0     O14723   2.852   1.778   6.170  0.2909  0.3364 -0.2806
  110MOL0     C14724   2.941   1.668   6.189  1.2502  0.7469  0.5722
  110MOL0     C14725   3.086   1.700   6.159  0.2230 -0.2057  0.0521
  110MOL0     C14726   3.102   1.712   6.001 -0.0642  0.2560 -0.6902
  110MOL0     C14727   3.242   1.761   5.972  0.4908  0.6419  0.6480
  110MOL0     C14728   3.354   1.654   6.001 -0.1467  0.2695  0.2366
  110MOL0     C14729   3.495   1.722   5.992  1.5353 -0.0259  0.2671
  110MOL0     C14730   3.612   1.629   5.965  0.1356  0.3996  0.4772
  110MOL0     C14731   3.627   1.590   5.813  0.2776 -0.4975  0.3757
  110MOL0     N14732   3.760   1.517   5.794 -0.0921  0.6521  0.0651
  110MOL0     C14733   3.884   1.582   5.787  0.1788 -0.3265  0.1343
  110MOL0     C14734   3.981   1.493   5.812 -0.9398 -0.0119  0.3444
  110MOL0     C14735   4.130   1.509   5.807 -0.3214 -0.5679  0.0089
  110MOL0     C14736   4.156   1.636   5.723  0.5004 -0.0861 -0.7025
  110MOL0     C14737   4.298   1.668   5.719  0.0822  0.8652  0.1673
  110MOL0     C14738   4.314   1.806   5.676  0.3754  0.2075 -0.5296
  110MOL0     O14739   4.259   1.903   5.769  0.4218  0.3702 -0.1054
  110MOL0     C14740   4.319   2.024   5.796 -0.5971 -0.3851 -0.6096
  110MOL0     C14741   4.285   2.099   5.913  0.3020  0.9933 -0.1240
  110MOL0     C14742   4.366   2.207   5.953  0.7960 -0.3935 -0.3973
  110MOL0     C14743   4.467   2.248   5.873  0.1445  0.9102  0.0709
  110MOL0     C14744   4.549   2.357   5.911 -0.6252 -0.0888  0.4062
  110MOL0     O14745   4.581   2.444   5.807  0.0517  0.2384  0.1750
  110MOL0     C14746   4.689   2.535   5.807 -0.6041  0.5829 -0.2669
  110MOL0     C14747   4.805   2.505   5.874 -0.1112 -0.5896  0.6912
  110MOL0     C14748   4.912   2.591   5.851 -1.3228 -0.1003 -0.4486
  110MOL0     C14749   4.898   2.711   5.776  0.0758  0.2159  0.7406
  110MOL0     O14750   4.985   2.807   5.748 -0.1171 -0.3900  0.1948
  110MOL0     C14751   5.123   2.778   5.733 -0.1898  0.6855  0.0942
  110MOL0     C14752   5.156   2.697   5.605 -0.3595 -1.2517  0.1919
  110MOL0     C14753   5.129   2.785   5.480  0.0843  0.4713  0.3125
  110MOL0     C14754   5.138   2.705   5.344  1.1630 -0.0434 -1.2574
  110MOL0     C14755   5.109   2.778   5.221  0.1770 -0.0690  0.4235
  110MOL0     C14756   5.059   2.696   5.091 -0.8162 -0.6005 -0.3623
  110MOL0     C14757   5.131   2.573   5.043  0.4554  0.6791  0.2192
  110MOL0     C14758   5.277   2.583   4.997  0.2577  0.2183  0.5907
  110MOL0    Cl14759   5.393   2.620   5.129  0.3985 -0.0160 -0.1959
  110MOL0     C14760   4.776   2.738   5.718 -0.7788 -0.5820  0.5838
  110MOL0     C14761   4.674   2.653   5.730  1.0313 -0.3457  0.3142
  110MOL0     O14762   4.578   2.370   6.029  0.4934  0.4707 -0.1230
  110MOL0     C14763   4.496   2.185   5.747  0.0814  0.8825 -0.1409
  110MOL0     C14764   4.421   2.074   5.708  0.0936 -0.1998  0.1268
  110MOL0     N14765   3.916   1.379   5.838  0.5057  0.3149 -1.0103
  110MOL0     N14766   3.788   1.391   5.838 -0.3153 -0.1127  0.0016
  110MOL0     C14767   2.648   1.677   6.126  0.0133  0.0398 -0.1805
  110MOL0     C14768   2.502   1.673   6.141 -0.3934  0.3334 -0.1896
  110MOL0     C14769   2.084   1.735   6.318  0.3184 -0.7439  0.5072
  110MOL0     C14770   2.066   1.639   6.416 -0.2486  0.6960 -0.8668
  110MOL0     C14771   1.943   1.594   6.462  0.3134 -0.5868 -0.6182
  110MOL0     C14772   1.832   1.633   6.397 -0.7200 -0.4148  0.0275
  110MOL0     O14773   1.713   1.590   6.431  0.8479 -0.4670 -0.0724
  110MOL0     C14774   1.638   1.512   6.335 -0.2402 -0.0707 -0.7867
  110MOL0     C14775   1.524   1.427   6.383  1.0733 -0.0503 -0.4128
  110MOL0     C14776   1.406   1.515   6.411 -0.3928 -0.7680  0.0869
  110MOL0     C14777   1.422   1.601   6.532 -0.5522 -0.3450 -0.5854
  110MOL0     C14778   1.297   1.655   6.578 -0.0041 -0.6767 -0.1185
  110MOL0     C14779   1.190   1.700   6.603  0.1007 -0.8762  0.4600
  110MOL0     C14780   1.836   1.743   6.302  0.8348  0.1673  0.3185
  110MOL0     C14781   1.961   1.794   6.255  0.6083  0.2155 -0.4770
  110MOL0     C14782   1.948   1.910   6.152  0.0677 -0.8415  1.4740
  110MOL0     H14783   2.513   1.794   6.457 -1.7141 -1.8456  0.2226
  110MOL0     H14784   2.735   1.843   6.406 -1.8869  3.8534 -0.0031
  110MOL0     H14785   2.936   1.633   6.293  0.1561 -0.6685  0.0845
  110MOL0     H14786   2.913   1.574   6.139 -0.0841  2.4779 -2.1501
  110MOL0     H14787   3.156   1.629   6.202 -0.1694  0.6036  2.1278
  110MOL0     H14788   3.105   1.797   6.206 -3.7420 -0.3149  2.3272
  110MOL0     H14789   3.030   1.774   5.947 -1.2481  0.6583  1.2822
  110MOL0     H14790   3.096   1.612   5.959  1.1276 -0.1152 -0.0453
  110MOL0     H14791   3.248   1.791   5.867  1.3499 -0.0193  0.4932
  110MOL0     H14792   3.261   1.848   6.035  2.2152  0.2080  0.7834
  110MOL0     H14793   3.346   1.599   6.095 -0.0533 -0.6730 -0.3018
  110MOL0     H14794   3.363   1.582   5.919  0.9585  3.6089 -2.8915
  110MOL0     H14795   3.489   1.795   5.911  0.9561 -1.0008 -0.5892
  110MOL0     H14796   3.509   1.775   6.087  2.2537 -0.8467  0.6412
  110MOL0     H14797   3.605   1.538   6.025  2.2285  0.6005  1.0814
  110MOL0     H14798   3.704   1.676   6.001 -0.0561  0.7158  0.5559
  110MOL0     H14799   3.553   1.515   5.782 -0.7993  1.4104 -2.0269
  110MOL0     H14800   3.617   1.671   5.741  3.9751  0.8941  1.2069
  110MOL0     H14801   3.891   1.690   5.782  2.1998 -0.3588  1.3566
  110MOL0     H14802   4.176   1.511   5.906  2.6151 -1.5166 -1.2365
  110MOL0     H14803   4.161   1.426   5.744 -0.0298 -0.7410  0.3819
  110MOL0     H14804   4.118   1.623   5.622 -1.8406 -2.1945  0.3105
  110MOL0     H14805   4.106   1.717   5.776  0.5821 -0.5022  0.0313
  110MOL0     H14806   4.359   1.604   5.655 -1.2371 -2.0119  1.6033
  110MOL0     H14807   4.344   1.650   5.817  2.7125 -1.1421 -1.2923
  110MOL0     H14808   4.276   1.816   5.574 -0.8629 -0.6849 -0.1845
  110MOL0     H14809   4.423   1.817   5.678  0.3065  1.0300 -0.8314
  110MOL0     H14810   4.205   2.054   5.971 -1.2366  0.6479 -2.3956
  110MOL0     H14811   4.347   2.248   6.052  2.7554 -3.5972  1.4711
  110MOL0     H14812   4.809   2.412   5.929 -0.6460 -1.2732 -0.3896
  110MOL0     H14813   5.005   2.583   5.906 -2.2518 -1.4439  1.0262
  110MOL0     H14814   5.183   2.869   5.722 -0.8276  1.2288  0.9727
  110MOL0     H14815   5.159   2.724   5.821 -0.0400  0.6714  0.0244
  110MOL0     H14816   5.260   2.663   5.600 -0.5061 -2.0401  2.0402
  110MOL0     H14817   5.097   2.605   5.600  2.4561 -3.1322 -1.1020
  110MOL0     H14818   5.024   2.815   5.474  0.0117 -0.0997 -2.6852
  110MOL0     H14819   5.187   2.878   5.486 -0.5137  0.9944 -1.4099
  110MOL0     H14820   5.069   2.621   5.354  1.1617  0.1356  0.6568
  110MOL0     H14821   5.239   2.662   5.337  1.7039  0.3451  2.1854
  110MOL0     H14822   5.204   2.828   5.202 -0.0889  0.2687 -0.0417
  110MOL0     H14823   5.034   2.852   5.248 -0.3365 -0.7675  0.9563
  110MOL0     H14824   4.950   2.686   5.099 -0.8931  0.6939  0.5388
  110MOL0     H14825   5.059   2.774   5.014  0.9660  2.3203  2.3182
  110MOL0     H14826   5.072   2.536   4.959 -0.7327 -1.1194  1.7718
  110MOL0     H14827   5.130   2.494   5.118  2.2017  0.6863  0.3115
  110MOL0     H14828   5.294   2.483   4.954 -0.7687 -0.2209  1.1681
  110MOL0     H14829   5.305   2.653   4.918  0.1685 -0.5665 -0.1540
  110MOL0     H14830   4.780   2.823   5.651  0.2349 -0.9289  0.1729
  110MOL0     H14831   4.577   2.658   5.681  1.1102  1.6918  0.2895
  110MOL0     H14832   4.590   2.209   5.699  0.4493 -0.5144 -0.1629
  110MOL0     H14833   4.448   2.037   5.609  1.3917  0.4656  0.2110
  110MOL0     H14834   2.684   1.633   6.033  1.9460  1.1856 -0.0198
  110MOL0     H14835   2.436   1.633   6.064  0.2901 -1.8333  0.2766
  110MOL0     H14836   2.148   1.592   6.470 -4.2858 -2.2529  3.4235
  110MOL0     H14837   1.936   1.513   6.534  3.9876  0.0267  0.6656
  110MOL0     H14838   1.703   1.455   6.268  0.8005  2.3195 -1.9178
  110MOL0     H14839   1.612   1.593   6.267  0.8033  0.3685 -0.6795
  110MOL0     H14840   1.558   1.371   6.470  3.2251  2.5137  0.5299
  110MOL0     H14841   1.494   1.359   6.302  0.4856  1.0864 -1.1708
  110MOL0     H14842   1.322   1.446   6.419 -0.4721 -1.3098 -3.8537
  110MOL0     H14843   1.383   1.576   6.324 -0.3605 -1.7754 -0.6535
  110MOL0     H14844   1.470   1.546   6.614  4.0551  1.0781 -1.9737
  110MOL0     H14845   1.498   1.679   6.518 -1.3615  0.6686  0.4592
  110MOL0     H14846   1.094   1.745   6.617  0.7372  0.2256  1.4310
  110MOL0     H14847   1.741   1.779   6.262  1.8118  1.6680 -0.7486
  110MOL0     H14848   1.850   1.911   6.104  1.0375  1.9447 -0.7276
  110MOL0     H14849   1.981   2.005   6.193  1.4309 -0.6795  0.1040
  110MOL0     H14850   2.011   1.883   6.066  0.0073 -2.1429  1.8088
  111MOL0     O14851   8.160   0.301   1.865 -0.2368 -0.0112  0.3784
  111MOL0     C14852   8.218   0.283   1.756 -0.2615 -0.4925  0.1344
  111MOL0     O14853   8.349   0.241   1.753 -0.4834  0.0893  0.7161
  111MOL0     C14854   8.420   0.200   1.863  0.3267  0.2923 -0.2533
  111MOL0     C14855   8.553   0.202   1.846  0.4047 -0.1723  0.5202
  111MOL0     C14856   8.644   0.155   1.938 -0.4116  0.0864 -0.7852
  111MOL0     C14857   8.595   0.110   2.056 -1.0498  0.7910  0.5288
  111MOL0     O14858   8.691   0.062   2.135  1.0499  0.3971  0.2113
  111MOL0     C14859   8.663   0.032   2.272  0.1826  0.1166  0.0344
  111MOL0     C14860   8.782   0.012   2.358 -0.4617 -0.1126 -0.4962
  111MOL0     C14861   8.864   0.140   2.397  0.0328 -0.9382  0.1713
  111MOL0     C14862   8.946   0.120   2.524 -0.5004 -0.2984  0.5337
  111MOL0     C14863   9.079   0.198   2.552  0.4136 -0.3380  0.5016
  111MOL0     C14864   9.043   0.342   2.601 -0.2325  0.4646  0.5168
  111MOL0     C14865   9.160   0.443   2.614 -0.3701  0.1942  0.1983
  111MOL0     C14866   9.251   0.394   2.724  0.7926 -0.2484  0.1683
  111MOL0     N14867   9.350   0.488   2.769 -0.8805 -0.1924  0.0208
  111MOL0     C14868   9.494   0.492   2.746 -0.3800 -0.0609 -0.1205
  111MOL0     C14869   9.526   0.593   2.831  0.6541  0.1283 -0.3623
  111MOL0     C14870   9.666   0.646   2.851  0.1222 -0.3140 -1.0814
  111MOL0     C14871   9.661   0.774   2.934 -1.0074  0.5694  0.1754
  111MOL0     C14872   9.801   0.830   2.945 -0.3590  0.0267 -0.3391
  111MOL0     C14873   9.806   0.968   3.009 -0.2579 -0.3591  0.2387
  111MOL0     O14874   9.945   1.010   3.016  0.3834 -0.1220 -0.2921
  111MOL0     C14875  10.022   0.990   3.132 -0.7160 -1.3520 -0.3962
  111MOL0     C14876   9.975   0.956   3.262 -0.2980  0.1015  1.2012
  111MOL0     C14877  10.066   0.941   3.367 -0.5721  0.4010  0.0051
  111MOL0     C14878  10.198   0.968   3.346 -0.8492  1.3757 -0.3797
  111MOL0     C14879  10.295   0.924   3.453 -0.0124 -0.5551 -0.6748
  111MOL0     O14880  10.257   0.881   3.579  0.5025  0.4617  0.5082
  111MOL0     C14881  10.346   0.809   3.652  0.0362  0.4152  0.3724
  111MOL0     C14882  10.323   0.685   3.690  0.0694 -0.0203 -1.1438
  111MOL0     C14883  10.419   0.623   3.777 -0.3367  0.3741  0.1083
  111MOL0     C14884  10.536   0.692   3.824 -0.5121  0.6954  0.0274
  111MOL0     O14885  10.632   0.610   3.885 -0.1509  0.1236 -0.2944
  111MOL0     C14886  10.711   0.667   3.989 -1.0351 -0.2123 -0.3844
  111MOL0     C14887  10.710   0.552   4.087  0.0851 -1.2242 -0.1729
  111MOL0     C14888  10.818   0.585   4.199  0.9541  0.8372 -0.2030
  111MOL0     C14889  10.841   0.456   4.283 -0.2645 -0.2414  0.1230
  111MOL0     C14890  10.947   0.478   4.392  0.7416  0.5212 -0.3226
  111MOL0     C14891  10.890   0.539   4.523 -0.6635  0.0416 -0.0662
  111MOL0     C14892  10.994   0.557   4.632 -0.1081 -0.6216  0.6307
  111MOL0     C14893  10.935   0.592   4.776 -0.3035 -0.3792 -0.2291
  111MOL0    Cl14894  10.861   0.758   4.771 -0.2864 -0.1943  0.2893
  111MOL0     C14895  10.556   0.821   3.781  0.5128  0.1918  0.0270
  111MOL0     C14896  10.456   0.878   3.705  0.7412 -0.3690  0.9636
  111MOL0     O14897  10.415   0.922   3.422 -0.5477 -0.4994 -0.0256
  111MOL0     C14898  10.246   1.006   3.221 -0.2878 -0.2410 -0.7964
  111MOL0     C14899  10.155   1.022   3.111  0.6471  0.1358  0.1066
  111MOL0     N14900   9.417   0.641   2.890  0.0709 -0.5912 -0.7388
  111MOL0     N14901   9.308   0.592   2.851 -0.3749  0.7518 -0.4761
  111MOL0     C14902   8.459   0.103   2.081  0.3042 -0.4238  0.4728
  111MOL0     C14903   8.367   0.141   1.984 -0.7773 -0.0409  1.1071
  111MOL0     C14904   8.150   0.320   1.631 -0.6965 -0.1121 -0.1104
  111MOL0     C14905   8.020   0.282   1.628  0.7450  0.0328 -0.5201
  111MOL0     C14906   7.942   0.300   1.518  0.4372  0.7967  0.7415
  111MOL0     C14907   7.999   0.347   1.398 -0.8875  0.4900 -0.3485
  111MOL0     O14908   7.940   0.350   1.269 -0.0533 -0.1315  0.1740
  111MOL0     C14909   7.808   0.300   1.247 -0.5950 -0.5063 -0.5640
  111MOL0     C14910   7.731   0.379   1.139  0.2725  0.3323  0.6605
  111MOL0     C14911   7.789   0.361   1.006 -0.3329  0.4956 -0.5409
  111MOL0     C14912   7.726   0.447   0.895  0.4530  0.3837  0.3877
  111MOL0     C14913   7.784   0.411   0.766 -0.8379  0.0940 -0.0416
  111MOL0     C14914   7.833   0.384   0.655 -0.0483 -0.3426 -0.3926
  111MOL0     C14915   8.131   0.397   1.402 -0.8048 -0.5565 -0.6212
  111MOL0     C14916   8.209   0.377   1.516  0.1531  0.2064  0.4042
  111MOL0     C14917   8.350   0.425   1.512 -0.3762  0.3964  1.3539
  111MOL0     H14918   8.602   0.247   1.760  0.4815  0.2457  0.7843
  111MOL0     H14919   8.752   0.152   1.927 -0.3104 -0.7921  0.3419
  111MOL0     H14920   8.611   0.123   2.303  1.6180  1.6790 -1.8655
  111MOL0     H14921   8.603  -0.059   2.285  2.1682 -1.2062  0.3853
  111MOL0     H14922   8.852  -0.053   2.306  2.0137  1.1765  1.0266
  111MOL0     H14923   8.754  -0.033   2.454 -0.5350  1.9506  0.5207
  111MOL0     H14924   8.790   0.220   2.406  2.9955  1.8460  1.8553
  111MOL0     H14925   8.938   0.174   2.324  0.8899 -2.2361  0.3959
  111MOL0     H14926   8.874   0.148   2.601 -1.5503  1.1796 -0.9236
  111MOL0     H14927   8.976   0.015   2.536  2.8614  0.4963  0.0730
  111MOL0     H14928   9.126   0.140   2.632  0.1274  0.3360  1.1786
  111MOL0     H14929   9.140   0.215   2.463  0.5058 -0.4286  0.5475
  111MOL0     H14930   8.981   0.381   2.519  0.7580 -0.3609 -0.6578
  111MOL0     H14931   8.978   0.332   2.688 -2.1492  1.0174 -0.7772
  111MOL0     H14932   9.121   0.542   2.639  1.7418  1.5427 -1.5410
  111MOL0     H14933   9.227   0.460   2.529  1.1294  2.9270  1.8127
  111MOL0     H14934   9.187   0.386   2.812 -0.7096  1.4336 -0.7223
  111MOL0     H14935   9.300   0.298   2.704 -1.6998 -1.5226 -0.2247
  111MOL0     H14936   9.551   0.424   2.683 -1.1131  1.2822 -2.3714
  111MOL0     H14937   9.729   0.569   2.896  0.8811 -1.2041 -3.4990
  111MOL0     H14938   9.712   0.675   2.755  1.1320  0.6208 -0.3414
  111MOL0     H14939   9.593   0.846   2.887 -0.9326  0.2541 -0.4194
  111MOL0     H14940   9.634   0.759   3.039 -0.6264 -1.4349  0.0271
  111MOL0     H14941   9.842   0.842   2.845 -0.6966 -1.8416 -0.7478
  111MOL0     H14942   9.864   0.762   3.005 -0.2041  1.7227  1.5280
  111MOL0     H14943   9.761   0.964   3.109 -0.2761 -0.7788  0.2149
  111MOL0     H14944   9.749   1.044   2.956  0.1174  2.1030  3.0687
  111MOL0     H14945   9.869   0.940   3.284 -0.5686  0.8261  0.4383
  111MOL0     H14946  10.026   0.921   3.465  1.6409 -0.9635  0.7053
  111MOL0     H14947  10.238   0.632   3.647  0.3332 -0.4875 -1.0889
  111MOL0     H14948  10.419   0.518   3.804 -1.8034  0.3767  0.2336
  111MOL0     H14949  10.813   0.692   3.960 -0.0941  0.0567  2.8043
  111MOL0     H14950  10.667   0.757   4.032 -0.2555 -0.1585  0.3091
  111MOL0     H14951  10.610   0.537   4.128  0.6350 -3.0698  0.6085
  111MOL0     H14952  10.734   0.458   4.035 -3.6532 -1.5971 -1.5572
  111MOL0     H14953  10.911   0.613   4.150 -0.3806  1.3564 -2.5977
  111MOL0     H14954  10.787   0.666   4.266 -0.9602  0.6440 -0.7788
  111MOL0     H14955  10.858   0.368   4.220 -2.7840  0.9986 -2.5740
  111MOL0     H14956  10.746   0.423   4.327 -0.5356  1.1255  0.6000
  111MOL0     H14957  11.017   0.550   4.350 -0.0766  0.2396 -2.2777
  111MOL0     H14958  10.992   0.379   4.400  0.3878  0.1939 -1.9740
  111MOL0     H14959  10.851   0.640   4.507 -0.8660 -0.3868 -2.6981
  111MOL0     H14960  10.809   0.473   4.557 -2.6596  1.1240 -2.3354
  111MOL0     H14961  11.061   0.640   4.609 -0.8820 -0.0842  0.2455
  111MOL0     H14962  11.045   0.463   4.649 -0.9641 -0.8870  1.9208
  111MOL0     H14963  10.867   0.511   4.806 -0.5683  0.6950  2.2719
  111MOL0     H14964  11.020   0.594   4.844 -0.1467  3.7292 -0.3071
  111MOL0     H14965  10.636   0.887   3.813 -0.3488  1.0943  0.3652
  111MOL0     H14966  10.458   0.981   3.671 -3.3793 -0.0439  1.1999
  111MOL0     H14967  10.349   1.040   3.218  0.1267 -1.2415  0.6681
  111MOL0     H14968  10.208   1.053   3.022  1.4669  2.6782  1.3617
  111MOL0     H14969   8.421   0.041   2.161  1.4796 -1.6775  0.0971
  111MOL0     H14970   8.262   0.119   2.002 -1.3286 -1.7319 -3.1372
  111MOL0     H14971   7.974   0.239   1.717 -0.2061  3.2130  0.6830
  111MOL0     H14972   7.843   0.259   1.535  0.0016  1.6801  0.4380
  111MOL0     H14973   7.751   0.304   1.340  0.5381 -2.1133  0.2440
  111MOL0     H14974   7.815   0.196   1.214 -2.2571 -0.5470 -0.8585
  111MOL0     H14975   7.733   0.486   1.162 -0.0449  0.6028 -0.4630
  111MOL0     H14976   7.625   0.355   1.139 -0.2495  2.4535  0.8781
  111MOL0     H14977   7.775   0.256   0.980 -1.9454  0.5515  0.0186
  111MOL0     H14978   7.896   0.381   1.016 -0.1654  0.2995 -1.8423
  111MOL0     H14979   7.617   0.437   0.896  0.1694  2.7882  2.0352
  111MOL0     H14980   7.742   0.555   0.907 -0.3625  1.1157 -3.7299
  111MOL0     H14981   7.884   0.359   0.565  2.5900 -1.8848  1.3849
  111MOL0     H14982   8.168   0.419   1.302 -1.0063  3.7338  0.0385
  111MOL0     H14983   8.381   0.381   1.417 -1.2824  1.5309  0.4856
  111MOL0     H14984   8.354   0.533   1.493  1.8475 -0.0973 -1.7299
  111MOL0     H14985   8.412   0.381   1.590 -0.1072 -3.8815 -0.9745
  112MOL0     O14986   3.509   8.851   0.611 -0.5863  0.5208  0.2502
  112MOL0     C14987   3.560   8.838   0.496 -0.8908  0.8668 -0.5240
  112MOL0     O14988   3.692   8.816   0.460 -0.2463 -0.3171 -0.0147
  112MOL0     C14989   3.781   8.818   0.557  0.8031 -0.0967 -0.5126
  112MOL0     C14990   3.889   8.904   0.546 -1.1109  0.6643  0.4837
  112MOL0     C14991   4.003   8.894   0.624 -0.2670  0.0907 -0.4015
  112MOL0     C14992   4.008   8.790   0.727 -0.7402 -0.3587  0.4112
  112MOL0     O14993   4.119   8.785   0.819  0.7973 -0.1545  1.2407
  112MOL0     C14994   4.244   8.842   0.780 -0.0471 -0.1073 -0.2643
  112MOL0     C14995   4.351   8.790   0.876 -0.1227  0.7287  1.0674
  112MOL0     C14996   4.487   8.858   0.839  0.7844  0.7349 -0.3044
  112MOL0     C14997   4.480   9.000   0.883 -1.6514  0.3970 -0.0013
  112MOL0     C14998   4.615   9.075   0.872 -0.0640  0.4212 -0.2751
  112MOL0     C14999   4.631   9.122   0.728 -0.6362 -0.5046 -0.0500
  112MOL0     C15000   4.772   9.191   0.701 -0.1637  0.5695 -0.2878
  112MOL0     C15001   4.885   9.090   0.667 -0.6622 -0.4453  0.8523
  112MOL0     N15002   5.008   9.160   0.632  0.3621 -0.2306 -1.5850
  112MOL0     C15003   5.126   9.082   0.656 -0.0683 -0.4074 -0.4551
  112MOL0     C15004   5.219   9.147   0.580  0.4803 -0.8376 -0.2893
  112MOL0     C15005   5.370   9.117   0.579  0.3324  0.4907  0.6316
  112MOL0     C15006   5.434   9.254   0.617 -0.3076  0.2166 -0.5712
  112MOL0     C15007   5.587   9.249   0.629  0.0366  0.6810 -0.1681
  112MOL0     C15008   5.617   9.143   0.733 -0.3895 -0.4453 -0.0486
  112MOL0     O15009   5.749   9.163   0.788  1.0293  0.6649  0.2776
  112MOL0     C15010   5.798   9.053   0.859  0.2905 -0.8266  0.0228
  112MOL0     C15011   5.717   8.957   0.922  0.2318 -0.0327  0.0180
  112MOL0     C15012   5.762   8.863   1.011 -0.8892 -1.4557 -0.6096
  112MOL0     C15013   5.900   8.876   1.060 -0.2801 -0.2030 -0.0681
  112MOL0     C15014   5.954   8.779   1.166  0.8451 -1.1057  0.7773
  112MOL0     O15015   5.917   8.646   1.159  0.3101  0.0875 -0.3453
  112MOL0     C15016   6.005   8.555   1.221  0.5392 -0.0689  0.2611
  112MOL0     C15017   6.120   8.516   1.154  0.5767 -0.9298  0.2012
  112MOL0     C15018   6.221   8.441   1.207  0.1386 -0.1296 -0.7899
  112MOL0     C15019   6.204   8.400   1.340 -0.3841  0.1693  0.1721
  112MOL0     O15020   6.300   8.318   1.388  0.2477 -0.6524  0.3167
  112MOL0     C15021   6.382   8.383   1.488  0.3912 -0.3655 -0.2125
  112MOL0     C15022   6.504   8.295   1.522 -0.6564 -0.0844  0.0781
  112MOL0     C15023   6.590   8.272   1.399 -0.2432 -0.3632 -1.0165
  112MOL0     C15024   6.726   8.236   1.472 -0.1736  0.0733  0.2855
  112MOL0     C15025   6.841   8.218   1.367 -0.4632 -0.1653  0.4314
  112MOL0     C15026   6.976   8.169   1.410 -0.5173 -0.3852  0.3467
  112MOL0     C15027   7.078   8.191   1.297 -0.0774  0.3614  0.7939
  112MOL0     C15028   7.224   8.156   1.338 -0.1068 -0.1886  0.0537
  112MOL0    Cl15029   7.284   8.302   1.433  0.2197 -0.1595 -0.5016
  112MOL0     C15030   6.089   8.435   1.412 -0.6313 -0.1432 -0.9734
  112MOL0     C15031   5.991   8.509   1.352  0.1704  0.6719  0.6138
  112MOL0     O15032   6.045   8.824   1.234  0.9026 -0.4424 -1.0530
  112MOL0     C15033   5.981   8.975   0.999 -0.4391 -0.8052 -0.5460
  112MOL0     C15034   5.936   9.055   0.891  0.3848  0.6934 -0.7516
  112MOL0     N15035   5.147   9.238   0.499 -0.1418 -0.5779  0.1051
  112MOL0     N15036   5.021   9.244   0.527 -0.2248 -0.8535 -0.1545
  112MOL0     C15037   3.894   8.700   0.737 -0.2373 -0.0926 -0.9975
  112MOL0     C15038   3.783   8.721   0.660  0.4425  0.3151  0.6080
  112MOL0     C15039   3.466   8.858   0.382 -0.3324 -0.0478  0.8544
  112MOL0     C15040   3.344   8.777   0.382  0.4872 -0.7891 -0.2885
  112MOL0     C15041   3.250   8.804   0.282  0.4157  0.1404  0.6286
  112MOL0     C15042   3.270   8.891   0.180 -0.0802 -0.3272  0.0260
  112MOL0     O15043   3.184   8.899   0.072 -0.3590 -0.0700 -0.7599
  112MOL0     C15044   3.221   8.840  -0.051  0.5286  0.0701  0.2485
  112MOL0     C15045   3.150   8.710  -0.055  0.2738  1.0189  0.2867
  112MOL0     C15046   3.159   8.637  -0.190  0.4210  0.3541  0.5671
  112MOL0     C15047   3.107   8.492  -0.176 -0.6814  0.7380  0.8290
  112MOL0     C15048   2.965   8.463  -0.168  0.0814 -0.4124  0.0256
  112MOL0     C15049   2.843   8.445  -0.175  0.2775 -0.0237  0.0256
  112MOL0     C15050   3.385   8.970   0.182  0.0266 -0.3156 -0.8664
  112MOL0     C15051   3.476   8.966   0.288 -0.5017  0.4205 -0.5230
  112MOL0     C15052   3.584   9.063   0.310 -0.7239  0.1715 -0.7955
  112MOL0     H15053   3.888   8.983   0.472  0.3247  1.0653  0.8587
  112MOL0     H15054   4.081   8.967   0.607 -0.4753  0.3608 -0.2145
  112MOL0     H15055   4.276   8.814   0.679  0.5508 -0.2186 -0.0462
  112MOL0     H15056   4.232   8.951   0.786 -1.1587 -0.2837  1.5476
  112MOL0     H15057   4.364   8.685   0.848 -1.5028  1.3520 -2.5558
  112MOL0     H15058   4.329   8.801   0.982  1.1656 -3.3919  1.9625
  112MOL0     H15059   4.513   8.838   0.735 -0.9870 -2.4234 -0.2504
  112MOL0     H15060   4.569   8.804   0.886  0.7716  2.0283  1.3191
  112MOL0     H15061   4.402   9.060   0.835 -2.1800  1.2001  1.7473
  112MOL0     H15062   4.435   8.999   0.983  0.8010 -2.1969  1.2188
  112MOL0     H15063   4.604   9.169   0.927 -1.3208  0.1058  0.0479
  112MOL0     H15064   4.700   9.021   0.912  0.1762  1.5485  0.8099
  112MOL0     H15065   4.611   9.040   0.659 -0.6655 -0.8582  0.3731
  112MOL0     H15066   4.548   9.188   0.701 -2.1890 -1.5105  1.9648
  112MOL0     H15067   4.797   9.266   0.777 -1.7380  1.2628 -0.4079
  112MOL0     H15068   4.752   9.250   0.611  3.2930  0.7809 -1.0245
  112MOL0     H15069   4.901   9.031   0.757  1.2698 -2.1764 -0.5244
  112MOL0     H15070   4.858   9.035   0.576  1.8908 -1.2082  0.4817
  112MOL0     H15071   5.151   9.010   0.733  2.8314 -0.7885 -1.5880
  112MOL0     H15072   5.386   9.037   0.652 -3.0396 -0.0155  0.9682
  112MOL0     H15073   5.403   9.104   0.475  0.9405 -0.7609  0.9687
  112MOL0     H15074   5.400   9.329   0.545 -1.1557  1.3856  0.9903
  112MOL0     H15075   5.396   9.289   0.713 -1.3322  0.8663 -1.2030
  112MOL0     H15076   5.615   9.354   0.642  0.9656  0.8767 -3.0437
  112MOL0     H15077   5.638   9.211   0.539  0.4175 -1.1972  0.7760
  112MOL0     H15078   5.615   9.050   0.675  1.3910 -1.9781  2.1661
  112MOL0     H15079   5.543   9.138   0.813 -1.3371 -3.5470 -0.9889
  112MOL0     H15080   5.613   8.940   0.896  0.7453 -1.0203 -1.5725
  112MOL0     H15081   5.697   8.783   1.044 -1.2210 -1.2113 -0.6641
  112MOL0     H15082   6.123   8.548   1.050  1.0428 -1.6678 -0.0204
  112MOL0     H15083   6.310   8.416   1.151 -0.9178 -0.6580 -2.2915
  112MOL0     H15084   6.396   8.487   1.457 -1.4605 -0.7152 -2.5377
  112MOL0     H15085   6.334   8.396   1.585  0.7259 -1.4774  0.1073
  112MOL0     H15086   6.558   8.339   1.607  0.7585 -1.0656 -0.2780
  112MOL0     H15087   6.470   8.197   1.556  4.7042 -2.1749  0.3752
  112MOL0     H15088   6.536   8.198   1.339  3.2483 -1.8316 -2.6427
  112MOL0     H15089   6.614   8.365   1.346  1.1619  0.8255  1.5337
  112MOL0     H15090   6.723   8.140   1.524  2.3220 -0.6257 -0.6931
  112MOL0     H15091   6.761   8.320   1.534 -1.1393  1.3553 -0.8439
  112MOL0     H15092   6.863   8.320   1.334 -1.7490 -0.7305 -2.4059
  112MOL0     H15093   6.807   8.173   1.274  1.5062  1.5483 -1.2258
  112MOL0     H15094   7.019   8.227   1.492  1.1107  1.5783 -1.7913
  112MOL0     H15095   6.967   8.066   1.446 -2.7410  0.9062  4.0584
  112MOL0     H15096   7.068   8.296   1.270 -2.8369  0.4322  1.7746
  112MOL0     H15097   7.055   8.136   1.205  4.2714  0.4447 -0.5884
  112MOL0     H15098   7.235   8.056   1.380 -2.0445  0.3128  1.9369
  112MOL0     H15099   7.279   8.162   1.244  0.9721 -0.4358  0.6549
  112MOL0     H15100   6.069   8.372   1.498 -1.1450  0.6868 -0.4752
  112MOL0     H15101   5.905   8.535   1.414  0.2507  1.7075  0.3215
  112MOL0     H15102   6.089   8.974   1.009 -0.5430 -0.4017  0.8087
  112MOL0     H15103   6.002   9.119   0.831  5.0608 -1.8925  1.0890
  112MOL0     H15104   3.906   8.622   0.811 -0.7136  2.4991  2.0128
  112MOL0     H15105   3.692   8.663   0.660  1.3039 -1.0919 -0.4487
  112MOL0     H15106   3.332   8.708   0.465  0.7227 -0.0223  0.3989
  112MOL0     H15107   3.156   8.749   0.281  0.7660 -0.4704  0.4127
  112MOL0     H15108   3.326   8.812  -0.061  0.4759  0.4870 -1.9524
  112MOL0     H15109   3.189   8.895  -0.140 -1.1009 -2.6262 -0.9784
  112MOL0     H15110   3.045   8.725  -0.030  0.0889 -0.1430  0.2942
  112MOL0     H15111   3.182   8.648   0.029  1.3715  0.9131 -0.1905
  112MOL0     H15112   3.262   8.648  -0.224  0.7165 -2.4528  0.3626
  112MOL0     H15113   3.102   8.687  -0.269 -1.3689  0.6881  2.0003
  112MOL0     H15114   3.131   8.434  -0.265 -2.3977  0.0213  0.8048
  112MOL0     H15115   3.156   8.455  -0.085 -0.5742 -2.0373 -0.2881
  112MOL0     H15116   2.738   8.436  -0.192  0.1942  0.0101  0.4906
  112MOL0     H15117   3.382   9.046   0.104 -0.0527  1.2182  0.5717
  112MOL0     H15118   3.581   9.143   0.235 -1.7996  1.4595  0.5756
  112MOL0     H15119   3.595   9.101   0.412 -0.4932 -1.3244 -0.2254
  112MOL0     H15120   3.675   9.004   0.291 -2.5206 -2.3539 -2.1295
  113MOL0     O15121   2.084   9.156   5.654  0.1379 -0.0753  0.0092
  113MOL0     C15122   2.056   9.066   5.733  0.2383  0.3151  0.2472
  113MOL0     O15123   1.974   9.075   5.836 -0.1781  0.2981  0.4114
  113MOL0     C15124   1.895   9.190   5.836  0.3232  0.1638 -0.7543
  113MOL0     C15125   1.849   9.264   5.732 -0.2247  0.0285 -0.2275
  113MOL0     C15126   1.752   9.355   5.749  0.3222 -1.1275 -0.3503
  113MOL0     C15127   1.691   9.372   5.870 -0.3231 -0.1373 -0.9390
  113MOL0     O15128   1.591   9.464   5.867 -0.5576  0.2940 -0.1018
  113MOL0     C15129   1.543   9.522   5.993  0.1516 -0.7690 -0.4547
  113MOL0     C15130   1.451   9.635   5.966 -0.2265  0.2621 -0.5832
  113MOL0     C15131   1.521   9.753   5.896 -0.3716 -0.2013 -0.8235
  113MOL0     C15132   1.413   9.855   5.863  0.2504 -0.2602  1.2197
  113MOL0     C15133   1.486   9.987   5.830 -0.2577 -0.2628  0.2436
  113MOL0     C15134   1.548  10.057   5.952  0.2599 -0.2937 -0.3881
  113MOL0     C15135   1.577  10.206   5.923  0.0245 -0.8741 -0.9641
  113MOL0     C15136   1.689  10.252   5.840 -0.3236  0.5375 -0.7494
  113MOL0     N15137   1.820  10.214   5.900 -0.3275 -0.2862  0.0702
  113MOL0     C15138   1.893  10.269   6.002  0.2971 -0.1706  0.0140
  113MOL0     C15139   2.003  10.187   6.020 -0.1887  0.3465 -0.4040
  113MOL0     C15140   2.116  10.214   6.103  0.3223  0.1432 -0.0221
  113MOL0     C15141   2.096  10.167   6.250 -0.0670 -0.1277  0.3102
  113MOL0     C15142   2.013  10.035   6.275 -0.2777  0.0438  0.1389
  113MOL0     C15143   2.089   9.915   6.217  0.7157  0.1216  0.2270
  113MOL0     O15144   2.198   9.881   6.297  0.9739 -0.0916 -0.4403
  113MOL0     C15145   2.188   9.838   6.430  0.4811  0.7213 -0.2632
  113MOL0     C15146   2.306   9.824   6.507  0.8497  0.9285  0.3148
  113MOL0     C15147   2.295   9.777   6.634  1.0163  0.3113 -0.4659
  113MOL0     C15148   2.172   9.731   6.696 -0.3698 -0.8236  0.8659
  113MOL0     C15149   2.169   9.700   6.838  0.3970  0.4732 -0.1463
  113MOL0     O15150   2.047   9.669   6.894 -0.5669  0.6759  0.7402
  113MOL0     C15151   2.043   9.618   7.017  0.6923 -0.6361  0.1328
  113MOL0     C15152   1.927   9.647   7.094 -0.2133 -0.2410  0.4169
  113MOL0     C15153   1.905   9.596   7.227 -0.0340 -0.4414 -0.1916
  113MOL0     C15154   1.999   9.511   7.282  0.3419 -0.7253 -0.8112
  113MOL0     O15155   1.968   9.449   7.403  0.7723  0.2545 -0.2254
  113MOL0     C15156   2.070   9.417   7.494 -0.0160  0.8511  0.7775
  113MOL0     C15157   2.124   9.560   7.547 -0.1383  0.1206 -0.0214
  113MOL0     C15158   2.076   9.615   7.678  0.9229 -0.1720 -0.1808
  113MOL0     C15159   1.919   9.617   7.700 -0.8555  0.1950  0.2422
  113MOL0     C15160   1.855   9.710   7.602  0.6135  0.4834 -0.7186
  113MOL0     C15161   1.705   9.693   7.592  1.1353  0.4164 -0.2430
  113MOL0     C15162   1.642   9.834   7.555 -0.0453 -0.0743  0.2304
  113MOL0     C15163   1.498   9.839   7.501  1.0945 -0.0188  0.0582
  113MOL0    Cl15164   1.406   9.791   7.655  0.4994  0.2668 -0.3390
  113MOL0     C15165   2.106   9.468   7.206  0.4673 -0.2057 -0.6419
  113MOL0     C15166   2.128   9.525   7.080  0.2157  0.6181  0.0948
  113MOL0     O15167   2.275   9.719   6.901 -0.6783  0.2375 -0.2016
  113MOL0     C15168   2.055   9.738   6.612 -0.4262 -0.8344 -0.0907
  113MOL0     C15169   2.069   9.791   6.486 -0.7411  0.8590 -0.2070
  113MOL0     N15170   1.999  10.098   5.914 -0.7984  0.0709  0.6261
  113MOL0     N15171   1.886  10.107   5.852 -0.8946 -0.4820 -0.6681
  113MOL0     C15172   1.745   9.305   5.990 -0.6211 -0.0794  0.9903
  113MOL0     C15173   1.846   9.211   5.961  0.4597 -0.2130 -0.4914
  113MOL0     C15174   2.156   8.959   5.725 -0.4198  0.4895  1.2703
  113MOL0     C15175   2.279   8.992   5.783  0.9660  0.0639  0.0670
  113MOL0     C15176   2.376   8.892   5.780 -0.7104  0.5954  0.2573
  113MOL0     C15177   2.365   8.771   5.704 -0.8542  0.1242 -1.1129
  113MOL0     O15178   2.464   8.679   5.702 -0.4306  0.0221 -0.2202
  113MOL0     C15179   2.551   8.671   5.823  0.0605 -0.3881 -0.0758
  113MOL0     C15180   2.565   8.529   5.865 -0.5104  0.5297 -0.1072
  113MOL0     C15181   2.586   8.508   6.016  0.2770 -0.5724 -0.9816
  113MOL0     C15182   2.592   8.359   6.063  0.5979  0.8387 -0.4003
  113MOL0     C15183   2.478   8.280   6.033  0.4267  0.4149  1.1862
  113MOL0     C15184   2.376   8.228   5.991 -0.7216 -0.7447  0.0831
  113MOL0     C15185   2.242   8.742   5.646 -0.2259  0.5293 -0.0843
  113MOL0     C15186   2.140   8.832   5.656  0.3162  0.2621  0.2765
  113MOL0     C15187   2.001   8.798   5.602  0.2529 -0.4510 -0.4101
  113MOL0     H15188   1.891   9.256   5.632  1.0367 -1.3824  0.3666
  113MOL0     H15189   1.732   9.415   5.662  0.7283  0.0844  0.3721
  113MOL0     H15190   1.490   9.447   6.052  0.9704 -1.4628 -0.5804
  113MOL0     H15191   1.632   9.555   6.047  0.0438  0.3040 -0.9151
  113MOL0     H15192   1.398   9.664   6.057 -0.2684 -1.7025  0.0691
  113MOL0     H15193   1.365   9.609   5.905 -2.6037  0.5869  2.3806
  113MOL0     H15194   1.583   9.729   5.809  0.8509  1.1840 -0.3631
  113MOL0     H15195   1.595   9.788   5.969 -0.4347  0.0384 -0.8725
  113MOL0     H15196   1.352   9.828   5.776  1.0535 -0.0459  0.5784
  113MOL0     H15197   1.346   9.881   5.946  0.3835  2.3535  0.6165
  113MOL0     H15198   1.559   9.958   5.753 -1.7510 -2.8033 -0.3474
  113MOL0     H15199   1.419  10.056   5.778 -2.2296 -1.4262  1.1383
  113MOL0     H15200   1.475  10.063   6.033  0.8729  0.5412  0.1182
  113MOL0     H15201   1.631   9.997   5.990  2.1146  1.4898 -1.4261
  113MOL0     H15202   1.607  10.248   6.019  3.4679  2.9557 -3.3972
  113MOL0     H15203   1.491  10.252   5.874  1.4422  1.2043 -1.5886
  113MOL0     H15204   1.689  10.205   5.741 -3.3876 -3.7514  0.9485
  113MOL0     H15205   1.691  10.360   5.829  1.0574  0.6313  0.1527
  113MOL0     H15206   1.871  10.350   6.070 -1.2726 -0.0235 -0.6199
  113MOL0     H15207   2.199  10.170   6.047 -0.8991 -2.1790 -0.1113
  113MOL0     H15208   2.133  10.322   6.112  2.4689 -0.0586 -1.0203
  113MOL0     H15209   2.194  10.155   6.295 -1.4401 -0.9156  3.3391
  113MOL0     H15210   2.043  10.249   6.298  1.7416  0.5069  1.2993
  113MOL0     H15211   1.920  10.048   6.220 -1.0207  0.1079  1.3654
  113MOL0     H15212   1.979  10.025   6.379 -0.1754 -0.0517  0.1643
  113MOL0     H15213   2.121   9.951   6.119  0.7664  1.1121  0.5993
  113MOL0     H15214   2.018   9.834   6.199 -0.9995  1.5115  0.4281
  113MOL0     H15215   2.398   9.857   6.460  0.0640  2.7639 -0.0024
  113MOL0     H15216   2.383   9.790   6.697  1.0030  3.2167 -0.9211
  113MOL0     H15217   1.861   9.726   7.057  1.8477  2.8543  2.8513
  113MOL0     H15218   1.813   9.621   7.279  0.2827  0.6683 -0.1477
  113MOL0     H15219   2.037   9.350   7.573 -0.8956  0.1994 -0.1205
  113MOL0     H15220   2.166   9.375   7.462  0.9383  0.1518  4.1377
  113MOL0     H15221   2.233   9.554   7.548  0.0098  2.1593 -0.2797
  113MOL0     H15222   2.099   9.635   7.471  0.4257  1.7142  1.3199
  113MOL0     H15223   2.120   9.549   7.753 -0.1751 -1.1509 -0.3637
  113MOL0     H15224   2.126   9.711   7.691  0.4608 -0.1904  2.1467
  113MOL0     H15225   1.891   9.639   7.803 -0.2311 -1.0446  0.6940
  113MOL0     H15226   1.885   9.515   7.682  0.6815 -1.2396  4.2506
  113MOL0     H15227   1.884   9.679   7.501  2.0378  0.3137 -0.2797
  113MOL0     H15228   1.880   9.816   7.596 -1.7029  1.0597 -1.0551
  113MOL0     H15229   1.664   9.618   7.523  0.8578 -1.2967  1.6758
  113MOL0     H15230   1.663   9.666   7.689  1.7619  0.6007  0.0823
  113MOL0     H15231   1.692   9.888   7.474 -0.8112  3.6751  2.0410
  113MOL0     H15232   1.638   9.894   7.646 -2.9511  4.2039 -2.3540
  113MOL0     H15233   1.472   9.935   7.456 -0.1769 -1.8455 -3.4488
  113MOL0     H15234   1.485   9.765   7.422 -0.3784 -0.5766  0.7912
  113MOL0     H15235   2.179   9.393   7.232 -0.5846 -0.8418  0.6028
  113MOL0     H15236   2.215   9.501   7.021  0.4642 -0.0543  0.7250
  113MOL0     H15237   1.961   9.709   6.659 -1.2238  0.0029 -1.1026
  113MOL0     H15238   1.981   9.789   6.421 -0.7484 -0.6056 -0.1791
  113MOL0     H15239   1.705   9.322   6.089  1.0479  0.4440  1.5968
  113MOL0     H15240   1.864   9.141   6.042 -0.7155  0.6592  0.5668
  113MOL0     H15241   2.302   9.087   5.830  2.4859 -1.1154  1.8529
  113MOL0     H15242   2.463   8.912   5.842 -2.4181  0.8677  2.7197
  113MOL0     H15243   2.503   8.715   5.910 -0.4931  0.2998 -0.7242
  113MOL0     H15244   2.644   8.723   5.802  0.4606  0.6673  3.5557
  113MOL0     H15245   2.647   8.484   5.808 -0.4734  1.6677 -0.9973
  113MOL0     H15246   2.480   8.463   5.849  1.8501 -3.0619  1.0458
  113MOL0     H15247   2.502   8.544   6.076 -0.8782 -3.1742 -0.9062
  113MOL0     H15248   2.683   8.551   6.043  1.0182 -1.2597 -2.4368
  113MOL0     H15249   2.678   8.310   6.018  0.3138  1.3937 -1.5894
  113MOL0     H15250   2.611   8.346   6.170 -4.6478  3.3462  1.1655
  113MOL0     H15251   2.298   8.174   5.941 -1.4445  2.1994 -2.2789
  113MOL0     H15252   2.235   8.648   5.592 -1.0337  1.4985 -1.7359
  113MOL0     H15253   1.965   8.882   5.542  4.5294  0.2750 -2.3361
  113MOL0     H15254   2.007   8.711   5.536 -1.6135 -2.1422  1.5039
  113MOL0     H15255   1.940   8.772   5.689  2.1357  2.3874  1.9291
  114MOL0     O15256   9.206   9.129   5.019 -0.3945 -0.2798  0.1481
  114MOL0     C15257   9.312   9.160   5.071  0.4313 -0.3303 -0.4730
  114MOL0     O15258   9.417   9.210   5.008  0.3812  0.6175 -0.4355
  114MOL0     C15259   9.417   9.212   4.868 -0.8400  0.6166 -0.0216
  114MOL0     C15260   9.484   9.112   4.799 -0.8538  0.4780 -0.2970
  114MOL0     C15261   9.485   9.107   4.659  0.2917  0.3631 -0.7138
  114MOL0     C15262   9.439   9.214   4.582 -0.6167 -0.2759 -0.1373
  114MOL0     O15263   9.451   9.208   4.445 -0.2000 -0.2981 -1.0760
  114MOL0     C15264   9.362   9.116   4.382 -0.5529  1.0658 -0.9510
  114MOL0     C15265   9.385   9.092   4.236  0.2433  0.1814  0.1837
  114MOL0     C15266   9.484   8.991   4.195 -0.6330 -0.3495 -0.2200
  114MOL0     C15267   9.587   9.024   4.081 -0.8371 -0.6590 -0.1188
  114MOL0     C15268   9.687   8.904   4.052  0.5528  0.1209 -0.4347
  114MOL0     C15269   9.792   8.947   3.958  0.1849 -0.1133  0.3431
  114MOL0     C15270   9.734   8.988   3.821  0.2735 -0.4007 -0.9204
  114MOL0     C15271   9.839   9.043   3.719 -0.4555  0.2513  0.3907
  114MOL0     N15272   9.958   8.961   3.689  0.4507  0.2200 -1.1013
  114MOL0     C15273  10.083   8.978   3.740 -0.1260  0.4149 -0.5562
  114MOL0     C15274  10.157   8.908   3.656 -0.5197  0.4852 -0.3041
  114MOL0     C15275  10.289   8.855   3.661  0.4765 -0.0336 -0.5141
  114MOL0     C15276  10.377   8.914   3.546  0.2336 -0.1669  0.7795
  114MOL0     C15277  10.512   8.848   3.541 -0.6634 -0.0022  0.1719
  114MOL0     C15278  10.597   8.866   3.676 -0.2112  0.3997  0.1631
  114MOL0     O15279  10.543   8.767   3.766 -0.8797  0.1450  0.0989
  114MOL0     C15280  10.599   8.757   3.893 -0.2194 -0.5732 -1.1943
  114MOL0     C15281  10.556   8.658   3.985 -0.0793  0.8176 -0.0143
  114MOL0     C15282  10.609   8.640   4.112 -0.0067  0.3329 -0.0525
  114MOL0     C15283  10.710   8.733   4.153 -0.4670  0.5474  0.2653
  114MOL0     C15284  10.780   8.713   4.286 -0.8165  0.4590 -0.9477
  114MOL0     O15285  10.912   8.765   4.298  0.0139 -0.2310  0.2198
  114MOL0     C15286  10.980   8.755   4.422  0.4816 -0.4369  0.5264
  114MOL0     C15287  11.082   8.671   4.448  0.7132 -0.0317 -0.8705
  114MOL0     C15288  11.141   8.664   4.574 -0.1601 -1.0821  0.4466
  114MOL0     C15289  11.109   8.758   4.674  0.4145 -0.9170 -0.1168
  114MOL0     O15290  11.167   8.775   4.795 -0.5741  0.3641  0.3506
  114MOL0     C15291  11.275   8.683   4.815 -0.4535 -0.7238  0.7452
  114MOL0     C15292  11.348   8.707   4.948 -0.2861  0.7638  0.1738
  114MOL0     C15293  11.419   8.851   4.958  0.2003 -0.5345  0.1636
  114MOL0     C15294  11.486   8.886   5.098 -0.4030 -0.4758 -0.1339
  114MOL0     C15295  11.373   8.870   5.207 -1.3121  0.2825 -1.3208
  114MOL0     C15296  11.423   8.914   5.339 -0.2443 -0.1246 -0.5563
  114MOL0     C15297  11.313   8.894   5.441  1.0475  0.3634 -0.4546
  114MOL0     C15298  11.371   8.869   5.584 -0.1012 -0.2936  1.0460
  114MOL0    Cl15299  11.457   8.710   5.576  0.0505  0.5147 -0.6269
  114MOL0     C15300  11.006   8.847   4.645 -0.1717  0.4695  0.2231
  114MOL0     C15301  10.939   8.845   4.525 -0.0718 -0.3325  0.5464
  114MOL0     O15302  10.730   8.647   4.376  0.1917 -0.1892 -0.0753
  114MOL0     C15303  10.752   8.835   4.065 -0.3761 -0.1491 -0.0108
  114MOL0     C15304  10.684   8.858   3.953  0.3182  0.5599  0.0408
  114MOL0     N15305  10.080   8.847   3.565  0.5829  0.3342  0.0922
  114MOL0     N15306   9.965   8.879   3.592  0.1835 -0.0806  0.4057
  114MOL0     C15307   9.390   9.323   4.653 -0.0854 -0.3251  0.4071
  114MOL0     C15308   9.374   9.321   4.787 -0.4151 -0.3369 -0.0809
  114MOL0     C15309   9.331   9.136   5.214 -0.6562 -0.4475 -0.4162
  114MOL0     C15310   9.297   9.016   5.275 -0.1695 -0.0921 -0.1449
  114MOL0     C15311   9.337   8.977   5.410  0.6031  0.3064 -0.2181
  114MOL0     C15312   9.382   9.088   5.484 -0.5840  0.1776 -0.7519
  114MOL0     O15313   9.427   9.076   5.614  0.6045 -1.0920  0.1543
  114MOL0     C15314   9.424   8.955   5.686  0.5498  0.3927 -0.3694
  114MOL0     C15315   9.514   8.958   5.809  0.0950  0.5445  0.2488
  114MOL0     C15316   9.438   9.022   5.924 -0.6472 -0.1571  1.0049
  114MOL0     C15317   9.514   9.032   6.055 -0.0449 -0.2755 -0.1393
  114MOL0     C15318   9.531   8.902   6.122  0.1706 -0.6933  0.1008
  114MOL0     C15319   9.546   8.793   6.171  0.1656  0.1162 -0.2703
  114MOL0     C15320   9.401   9.210   5.432 -0.1482 -0.8756  0.0817
  114MOL0     C15321   9.369   9.238   5.300 -0.0127 -0.3235  0.0276
  114MOL0     C15322   9.397   9.375   5.249  1.2173 -1.1781 -0.4328
  114MOL0     H15323   9.509   9.019   4.849 -0.1434  0.3201 -0.9292
  114MOL0     H15324   9.522   9.018   4.609 -2.8944 -0.4055 -1.9776
  114MOL0     H15325   9.365   9.021   4.436 -2.2404  1.4870 -0.0546
  114MOL0     H15326   9.261   9.158   4.390 -0.1491  2.0171 -0.7778
  114MOL0     H15327   9.435   9.183   4.203  0.8943  1.3416  3.8613
  114MOL0     H15328   9.292   9.065   4.185  0.3823 -2.0050  0.9774
  114MOL0     H15329   9.437   8.899   4.159  1.5919 -0.6819 -2.5594
  114MOL0     H15330   9.550   8.965   4.279  0.3381 -0.9889 -1.1589
  114MOL0     H15331   9.522   9.044   3.995 -2.8550  1.5958  1.7571
  114MOL0     H15332   9.643   9.116   4.102 -2.0915  0.2765 -0.6876
  114MOL0     H15333   9.726   8.872   4.149 -2.3735 -1.4418  0.3541
  114MOL0     H15334   9.629   8.816   4.022 -1.7656  1.2507  0.4336
  114MOL0     H15335   9.848   9.035   3.992 -2.3085  0.5106  3.2063
  114MOL0     H15336   9.860   8.861   3.955  0.5155  0.1723 -1.1852
  114MOL0     H15337   9.664   9.070   3.841 -1.6957 -2.8126  3.6156
  114MOL0     H15338   9.690   8.897   3.778 -1.1877 -1.7014  2.9325
  114MOL0     H15339   9.790   9.069   3.625 -2.9722 -1.1025  1.2457
  114MOL0     H15340   9.881   9.133   3.766 -1.0558 -1.0902  3.7666
  114MOL0     H15341  10.121   9.039   3.821  0.5557 -0.9335  0.1651
  114MOL0     H15342  10.337   8.888   3.753 -1.0148 -0.7478  0.5597
  114MOL0     H15343  10.293   8.745   3.663  0.3897 -0.0809 -1.8427
  114MOL0     H15344  10.337   8.871   3.454  1.1846  2.0358 -0.7493
  114MOL0     H15345  10.378   9.023   3.539 -2.4977 -0.0500  1.2080
  114MOL0     H15346  10.572   8.881   3.456  0.8741 -1.8013  0.4842
  114MOL0     H15347  10.500   8.740   3.527  0.5040 -0.0308 -0.7826
  114MOL0     H15348  10.591   8.969   3.711 -0.8582  0.0619  1.1000
  114MOL0     H15349  10.698   8.830   3.653 -1.0833 -2.1427 -0.0524
  114MOL0     H15350  10.485   8.583   3.954  1.5575  0.0850 -2.2126
  114MOL0     H15351  10.580   8.559   4.178 -0.1479  1.6747  1.6034
  114MOL0     H15352  11.112   8.601   4.371 -0.3089  0.2104 -1.5114
  114MOL0     H15353  11.215   8.588   4.596  1.0378 -0.1789 -0.2921
  114MOL0     H15354  11.246   8.577   4.819  1.9509 -1.5528 -0.9891
  114MOL0     H15355  11.360   8.683   4.745  1.0464  3.0160  2.2788
  114MOL0     H15356  11.296   8.691   5.043  1.4498  2.0983  1.4234
  114MOL0     H15357  11.431   8.636   4.950 -0.5683  0.4330  0.4074
  114MOL0     H15358  11.491   8.869   4.877  2.4297  2.7830  2.6245
  114MOL0     H15359  11.339   8.923   4.936 -0.0570 -1.8272 -3.8558
  114MOL0     H15360  11.513   8.992   5.084 -2.0014  0.1250  1.0734
  114MOL0     H15361  11.566   8.814   5.118 -0.7732 -1.2824 -1.4452
  114MOL0     H15362  11.340   8.766   5.212 -0.3699 -0.0842 -2.2358
  114MOL0     H15363  11.286   8.935   5.190 -2.7214  1.0378  5.8401
  114MOL0     H15364  11.515   8.857   5.355 -1.0012 -1.0347  0.7599
  114MOL0     H15365  11.452   9.019   5.349  0.3158 -0.4216  1.5229
  114MOL0     H15366  11.240   8.821   5.404  0.1884 -0.4273  2.5335
  114MOL0     H15367  11.256   8.984   5.462  0.2024 -0.0863 -0.7584
  114MOL0     H15368  11.440   8.950   5.608  2.1341 -1.1602 -1.9216
  114MOL0     H15369  11.286   8.863   5.654 -1.2470  0.3632 -0.2441
  114MOL0     H15370  10.987   8.910   4.731  1.9989 -0.8134  1.7301
  114MOL0     H15371  10.849   8.899   4.500 -0.1179 -0.9926 -0.7996
  114MOL0     H15372  10.822   8.912   4.093  0.0181 -0.9618  1.3393
  114MOL0     H15373  10.690   8.946   3.890 -1.6824 -0.4421 -1.7154
  114MOL0     H15374   9.348   9.400   4.589 -1.6690 -2.0245 -0.7268
  114MOL0     H15375   9.335   9.403   4.846  0.3577 -0.6642  0.9139
  114MOL0     H15376   9.241   8.940   5.222 -2.3902 -0.8016  2.9145
  114MOL0     H15377   9.322   8.873   5.438 -0.2674  0.7833  1.2153
  114MOL0     H15378   9.465   8.874   5.626  0.0854 -1.3302  1.5091
  114MOL0     H15379   9.322   8.930   5.716  0.3101  1.8632  0.1397
  114MOL0     H15380   9.596   9.023   5.777 -1.1053  2.4950  0.9732
  114MOL0     H15381   9.553   8.857   5.831  1.1141  0.8810  0.0512
  114MOL0     H15382   9.350   8.961   5.945  2.9199 -6.4509  0.4389
  114MOL0     H15383   9.409   9.126   5.907 -1.1378  0.5913  5.2749
  114MOL0     H15384   9.613   9.067   6.022 -0.0291 -0.0076  0.1855
  114MOL0     H15385   9.472   9.110   6.119  5.3514  1.3942  1.9500
  114MOL0     H15386   9.542   8.699   6.223  1.0800  1.1050  1.6818
  114MOL0     H15387   9.443   9.278   5.505 -3.2777 -0.0570  1.2762
  114MOL0     H15388   9.318   9.403   5.179  1.6387  0.9726 -0.0932
  114MOL0     H15389   9.396   9.447   5.331 -1.5191 -2.1141  0.4845
  114MOL0     H15390   9.499   9.370   5.209  0.6229 -1.6683 -1.9707
  115MOL0     O15391   8.441   2.667   0.203  0.1885 -0.3538 -0.1966
  115MOL0     C15392   8.396   2.607   0.300 -0.5400  0.1314  0.1785
  115MOL0     O15393   8.455   2.620   0.427  0.6181  1.1801  0.1098
  115MOL0     C15394   8.561   2.707   0.436 -0.0893 -0.6729 -0.4994
  115MOL0     C15395   8.679   2.658   0.491  0.8238 -0.0638 -0.7098
  115MOL0     C15396   8.796   2.728   0.492 -0.2113  0.2964  0.1158
  115MOL0     C15397   8.801   2.853   0.434 -0.0558  0.5264  0.1908
  115MOL0     O15398   8.921   2.935   0.419 -0.0022 -0.3626  0.4544
  115MOL0     C15399   9.035   2.889   0.495 -1.1184 -0.0606  0.2999
  115MOL0     C15400   9.139   3.008   0.526 -0.0221  0.0275 -0.2941
  115MOL0     C15401   9.222   3.027   0.393  0.0452  0.0923 -1.4048
  115MOL0     C15402   9.264   3.175   0.387  0.3497 -0.0368 -0.8241
  115MOL0     C15403   9.363   3.222   0.493 -0.2073  0.0316  0.0910
  115MOL0     C15404   9.408   3.369   0.464  0.2984 -0.9496 -0.0196
  115MOL0     C15405   9.481   3.402   0.331 -0.1298 -0.0102 -0.8249
  115MOL0     C15406   9.513   3.555   0.330  0.2873 -1.2269 -0.6931
  115MOL0     N15407   9.626   3.607   0.242  1.0976  0.6025 -1.2261
  115MOL0     C15408   9.612   3.624   0.111 -0.1375 -0.0269  0.4404
  115MOL0     C15409   9.741   3.608   0.064 -0.5879  0.7908  1.2757
  115MOL0     C15410   9.800   3.628  -0.078  0.0001  0.1937 -0.0518
  115MOL0     C15411   9.916   3.544  -0.122 -0.1848 -0.7865  0.0644
  115MOL0     C15412   9.913   3.499  -0.272 -0.1428  0.0367 -0.8775
  115MOL0     C15413   9.945   3.350  -0.280  0.6145 -0.2861  0.4753
  115MOL0     O15414   9.971   3.316  -0.419  0.4999  0.3468 -0.0112
  115MOL0     C15415  10.097   3.332  -0.482 -0.5125 -1.2040 -0.3801
  115MOL0     C15416  10.218   3.342  -0.414 -0.3352  0.9885  0.1954
  115MOL0     C15417  10.335   3.372  -0.492 -0.0522 -0.4640  0.6993
  115MOL0     C15418  10.322   3.401  -0.627 -0.2827 -0.2733 -0.0807
  115MOL0     C15419  10.435   3.479  -0.697 -0.2284  0.9708  0.1762
  115MOL0     O15420  10.563   3.447  -0.657 -0.1853  0.1976 -0.1032
  115MOL0     C15421  10.675   3.495  -0.723  0.0498  0.9079 -0.1361
  115MOL0     C15422  10.690   3.617  -0.783  0.2737 -0.1790 -0.2866
  115MOL0     C15423  10.815   3.661  -0.831 -0.6993 -0.8843 -0.2222
  115MOL0     C15424  10.922   3.571  -0.847 -0.0568 -0.6390 -0.2532
  115MOL0     O15425  11.046   3.616  -0.894  0.5109  0.7220 -0.4690
  115MOL0     C15426  11.059   3.743  -0.947  0.0375  0.4138  0.0399
  115MOL0     C15427  11.209   3.751  -0.988  0.0455  0.3321 -0.3945
  115MOL0     C15428  11.242   3.873  -1.070  0.5716  0.3871  0.0605
  115MOL0     C15429  11.391   3.892  -1.091 -0.7077 -1.0302 -0.4523
  115MOL0     C15430  11.422   3.993  -1.191 -0.1019  0.1732  0.0325
  115MOL0     C15431  11.565   3.978  -1.243 -0.5514  0.2138 -0.2213
  115MOL0     C15432  11.602   4.072  -1.355 -0.0787  0.8251  0.8176
  115MOL0     C15433  11.534   4.031  -1.487  0.9919  0.8344 -0.0755
  115MOL0    Cl15434  11.602   4.119  -1.634 -0.1589  0.0702 -0.2981
  115MOL0     C15435  10.909   3.450  -0.778  0.2680 -0.1956 -0.1358
  115MOL0     C15436  10.790   3.406  -0.723  0.0412  0.5373 -0.2166
  115MOL0     O15437  10.400   3.546  -0.792  0.4267  0.1986 -0.0382
  115MOL0     C15438  10.205   3.378  -0.693 -0.8484  0.7153  0.0015
  115MOL0     C15439  10.092   3.346  -0.624 -0.1209  0.4084 -0.3805
  115MOL0     N15440   9.823   3.585   0.175  0.3944  0.0075 -0.5314
  115MOL0     N15441   9.755   3.577   0.274  0.6199 -0.4053  0.5312
  115MOL0     C15442   8.681   2.915   0.401 -0.0726 -0.0962  0.4390
  115MOL0     C15443   8.561   2.839   0.393  0.3892 -0.0025  0.3646
  115MOL0     C15444   8.279   2.522   0.288 -0.8331  0.6855  0.0387
  115MOL0     C15445   8.256   2.423   0.393 -0.7103 -0.5511 -0.2065
  115MOL0     C15446   8.124   2.375   0.407  0.3386  0.3530 -0.5112
  115MOL0     C15447   8.032   2.379   0.299  0.6471 -0.1673  0.1400
  115MOL0     O15448   7.905   2.331   0.290 -0.2459 -0.3394 -0.6043
  115MOL0     C15449   7.838   2.279   0.407 -0.1220  0.1270  0.3153
  115MOL0     C15450   7.700   2.238   0.375  1.0588  0.0626 -0.6864
  115MOL0     C15451   7.688   2.127   0.273  0.0217 -0.3799 -0.3172
  115MOL0     C15452   7.548   2.088   0.209 -1.0010  0.1340 -0.0156
  115MOL0     C15453   7.441   2.095   0.306  0.6231 -0.1148  0.0591
  115MOL0     C15454   7.358   2.100   0.403  0.3351  1.2500  1.0726
  115MOL0     C15455   8.065   2.453   0.190 -0.0977 -0.7300  0.3963
  115MOL0     C15456   8.193   2.518   0.178 -0.5697 -0.4213  0.6172
  115MOL0     C15457   8.221   2.597   0.048  0.3247  0.4898  0.2117
  115MOL0     H15458   8.674   2.558   0.534 -0.8722  0.1717 -0.2863
  115MOL0     H15459   8.896   2.697   0.518 -0.6088 -0.6697  0.5464
  115MOL0     H15460   9.004   2.857   0.595 -1.4931 -2.1997 -0.4420
  115MOL0     H15461   9.094   2.809   0.449 -0.1602  1.3483 -1.0221
  115MOL0     H15462   9.206   2.995   0.612 -0.0288 -0.0587 -0.3025
  115MOL0     H15463   9.072   3.094   0.536  0.8209  0.8783 -1.6692
  115MOL0     H15464   9.168   3.003   0.301 -2.0476  1.3931 -0.5947
  115MOL0     H15465   9.313   2.967   0.401 -0.1617  0.0657  2.4853
  115MOL0     H15466   9.299   3.192   0.285 -3.3185  4.8985 -1.6205
  115MOL0     H15467   9.177   3.241   0.397  1.8396  1.6507  2.3934
  115MOL0     H15468   9.303   3.222   0.584 -0.2040 -1.0335  0.1016
  115MOL0     H15469   9.451   3.157   0.494 -0.7899 -0.8563 -1.6361
  115MOL0     H15470   9.325   3.432   0.497  0.4246 -2.3700  3.3105
  115MOL0     H15471   9.481   3.384   0.544  0.8887 -2.2741 -0.2824
  115MOL0     H15472   9.426   3.366   0.244 -2.8679  0.6770  0.5221
  115MOL0     H15473   9.580   3.356   0.341  0.4681  1.3866  0.1065
  115MOL0     H15474   9.426   3.618   0.311  0.4800  0.2113  2.5020
  115MOL0     H15475   9.536   3.588   0.432  2.3034 -0.2470 -1.3971
  115MOL0     H15476   9.519   3.641   0.057  1.1907  1.0022 -1.6299
  115MOL0     H15477   9.715   3.595  -0.137 -0.6013 -2.0025  1.8877
  115MOL0     H15478   9.828   3.734  -0.077 -0.6934  0.4015 -1.0490
  115MOL0     H15479  10.014   3.589  -0.103 -1.2650  0.6782  2.5894
  115MOL0     H15480   9.909   3.456  -0.058 -0.4935 -0.1952  0.8475
  115MOL0     H15481   9.983   3.568  -0.321  0.9270 -1.5512 -1.6605
  115MOL0     H15482   9.812   3.517  -0.309 -1.6371  0.3373  2.9872
  115MOL0     H15483   9.856   3.299  -0.244 -0.0268  0.4615 -0.0333
  115MOL0     H15484  10.033   3.330  -0.218 -0.6320  2.2530  3.3097
  115MOL0     H15485  10.226   3.315  -0.309 -0.2774  1.5260  0.3339
  115MOL0     H15486  10.436   3.366  -0.455  0.0640  0.1067  0.4909
  115MOL0     H15487  10.607   3.686  -0.790  0.8796  0.4675 -1.2753
  115MOL0     H15488  10.815   3.763  -0.868 -0.6516 -0.6842  0.3106
  115MOL0     H15489  11.001   3.759  -1.038 -1.1349  1.4793  0.9449
  115MOL0     H15490  11.023   3.815  -0.873 -0.0201  1.3935 -0.9116
  115MOL0     H15491  11.268   3.747  -0.896 -0.0229 -1.9092 -0.3845
  115MOL0     H15492  11.215   3.667  -1.059  1.0232  1.0042 -1.1283
  115MOL0     H15493  11.196   3.853  -1.167  0.4408 -0.1895  0.2346
  115MOL0     H15494  11.194   3.966  -1.037  0.3727  0.5821 -0.7634
  115MOL0     H15495  11.445   3.799  -1.112 -2.2626 -1.5613 -2.3609
  115MOL0     H15496  11.433   3.926  -0.996  1.5687 -0.3221 -1.6411
  115MOL0     H15497  11.404   4.091  -1.144  0.9209  1.9130 -2.9128
  115MOL0     H15498  11.345   3.977  -1.266  0.7182 -1.7392 -0.4465
  115MOL0     H15499  11.625   4.001  -1.155 -1.5229 -1.0135  0.8011
  115MOL0     H15500  11.598   3.878  -1.272  3.7608  1.4110 -0.0150
  115MOL0     H15501  11.703   4.076  -1.394 -0.4295  1.7384 -0.0360
  115MOL0     H15502  11.575   4.174  -1.327 -0.2614  0.9905  0.0420
  115MOL0     H15503  11.541   3.924  -1.507  2.4218  0.8399  0.2420
  115MOL0     H15504  11.426   4.043  -1.482  1.2415  3.0663  1.5889
  115MOL0     H15505  11.002   3.395  -0.769  0.6660  0.1067 -2.1165
  115MOL0     H15506  10.777   3.309  -0.677  1.3028  1.4818  2.3321
  115MOL0     H15507  10.198   3.391  -0.801  1.2841 -2.6377 -0.6849
  115MOL0     H15508  10.006   3.315  -0.683  0.3681 -2.0047  0.0687
  115MOL0     H15509   8.686   3.019   0.372 -3.6591 -0.0898 -0.6459
  115MOL0     H15510   8.472   2.876   0.343  0.5109  0.8852  0.7816
  115MOL0     H15511   8.330   2.397   0.468  0.7538  1.3004 -0.9452
  115MOL0     H15512   8.100   2.310   0.490 -0.5553  0.3671 -0.7523
  115MOL0     H15513   7.844   2.345   0.494 -0.6599 -4.1687  4.0331
  115MOL0     H15514   7.891   2.191   0.445  1.0101 -0.4801 -2.4266
  115MOL0     H15515   7.646   2.328   0.343 -1.7969 -1.1932  0.2832
  115MOL0     H15516   7.651   2.212   0.469 -1.1523  2.0451 -1.1958
  115MOL0     H15517   7.723   2.032   0.316  2.9412  0.9003  0.3213
  115MOL0     H15518   7.760   2.146   0.193 -1.5437  0.3221 -1.6185
  115MOL0     H15519   7.520   2.159   0.130 -0.5060  0.3555  0.0049
  115MOL0     H15520   7.564   1.993   0.157  2.9618  2.4833 -3.8865
  115MOL0     H15521   7.281   2.098   0.477 -1.5740  1.7374 -0.7965
  115MOL0     H15522   7.998   2.471   0.106  2.1494  1.4032 -1.0950
  115MOL0     H15523   8.138   2.567  -0.016 -0.1801 -2.3844  2.0476
  115MOL0     H15524   8.215   2.705   0.066 -0.6636  0.4650  0.0499
  115MOL0     H15525   8.312   2.555   0.003 -0.0968 -2.4287  1.8447
  116MOL0     O15526   2.799   9.799   6.416 -0.4183 -0.2915 -0.4102
  116MOL0     C15527   2.857   9.750   6.323 -0.0618  0.3178  0.5072
  116MOL0     O15528   2.989   9.766   6.297 -0.1384 -0.5192 -0.3749
  116MOL0     C15529   3.055   9.867   6.363 -0.4300 -0.2614 -0.1193
  116MOL0     C15530   3.016   9.994   6.387  0.1706 -0.3515 -0.6743
  116MOL0     C15531   3.094  10.098   6.449  0.3234  0.4660  0.6588
  116MOL0     C15532   3.214  10.074   6.498  0.2961  0.4138  0.2347
  116MOL0     O15533   3.286  10.178   6.553  0.1377  0.6140 -1.2535
  116MOL0     C15534   3.389  10.142   6.651  0.4322  0.0977 -1.2548
  116MOL0     C15535   3.425  10.263   6.737 -0.4234  0.5957 -0.1681
  116MOL0     C15536   3.449  10.394   6.666 -0.1390  0.0280  0.1702
  116MOL0     C15537   3.524  10.494   6.757 -0.2411 -0.4066 -0.8224
  116MOL0     C15538   3.585  10.622   6.695 -0.2997  0.4868  0.3345
  116MOL0     C15539   3.615  10.732   6.792 -1.2055  0.1781 -0.2724
  116MOL0     C15540   3.652  10.869   6.733  1.6928  0.1526  0.9366
  116MOL0     C15541   3.792  10.856   6.680 -0.2939  0.6327 -0.3491
  116MOL0     N15542   3.813  10.947   6.570  0.1567 -0.1660 -0.2058
  116MOL0     C15543   3.754  10.929   6.445  0.8665  0.2331 -0.2233
  116MOL0     C15544   3.775  11.040   6.373  0.1137 -0.0660 -1.2054
  116MOL0     C15545   3.705  11.086   6.247  0.3024 -0.3197  0.8968
  116MOL0     C15546   3.816  11.090   6.142 -1.2231 -0.4368 -0.6142
  116MOL0     C15547   3.781  11.185   6.025  0.3220  0.5646 -0.2183
  116MOL0     C15548   3.649  11.141   5.967  0.6048 -0.1803 -0.2199
  116MOL0     O15549   3.537  11.218   6.008 -0.1716  0.1403 -0.0368
  116MOL0     C15550   3.411  11.207   5.954  0.7470 -0.4477 -0.9369
  116MOL0     C15551   3.308  11.295   6.012 -0.0521  0.4038  1.1288
  116MOL0     C15552   3.185  11.298   5.952 -0.1826  0.4361 -0.8151
  116MOL0     C15553   3.144  11.195   5.862  0.2607 -0.2494  0.6456
  116MOL0     C15554   3.008  11.189   5.813 -0.6274  0.5725 -0.4023
  116MOL0     O15555   2.914  11.248   5.881  0.2292  0.0399 -0.4415
  116MOL0     C15556   2.778  11.232   5.882 -0.6054  0.4231 -0.2700
  116MOL0     C15557   2.719  11.117   5.819  0.3901 -0.3574  0.6899
  116MOL0     C15558   2.581  11.099   5.821  0.3637  0.3604 -0.9868
  116MOL0     C15559   2.491  11.189   5.884 -0.5678 -0.4894 -0.3429
  116MOL0     O15560   2.353  11.164   5.876 -0.0644  0.0898 -0.0898
  116MOL0     C15561   2.279  11.274   5.900 -0.8704 -0.4915 -0.5735
  116MOL0     C15562   2.127  11.229   5.917  0.1161  0.0687  0.1433
  116MOL0     C15563   2.036  11.335   5.845 -0.0229 -0.2466  0.8453
  116MOL0     C15564   1.885  11.294   5.867  0.4284 -0.3806 -0.3488
  116MOL0     C15565   1.792  11.408   5.803  0.0169  0.1653 -0.2188
  116MOL0     C15566   1.650  11.369   5.836 -0.9898 -0.7082 -0.6569
  116MOL0     C15567   1.550  11.444   5.753 -0.3898 -0.3405 -0.4773
  116MOL0     C15568   1.410  11.416   5.791  0.1572  0.4243 -0.0709
  116MOL0    Cl15569   1.372  11.466   5.949  0.0453 -0.0825  0.0514
  116MOL0     C15570   2.554  11.303   5.940 -0.6755  0.7813 -0.0428
  116MOL0     C15571   2.698  11.329   5.936  0.7533 -0.3161  0.3094
  116MOL0     O15572   2.997  11.131   5.712  0.3015 -0.3257 -0.4570
  116MOL0     C15573   3.250  11.125   5.799 -1.0337  0.4143 -0.2062
  116MOL0     C15574   3.385  11.132   5.846  0.6883  0.3037 -0.4837
  116MOL0     N15575   3.861  11.116   6.461 -0.0433 -0.1564 -0.2580
  116MOL0     N15576   3.877  11.069   6.579  0.2069  0.2700 -0.1379
  116MOL0     C15577   3.256   9.938   6.489  0.6083 -0.4839 -0.3294
  116MOL0     C15578   3.179   9.842   6.417  0.6167  0.0904 -0.0256
  116MOL0     C15579   2.790   9.652   6.233  0.5737  0.2406  0.1385
  116MOL0     C15580   2.861   9.609   6.118  0.5364  0.3291 -0.4032
  116MOL0     C15581   2.801   9.530   6.012  0.2051  0.2266  0.4371
  116MOL0     C15582   2.668   9.485   6.028 -0.0737  0.4565  0.0095
  116MOL0     O15583   2.614   9.404   5.932 -0.8172 -0.3747 -0.0382
  116MOL0     C15584   2.594   9.470   5.805  0.4724  0.3553 -0.4435
  116MOL0     C15585   2.503   9.385   5.711  0.0662 -0.7340  0.1427
  116MOL0     C15586   2.368   9.369   5.767  0.8068 -0.8832  0.6528
  116MOL0     C15587   2.264   9.470   5.703 -0.2287 -0.4679  0.3268
  116MOL0     C15588   2.216   9.426   5.569 -0.1310  0.1820  0.1374
  116MOL0     C15589   2.197   9.383   5.458  0.0728 -0.9450 -0.4101
  116MOL0     C15590   2.599   9.524   6.143 -0.0451 -0.2226  0.2320
  116MOL0     C15591   2.649   9.606   6.246  0.6839 -0.7137 -0.3827
  116MOL0     C15592   2.553   9.650   6.346 -0.8269 -0.0693 -0.4024
  116MOL0     H15593   2.917  10.026   6.356 -0.3928  1.4341  2.5198
  116MOL0     H15594   3.042  10.194   6.458 -1.0096 -0.2219  0.5330
  116MOL0     H15595   3.348  10.066   6.718  2.8778  0.5808  0.9674
  116MOL0     H15596   3.475  10.103   6.596  0.1026  1.1082 -2.5348
  116MOL0     H15597   3.505  10.226   6.802  1.9105  1.1422 -2.5551
  116MOL0     H15598   3.338  10.281   6.801  0.2385 -0.0967  0.9496
  116MOL0     H15599   3.353  10.431   6.628 -1.8628 -1.7375  2.5213
  116MOL0     H15600   3.509  10.379   6.576 -1.5137  2.9263 -1.3672
  116MOL0     H15601   3.445  10.525   6.826  1.8082  3.0222  0.2480
  116MOL0     H15602   3.598  10.452   6.825 -2.4544  1.0631  2.7977
  116MOL0     H15603   3.656  10.601   6.615  1.5870  1.1970  1.7516
  116MOL0     H15604   3.503  10.665   6.636  1.2661  1.8477 -0.9338
  116MOL0     H15605   3.522  10.737   6.849 -1.6729 -0.9470 -0.9096
  116MOL0     H15606   3.693  10.703   6.863 -2.4507  3.4095  2.7010
  116MOL0     H15607   3.636  10.940   6.815  0.1137  1.2004 -0.2131
  116MOL0     H15608   3.585  10.900   6.653  2.1511  0.9763  0.8664
  116MOL0     H15609   3.867  10.855   6.759  0.3340 -3.3653 -0.8089
  116MOL0     H15610   3.799  10.755   6.640 -2.4800 -0.2541  1.2852
  116MOL0     H15611   3.678  10.854   6.424 -1.6353  2.3561  0.7039
  116MOL0     H15612   3.625  11.013   6.232 -0.0212  0.3269 -0.7041
  116MOL0     H15613   3.664  11.185   6.267  0.5780  0.0509 -0.2703
  116MOL0     H15614   3.910  11.117   6.190 -1.3367  0.1909 -0.7378
  116MOL0     H15615   3.826  10.988   6.104  0.6570  0.2935 -2.2605
  116MOL0     H15616   3.848  11.176   5.939  2.2334  0.3317  1.2110
  116MOL0     H15617   3.783  11.288   6.063 -0.4535  0.3694  0.3632
  116MOL0     H15618   3.628  11.035   5.985 -0.4315  0.1215  0.4760
  116MOL0     H15619   3.657  11.150   5.859  0.8034  1.6119 -0.0839
  116MOL0     H15620   3.321  11.352   6.104  3.3141  1.1680  0.3279
  116MOL0     H15621   3.110  11.359   6.002  2.9301  2.5817  1.5998
  116MOL0     H15622   2.780  11.037   5.777  1.1685 -0.9009  2.7280
  116MOL0     H15623   2.540  11.007   5.779  0.4543 -1.9347  3.3622
  116MOL0     H15624   2.308  11.322   5.994 -2.8705  0.0597 -0.2026
  116MOL0     H15625   2.304  11.336   5.814  4.1330 -1.8922 -0.4535
  116MOL0     H15626   2.105  11.133   5.868 -4.2728 -0.6213  2.8883
  116MOL0     H15627   2.094  11.208   6.019 -2.7080 -2.5213 -1.1375
  116MOL0     H15628   2.063  11.429   5.892  0.6641 -0.1355  0.2427
  116MOL0     H15629   2.054  11.336   5.737 -2.6081  0.1527  0.3461
  116MOL0     H15630   1.874  11.294   5.976  1.2716  2.2591 -0.2136
  116MOL0     H15631   1.861  11.196   5.824 -0.4021 -0.3280 -0.0229
  116MOL0     H15632   1.823  11.420   5.698 -0.0412 -1.2935 -0.4207
  116MOL0     H15633   1.811  11.506   5.849 -0.3808 -0.5001  1.4236
  116MOL0     H15634   1.632  11.261   5.829 -2.1881 -0.5242 -0.6998
  116MOL0     H15635   1.634  11.392   5.942  2.7834  0.6248 -0.2563
  116MOL0     H15636   1.579  11.416   5.651  2.5722  1.6048 -0.2712
  116MOL0     H15637   1.565  11.552   5.760  4.0365 -0.8587  1.0383
  116MOL0     H15638   1.344  11.460   5.716 -1.9298  0.7322  1.8402
  116MOL0     H15639   1.394  11.307   5.791 -2.5934  0.7526 -0.2088
  116MOL0     H15640   2.499  11.374   6.000  0.1621 -0.0726  1.8304
  116MOL0     H15641   2.739  11.407   5.998 -1.4994  0.4971  0.8556
  116MOL0     H15642   3.240  11.047   5.724  0.2536  1.0509 -1.0864
  116MOL0     H15643   3.460  11.077   5.789 -0.8173 -1.2953 -0.9898
  116MOL0     H15644   3.346   9.887   6.522 -0.2524 -0.7729  1.6945
  116MOL0     H15645   3.218   9.744   6.393 -1.1400 -0.1452 -2.2928
  116MOL0     H15646   2.967   9.625   6.102  0.9407 -2.4733 -1.0246
  116MOL0     H15647   2.864   9.503   5.928 -0.2706 -2.6120  0.9009
  116MOL0     H15648   2.686   9.489   5.750 -0.9119  0.1733 -3.0263
  116MOL0     H15649   2.552   9.568   5.829  1.2133 -0.0789  3.1929
  116MOL0     H15650   2.541   9.285   5.690  0.1880 -0.4344 -1.1628
  116MOL0     H15651   2.506   9.429   5.611  0.1918  1.8590  1.2198
  116MOL0     H15652   2.373   9.384   5.875  0.4002 -0.7316  0.6548
  116MOL0     H15653   2.331   9.268   5.747  0.5079 -0.7351  0.4416
  116MOL0     H15654   2.172   9.461   5.762  0.2983  0.2277  1.2703
  116MOL0     H15655   2.300   9.573   5.701 -0.2631 -0.4635 -0.2135
  116MOL0     H15656   2.181   9.357   5.355  0.3393 -0.6175 -0.5367
  116MOL0     H15657   2.493   9.501   6.134  0.4417 -1.9222 -2.7625
  116MOL0     H15658   2.453   9.651   6.302  0.2945 -0.6601 -3.1572
  116MOL0     H15659   2.553   9.594   6.440 -1.2916 -0.5025 -0.6596
  116MOL0     H15660   2.567   9.756   6.372 -0.9396 -0.5836  1.9758
  117MOL0     O15661   2.047   0.292   8.582  0.2095 -0.0959  1.0512
  117MOL0     C15662   2.077   0.234   8.479  0.1254 -0.3612  0.3868
  117MOL0     O15663   1.988   0.157   8.409 -0.1279  0.1486 -0.0606
  117MOL0     C15664   1.855   0.191   8.398 -0.1655 -0.4504  0.1596
  117MOL0     C15665   1.801   0.212   8.274 -0.5703  0.2201  0.2772
  117MOL0     C15666   1.665   0.243   8.245  0.6764  0.3528 -0.3311
  117MOL0     C15667   1.585   0.243   8.361  0.9147 -0.1367 -1.3610
  117MOL0     O15668   1.449   0.262   8.369 -0.0598 -0.5517 -0.0248
  117MOL0     C15669   1.373   0.258   8.254  0.2138 -0.3888  0.1463
  117MOL0     C15670   1.224   0.288   8.263  0.5133 -0.9619  0.3602
  117MOL0     C15671   1.149   0.253   8.142  0.8722  0.0531 -0.6155
  117MOL0     C15672   1.054   0.372   8.109 -0.6519  1.2071  0.2682
  117MOL0     C15673   0.953   0.327   8.001 -0.5430 -0.6538  1.2235
  117MOL0     C15674   0.894   0.443   7.920 -0.3222 -0.1509 -0.1759
  117MOL0     C15675   0.854   0.559   8.013  0.0732 -0.4416  0.1697
  117MOL0     C15676   0.767   0.658   7.940 -0.0168 -0.7421 -0.1166
  117MOL0     N15677   0.822   0.703   7.820 -0.0628  0.4634 -0.8386
  117MOL0     C15678   0.933   0.782   7.809 -0.2995  0.2683  0.3077
  117MOL0     C15679   0.941   0.811   7.671  0.0187  0.7414  0.1855
  117MOL0     C15680   1.058   0.876   7.618 -0.4208 -1.0164  1.0173
  117MOL0     C15681   1.179   0.787   7.610 -0.3635 -0.6460  0.7054
  117MOL0     C15682   1.314   0.842   7.558  0.4257  1.4654 -0.4753
  117MOL0     C15683   1.357   0.979   7.620  0.8412  0.6915  0.3744
  117MOL0     O15684   1.353   0.956   7.760  0.0827  0.6372  0.6147
  117MOL0     C15685   1.463   0.985   7.820  0.8705 -0.5932  0.3036
  117MOL0     C15686   1.493   1.112   7.864 -0.5115 -0.2805  0.0545
  117MOL0     C15687   1.615   1.136   7.924 -0.0642 -0.4257 -0.2467
  117MOL0     C15688   1.711   1.030   7.942 -0.1081  0.4080 -0.5378
  117MOL0     C15689   1.845   1.055   8.008  0.1437 -0.1477  0.2866
  117MOL0     O15690   1.934   0.952   8.002  0.2554 -0.0924 -0.4848
  117MOL0     C15691   2.061   0.965   8.044  1.1211  0.0330  0.5163
  117MOL0     C15692   2.166   0.899   7.976  0.1409 -0.1034 -0.1796
  117MOL0     C15693   2.302   0.903   8.021  0.1297 -0.1047 -0.5837
  117MOL0     C15694   2.339   0.985   8.129 -0.0398  0.0583 -0.1185
  117MOL0     O15695   2.475   0.977   8.161 -0.4557 -0.4782 -0.0559
  117MOL0     C15696   2.530   1.094   8.225 -0.4315  0.4118 -1.1231
  117MOL0     C15697   2.579   1.039   8.358 -0.5402 -0.2824 -0.6892
  117MOL0     C15698   2.644   1.148   8.446  0.6690  1.0434 -1.2908
  117MOL0     C15699   2.651   1.107   8.596 -0.5503 -0.4669  0.3334
  117MOL0     C15700   2.746   1.188   8.685 -0.7744  0.1225  0.2418
  117MOL0     C15701   2.893   1.145   8.655  1.0669 -0.7513 -0.5989
  117MOL0     C15702   2.970   1.259   8.589  0.8212 -0.0241 -0.2318
  117MOL0     C15703   3.122   1.246   8.588 -0.3466  1.0217 -0.3432
  117MOL0    Cl15704   3.165   1.228   8.758 -0.2670 -0.1170  0.1772
  117MOL0     C15705   2.239   1.050   8.194  0.6411 -0.2383 -0.1308
  117MOL0     C15706   2.096   1.027   8.154 -1.0337  0.6754 -0.6048
  117MOL0     O15707   1.861   1.170   8.053 -0.9409 -0.2954 -0.1624
  117MOL0     C15708   1.669   0.903   7.903 -0.0591 -0.2706  0.2048
  117MOL0     C15709   1.542   0.876   7.848 -0.1545  0.0743 -0.4187
  117MOL0     N15710   0.856   0.721   7.607  0.8718 -0.7353  0.1640
  117MOL0     N15711   0.784   0.668   7.698 -0.2650  0.1320  0.2423
  117MOL0     C15712   1.641   0.221   8.490  0.6315  0.5579  0.2846
  117MOL0     C15713   1.771   0.198   8.507  0.2940 -0.1674 -0.1321
  117MOL0     C15714   2.218   0.238   8.447  0.1226 -0.3046 -0.1262
  117MOL0     C15715   2.265   0.125   8.377  0.0604  0.3522 -1.0535
  117MOL0     C15716   2.398   0.109   8.353 -0.3709 -0.4463 -0.0286
  117MOL0     C15717   2.497   0.195   8.401  0.5465 -0.5170 -0.2330
  117MOL0     O15718   2.630   0.188   8.377  0.4405 -0.5590 -0.7852
  117MOL0     C15719   2.680   0.090   8.281  0.0340 -0.8718  1.0456
  117MOL0     C15720   2.831   0.132   8.277  0.5237  0.0716  0.8274
  117MOL0     C15721   2.933   0.032   8.213  0.5740  0.4106  0.2834
  117MOL0     C15722   3.025  -0.026   8.316  0.0624  0.9310 -0.5628
  117MOL0     C15723   2.948  -0.103   8.415 -0.2278 -0.4081 -0.1075
  117MOL0     C15724   2.881  -0.164   8.497 -0.1258 -0.3113  0.5294
  117MOL0     C15725   2.457   0.300   8.481 -0.5326 -0.0632  0.0063
  117MOL0     C15726   2.317   0.322   8.504 -0.7001  0.0160  0.0102
  117MOL0     C15727   2.279   0.448   8.578 -0.4579  0.2046 -0.0739
  117MOL0     H15728   1.865   0.221   8.187 -1.8278 -0.6465 -0.7729
  117MOL0     H15729   1.634   0.282   8.149 -0.6384  2.8703  0.9933
  117MOL0     H15730   1.413   0.331   8.182  4.1508 -3.5863 -1.3340
  117MOL0     H15731   1.385   0.158   8.210 -1.4448 -1.2384  1.4916
  117MOL0     H15732   1.205   0.392   8.291  0.3753 -0.8696 -0.0690
  117MOL0     H15733   1.180   0.229   8.344 -1.7171 -3.6322 -2.5669
  117MOL0     H15734   1.087   0.167   8.169 -0.4358  1.7573  2.3306
  117MOL0     H15735   1.218   0.232   8.060  1.9084  1.0686 -0.0429
  117MOL0     H15736   1.001   0.411   8.196 -0.6509 -3.2466  2.6093
  117MOL0     H15737   1.120   0.450   8.071  0.4167 -0.8560 -2.5250
  117MOL0     H15738   1.002   0.264   7.926 -3.7385 -1.3200 -0.4930
  117MOL0     H15739   0.865   0.277   8.044 -2.8770  1.8475 -0.2704
  117MOL0     H15740   0.967   0.474   7.844  0.7425 -1.3872  0.3058
  117MOL0     H15741   0.802   0.424   7.865 -0.6457  1.8922 -0.4412
  117MOL0     H15742   0.938   0.620   8.049 -0.9628  0.1880  1.6223
  117MOL0     H15743   0.797   0.519   8.098  0.6079  0.5539  1.0230
  117MOL0     H15744   0.674   0.602   7.928 -0.3715  0.0898 -1.4716
  117MOL0     H15745   0.758   0.749   8.001  1.5256  0.4375 -1.5544
  117MOL0     H15746   1.014   0.811   7.875  0.0165 -1.5550  0.7941
  117MOL0     H15747   1.037   0.923   7.522  5.6113  1.8303  0.6109
  117MOL0     H15748   1.084   0.956   7.687  0.5324 -0.1617 -0.2915
  117MOL0     H15749   1.205   0.749   7.709  0.4471  0.7843  1.0732
  117MOL0     H15750   1.159   0.702   7.543  2.9080 -0.9635 -0.0488
  117MOL0     H15751   1.296   0.853   7.451  0.4166  0.2014 -0.6266
  117MOL0     H15752   1.399   0.773   7.563 -0.8850 -0.2182 -0.3267
  117MOL0     H15753   1.305   1.069   7.585 -0.6789 -0.6128 -0.8664
  117MOL0     H15754   1.460   0.993   7.584  1.0978 -1.8711 -0.1082
  117MOL0     H15755   1.435   1.202   7.846 -1.2219 -0.9272 -1.0134
  117MOL0     H15756   1.645   1.238   7.949 -0.6345 -0.1177 -0.7963
  117MOL0     H15757   2.137   0.848   7.885 -2.0271  1.3999 -0.4098
  117MOL0     H15758   2.383   0.854   7.969  0.3018  1.3633 -1.7674
  117MOL0     H15759   2.616   1.127   8.166  0.4466 -2.4993 -1.6687
  117MOL0     H15760   2.462   1.175   8.251 -1.0215 -0.3716 -0.1410
  117MOL0     H15761   2.499   0.992   8.415  0.3449  1.0782  1.7947
  117MOL0     H15762   2.651   0.957   8.346 -0.8433 -0.6717  0.0978
  117MOL0     H15763   2.746   1.170   8.412  0.5541  1.7227 -1.1990
  117MOL0     H15764   2.591   1.243   8.442 -1.9962 -0.1216  1.7178
  117MOL0     H15765   2.681   1.002   8.599 -0.7290 -0.5623 -0.7313
  117MOL0     H15766   2.553   1.125   8.642 -0.1960 -1.9741  1.7983
  117MOL0     H15767   2.721   1.153   8.786  0.5997 -1.7862 -0.0215
  117MOL0     H15768   2.726   1.294   8.670 -2.2155 -0.3213 -1.4218
  117MOL0     H15769   2.934   1.110   8.750  0.9109 -0.9703 -0.6095
  117MOL0     H15770   2.894   1.056   8.591  3.6966 -0.7691 -0.6210
  117MOL0     H15771   2.933   1.351   8.635 -1.0900 -1.5613  1.4990
  117MOL0     H15772   2.938   1.261   8.484  0.3683  2.4148 -0.1087
  117MOL0     H15773   3.153   1.148   8.551 -0.9503 -1.2956  4.4718
  117MOL0     H15774   3.170   1.326   8.530 -0.4720  0.6724 -0.9386
  117MOL0     H15775   2.268   1.099   8.286  2.6830 -2.0213  0.2530
  117MOL0     H15776   2.021   1.063   8.224  0.2185 -1.5061  2.0702
  117MOL0     H15777   1.737   0.820   7.917 -1.1325 -0.9003  1.9831
  117MOL0     H15778   1.510   0.774   7.832  2.0338 -0.9631  1.1746
  117MOL0     H15779   1.577   0.236   8.577 -2.2436 -0.0531 -1.6052
  117MOL0     H15780   1.819   0.168   8.600  1.5064  2.7126  0.2709
  117MOL0     H15781   2.202   0.057   8.321  0.5389  1.2139 -2.6942
  117MOL0     H15782   2.429   0.020   8.298 -0.3827  0.1880 -1.0917
  117MOL0     H15783   2.617   0.099   8.192 -0.8540 -3.3248  1.3444
  117MOL0     H15784   2.667  -0.014   8.313  1.0044 -1.6200 -0.8366
  117MOL0     H15785   2.851   0.146   8.384 -0.9809 -0.9629  1.2753
  117MOL0     H15786   2.842   0.232   8.233 -0.6437 -0.7535 -1.5307
  117MOL0     H15787   2.996   0.093   8.147  0.3296 -0.7582 -1.0882
  117MOL0     H15788   2.887  -0.051   8.157  2.0285 -1.0101  1.1010
  117MOL0     H15789   3.086  -0.099   8.261 -4.1951 -2.8840 -0.7727
  117MOL0     H15790   3.081   0.051   8.370 -1.6827  1.6006  0.3521
  117MOL0     H15791   2.829  -0.221   8.571 -1.8864  1.5218  0.7856
  117MOL0     H15792   2.528   0.367   8.529 -2.0285  0.5707  1.4680
  117MOL0     H15793   2.199   0.500   8.524 -0.4465  0.2957 -0.0058
  117MOL0     H15794   2.228   0.441   8.674 -0.1540  3.4475  0.4691
  117MOL0     H15795   2.365   0.516   8.580  0.1146 -0.5007  2.6042
  118MOL0     O15796   2.501   1.302   1.891 -0.3284  0.1951 -0.3183
  118MOL0     C15797   2.580   1.394   1.903 -0.2617  0.3921  0.5507
  118MOL0     O15798   2.650   1.414   2.016 -0.6633  0.4996  0.0449
  118MOL0     C15799   2.637   1.349   2.136 -0.2982 -0.6345  0.2751
  118MOL0     C15800   2.518   1.296   2.180  0.3115 -0.7614  1.0184
  118MOL0     C15801   2.503   1.246   2.310 -1.0498  0.2968 -0.3942
  118MOL0     C15802   2.615   1.243   2.397 -0.5831 -0.4337  0.5363
  118MOL0     O15803   2.605   1.172   2.517 -0.2814  0.3044  0.4948
  118MOL0     C15804   2.494   1.086   2.542 -0.0656 -0.0466 -0.0856
  118MOL0     C15805   2.493   1.024   2.682  0.1660 -0.7288 -0.0066
  118MOL0     C15806   2.462   1.129   2.787 -0.2162  0.3745 -0.6682
  118MOL0     C15807   2.410   1.053   2.909  0.1062 -0.1850  0.0420
  118MOL0     C15808   2.279   0.977   2.894 -0.6326 -0.8063  0.1366
  118MOL0     C15809   2.171   1.049   2.806  0.4631 -0.0471  0.0094
  118MOL0     C15810   2.122   1.188   2.852 -0.3645  0.3363 -0.1142
  118MOL0     C15811   2.025   1.252   2.754 -0.4840 -0.1605 -0.0344
  118MOL0     N15812   2.099   1.329   2.653  0.0920 -0.2358  0.1521
  118MOL0     C15813   2.150   1.455   2.676  0.9586 -0.1621 -0.1339
  118MOL0     C15814   2.227   1.473   2.566  0.1541 -0.4084  0.2097
  118MOL0     C15815   2.311   1.594   2.540  0.0831 -0.1512  1.0391
  118MOL0     C15816   2.383   1.591   2.405 -1.5260 -0.3124  0.1690
  118MOL0     C15817   2.469   1.713   2.375 -1.2647  0.3580  0.1238
  118MOL0     C15818   2.464   1.779   2.241  1.0820 -0.0743 -0.1314
  118MOL0     O15819   2.562   1.892   2.207 -0.4429 -0.0105 -0.3616
  118MOL0     C15820   2.692   1.864   2.239  0.1327 -0.4735  0.3953
  118MOL0     C15821   2.757   1.744   2.228 -0.2465  0.8943 -0.1398
  118MOL0     C15822   2.890   1.726   2.285  0.3435  0.0660  0.4153
  118MOL0     C15823   2.960   1.848   2.328  1.4206 -0.7823 -0.5736
  118MOL0     C15824   3.093   1.848   2.387  0.2796 -0.3597  0.0257
  118MOL0     O15825   3.150   1.965   2.412  0.1613 -0.0362 -0.0533
  118MOL0     C15826   3.276   1.983   2.469 -0.6572 -0.3204  0.8132
  118MOL0     C15827   3.336   1.888   2.548 -0.3708  0.2179  0.2466
  118MOL0     C15828   3.453   1.932   2.621 -0.3991  0.9709 -0.1169
  118MOL0     C15829   3.514   2.057   2.606 -0.0718  0.2044 -0.3909
  118MOL0     O15830   3.629   2.095   2.671 -0.0148  0.5347  0.1394
  118MOL0     C15831   3.744   2.004   2.668  1.2795  0.8246  0.5537
  118MOL0     C15832   3.794   1.969   2.533 -0.1726 -0.0714 -0.3894
  118MOL0     C15833   3.812   2.091   2.435  0.7406 -0.8575  0.2726
  118MOL0     C15834   3.856   2.043   2.301  1.0482  0.1060 -0.0568
  118MOL0     C15835   3.863   2.158   2.199 -0.5735 -0.0003 -0.5967
  118MOL0     C15836   3.933   2.124   2.065  0.0005  0.2511 -0.7206
  118MOL0     C15837   3.911   2.218   1.947 -0.4746  0.2278 -0.4281
  118MOL0     C15838   3.936   2.357   1.981 -0.0930 -0.0461  0.3702
  118MOL0    Cl15839   3.871   2.449   1.829 -0.2565 -0.3230 -0.3231
  118MOL0     C15840   3.453   2.154   2.529  0.8544  0.5703  0.4968
  118MOL0     C15841   3.338   2.117   2.461  0.6927  0.3670 -0.3539
  118MOL0     O15842   3.132   1.733   2.415  0.5681 -0.7502  0.6902
  118MOL0     C15843   2.880   1.971   2.331  0.1578 -0.3431  0.5751
  118MOL0     C15844   2.749   1.975   2.291  0.3620 -1.0014 -0.3002
  118MOL0     N15845   2.211   1.366   2.480  0.4082 -0.7474  0.3911
  118MOL0     N15846   2.127   1.292   2.534 -0.1610 -0.5825  0.2578
  118MOL0     C15847   2.738   1.300   2.351 -0.5914 -0.6155 -0.0722
  118MOL0     C15848   2.747   1.358   2.218  0.0762 -0.5046 -0.6077
  118MOL0     C15849   2.593   1.475   1.782 -0.1168 -0.5611  0.1331
  118MOL0     C15850   2.535   1.429   1.661 -0.8263  0.7469  0.5660
  118MOL0     C15851   2.534   1.508   1.542 -0.2107  0.3480  0.0167
  118MOL0     C15852   2.594   1.631   1.534 -0.9910 -0.5180 -0.6172
  118MOL0     O15853   2.605   1.686   1.413  0.0632  0.3313  0.3726
  118MOL0     C15854   2.648   1.823   1.407 -0.4454  0.4841 -0.0924
  118MOL0     C15855   2.545   1.922   1.475 -0.2393  0.5182  0.1801
  118MOL0     C15856   2.572   2.069   1.459 -0.1428  0.1219  0.2763
  118MOL0     C15857   2.662   2.120   1.568 -0.3116 -0.1252 -0.8730
  118MOL0     C15858   2.710   2.253   1.546 -0.2625 -0.3014  0.5494
  118MOL0     C15859   2.759   2.364   1.529 -0.9936  0.1655 -0.8896
  118MOL0     C15860   2.663   1.675   1.653 -0.2197 -0.1194  0.0049
  118MOL0     C15861   2.660   1.602   1.783  0.2885  0.4562 -0.5170
  118MOL0     C15862   2.703   1.676   1.903  0.3894 -0.1712 -0.8719
  118MOL0     H15863   2.427   1.304   2.123 -0.6562  2.9376  2.7461
  118MOL0     H15864   2.406   1.213   2.347 -1.0245 -0.6070 -1.0888
  118MOL0     H15865   2.401   1.143   2.531 -1.3376 -1.8088  0.8969
  118MOL0     H15866   2.484   1.009   2.465 -1.9865  0.7758 -0.7379
  118MOL0     H15867   2.587   0.975   2.710 -1.0459 -2.8390  0.5672
  118MOL0     H15868   2.419   0.944   2.673  0.3933 -1.2707  2.3630
  118MOL0     H15869   2.402   1.215   2.753  3.5623  3.1867 -0.8944
  118MOL0     H15870   2.562   1.165   2.813 -0.4542 -0.0569  0.9524
  118MOL0     H15871   2.484   0.973   2.920 -0.3653 -0.4794  1.1405
  118MOL0     H15872   2.407   1.127   2.990 -1.2298 -0.6991  0.4834
  118MOL0     H15873   2.306   0.884   2.843  0.0235 -1.4229  1.5637
  118MOL0     H15874   2.239   0.943   2.990  6.9719 -4.2031  2.8972
  118MOL0     H15875   2.217   1.062   2.708  2.9698  0.8923  1.2131
  118MOL0     H15876   2.087   0.981   2.789  0.5500 -0.6856  1.9252
  118MOL0     H15877   2.202   1.251   2.893  1.9812 -1.0536 -2.2504
  118MOL0     H15878   2.059   1.171   2.940 -0.8365  2.3500 -0.0307
  118MOL0     H15879   1.960   1.175   2.712  0.1374 -1.0438  0.5777
  118MOL0     H15880   1.957   1.324   2.802  1.0090 -0.3217  2.4927
  118MOL0     H15881   2.134   1.517   2.764 -1.8535 -0.0733 -0.6213
  118MOL0     H15882   2.240   1.678   2.546  0.5804  0.1665  3.1052
  118MOL0     H15883   2.375   1.598   2.628  2.1599 -0.3387 -0.4077
  118MOL0     H15884   2.462   1.516   2.417 -0.4847  0.2053 -2.6002
  118MOL0     H15885   2.326   1.550   2.321 -1.1122 -1.8761  0.6179
  118MOL0     H15886   2.576   1.693   2.388 -0.7414  2.5990 -0.1750
  118MOL0     H15887   2.435   1.787   2.448 -0.3144 -2.3142  3.5244
  118MOL0     H15888   2.363   1.819   2.237  1.0848  0.5614  3.3397
  118MOL0     H15889   2.463   1.701   2.164  0.3835 -1.6900  1.4429
  118MOL0     H15890   2.710   1.650   2.202  1.5622 -0.3437  0.8303
  118MOL0     H15891   2.935   1.627   2.295  1.3570  0.2952 -1.3853
  118MOL0     H15892   3.303   1.787   2.572  3.3411 -1.1484  0.1220
  118MOL0     H15893   3.494   1.856   2.687 -1.6869  0.3165 -0.0393
  118MOL0     H15894   3.828   2.054   2.718  2.4701 -0.8344  0.3034
  118MOL0     H15895   3.729   1.911   2.722  2.1076  0.0159 -0.5666
  118MOL0     H15896   3.884   1.912   2.557 -2.1524 -2.8219  1.0817
  118MOL0     H15897   3.726   1.900   2.483 -0.9908  1.3893 -1.3770
  118MOL0     H15898   3.717   2.145   2.433  2.0977  1.8070  1.1206
  118MOL0     H15899   3.891   2.153   2.480  0.3374 -0.4456  0.4217
  118MOL0     H15900   3.790   1.966   2.260 -0.2282  1.9349 -1.6244
  118MOL0     H15901   3.960   2.008   2.306  1.7705  1.9381 -1.1561
  118MOL0     H15902   3.917   2.239   2.249 -0.0482 -1.5665  1.5533
  118MOL0     H15903   3.766   2.201   2.173 -0.5216  2.3680  2.4908
  118MOL0     H15904   4.039   2.112   2.089  0.4492 -0.7193 -2.9904
  118MOL0     H15905   3.905   2.021   2.043 -2.6462  0.3328  1.6854
  118MOL0     H15906   3.811   2.203   1.906 -0.3552  1.2390 -1.1153
  118MOL0     H15907   3.966   2.187   1.857 -0.2518 -3.1617  0.7215
  118MOL0     H15908   3.884   2.389   2.072  0.6711 -1.2078  1.2503
  118MOL0     H15909   4.042   2.378   2.001  0.7529 -1.1655 -2.4668
  118MOL0     H15910   3.471   2.261   2.528 -2.0434  1.1308 -0.1861
  118MOL0     H15911   3.295   2.195   2.399  1.8809  2.5156  1.3566
  118MOL0     H15912   2.927   2.061   2.369  0.9525 -0.8609  0.8440
  118MOL0     H15913   2.680   2.058   2.301  1.4275 -0.2606  1.4458
  118MOL0     H15914   2.826   1.298   2.415 -1.3276  0.8362  1.0666
  118MOL0     H15915   2.842   1.397   2.183  0.3836  0.0600  0.7877
  118MOL0     H15916   2.475   1.339   1.656  1.0943 -0.5981  0.6813
  118MOL0     H15917   2.493   1.468   1.450 -0.6964 -0.9905  0.7870
  118MOL0     H15918   2.648   1.843   1.299 -2.4054  2.5706  0.2073
  118MOL0     H15919   2.750   1.846   1.440 -0.6656  1.6129 -0.1394
  118MOL0     H15920   2.542   1.893   1.580 -0.9303 -3.5258 -0.7626
  118MOL0     H15921   2.448   1.900   1.429  0.7560 -3.1128 -0.5139
  118MOL0     H15922   2.479   2.122   1.483  0.8915  2.6196 -0.8748
  118MOL0     H15923   2.607   2.088   1.357  1.0485 -2.3954  0.1375
  118MOL0     H15924   2.607   2.121   1.663 -0.4290  4.1009 -0.8157
  118MOL0     H15925   2.745   2.048   1.572 -1.0482 -1.0185 -1.2805
  118MOL0     H15926   2.809   2.460   1.525 -0.6022 -0.0137 -0.4311
  118MOL0     H15927   2.709   1.773   1.666 -1.8838  0.5871  0.8795
  118MOL0     H15928   2.625   1.673   1.979 -0.8477 -1.3199 -2.1383
  118MOL0     H15929   2.797   1.633   1.940  1.7000  4.8403  2.8063
  118MOL0     H15930   2.729   1.781   1.885  2.0816 -0.4415 -0.2791
  119MOL0     O15931   6.735   3.214   6.038 -0.1120  0.1812 -0.1876
  119MOL0     C15932   6.767   3.095   6.037  0.2490 -0.1865  0.1639
  119MOL0     O15933   6.687   2.982   6.076  0.1739 -0.3550  0.0860
  119MOL0     C15934   6.551   3.003   6.073  0.4278 -0.0136 -0.2318
  119MOL0     C15935   6.468   2.951   6.170 -0.5536  0.4090  0.4408
  119MOL0     C15936   6.328   2.961   6.171  1.2281  1.2998 -0.1483
  119MOL0     C15937   6.270   3.027   6.069  0.3004 -0.6742  0.3823
  119MOL0     O15938   6.136   3.030   6.077  0.6007  0.2536  0.1373
  119MOL0     C15939   6.054   3.077   5.961 -1.3269  0.1132  0.3987
  119MOL0     C15940   5.912   3.048   5.986  1.0380  0.2649  0.2016
  119MOL0     C15941   5.831   3.182   5.989 -0.0741 -0.0221 -0.0618
  119MOL0     C15942   5.848   3.270   6.113  0.2782 -0.5031  0.5179
  119MOL0     C15943   5.737   3.378   6.143 -0.0279  0.0184 -0.4132
  119MOL0     C15944   5.756   3.460   6.270  0.3224 -0.2502 -0.5589
  119MOL0     C15945   5.758   3.376   6.398 -0.1249 -0.0010  0.3416
  119MOL0     C15946   5.622   3.356   6.471 -0.2493 -0.3595  0.5013
  119MOL0     N15947   5.519   3.301   6.392  0.6446 -0.1677 -0.6309
  119MOL0     C15948   5.417   3.378   6.338  0.2452  0.9223 -0.7078
  119MOL0     C15949   5.320   3.294   6.294  0.0030  1.0116  0.1497
  119MOL0     C15950   5.190   3.339   6.228 -0.6720  0.2280  0.5883
  119MOL0     C15951   5.107   3.235   6.141 -0.7419  0.4359 -1.1687
  119MOL0     C15952   5.058   3.116   6.230 -1.2568 -0.3343 -0.0578
  119MOL0     C15953   4.943   3.044   6.156  0.7822 -0.0533  0.2832
  119MOL0     O15954   4.813   3.084   6.216  0.0066 -0.0545  0.4055
  119MOL0     C15955   4.707   3.000   6.247  0.3424  0.2424  0.3940
  119MOL0     C15956   4.614   3.037   6.345 -0.6873  0.6877  0.5989
  119MOL0     C15957   4.519   2.947   6.385 -0.8771 -0.7653  0.0146
  119MOL0     C15958   4.493   2.829   6.323  0.8084 -0.3994  0.3216
  119MOL0     C15959   4.376   2.741   6.359  0.0035  0.2219 -0.5400
  119MOL0     O15960   4.375   2.606   6.322  0.1497 -0.2081  0.5773
  119MOL0     C15961   4.262   2.529   6.334 -0.1377  0.3600 -0.5500
  119MOL0     C15962   4.279   2.394   6.374  0.3013 -0.0209  0.7443
  119MOL0     C15963   4.169   2.305   6.376 -1.4120 -0.3212  0.3443
  119MOL0     C15964   4.042   2.353   6.347  0.3196  0.0238 -0.1375
  119MOL0     O15965   3.926   2.271   6.334  0.1737  0.3318 -0.0112
  119MOL0     C15966   3.913   2.155   6.411  0.7124  0.6123 -0.1500
  119MOL0     C15967   3.782   2.090   6.367  0.9733 -0.5078  0.3898
  119MOL0     C15968   3.756   1.955   6.438 -0.7695 -0.9423  0.4927
  119MOL0     C15969   3.610   1.907   6.437  0.1362  0.5277 -0.6843
  119MOL0     C15970   3.591   1.767   6.494 -0.1488 -0.2837  0.0892
  119MOL0     C15971   3.451   1.723   6.505  0.1628 -0.4926  0.4516
  119MOL0     C15972   3.399   1.660   6.370 -0.1280  0.6433  0.6918
  119MOL0     C15973   3.407   1.512   6.361  0.0609  0.5545 -0.3701
  119MOL0    Cl15974   3.287   1.419   6.463  0.4302 -0.5955  0.8701
  119MOL0     C15975   4.024   2.485   6.302 -0.2332 -0.5646  0.3590
  119MOL0     C15976   4.134   2.577   6.297 -0.3316  0.4292 -0.1991
  119MOL0     O15977   4.288   2.798   6.429 -0.6904  1.0147 -0.5238
  119MOL0     C15978   4.563   2.801   6.206 -0.1996 -0.2326  0.9955
  119MOL0     C15979   4.678   2.883   6.176 -0.4914 -0.0725  0.5383
  119MOL0     N15980   5.361   3.166   6.328  0.5417 -0.3669 -1.0199
  119MOL0     N15981   5.479   3.173   6.372 -0.4425  0.0331  0.8084
  119MOL0     C15982   6.353   3.084   5.964 -0.1944 -1.0197  0.3155
  119MOL0     C15983   6.489   3.072   5.966 -0.3063  0.0445 -0.0945
  119MOL0     C15984   6.901   3.060   5.974 -0.3846  0.4113  0.5092
  119MOL0     C15985   6.926   2.923   5.946 -0.6618 -0.8228  1.4395
  119MOL0     C15986   7.040   2.880   5.876  0.3814 -0.4759  0.4691
  119MOL0     C15987   7.143   2.972   5.839  0.1817 -0.0620 -0.5530
  119MOL0     O15988   7.254   2.939   5.771 -0.0242  0.3704  0.4344
  119MOL0     C15989   7.296   2.799   5.770  0.5851 -0.4866 -0.5865
  119MOL0     C15990   7.447   2.793   5.741 -0.2294  0.1005 -0.4666
  119MOL0     C15991   7.489   2.880   5.626 -0.2665 -1.1574  0.0209
  119MOL0     C15992   7.435   2.827   5.487 -0.2698 -0.7649 -0.3342
  119MOL0     C15993   7.493   2.897   5.373 -0.9129  0.5905 -0.2986
  119MOL0     C15994   7.521   2.960   5.275  0.3324  0.6216 -0.0298
  119MOL0     C15995   7.116   3.106   5.865 -0.3134 -0.0122 -0.6924
  119MOL0     C15996   6.998   3.156   5.926 -0.1894  1.3756  0.5429
  119MOL0     C15997   6.982   3.301   5.950 -0.3080 -0.5456 -0.8691
  119MOL0     H15998   6.496   2.889   6.255  0.3995 -2.4330 -1.7865
  119MOL0     H15999   6.277   2.915   6.255 -0.8151  0.2356 -1.8574
  119MOL0     H16000   6.074   3.184   5.950  5.5549 -0.5431  1.8001
  119MOL0     H16001   6.087   3.022   5.873 -0.4957 -3.3905  2.7039
  119MOL0     H16002   5.895   2.990   6.078 -1.2513  0.5711  0.0201
  119MOL0     H16003   5.860   2.996   5.906 -0.2310 -3.2633  3.0240
  119MOL0     H16004   5.726   3.155   5.973  0.6513 -2.3781 -1.3624
  119MOL0     H16005   5.856   3.252   5.909  0.0066  1.2392  1.0299
  119MOL0     H16006   5.854   3.197   6.194  2.1503  0.5648  1.4208
  119MOL0     H16007   5.942   3.327   6.115 -0.5741  0.9407  0.7797
  119MOL0     H16008   5.719   3.450   6.062 -2.6473  0.0865  0.1486
  119MOL0     H16009   5.645   3.321   6.158  1.6515 -2.5918  0.7555
  119MOL0     H16010   5.844   3.525   6.262  0.6163 -0.6582 -0.6540
  119MOL0     H16011   5.678   3.534   6.286 -1.0556 -1.2499 -2.3125
  119MOL0     H16012   5.830   3.426   6.463  0.0078 -0.6893  0.7340
  119MOL0     H16013   5.805   3.279   6.377  2.0676  0.8049  1.2178
  119MOL0     H16014   5.624   3.297   6.564 -1.6215  2.5654  2.5320
  119MOL0     H16015   5.594   3.455   6.508  2.4396 -0.3708  2.9491
  119MOL0     H16016   5.410   3.486   6.340 -0.7966  0.8757  2.0401
  119MOL0     H16017   5.116   3.367   6.304 -0.9906 -0.1272  0.4139
  119MOL0     H16018   5.217   3.421   6.162  0.1171 -1.7562 -1.6908
  119MOL0     H16019   5.011   3.277   6.108 -1.8296 -1.9886 -1.3095
  119MOL0     H16020   5.166   3.201   6.056 -1.0476 -0.1598 -1.1456
  119MOL0     H16021   5.017   3.148   6.326 -0.0728 -1.6614  0.9439
  119MOL0     H16022   5.143   3.050   6.251 -0.7217 -1.3650 -4.5507
  119MOL0     H16023   4.960   2.940   6.185  2.1276 -0.7756 -2.7322
  119MOL0     H16024   4.950   3.057   6.048  1.9045  1.1604  0.4757
  119MOL0     H16025   4.633   3.123   6.409 -1.2567  0.9225  0.4577
  119MOL0     H16026   4.463   2.979   6.473  1.0283  2.7261  0.1331
  119MOL0     H16027   4.374   2.347   6.397  0.7099  1.1395  1.5381
  119MOL0     H16028   4.191   2.200   6.389 -1.5911 -0.7083 -2.0418
  119MOL0     H16029   3.998   2.089   6.392  2.9170  2.9165  1.0035
  119MOL0     H16030   3.921   2.178   6.518  1.1888 -0.7353  0.1204
  119MOL0     H16031   3.691   2.144   6.394 -0.5832 -2.8416  0.1752
  119MOL0     H16032   3.784   2.066   6.260  0.5040 -1.3740  0.5607
  119MOL0     H16033   3.821   1.878   6.395  1.4544  0.1024  1.8175
  119MOL0     H16034   3.791   1.968   6.540  0.5271  1.5434 -0.2049
  119MOL0     H16035   3.561   1.912   6.339 -0.1976 -0.3684 -0.5787
  119MOL0     H16036   3.554   1.980   6.496  1.9375  2.4376 -1.2232
  119MOL0     H16037   3.619   1.768   6.600  0.4305  2.2582 -0.0285
  119MOL0     H16038   3.652   1.695   6.438  1.9961  0.3540  1.4936
  119MOL0     H16039   3.440   1.652   6.588  0.8389  0.7721  1.6681
  119MOL0     H16040   3.384   1.806   6.530  0.6957  0.8982 -2.3847
  119MOL0     H16041   3.463   1.685   6.285 -0.8571 -1.4638 -0.5503
  119MOL0     H16042   3.300   1.696   6.342 -0.8201  0.4644  2.7143
  119MOL0     H16043   3.387   1.484   6.257 -0.7995  1.1188 -0.3695
  119MOL0     H16044   3.506   1.477   6.392 -0.7645  0.4139  2.3314
  119MOL0     H16045   3.929   2.531   6.280  0.1057  0.2692  0.5604
  119MOL0     H16046   4.119   2.677   6.258 -1.1540  0.2160 -0.4479
  119MOL0     H16047   4.532   2.720   6.140 -0.7314  0.4606  0.3806
  119MOL0     H16048   4.732   2.847   6.088  1.1513 -0.4394  1.6474
  119MOL0     H16049   6.316   3.150   5.886  1.0148  0.2319  0.7612
  119MOL0     H16050   6.546   3.118   5.885  2.7953 -1.2993  1.1842
  119MOL0     H16051   6.850   2.850   5.970 -0.4653 -1.4441  0.2453
  119MOL0     H16052   7.039   2.776   5.845  1.0369 -0.4673  0.4016
  119MOL0     H16053   7.246   2.745   5.689  0.2600 -1.7010  0.3776
  119MOL0     H16054   7.272   2.744   5.862  0.8294 -2.4172 -1.6125
  119MOL0     H16055   7.479   2.694   5.708  1.4060  0.0778  1.0501
  119MOL0     H16056   7.505   2.826   5.828 -1.5169 -0.8626  0.7929
  119MOL0     H16057   7.598   2.885   5.623 -0.2093 -1.1590  1.3477
  119MOL0     H16058   7.459   2.983   5.650 -0.0914 -0.5120 -2.2682
  119MOL0     H16059   7.461   2.721   5.491 -0.5099 -0.8206 -0.2190
  119MOL0     H16060   7.326   2.838   5.499  0.1219 -0.0591  4.0721
  119MOL0     H16061   7.551   3.029   5.199  3.1094  0.9182  1.2103
  119MOL0     H16062   7.186   3.184   5.838  0.5285 -0.3167  0.5467
  119MOL0     H16063   7.081   3.337   5.919  1.3768 -4.1852 -0.2964
  119MOL0     H16064   6.898   3.338   5.892 -0.5025 -1.7907 -1.4119
  119MOL0     H16065   6.961   3.331   6.053 -1.2910  1.9892 -1.7325
  120MOL0     O16066   5.918   1.872   9.217  0.9289 -0.6478  0.1901
  120MOL0     C16067   5.956   1.955   9.294 -0.0786  0.5971 -0.6035
  120MOL0     O16068   6.080   1.982   9.329 -0.1609  0.5463 -0.0008
  120MOL0     C16069   6.187   1.920   9.271  0.1485 -0.3184 -0.2225
  120MOL0     C16070   6.302   1.930   9.340  0.5039  0.3974 -0.0231
  120MOL0     C16071   6.423   1.888   9.288 -0.1566  1.1512  0.2311
  120MOL0     C16072   6.431   1.825   9.164  0.0980 -0.4864  0.2150
  120MOL0     O16073   6.536   1.782   9.093  0.0911  0.6921  0.3499
  120MOL0     C16074   6.660   1.754   9.161  0.6315 -0.9923  0.2299
  120MOL0     C16075   6.754   1.677   9.067 -0.4979 -0.2037 -0.2484
  120MOL0     C16076   6.905   1.670   9.126  0.7658 -0.3275 -0.6526
  120MOL0     C16077   6.987   1.645   9.001  0.2372  0.4028  1.3091
  120MOL0     C16078   7.120   1.575   9.041 -1.2421  0.3867  0.7979
  120MOL0     C16079   7.228   1.576   8.933 -0.8278  0.7635 -0.1078
  120MOL0     C16080   7.368   1.545   8.982  0.4547  0.5329  0.3328
  120MOL0     C16081   7.458   1.547   8.856  0.3736  0.3023  0.7505
  120MOL0     N16082   7.596   1.515   8.911  0.2701  0.8209  0.5030
  120MOL0     C16083   7.672   1.617   8.952 -0.2676  0.2417 -0.3228
  120MOL0     C16084   7.789   1.555   8.984  0.6996 -0.8581 -0.4596
  120MOL0     C16085   7.906   1.630   9.037  0.6266 -0.4374 -1.0051
  120MOL0     C16086   8.029   1.625   8.944  0.4565 -0.5873 -0.4478
  120MOL0     C16087   8.001   1.703   8.807  0.4951  0.4875  0.1616
  120MOL0     C16088   8.114   1.669   8.708 -0.5117 -0.2949 -0.5316
  120MOL0     O16089   8.115   1.749   8.594  0.1662 -0.7256  0.4005
  120MOL0     C16090   8.214   1.734   8.496 -0.6971 -1.4263  0.1703
  120MOL0     C16091   8.341   1.684   8.525 -0.1217  1.1325 -0.1447
  120MOL0     C16092   8.432   1.665   8.423 -0.2504 -0.3404  0.0077
  120MOL0     C16093   8.395   1.682   8.287 -0.2432 -0.5484 -1.2106
  120MOL0     C16094   8.510   1.660   8.189 -1.4993  0.3353  1.9264
  120MOL0     O16095   8.633   1.632   8.231 -0.4238  0.0021  0.3068
  120MOL0     C16096   8.744   1.590   8.155  0.4299 -0.1556 -0.2656
  120MOL0     C16097   8.850   1.558   8.237 -0.9925  0.8769  0.0282
  120MOL0     C16098   8.978   1.542   8.179  0.4690 -0.5299 -0.7975
  120MOL0     C16099   8.990   1.540   8.039 -1.1774  0.0758  0.0533
  120MOL0     O16100   9.120   1.548   7.976  0.2038  0.4977 -0.5191
  120MOL0     C16101   9.225   1.481   8.048 -0.4853  0.6741  0.6232
  120MOL0     C16102   9.208   1.329   8.044 -0.8016 -0.5478 -0.1248
  120MOL0     C16103   9.240   1.269   7.909 -0.2204  0.4738  0.7005
  120MOL0     C16104   9.391   1.255   7.878  1.1729  0.6066 -0.2959
  120MOL0     C16105   9.404   1.199   7.730 -0.1851 -0.6147  0.0386
  120MOL0     C16106   9.551   1.185   7.700 -0.5248  0.1784 -0.8064
  120MOL0     C16107   9.583   1.124   7.564  0.4131  0.3793  0.7352
  120MOL0     C16108   9.731   1.111   7.524 -0.0930  0.8154 -0.2212
  120MOL0    Cl16109   9.735   1.043   7.359 -0.2674 -0.5931 -0.3499
  120MOL0     C16110   8.879   1.562   7.957  0.0125 -0.0979  0.2232
  120MOL0     C16111   8.756   1.596   8.010  0.4845 -0.0886 -0.3968
  120MOL0     O16112   8.474   1.651   8.074  0.3775  0.0102  0.0477
  120MOL0     C16113   8.273   1.746   8.263 -0.0665 -0.5904 -0.1042
  120MOL0     C16114   8.183   1.762   8.364 -0.8977 -1.1875  0.3052
  120MOL0     N16115   7.786   1.430   8.942  0.3390  1.0534  0.4840
  120MOL0     N16116   7.666   1.404   8.909 -0.5190  0.5461  0.0940
  120MOL0     C16117   6.311   1.805   9.095  0.4366 -0.5083  0.3128
  120MOL0     C16118   6.195   1.858   9.141  0.2034  0.1865  0.7551
  120MOL0     C16119   5.847   2.028   9.362  0.0513  0.9427  0.2242
  120MOL0     C16120   5.711   1.998   9.321  0.1604  0.0507  0.0249
  120MOL0     C16121   5.602   2.059   9.382  0.6854 -0.1057 -1.3108
  120MOL0     C16122   5.627   2.149   9.487  0.5058 -0.5526 -0.8036
  120MOL0     O16123   5.521   2.215   9.557  0.0325  0.8354 -0.2429
  120MOL0     C16124   5.404   2.147   9.578  0.6398  0.4175 -0.1907
  120MOL0     C16125   5.312   2.215   9.680 -0.2358 -0.2999  0.3005
  120MOL0     C16126   5.161   2.246   9.646 -0.8370 -0.1402  0.3972
  120MOL0     C16127   5.074   2.312   9.759 -0.7981  0.4970  0.9025
  120MOL0     C16128   5.152   2.361   9.868 -0.9354 -0.7754 -0.7526
  120MOL0     C16129   5.237   2.377   9.959  1.0296 -0.5947 -0.3483
  120MOL0     C16130   5.753   2.190   9.522 -0.2483 -0.4842 -0.0012
  120MOL0     C16131   5.868   2.119   9.468 -0.0842 -0.4929  0.0084
  120MOL0     C16132   5.998   2.147   9.547  0.1675  0.5606 -0.1119
  120MOL0     H16133   6.296   1.973   9.440  2.6049  2.3063 -0.6135
  120MOL0     H16134   6.514   1.908   9.344  0.1749  1.4151 -0.3961
  120MOL0     H16135   6.699   1.852   9.189 -4.2816  0.9468  1.3092
  120MOL0     H16136   6.643   1.707   9.259  1.6038  3.4719  2.8093
  120MOL0     H16137   6.739   1.711   8.964  3.4956  1.5085 -0.4849
  120MOL0     H16138   6.721   1.574   9.075 -1.2332  0.0795  0.4658
  120MOL0     H16139   6.907   1.586   9.196 -1.5326 -1.3544 -1.7297
  120MOL0     H16140   6.937   1.763   9.175  3.2375 -0.9922 -0.9089
  120MOL0     H16141   6.939   1.577   8.930  3.1297  1.1813 -1.6712
  120MOL0     H16142   7.001   1.740   8.949 -0.3192 -0.3665 -0.3264
  120MOL0     H16143   7.155   1.634   9.127 -1.4669  0.1813  1.0291
  120MOL0     H16144   7.104   1.473   9.075  4.2595  0.2332  4.0940
  120MOL0     H16145   7.198   1.500   8.861 -0.4730 -0.3747  0.9059
  120MOL0     H16146   7.227   1.678   8.894 -0.2162  2.4919  3.8513
  120MOL0     H16147   7.366   1.457   9.048  1.5528  2.1429  2.6654
  120MOL0     H16148   7.414   1.618   9.049  0.6182  0.6685  0.0746
  120MOL0     H16149   7.422   1.471   8.787 -0.3384  1.9873 -0.8111
  120MOL0     H16150   7.461   1.642   8.801  0.9991 -0.8004 -1.1955
  120MOL0     H16151   7.633   1.717   8.969  2.5968  1.6131 -1.1121
  120MOL0     H16152   7.877   1.732   9.063 -1.2822 -1.6217  1.9888
  120MOL0     H16153   7.927   1.579   9.131  0.0799  1.9030  0.4614
  120MOL0     H16154   8.110   1.688   8.981  0.2028 -0.2359 -0.4846
  120MOL0     H16155   8.057   1.519   8.932 -2.1887 -1.2575 -1.3135
  120MOL0     H16156   7.988   1.809   8.829 -0.8756  0.6150 -1.0870
  120MOL0     H16157   7.907   1.664   8.766 -0.8998  0.9155  2.7392
  120MOL0     H16158   8.108   1.562   8.683 -3.7348  0.3029 -2.9959
  120MOL0     H16159   8.210   1.685   8.757  0.4529 -1.8891 -1.7739
  120MOL0     H16160   8.363   1.671   8.631  3.8081  2.5274 -0.6524
  120MOL0     H16161   8.531   1.631   8.454  2.0892  4.1274 -1.6664
  120MOL0     H16162   8.833   1.547   8.344  3.2044  3.5061  1.2069
  120MOL0     H16163   9.058   1.527   8.252  0.1559  2.2124  0.2288
  120MOL0     H16164   9.318   1.513   7.999 -0.5022 -0.6676 -0.3633
  120MOL0     H16165   9.244   1.508   8.152 -1.4066 -0.5103  1.1275
  120MOL0     H16166   9.278   1.288   8.117 -0.6361 -1.0684 -0.5723
  120MOL0     H16167   9.108   1.304   8.079 -2.4785  2.7792 -2.0831
  120MOL0     H16168   9.197   1.169   7.914 -0.1294  0.4521  1.0352
  120MOL0     H16169   9.187   1.316   7.825 -0.1489  1.4992  1.2190
  120MOL0     H16170   9.434   1.183   7.949  0.7662  1.3938  0.7817
  120MOL0     H16171   9.438   1.354   7.881  1.0130  0.6658  1.0454
  120MOL0     H16172   9.343   1.246   7.652  1.8155  0.6193 -0.8441
  120MOL0     H16173   9.367   1.096   7.739  2.0090 -1.3428  1.8396
  120MOL0     H16174   9.598   1.284   7.699  0.4156 -0.2470 -0.0987
  120MOL0     H16175   9.599   1.119   7.773  0.7341  2.1746  0.2835
  120MOL0     H16176   9.528   1.183   7.490 -0.1715  2.4996  2.7151
  120MOL0     H16177   9.540   1.024   7.562 -1.1455  1.0084  1.0561
  120MOL0     H16178   9.779   1.208   7.534  0.3671  0.3959  2.4977
  120MOL0     H16179   9.781   1.044   7.596  1.3911  3.1635  1.0547
  120MOL0     H16180   8.896   1.568   7.850 -0.5363 -2.1145 -0.0142
  120MOL0     H16181   8.676   1.640   7.952 -1.2396 -0.8508  1.3394
  120MOL0     H16182   8.255   1.773   8.159 -0.8997  1.8052  0.5961
  120MOL0     H16183   8.084   1.803   8.342 -1.0126 -2.7783 -2.7824
  120MOL0     H16184   6.328   1.760   8.997  2.3991  4.0491 -1.7176
  120MOL0     H16185   6.111   1.848   9.073  0.1454  2.7656  0.3523
  120MOL0     H16186   5.691   1.929   9.239 -0.4034 -0.9345  0.9592
  120MOL0     H16187   5.502   2.027   9.356  1.3663 -1.8524 -1.9378
  120MOL0     H16188   5.436   2.048   9.614  2.4480  0.1152 -2.3610
  120MOL0     H16189   5.349   2.137   9.484 -0.2781 -0.1506  0.3839
  120MOL0     H16190   5.362   2.308   9.710  5.0546 -2.4733 -0.7249
  120MOL0     H16191   5.319   2.153   9.770  0.3071  1.6450  1.6777
  120MOL0     H16192   5.114   2.150   9.624  1.0193 -0.4434 -2.9005
  120MOL0     H16193   5.140   2.294   9.550  0.9559  0.0820  0.0820
  120MOL0     H16194   5.008   2.391   9.724 -1.3232 -0.5419 -0.5194
  120MOL0     H16195   5.007   2.236   9.801 -2.1094  2.6491  2.9343
  120MOL0     H16196   5.298   2.396  10.045 -0.0678 -0.9843  0.5432
  120MOL0     H16197   5.777   2.269   9.592 -0.4574 -1.3587  1.0884
  120MOL0     H16198   6.049   2.223   9.487 -1.8684  1.7794 -0.3878
  120MOL0     H16199   5.986   2.193   9.645 -0.8524 -0.2541  0.1542
  120MOL0     H16200   6.053   2.052   9.551 -0.5022  0.1945  0.5740
  121MOL0     O16201   8.028   4.277   1.031  0.2107  0.5097  0.3850
  121MOL0     C16202   7.941   4.357   1.002  0.1174 -0.4894  0.5573
  121MOL0     O16203   7.808   4.323   0.963  0.1904  0.0282 -0.6819
  121MOL0     C16204   7.772   4.190   0.983 -0.3522  0.0273 -0.0675
  121MOL0     C16205   7.761   4.141   1.115  0.6263  0.2643 -0.6468
  121MOL0     C16206   7.752   3.998   1.129 -0.6644  0.3100 -0.2090
  121MOL0     C16207   7.748   3.911   1.021  0.2526  0.2779 -0.4699
  121MOL0     O16208   7.748   3.778   1.060  0.4226 -0.1962 -0.3432
  121MOL0     C16209   7.773   3.668   0.968 -0.9930  0.4846 -0.6109
  121MOL0     C16210   7.775   3.538   1.054 -0.4685  0.4420  1.1107
  121MOL0     C16211   7.642   3.514   1.121  0.9163  0.2180 -0.1188
  121MOL0     C16212   7.647   3.387   1.203 -0.0282 -0.2981 -0.4017
  121MOL0     C16213   7.507   3.344   1.248 -0.5972  0.0653  0.9099
  121MOL0     C16214   7.488   3.364   1.397  0.8133  0.6905 -1.3583
  121MOL0     C16215   7.365   3.308   1.459 -0.2479  0.3609 -0.3338
  121MOL0     C16216   7.367   3.153   1.472 -0.5420  0.0563 -0.2289
  121MOL0     N16217   7.270   3.121   1.581 -0.1394 -0.5739  0.3030
  121MOL0     C16218   7.301   3.095   1.711 -0.0344 -0.0668 -0.6309
  121MOL0     C16219   7.182   3.111   1.778 -0.9491  0.0030  0.2032
  121MOL0     C16220   7.171   3.129   1.928 -0.1411  0.0121  0.1069
  121MOL0     C16221   7.197   2.989   1.984 -0.5130  1.0674  0.2586
  121MOL0     C16222   7.188   2.996   2.136 -0.9038  0.7663  0.1037
  121MOL0     C16223   7.319   2.934   2.201  0.4215  0.2753 -0.1165
  121MOL0     O16224   7.328   2.795   2.165  0.5485 -0.9160 -0.6425
  121MOL0     C16225   7.404   2.712   2.242 -0.6022  0.1760 -0.2661
  121MOL0     C16226   7.490   2.747   2.351  0.0061 -0.6986  0.2614
  121MOL0     C16227   7.568   2.653   2.411  0.0736  0.0257  0.0506
  121MOL0     C16228   7.567   2.517   2.370  0.8079 -0.0435  0.3235
  121MOL0     C16229   7.648   2.412   2.437 -0.1417  0.8883 -0.4967
  121MOL0     O16230   7.614   2.286   2.415  1.0165  0.0550  0.1891
  121MOL0     C16231   7.684   2.187   2.468 -0.4729  0.5805  0.7104
  121MOL0     C16232   7.802   2.155   2.405 -0.3671  0.2328  0.0319
  121MOL0     C16233   7.895   2.071   2.463 -0.3936  0.6708 -0.2764
  121MOL0     C16234   7.860   1.992   2.580 -0.1042 -0.4374  0.4021
  121MOL0     O16235   7.969   1.913   2.615  0.0618 -1.1688  0.4190
  121MOL0     C16236   7.982   1.882   2.750 -0.6942 -0.0422 -0.4287
  121MOL0     C16237   8.117   1.809   2.772  0.0737  0.5078  0.6446
  121MOL0     C16238   8.153   1.691   2.685  0.0200 -0.1143  0.3774
  121MOL0     C16239   8.296   1.645   2.705 -0.0065 -0.6382 -0.3906
  121MOL0     C16240   8.325   1.514   2.640  0.0982 -0.5565 -0.1898
  121MOL0     C16241   8.473   1.483   2.669  0.5733  0.3725  0.1550
  121MOL0     C16242   8.526   1.392   2.553  0.1756  0.9392 -0.4757
  121MOL0     C16243   8.674   1.351   2.583 -0.0442  0.6403  0.2594
  121MOL0    Cl16244   8.781   1.494   2.583  0.1404 -0.0608 -0.2101
  121MOL0     C16245   7.735   2.019   2.639  0.1072 -0.1078 -0.8374
  121MOL0     C16246   7.658   2.123   2.587  0.0652  0.4413  0.2819
  121MOL0     O16247   7.750   2.446   2.504 -0.2385  0.0810  0.5950
  121MOL0     C16248   7.485   2.485   2.272  0.1604  0.7311 -0.3671
  121MOL0     C16249   7.407   2.578   2.200 -0.0405 -0.3794 -0.3293
  121MOL0     N16250   7.081   3.129   1.686  0.5851  0.5887 -0.6314
  121MOL0     N16251   7.135   3.127   1.570  0.3960  0.0926  0.3833
  121MOL0     C16252   7.758   3.962   0.892 -0.1586 -0.4165 -0.3627
  121MOL0     C16253   7.776   4.098   0.872  0.6482 -0.4009 -0.2782
  121MOL0     C16254   7.987   4.498   0.985  0.6278 -0.1517 -0.3914
  121MOL0     C16255   7.884   4.593   0.991 -0.7632  0.0492  0.8594
  121MOL0     C16256   7.908   4.731   0.969 -0.3545 -1.7380  0.5496
  121MOL0     C16257   8.042   4.784   0.954  0.1733  0.1158  0.7171
  121MOL0     O16258   8.072   4.922   0.927  0.1687  0.5174 -0.2120
  121MOL0     C16259   7.970   5.019   0.895  0.1376  0.5401 -0.2808
  121MOL0     C16260   8.041   5.160   0.885  1.2795  0.4748  0.9094
  121MOL0     C16261   7.946   5.273   0.912 -0.8767  1.0196  0.0454
  121MOL0     C16262   7.848   5.315   0.796  0.2183  0.3971  0.1597
  121MOL0     C16263   7.919   5.377   0.684 -0.1488  0.6047  0.0207
  121MOL0     C16264   7.976   5.420   0.593 -0.7337 -0.0518  1.1627
  121MOL0     C16265   8.148   4.690   0.951  0.5259 -0.4314 -0.0090
  121MOL0     C16266   8.120   4.548   0.967  0.3348  0.1797 -0.0506
  121MOL0     C16267   8.258   4.475   0.964 -0.3719  0.3774  0.0056
  121MOL0     H16268   7.755   4.209   1.199  2.3427  0.3502 -0.5693
  121MOL0     H16269   7.755   3.943   1.222 -0.4969  1.0359  0.2237
  121MOL0     H16270   7.702   3.667   0.884 -0.3494  0.8562 -1.1661
  121MOL0     H16271   7.873   3.683   0.927 -0.9504 -0.3989 -0.8372
  121MOL0     H16272   7.854   3.547   1.130 -1.4279 -1.6736  2.4591
  121MOL0     H16273   7.800   3.456   0.986  1.7174  1.8521  0.0947
  121MOL0     H16274   7.563   3.494   1.048  0.7881 -2.5488  0.6673
  121MOL0     H16275   7.622   3.593   1.193 -0.5453 -2.2293  2.3360
  121MOL0     H16276   7.689   3.319   1.127  2.1892 -0.1830  0.6243
  121MOL0     H16277   7.725   3.401   1.279 -0.5513 -1.0015  0.2731
  121MOL0     H16278   7.422   3.388   1.195  1.0052  0.9992 -0.9758
  121MOL0     H16279   7.501   3.239   1.218 -3.1060  0.5164 -0.4556
  121MOL0     H16280   7.577   3.331   1.451  1.7336  0.0812 -3.1906
  121MOL0     H16281   7.488   3.473   1.411 -0.0365  0.4995  0.5463
  121MOL0     H16282   7.277   3.340   1.402 -1.2871 -2.0745 -0.2244
  121MOL0     H16283   7.362   3.337   1.565 -0.3694 -0.2881 -0.1571
  121MOL0     H16284   7.330   3.120   1.375 -1.0734  1.8968 -0.6843
  121MOL0     H16285   7.469   3.115   1.484 -1.2141 -1.6734  0.4725
  121MOL0     H16286   7.397   3.060   1.747  0.4123  2.3026  0.7392
  121MOL0     H16287   7.248   3.198   1.963 -1.4430  1.6844 -0.1887
  121MOL0     H16288   7.073   3.175   1.944  1.1085  3.1324 -0.5708
  121MOL0     H16289   7.122   2.916   1.949  2.7261 -2.3109 -0.3242
  121MOL0     H16290   7.296   2.956   1.950 -0.1427  0.5544  1.7789
  121MOL0     H16291   7.100   2.944   2.177  0.5030 -1.7373  0.1818
  121MOL0     H16292   7.177   3.096   2.179  1.8438 -0.1274  3.3825
  121MOL0     H16293   7.303   2.943   2.309  1.6228 -3.0793  0.4586
  121MOL0     H16294   7.408   2.986   2.165  0.2760  1.0349  0.5958
  121MOL0     H16295   7.486   2.845   2.396  3.7583  0.2744 -1.0972
  121MOL0     H16296   7.635   2.685   2.490 -1.0490 -1.0452  1.4960
  121MOL0     H16297   7.814   2.207   2.311 -2.0816 -1.0579 -0.9699
  121MOL0     H16298   7.989   2.044   2.417 -1.2557  2.9832 -3.8162
  121MOL0     H16299   7.983   1.973   2.810  0.1537 -0.3810  0.0889
  121MOL0     H16300   7.900   1.815   2.777 -1.0241  0.8664  0.8787
  121MOL0     H16301   8.197   1.881   2.753  0.9219 -0.4929  0.3481
  121MOL0     H16302   8.121   1.782   2.878 -3.2163  0.2237  0.8200
  121MOL0     H16303   8.085   1.609   2.709 -2.7530 -0.0482 -5.3824
  121MOL0     H16304   8.129   1.713   2.580 -1.7840 -3.9678 -0.2067
  121MOL0     H16305   8.311   1.632   2.813 -1.4718 -1.1123 -0.2178
  121MOL0     H16306   8.362   1.726   2.674  0.1215  1.8016  5.1334
  121MOL0     H16307   8.300   1.501   2.534 -0.0882 -2.7593  0.0856
  121MOL0     H16308   8.275   1.432   2.691  2.2363 -1.6930  0.1864
  121MOL0     H16309   8.529   1.577   2.670  1.0267  0.1042  0.8059
  121MOL0     H16310   8.476   1.437   2.768 -0.6822  1.8062  0.8880
  121MOL0     H16311   8.521   1.432   2.451  1.0961  0.4514 -0.7190
  121MOL0     H16312   8.464   1.302   2.547 -1.7561  2.0988  0.8452
  121MOL0     H16313   8.658   1.309   2.683  0.9597 -1.8227 -0.5190
  121MOL0     H16314   8.711   1.271   2.518  0.1038 -0.2520  1.4077
  121MOL0     H16315   7.711   1.966   2.731  3.3337  3.4857  2.4057
  121MOL0     H16316   7.560   2.144   2.628 -0.6176  1.2021 -1.5981
  121MOL0     H16317   7.484   2.381   2.239 -2.2773 -0.0075  1.7387
  121MOL0     H16318   7.348   2.544   2.115  0.4134 -3.3296  0.4170
  121MOL0     H16319   7.768   3.897   0.806 -1.0477  1.4482 -1.9452
  121MOL0     H16320   7.801   4.146   0.777 -2.8021  1.3652 -0.4237
  121MOL0     H16321   7.778   4.570   0.993 -1.1336  1.4674  4.6444
  121MOL0     H16322   7.830   4.806   0.962  1.2272  0.0022  0.7353
  121MOL0     H16323   7.897   5.025   0.976  0.7404  0.8685  0.2522
  121MOL0     H16324   7.915   4.987   0.806  0.1494 -2.2307  0.6085
  121MOL0     H16325   8.087   5.172   0.786 -2.5074 -2.5756 -1.5311
  121MOL0     H16326   8.119   5.166   0.962 -0.8902 -2.3535  3.5579
  121MOL0     H16327   8.010   5.356   0.943  0.5719  0.5629 -1.5339
  121MOL0     H16328   7.883   5.248   0.998 -1.4087  1.2478 -0.2752
  121MOL0     H16329   7.792   5.231   0.753  0.4181 -0.5147  1.6012
  121MOL0     H16330   7.775   5.382   0.841  3.3864  3.2886  1.4277
  121MOL0     H16331   8.040   5.459   0.516 -0.9430  0.8769  1.4409
  121MOL0     H16332   8.250   4.720   0.928  0.4451 -0.8289 -0.9674
  121MOL0     H16333   8.305   4.512   0.872 -0.0552  0.0192  0.0223
  121MOL0     H16334   8.317   4.498   1.053 -1.2712 -0.4550  0.8374
  121MOL0     H16335   8.250   4.366   0.971  0.0706  0.3244 -0.2732
  122MOL0     O16336   6.866  10.605   7.961  0.1659  0.6352  0.6463
  122MOL0     C16337   6.961  10.535   8.001 -0.3399  0.1795 -0.2148
  122MOL0     O16338   7.093  10.573   7.981  0.5786  0.8921  0.2223
  122MOL0     C16339   7.139  10.686   7.911 -0.8537 -0.0104  0.7566
  122MOL0     C16340   7.085  10.753   7.799 -0.3171  0.1712  0.5877
  122MOL0     C16341   7.160  10.843   7.733  0.1088 -0.1838 -0.0471
  122MOL0     C16342   7.296  10.867   7.766 -0.5270 -0.3793  1.0366
  122MOL0     O16343   7.371  10.945   7.692  0.7165  0.6019 -0.2318
  122MOL0     C16344   7.329  10.983   7.559 -0.3670  1.1179 -0.0892
  122MOL0     C16345   7.336  10.855   7.473 -0.8358 -0.0123  0.1668
  122MOL0     C16346   7.464  10.779   7.457 -0.4252  0.6144  0.4875
  122MOL0     C16347   7.514  10.705   7.590  0.2360 -0.1475 -0.5638
  122MOL0     C16348   7.617  10.610   7.545 -0.5915  0.4083  0.6469
  122MOL0     C16349   7.656  10.506   7.649  0.0363 -0.0925  0.0211
  122MOL0     C16350   7.547  10.418   7.706 -0.8734  0.4633  0.6117
  122MOL0     C16351   7.600  10.309   7.799 -0.0825  0.7528  0.3704
  122MOL0     N16352   7.676  10.349   7.920 -0.1563 -0.8815 -0.0901
  122MOL0     C16353   7.818  10.356   7.947  0.3787  0.0250 -0.7292
  122MOL0     C16354   7.817  10.385   8.079  0.7341 -0.9605 -0.0996
  122MOL0     C16355   7.935  10.424   8.164  0.3562  0.0491 -1.0036
  122MOL0     C16356   7.958  10.341   8.297  0.7449 -0.6184  0.4453
  122MOL0     C16357   8.058  10.408   8.395  0.3162  0.2948 -0.0473
  122MOL0     C16358   8.158  10.310   8.456  0.4287  0.4709 -0.1250
  122MOL0     O16359   8.238  10.373   8.553  0.3304  0.1629  0.5903
  122MOL0     C16360   8.319  10.296   8.636 -1.1380  0.1510  0.3411
  122MOL0     C16361   8.337  10.160   8.635 -0.9573  0.0904 -0.0784
  122MOL0     C16362   8.428  10.096   8.719  0.0243  0.1946  0.6969
  122MOL0     C16363   8.521  10.165   8.797  0.6778 -0.9770 -0.2602
  122MOL0     C16364   8.626  10.097   8.860  0.1045  0.0483 -0.5715
  122MOL0     O16365   8.666   9.971   8.833 -0.5646  0.1082 -0.3883
  122MOL0     C16366   8.778   9.924   8.872 -0.3418  0.0211 -0.1317
  122MOL0     C16367   8.780   9.846   8.985  0.6192  0.9455  0.2899
  122MOL0     C16368   8.899   9.788   9.038 -0.6368 -0.6807  0.6705
  122MOL0     C16369   9.026   9.822   8.993  0.4006 -1.1734  1.3442
  122MOL0     O16370   9.139   9.797   9.057 -0.5863  0.2168 -0.0724
  122MOL0     C16371   9.161   9.662   9.114  0.1727  0.4001 -0.6261
  122MOL0     C16372   9.224   9.664   9.252  0.0895 -0.1362  0.7191
  122MOL0     C16373   9.365   9.726   9.252 -0.2914 -0.1442 -0.8965
  122MOL0     C16374   9.352   9.884   9.251  0.2807 -0.1160  0.7789
  122MOL0     C16375   9.459   9.964   9.325 -0.0365  0.1973  0.0455
  122MOL0     C16376   9.595   9.972   9.254  0.4492  0.2122  0.1769
  122MOL0     C16377   9.707  10.031   9.343  0.5470  0.6474 -0.2276
  122MOL0     C16378   9.837  10.039   9.261  0.7779 -0.2231  0.3437
  122MOL0    Cl16379   9.839  10.181   9.158 -0.1682 -0.2274 -0.4395
  122MOL0     C16380   9.023   9.908   8.877  0.2262 -0.3497  0.1740
  122MOL0     C16381   8.899   9.965   8.826 -0.4615  0.8162  0.0261
  122MOL0     O16382   8.690  10.171   8.932 -0.0388  0.2699 -0.0195
  122MOL0     C16383   8.509  10.313   8.797  0.7476  1.0816  0.1153
  122MOL0     C16384   8.404  10.367   8.719  0.3898  0.1371 -0.7458
  122MOL0     N16385   7.687  10.394   8.123  0.1541 -0.7750 -0.5465
  122MOL0     N16386   7.606  10.369   8.036 -0.5937 -0.6540  0.5338
  122MOL0     C16387   7.351  10.802   7.872  0.3026 -0.3145 -0.8597
  122MOL0     C16388   7.282  10.702   7.932 -0.3776 -1.1293  0.2679
  122MOL0     C16389   6.936  10.407   8.065 -0.0617 -0.4600 -0.1885
  122MOL0     C16390   7.016  10.300   8.026 -0.6072  0.0819 -0.1044
  122MOL0     C16391   6.991  10.165   8.074 -0.4525 -0.8802 -0.4155
  122MOL0     C16392   6.876  10.142   8.148  0.5915 -0.2770 -0.0497
  122MOL0     O16393   6.849  10.019   8.197 -0.1877  0.7846 -0.3682
  122MOL0     C16394   6.864  10.004   8.342 -0.6068  0.4335  0.2158
  122MOL0     C16395   6.995   9.945   8.371 -0.5218  1.2230 -0.7693
  122MOL0     C16396   7.004   9.801   8.309  1.2752 -0.2779  0.0171
  122MOL0     C16397   7.137   9.724   8.352  0.1787 -0.6309 -0.1304
  122MOL0     C16398   7.244   9.803   8.296 -0.6219  0.8976 -1.5861
  122MOL0     C16399   7.345   9.863   8.247 -0.0558  0.6958 -0.2819
  122MOL0     C16400   6.800  10.253   8.195 -0.4061 -0.4322  0.0493
  122MOL0     C16401   6.836  10.382   8.165 -0.8886  0.5778  0.6771
  122MOL0     C16402   6.766  10.494   8.226  0.3892 -0.1836  0.6138
  122MOL0     H16403   6.982  10.734   7.771 -0.3800  1.1758  0.1027
  122MOL0     H16404   7.110  10.889   7.648  3.0808 -0.4167 -2.0706
  122MOL0     H16405   7.230  11.028   7.552 -1.3874 -0.7247  1.3585
  122MOL0     H16406   7.403  11.057   7.527  0.1454  1.4743  1.8193
  122MOL0     H16407   7.305  10.893   7.376 -0.5801 -1.5210 -0.5462
  122MOL0     H16408   7.261  10.781   7.503 -1.4297  0.1038 -1.0245
  122MOL0     H16409   7.537  10.855   7.427  0.1737 -0.8935 -2.1210
  122MOL0     H16410   7.455  10.708   7.375  1.0286 -0.0943  0.9065
  122MOL0     H16411   7.551  10.771   7.669 -0.1522 -0.0082 -0.4999
  122MOL0     H16412   7.436  10.641   7.630  0.8584  0.1542  1.2257
  122MOL0     H16413   7.570  10.555   7.464  0.5345 -0.3831  0.4954
  122MOL0     H16414   7.704  10.664   7.505 -0.7766  0.7173  0.6648
  122MOL0     H16415   7.735  10.452   7.595 -0.3287 -0.4696 -0.1377
  122MOL0     H16416   7.696  10.566   7.732  1.4950 -0.0660 -0.6683
  122MOL0     H16417   7.483  10.387   7.623 -1.0953  2.4546 -0.0008
  122MOL0     H16418   7.486  10.481   7.771  0.0802  1.2940  0.7167
  122MOL0     H16419   7.523  10.244   7.841  0.6481 -0.0244  0.5309
  122MOL0     H16420   7.663  10.254   7.728 -1.5250 -1.0957  0.4815
  122MOL0     H16421   7.896  10.332   7.875 -0.0463  0.5653 -1.3791
  122MOL0     H16422   8.025  10.420   8.100 -1.0463  0.9980 -3.1612
  122MOL0     H16423   7.911  10.526   8.196  0.4878 -0.6639  1.5874
  122MOL0     H16424   7.863  10.329   8.351 -0.4224  1.3297 -1.0178
  122MOL0     H16425   7.995  10.241   8.270  1.6622  0.0775 -1.0317
  122MOL0     H16426   8.004  10.446   8.482 -0.3674  0.6514 -0.6287
  122MOL0     H16427   8.111  10.489   8.344  0.7406  0.2115  0.2509
  122MOL0     H16428   8.231  10.282   8.379 -1.8910 -0.8941 -1.9360
  122MOL0     H16429   8.117  10.213   8.487  0.5157 -0.2301 -2.0744
  122MOL0     H16430   8.284  10.093   8.568 -0.7922  0.2586 -0.3800
  122MOL0     H16431   8.425   9.989   8.705  1.5369  0.2527 -0.4119
  122MOL0     H16432   8.686   9.825   9.035  0.9114 -2.9025 -0.4645
  122MOL0     H16433   8.894   9.722   9.124 -3.7752 -1.5461 -0.0465
  122MOL0     H16434   9.071   9.600   9.120  2.7637 -3.6046  1.2955
  122MOL0     H16435   9.226   9.604   9.047  1.4355  0.3716  0.5929
  122MOL0     H16436   9.154   9.721   9.314 -0.1045  1.4373 -0.8589
  122MOL0     H16437   9.235   9.565   9.297  1.0925  0.5360  2.0446
  122MOL0     H16438   9.422   9.696   9.340  0.5258 -1.8282 -1.9376
  122MOL0     H16439   9.410   9.681   9.163 -1.3689  1.0102 -2.0859
  122MOL0     H16440   9.253   9.922   9.279  0.1503  1.2625 -1.3198
  122MOL0     H16441   9.359   9.913   9.146  2.6805  3.3822  1.7445
  122MOL0     H16442   9.469   9.933   9.430 -0.7685  4.2950  1.5405
  122MOL0     H16443   9.417  10.065   9.320 -0.0146  0.2188  0.2656
  122MOL0     H16444   9.640   9.879   9.217  3.0291  2.5113 -2.9952
  122MOL0     H16445   9.581  10.034   9.165 -0.6941  1.5797  1.2675
  122MOL0     H16446   9.730   9.966   9.427  1.1239  2.2641  0.9192
  122MOL0     H16447   9.685  10.133   9.377 -1.1761  0.2787 -0.1645
  122MOL0     H16448   9.921  10.047   9.331  0.6983 -0.2660  0.4440
  122MOL0     H16449   9.855   9.953   9.196 -2.3426  0.4025 -1.5736
  122MOL0     H16450   9.115   9.950   8.836 -0.9811  0.6625 -1.6273
  122MOL0     H16451   8.886  10.041   8.750 -2.1974  3.4870  2.7768
  122MOL0     H16452   8.577  10.377   8.853  3.6005 -2.2806  0.8112
  122MOL0     H16453   8.392  10.475   8.719  2.1189  0.4334  1.8189
  122MOL0     H16454   7.454  10.825   7.895 -0.7879  5.0805  0.0090
  122MOL0     H16455   7.333  10.641   8.005 -0.6311 -0.8456  0.6830
  122MOL0     H16456   7.098  10.325   7.959 -1.5548 -2.6586 -2.4854
  122MOL0     H16457   7.060  10.091   8.034  1.8966  1.2242 -0.5380
  122MOL0     H16458   6.787   9.946   8.393 -1.1857  1.3017  0.3607
  122MOL0     H16459   6.862  10.106   8.383  0.1987  0.4429  0.2475
  122MOL0     H16460   6.987   9.947   8.480 -3.5463 -0.0099 -0.8759
  122MOL0     H16461   7.070  10.016   8.333  0.2440  0.3512 -0.9229
  122MOL0     H16462   6.989   9.794   8.201  1.0491 -2.2643  0.1442
  122MOL0     H16463   6.928   9.736   8.353  0.5603 -0.6761 -1.7113
  122MOL0     H16464   7.159   9.724   8.459  0.5897 -0.1218 -0.2141
  122MOL0     H16465   7.140   9.619   8.320  0.5175 -0.6475 -0.0433
  122MOL0     H16466   7.429   9.909   8.198 -0.4197  1.8963  0.1888
  122MOL0     H16467   6.713  10.232   8.257 -0.9535 -0.4080 -0.7004
  122MOL0     H16468   6.733  10.469   8.327 -0.7344 -1.7760 -0.0993
  122MOL0     H16469   6.842  10.572   8.235 -0.1962  0.3039  1.3869
  122MOL0     H16470   6.688  10.528   8.157  0.2720 -3.1672 -0.9141
  123MOL0     O16471   3.231   5.124  11.010  0.4113  0.1574  0.5322
  123MOL0     C16472   3.261   5.010  10.971  0.1549  0.1922 -0.4275
  123MOL0     O16473   3.199   4.955  10.871  0.7962  0.2629 -0.7696
  123MOL0     C16474   3.063   4.977  10.852  0.2076  0.0690 -0.4136
  123MOL0     C16475   3.025   5.093  10.799 -0.4414  0.8176 -0.4317
  123MOL0     C16476   2.895   5.133  10.782 -0.4414  0.2934  0.1326
  123MOL0     C16477   2.797   5.037  10.818  0.2717  0.1739 -0.2896
  123MOL0     O16478   2.670   5.080  10.803 -0.1915 -0.0769 -0.0530
  123MOL0     C16479   2.554   4.989  10.800 -0.8098 -0.2330  1.1164
  123MOL0     C16480   2.426   5.070  10.802  0.1714 -0.2152 -0.5212
  123MOL0     C16481   2.307   4.987  10.801 -0.1272  0.7177 -0.1922
  123MOL0     C16482   2.168   5.066  10.807  0.2895  0.5608  0.4097
  123MOL0     C16483   2.039   4.971  10.809  0.0192  0.0840 -0.1944
  123MOL0     C16484   1.909   5.046  10.786 -0.7048 -0.1829  0.3124
  123MOL0     C16485   1.797   4.954  10.733 -1.0780  0.4925  0.2750
  123MOL0     C16486   1.663   5.026  10.723 -0.4284  0.3966  0.2116
  123MOL0     N16487   1.654   5.107  10.610  0.2613  0.3858 -0.5960
  123MOL0     C16488   1.568   5.081  10.505 -0.9336 -0.2623 -0.5861
  123MOL0     C16489   1.581   5.188  10.414 -0.1897  0.1736 -0.3097
  123MOL0     C16490   1.519   5.213  10.282 -0.1693  1.0253 -0.2145
  123MOL0     C16491   1.620   5.277  10.183  0.3388 -0.1317 -1.0150
  123MOL0     C16492   1.581   5.260  10.036 -0.3119  1.1217 -0.4492
  123MOL0     C16493   1.434   5.294  10.013  0.0239 -0.6573 -0.0302
  123MOL0     O16494   1.439   5.435   9.998 -0.1797  0.3036  0.5427
  123MOL0     C16495   1.322   5.477   9.940  0.2144  0.2141  0.2027
  123MOL0     C16496   1.334   5.585   9.857 -0.4704 -0.3424 -0.5677
  123MOL0     C16497   1.217   5.658   9.810  0.3578  0.0693  0.8340
  123MOL0     C16498   1.087   5.605   9.811 -0.0264  0.5710  0.6236
  123MOL0     C16499   0.972   5.674   9.754 -0.3004  0.2043 -0.2839
  123MOL0     O16500   1.010   5.771   9.663  0.3053  0.2474 -0.4978
  123MOL0     C16501   0.913   5.851   9.612  0.1316 -0.3595  0.8418
  123MOL0     C16502   0.771   5.828   9.593  0.3080  0.4831 -0.7105
  123MOL0     C16503   0.700   5.916   9.524  0.1359 -0.1069  0.7411
  123MOL0     C16504   0.759   6.031   9.463 -0.3387  0.8930  1.0968
  123MOL0     O16505   0.705   6.128   9.384  0.5392 -0.0913  0.8708
  123MOL0     C16506   0.569   6.127   9.341  0.1673 -0.0641 -0.2787
  123MOL0     C16507   0.559   6.075   9.194  0.3511  0.6323  0.3623
  123MOL0     C16508   0.540   5.922   9.179 -0.2834 -0.0756  0.3861
  123MOL0     C16509   0.396   5.892   9.213  0.1842 -0.1744 -0.7157
  123MOL0     C16510   0.364   5.752   9.253  0.2738  0.0625 -0.1765
  123MOL0     C16511   0.408   5.638   9.153  1.0538  0.8875  0.3979
  123MOL0     C16512   0.305   5.620   9.039 -0.4096  0.8635 -0.2545
  123MOL0     C16513   0.335   5.502   8.954  0.6459 -0.7952 -0.2087
  123MOL0    Cl16514   0.203   5.481   8.836 -0.1065  0.2607  0.0407
  123MOL0     C16515   0.895   6.052   9.482  0.0460  0.6474  0.1482
  123MOL0     C16516   0.971   5.972   9.564 -0.4443 -0.2201 -0.2508
  123MOL0     O16517   0.858   5.647   9.784  1.0473 -0.0247 -0.0622
  123MOL0     C16518   1.073   5.485   9.890 -0.5438 -0.1670  0.2645
  123MOL0     C16519   1.191   5.420   9.938 -0.2739 -0.4285 -0.3856
  123MOL0     N16520   1.679   5.267  10.465 -0.4988 -0.0598 -0.3161
  123MOL0     N16521   1.721   5.226  10.586 -0.0520  0.0405 -0.0475
  123MOL0     C16522   2.842   4.904  10.854  0.7606 -0.6644  0.6872
  123MOL0     C16523   2.976   4.885  10.865  0.2373  0.5550 -0.2295
  123MOL0     C16524   3.372   4.945  11.048 -0.1796  0.1914  0.4302
  123MOL0     C16525   3.456   5.023  11.130  0.3388 -0.4003  0.2760
  123MOL0     C16526   3.557   4.963  11.205  0.0588 -0.3598  0.6847
  123MOL0     C16527   3.577   4.828  11.211  0.8480  0.1629  0.0151
  123MOL0     O16528   3.690   4.795  11.278 -0.5263  0.4169 -0.0982
  123MOL0     C16529   3.728   4.654  11.277 -0.4136 -0.3340 -0.6836
  123MOL0     C16530   3.853   4.624  11.347 -0.2903  0.6619  0.1887
  123MOL0     C16531   3.873   4.465  11.363 -0.7367 -1.2281  0.5246
  123MOL0     C16532   3.773   4.401  11.459  0.0598  0.2644 -0.5543
  123MOL0     C16533   3.789   4.460  11.599 -0.7735 -0.1076 -0.0667
  123MOL0     C16534   3.783   4.515  11.703  1.2131  0.1208  0.3933
  123MOL0     C16535   3.499   4.747  11.125 -0.6607 -0.3005 -1.0814
  123MOL0     C16536   3.401   4.805  11.044 -0.2899 -0.1154  0.0013
  123MOL0     C16537   3.311   4.707  10.966  0.6397  0.5600 -0.7627
  123MOL0     H16538   3.114   5.154  10.785  0.2384 -0.3309 -1.3169
  123MOL0     H16539   2.877   5.237  10.755  0.7001  0.7401  1.0243
  123MOL0     H16540   2.565   4.930  10.709  1.0473  1.2793  0.2693
  123MOL0     H16541   2.550   4.916  10.882 -0.1058 -2.3799 -0.6727
  123MOL0     H16542   2.435   5.127  10.709  2.6278 -0.1023 -0.2814
  123MOL0     H16543   2.413   5.141  10.885  1.8359 -1.1372  0.5756
  123MOL0     H16544   2.318   4.914  10.881 -0.0859 -1.1229 -1.7867
  123MOL0     H16545   2.314   4.917  10.716 -2.9787 -1.8203  1.4542
  123MOL0     H16546   2.167   5.118  10.903  1.0076  1.4970 -0.0638
  123MOL0     H16547   2.170   5.133  10.721  0.9680 -3.3395 -2.9516
  123MOL0     H16548   2.045   4.896  10.730  0.1163  0.8033 -0.8750
  123MOL0     H16549   2.025   4.905  10.895 -1.2765  0.0970 -0.3667
  123MOL0     H16550   1.888   5.086  10.886  0.7266 -2.2724  1.5212
  123MOL0     H16551   1.935   5.126  10.716  2.6303 -0.8000  0.6537
  123MOL0     H16552   1.778   4.878  10.809  2.7439  0.5894  1.5556
  123MOL0     H16553   1.815   4.902  10.638 -3.1949  1.2394 -0.5893
  123MOL0     H16554   1.580   4.956  10.738 -1.6623  1.7791  0.0506
  123MOL0     H16555   1.656   5.085  10.815 -3.2423 -3.3747  2.7390
  123MOL0     H16556   1.512   4.990  10.488 -0.9774 -0.1163 -1.2630
  123MOL0     H16557   1.484   5.117  10.244  0.9542 -0.5462  2.4446
  123MOL0     H16558   1.437   5.276  10.318  0.4226  1.5372  0.2690
  123MOL0     H16559   1.618   5.384  10.203  1.3889 -0.3087  0.1187
  123MOL0     H16560   1.718   5.230  10.196  0.4991  1.1169  4.7626
  123MOL0     H16561   1.596   5.154  10.012 -0.4792  0.6743  1.3001
  123MOL0     H16562   1.644   5.327   9.977 -0.9687  1.7641 -0.4363
  123MOL0     H16563   1.371   5.260  10.096 -1.8447  2.4029 -0.0462
  123MOL0     H16564   1.414   5.236   9.922  2.0743  0.8165 -1.5165
  123MOL0     H16565   1.431   5.629   9.837 -1.0230  0.5750 -1.3001
  123MOL0     H16566   1.231   5.749   9.753 -0.2392 -2.1224 -3.1031
  123MOL0     H16567   0.731   5.733   9.628  3.6225 -1.5456 -1.9301
  123MOL0     H16568   0.595   5.891   9.511  0.0327  1.7502 -3.1533
  123MOL0     H16569   0.495   6.075   9.402 -1.0407 -1.3862 -2.7002
  123MOL0     H16570   0.531   6.229   9.337 -2.5395 -1.0264 -1.3594
  123MOL0     H16571   0.481   6.127   9.138  1.0260  1.2061 -0.0489
  123MOL0     H16572   0.648   6.106   9.139 -0.0055  0.1406 -0.5150
  123MOL0     H16573   0.540   5.900   9.071 -1.6060  3.3212 -0.4475
  123MOL0     H16574   0.610   5.867   9.243  0.1658 -1.1882 -1.0023
  123MOL0     H16575   0.323   5.933   9.143 -2.8479  0.4579  2.5239
  123MOL0     H16576   0.366   5.941   9.306 -0.0135  4.2398 -2.8446
  123MOL0     H16577   0.260   5.736   9.283  0.3022  1.6132  0.8831
  123MOL0     H16578   0.421   5.729   9.344 -1.0438  1.8204  1.1814
  123MOL0     H16579   0.504   5.666   9.107  0.6325  1.4812 -0.1500
  123MOL0     H16580   0.418   5.550   9.217  3.4179  0.8455  0.0576
  123MOL0     H16581   0.302   5.703   8.968  1.2965  0.0381 -1.3582
  123MOL0     H16582   0.214   5.613   9.100  1.2214  0.3260  2.2798
  123MOL0     H16583   0.432   5.498   8.904  0.5285 -2.9428 -0.3815
  123MOL0     H16584   0.345   5.407   9.008 -0.1843 -1.3692 -1.0334
  123MOL0     H16585   0.933   6.136   9.424  0.4919  1.0206  0.9742
  123MOL0     H16586   1.078   5.986   9.572 -0.7700  1.4429  3.4304
  123MOL0     H16587   0.974   5.440   9.888 -0.4645 -0.3363 -0.1434
  123MOL0     H16588   1.184   5.326   9.992  3.0735  0.2468  1.4959
  123MOL0     H16589   2.766   4.832  10.882 -2.5251  0.5143 -3.9556
  123MOL0     H16590   3.011   4.789  10.900 -0.4663  0.6782  0.8420
  123MOL0     H16591   3.441   5.130  11.124 -3.1076 -0.8242 -0.6827
  123MOL0     H16592   3.631   5.030  11.247  0.2132  0.6548 -1.1376
  123MOL0     H16593   3.739   4.619  11.174  0.2684 -1.4686 -0.2386
  123MOL0     H16594   3.648   4.590  11.316  2.5390 -3.3974  0.8195
  123MOL0     H16595   3.854   4.673  11.444 -1.2550 -0.6165  0.8644
  123MOL0     H16596   3.931   4.662  11.279 -0.8723 -0.6874 -1.3220
  123MOL0     H16597   3.976   4.445  11.393 -0.3860  3.4676  3.5026
  123MOL0     H16598   3.847   4.424  11.265  0.0848  1.6602 -1.0172
  123MOL0     H16599   3.671   4.424  11.429  0.2544 -1.0604 -2.3658
  123MOL0     H16600   3.791   4.294  11.448 -1.7251 -0.0800 -0.3871
  123MOL0     H16601   3.763   4.565  11.796 -2.4336  2.8540 -1.5947
  123MOL0     H16602   3.510   4.640  11.138  2.4500  0.2183  2.1305
  123MOL0     H16603   3.352   4.607  10.983 -0.9652  0.1497  1.1592
  123MOL0     H16604   3.210   4.699  11.009  1.3179  1.3881  1.0950
  123MOL0     H16605   3.303   4.729  10.859 -4.0493  0.3321 -0.6641
  124MOL0     O16606   7.788   0.326   5.536 -0.1187 -1.1361 -0.0463
  124MOL0     C16607   7.754   0.309   5.423 -0.0543 -0.0454  0.2324
  124MOL0     O16608   7.678   0.389   5.354  0.3007  0.0545 -1.1036
  124MOL0     C16609   7.684   0.524   5.391  1.5249  0.3976  0.0623
  124MOL0     C16610   7.805   0.603   5.398  0.3842  0.3950 -0.0290
  124MOL0     C16611   7.787   0.737   5.432 -0.1091  0.0983  0.2193
  124MOL0     C16612   7.656   0.802   5.442 -0.1742 -0.1670  0.1772
  124MOL0     O16613   7.638   0.931   5.494 -0.6877  0.0256 -0.5238
  124MOL0     C16614   7.718   0.980   5.602 -0.4909 -0.0365 -0.3327
  124MOL0     C16615   7.676   1.124   5.629 -0.6219  0.1380  0.4250
  124MOL0     C16616   7.696   1.226   5.503 -0.6609  2.0685  0.9765
  124MOL0     C16617   7.571   1.309   5.458  0.4033  0.1702 -0.3756
  124MOL0     C16618   7.617   1.426   5.364 -0.3920 -0.8309  0.2283
  124MOL0     C16619   7.493   1.508   5.333  0.0544 -0.4930 -0.1683
  124MOL0     C16620   7.534   1.614   5.242 -0.4143 -0.3087  0.0001
  124MOL0     C16621   7.436   1.629   5.132  0.6380  0.5867  0.9484
  124MOL0     N16622   7.312   1.688   5.192 -0.0554 -0.3453 -0.9984
  124MOL0     C16623   7.293   1.820   5.214 -0.5185 -0.0751  0.1809
  124MOL0     C16624   7.158   1.840   5.217 -0.4066 -0.4497 -1.0517
  124MOL0     C16625   7.090   1.971   5.251 -0.2395 -0.6078  0.6695
  124MOL0     C16626   7.001   1.950   5.377 -0.6988  0.9328  0.2315
  124MOL0     C16627   6.944   2.078   5.442 -0.8119  0.2218 -0.4209
  124MOL0     C16628   6.831   2.037   5.542 -0.1197 -1.2955  0.1931
  124MOL0     O16629   6.778   2.152   5.610  0.5674  0.3673  0.1360
  124MOL0     C16630   6.675   2.126   5.701  0.1355 -0.9148  0.2918
  124MOL0     C16631   6.624   2.002   5.735  1.3188 -0.1665 -0.5088
  124MOL0     C16632   6.509   1.999   5.823 -0.3419  0.3868  0.7900
  124MOL0     C16633   6.469   2.119   5.888 -0.5431  0.9137 -0.9330
  124MOL0     C16634   6.371   2.127   5.997  0.3793  0.2593 -0.5828
  124MOL0     O16635   6.329   2.241   6.052  0.4344  0.0630  0.4415
  124MOL0     C16636   6.265   2.237   6.175 -0.2027  0.0180 -0.3120
  124MOL0     C16637   6.335   2.214   6.293  0.4929 -0.6171 -0.1471
  124MOL0     C16638   6.275   2.249   6.410 -0.2857 -0.0608 -0.2975
  124MOL0     C16639   6.138   2.275   6.419 -0.0003 -0.2041  0.1961
  124MOL0     O16640   6.082   2.316   6.539 -0.6036  0.6409  0.2075
  124MOL0     C16641   5.946   2.331   6.556  0.0604 -0.9086  0.3133
  124MOL0     C16642   5.910   2.403   6.685 -0.4570 -0.0001  0.0298
  124MOL0     C16643   5.860   2.298   6.794  0.1051  0.1574 -0.1679
  124MOL0     C16644   5.723   2.259   6.748  0.5436 -0.2015 -0.5251
  124MOL0     C16645   5.632   2.234   6.870 -0.8562  1.6007  0.2187
  124MOL0     C16646   5.675   2.101   6.949  0.6249  0.6487  0.4821
  124MOL0     C16647   5.587   2.090   7.082  0.1589 -0.3793 -1.3763
  124MOL0     C16648   5.609   1.967   7.159 -0.2122  0.1511 -0.6476
  124MOL0    Cl16649   5.459   1.932   7.272  0.6587 -0.3859  0.1466
  124MOL0     C16650   6.062   2.275   6.296 -0.3840  1.1214  0.3233
  124MOL0     C16651   6.124   2.260   6.177 -0.3893 -0.5416 -0.0039
  124MOL0     O16652   6.324   2.014   6.026 -0.3568  0.2498  0.2403
  124MOL0     C16653   6.527   2.240   5.846 -0.2398  0.1639 -0.3757
  124MOL0     C16654   6.623   2.250   5.750 -0.0872 -0.2292 -0.0377
  124MOL0     N16655   7.099   1.717   5.222  0.2106  0.0306 -0.0882
  124MOL0     N16656   7.193   1.621   5.210 -0.2572  0.3386 -0.8897
  124MOL0     C16657   7.540   0.724   5.417  0.0608 -1.1124  0.1841
  124MOL0     C16658   7.558   0.592   5.385  0.3021  0.2886 -0.2508
  124MOL0     C16659   7.775   0.167   5.373  0.1878 -0.7418  0.0086
  124MOL0     C16660   7.832   0.077   5.457  0.5757 -0.2235 -0.3316
  124MOL0     C16661   7.851  -0.054   5.421 -0.7278  0.0402 -0.6217
  124MOL0     C16662   7.805  -0.105   5.302 -0.5161  0.0597 -0.1495
  124MOL0     O16663   7.831  -0.242   5.277  0.4188  0.3393 -0.1794
  124MOL0     C16664   7.831  -0.282   5.141  1.4180  0.0569  0.5245
  124MOL0     C16665   7.851  -0.431   5.130  0.9434  0.2152  0.7622
  124MOL0     C16666   7.956  -0.498   5.216 -1.0084  0.9471 -0.1674
  124MOL0     C16667   8.104  -0.433   5.200 -0.4941  0.5541  0.0675
  124MOL0     C16668   8.207  -0.505   5.281  0.1423 -0.8213 -1.1670
  124MOL0     C16669   8.285  -0.578   5.338 -0.7263 -0.8407  0.2854
  124MOL0     C16670   7.739  -0.017   5.222 -0.6749  1.1017  0.2205
  124MOL0     C16671   7.711   0.114   5.258 -0.5778 -0.5955  0.0558
  124MOL0     C16672   7.632   0.194   5.168  0.2412 -0.0075 -0.9058
  124MOL0     H16673   7.904   0.559   5.385 -0.3952 -1.1360 -0.9667
  124MOL0     H16674   7.877   0.793   5.456 -1.4265  1.3645  2.5589
  124MOL0     H16675   7.724   0.924   5.695 -0.8873  0.8559  0.2448
  124MOL0     H16676   7.818   0.992   5.559 -1.3617  0.4739 -2.3674
  124MOL0     H16677   7.738   1.171   5.706  0.8773 -0.4823 -0.3579
  124MOL0     H16678   7.575   1.126   5.670 -1.4479 -2.4107 -1.2176
  124MOL0     H16679   7.722   1.167   5.415 -2.4856  0.4383  1.4759
  124MOL0     H16680   7.784   1.286   5.530  2.8836 -3.2207  2.7757
  124MOL0     H16681   7.507   1.243   5.399 -1.1939  1.4631 -0.1731
  124MOL0     H16682   7.521   1.354   5.544  2.5337  0.5279  0.7568
  124MOL0     H16683   7.690   1.492   5.411 -0.1410 -0.3893 -0.7517
  124MOL0     H16684   7.661   1.370   5.281 -1.7509 -0.6586 -0.6407
  124MOL0     H16685   7.418   1.446   5.283  1.8492 -3.6968  0.8469
  124MOL0     H16686   7.444   1.554   5.419  1.8221  0.0186  0.5945
  124MOL0     H16687   7.628   1.591   5.190 -2.2798  0.9226 -4.3755
  124MOL0     H16688   7.550   1.703   5.304 -1.2834 -0.1094 -0.0493
  124MOL0     H16689   7.489   1.697   5.065  0.3378 -1.7655 -1.8483
  124MOL0     H16690   7.406   1.547   5.067 -0.1175  2.7118 -1.5663
  124MOL0     H16691   7.373   1.892   5.222 -0.1123 -0.5622  0.5608
  124MOL0     H16692   7.167   2.042   5.281  1.8977 -2.4638 -0.1209
  124MOL0     H16693   7.027   2.003   5.168 -1.2923  1.8109  2.2753
  124MOL0     H16694   6.919   1.888   5.340 -0.3164 -0.7903  2.1137
  124MOL0     H16695   7.067   1.898   5.446  2.0721  1.3035 -1.9834
  124MOL0     H16696   6.892   2.139   5.367  0.4883  1.3396 -0.4629
  124MOL0     H16697   7.029   2.123   5.493  0.7562 -2.8101 -0.1580
  124MOL0     H16698   6.879   1.973   5.617  0.0385 -3.2615 -1.4855
  124MOL0     H16699   6.759   1.979   5.484  0.3438 -1.2625 -0.4264
  124MOL0     H16700   6.651   1.902   5.702  1.1158 -1.1262  1.9938
  124MOL0     H16701   6.466   1.902   5.847 -0.4221 -0.5733 -2.6512
  124MOL0     H16702   6.442   2.197   6.281  0.6431  0.0084  0.2232
  124MOL0     H16703   6.331   2.253   6.503 -0.7133  1.3836 -0.0748
  124MOL0     H16704   5.892   2.387   6.479 -0.5525  1.7977  2.5361
  124MOL0     H16705   5.899   2.232   6.552 -2.3388  0.1655 -0.0756
  124MOL0     H16706   5.993   2.460   6.729 -1.0416 -0.7043  2.1261
  124MOL0     H16707   5.840   2.487   6.687  1.7438  2.0205  3.2347
  124MOL0     H16708   5.914   2.203   6.800  0.0372  0.1453  0.2905
  124MOL0     H16709   5.855   2.346   6.892  0.1763 -3.3956  1.7481
  124MOL0     H16710   5.726   2.171   6.683 -1.3198  1.6371 -3.3643
  124MOL0     H16711   5.674   2.343   6.698  2.1985  0.6756 -0.7379
  124MOL0     H16712   5.531   2.227   6.828  0.0864  1.2694 -2.1521
  124MOL0     H16713   5.631   2.310   6.949  0.5434  0.0004  1.8615
  124MOL0     H16714   5.662   2.008   6.893  1.3487  0.3501  0.7978
  124MOL0     H16715   5.782   2.105   6.973  0.5986 -0.6352  0.8594
  124MOL0     H16716   5.482   2.105   7.056 -0.2469  0.5212  0.6258
  124MOL0     H16717   5.621   2.172   7.145 -0.5781 -0.0333 -1.4185
  124MOL0     H16718   5.628   1.880   7.096 -1.2359 -0.8424  0.3878
  124MOL0     H16719   5.693   1.982   7.229 -0.3045 -0.4763 -0.4007
  124MOL0     H16720   5.956   2.302   6.294 -0.3377  1.2898 -0.0991
  124MOL0     H16721   6.079   2.281   6.080 -3.1369  1.2002  1.5327
  124MOL0     H16722   6.497   2.334   5.892 -0.8325  1.5496 -3.3453
  124MOL0     H16723   6.676   2.343   5.731 -1.4076  0.9692  1.7628
  124MOL0     H16724   7.444   0.772   5.429  1.1316  0.8211  1.5199
  124MOL0     H16725   7.473   0.530   5.358  1.2246 -2.8708  3.2641
  124MOL0     H16726   7.868   0.115   5.553  0.7809  0.4461 -0.6690
  124MOL0     H16727   7.900  -0.110   5.500 -3.0135  0.8185  1.4565
  124MOL0     H16728   7.915  -0.231   5.093  1.6859 -1.3113 -0.5254
  124MOL0     H16729   7.735  -0.262   5.091  0.5429 -1.8324  1.3258
  124MOL0     H16730   7.862  -0.449   5.022 -0.8378  1.0268  0.4163
  124MOL0     H16731   7.758  -0.476   5.165  0.4801  1.6744  1.5049
  124MOL0     H16732   7.968  -0.606   5.197 -0.0293  0.7145  1.5644
  124MOL0     H16733   7.919  -0.504   5.318  0.1281 -1.9403  0.1842
  124MOL0     H16734   8.138  -0.445   5.097 -1.9211 -1.2527 -0.2503
  124MOL0     H16735   8.100  -0.326   5.220 -2.2528  0.8675 -1.6675
  124MOL0     H16736   8.341  -0.645   5.400  0.0204 -2.0884 -1.6080
  124MOL0     H16737   7.699  -0.048   5.126  2.1616  2.0833 -1.4061
  124MOL0     H16738   7.608   0.137   5.077  3.0340 -1.9482 -0.5488
  124MOL0     H16739   7.545   0.230   5.223  0.6126 -1.9690  1.0896
  124MOL0     H16740   7.702   0.270   5.131  2.4002 -1.5644 -0.2160
  125MOL0     O16741   0.352   9.284   3.041 -0.2437  0.2850 -0.1298
  125MOL0     C16742   0.386   9.373   2.967  0.1509  0.8071 -0.6555
  125MOL0     O16743   0.301   9.449   2.892  0.4404  0.0546 -0.5794
  125MOL0     C16744   0.176   9.397   2.871 -0.0398  0.3467  0.1399
  125MOL0     C16745   0.149   9.262   2.842 -0.0376 -0.4834 -0.1559
  125MOL0     C16746   0.019   9.218   2.817 -0.2273 -0.1570 -0.8815
  125MOL0     C16747  -0.087   9.303   2.823  0.4867 -1.1138  0.0150
  125MOL0     O16748  -0.221   9.271   2.795  0.5182 -0.5268 -0.8264
  125MOL0     C16749  -0.258   9.153   2.720  0.2768 -0.1881  0.7367
  125MOL0     C16750  -0.401   9.169   2.680 -0.5501  0.0870  0.3325
  125MOL0     C16751  -0.424   9.301   2.601 -0.0651  0.2577 -0.5054
  125MOL0     C16752  -0.563   9.310   2.559  1.5147  1.1315 -0.0606
  125MOL0     C16753  -0.600   9.449   2.500 -0.0014  0.1175  0.0176
  125MOL0     C16754  -0.732   9.450   2.414 -0.6269 -0.7677 -0.4761
  125MOL0     C16755  -0.842   9.414   2.515 -0.2606 -0.0569  0.7287
  125MOL0     C16756  -0.981   9.435   2.458  0.7376 -0.4209 -0.6308
  125MOL0     N16757  -1.089   9.391   2.557 -0.4823  0.0036  0.2021
  125MOL0     C16758  -1.221   9.417   2.522  0.7128 -0.7598  0.0761
  125MOL0     C16759  -1.295   9.392   2.631 -0.0261 -0.0533  0.7234
  125MOL0     C16760  -1.452   9.419   2.632 -0.7437  0.2705  0.5468
  125MOL0     C16761  -1.519   9.315   2.540  0.4510 -0.0647 -0.1166
  125MOL0     C16762  -1.662   9.331   2.527 -0.0956 -0.0327 -0.0016
  125MOL0     C16763  -1.716   9.242   2.410 -0.0591 -0.3631 -0.3658
  125MOL0     O16764  -1.819   9.317   2.339  1.0602 -0.1450  0.1799
  125MOL0     C16765  -1.901   9.260   2.245 -0.1767 -0.3735 -0.8563
  125MOL0     C16766  -1.871   9.155   2.158  0.5959  0.8086 -0.4459
  125MOL0     C16767  -1.981   9.082   2.109 -1.1033 -0.1875  0.3572
  125MOL0     C16768  -2.116   9.101   2.136 -0.6270 -0.4594  0.2046
  125MOL0     C16769  -2.220   9.015   2.088 -0.2409  0.0161 -0.4836
  125MOL0     O16770  -2.348   9.024   2.152  0.4847  0.1569  0.0338
  125MOL0     C16771  -2.446   8.928   2.126 -0.6262 -0.3196 -0.4988
  125MOL0     C16772  -2.419   8.794   2.071 -0.7024  0.0691 -0.0693
  125MOL0     C16773  -2.520   8.703   2.050  0.2111 -0.7804 -0.3468
  125MOL0     C16774  -2.650   8.740   2.087 -0.4041 -0.2877 -0.0806
  125MOL0     O16775  -2.739   8.639   2.073 -0.3432  0.3122  0.3934
  125MOL0     C16776  -2.885   8.673   2.079 -0.1504  0.0855 -0.2115
  125MOL0     C16777  -2.955   8.569   1.977 -0.0672 -0.2426  0.3465
  125MOL0     C16778  -2.950   8.433   2.028  0.3917 -0.1403 -0.5886
  125MOL0     C16779  -3.045   8.337   1.951  0.5962  0.4998 -0.0197
  125MOL0     C16780  -3.131   8.250   2.048  0.2128  0.2391  0.0586
  125MOL0     C16781  -3.257   8.181   1.966  0.2860  0.5620  0.4848
  125MOL0     C16782  -3.318   8.089   2.067  0.3421  1.1257  0.1378
  125MOL0     C16783  -3.457   8.032   2.031  0.5771  0.5292  0.6746
  125MOL0    Cl16784  -3.534   7.936   2.156 -0.7752  0.2421  0.2088
  125MOL0     C16785  -2.679   8.870   2.123  1.2664  0.0405  0.5268
  125MOL0     C16786  -2.580   8.968   2.132  0.2876  0.0842 -0.0439
  125MOL0     O16787  -2.187   8.945   1.991  1.1839 -0.1248  0.3310
  125MOL0     C16788  -2.138   9.201   2.235  1.0746 -0.6528 -0.2066
  125MOL0     C16789  -2.039   9.284   2.277  0.1820 -0.2352  0.1842
  125MOL0     N16790  -1.208   9.346   2.729 -0.6157  0.2397 -0.1558
  125MOL0     N16791  -1.085   9.359   2.691 -0.1205 -0.2659  1.7279
  125MOL0     C16792  -0.061   9.435   2.857  0.4081  0.6257 -0.1857
  125MOL0     C16793   0.069   9.482   2.879  0.8848 -0.1078  0.5826
  125MOL0     C16794   0.524   9.424   2.962 -0.1507 -0.0844 -0.2557
  125MOL0     C16795   0.555   9.551   2.921 -0.3623  0.8354 -0.1316
  125MOL0     C16796   0.691   9.590   2.900  0.1388 -0.2619 -0.2565
  125MOL0     C16797   0.797   9.507   2.947  0.1257 -0.1070 -0.0632
  125MOL0     O16798   0.925   9.550   2.963  0.4751 -0.4809  0.0235
  125MOL0     C16799   0.946   9.694   2.955 -0.4122 -0.2083 -0.8070
  125MOL0     C16800   1.090   9.726   2.987 -1.2605 -0.0571  0.2275
  125MOL0     C16801   1.136   9.651   3.114 -0.7859 -0.5048 -0.6003
  125MOL0     C16802   1.282   9.621   3.115 -0.5488 -0.3261 -0.0034
  125MOL0     C16803   1.316   9.588   3.256 -0.4412 -1.2985 -0.0306
  125MOL0     C16804   1.341   9.563   3.370  0.5838 -0.2503  0.2777
  125MOL0     C16805   0.759   9.387   3.008  0.0902  0.4233 -0.1935
  125MOL0     C16806   0.630   9.336   3.004  0.7738 -0.3037 -0.0921
  125MOL0     C16807   0.619   9.190   3.027 -0.2184 -1.1053 -0.3273
  125MOL0     H16808   0.227   9.189   2.826  0.3526 -0.2775  0.7463
  125MOL0     H16809   0.008   9.115   2.786 -1.1005  0.0685 -1.3815
  125MOL0     H16810  -0.189   9.124   2.640 -2.5789 -1.0342 -1.5858
  125MOL0     H16811  -0.256   9.067   2.788  1.5362 -0.1145  0.8271
  125MOL0     H16812  -0.460   9.164   2.771 -1.0157  4.0300  0.4237
  125MOL0     H16813  -0.412   9.082   2.614 -1.6042  0.9256 -0.6328
  125MOL0     H16814  -0.357   9.326   2.518  0.6370  3.9471  0.9479
  125MOL0     H16815  -0.406   9.383   2.671  1.6175 -1.0868  0.7419
  125MOL0     H16816  -0.582   9.241   2.476 -3.4405  2.6633 -0.5343
  125MOL0     H16817  -0.623   9.277   2.644  1.6390 -1.2999 -0.8348
  125MOL0     H16818  -0.612   9.508   2.591 -0.1056  0.0384  0.0551
  125MOL0     H16819  -0.520   9.481   2.432  0.0256 -0.0688 -0.0401
  125MOL0     H16820  -0.756   9.552   2.383 -0.7494 -0.7961 -0.4721
  125MOL0     H16821  -0.736   9.392   2.321 -1.6313 -0.4354 -0.6464
  125MOL0     H16822  -0.832   9.473   2.607  0.1421  0.1708  0.5397
  125MOL0     H16823  -0.837   9.310   2.547  2.7245  0.8372  3.7666
  125MOL0     H16824  -0.997   9.541   2.435 -0.6514 -0.2313  0.9511
  125MOL0     H16825  -0.995   9.358   2.382  2.0117 -2.8045  1.3955
  125MOL0     H16826  -1.261   9.455   2.429 -2.5101  2.3431  2.4862
  125MOL0     H16827  -1.486   9.408   2.736  2.8284  1.2753  1.9622
  125MOL0     H16828  -1.474   9.518   2.593  1.1482  0.7737  0.7074
  125MOL0     H16829  -1.476   9.338   2.442  1.1005  3.2374  0.8193
  125MOL0     H16830  -1.486   9.215   2.573  4.1884  0.8075 -0.7031
  125MOL0     H16831  -1.679   9.436   2.501 -1.5489 -0.8946 -3.0008
  125MOL0     H16832  -1.698   9.291   2.623  1.7154 -0.8025  0.4057
  125MOL0     H16833  -1.761   9.155   2.458 -1.2152  0.3847 -0.0601
  125MOL0     H16834  -1.640   9.201   2.344  1.1153 -3.3206  2.5523
  125MOL0     H16835  -1.770   9.123   2.132  0.5339  2.1365 -2.5729
  125MOL0     H16836  -1.955   8.994   2.050 -1.4825  2.3532 -4.0002
  125MOL0     H16837  -2.323   8.758   2.036 -0.3786  1.2722 -0.4865
  125MOL0     H16838  -2.493   8.601   2.024  1.4552 -0.5446 -0.0732
  125MOL0     H16839  -2.911   8.666   2.185  2.0997  3.1894  0.6826
  125MOL0     H16840  -2.900   8.772   2.036  0.1015 -0.0580 -0.6323
  125MOL0     H16841  -3.059   8.601   1.963  0.4886  1.0542 -1.1044
  125MOL0     H16842  -2.909   8.574   1.878 -3.1811  0.5361 -1.1756
  125MOL0     H16843  -2.849   8.392   2.035  0.6174  0.7106  3.0381
  125MOL0     H16844  -2.989   8.446   2.129  0.8610 -2.1980 -0.1044
  125MOL0     H16845  -2.984   8.270   1.890  0.0349  0.8538 -0.9903
  125MOL0     H16846  -3.122   8.391   1.895  0.2274  0.8370  0.7899
  125MOL0     H16847  -3.185   8.311   2.121 -0.9967 -1.9947  1.1465
  125MOL0     H16848  -3.066   8.174   2.091 -2.5889 -1.3861  1.7445
  125MOL0     H16849  -3.321   8.258   1.923  1.1157  1.8420  1.4518
  125MOL0     H16850  -3.234   8.120   1.878 -4.7663  1.5261 -1.8331
  125MOL0     H16851  -3.329   8.144   2.161  0.1232 -2.2208  2.2479
  125MOL0     H16852  -3.254   8.004   2.094  1.4153  1.4066 -1.3541
  125MOL0     H16853  -3.530   8.110   2.006 -1.5540 -1.8054 -0.8933
  125MOL0     H16854  -3.463   7.965   1.945  0.8854 -0.4817  1.4252
  125MOL0     H16855  -2.779   8.903   2.149  0.9504 -0.0344 -0.5570
  125MOL0     H16856  -2.603   9.068   2.167  0.7909  0.5554 -1.0238
  125MOL0     H16857  -2.229   9.228   2.288  1.8414  1.8586 -0.0829
  125MOL0     H16858  -2.062   9.364   2.346  0.9794 -0.3912  0.6433
  125MOL0     H16859  -0.146   9.502   2.872  0.3688  0.3289  0.9826
  125MOL0     H16860   0.083   9.586   2.908  1.0495 -0.2649  1.0687
  125MOL0     H16861   0.467   9.606   2.888 -2.4899  0.0875  3.6241
  125MOL0     H16862   0.705   9.684   2.846  0.3610 -0.1518 -0.0074
  125MOL0     H16863   0.884   9.743   3.030 -0.3492  0.4044 -1.1494
  125MOL0     H16864   0.912   9.732   2.858  1.2201 -0.1487 -1.3975
  125MOL0     H16865   1.105   9.834   2.995  1.3853 -0.3515 -0.0585
  125MOL0     H16866   1.145   9.688   2.900 -3.8569  2.2578 -2.6821
  125MOL0     H16867   1.090   9.555   3.136  2.0558 -1.7655  0.2553
  125MOL0     H16868   1.114   9.722   3.195  2.4213 -0.9746  0.8375
  125MOL0     H16869   1.310   9.534   3.054  1.9965  0.5963 -0.2943
  125MOL0     H16870   1.336   9.709   3.079 -2.3878 -0.3477 -3.2049
  125MOL0     H16871   1.375   9.557   3.472 -0.7791  1.0393  0.8351
  125MOL0     H16872   0.838   9.323   3.044 -0.3525 -0.9005 -1.4730
  125MOL0     H16873   0.560   9.179   3.119 -2.4712  3.5106 -0.9036
  125MOL0     H16874   0.576   9.138   2.941  1.4467  0.0148 -1.9092
  125MOL0     H16875   0.721   9.156   3.046  0.4685  0.9782 -0.0142
  126MOL0     O16876  10.665   3.200   5.795 -0.1707 -0.4993 -0.1654
  126MOL0     C16877  10.631   3.146   5.695 -1.0904  0.2767  1.8821
  126MOL0     O16878  10.702   3.149   5.570  0.6025 -0.3713 -0.8027
  126MOL0     C16879  10.805   3.242   5.566  0.1851  0.1586  0.4310
  126MOL0     C16880  10.770   3.373   5.560  0.0548 -1.1507 -1.0685
  126MOL0     C16881  10.884   3.463   5.562 -0.1903 -0.7056  0.2495
  126MOL0     C16882  11.020   3.414   5.550  0.0602  0.3090  1.0479
  126MOL0     O16883  11.125   3.507   5.548 -0.4889  0.0835 -0.1050
  126MOL0     C16884  11.257   3.487   5.487  0.2719  0.5050  0.1044
  126MOL0     C16885  11.299   3.623   5.420 -0.3486  0.0961  0.0341
  126MOL0     C16886  11.450   3.621   5.395 -0.1824  0.1741 -0.1642
  126MOL0     C16887  11.490   3.758   5.360  0.6115  0.4665 -0.5991
  126MOL0     C16888  11.646   3.746   5.335  0.2586  0.3965 -0.7744
  126MOL0     C16889  11.659   3.703   5.183  0.3988  0.8052  0.6916
  126MOL0     C16890  11.804   3.720   5.135 -1.5632 -0.3439 -0.4690
  126MOL0     C16891  11.862   3.614   5.040 -0.1249  0.0195 -1.2752
  126MOL0     N16892  12.006   3.602   5.033  0.8713  0.1302  0.0749
  126MOL0     C16893  12.082   3.687   4.954  1.2758 -0.1296 -0.3084
  126MOL0     C16894  12.210   3.693   5.003 -0.3635 -0.6204 -0.9211
  126MOL0     C16895  12.323   3.776   4.958  0.4526  0.4968 -0.0263
  126MOL0     C16896  12.351   3.897   5.051  0.2516  0.0973 -0.0619
  126MOL0     C16897  12.236   3.989   5.064 -0.3551  0.2765  0.0586
  126MOL0     C16898  12.165   3.990   5.193  0.1635  0.6544  0.1628
  126MOL0     O16899  12.108   4.123   5.195 -0.4205 -0.2438  0.1794
  126MOL0     C16900  12.035   4.166   5.302 -0.1809 -0.7535 -1.1760
  126MOL0     C16901  11.947   4.268   5.278  0.2503  0.5704 -0.9747
  126MOL0     C16902  11.854   4.301   5.377 -0.2717 -0.4686  0.2861
  126MOL0     C16903  11.875   4.253   5.510  0.2260  0.6434 -0.7184
  126MOL0     C16904  11.797   4.300   5.615  0.7385 -0.5576 -0.2717
  126MOL0     O16905  11.854   4.307   5.746 -0.1621  0.4137 -0.2908
  126MOL0     C16906  11.787   4.346   5.857 -0.1179 -0.2668 -0.1223
  126MOL0     C16907  11.664   4.295   5.901 -0.5550 -0.5417  0.2739
  126MOL0     C16908  11.614   4.318   6.028 -0.9497  0.3114 -0.6019
  126MOL0     C16909  11.684   4.399   6.118  0.2666 -0.9396 -0.5558
  126MOL0     O16910  11.637   4.402   6.252 -0.2716 -0.0139  0.2676
  126MOL0     C16911  11.747   4.402   6.345 -0.3275  0.7306 -0.4166
  126MOL0     C16912  11.697   4.403   6.490  0.0116 -0.1541  0.2266
  126MOL0     C16913  11.806   4.377   6.594  0.4213  0.9587  0.1363
  126MOL0     C16914  11.823   4.226   6.624  0.0091  0.7782  0.0271
  126MOL0     C16915  11.933   4.183   6.724  0.5134  0.5278 -0.0510
  126MOL0     C16916  12.073   4.198   6.666 -1.0129 -0.0944 -0.2150
  126MOL0     C16917  12.179   4.196   6.779 -0.8676  0.2806 -0.0135
  126MOL0     C16918  12.317   4.179   6.707 -0.6295 -0.8233 -0.2965
  126MOL0    Cl16919  12.351   4.334   6.601  0.1385  0.5335 -0.2480
  126MOL0     C16920  11.798   4.464   6.070 -0.1335  0.7678 -0.1861
  126MOL0     C16921  11.849   4.432   5.948  0.6091  0.5601  0.0907
  126MOL0     O16922  11.683   4.336   5.587  0.0451 -0.0755  0.3393
  126MOL0     C16923  11.973   4.154   5.536  0.0694 -0.1569  0.2410
  126MOL0     C16924  12.046   4.108   5.428  1.2282  0.6287  0.4182
  126MOL0     N16925  12.212   3.581   5.088 -0.5117  0.1753 -0.2737
  126MOL0     N16926  12.093   3.538   5.113 -0.1762  0.7765 -0.6462
  126MOL0     C16927  11.042   3.278   5.532  0.8664 -0.3870  0.8752
  126MOL0     C16928  10.935   3.193   5.542 -0.6309 -0.3760  0.0452
  126MOL0     C16929  10.514   3.063   5.699 -0.6841 -0.2124 -0.0992
  126MOL0     C16930  10.416   3.066   5.584  0.1911 -0.1032 -0.9275
  126MOL0     C16931  10.303   2.992   5.589 -1.2045  0.0143 -0.8234
  126MOL0     C16932  10.276   2.915   5.702  1.0757 -0.8807  0.9745
  126MOL0     O16933  10.152   2.856   5.700 -0.6654  0.0855  0.1114
  126MOL0     C16934  10.097   2.805   5.825 -0.8957 -1.1376 -0.3322
  126MOL0     C16935  10.056   2.940   5.909 -0.8320  0.8145  0.1696
  126MOL0     C16936   9.923   2.995   5.854 -0.0507 -0.3494  0.2767
  126MOL0     C16937   9.853   3.086   5.957 -0.3831  0.7254  0.9488
  126MOL0     C16938   9.783   3.021   6.063 -0.3196  0.0669  0.2911
  126MOL0     C16939   9.745   2.953   6.161  0.0477  0.3178 -0.1330
  126MOL0     C16940  10.366   2.916   5.812  0.8283 -0.7502  0.4534
  126MOL0     C16941  10.480   2.991   5.819  0.0359 -0.4678 -0.2821
  126MOL0     C16942  10.543   3.008   5.957 -0.0751  0.0726  0.1429
  126MOL0     H16943  10.668   3.408   5.563  0.5775  0.3754 -0.2635
  126MOL0     H16944  10.867   3.568   5.584  2.1200 -0.3135  0.4393
  126MOL0     H16945  11.325   3.467   5.571 -0.0155  0.0478  0.2321
  126MOL0     H16946  11.252   3.394   5.431 -0.7585  0.1809  0.7160
  126MOL0     H16947  11.276   3.698   5.496 -0.9004  2.9470 -2.7549
  126MOL0     H16948  11.237   3.647   5.333 -3.5060  0.7306  2.2704
  126MOL0     H16949  11.474   3.546   5.320 -1.0294 -2.4883  2.0329
  126MOL0     H16950  11.503   3.588   5.485  0.9320 -0.0200 -0.8809
  126MOL0     H16951  11.436   3.795   5.272  1.0754  1.1241 -0.6184
  126MOL0     H16952  11.465   3.832   5.437 -0.7645  0.0080 -0.5771
  126MOL0     H16953  11.688   3.847   5.346  1.1435  0.0052 -0.4892
  126MOL0     H16954  11.700   3.680   5.403  0.2788  2.0425  0.9079
  126MOL0     H16955  11.619   3.602   5.173 -2.1429  1.7565  0.5318
  126MOL0     H16956  11.613   3.779   5.120  2.4795  0.9814 -0.7382
  126MOL0     H16957  11.864   3.724   5.227  0.2258  0.6433 -1.6071
  126MOL0     H16958  11.797   3.815   5.081 -1.6322  0.1812  0.4516
  126MOL0     H16959  11.844   3.511   5.074 -0.6807  0.4776 -0.1067
  126MOL0     H16960  11.827   3.622   4.937 -2.0704  0.0121 -0.6559
  126MOL0     H16961  12.045   3.766   4.889  0.3599  0.7642  1.2407
  126MOL0     H16962  12.410   3.710   4.955 -0.8293 -1.2420 -2.2513
  126MOL0     H16963  12.304   3.810   4.856 -2.8972 -2.2819 -0.5375
  126MOL0     H16964  12.393   3.861   5.146 -1.7303  0.4113  0.9665
  126MOL0     H16965  12.433   3.950   5.001  0.9924  0.0927  1.1230
  126MOL0     H16966  12.161   3.972   4.986  1.1273  1.5466 -1.7206
  126MOL0     H16967  12.279   4.089   5.053 -0.0325  0.3151  1.4597
  126MOL0     H16968  12.239   3.972   5.272  0.6179  2.0432  0.0954
  126MOL0     H16969  12.088   3.914   5.206  1.9336 -1.0669  1.0452
  126MOL0     H16970  11.944   4.322   5.184 -0.2552 -0.6972 -1.7157
  126MOL0     H16971  11.793   4.390   5.368  2.1775  1.2688 -0.2821
  126MOL0     H16972  11.613   4.222   5.839  1.9144 -2.1941  0.0591
  126MOL0     H16973  11.523   4.262   6.043 -0.2847 -0.8078 -0.6405
  126MOL0     H16974  11.810   4.312   6.340  0.1431  1.0955 -1.2444
  126MOL0     H16975  11.805   4.495   6.339  1.2085  0.3569  4.4131
  126MOL0     H16976  11.660   4.505   6.503  1.5322  0.4854 -0.2508
  126MOL0     H16977  11.611   4.336   6.498 -0.6042  0.6238  0.3076
  126MOL0     H16978  11.900   4.418   6.557  3.2123 -2.2791  2.9768
  126MOL0     H16979  11.776   4.427   6.687 -1.9305 -2.0912  1.1816
  126MOL0     H16980  11.825   4.176   6.527 -2.4737  3.0781 -1.3494
  126MOL0     H16981  11.737   4.188   6.680  0.3547 -0.8303 -0.4967
  126MOL0     H16982  11.919   4.078   6.749 -0.6546  0.3819 -1.2493
  126MOL0     H16983  11.930   4.238   6.818  1.2470 -2.2041  1.6726
  126MOL0     H16984  12.093   4.127   6.585 -0.3042 -1.9296  1.4810
  126MOL0     H16985  12.084   4.300   6.629  0.5379  0.7901  2.4268
  126MOL0     H16986  12.150   4.124   6.856 -1.3071  3.9462  3.5161
  126MOL0     H16987  12.172   4.288   6.837 -1.8899 -1.9537  3.7129
  126MOL0     H16988  12.393   4.161   6.783 -0.9217 -2.6907 -0.4117
  126MOL0     H16989  12.320   4.097   6.635  1.3692 -1.1382  0.0915
  126MOL0     H16990  11.842   4.546   6.127  0.0464 -0.0717  0.8916
  126MOL0     H16991  11.939   4.477   5.908  0.9340 -2.2870 -2.8233
  126MOL0     H16992  11.991   4.122   5.638  1.8933  0.0703  0.0277
  126MOL0     H16993  12.119   4.034   5.460 -1.1597 -1.8456  0.5180
  126MOL0     H16994  11.139   3.237   5.504 -0.3578 -0.4423 -4.4397
  126MOL0     H16995  10.942   3.085   5.537 -0.6933 -0.4254  0.8960
  126MOL0     H16996  10.436   3.120   5.492  2.8987  0.1990 -0.2392
  126MOL0     H16997  10.224   3.005   5.515 -1.2260 -2.1200 -1.2389
  126MOL0     H16998  10.171   2.748   5.880 -1.2068  1.7039  3.3932
  126MOL0     H16999  10.016   2.731   5.816  0.4851 -2.4741 -3.0426
  126MOL0     H17000  10.134   3.016   5.902  0.6221 -0.6595 -0.0818
  126MOL0     H17001  10.044   2.898   6.010 -1.5071 -2.0517 -1.0304
  126MOL0     H17002   9.864   2.903   5.856  2.0145 -1.7779 -0.6921
  126MOL0     H17003   9.932   3.038   5.754 -0.2413  2.8943  1.5514
  126MOL0     H17004   9.931   3.145   6.007  0.2169  0.8310 -0.0999
  126MOL0     H17005   9.787   3.163   5.916 -0.9285  1.5264  3.1679
  126MOL0     H17006   9.705   2.904   6.247  1.3471 -0.8766 -0.1760
  126MOL0     H17007  10.323   2.865   5.898 -1.5522 -0.2527 -0.3643
  126MOL0     H17008  10.504   2.933   6.027  3.3406 -2.2410 -0.1471
  126MOL0     H17009  10.650   2.985   5.948 -0.3577 -1.2816 -0.0978
  126MOL0     H17010  10.530   3.106   6.002  2.7220 -0.6006  2.7186
  127MOL0     O17011   6.062   3.573   1.491 -0.5267  0.0375 -0.1633
  127MOL0     C17012   6.006   3.465   1.468 -0.3879  0.1352  0.2939
  127MOL0     O17013   6.069   3.358   1.403 -0.9013 -0.1917  0.7519
  127MOL0     C17014   6.188   3.397   1.331 -0.0587  0.3108 -1.7440
  127MOL0     C17015   6.168   3.419   1.196  0.2819  0.8025  0.2184
  127MOL0     C17016   6.289   3.445   1.125  0.5333 -0.0162  0.5898
  127MOL0     C17017   6.410   3.456   1.190  0.4989 -0.2164  0.7601
  127MOL0     O17018   6.514   3.487   1.101 -0.3697  0.4486 -0.2361
  127MOL0     C17019   6.651   3.487   1.134  0.3435  0.4360  0.7284
  127MOL0     C17020   6.740   3.516   1.010  0.5689  0.5809 -0.1984
  127MOL0     C17021   6.794   3.660   1.004  0.6394  1.3983 -0.2287
  127MOL0     C17022   6.833   3.704   0.873 -0.5213 -0.0849 -1.1977
  127MOL0     C17023   6.901   3.839   0.861 -0.0274 -0.1580  0.2641
  127MOL0     C17024   6.816   3.957   0.915  0.2132  0.9227  0.2511
  127MOL0     C17025   6.868   4.095   0.863 -0.1859  0.2303 -0.6246
  127MOL0     C17026   6.809   4.214   0.926 -0.4340  0.0446 -0.9628
  127MOL0     N17027   6.662   4.217   0.898 -0.6315  0.2503 -0.4401
  127MOL0     C17028   6.601   4.258   0.783 -0.1317 -0.5564 -0.8125
  127MOL0     C17029   6.470   4.250   0.815  0.0134 -1.0137  1.2822
  127MOL0     C17030   6.372   4.285   0.708 -0.1672 -0.0836  0.0924
  127MOL0     C17031   6.370   4.440   0.691  0.9457  0.0500  0.9033
  127MOL0     C17032   6.482   4.505   0.611 -0.2453  1.5750 -0.0273
  127MOL0     C17033   6.449   4.639   0.559 -1.0021 -0.2939  0.4219
  127MOL0     O17034   6.472   4.726   0.674  0.1999 -0.8557 -0.0543
  127MOL0     C17035   6.456   4.866   0.649 -0.3060  0.2957  0.2009
  127MOL0     C17036   6.478   4.948   0.757 -0.1478  0.4990 -0.9097
  127MOL0     C17037   6.461   5.084   0.750  0.2997  0.6818  0.3663
  127MOL0     C17038   6.424   5.141   0.631  0.3241  0.0091  0.2970
  127MOL0     C17039   6.428   5.288   0.619  0.4919  0.5236  0.6881
  127MOL0     O17040   6.412   5.340   0.493 -0.6673 -0.0221 -0.6357
  127MOL0     C17041   6.415   5.473   0.471 -0.1179  0.6958 -0.9827
  127MOL0     C17042   6.509   5.520   0.388 -0.7807 -0.3025  0.4614
  127MOL0     C17043   6.511   5.653   0.361  0.2819  0.3820 -0.1687
  127MOL0     C17044   6.403   5.740   0.401 -0.1917 -0.1055  0.1314
  127MOL0     O17045   6.409   5.869   0.343 -0.1740 -0.6878  0.3421
  127MOL0     C17046   6.351   5.975   0.428 -0.6014 -0.4548 -0.7648
  127MOL0     C17047   6.405   6.115   0.390 -0.4626 -0.1253  0.5981
  127MOL0     C17048   6.554   6.145   0.397 -0.1255  0.2840 -0.2606
  127MOL0     C17049   6.589   6.260   0.306 -0.5879 -0.3548 -0.4323
  127MOL0     C17050   6.743   6.285   0.309 -0.3936  0.3649 -0.0315
  127MOL0     C17051   6.816   6.334   0.436  0.0622  0.6267 -0.1266
  127MOL0     C17052   6.741   6.444   0.518  0.6947 -0.4672  0.1736
  127MOL0     C17053   6.830   6.501   0.632  0.2205 -0.0039  0.7633
  127MOL0    Cl17054   6.974   6.591   0.565 -0.2123 -0.3509 -0.1811
  127MOL0     C17055   6.303   5.683   0.490  0.0493  0.5659  0.5224
  127MOL0     C17056   6.317   5.549   0.529 -0.4662 -0.6310  0.3189
  127MOL0     O17057   6.458   5.352   0.719 -0.5004  0.3624 -0.0154
  127MOL0     C17058   6.400   5.053   0.521  0.3034 -0.4798  0.3940
  127MOL0     C17059   6.406   4.921   0.534 -0.5721  0.1174  0.1220
  127MOL0     N17060   6.450   4.210   0.940  0.1905 -0.8237  0.2513
  127MOL0     N17061   6.567   4.187   0.993 -0.1569  0.6643 -0.1643
  127MOL0     C17062   6.426   3.438   1.322 -0.3223  0.9854  0.2553
  127MOL0     C17063   6.315   3.395   1.390 -0.1527 -0.0496 -0.1876
  127MOL0     C17064   5.869   3.454   1.513  0.0069 -0.3674 -0.0786
  127MOL0     C17065   5.772   3.402   1.431  0.8134  0.4684 -0.0050
  127MOL0     C17066   5.633   3.384   1.473 -0.4775 -0.2778 -0.0495
  127MOL0     C17067   5.598   3.425   1.605  0.1798 -0.1913  0.2425
  127MOL0     O17068   5.482   3.382   1.665 -0.4678  0.3307  0.5600
  127MOL0     C17069   5.400   3.477   1.735 -0.2173  0.0265 -0.0128
  127MOL0     C17070   5.336   3.585   1.651  0.5033 -0.0486 -0.2753
  127MOL0     C17071   5.223   3.655   1.731  0.6791  0.2107  0.2423
  127MOL0     C17072   5.080   3.594   1.709  0.5603  0.1789 -0.3851
  127MOL0     C17073   4.967   3.663   1.781 -0.0197  0.1894 -0.5709
  127MOL0     C17074   4.883   3.723   1.850  0.0525 -1.0243 -0.5652
  127MOL0     C17075   5.701   3.475   1.694 -0.3715  0.6388  0.0789
  127MOL0     C17076   5.830   3.501   1.649 -0.3517  0.9389 -0.3254
  127MOL0     C17077   5.934   3.533   1.759  0.7725  0.9855 -0.4764
  127MOL0     H17078   6.069   3.409   1.151 -0.0429  0.3852  1.0107
  127MOL0     H17079   6.282   3.462   1.018 -2.3163 -0.1821  0.6563
  127MOL0     H17080   6.681   3.565   1.204  0.1306  1.8309 -0.6861
  127MOL0     H17081   6.673   3.381   1.153 -1.5123 -0.8231 -3.0674
  127MOL0     H17082   6.686   3.486   0.920  1.0685 -1.4953  0.1430
  127MOL0     H17083   6.828   3.452   1.020  1.5308  1.4705 -2.4140
  127MOL0     H17084   6.866   3.684   1.083 -1.3742  0.8225  1.8813
  127MOL0     H17085   6.708   3.719   1.035 -2.0174 -1.4757 -1.6634
  127MOL0     H17086   6.903   3.635   0.825  0.4427 -0.4149  0.5953
  127MOL0     H17087   6.743   3.710   0.811  0.5981  0.1790 -2.8499
  127MOL0     H17088   7.005   3.839   0.897  0.4280 -1.3123 -0.9700
  127MOL0     H17089   6.910   3.843   0.752 -0.5979 -3.0398  0.0400
  127MOL0     H17090   6.713   3.949   0.880  0.0538 -0.2660  0.9435
  127MOL0     H17091   6.823   3.951   1.024  2.0195 -0.4794  0.1133
  127MOL0     H17092   6.849   4.112   0.757  0.2356  0.1081 -0.7192
  127MOL0     H17093   6.975   4.093   0.884  0.2579 -0.5651 -2.7385
  127MOL0     H17094   6.835   4.226   1.031  3.5445  2.2928 -2.0065
  127MOL0     H17095   6.859   4.304   0.889  0.0435  1.8989  3.5363
  127MOL0     H17096   6.648   4.291   0.691 -0.9046  0.5737 -0.8152
  127MOL0     H17097   6.399   4.234   0.615 -1.0241 -1.3046  0.4926
  127MOL0     H17098   6.275   4.254   0.748  0.2262  1.0308  2.0388
  127MOL0     H17099   6.279   4.467   0.635  0.5458  1.4732  2.1946
  127MOL0     H17100   6.350   4.502   0.778  0.7626 -0.6507  1.3642
  127MOL0     H17101   6.511   4.433   0.534  0.7489 -0.2686  1.9560
  127MOL0     H17102   6.576   4.508   0.668 -0.5822  0.5202  0.6163
  127MOL0     H17103   6.342   4.646   0.537 -1.1436 -1.4485  0.7155
  127MOL0     H17104   6.507   4.671   0.471  1.1238  0.5337  2.0318
  127MOL0     H17105   6.492   4.894   0.850 -1.2215 -0.1399 -1.1015
  127MOL0     H17106   6.467   5.145   0.839  0.8886 -0.6109  1.2438
  127MOL0     H17107   6.584   5.459   0.338  0.0972  2.1160 -1.4070
  127MOL0     H17108   6.574   5.690   0.280  0.1519 -1.6877 -1.2871
  127MOL0     H17109   6.241   5.975   0.428 -0.6140 -1.4513  0.0700
  127MOL0     H17110   6.380   5.962   0.533  0.2343 -0.4695 -0.9931
  127MOL0     H17111   6.375   6.131   0.285  3.9926  0.7782 -0.7461
  127MOL0     H17112   6.349   6.187   0.450  1.7051  2.5486 -0.3987
  127MOL0     H17113   6.576   6.176   0.500  4.4733  0.9651 -1.2149
  127MOL0     H17114   6.617   6.060   0.368 -1.3317 -0.0922 -1.9153
  127MOL0     H17115   6.538   6.352   0.338 -1.5134 -1.5611  1.7687
  127MOL0     H17116   6.559   6.247   0.201 -1.3840  3.4289 -0.8115
  127MOL0     H17117   6.759   6.365   0.235  0.5227 -0.9143 -1.2716
  127MOL0     H17118   6.789   6.190   0.279 -0.6572  0.1169  0.3491
  127MOL0     H17119   6.849   6.252   0.501 -1.7347  0.1150  0.1827
  127MOL0     H17120   6.903   6.381   0.390  0.3448 -1.2197 -1.5708
  127MOL0     H17121   6.650   6.401   0.561  1.1475  1.2911  3.1972
  127MOL0     H17122   6.714   6.526   0.451  3.1790 -1.2826 -1.9932
  127MOL0     H17123   6.772   6.565   0.700  2.3390  2.3585  0.4762
  127MOL0     H17124   6.857   6.407   0.681 -0.8463 -0.6195  0.2057
  127MOL0     H17125   6.212   5.729   0.529 -1.2941 -0.4503 -1.2564
  127MOL0     H17126   6.235   5.518   0.592 -1.3430  1.0673  0.0633
  127MOL0     H17127   6.361   5.102   0.432 -0.4469 -0.9678  0.4527
  127MOL0     H17128   6.379   4.858   0.449 -4.0147 -0.5465  1.5232
  127MOL0     H17129   6.525   3.452   1.362  0.0454  2.9313 -1.1778
  127MOL0     H17130   6.313   3.368   1.495  0.6443 -2.7233 -0.7805
  127MOL0     H17131   5.807   3.369   1.334  0.6010 -0.7569  0.3188
  127MOL0     H17132   5.567   3.339   1.400  1.3736 -3.3532  0.0148
  127MOL0     H17133   5.458   3.532   1.810 -1.4510  3.7609 -1.6034
  127MOL0     H17134   5.331   3.415   1.793 -0.3049  0.1699  0.0356
  127MOL0     H17135   5.287   3.536   1.567 -1.4952 -2.9636  2.3652
  127MOL0     H17136   5.411   3.656   1.615  3.1099 -1.2487  2.3549
  127MOL0     H17137   5.210   3.758   1.696 -0.7978  0.3337  1.0702
  127MOL0     H17138   5.258   3.656   1.835 -2.0915 -1.1670  1.2985
  127MOL0     H17139   5.055   3.598   1.602  1.6313 -1.7508 -0.7480
  127MOL0     H17140   5.089   3.491   1.744 -0.1480 -0.1109 -1.0129
  127MOL0     H17141   4.808   3.781   1.899  3.7490  0.8988  3.4283
  127MOL0     H17142   5.682   3.475   1.801  0.7767 -0.7083  0.3064
  127MOL0     H17143   5.898   3.533   1.862  0.9679 -0.3063 -0.3945
  127MOL0     H17144   5.999   3.445   1.754  0.8379  0.8956  1.4640
  127MOL0     H17145   5.991   3.626   1.744 -0.2528  2.3600  3.1199
  128MOL0     O17146  11.400  10.651   5.797 -0.2969  0.8280  0.6952
  128MOL0     C17147  11.386  10.680   5.914  0.0511  0.1509 -0.4370
  128MOL0     O17148  11.495  10.715   5.994  0.2419 -0.6193  0.0295
  128MOL0     C17149  11.620  10.683   5.947  0.3022 -0.1135  0.0161
  128MOL0     C17150  11.646  10.551   5.918  0.2326 -0.3171  0.0018
  128MOL0     C17151  11.780  10.524   5.866  0.1614  0.0359  0.3169
  128MOL0     C17152  11.867  10.636   5.830 -0.0177 -0.4829 -0.2205
  128MOL0     O17153  11.984  10.624   5.763 -0.0481 -0.7789  0.5455
  128MOL0     C17154  12.031  10.708   5.663 -0.2116  0.3328  0.9817
  128MOL0     C17155  12.115  10.615   5.572 -1.2751 -0.1007  0.4165
  128MOL0     C17156  12.202  10.696   5.479  0.1053 -0.6704  0.5807
  128MOL0     C17157  12.296  10.616   5.401  0.3573 -0.3851  0.1005
  128MOL0     C17158  12.422  10.688   5.336 -1.0470 -0.7753  0.2626
  128MOL0     C17159  12.390  10.782   5.217 -0.0483 -0.0654 -0.7846
  128MOL0     C17160  12.425  10.924   5.257 -0.4698  0.0639 -0.1400
  128MOL0     C17161  12.423  11.032   5.155  0.1873  0.7767  0.7795
  128MOL0     N17162  12.288  11.032   5.091  0.1943 -0.2265 -0.2457
  128MOL0     C17163  12.168  11.088   5.140 -0.4308  0.8313 -0.5729
  128MOL0     C17164  12.080  11.083   5.041  0.3451 -0.1314 -0.2829
  128MOL0     C17165  11.944  11.140   5.060 -0.1240  0.3182  0.5626
  128MOL0     C17166  11.886  11.114   5.196  0.3940 -0.1773  0.7249
  128MOL0     C17167  11.738  11.172   5.192  0.1618 -0.1435  0.2037
  128MOL0     C17168  11.631  11.064   5.183  0.3904  0.6075  1.6609
  128MOL0     O17169  11.646  11.015   5.051 -0.7975  0.3887 -0.0769
  128MOL0     C17170  11.536  10.935   5.004 -0.0295 -0.0895 -1.5755
  128MOL0     C17171  11.443  10.878   5.091 -0.7409  0.8975  0.2466
  128MOL0     C17172  11.326  10.812   5.035 -0.4464 -0.1054 -0.1406
  128MOL0     C17173  11.308  10.796   4.888  0.2270  0.5575 -0.2928
  128MOL0     C17174  11.194  10.706   4.832 -0.1910 -0.3870  0.7055
  128MOL0     O17175  11.169  10.710   4.697  0.3432  0.5540 -0.5997
  128MOL0     C17176  11.046  10.663   4.661  0.2669 -0.4367  0.3592
  128MOL0     C17177  10.966  10.755   4.593  0.3054  0.1181  0.2360
  128MOL0     C17178  10.850  10.709   4.527 -0.0429 -0.3906 -0.4016
  128MOL0     C17179  10.793  10.580   4.555 -0.9827 -0.1586  0.2675
  128MOL0     O17180  10.669  10.543   4.516 -0.0139  0.0774  0.2266
  128MOL0     C17181  10.577  10.629   4.574 -1.0128  0.4028 -0.3206
  128MOL0     C17182  10.445  10.610   4.510  0.7460 -0.5686 -0.1628
  128MOL0     C17183  10.449  10.647   4.359  0.9335 -0.1865  0.4837
  128MOL0     C17184  10.312  10.687   4.282  0.5477 -1.0500 -1.0885
  128MOL0     C17185  10.209  10.774   4.355  0.1406 -0.0268  0.4210
  128MOL0     C17186  10.264  10.905   4.411 -0.5225  0.1446 -0.0173
  128MOL0     C17187  10.166  10.984   4.497  0.3039 -0.2085  0.3694
  128MOL0     C17188  10.118  10.921   4.631  0.5437  0.4027 -0.0100
  128MOL0    Cl17189  10.245  10.941   4.762  0.0189 -0.2930 -0.0773
  128MOL0     C17190  10.876  10.496   4.633  0.3513 -0.1146 -0.7501
  128MOL0     C17191  11.001  10.533   4.681  0.5685  0.4753  0.0642
  128MOL0     O17192  11.133  10.638   4.909 -0.1739  1.0005 -0.3208
  128MOL0     C17193  11.396  10.862   4.804 -0.4399 -0.2032  0.3095
  128MOL0     C17194  11.514  10.931   4.862  0.4655  0.1703  0.3694
  128MOL0     N17195  12.136  11.016   4.929 -0.0755  0.0435  0.2546
  128MOL0     N17196  12.262  10.984   4.961 -0.0785  0.2773  0.1347
  128MOL0     C17197  11.829  10.770   5.859 -0.8301  0.3241  0.2415
  128MOL0     C17198  11.704  10.787   5.922  0.2923 -0.9322  0.2346
  128MOL0     C17199  11.255  10.688   5.987 -0.0586 -0.0224  0.9114
  128MOL0     C17200  11.246  10.654   6.128  0.6448  0.6498 -0.1046
  128MOL0     C17201  11.121  10.651   6.195 -1.0005  0.0542  0.9137
  128MOL0     C17202  11.006  10.661   6.126  0.0883 -0.2635  0.0285
  128MOL0     O17203  10.900  10.645   6.200 -0.0198  0.0574  0.4847
  128MOL0     C17204  10.774  10.663   6.139  0.8717  0.0092 -0.3455
  128MOL0     C17205  10.734  10.815   6.178  0.4280  0.1300  0.8772
  128MOL0     C17206  10.704  10.852   6.321  0.6795  0.6115 -0.4591
  128MOL0     C17207  10.595  10.765   6.380 -0.4172 -0.2069 -0.0646
  128MOL0     C17208  10.471  10.747   6.308 -0.1456  0.8297 -0.2061
  128MOL0     C17209  10.356  10.723   6.269 -0.5224  0.4456  1.1046
  128MOL0     C17210  11.016  10.701   5.988  0.9256 -0.3539 -0.1565
  128MOL0     C17211  11.135  10.709   5.918  0.0280  0.3087  0.2041
  128MOL0     C17212  11.129  10.761   5.774 -0.6194  0.7868 -0.4120
  128MOL0     H17213  11.575  10.470   5.932 -1.0516  1.0630  2.1040
  128MOL0     H17214  11.809  10.425   5.832 -1.0861 -1.0857  2.3145
  128MOL0     H17215  11.948  10.737   5.597 -0.1784 -1.0861  0.2783
  128MOL0     H17216  12.090  10.792   5.700 -0.0826 -0.3688  2.4058
  128MOL0     H17217  12.055  10.546   5.511  0.3843 -0.0210 -1.4022
  128MOL0     H17218  12.183  10.561   5.639  0.0369 -2.0319 -2.2614
  128MOL0     H17219  12.258  10.770   5.538  0.4171  0.0131 -0.5465
  128MOL0     H17220  12.136  10.747   5.409  1.9508 -0.3646 -1.0277
  128MOL0     H17221  12.336  10.539   5.468 -3.6234 -2.7492  0.0957
  128MOL0     H17222  12.250  10.559   5.320  1.9088 -0.7349 -0.5524
  128MOL0     H17223  12.487  10.727   5.415 -0.6247  0.1926 -0.5435
  128MOL0     H17224  12.482  10.609   5.288  1.6822  0.0913  2.0553
  128MOL0     H17225  12.438  10.738   5.130 -1.7651 -1.3553 -1.1449
  128MOL0     H17226  12.282  10.776   5.197 -0.4913  0.2903  1.2897
  128MOL0     H17227  12.527  10.920   5.296 -0.0143 -1.7372 -1.3597
  128MOL0     H17228  12.356  10.944   5.339 -1.0727  0.6049 -0.7669
  128MOL0     H17229  12.442  11.130   5.200 -1.2413  1.9744 -1.0438
  128MOL0     H17230  12.498  11.006   5.080  2.1932 -0.4045  3.0625
  128MOL0     H17231  12.155  11.135   5.237 -0.5495  1.5904 -0.9435
  128MOL0     H17232  11.953  11.246   5.035 -1.7873  0.2418 -0.4740
  128MOL0     H17233  11.877  11.097   4.985  1.1149 -0.8606  0.0794
  128MOL0     H17234  11.899  11.010   5.227 -0.1087 -0.0007  1.5700
  128MOL0     H17235  11.924  11.168   5.283 -1.1301  1.9384  0.1379
  128MOL0     H17236  11.726  11.261   5.130  3.2688  1.7361  2.0535
  128MOL0     H17237  11.710  11.194   5.296  0.4278 -0.8888  0.4431
  128MOL0     H17238  11.530  11.103   5.199  0.0410 -0.2405  1.5708
  128MOL0     H17239  11.647  10.979   5.250 -1.8660 -0.3338  1.1174
  128MOL0     H17240  11.463  10.881   5.197  3.7759  0.7641 -0.4070
  128MOL0     H17241  11.249  10.772   5.100  1.0019 -3.5692 -0.3290
  128MOL0     H17242  10.990  10.860   4.578 -2.5280  1.2278  2.5359
  128MOL0     H17243  10.793  10.778   4.465  0.3920  3.0963  2.7702
  128MOL0     H17244  10.572  10.602   4.680 -0.5511 -2.5792 -0.9837
  128MOL0     H17245  10.603  10.735   4.568 -4.1784  1.3516  0.6969
  128MOL0     H17246  10.421  10.504   4.525 -1.3624 -0.5704 -2.7782
  128MOL0     H17247  10.366  10.663   4.563 -0.2881  0.3826 -2.5040
  128MOL0     H17248  10.500  10.743   4.350 -0.9992  0.8961  0.4807
  128MOL0     H17249  10.491  10.559   4.310  0.4568 -2.4559  3.7944
  128MOL0     H17250  10.257  10.600   4.245 -1.9157  0.0512 -0.2262
  128MOL0     H17251  10.334  10.737   4.187  1.1953  4.0338  1.3706
  128MOL0     H17252  10.171  10.719   4.442 -0.1582 -1.6409 -0.6736
  128MOL0     H17253  10.131  10.807   4.285  3.4643  3.9531 -1.8851
  128MOL0     H17254  10.362  10.897   4.460  0.5081  0.8875 -1.8499
  128MOL0     H17255  10.301  10.965   4.327 -2.7856  3.0332  0.8742
  128MOL0     H17256  10.075  10.997   4.438 -1.5516 -1.8451  2.6635
  128MOL0     H17257  10.210  11.084   4.506  2.7805 -1.2277  0.5678
  128MOL0     H17258  10.023  10.972   4.647 -1.2893 -1.7531 -3.0027
  128MOL0     H17259  10.095  10.816   4.612 -0.1774 -0.0935  3.0966
  128MOL0     H17260  10.839  10.394   4.646 -1.9882  0.7923  0.2733
  128MOL0     H17261  11.054  10.460   4.741 -0.7614  0.5602  1.3957
  128MOL0     H17262  11.388  10.863   4.696  0.0177 -1.9258  0.2428
  128MOL0     H17263  11.576  10.979   4.787 -0.2992  4.3413  2.1125
  128MOL0     H17264  11.888  10.857   5.835 -0.3829 -0.0488 -0.0342
  128MOL0     H17265  11.681  10.892   5.937 -0.0920 -0.6920 -1.7914
  128MOL0     H17266  11.333  10.627   6.188 -0.7752 -0.3299  1.6129
  128MOL0     H17267  11.112  10.621   6.299 -0.2682 -2.2993  0.3778
  128MOL0     H17268  10.699  10.589   6.166 -1.3816  2.0990 -0.5151
  128MOL0     H17269  10.783  10.670   6.030  0.9236  1.6846 -0.2675
  128MOL0     H17270  10.654  10.842   6.109  2.0609  0.6976 -0.9049
  128MOL0     H17271  10.814  10.876   6.135 -0.4264 -0.4019 -1.6404
  128MOL0     H17272  10.680  10.958   6.335 -2.1908 -0.0460  0.2072
  128MOL0     H17273  10.797  10.834   6.374  0.4938 -2.1742 -0.9443
  128MOL0     H17274  10.635  10.664   6.391 -0.0776  0.0769  1.5198
  128MOL0     H17275  10.583  10.805   6.481  2.1236  3.3848 -0.9580
  128MOL0     H17276  10.260  10.705   6.225 -0.1610  2.2830 -0.5863
  128MOL0     H17277  10.929  10.744   5.939  3.4207  3.2358 -1.8624
  128MOL0     H17278  11.144  10.676   5.707 -0.6429  1.8994 -1.8648
  128MOL0     H17279  11.028  10.802   5.762 -1.9281 -1.8294  0.6923
  128MOL0     H17280  11.201  10.841   5.756  0.4583 -0.2063 -0.6376
  129MOL0     O17281   5.100   7.785   8.757  0.3949  0.0217  1.3294
  129MOL0     C17282   5.026   7.694   8.709 -0.4969 -0.7549  0.3677
  129MOL0     O17283   5.046   7.560   8.725 -0.2021 -0.3638 -0.6129
  129MOL0     C17284   5.162   7.512   8.791  0.4612  0.2386 -0.3171
  129MOL0     C17285   5.165   7.528   8.934 -0.0661 -0.4581  0.1987
  129MOL0     C17286   5.269   7.484   9.009  0.4576  0.0577 -1.2887
  129MOL0     C17287   5.376   7.409   8.961  0.3641  0.2733  0.6565
  129MOL0     O17288   5.473   7.360   9.039 -0.5335  0.0656 -0.1456
  129MOL0     C17289   5.496   7.388   9.181  0.8506  0.8231  0.9384
  129MOL0     C17290   5.648   7.418   9.215  0.9624  1.1946 -0.3875
  129MOL0     C17291   5.729   7.305   9.146  0.1634 -0.3128 -0.1942
  129MOL0     C17292   5.881   7.303   9.175 -0.8283 -0.1488 -0.4577
  129MOL0     C17293   5.918   7.271   9.317  0.3565  0.7843 -0.1929
  129MOL0     C17294   6.065   7.241   9.327 -0.4226  0.6600  0.6515
  129MOL0     C17295   6.150   7.365   9.306 -0.5634 -0.8952  0.5410
  129MOL0     C17296   6.292   7.362   9.345  0.5863 -0.6551 -0.4226
  129MOL0     N17297   6.369   7.468   9.277 -0.2116  0.1448  0.1020
  129MOL0     C17298   6.346   7.525   9.160 -0.1647 -0.0654  0.4814
  129MOL0     C17299   6.410   7.646   9.153 -0.4300  0.0204  0.4231
  129MOL0     C17300   6.419   7.745   9.042  0.4923 -0.1981  0.2023
  129MOL0     C17301   6.545   7.724   8.970  0.2373 -0.2296 -0.0778
  129MOL0     C17302   6.589   7.851   8.903 -0.0799  0.4224  0.8842
  129MOL0     C17303   6.708   7.809   8.823  0.2559 -0.4180 -0.4528
  129MOL0     O17304   6.764   7.936   8.772  0.2588 -0.0253  0.1355
  129MOL0     C17305   6.846   8.007   8.862  0.3048  0.4000  0.7557
  129MOL0     C17306   6.896   8.128   8.816 -0.2710 -0.0846  0.8891
  129MOL0     C17307   6.988   8.204   8.885 -0.5693 -0.4472 -0.5675
  129MOL0     C17308   7.036   8.163   9.014 -0.6031 -0.5269  0.1424
  129MOL0     C17309   7.132   8.249   9.092  0.9368 -0.4581  0.8274
  129MOL0     O17310   7.207   8.337   9.012 -0.4684 -0.3983  0.1032
  129MOL0     C17311   7.281   8.428   9.080  0.2245  0.9498 -0.3646
  129MOL0     C17312   7.249   8.561   9.062 -0.7253 -0.4956  0.4571
  129MOL0     C17313   7.323   8.663   9.131 -0.5180 -0.7256 -0.3444
  129MOL0     C17314   7.425   8.641   9.216 -0.8403  1.1660 -0.4699
  129MOL0     O17315   7.479   8.750   9.280  0.4143 -0.8422 -0.3180
  129MOL0     C17316   7.476   8.742   9.427 -0.2627 -0.1035 -0.4059
  129MOL0     C17317   7.578   8.844   9.485  1.4234  0.2870 -0.1368
  129MOL0     C17318   7.586   8.855   9.635  0.1262  0.4730  1.0328
  129MOL0     C17319   7.614   8.731   9.715 -0.1326  0.4199 -0.4048
  129MOL0     C17320   7.753   8.674   9.684 -0.9964 -0.2010  0.3492
  129MOL0     C17321   7.801   8.585   9.794  0.2550  0.4368 -0.6971
  129MOL0     C17322   7.949   8.547   9.776 -0.6776 -0.0238 -0.0748
  129MOL0     C17323   7.990   8.424   9.850 -0.3646 -0.6084 -0.2124
  129MOL0    Cl17324   7.945   8.457  10.026 -0.3630  0.4401  0.1032
  129MOL0     C17325   7.456   8.508   9.240 -0.0688  0.3818  0.8334
  129MOL0     C17326   7.385   8.404   9.173 -0.1215  0.6937  0.5449
  129MOL0     O17327   7.134   8.247   9.221 -0.7135 -0.3153  0.1971
  129MOL0     C17328   6.980   8.046   9.072  0.0634 -0.0384  0.3904
  129MOL0     C17329   6.891   7.965   8.998 -0.1917 -0.0907  0.5156
  129MOL0     N17330   6.486   7.662   9.273  0.5267  0.4512  0.4365
  129MOL0     N17331   6.452   7.557   9.351  0.1792  0.0705 -0.1032
  129MOL0     C17332   5.382   7.403   8.817  0.6608  0.1089 -0.8782
  129MOL0     C17333   5.268   7.443   8.740  1.4721 -0.0999  0.2217
  129MOL0     C17334   4.914   7.728   8.620 -0.2428  0.1124  1.1366
  129MOL0     C17335   4.918   7.677   8.492 -0.3066  1.3086  0.9042
  129MOL0     C17336   4.823   7.712   8.399 -0.4727  0.3556 -0.3799
  129MOL0     C17337   4.712   7.794   8.438  0.0093 -1.0286 -0.3196
  129MOL0     O17338   4.612   7.821   8.353 -0.8213 -0.3835  1.0887
  129MOL0     C17339   4.484   7.763   8.375  0.0214  0.7691  0.1772
  129MOL0     C17340   4.480   7.632   8.463 -0.1899  0.1645  0.7098
  129MOL0     C17341   4.330   7.596   8.493  0.2844  0.3213  0.4574
  129MOL0     C17342   4.311   7.463   8.558  0.6568  0.5943  0.5607
  129MOL0     C17343   4.373   7.347   8.479  0.0989 -0.6604 -0.7571
  129MOL0     C17344   4.439   7.276   8.402  0.9183 -0.3447 -0.3425
  129MOL0     C17345   4.720   7.854   8.563  0.0682  0.5978  0.5435
  129MOL0     C17346   4.818   7.825   8.655  1.4262  0.4292  0.8680
  129MOL0     C17347   4.798   7.887   8.797  0.2843 -0.0445  0.3324
  129MOL0     H17348   5.091   7.582   8.992  0.5138 -0.9591  1.4447
  129MOL0     H17349   5.263   7.501   9.116  1.6804  0.5860 -1.2921
  129MOL0     H17350   5.437   7.469   9.226 -1.0175 -1.5274  2.9952
  129MOL0     H17351   5.472   7.297   9.236 -0.3382  1.0995  0.9049
  129MOL0     H17352   5.663   7.420   9.323 -0.9539  2.9681 -0.0950
  129MOL0     H17353   5.668   7.515   9.169  1.6177  0.1933 -2.3329
  129MOL0     H17354   5.731   7.327   9.039  0.1053  2.4559  0.2982
  129MOL0     H17355   5.691   7.203   9.158 -0.6305  0.0090  0.0857
  129MOL0     H17356   5.922   7.224   9.112  1.0150 -0.9903  1.6460
  129MOL0     H17357   5.930   7.394   9.137  0.1892 -1.0190 -1.2796
  129MOL0     H17358   5.886   7.357   9.376 -3.8719  0.0202 -1.0972
  129MOL0     H17359   5.860   7.182   9.342 -0.2688  1.5833  1.3471
  129MOL0     H17360   6.081   7.205   9.429  1.0982  1.6234  0.7883
  129MOL0     H17361   6.085   7.161   9.255 -0.8036  0.1301  1.1285
  129MOL0     H17362   6.101   7.445   9.361 -2.0361 -0.6956 -1.0000
  129MOL0     H17363   6.149   7.385   9.199  1.3887 -1.6478  0.3413
  129MOL0     H17364   6.293   7.372   9.454 -2.6248  0.6135 -0.4275
  129MOL0     H17365   6.342   7.265   9.330  2.0661 -0.1188  0.7197
  129MOL0     H17366   6.287   7.498   9.072 -0.1008 -1.9318  0.9927
  129MOL0     H17367   6.325   7.732   8.987 -1.0480 -0.2328  2.6754
  129MOL0     H17368   6.424   7.845   9.085 -0.2746 -2.0608  5.2898
  129MOL0     H17369   6.623   7.685   9.037  0.3903 -0.5458 -0.4385
  129MOL0     H17370   6.513   7.646   8.901  1.1126  0.1185 -0.8975
  129MOL0     H17371   6.622   7.929   8.973 -0.1078 -0.0543  1.4417
  129MOL0     H17372   6.516   7.884   8.829  3.6714  2.3454 -2.2657
  129MOL0     H17373   6.674   7.742   8.743  1.1893 -1.6747  0.1788
  129MOL0     H17374   6.784   7.752   8.877 -2.0937 -3.6931 -0.2590
  129MOL0     H17375   6.864   8.166   8.719 -1.3350 -0.6461  1.0062
  129MOL0     H17376   7.010   8.304   8.850 -2.2863  0.2877  0.2964
  129MOL0     H17377   7.176   8.591   8.987  1.1802 -0.2545 -1.3720
  129MOL0     H17378   7.302   8.765   9.100  0.4188 -0.4159 -0.0197
  129MOL0     H17379   7.371   8.760   9.454  0.4379  1.9475  1.2258
  129MOL0     H17380   7.507   8.642   9.457 -0.2254  0.3497  1.2047
  129MOL0     H17381   7.675   8.818   9.440  0.8962 -1.6483 -0.2293
  129MOL0     H17382   7.540   8.942   9.456 -1.7109 -0.5538  0.7439
  129MOL0     H17383   7.663   8.929   9.655  1.8493 -1.3975  1.6778
  129MOL0     H17384   7.487   8.887   9.668 -0.5747 -0.6466  0.1133
  129MOL0     H17385   7.542   8.650   9.698  0.6943  0.0236 -2.2874
  129MOL0     H17386   7.600   8.758   9.820 -0.9120  0.0554 -0.4060
  129MOL0     H17387   7.829   8.753   9.679  0.4887 -1.6109 -3.8467
  129MOL0     H17388   7.754   8.622   9.588  2.6169 -0.3852  0.3471
  129MOL0     H17389   7.797   8.643   9.887  0.3131  0.9173 -0.9932
  129MOL0     H17390   7.745   8.490   9.798 -0.1419  0.5639 -2.4182
  129MOL0     H17391   8.006   8.635   9.808  0.4808 -0.8442  0.1633
  129MOL0     H17392   7.972   8.526   9.671  0.8250 -0.8275  0.3912
  129MOL0     H17393   7.937   8.340   9.802 -3.3992  0.4767  1.0061
  129MOL0     H17394   8.096   8.399   9.840  0.1519  0.6005  1.8145
  129MOL0     H17395   7.522   8.477   9.320  1.3532  1.1699  0.0036
  129MOL0     H17396   7.410   8.302   9.200  0.1364  0.2792 -1.1125
  129MOL0     H17397   7.001   8.011   9.173 -0.1786 -2.4485 -0.3414
  129MOL0     H17398   6.859   7.875   9.048 -1.1606 -1.8187 -2.8666
  129MOL0     H17399   5.465   7.344   8.782 -1.7279 -4.8729  0.8788
  129MOL0     H17400   5.269   7.423   8.634  0.7012  1.0111 -0.0207
  129MOL0     H17401   4.990   7.603   8.458 -1.5719  0.8391 -0.9022
  129MOL0     H17402   4.839   7.677   8.297 -0.2966  2.2397 -1.0420
  129MOL0     H17403   4.458   7.736   8.272 -0.6549  0.6164  0.3783
  129MOL0     H17404   4.411   7.842   8.395 -1.3524  0.1681 -2.1352
  129MOL0     H17405   4.529   7.637   8.561 -0.6737  1.0972  0.9099
  129MOL0     H17406   4.526   7.548   8.410  0.3073  0.2350  1.0199
  129MOL0     H17407   4.264   7.612   8.407 -0.0025 -1.2806  0.3485
  129MOL0     H17408   4.291   7.670   8.565 -0.8372 -0.8141  1.0501
  129MOL0     H17409   4.365   7.478   8.652  0.5607  2.7041  0.3186
  129MOL0     H17410   4.208   7.438   8.586 -0.0290  1.7064 -0.8996
  129MOL0     H17411   4.499   7.216   8.336 -2.5448 -3.3973 -1.0277
  129MOL0     H17412   4.652   7.935   8.585 -0.4135  0.7359 -1.3300
  129MOL0     H17413   4.849   7.983   8.798  1.2844 -0.5108 -1.4265
  129MOL0     H17414   4.692   7.905   8.815  0.1940 -0.5965  0.3839
  129MOL0     H17415   4.836   7.811   8.866 -1.5969 -1.3261  0.0260
  130MOL0     O17416   5.707   9.865   9.270  0.7362 -0.5251  0.1800
  130MOL0     C17417   5.679   9.746   9.281  0.1834 -0.0800  0.2385
  130MOL0     O17418   5.763   9.653   9.327  0.5839 -0.1083  0.8762
  130MOL0     C17419   5.864   9.696   9.410 -0.6365  0.1000  1.3721
  130MOL0     C17420   5.997   9.658   9.384  0.3206 -0.2076 -0.4781
  130MOL0     C17421   6.103   9.716   9.450 -0.5356 -0.3370 -0.1813
  130MOL0     C17422   6.086   9.800   9.561 -0.9591  0.3984 -0.3545
  130MOL0     O17423   6.190   9.862   9.630 -0.3672 -0.0069  0.0130
  130MOL0     C17424   6.251   9.981   9.571 -1.1307 -1.1015  0.7607
  130MOL0     C17425   6.395   9.999   9.627  0.0699 -0.3360  0.0413
  130MOL0     C17426   6.504   9.914   9.562 -0.0904  0.2459  0.5444
  130MOL0     C17427   6.644   9.944   9.618 -1.2452  0.0121  0.2351
  130MOL0     C17428   6.761   9.866   9.553 -0.6549  0.3789 -0.2395
  130MOL0     C17429   6.759   9.893   9.406 -1.2285  1.2192  0.6337
  130MOL0     C17430   6.894   9.849   9.328  0.8021  0.8312 -1.3212
  130MOL0     C17431   7.010   9.922   9.398  0.0901 -0.2032 -0.1171
  130MOL0     N17432   6.995  10.064   9.412 -0.5141 -0.0959 -0.0987
  130MOL0     C17433   7.072  10.132   9.507 -0.2229 -0.9408 -0.0132
  130MOL0     C17434   7.047  10.266   9.479  0.1684  0.6435 -0.9908
  130MOL0     C17435   7.100  10.394   9.548  0.3700  0.2711 -0.3456
  130MOL0     C17436   7.004  10.438   9.660  0.5019  0.2807 -0.2821
  130MOL0     C17437   7.008  10.339   9.786 -0.9604  0.2447 -0.4813
  130MOL0     C17438   6.973  10.409   9.923  0.3098  1.0871  0.4617
  130MOL0     O17439   7.059  10.516   9.956 -0.4690  0.3723  0.0322
  130MOL0     C17440   7.026  10.583  10.081 -0.2468  0.8800  0.3126
  130MOL0     C17441   7.116  10.665  10.139 -0.4988 -0.2034  0.0247
  130MOL0     C17442   7.083  10.740  10.256 -0.4814 -0.6916 -0.2089
  130MOL0     C17443   6.959  10.729  10.318  0.5629  0.0835 -0.9187
  130MOL0     C17444   6.921  10.806  10.444 -0.6928 -0.5553 -0.3302
  130MOL0     O17445   7.008  10.896  10.501  0.7087 -0.2289  0.0471
  130MOL0     C17446   6.982  10.956  10.623  0.4144  0.3632  0.9173
  130MOL0     C17447   7.014  11.093  10.626 -0.2717  0.6921  0.3275
  130MOL0     C17448   7.007  11.159  10.746 -0.4084 -0.5184  0.1504
  130MOL0     C17449   6.969  11.102  10.875 -0.2927 -0.9442 -0.6473
  130MOL0     O17450   6.956  11.155  10.997  0.0454 -0.3296  0.1928
  130MOL0     C17451   7.027  11.277  11.035  0.4496  1.0887 -0.5470
  130MOL0     C17452   6.965  11.346  11.155 -0.2758 -0.7821  0.6385
  130MOL0     C17453   7.056  11.399  11.266  0.1366 -0.5644 -0.1355
  130MOL0     C17454   7.181  11.482  11.216  0.0017  0.2611 -0.3639
  130MOL0     C17455   7.320  11.405  11.242  0.4390 -1.1737  0.0178
  130MOL0     C17456   7.346  11.402  11.395  0.3869 -0.4108 -0.4197
  130MOL0     C17457   7.489  11.336  11.426 -0.0752 -1.5360 -0.1821
  130MOL0     C17458   7.474  11.181  11.416 -0.5023  0.2309  0.2304
  130MOL0    Cl17459   7.626  11.111  11.469  0.0904 -0.0719 -0.2482
  130MOL0     C17460   6.949  10.961  10.867  1.0654 -0.1554  0.3049
  130MOL0     C17461   6.947  10.891  10.746  0.3117  0.1807  0.1113
  130MOL0     O17462   6.812  10.787  10.496 -0.4320  0.6832 -0.4985
  130MOL0     C17463   6.863  10.650  10.254  0.3952  0.9849  0.2035
  130MOL0     C17464   6.894  10.577  10.135 -0.0492  0.0568 -0.6118
  130MOL0     N17465   6.968  10.267   9.359 -0.3379  0.4654  0.3915
  130MOL0     N17466   6.942  10.148   9.326 -0.6319 -0.2932  0.0614
  130MOL0     C17467   5.954   9.821   9.606  0.4252 -0.3854  0.7605
  130MOL0     C17468   5.842   9.782   9.526  0.2902  0.8393  0.3079
  130MOL0     C17469   5.549   9.703   9.231 -0.1612 -0.3603 -0.6118
  130MOL0     C17470   5.540   9.582   9.159 -0.3366  0.3759 -0.6578
  130MOL0     C17471   5.417   9.541   9.109  0.9294  0.0273 -0.1976
  130MOL0     C17472   5.307   9.617   9.128  0.4760  0.1225 -0.0936
  130MOL0     O17473   5.174   9.576   9.102 -0.0776 -0.0689 -0.0857
  130MOL0     C17474   5.156   9.454   9.026  0.1042  0.4168  0.6943
  130MOL0     C17475   5.006   9.434   9.034  0.0869 -0.3732  0.4909
  130MOL0     C17476   4.943   9.375   8.910  0.8019 -0.6095  0.2829
  130MOL0     C17477   4.797   9.410   8.891 -0.0776  0.9866 -0.1486
  130MOL0     C17478   4.751   9.368   8.760 -0.6456  0.8235 -0.3411
  130MOL0     C17479   4.739   9.334   8.650 -0.2282  0.4624 -0.6311
  130MOL0     C17480   5.317   9.737   9.195  0.1903 -0.5034 -0.6160
  130MOL0     C17481   5.434   9.785   9.238 -0.3375  0.2120  0.4966
  130MOL0     C17482   5.425   9.922   9.303 -0.5847 -0.0938  0.4341
  130MOL0     H17483   6.018   9.598   9.296 -0.2863  2.0237 -2.2647
  130MOL0     H17484   6.206   9.702   9.420  0.1017 -1.3854  2.2443
  130MOL0     H17485   6.254   9.970   9.462 -4.1717  1.5811  0.2575
  130MOL0     H17486   6.193  10.068   9.603  0.4229 -0.4942  2.0897
  130MOL0     H17487   6.391  10.002   9.736  1.2225  0.0228  0.0952
  130MOL0     H17488   6.409  10.104   9.597 -0.0616 -0.3375 -0.0230
  130MOL0     H17489   6.497   9.911   9.453 -0.6442  1.6915  0.5197
  130MOL0     H17490   6.462   9.816   9.588  0.2751 -0.3298 -0.9403
  130MOL0     H17491   6.658  10.052   9.613  0.9740 -0.1979  0.9186
  130MOL0     H17492   6.647   9.909   9.722 -1.4950 -1.7011 -0.2923
  130MOL0     H17493   6.849   9.900   9.607 -0.4231  0.8933 -0.9208
  130MOL0     H17494   6.753   9.758   9.566  0.6455 -0.2467 -3.5999
  130MOL0     H17495   6.686   9.825   9.361  1.4164 -0.7352 -1.0326
  130MOL0     H17496   6.737   9.996   9.379  0.5861  0.9724 -2.2687
  130MOL0     H17497   6.895   9.887   9.226  0.4303  1.5421 -1.0676
  130MOL0     H17498   6.896   9.740   9.338  0.5635  0.7985 -1.6222
  130MOL0     H17499   7.017   9.878   9.497  2.0326  1.0839  0.3632
  130MOL0     H17500   7.109   9.903   9.355  0.3608 -0.7155  0.7035
  130MOL0     H17501   7.125  10.100   9.596 -1.3512  2.1882  1.9371
  130MOL0     H17502   7.201  10.383   9.589 -0.1641  2.4222  1.7467
  130MOL0     H17503   7.104  10.472   9.471  0.5903 -1.8139 -2.6011
  130MOL0     H17504   7.029  10.542   9.681 -0.0165  0.4582 -0.5327
  130MOL0     H17505   6.901  10.454   9.627 -0.5954 -0.9780  2.2512
  130MOL0     H17506   7.104  10.288   9.786 -0.9750  0.1782  0.5413
  130MOL0     H17507   6.933  10.260   9.778 -1.6697  0.8029  0.3730
  130MOL0     H17508   6.977  10.341  10.009  2.1776  0.0341 -0.3876
  130MOL0     H17509   6.873  10.446   9.900 -1.1670 -3.2170 -0.9699
  130MOL0     H17510   7.210  10.681  10.088  0.8895 -0.8169  2.2207
  130MOL0     H17511   7.156  10.814  10.287  2.7356 -1.7789 -4.2474
  130MOL0     H17512   7.050  11.135  10.533 -0.5122 -0.0907 -0.1287
  130MOL0     H17513   7.021  11.266  10.744  2.0694 -0.7721 -0.1151
  130MOL0     H17514   7.128  11.241  11.058  0.1385 -0.6533 -1.7343
  130MOL0     H17515   7.037  11.348  10.952 -1.4327  3.1629  0.8813
  130MOL0     H17516   6.903  11.423  11.106 -0.4222 -1.9899 -1.1930
  130MOL0     H17517   6.884  11.285  11.195 -0.4492  0.1396  1.7538
  130MOL0     H17518   6.999  11.469  11.328  1.4439  0.7374 -0.3529
  130MOL0     H17519   7.072  11.317  11.336  1.0785 -2.2900 -2.2772
  130MOL0     H17520   7.183  11.579  11.267 -0.8956 -0.5091  1.2156
  130MOL0     H17521   7.172  11.511  11.111  1.4583  0.4486 -0.4559
  130MOL0     H17522   7.411  11.455  11.210  0.9784 -1.6322  0.8006
  130MOL0     H17523   7.324  11.306  11.196  1.0989  0.3150 -3.4361
  130MOL0     H17524   7.350  11.505  11.431 -0.5902 -1.3696  2.7516
  130MOL0     H17525   7.264  11.351  11.446 -2.6271  4.9776  0.8763
  130MOL0     H17526   7.525  11.382  11.519  0.8595 -0.0294 -1.2449
  130MOL0     H17527   7.571  11.364  11.359  1.1882 -2.4932  0.8961
  130MOL0     H17528   7.389  11.141  11.472 -0.3587  0.0490  0.3209
  130MOL0     H17529   7.454  11.158  11.311 -2.0693  1.7511  0.1481
  130MOL0     H17530   6.912  10.895  10.944  1.5529 -1.3465 -0.4590
  130MOL0     H17531   6.925  10.784  10.744 -0.1675  0.1560  2.9414
  130MOL0     H17532   6.759  10.652  10.287  0.0627 -0.8659 -0.5930
  130MOL0     H17533   6.812  10.529  10.082 -0.8317  2.3092 -1.5707
  130MOL0     H17534   5.931   9.889   9.687  0.2370  3.1137 -1.9652
  130MOL0     H17535   5.742   9.815   9.552 -0.6195 -1.2797 -0.2186
  130MOL0     H17536   5.624   9.513   9.162 -1.2623 -0.7885 -0.6919
  130MOL0     H17537   5.402   9.453   9.049 -0.2656  0.9444 -1.2961
  130MOL0     H17538   5.218   9.371   9.062  3.3514  1.3625 -2.1573
  130MOL0     H17539   5.182   9.470   8.921 -3.7174 -0.4617 -0.5402
  130MOL0     H17540   4.961   9.532   9.051 -0.2457 -0.7227  1.7272
  130MOL0     H17541   4.973   9.371   9.118 -1.7261  1.2088  1.0441
  130MOL0     H17542   4.949   9.266   8.903 -0.3664 -0.8122  1.7445
  130MOL0     H17543   4.998   9.417   8.826 -0.1442  0.9876  0.4130
  130MOL0     H17544   4.728   9.363   8.961 -1.4483 -1.1716 -2.7673
  130MOL0     H17545   4.789   9.519   8.902 -2.4403  0.8776 -0.3336
  130MOL0     H17546   4.716   9.292   8.554 -1.3417 -1.7732  0.5204
  130MOL0     H17547   5.230   9.799   9.211  2.5736  2.7240  0.9475
  130MOL0     H17548   5.476   9.915   9.400  0.2081 -4.8324 -0.0594
  130MOL0     H17549   5.473  10.002   9.247  0.4230 -0.0629  1.3091
  130MOL0     H17550   5.321   9.949   9.326 -0.0670  2.1643  0.3492
  131MOL0     O17551   5.097   4.191   6.229 -0.5985  0.5684  0.7301
  131MOL0     C17552   4.995   4.129   6.264 -0.8968  0.4040  0.0228
  131MOL0     O17553   4.950   4.014   6.207 -0.1132  0.0732  0.3484
  131MOL0     C17554   5.049   3.921   6.159  0.3463 -0.5202 -0.3259
  131MOL0     C17555   5.163   3.894   6.228 -0.7085 -0.4299  0.0793
  131MOL0     C17556   5.258   3.801   6.175 -0.1701  0.3906 -0.2571
  131MOL0     C17557   5.222   3.729   6.061  0.1300  0.3819 -0.7235
  131MOL0     O17558   5.318   3.630   6.018  0.8490  0.3009  0.5678
  131MOL0     C17559   5.286   3.572   5.889 -0.0235 -0.4191  0.2224
  131MOL0     C17560   5.419   3.501   5.847  0.0410  0.6436  0.2943
  131MOL0     C17561   5.539   3.599   5.820  0.1998 -0.2752 -1.2012
  131MOL0     C17562   5.668   3.527   5.775  0.9781 -0.6174  0.9252
  131MOL0     C17563   5.687   3.551   5.619 -0.4195  0.0732  0.6922
  131MOL0     C17564   5.809   3.477   5.574  0.6863 -0.2622  2.0429
  131MOL0     C17565   5.860   3.521   5.436  0.6269  0.2223 -0.3082
  131MOL0     C17566   5.790   3.471   5.312 -0.0056  0.3156  0.1287
  131MOL0     N17567   5.841   3.529   5.186 -0.5671  0.0435  0.8387
  131MOL0     C17568   5.960   3.494   5.123  0.0126  0.4839  0.6375
  131MOL0     C17569   5.965   3.582   5.019 -0.3748  1.1917  0.1909
  131MOL0     C17570   6.094   3.566   4.938  1.0414 -0.8095 -0.6356
  131MOL0     C17571   6.055   3.520   4.798  0.1269 -0.4927  0.7640
  131MOL0     C17572   6.048   3.632   4.699  0.2017 -0.0593  0.2166
  131MOL0     C17573   5.991   3.599   4.564  0.1727  0.1773  0.4694
  131MOL0     O17574   5.936   3.721   4.527  0.0603 -0.3281 -0.6548
  131MOL0     C17575   5.922   3.725   4.392  0.5175  0.5655 -0.1742
  131MOL0     C17576   5.923   3.855   4.338 -0.2938  1.1696  0.8946
  131MOL0     C17577   5.864   3.871   4.204  0.6120 -0.1449  0.7158
  131MOL0     C17578   5.810   3.759   4.131 -0.4636 -0.4334 -0.8310
  131MOL0     C17579   5.748   3.769   3.996  1.5450 -0.5721  0.8611
  131MOL0     O17580   5.766   3.884   3.919  0.5074  0.0757 -0.2918
  131MOL0     C17581   5.657   3.948   3.857 -0.1778  0.2041 -0.7382
  131MOL0     C17582   5.690   4.057   3.777  0.1850 -0.1808 -0.8650
  131MOL0     C17583   5.601   4.147   3.720  0.0017  0.1403  0.9889
  131MOL0     C17584   5.470   4.120   3.727 -0.2593  0.4723 -0.6365
  131MOL0     O17585   5.390   4.201   3.654  0.3290 -0.6794  0.0248
  131MOL0     C17586   5.272   4.153   3.574 -0.5231 -0.0506 -0.9464
  131MOL0     C17587   5.241   4.245   3.460  0.0101 -0.0464  0.4477
  131MOL0     C17588   5.117   4.194   3.385  0.7919  0.2595 -0.1981
  131MOL0     C17589   4.997   4.290   3.417  1.0657 -0.2672  0.4172
  131MOL0     C17590   4.886   4.256   3.313  0.0092 -0.2808 -0.4862
  131MOL0     C17591   4.769   4.333   3.367  0.2314 -0.5666 -0.1601
  131MOL0     C17592   4.651   4.329   3.269  0.6185 -0.0729  0.1853
  131MOL0     C17593   4.588   4.190   3.267  0.2976 -0.5832 -0.0281
  131MOL0    Cl17594   4.538   4.105   3.423  0.1057 -0.3225  0.2698
  131MOL0     C17595   5.433   4.010   3.807 -0.1563  0.1681  1.1673
  131MOL0     C17596   5.519   3.925   3.877  0.1281 -0.4301 -1.1870
  131MOL0     O17597   5.678   3.675   3.957  0.7246 -0.2687 -0.0505
  131MOL0     C17598   5.799   3.634   4.198  0.3197 -0.3566  0.2170
  131MOL0     C17599   5.853   3.621   4.322 -0.1456  0.9721  0.2565
  131MOL0     N17600   5.864   3.678   5.032  0.0982 -0.1343  0.6279
  131MOL0     N17601   5.798   3.652   5.136 -0.6563  0.8456  0.5226
  131MOL0     C17602   5.090   3.750   6.008 -0.5662  0.3000  0.2993
  131MOL0     C17603   5.005   3.851   6.049 -0.0196 -0.1564 -0.0365
  131MOL0     C17604   4.908   4.173   6.374  0.6679  0.0753 -0.2269
  131MOL0     C17605   4.784   4.121   6.391 -0.0760 -0.5752 -0.2990
  131MOL0     C17606   4.698   4.168   6.485 -1.2562 -1.3686 -0.4470
  131MOL0     C17607   4.739   4.260   6.584  1.1788  0.1584  0.3619
  131MOL0     O17608   4.656   4.314   6.683 -0.1008  0.2675 -0.6520
  131MOL0     C17609   4.521   4.268   6.714  0.3922 -0.3850 -0.1881
  131MOL0     C17610   4.409   4.336   6.634 -0.2906 -0.6772 -0.0843
  131MOL0     C17611   4.278   4.258   6.636  0.1242 -0.3979  0.2137
  131MOL0     C17612   4.217   4.257   6.772 -0.1950 -0.2458  0.0893
  131MOL0     C17613   4.078   4.204   6.778  1.2513  0.0849  0.1033
  131MOL0     C17614   3.965   4.164   6.762  0.8443 -0.0682 -0.1916
  131MOL0     C17615   4.868   4.324   6.566  0.1288 -0.6436 -0.2173
  131MOL0     C17616   4.949   4.280   6.465 -0.4878  0.9109  0.1179
  131MOL0     C17617   5.083   4.357   6.456 -0.9809  0.6463  0.3559
  131MOL0     H17618   5.211   3.958   6.301  1.9735 -1.3968 -0.7065
  131MOL0     H17619   5.354   3.782   6.221 -1.6050 -0.3471  2.7394
  131MOL0     H17620   5.210   3.493   5.888 -2.2683  1.5930 -1.6788
  131MOL0     H17621   5.268   3.649   5.814 -1.6698 -0.2375  0.7735
  131MOL0     H17622   5.398   3.448   5.754 -1.8798  0.6099  0.7167
  131MOL0     H17623   5.451   3.427   5.922  0.2369 -0.1550 -0.5607
  131MOL0     H17624   5.558   3.663   5.907 -1.5149 -1.5726  0.1946
  131MOL0     H17625   5.513   3.670   5.740 -1.4138 -0.1960 -0.6534
  131MOL0     H17626   5.757   3.560   5.830 -0.6374  0.3284  3.0982
  131MOL0     H17627   5.667   3.421   5.802 -2.9773 -0.8436  0.4753
  131MOL0     H17628   5.601   3.520   5.559  1.9924  0.9803 -3.6681
  131MOL0     H17629   5.699   3.657   5.594 -0.3150 -0.1715 -0.3151
  131MOL0     H17630   5.891   3.501   5.642  0.5717  2.1512  1.4012
  131MOL0     H17631   5.794   3.370   5.591 -0.0376 -0.5572 -0.1297
  131MOL0     H17632   5.965   3.488   5.433 -0.3161 -3.1304 -1.4843
  131MOL0     H17633   5.849   3.629   5.442 -1.0007  0.0176  2.1776
  131MOL0     H17634   5.795   3.362   5.307 -2.0528  0.1815  0.0433
  131MOL0     H17635   5.681   3.484   5.319 -0.0724  0.9815 -1.6706
  131MOL0     H17636   6.018   3.406   5.146 -0.3108 -0.0071 -0.3645
  131MOL0     H17637   6.138   3.667   4.933 -2.1376  0.7066 -0.2703
  131MOL0     H17638   6.164   3.494   4.981  0.9644  0.3449  1.5866
  131MOL0     H17639   6.124   3.442   4.764  2.0584  1.6618 -0.4615
  131MOL0     H17640   5.957   3.471   4.808 -0.9555  1.5983  1.0490
  131MOL0     H17641   6.147   3.677   4.687 -0.5509  1.4926 -0.5435
  131MOL0     H17642   5.987   3.710   4.745 -1.1083  0.1632 -1.7429
  131MOL0     H17643   5.922   3.515   4.576 -0.4400  0.6483  0.2718
  131MOL0     H17644   6.071   3.560   4.499  0.1431  1.0691 -0.1089
  131MOL0     H17645   5.982   3.924   4.397  2.9052  0.3659 -1.0884
  131MOL0     H17646   5.861   3.966   4.152  1.0088 -0.8102 -0.5726
  131MOL0     H17647   5.795   4.084   3.773  0.4745 -1.0425  0.4343
  131MOL0     H17648   5.634   4.233   3.663  1.5743 -2.3700 -2.2060
  131MOL0     H17649   5.298   4.056   3.531  1.8456 -0.0999  0.3923
  131MOL0     H17650   5.196   4.130   3.649  1.3449 -4.7389 -0.1385
  131MOL0     H17651   5.227   4.346   3.500 -1.0041  0.3840 -0.9510
  131MOL0     H17652   5.327   4.257   3.393 -0.5399  2.2337  0.0594
  131MOL0     H17653   5.132   4.198   3.277 -0.6598  1.3804 -0.3949
  131MOL0     H17654   5.105   4.091   3.422  2.3343 -0.9940 -2.8893
  131MOL0     H17655   5.027   4.395   3.415  1.6506 -0.4391 -0.5085
  131MOL0     H17656   4.962   4.275   3.519 -0.0350  0.1512  0.1156
  131MOL0     H17657   4.860   4.150   3.324  0.0387 -0.1513  1.0943
  131MOL0     H17658   4.918   4.297   3.217  2.8710  1.6826  1.1706
  131MOL0     H17659   4.734   4.287   3.460 -0.4455 -2.8957 -1.5021
  131MOL0     H17660   4.800   4.438   3.376  2.2687 -1.1583  0.2799
  131MOL0     H17661   4.681   4.360   3.168  3.5720 -0.7016  0.7675
  131MOL0     H17662   4.575   4.397   3.307  1.9869  1.0375  1.0304
  131MOL0     H17663   4.498   4.196   3.206  0.1144 -0.0433  0.2935
  131MOL0     H17664   4.653   4.115   3.221  0.2621 -0.6382  0.0120
  131MOL0     H17665   5.328   3.982   3.799 -0.5547  1.8270 -0.0368
  131MOL0     H17666   5.495   3.835   3.933  1.5896  0.3861  0.8659
  131MOL0     H17667   5.745   3.555   4.147 -0.1204  2.3201 -3.9680
  131MOL0     H17668   5.835   3.529   4.376  0.9676  0.3448 -0.4221
  131MOL0     H17669   5.049   3.676   5.940 -1.1858 -1.2281  2.2581
  131MOL0     H17670   4.913   3.875   5.997 -0.7643  0.7912  1.6541
  131MOL0     H17671   4.742   4.048   6.322 -2.5976 -0.4118  0.9679
  131MOL0     H17672   4.593   4.141   6.488 -1.3595 -0.9319  1.7219
  131MOL0     H17673   4.504   4.284   6.821 -1.0297  1.6881 -0.6571
  131MOL0     H17674   4.516   4.161   6.693 -3.1774 -0.5291  0.6085
  131MOL0     H17675   4.437   4.332   6.529 -1.1245 -0.9640 -0.3034
  131MOL0     H17676   4.393   4.439   6.668 -1.9078 -1.4274  1.5732
  131MOL0     H17677   4.292   4.153   6.605  0.3423 -0.0319 -0.9866
  131MOL0     H17678   4.212   4.288   6.553  0.7547 -1.2255 -0.6159
  131MOL0     H17679   4.285   4.219   6.849  2.3175 -0.4865 -2.0706
  131MOL0     H17680   4.193   4.363   6.785 -2.3171 -0.6710  0.0017
  131MOL0     H17681   3.870   4.114   6.770  1.4955 -1.2479  0.4782
  131MOL0     H17682   4.897   4.400   6.638 -2.1771  2.0399 -1.9479
  131MOL0     H17683   5.083   4.416   6.364  2.4640 -1.5233 -1.2383
  131MOL0     H17684   5.113   4.405   6.549 -0.5309  0.6872  0.1950
  131MOL0     H17685   5.160   4.281   6.439 -1.3299  0.2954  0.3614
  132MOL0     O17686   8.345   0.672   8.156 -0.3146  0.0776  1.3986
  132MOL0     C17687   8.372   0.592   8.242 -0.6109  0.3988  0.0604
  132MOL0     O17688   8.322   0.468   8.240  0.4675  0.9290 -0.5448
  132MOL0     C17689   8.395   0.370   8.309  0.4081 -0.0688  0.2630
  132MOL0     C17690   8.335   0.306   8.421  0.0197  0.0847 -0.1093
  132MOL0     C17691   8.417   0.228   8.507 -1.0057  0.1741  0.1166
  132MOL0     C17692   8.560   0.205   8.469 -0.4994  0.3813 -0.3087
  132MOL0     O17693   8.637   0.118   8.548 -0.0366 -0.3586 -0.2078
  132MOL0     C17694   8.778   0.125   8.521  0.2409  1.6370  0.7360
  132MOL0     C17695   8.856   0.019   8.612  0.4521  0.0806  0.4222
  132MOL0     C17696   8.829   0.034   8.762  0.1795  0.2870  1.2380
  132MOL0     C17697   8.861   0.164   8.830 -0.6011  0.7095 -0.7129
  132MOL0     C17698   9.011   0.192   8.853  0.2586  0.0555  0.0724
  132MOL0     C17699   9.052   0.326   8.903 -0.5276 -0.6251 -0.0951
  132MOL0     C17700   9.207   0.338   8.922  0.4290  0.3258  0.7061
  132MOL0     C17701   9.282   0.367   8.801 -0.3396  0.3138 -0.1371
  132MOL0     N17702   9.319   0.242   8.731  0.3120  0.9497 -0.0454
  132MOL0     C17703   9.412   0.163   8.792 -0.5493 -0.5220 -0.2249
  132MOL0     C17704   9.421   0.057   8.708 -0.2929  0.4076  0.2369
  132MOL0     C17705   9.530  -0.053   8.696  0.2235 -0.3128 -0.0453
  132MOL0     C17706   9.563  -0.125   8.835  0.2985 -1.1307  0.9488
  132MOL0     C17707   9.439  -0.208   8.883 -0.0060 -0.0838 -0.3314
  132MOL0     C17708   9.409  -0.331   8.799  0.1004 -0.0731 -0.1320
  132MOL0     O17709   9.294  -0.383   8.868 -0.4428  0.2281 -0.1527
  132MOL0     C17710   9.187  -0.410   8.787  0.4161 -0.6671  0.4123
  132MOL0     C17711   9.101  -0.303   8.752  0.5806  0.4182  1.0943
  132MOL0     C17712   8.988  -0.326   8.676 -0.3410  0.3921 -0.2873
  132MOL0     C17713   8.945  -0.464   8.647 -0.5588 -1.3600 -0.3702
  132MOL0     C17714   8.818  -0.485   8.582 -0.4523 -0.8463  0.1208
  132MOL0     O17715   8.802  -0.605   8.512 -0.6506 -0.4489 -0.3771
  132MOL0     C17716   8.675  -0.631   8.476  0.0027  0.9546  0.2560
  132MOL0     C17717   8.609  -0.536   8.396  0.1369  0.0656 -0.4710
  132MOL0     C17718   8.472  -0.547   8.374  0.7805  0.2378  0.1210
  132MOL0     C17719   8.404  -0.661   8.416  0.3405  0.4468 -0.0023
  132MOL0     O17720   8.276  -0.687   8.362 -0.0767 -0.5059  1.1510
  132MOL0     C17721   8.183  -0.579   8.328 -0.3055 -0.1629 -0.2488
  132MOL0     C17722   8.034  -0.626   8.345 -0.0457  0.5997  0.3605
  132MOL0     C17723   8.004  -0.653   8.487 -0.3764 -0.0111 -0.1387
  132MOL0     C17724   7.984  -0.527   8.566 -0.4799 -0.1457 -0.6013
  132MOL0     C17725   7.995  -0.568   8.723  0.4180  0.1456  0.6380
  132MOL0     C17726   7.969  -0.439   8.809 -0.2466  0.2324  0.2561
  132MOL0     C17727   7.953  -0.489   8.955  0.3868  0.1872  0.5708
  132MOL0     C17728   8.076  -0.532   9.034  0.0652 -0.5521 -0.8106
  132MOL0    Cl17729   8.020  -0.610   9.177  0.1083 -0.1011 -0.1296
  132MOL0     C17730   8.467  -0.761   8.497  0.1459  0.2813  0.3704
  132MOL0     C17731   8.602  -0.739   8.528  0.5364 -0.4313  0.0434
  132MOL0     O17732   8.728  -0.402   8.607  0.3629 -0.6197 -0.0034
  132MOL0     C17733   9.036  -0.568   8.684 -0.9258  0.6273  0.4874
  132MOL0     C17734   9.154  -0.539   8.755  0.7760 -1.4242 -0.3527
  132MOL0     N17735   9.330   0.074   8.603 -0.1818 -0.8667 -0.0747
  132MOL0     N17736   9.267   0.186   8.622  0.3844  0.0955 -0.2917
  132MOL0     C17737   8.612   0.258   8.348  0.1755 -0.2949 -0.7033
  132MOL0     C17738   8.526   0.335   8.270  0.4443  0.6433 -0.3315
  132MOL0     C17739   8.433   0.654   8.364 -0.4727  0.5229 -0.2790
  132MOL0     C17740   8.371   0.637   8.487  0.7022  0.5758  0.1593
  132MOL0     C17741   8.427   0.687   8.604 -0.9585 -1.0782 -0.0379
  132MOL0     C17742   8.533   0.777   8.598  0.6394 -0.7620 -0.4853
  132MOL0     O17743   8.554   0.822   8.720  0.1546 -0.0211  0.6240
  132MOL0     C17744   8.661   0.914   8.723  0.2031 -1.0842 -0.0620
  132MOL0     C17745   8.669   0.977   8.863 -0.1431 -0.0388 -0.5593
  132MOL0     C17746   8.671   0.873   8.979 -0.1846 -0.1563  0.0607
  132MOL0     C17747   8.682   0.943   9.117 -0.0727 -0.3676  0.0309
  132MOL0     C17748   8.566   1.024   9.150  1.5545  0.5713 -0.5610
  132MOL0     C17749   8.477   1.109   9.167  0.6135  0.4255  0.2018
  132MOL0     C17750   8.593   0.803   8.475 -0.0158  0.1994 -0.3423
  132MOL0     C17751   8.548   0.740   8.358 -0.6450 -1.4414  0.6656
  132MOL0     C17752   8.641   0.739   8.237 -0.3088 -0.7326 -0.0852
  132MOL0     H17753   8.227   0.308   8.434 -0.3193 -1.0852 -2.1859
  132MOL0     H17754   8.378   0.167   8.588  0.9328 -4.0109 -1.7908
  132MOL0     H17755   8.786   0.081   8.421 -1.0203  0.0426  1.3031
  132MOL0     H17756   8.829   0.221   8.532 -0.6419  2.0302  1.4498
  132MOL0     H17757   8.961   0.030   8.586  0.2311 -0.6144 -0.8738
  132MOL0     H17758   8.825  -0.082   8.582  1.1114  0.0805 -0.2800
  132MOL0     H17759   8.885  -0.042   8.818 -0.2342 -1.3001 -0.3996
  132MOL0     H17760   8.722   0.012   8.772  0.3057 -0.1233  1.7432
  132MOL0     H17761   8.822   0.252   8.778  1.7551  1.7123 -0.9168
  132MOL0     H17762   8.821   0.168   8.932 -1.0155  1.5070 -0.9048
  132MOL0     H17763   9.052   0.118   8.922  0.5106  1.3823  1.3846
  132MOL0     H17764   9.048   0.176   8.751  0.2565  1.4809 -0.1607
  132MOL0     H17765   9.014   0.402   8.834  0.8586  0.0603 -0.1357
  132MOL0     H17766   9.003   0.356   8.996  0.1475  1.5259 -0.3778
  132MOL0     H17767   9.238   0.245   8.970 -2.0007 -0.8886  0.1145
  132MOL0     H17768   9.228   0.423   8.987  1.3152 -0.7863  1.9236
  132MOL0     H17769   9.227   0.425   8.726 -1.2939 -0.3996 -0.0048
  132MOL0     H17770   9.375   0.418   8.828 -1.7728  3.1797 -0.2259
  132MOL0     H17771   9.469   0.176   8.883  2.1424  0.1474 -1.8788
  132MOL0     H17772   9.488  -0.112   8.614  0.5580 -1.9476  0.9114
  132MOL0     H17773   9.622  -0.015   8.650 -0.0057 -0.1062 -0.3427
  132MOL0     H17774   9.657  -0.180   8.834  1.0650  0.0771  2.4331
  132MOL0     H17775   9.595  -0.045   8.903 -2.3989 -1.9444  3.3672
  132MOL0     H17776   9.358  -0.135   8.876 -0.0565 -0.3198 -4.1986
  132MOL0     H17777   9.454  -0.248   8.984 -2.5131 -1.4115 -0.4024
  132MOL0     H17778   9.502  -0.389   8.790  0.2008  0.0443  0.1442
  132MOL0     H17779   9.375  -0.296   8.701 -1.0302  2.9612  1.2443
  132MOL0     H17780   9.125  -0.198   8.769  1.0472  0.3442  0.8997
  132MOL0     H17781   8.931  -0.235   8.656 -2.9729 -0.1849  3.5585
  132MOL0     H17782   8.662  -0.450   8.355 -1.7165  0.3410 -2.5313
  132MOL0     H17783   8.439  -0.481   8.294  2.3360  0.1417 -0.6482
  132MOL0     H17784   8.200  -0.489   8.387 -1.0883 -1.3054  1.8404
  132MOL0     H17785   8.198  -0.546   8.225 -2.5527  4.2322  0.5845
  132MOL0     H17786   7.982  -0.536   8.312  2.2331  0.8059 -3.2155
  132MOL0     H17787   8.013  -0.703   8.269 -3.0148  2.3916 -0.8153
  132MOL0     H17788   7.911  -0.709   8.499  1.2531 -2.7035  0.6079
  132MOL0     H17789   8.089  -0.711   8.522  0.3725 -0.2416 -2.2612
  132MOL0     H17790   7.881  -0.493   8.550 -0.8092  0.2151  1.8132
  132MOL0     H17791   8.061  -0.451   8.550  0.0037  0.0663  2.2433
  132MOL0     H17792   8.101  -0.593   8.723  0.4996  0.4790  0.4880
  132MOL0     H17793   7.924  -0.648   8.745 -0.5115  0.0244 -2.3181
  132MOL0     H17794   8.049  -0.369   8.784  1.2510 -1.7962 -0.9641
  132MOL0     H17795   7.875  -0.389   8.784 -0.8077 -0.1596  1.5058
  132MOL0     H17796   7.885  -0.574   8.948  0.7841 -0.0252 -1.1500
  132MOL0     H17797   7.916  -0.408   9.018 -0.1359  0.5884 -0.2292
  132MOL0     H17798   8.127  -0.607   8.974  2.1339 -2.1473  2.6159
  132MOL0     H17799   8.145  -0.450   9.058  0.6405 -0.7783 -1.6580
  132MOL0     H17800   8.403  -0.834   8.545 -0.8154  3.0281  3.6235
  132MOL0     H17801   8.643  -0.796   8.611 -0.2115  0.5978  1.1546
  132MOL0     H17802   9.000  -0.671   8.676 -0.1846  0.1977  2.1654
  132MOL0     H17803   9.216  -0.623   8.783 -1.6966 -3.0210  0.6839
  132MOL0     H17804   8.715   0.253   8.314  0.7649 -1.0426  1.0868
  132MOL0     H17805   8.562   0.370   8.174  3.7596 -0.2964  0.4418
  132MOL0     H17806   8.288   0.569   8.502  1.0098  0.0060 -0.6660
  132MOL0     H17807   8.371   0.682   8.696 -2.8041  3.5099 -0.6142
  132MOL0     H17808   8.649   0.996   8.650 -1.2757 -0.8263  0.4392
  132MOL0     H17809   8.756   0.867   8.697  1.1843 -0.0633  1.5202
  132MOL0     H17810   8.581   1.039   8.880 -3.5078 -4.2538 -1.1640
  132MOL0     H17811   8.764   1.032   8.873 -0.4146  0.3738 -0.2076
  132MOL0     H17812   8.754   0.801   8.980 -1.2452 -1.5351 -2.1201
  132MOL0     H17813   8.582   0.810   8.979 -0.1291 -0.3264  2.6016
  132MOL0     H17814   8.706   0.871   9.196 -0.1017  0.7102  1.0310
  132MOL0     H17815   8.767   1.012   9.115  1.3801 -2.0209  1.4327
  132MOL0     H17816   8.388   1.167   9.183  0.4496 -0.1234  1.4219
  132MOL0     H17817   8.684   0.862   8.477 -1.1592  2.0194  1.2918
  132MOL0     H17818   8.630   0.814   8.159  3.5056 -1.8746 -1.9397
  132MOL0     H17819   8.740   0.755   8.281 -1.2157  1.6589  1.3033
  132MOL0     H17820   8.637   0.640   8.191  1.2342 -0.6784 -0.3668
  133MOL0     O17821   6.250   0.691   6.821 -0.2602 -0.2478 -0.1453
  133MOL0     C17822   6.337   0.616   6.786 -0.1330  0.5106  0.5091
  133MOL0     O17823   6.319   0.490   6.737 -0.3051  0.1164  0.1328
  133MOL0     C17824   6.202   0.457   6.670 -0.4580  0.2322  0.3084
  133MOL0     C17825   6.213   0.407   6.537 -0.0974 -0.1424  0.5054
  133MOL0     C17826   6.095   0.384   6.463  0.0018 -0.5860  1.0852
  133MOL0     C17827   5.973   0.424   6.519  0.4201  0.5679  0.4549
  133MOL0     O17828   5.865   0.394   6.436 -0.6248 -0.3285 -0.0155
  133MOL0     C17829   5.737   0.354   6.487  0.4493  0.1461 -0.1517
  133MOL0     C17830   5.672   0.257   6.375 -0.4519  0.1273  0.1704
  133MOL0     C17831   5.720   0.109   6.406  0.2012  0.2493  0.8772
  133MOL0     C17832   5.870   0.086   6.436 -0.2581  1.3179 -0.4601
  133MOL0     C17833   5.886  -0.072   6.435  0.5923 -0.1572  0.3706
  133MOL0     C17834   6.022  -0.122   6.481  0.1085 -0.3379 -0.5479
  133MOL0     C17835   6.057  -0.266   6.433  0.9003 -0.1751 -0.8800
  133MOL0     C17836   6.111  -0.261   6.294  0.2532 -0.3045 -0.0003
  133MOL0     N17837   6.150  -0.390   6.234 -0.0003 -0.1369 -0.1218
  133MOL0     C17838   6.051  -0.470   6.171  0.6762  0.4884  0.3167
  133MOL0     C17839   6.121  -0.562   6.099 -0.0931 -0.4523 -0.1648
  133MOL0     C17840   6.066  -0.681   6.022  0.0010  0.1125 -0.7843
  133MOL0     C17841   5.985  -0.648   5.901  0.1214 -0.4695  0.3318
  133MOL0     C17842   6.053  -0.614   5.766 -0.2267 -0.1747 -0.3734
  133MOL0     C17843   5.982  -0.507   5.683  0.3657 -0.6427  0.1238
  133MOL0     O17844   6.020  -0.373   5.720  0.5050 -0.0218  0.5490
  133MOL0     C17845   6.113  -0.298   5.646 -0.1520 -0.7579  0.1117
  133MOL0     C17846   6.120  -0.157   5.669  1.0590 -0.5371  0.1841
  133MOL0     C17847   6.209  -0.076   5.592 -0.6217 -0.6726  0.2366
  133MOL0     C17848   6.303  -0.125   5.506  0.1887  1.0272  0.0614
  133MOL0     C17849   6.402  -0.055   5.434  0.2022  0.2515 -1.0848
  133MOL0     O17850   6.403   0.079   5.448 -0.1675 -0.4726  0.5164
  133MOL0     C17851   6.498   0.158   5.392  0.1045 -0.3725  0.0064
  133MOL0     C17852   6.559   0.247   5.474 -0.6932 -0.6029 -0.5759
  133MOL0     C17853   6.661   0.334   5.429 -0.1448  0.3048  0.2002
  133MOL0     C17854   6.708   0.326   5.294  0.2148  0.1310 -0.4336
  133MOL0     O17855   6.811   0.402   5.264  0.2416  0.4883 -0.3332
  133MOL0     C17856   6.939   0.352   5.299  0.3446 -0.0184  0.3877
  133MOL0     C17857   7.043   0.429   5.222  0.9646 -0.0720 -0.5975
  133MOL0     C17858   7.035   0.583   5.249  0.4567  0.2946  0.1878
  133MOL0     C17859   7.149   0.642   5.176 -0.5804 -0.0964  0.3421
  133MOL0     C17860   7.164   0.790   5.217 -0.4996  0.2814  0.6591
  133MOL0     C17861   7.294   0.842   5.167 -0.0821 -0.1267 -0.1598
  133MOL0     C17862   7.304   0.994   5.175  0.6035  0.9128 -0.0844
  133MOL0     C17863   7.441   1.051   5.150 -0.3500  0.1553 -0.2958
  133MOL0    Cl17864   7.429   1.231   5.125 -0.1293  0.1704  0.3397
  133MOL0     C17865   6.638   0.238   5.208 -0.5483 -0.3909 -0.5576
  133MOL0     C17866   6.529   0.172   5.251 -0.8013  0.8395 -0.2935
  133MOL0     O17867   6.498  -0.111   5.382 -0.8393  0.2209  0.3665
  133MOL0     C17868   6.304  -0.261   5.495  0.9346  0.6049 -0.3049
  133MOL0     C17869   6.209  -0.349   5.563  0.6788 -0.0254 -0.8852
  133MOL0     N17870   6.257  -0.525   6.117 -0.3738 -0.1403 -0.7363
  133MOL0     N17871   6.271  -0.429   6.201 -0.3321  0.0684  0.6757
  133MOL0     C17872   5.960   0.468   6.655 -0.1384  0.3066 -0.0774
  133MOL0     C17873   6.077   0.475   6.729  0.4996 -0.1969  0.3811
  133MOL0     C17874   6.472   0.666   6.814 -0.1887  0.3342 -0.4575
  133MOL0     C17875   6.564   0.572   6.858  0.6693 -0.4076 -0.1532
  133MOL0     C17876   6.699   0.602   6.857 -0.1662 -0.1902 -0.1568
  133MOL0     C17877   6.752   0.724   6.822 -0.0821 -0.2946 -0.4388
  133MOL0     O17878   6.892   0.731   6.826  0.2196 -0.4661 -0.6182
  133MOL0     C17879   6.958   0.851   6.776  1.3802  0.7997 -0.9896
  133MOL0     C17880   7.111   0.846   6.754 -0.0801  0.3844 -0.0354
  133MOL0     C17881   7.163   0.705   6.717  0.5016 -0.6651  0.1322
  133MOL0     C17882   7.168   0.595   6.823  0.8541  0.3341 -0.2726
  133MOL0     C17883   7.287   0.600   6.898  0.6875  0.7297 -0.7606
  133MOL0     C17884   7.390   0.616   6.961 -0.5368 -0.2343 -0.6744
  133MOL0     C17885   6.657   0.822   6.790 -0.1610  0.5036  0.7164
  133MOL0     C17886   6.516   0.795   6.783  0.3120  0.0022  0.3025
  133MOL0     C17887   6.421   0.903   6.744 -0.1256  0.6056 -0.7339
  133MOL0     H17888   6.311   0.398   6.492 -0.6421  1.6069 -1.1803
  133MOL0     H17889   6.102   0.331   6.369 -1.7551 -1.1466  1.2296
  133MOL0     H17890   5.758   0.300   6.579  1.5227  2.0881  0.8015
  133MOL0     H17891   5.676   0.444   6.496  0.2636 -0.1455  1.8417
  133MOL0     H17892   5.706   0.283   6.274 -2.3566 -2.6923 -1.3259
  133MOL0     H17893   5.564   0.261   6.385 -0.3261 -0.6444  2.3534
  133MOL0     H17894   5.709   0.045   6.319  0.3492  0.7007  0.5225
  133MOL0     H17895   5.662   0.067   6.490  0.1726  0.6200  1.0450
  133MOL0     H17896   5.941   0.128   6.364 -0.4120 -0.1192 -1.4820
  133MOL0     H17897   5.898   0.129   6.533 -0.2447  0.2011  0.0444
  133MOL0     H17898   5.811  -0.121   6.497 -0.4087 -1.4670 -1.7628
  133MOL0     H17899   5.876  -0.108   6.332  1.3139  2.1961 -0.5928
  133MOL0     H17900   6.108  -0.059   6.456  1.0974 -0.7476  1.6144
  133MOL0     H17901   6.014  -0.111   6.590  0.4861 -1.3037 -0.4184
  133MOL0     H17902   5.977  -0.340   6.449 -0.1895  1.4091  1.6193
  133MOL0     H17903   6.142  -0.305   6.490 -1.0794 -2.7569  0.5451
  133MOL0     H17904   6.046  -0.211   6.221  1.2642  0.6199 -0.2842
  133MOL0     H17905   6.198  -0.195   6.286 -0.3936  0.7597  1.3792
  133MOL0     H17906   5.946  -0.457   6.194  0.8990  2.0051  0.5834
  133MOL0     H17907   6.152  -0.744   5.998  0.0615 -0.3687  0.6413
  133MOL0     H17908   6.002  -0.739   6.089  0.7664  0.2733  0.1021
  133MOL0     H17909   5.928  -0.738   5.874  0.9390 -1.2287  1.0606
  133MOL0     H17910   5.916  -0.566   5.923  0.2305 -0.3315  0.1578
  133MOL0     H17911   6.059  -0.697   5.695  3.3715  0.6984 -1.3007
  133MOL0     H17912   6.155  -0.578   5.781 -0.2272 -0.4755  0.3690
  133MOL0     H17913   5.875  -0.527   5.696  0.5184 -2.0543 -0.6419
  133MOL0     H17914   5.998  -0.517   5.575 -3.0013  0.2750 -0.6017
  133MOL0     H17915   6.054  -0.101   5.734 -1.5481 -2.3031 -0.8129
  133MOL0     H17916   6.214   0.028   5.621 -1.7768  0.4785 -3.2172
  133MOL0     H17917   6.531   0.253   5.578  0.7806  2.3543 -0.2541
  133MOL0     H17918   6.700   0.407   5.500 -0.6635 -0.0812  0.8820
  133MOL0     H17919   6.960   0.360   5.406 -0.7274  2.2874  0.4977
  133MOL0     H17920   6.945   0.246   5.273  3.7829  0.2762 -0.4953
  133MOL0     H17921   7.142   0.386   5.244  0.1950 -0.9224  1.3775
  133MOL0     H17922   7.015   0.410   5.117 -0.7137 -0.3455 -0.1266
  133MOL0     H17923   6.935   0.619   5.223 -0.2347 -0.8752  1.1009
  133MOL0     H17924   7.057   0.603   5.354  4.0840  2.3838 -0.8042
  133MOL0     H17925   7.121   0.624   5.072 -2.3539 -2.6643  1.1351
  133MOL0     H17926   7.238   0.581   5.194 -1.0853 -0.6791  0.9197
  133MOL0     H17927   7.161   0.804   5.325  3.2738  2.4232  0.6498
  133MOL0     H17928   7.079   0.848   5.181 -2.2574 -1.2557  2.1299
  133MOL0     H17929   7.375   0.791   5.221  0.4759  0.2980 -0.5911
  133MOL0     H17930   7.292   0.819   5.060 -1.6434  2.9745 -0.9214
  133MOL0     H17931   7.271   1.013   5.278  3.4667 -0.8598  1.3080
  133MOL0     H17932   7.234   1.033   5.101 -0.6379 -0.8761  0.0641
  133MOL0     H17933   7.509   1.018   5.229  0.9195 -3.0977 -2.5257
  133MOL0     H17934   7.472   1.008   5.054 -1.0373 -0.8751 -0.0728
  133MOL0     H17935   6.678   0.233   5.107  0.5004  1.9848 -0.3426
  133MOL0     H17936   6.466   0.112   5.186  0.3877 -0.8484  0.0307
  133MOL0     H17937   6.384  -0.293   5.429 -0.3147  2.5816 -2.9843
  133MOL0     H17938   6.223  -0.457   5.561 -1.0214 -0.2743 -0.8582
  133MOL0     H17939   5.869   0.460   6.713  0.0592  1.2600  0.3855
  133MOL0     H17940   6.069   0.519   6.828  3.7901 -0.0409  0.6646
  133MOL0     H17941   6.530   0.471   6.878 -1.6575 -0.7078 -4.4107
  133MOL0     H17942   6.766   0.519   6.877  1.0404  1.2750  2.4752
  133MOL0     H17943   6.941   0.932   6.849 -1.0096  0.0707 -0.6403
  133MOL0     H17944   6.909   0.886   6.685  1.0175  3.0656 -0.0001
  133MOL0     H17945   7.170   0.870   6.843  0.0928 -0.7149  0.1669
  133MOL0     H17946   7.140   0.919   6.678  0.3657 -0.9907 -1.2346
  133MOL0     H17947   7.268   0.722   6.689  0.9356  1.8132  2.8140
  133MOL0     H17948   7.106   0.682   6.627  1.6571  1.6569 -1.3130
  133MOL0     H17949   7.076   0.591   6.882  0.1956 -2.1568 -1.3327
  133MOL0     H17950   7.164   0.497   6.773  1.2785 -1.3672  2.7945
  133MOL0     H17951   7.471   0.642   7.027 -1.8858  1.6747  0.3293
  133MOL0     H17952   6.689   0.925   6.776 -1.3947  1.1380  2.2403
  133MOL0     H17953   6.349   0.865   6.671 -2.5774 -0.1552  1.9118
  133MOL0     H17954   6.372   0.938   6.835 -2.4570 -3.0918 -0.3546
  133MOL0     H17955   6.477   0.988   6.704  1.7401 -0.3015 -0.1916
  134MOL0     O17956   5.851   9.322   6.148  0.0698  0.8747 -0.2252
  134MOL0     C17957   5.792   9.420   6.196  0.6874 -0.2900  0.2920
  134MOL0     O17958   5.788   9.448   6.330 -0.7272  0.4956  0.4044
  134MOL0     C17959   5.890   9.391   6.405 -0.2733 -0.2878  0.5132
  134MOL0     C17960   5.860   9.280   6.484  0.8681  0.7669 -0.2763
  134MOL0     C17961   5.965   9.217   6.558 -0.5165 -0.0038  0.2626
  134MOL0     C17962   6.091   9.278   6.557 -0.1981 -0.3998 -0.7318
  134MOL0     O17963   6.197   9.225   6.628 -0.0261  0.7900 -0.6478
  134MOL0     C17964   6.169   9.131   6.738  0.1002  0.0681  0.3424
  134MOL0     C17965   6.304   9.135   6.813 -0.3197  0.0775  0.1994
  134MOL0     C17966   6.332   9.259   6.890  0.3698  0.5114  0.6781
  134MOL0     C17967   6.393   9.373   6.804  0.0238 -0.1012 -0.0181
  134MOL0     C17968   6.517   9.326   6.723  1.0933 -0.2659 -0.2203
  134MOL0     C17969   6.595   9.441   6.679 -0.1413 -0.9195  0.1820
  134MOL0     C17970   6.751   9.405   6.665  0.0787 -0.9062 -0.1747
  134MOL0     C17971   6.788   9.284   6.587 -0.6327  0.1862  0.8941
  134MOL0     N17972   6.918   9.227   6.613 -0.5326  0.2032 -1.0506
  134MOL0     C17973   6.941   9.104   6.679  0.5336 -0.2006  0.4942
  134MOL0     C17974   7.067   9.097   6.701  0.2583  0.2738 -0.0268
  134MOL0     C17975   7.125   8.980   6.767 -0.7074 -0.2048  0.2217
  134MOL0     C17976   7.127   9.018   6.919  0.2496  0.7679  1.4070
  134MOL0     C17977   7.154   8.893   7.006  0.3054  0.8475  0.3694
  134MOL0     C17978   7.129   8.910   7.156  0.3922 -0.0951  0.9842
  134MOL0     O17979   7.130   8.789   7.221 -0.6607  0.3685 -0.1566
  134MOL0     C17980   7.237   8.765   7.294 -0.2055  0.2959  0.1817
  134MOL0     C17981   7.369   8.789   7.250  0.5237  0.2546  0.0999
  134MOL0     C17982   7.472   8.757   7.343 -0.1904 -0.6519  0.3295
  134MOL0     C17983   7.450   8.712   7.474 -0.4816 -0.7251 -0.0990
  134MOL0     C17984   7.563   8.704   7.567 -0.2665 -0.7910 -0.3151
  134MOL0     O17985   7.688   8.702   7.501 -0.1933 -0.1686  0.6027
  134MOL0     C17986   7.800   8.666   7.570  0.9837 -0.0802 -0.1579
  134MOL0     C17987   7.828   8.532   7.588 -0.5583 -1.0298 -0.2561
  134MOL0     C17988   7.944   8.501   7.661  0.0906  0.0179 -0.9980
  134MOL0     C17989   8.036   8.608   7.703  1.0349  0.4641 -0.3855
  134MOL0     O17990   8.152   8.566   7.759 -0.4857 -1.0373 -0.1060
  134MOL0     C17991   8.216   8.655   7.858  0.1644 -0.1170  0.7243
  134MOL0     C17992   8.360   8.596   7.859  0.0318 -0.9105 -0.4200
  134MOL0     C17993   8.433   8.639   7.729 -0.2652 -0.1798  0.1792
  134MOL0     C17994   8.539   8.537   7.688  0.6108  0.0892  0.2136
  134MOL0     C17995   8.675   8.558   7.750  0.0278  0.2783  0.9146
  134MOL0     C17996   8.773   8.456   7.698  0.9119  0.7606 -0.8859
  134MOL0     C17997   8.902   8.461   7.778 -0.0598  0.4755 -0.1349
  134MOL0     C17998   9.003   8.575   7.739  0.2903 -0.1011 -0.1807
  134MOL0    Cl17999   9.140   8.601   7.863 -0.2948 -0.3610  0.5162
  134MOL0     C18000   7.999   8.744   7.697  0.6460 -0.3981 -0.9813
  134MOL0     C18001   7.878   8.767   7.621 -0.3004 -0.7096 -1.5949
  134MOL0     O18002   7.539   8.679   7.686 -0.2726 -0.2885  0.0875
  134MOL0     C18003   7.317   8.687   7.516  0.2826  0.3113 -0.3844
  134MOL0     C18004   7.213   8.706   7.421  0.1290 -0.6885  0.1174
  134MOL0     N18005   7.131   9.202   6.642 -0.1121  0.5122 -0.3080
  134MOL0     N18006   7.042   9.271   6.578 -0.0487 -0.6621  0.7246
  134MOL0     C18007   6.119   9.381   6.477  0.6486 -0.8470  0.9447
  134MOL0     C18008   6.018   9.449   6.406 -0.5477  0.6110  0.3536
  134MOL0     C18009   5.695   9.501   6.107 -0.4259  0.2945 -1.0633
  134MOL0     C18010   5.621   9.597   6.170 -0.2203 -0.6655  0.0880
  134MOL0     C18011   5.527   9.675   6.101 -0.5323 -0.5261 -0.0746
  134MOL0     C18012   5.508   9.657   5.961 -0.7652  0.4399 -1.0061
  134MOL0     O18013   5.437   9.753   5.885 -0.1967  0.4674  0.0550
  134MOL0     C18014   5.431   9.889   5.938 -1.0930  1.5732 -0.3986
  134MOL0     C18015   5.341   9.973   5.841  1.3953  0.2894  0.6743
  134MOL0     C18016   5.191   9.923   5.875 -0.5496  0.5681 -0.3771
  134MOL0     C18017   5.081  10.025   5.820  0.1804  0.0248 -0.0195
  134MOL0     C18018   5.097  10.037   5.676 -0.1178 -0.0112 -0.7625
  134MOL0     C18019   5.119  10.032   5.558 -0.7631  0.4583 -0.0565
  134MOL0     C18020   5.571   9.543   5.907 -0.1136  0.5810  0.0804
  134MOL0     C18021   5.676   9.475   5.971 -0.4670  0.3447 -0.0774
  134MOL0     C18022   5.754   9.372   5.890 -0.0225  0.0083  0.0790
  134MOL0     H18023   5.758   9.243   6.482  0.5114  1.7320 -0.8529
  134MOL0     H18024   5.942   9.120   6.603 -0.7751  0.0519  0.2524
  134MOL0     H18025   6.088   9.167   6.802 -0.2384  0.1596 -0.1331
  134MOL0     H18026   6.156   9.029   6.699  2.1524 -0.0742 -0.1009
  134MOL0     H18027   6.378   9.112   6.736 -3.2651 -1.2987 -2.4019
  134MOL0     H18028   6.313   9.045   6.874  0.3573 -0.7890 -1.1350
  134MOL0     H18029   6.402   9.221   6.965 -0.4267 -2.9034 -0.1243
  134MOL0     H18030   6.235   9.289   6.930  0.2360 -0.4831  1.1218
  134MOL0     H18031   6.329   9.424   6.730  0.8741  0.4254 -0.4044
  134MOL0     H18032   6.418   9.448   6.879 -0.1738 -0.2302  0.1770
  134MOL0     H18033   6.576   9.252   6.779 -1.8813 -2.4051  0.3716
  134MOL0     H18034   6.484   9.268   6.636 -2.3135 -1.1625  1.5131
  134MOL0     H18035   6.571   9.471   6.576  0.7647  1.2108  0.5270
  134MOL0     H18036   6.573   9.529   6.740  0.3288 -1.3290  0.9463
  134MOL0     H18037   6.785   9.389   6.768 -0.9425 -4.1322 -0.2165
  134MOL0     H18038   6.806   9.484   6.613  0.1080 -2.1799 -2.1841
  134MOL0     H18039   6.709   9.211   6.603 -0.5626  0.1160  0.9208
  134MOL0     H18040   6.787   9.299   6.479  2.2775 -0.4093  0.6933
  134MOL0     H18041   6.861   9.037   6.707  1.2505 -0.6315  1.6045
  134MOL0     H18042   7.078   8.885   6.738  0.3009 -0.4926 -0.5283
  134MOL0     H18043   7.226   8.962   6.728 -1.1650 -2.7044 -0.0250
  134MOL0     H18044   7.207   9.091   6.931 -2.2093  3.4940  2.2123
  134MOL0     H18045   7.032   9.068   6.941  0.1822  0.9644  0.7205
  134MOL0     H18046   7.246   8.839   6.981 -0.3309 -0.8762  1.6061
  134MOL0     H18047   7.075   8.821   6.983  0.7920  0.9557 -1.8858
  134MOL0     H18048   7.028   8.944   7.180 -2.0247 -2.7341 -3.9070
  134MOL0     H18049   7.208   8.974   7.198  0.6546 -0.7232  1.4710
  134MOL0     H18050   7.400   8.830   7.154  0.9229 -0.7585 -0.2181
  134MOL0     H18051   7.571   8.765   7.297 -0.5920 -1.7340 -0.8040
  134MOL0     H18052   7.754   8.462   7.552 -5.2915  3.2810 -0.0115
  134MOL0     H18053   7.973   8.399   7.684 -1.3092 -0.3769 -0.8386
  134MOL0     H18054   8.227   8.759   7.826 -0.9545 -0.3138 -0.4321
  134MOL0     H18055   8.177   8.670   7.959  1.0657 -0.3183  1.1078
  134MOL0     H18056   8.420   8.641   7.939 -2.8184  2.8078 -0.0748
  134MOL0     H18057   8.355   8.492   7.891 -0.7779 -0.7828 -0.1037
  134MOL0     H18058   8.363   8.648   7.646 -0.8295  1.0759  0.7773
  134MOL0     H18059   8.485   8.735   7.739 -0.5313 -0.0310  0.1241
  134MOL0     H18060   8.543   8.547   7.579  0.0975  3.2410  0.3855
  134MOL0     H18061   8.508   8.438   7.722 -1.0625  0.5584  0.1508
  134MOL0     H18062   8.649   8.552   7.857 -0.0728 -0.7078  0.8445
  134MOL0     H18063   8.711   8.658   7.723 -0.2278 -0.5967 -3.3605
  134MOL0     H18064   8.738   8.355   7.721  0.6194  1.2881  1.2021
  134MOL0     H18065   8.786   8.457   7.590 -1.7248 -0.9504 -1.3197
  134MOL0     H18066   8.960   8.368   7.775 -0.2711  0.2681  1.4068
  134MOL0     H18067   8.875   8.474   7.883 -1.1586  0.5785 -0.4258
  134MOL0     H18068   9.051   8.569   7.640  3.3892 -0.2863  1.2059
  134MOL0     H18069   8.947   8.668   7.750  1.2395  0.6717 -1.4890
  134MOL0     H18070   8.061   8.828   7.727 -0.0278 -0.4917  0.7573
  134MOL0     H18071   7.846   8.870   7.628  0.4695 -0.5009 -0.9739
  134MOL0     H18072   7.309   8.639   7.613  1.1601  0.5381 -0.1953
  134MOL0     H18073   7.111   8.695   7.458 -0.2510  1.6107 -0.0913
  134MOL0     H18074   6.216   9.429   6.471 -0.3009  1.0482 -1.2649
  134MOL0     H18075   6.033   9.538   6.346 -1.9213  1.6931  1.5709
  134MOL0     H18076   5.636   9.633   6.271 -3.3705  1.8667 -0.1773
  134MOL0     H18077   5.478   9.751   6.161  1.4281  0.1539  0.7421
  134MOL0     H18078   5.534   9.926   5.941 -0.4696 -0.0720 -0.0455
  134MOL0     H18079   5.397   9.894   6.042 -1.3006  0.6585 -0.4101
  134MOL0     H18080   5.373   9.972   5.736  1.7852  2.6725  0.7173
  134MOL0     H18081   5.343  10.075   5.879  1.0704  0.2579  0.7725
  134MOL0     H18082   5.183   9.900   5.981  1.5005 -0.3437 -0.3832
  134MOL0     H18083   5.180   9.824   5.829 -1.5095  0.4638  0.0411
  134MOL0     H18084   4.990   9.969   5.843 -0.1248  1.3281  2.2751
  134MOL0     H18085   5.089  10.120   5.875 -3.4461  0.5280 -0.1067
  134MOL0     H18086   5.143  10.045   5.454  6.0025  0.4596  1.0712
  134MOL0     H18087   5.559   9.534   5.799 -2.1527  2.8557  0.0366
  134MOL0     H18088   5.730   9.377   5.783  0.5154 -0.7999 -0.0886
  134MOL0     H18089   5.862   9.392   5.887 -0.2777  1.4111 -1.4946
  134MOL0     H18090   5.733   9.272   5.927 -0.7965  0.9807  2.4126
  135MOL0     O18091   9.993   1.835   7.511  0.6632  0.4808 -0.0619
  135MOL0     C18092   9.986   1.917   7.599 -0.0683 -1.2205  0.0462
  135MOL0     O18093  10.073   1.927   7.714  1.4565 -0.2431 -1.1383
  135MOL0     C18094  10.185   1.853   7.725  0.5424  0.4674 -0.5960
  135MOL0     C18095  10.257   1.831   7.604  0.3819 -0.0736  0.7412
  135MOL0     C18096  10.384   1.769   7.612  1.2901  0.5848 -0.8773
  135MOL0     C18097  10.422   1.712   7.737 -1.0796 -1.1182 -0.1385
  135MOL0     O18098  10.533   1.637   7.752 -0.6347  0.3977 -0.0488
  135MOL0     C18099  10.635   1.667   7.846 -0.4585 -0.0879 -1.1915
  135MOL0     C18100  10.753   1.573   7.822  0.1878  0.5712 -0.1781
  135MOL0     C18101  10.820   1.571   7.677 -0.0367  0.1085  0.3141
  135MOL0     C18102  10.919   1.453   7.665 -0.0275 -0.6512  0.4348
  135MOL0     C18103  10.983   1.439   7.529 -0.0273  0.4102  0.2039
  135MOL0     C18104  11.070   1.317   7.528 -0.0419  0.0200  0.6429
  135MOL0     C18105  11.175   1.310   7.419 -1.2315  0.5902 -0.2635
  135MOL0     C18106  11.250   1.173   7.419 -0.7912  0.5404 -0.7995
  135MOL0     N18107  11.374   1.184   7.346 -0.0467 -0.1334 -1.1088
  135MOL0     C18108  11.412   1.286   7.257  0.2744  0.2170 -0.5042
  135MOL0     C18109  11.545   1.264   7.237 -1.0973 -0.0258  0.3059
  135MOL0     C18110  11.635   1.342   7.154  0.4680 -0.3973  0.2057
  135MOL0     C18111  11.782   1.307   7.178 -0.0257 -0.1268 -0.7344
  135MOL0     C18112  11.864   1.380   7.069 -0.4907  0.0148  0.9740
  135MOL0     C18113  12.007   1.330   7.060  0.0819 -0.2545  0.8825
  135MOL0     O18114  12.077   1.386   7.168  0.1793  0.6924 -0.5808
  135MOL0     C18115  12.207   1.333   7.189  0.1195 -0.3029 -0.0813
  135MOL0     C18116  12.304   1.423   7.225 -1.0383 -1.1839  0.2393
  135MOL0     C18117  12.431   1.384   7.257  0.6800 -0.4458  1.3989
  135MOL0     C18118  12.472   1.244   7.245  0.7646 -0.7516 -0.5149
  135MOL0     C18119  12.607   1.198   7.293 -0.2818 -0.3396  0.3084
  135MOL0     O18120  12.694   1.296   7.338  0.6504 -0.0608  0.6700
  135MOL0     C18121  12.822   1.274   7.393  0.1614  0.2081 -0.2394
  135MOL0     C18122  12.900   1.160   7.383 -0.0376 -0.0512  0.6852
  135MOL0     C18123  13.022   1.151   7.458  0.5485  0.1603  0.2775
  135MOL0     C18124  13.073   1.254   7.533 -0.1099  0.0988  0.8141
  135MOL0     O18125  13.180   1.243   7.613 -0.5164  0.2863  1.1871
  135MOL0     C18126  13.273   1.143   7.594 -0.5186  0.3367 -0.2108
  135MOL0     C18127  13.398   1.146   7.690  0.3510  0.1805  0.0172
  135MOL0     C18128  13.468   1.276   7.675  0.1843  0.4792 -1.3450
  135MOL0     C18129  13.602   1.286   7.749  0.2085 -0.2620  0.6307
  135MOL0     C18130  13.655   1.429   7.768  0.2993 -0.7461  0.1587
  135MOL0     C18131  13.788   1.427   7.857  0.6603 -0.4927 -0.0401
  135MOL0     C18132  13.905   1.347   7.794 -0.3164  0.4274  0.2379
  135MOL0     C18133  13.963   1.408   7.664  0.3513 -0.7932 -0.1721
  135MOL0    Cl18134  14.069   1.311   7.566 -0.3246 -0.5074  0.3573
  135MOL0     C18135  12.995   1.371   7.536 -0.7999 -0.1637  0.2434
  135MOL0     C18136  12.872   1.378   7.471 -0.2380  0.0562  1.0912
  135MOL0     O18137  12.630   1.076   7.299 -0.4691 -0.7018 -0.3887
  135MOL0     C18138  12.378   1.157   7.207  0.4960  1.0002 -0.0251
  135MOL0     C18139  12.246   1.198   7.176 -0.2915 -0.5411 -0.6272
  135MOL0     N18140  11.576   1.146   7.311  0.3263  0.8040 -0.2004
  135MOL0     N18141  11.472   1.097   7.367 -0.0128 -0.2439 -0.3539
  135MOL0     C18142  10.356   1.755   7.863  0.1008  0.1832  0.5707
  135MOL0     C18143  10.235   1.819   7.853 -0.2118 -0.2269  0.3832
  135MOL0     C18144   9.857   2.003   7.603  1.1724  0.3917 -0.8421
  135MOL0     C18145   9.762   1.979   7.502  0.0194 -0.6256  0.6201
  135MOL0     C18146   9.646   2.057   7.487 -0.4214 -0.0390  0.1141
  135MOL0     C18147   9.626   2.165   7.562  0.3054 -0.1363 -0.8923
  135MOL0     O18148   9.511   2.240   7.545 -0.3666 -0.2090  0.6961
  135MOL0     C18149   9.410   2.195   7.447 -0.3337  0.3836  0.0824
  135MOL0     C18150   9.292   2.295   7.450 -0.5761 -0.5682 -0.0206
  135MOL0     C18151   9.202   2.287   7.568  0.4456  0.0318 -0.0822
  135MOL0     C18152   9.126   2.156   7.562  0.6120  0.5867 -0.0294
  135MOL0     C18153   9.043   2.129   7.439 -0.7663 -0.6808  0.2787
  135MOL0     C18154   8.966   2.103   7.351  0.3018  0.0414 -0.2369
  135MOL0     C18155   9.713   2.189   7.670  0.7937  0.2526 -0.2083
  135MOL0     C18156   9.827   2.111   7.691 -0.0604  0.7665  0.9689
  135MOL0     C18157   9.905   2.119   7.820  0.4261 -0.1420  0.8565
  135MOL0     H18158  10.242   1.868   7.504  2.1340  3.1191  1.5362
  135MOL0     H18159  10.442   1.752   7.523 -1.1124  3.5287 -3.2157
  135MOL0     H18160  10.660   1.772   7.827 -3.2620  1.2495  1.5691
  135MOL0     H18161  10.588   1.662   7.944 -3.0972  1.8561 -2.2390
  135MOL0     H18162  10.706   1.475   7.835  0.0859  0.7955  1.2682
  135MOL0     H18163  10.822   1.589   7.905 -0.4790 -1.6900  0.9124
  135MOL0     H18164  10.889   1.655   7.665  1.5292 -1.2248 -0.4077
  135MOL0     H18165  10.742   1.561   7.601  0.0850 -0.3553  0.2451
  135MOL0     H18166  10.989   1.473   7.747 -1.7398  0.1433  1.7464
  135MOL0     H18167  10.869   1.358   7.686  1.1280 -1.0281  1.6943
  135MOL0     H18168  10.902   1.426   7.458 -0.6351  0.5607  0.8623
  135MOL0     H18169  11.045   1.526   7.504 -0.6865  1.3691  1.7517
  135MOL0     H18170  11.110   1.292   7.626  0.1358 -0.4216  0.4605
  135MOL0     H18171  11.011   1.226   7.516  2.4607 -1.7855  1.3027
  135MOL0     H18172  11.247   1.391   7.433 -0.5400  0.3053 -1.9916
  135MOL0     H18173  11.147   1.334   7.316  0.6684 -1.0632 -1.2232
  135MOL0     H18174  11.267   1.140   7.522  0.3337  1.8399 -0.5316
  135MOL0     H18175  11.195   1.097   7.363  2.3832 -2.6730  0.0761
  135MOL0     H18176  11.351   1.366   7.215 -1.0594 -0.2717  0.4464
  135MOL0     H18177  11.610   1.313   7.051 -0.5380  1.7210 -0.2095
  135MOL0     H18178  11.610   1.447   7.174  2.4665  0.1035  0.2475
  135MOL0     H18179  11.806   1.333   7.282  0.2849  2.1941 -1.3299
  135MOL0     H18180  11.799   1.200   7.163 -0.9027 -0.3031 -0.5438
  135MOL0     H18181  11.862   1.487   7.090 -0.7905  0.2761 -0.2880
  135MOL0     H18182  11.811   1.358   6.976 -1.4842 -1.2412  1.8116
  135MOL0     H18183  12.053   1.357   6.964  0.2462  1.4662  1.4017
  135MOL0     H18184  12.010   1.221   7.058 -3.6474 -0.5065 -1.7227
  135MOL0     H18185  12.279   1.529   7.224  1.3351 -0.5483 -0.3066
  135MOL0     H18186  12.501   1.460   7.287  1.3053 -1.5672  2.9344
  135MOL0     H18187  12.879   1.074   7.320 -0.5524  0.4572  0.1568
  135MOL0     H18188  13.081   1.060   7.452  1.5851  0.9263 -3.2607
  135MOL0     H18189  13.222   1.047   7.604 -3.2223  1.0821 -4.2568
  135MOL0     H18190  13.305   1.131   7.490 -1.2685 -1.1507 -0.3063
  135MOL0     H18191  13.354   1.134   7.790 -2.0670  0.6759 -0.9102
  135MOL0     H18192  13.473   1.069   7.670  0.2376 -0.0428  0.4355
  135MOL0     H18193  13.483   1.284   7.567 -0.4284  1.0301 -1.3963
  135MOL0     H18194  13.405   1.354   7.720 -0.2159 -0.2849 -0.5496
  135MOL0     H18195  13.669   1.233   7.679 -0.9984 -1.4746  0.3373
  135MOL0     H18196  13.600   1.249   7.852 -1.6641 -0.1861  0.6551
  135MOL0     H18197  13.569   1.475   7.818  0.8398  1.6148 -0.9443
  135MOL0     H18198  13.661   1.475   7.669  1.8660  1.1143  1.0584
  135MOL0     H18199  13.821   1.527   7.883  0.4337 -1.0134  2.5272
  135MOL0     H18200  13.768   1.371   7.949  0.8000  0.3096  0.4788
  135MOL0     H18201  13.857   1.255   7.759 -0.5938  1.5318 -2.4586
  135MOL0     H18202  13.977   1.352   7.876 -1.2605  2.6260  0.9974
  135MOL0     H18203  13.884   1.431   7.591 -0.4750 -5.0749 -0.8830
  135MOL0     H18204  14.023   1.494   7.695  0.2471 -1.1353  1.0210
  135MOL0     H18205  13.028   1.454   7.598  1.0304 -0.5891 -0.1122
  135MOL0     H18206  12.814   1.470   7.464 -0.0938  0.0345 -0.7762
  135MOL0     H18207  12.401   1.052   7.207 -0.5693  0.7438  0.5588
  135MOL0     H18208  12.174   1.123   7.144 -0.3345 -0.3782 -0.9172
  135MOL0     H18209  10.386   1.715   7.959  1.5946  0.6082  0.3034
  135MOL0     H18210  10.185   1.844   7.946 -0.6816 -2.2253  0.7249
  135MOL0     H18211   9.769   1.892   7.437 -0.0337 -3.7574  4.4548
  135MOL0     H18212   9.590   2.024   7.400  1.1856 -0.9315 -0.6377
  135MOL0     H18213   9.366   2.098   7.474 -0.7427  0.9758  1.6678
  135MOL0     H18214   9.440   2.186   7.343 -0.8602  1.3786 -0.1677
  135MOL0     H18215   9.239   2.271   7.358  0.7590 -0.6778 -0.7840
  135MOL0     H18216   9.323   2.400   7.452  1.0899 -1.0454  1.8080
  135MOL0     H18217   9.136   2.374   7.571 -0.4372 -0.5870 -0.8352
  135MOL0     H18218   9.254   2.288   7.664 -1.0941  1.0965  0.7717
  135MOL0     H18219   9.185   2.068   7.584  0.4222  0.0176 -1.6356
  135MOL0     H18220   9.052   2.155   7.643  1.1298  3.1863  0.5808
  135MOL0     H18221   8.905   2.067   7.271  0.5571 -0.3293 -0.2661
  135MOL0     H18222   9.701   2.267   7.744  2.4593 -0.6804  1.1189
  135MOL0     H18223   9.879   2.034   7.885 -0.0017  0.7478  1.8838
  135MOL0     H18224  10.013   2.131   7.810  0.2360  2.1969  0.9448
  135MOL0     H18225   9.871   2.212   7.867 -0.0362  1.2367 -1.9918
  136MOL0     O18226  10.797   0.226   6.679  0.7108 -0.1327  1.1573
  136MOL0     C18227  10.861   0.260   6.578  0.5762 -0.1396 -0.3590
  136MOL0     O18228  10.986   0.232   6.555  0.0588 -0.3467 -0.6324
  136MOL0     C18229  11.057   0.154   6.641  0.2646  1.0032  0.3944
  136MOL0     C18230  11.058   0.014   6.612  0.6523 -0.1515 -1.1233
  136MOL0     C18231  11.111  -0.076   6.700  0.6400  0.1034 -0.8845
  136MOL0     C18232  11.172  -0.039   6.817  0.5012  0.3645 -1.7418
  136MOL0     O18233  11.217  -0.140   6.898  0.0149 -0.1435  0.5614
  136MOL0     C18234  11.280  -0.104   7.025 -0.1144  0.0194  0.2209
  136MOL0     C18235  11.422  -0.056   7.015  0.1533  0.7386 -0.1322
  136MOL0     C18236  11.491  -0.017   7.150  0.5435 -0.4195  0.6786
  136MOL0     C18237  11.557  -0.139   7.197 -1.0200 -0.4571 -0.0790
  136MOL0     C18238  11.639  -0.084   7.312  0.4185 -1.2120 -0.0202
  136MOL0     C18239  11.739  -0.181   7.368 -0.7962 -0.0027 -0.8655
  136MOL0     C18240  11.672  -0.307   7.443  0.0292 -0.3275  0.1185
  136MOL0     C18241  11.580  -0.284   7.566  0.1186 -0.7545 -0.1199
  136MOL0     N18242  11.663  -0.250   7.689 -0.2661  0.5505  0.1446
  136MOL0     C18243  11.764  -0.324   7.743 -0.4284 -0.5812  0.2641
  136MOL0     C18244  11.787  -0.273   7.868  0.4176  1.1365  0.7277
  136MOL0     C18245  11.881  -0.335   7.958 -0.4500  0.1692 -0.1699
  136MOL0     C18246  11.886  -0.490   7.969 -0.6468 -0.3425  0.2540
  136MOL0     C18247  12.001  -0.565   7.899 -1.2328 -0.3467  0.6804
  136MOL0     C18248  12.133  -0.505   7.927  1.1629  0.9698  0.8798
  136MOL0     O18249  12.159  -0.503   8.066  0.1070  0.2471  0.2928
  136MOL0     C18250  12.281  -0.530   8.113 -0.2089 -0.8133  1.1569
  136MOL0     C18251  12.303  -0.566   8.239 -0.8867 -0.1103 -0.6477
  136MOL0     C18252  12.429  -0.576   8.302  0.1386 -0.0872 -0.2289
  136MOL0     C18253  12.548  -0.543   8.225  1.0484  1.1674 -0.2187
  136MOL0     C18254  12.678  -0.542   8.299 -0.8157  0.6999  0.2423
  136MOL0     O18255  12.680  -0.609   8.431  0.0468 -0.5354 -0.0314
  136MOL0     C18256  12.795  -0.632   8.500 -0.7373 -0.4231 -0.4195
  136MOL0     C18257  12.870  -0.734   8.447 -0.1583 -0.2651  0.7690
  136MOL0     C18258  13.002  -0.749   8.491  0.2027  0.0644 -0.1378
  136MOL0     C18259  13.046  -0.685   8.607  0.4231  0.8408  0.0668
  136MOL0     O18260  13.177  -0.688   8.634 -0.9802 -0.2388  0.0724
  136MOL0     C18261  13.202  -0.727   8.772  0.7839 -0.4917 -1.0781
  136MOL0     C18262  13.351  -0.707   8.787  0.7817 -0.6114 -0.3864
  136MOL0     C18263  13.382  -0.566   8.806 -0.8088  0.2802 -0.3624
  136MOL0     C18264  13.528  -0.541   8.751  0.3688  1.6301 -0.7373
  136MOL0     C18265  13.632  -0.607   8.845  0.0142  0.3560  0.1961
  136MOL0     C18266  13.774  -0.586   8.796 -0.9014 -0.5721  0.3054
  136MOL0     C18267  13.820  -0.440   8.793 -1.0265  0.6783  0.1536
  136MOL0     C18268  13.968  -0.423   8.808  0.7622 -0.0548 -0.5848
  136MOL0    Cl18269  14.048  -0.483   8.657 -0.0602  0.0491  0.4462
  136MOL0     C18270  12.968  -0.576   8.657  0.5926 -0.5024  0.8570
  136MOL0     C18271  12.837  -0.555   8.607 -0.6859 -0.7989  0.1279
  136MOL0     O18272  12.783  -0.505   8.231  1.1395  0.5037  0.6109
  136MOL0     C18273  12.522  -0.501   8.084 -0.0193  0.0356 -0.7044
  136MOL0     C18274  12.395  -0.486   8.036 -0.3237  0.9865  0.0179
  136MOL0     N18275  11.697  -0.168   7.891 -0.2535  0.1530  0.9146
  136MOL0     N18276  11.620  -0.163   7.783 -0.0684 -0.4768  0.2556
  136MOL0     C18277  11.168   0.104   6.842  0.3647  0.2742 -0.5788
  136MOL0     C18278  11.118   0.197   6.757 -0.4922 -0.1768  0.3402
  136MOL0     C18279  10.789   0.342   6.479  0.1929 -0.7737 -0.1933
  136MOL0     C18280  10.781   0.299   6.340  0.1088  1.0196  0.8712
  136MOL0     C18281  10.715   0.373   6.244  0.0152 -0.8603  0.1143
  136MOL0     C18282  10.640   0.485   6.285  1.1409 -0.5586 -0.3664
  136MOL0     O18283  10.565   0.569   6.200  0.3913  0.3812 -1.2362
  136MOL0     C18284  10.611   0.586   6.064 -0.7031 -0.2350  0.2024
  136MOL0     C18285  10.753   0.642   6.049  0.1423 -0.7012 -0.6786
  136MOL0     C18286  10.747   0.792   6.095 -0.6542  0.7703  0.8037
  136MOL0     C18287  10.776   0.889   5.975 -0.2660 -0.6985  0.5909
  136MOL0     C18288  10.797   1.034   6.025  0.1896  0.1059 -0.3827
  136MOL0     C18289  10.819   1.150   6.059  0.2546 -0.2778 -0.3542
  136MOL0     C18290  10.639   0.519   6.419 -1.0661 -0.6903  0.1853
  136MOL0     C18291  10.702   0.442   6.519  0.3245 -0.3776  0.8656
  136MOL0     C18292  10.672   0.481   6.663  0.5360 -0.0683  1.1475
  136MOL0     H18293  11.001  -0.020   6.526  0.6055  1.7208 -1.8765
  136MOL0     H18294  11.097  -0.182   6.680 -3.0836  0.0389  1.1342
  136MOL0     H18295  11.216  -0.039   7.085 -0.9439  0.6529 -1.2911
  136MOL0     H18296  11.296  -0.194   7.085 -1.5769  0.4404  1.3027
  136MOL0     H18297  11.422   0.029   6.946  3.7226  1.2344  0.3119
  136MOL0     H18298  11.470  -0.138   6.961 -0.9759 -1.2563  1.7411
  136MOL0     H18299  11.423   0.024   7.225  1.6181  0.0053  1.4467
  136MOL0     H18300  11.573   0.048   7.117  0.1072 -0.2727 -0.1342
  136MOL0     H18301  11.491  -0.224   7.221  1.0509 -2.4575 -1.1269
  136MOL0     H18302  11.624  -0.170   7.116 -0.8648 -3.8079  1.1728
  136MOL0     H18303  11.705  -0.004   7.276  2.6100 -4.4227 -4.0271
  136MOL0     H18304  11.580  -0.065   7.402  1.2111  1.5499 -0.0002
  136MOL0     H18305  11.802  -0.225   7.291 -2.1590  1.1667 -2.7431
  136MOL0     H18306  11.805  -0.131   7.440 -1.1927  1.0034 -1.1787
  136MOL0     H18307  11.745  -0.378   7.482  1.0495  0.7495  0.2177
  136MOL0     H18308  11.622  -0.354   7.358 -1.0207 -0.9778  1.0545
  136MOL0     H18309  11.523  -0.192   7.549  1.8297  0.4675  0.4424
  136MOL0     H18310  11.503  -0.360   7.578 -0.1694 -0.3297  0.8292
  136MOL0     H18311  11.817  -0.415   7.716 -0.6356 -0.4611 -0.6009
  136MOL0     H18312  11.981  -0.303   7.930  0.0993 -0.0017  1.4454
  136MOL0     H18313  11.859  -0.289   8.055  3.9611  1.5236  0.4138
  136MOL0     H18314  11.898  -0.521   8.073  0.6823  0.5130  0.3823
  136MOL0     H18315  11.792  -0.535   7.938  0.3950 -1.0197 -2.1739
  136MOL0     H18316  11.986  -0.570   7.791 -7.0523 -1.2569  1.2055
  136MOL0     H18317  11.992  -0.669   7.934 -2.8956 -0.0769  1.1712
  136MOL0     H18318  12.133  -0.405   7.883  2.4220 -0.9435 -4.0965
  136MOL0     H18319  12.203  -0.568   7.871 -0.0897 -1.3924  1.8194
  136MOL0     H18320  12.216  -0.570   8.304  0.4750  1.9777  1.4456
  136MOL0     H18321  12.422  -0.619   8.401 -2.8136  1.8769  0.5481
  136MOL0     H18322  12.817  -0.797   8.376 -3.9745 -0.7364  3.7360
  136MOL0     H18323  13.062  -0.833   8.457  3.1961  1.3990  1.5083
  136MOL0     H18324  13.154  -0.674   8.855  2.4279 -1.5797  0.6317
  136MOL0     H18325  13.170  -0.831   8.787 -1.4605  0.4464  1.6398
  136MOL0     H18326  13.400  -0.758   8.871  3.9740  1.1281 -1.0195
  136MOL0     H18327  13.404  -0.758   8.706 -1.0947  0.2258 -2.2389
  136MOL0     H18328  13.309  -0.501   8.758 -3.6918  0.7303  4.0190
  136MOL0     H18329  13.366  -0.541   8.911 -0.1334  0.5640 -0.3202
  136MOL0     H18330  13.554  -0.435   8.746  1.1986  1.4788  0.0206
  136MOL0     H18331  13.540  -0.576   8.648  0.5135  0.6508 -0.3978
  136MOL0     H18332  13.609  -0.712   8.864 -2.9743  0.5754 -1.5723
  136MOL0     H18333  13.624  -0.557   8.942  0.9249  2.8718 -0.9413
  136MOL0     H18334  13.842  -0.652   8.852 -1.1815 -1.1943 -0.0822
  136MOL0     H18335  13.785  -0.618   8.692 -1.1222 -1.8665  0.6595
  136MOL0     H18336  13.766  -0.371   8.858  0.3956  0.4337  1.6453
  136MOL0     H18337  13.796  -0.404   8.693  0.4580  0.5476 -0.2745
  136MOL0     H18338  13.997  -0.318   8.821 -2.2072  0.8205 -0.3470
  136MOL0     H18339  14.017  -0.485   8.884 -1.2289 -1.0081 -0.0277
  136MOL0     H18340  13.015  -0.508   8.728 -1.5551  2.0422  0.0021
  136MOL0     H18341  12.777  -0.476   8.650 -1.2496 -1.3466  0.3548
  136MOL0     H18342  12.605  -0.483   8.016  1.2884 -2.8677 -0.0506
  136MOL0     H18343  12.375  -0.431   7.945  1.8255  2.2676  0.2474
  136MOL0     H18344  11.221   0.151   6.925  1.4490 -2.9652  0.7462
  136MOL0     H18345  11.120   0.304   6.777  2.1227  0.7664 -3.6720
  136MOL0     H18346  10.850   0.224   6.305 -1.7107  0.0735 -0.8895
  136MOL0     H18347  10.722   0.340   6.141  1.1183  0.6733 -0.3389
  136MOL0     H18348  10.534   0.641   6.009 -0.3950 -1.2934 -1.3583
  136MOL0     H18349  10.614   0.490   6.012 -0.2919  0.3920 -0.9736
  136MOL0     H18350  10.782   0.629   5.944  1.8604 -1.8327 -0.0982
  136MOL0     H18351  10.834   0.586   6.097  0.8455  0.2952 -0.6737
  136MOL0     H18352  10.826   0.804   6.170 -0.8876  2.0748  0.8626
  136MOL0     H18353  10.650   0.814   6.141 -1.4054 -0.4938 -0.1156
  136MOL0     H18354  10.873   0.864   5.931 -0.2497 -1.8154  1.2487
  136MOL0     H18355  10.694   0.890   5.902  0.8251 -1.1453 -0.6754
  136MOL0     H18356  10.842   1.247   6.098 -1.6364  0.9552 -2.0611
  136MOL0     H18357  10.591   0.610   6.452  0.4040 -0.4984  1.9899
  136MOL0     H18358  10.620   0.408   6.725  1.6540 -3.4410 -1.5764
  136MOL0     H18359  10.764   0.524   6.705  0.0950  1.5135  0.5867
  136MOL0     H18360  10.607   0.568   6.647 -0.9709 -1.4112 -0.3518
  137MOL0     O18361   7.486   0.560   1.224  0.4527  0.0222 -0.5090
  137MOL0     C18362   7.383   0.593   1.280 -0.0847  0.5894 -0.4958
  137MOL0     O18363   7.379   0.643   1.411  0.1422  0.1797  0.1867
  137MOL0     C18364   7.500   0.652   1.472  0.0660  0.6850 -0.1066
  137MOL0     C18365   7.573   0.769   1.478  0.6702  0.4270  0.9605
  137MOL0     C18366   7.699   0.771   1.541 -0.8400  0.0235  0.0366
  137MOL0     C18367   7.750   0.662   1.610  0.5014  0.4655  0.1392
  137MOL0     O18368   7.871   0.654   1.663 -0.0453 -0.3612 -0.4196
  137MOL0     C18369   7.978   0.744   1.617 -0.7206 -0.5381  0.5051
  137MOL0     C18370   8.098   0.738   1.714 -0.4455 -0.2565 -0.4060
  137MOL0     C18371   8.221   0.828   1.668  0.4306 -0.4061 -0.4627
  137MOL0     C18372   8.336   0.805   1.771  0.3432  0.1070  0.0589
  137MOL0     C18373   8.460   0.733   1.721 -0.3039 -0.8190  0.2582
  137MOL0     C18374   8.552   0.694   1.834 -0.9774 -0.4300  0.0334
  137MOL0     C18375   8.625   0.816   1.892 -0.6634 -0.3046 -0.9952
  137MOL0     C18376   8.734   0.766   1.995  0.2629  1.4592 -0.7565
  137MOL0     N18377   8.839   0.866   2.021  0.3407  0.9742 -0.0353
  137MOL0     C18378   8.814   0.984   2.090  0.1130  0.1080  0.1470
  137MOL0     C18379   8.928   1.054   2.071  0.5251  0.3422  0.3345
  137MOL0     C18380   8.941   1.184   2.130  0.1033 -0.1409  0.6795
  137MOL0     C18381   9.019   1.181   2.267 -0.0661 -0.4287  0.0137
  137MOL0     C18382   8.980   1.302   2.352 -0.2318  1.0880 -0.4147
  137MOL0     C18383   9.055   1.436   2.314 -0.7729  0.2186  0.5990
  137MOL0     O18384   9.196   1.414   2.325  0.1512 -0.4707  0.8117
  137MOL0     C18385   9.281   1.500   2.251 -0.2532 -0.5873  0.0684
  137MOL0     C18386   9.250   1.625   2.190 -0.1500 -0.0911 -0.2584
  137MOL0     C18387   9.335   1.707   2.124 -0.4620  0.9888 -1.3951
  137MOL0     C18388   9.468   1.671   2.119 -0.4973  0.1097  0.5678
  137MOL0     C18389   9.567   1.762   2.057  0.0166 -0.4900 -1.0291
  137MOL0     O18390   9.563   1.892   2.083  0.3254 -0.7730  0.1954
  137MOL0     C18391   9.673   1.978   2.071 -0.1925 -0.3794  0.9448
  137MOL0     C18392   9.647   2.105   2.118 -0.2828 -0.0514  0.4624
  137MOL0     C18393   9.749   2.204   2.130 -0.2156  0.8825  0.8226
  137MOL0     C18394   9.873   2.176   2.071 -0.4394 -0.6081 -0.3110
  137MOL0     O18395   9.956   2.281   2.084 -0.3468 -0.2460 -0.2266
  137MOL0     C18396  10.083   2.273   2.015 -1.8024  0.1592  0.6928
  137MOL0     C18397  10.141   2.412   2.015  0.1314  0.1223 -0.3196
  137MOL0     C18398  10.041   2.517   1.967  1.2832  0.8940  0.1182
  137MOL0     C18399  10.096   2.655   1.969 -0.4513 -0.8085 -0.1469
  137MOL0     C18400   9.986   2.765   1.975 -0.8581 -0.4128  0.5433
  137MOL0     C18401   9.911   2.772   1.844  0.1834 -0.9403 -0.5414
  137MOL0     C18402   9.813   2.897   1.861 -0.2401 -0.6654  0.3010
  137MOL0     C18403   9.744   2.924   1.725  0.3031 -1.2996  0.0029
  137MOL0    Cl18404   9.629   2.791   1.692 -0.3589  0.2885  0.3927
  137MOL0     C18405   9.903   2.052   2.017  0.4436  1.3901 -0.0105
  137MOL0     C18406   9.800   1.957   2.011 -0.3802  0.6621 -0.0037
  137MOL0     O18407   9.651   1.704   1.995  0.6111 -0.0205  0.1796
  137MOL0     C18408   9.509   1.548   2.169  0.3211  0.0806  1.1200
  137MOL0     C18409   9.416   1.466   2.246 -0.4761  0.4133  0.8021
  137MOL0     N18410   9.005   0.991   1.976  0.6347 -0.2928 -0.4115
  137MOL0     N18411   8.959   0.873   1.957  0.0102 -0.1611  0.5237
  137MOL0     C18412   7.676   0.547   1.602 -0.1725 -0.2968  0.0236
  137MOL0     C18413   7.554   0.541   1.537  0.3915  0.0033  0.9122
  137MOL0     C18414   7.259   0.590   1.193  0.0010 -0.2198 -0.0985
  137MOL0     C18415   7.254   0.486   1.099  0.0320 -0.3697  0.6143
  137MOL0     C18416   7.152   0.494   1.003 -0.1198  0.3255 -0.1805
  137MOL0     C18417   7.060   0.590   1.013 -0.5284  0.1699 -0.2150
  137MOL0     O18418   6.956   0.610   0.924 -0.2976 -0.3710 -0.1244
  137MOL0     C18419   6.962   0.561   0.788  0.0437  0.0181  0.1365
  137MOL0     C18420   6.871   0.647   0.697 -0.5012 -1.3320  0.2941
  137MOL0     C18421   6.874   0.806   0.694  0.0407  0.5929 -0.7508
  137MOL0     C18422   6.768   0.858   0.602 -0.2655 -0.7982 -0.0670
  137MOL0     C18423   6.644   0.857   0.677 -0.5168 -0.0141  0.2572
  137MOL0     C18424   6.530   0.845   0.720  0.7962 -0.5761 -1.5803
  137MOL0     C18425   7.061   0.686   1.115 -0.4995 -0.0325  1.0017
  137MOL0     C18426   7.166   0.690   1.206  0.3212 -0.3155 -0.1988
  137MOL0     C18427   7.169   0.805   1.300  0.4413 -0.0056  0.1249
  137MOL0     H18428   7.538   0.858   1.426 -0.9688 -1.6922 -1.8412
  137MOL0     H18429   7.759   0.862   1.531 -0.1294 -0.4275  0.1099
  137MOL0     H18430   8.009   0.718   1.515  1.2429 -2.2932  1.4670
  137MOL0     H18431   7.950   0.849   1.631  1.2837  0.3104 -1.1882
  137MOL0     H18432   8.136   0.637   1.734  0.1594  0.0918  0.2870
  137MOL0     H18433   8.059   0.766   1.813 -0.6438 -3.5477  0.5739
  137MOL0     H18434   8.190   0.933   1.663  0.2927 -0.4553 -0.6454
  137MOL0     H18435   8.251   0.793   1.569 -3.1087 -1.7814 -1.2008
  137MOL0     H18436   8.365   0.909   1.793  0.9411 -0.1159  0.3453
  137MOL0     H18437   8.320   0.768   1.872  4.1186  1.5093  1.3695
  137MOL0     H18438   8.447   0.646   1.657  3.0327 -1.4208  0.2389
  137MOL0     H18439   8.509   0.802   1.652 -0.9921 -0.7364 -0.1554
  137MOL0     H18440   8.491   0.641   1.907 -4.2304 -0.3106 -2.3705
  137MOL0     H18441   8.623   0.632   1.779  0.5585  1.7097 -0.5503
  137MOL0     H18442   8.550   0.873   1.948 -1.6118 -0.3039 -2.2172
  137MOL0     H18443   8.681   0.874   1.818  0.2269 -0.9824 -0.8674
  137MOL0     H18444   8.681   0.726   2.082  2.2446  2.8343  1.2036
  137MOL0     H18445   8.792   0.681   1.958 -2.1579 -1.0183  0.7781
  137MOL0     H18446   8.724   1.002   2.149  0.2648 -1.2710  0.8479
  137MOL0     H18447   8.988   1.247   2.054  1.3901 -0.3889  1.2407
  137MOL0     H18448   8.846   1.233   2.154 -0.2154 -1.3410  1.9511
  137MOL0     H18449   8.994   1.097   2.333  0.4293  1.6769  3.0473
  137MOL0     H18450   9.127   1.173   2.252  0.0094  2.1168 -1.1915
  137MOL0     H18451   9.003   1.273   2.455  2.8251 -2.2399 -1.8451
  137MOL0     H18452   8.871   1.309   2.346 -0.2123  0.7458 -1.4179
  137MOL0     H18453   9.018   1.522   2.371 -0.7558  1.5310 -1.2810
  137MOL0     H18454   9.027   1.459   2.211 -1.0035  1.2531  0.8717
  137MOL0     H18455   9.145   1.648   2.204  0.6080  2.3193  2.1337
  137MOL0     H18456   9.304   1.796   2.070  0.5030  1.5377 -1.0588
  137MOL0     H18457   9.547   2.136   2.145 -0.8549 -0.2172 -1.3018
  137MOL0     H18458   9.729   2.307   2.157 -1.1389  1.5187 -1.9623
  137MOL0     H18459  10.147   2.203   2.069  0.9637  2.3554  0.5086
  137MOL0     H18460  10.073   2.240   1.912 -1.1207 -3.4205  1.6475
  137MOL0     H18461  10.177   2.428   2.117 -2.0008 -3.2887  1.1576
  137MOL0     H18462  10.230   2.399   1.954  0.0153 -1.1151 -0.2569
  137MOL0     H18463  10.015   2.477   1.868 -2.4748 -2.6055  2.2291
  137MOL0     H18464   9.951   2.520   2.028  2.8289  5.9542  2.7496
  137MOL0     H18465  10.165   2.675   1.887 -0.3482  2.3506  0.5696
  137MOL0     H18466  10.153   2.670   2.062 -0.2969  3.5085 -0.7357
  137MOL0     H18467  10.029   2.864   1.993 -3.5142  1.1808 -1.2280
  137MOL0     H18468   9.911   2.741   2.050 -2.3976  2.3694  0.0252
  137MOL0     H18469   9.985   2.784   1.764 -0.9133 -1.3771 -1.6640
  137MOL0     H18470   9.850   2.682   1.830 -2.1464  0.3576  0.5855
  137MOL0     H18471   9.871   2.986   1.886  1.9533 -2.0445  0.3918
  137MOL0     H18472   9.738   2.873   1.937 -3.2439  0.9966 -1.9105
  137MOL0     H18473   9.689   3.019   1.718  1.7082 -0.5214 -0.8426
  137MOL0     H18474   9.810   2.924   1.638 -0.7950  0.1691 -0.8811
  137MOL0     H18475  10.001   2.042   1.971  0.5859 -0.3311  0.5743
  137MOL0     H18476   9.833   1.862   1.971 -0.2059  1.1867 -1.1537
  137MOL0     H18477   9.609   1.511   2.149  0.2129  1.3483 -2.5844
  137MOL0     H18478   9.440   1.367   2.284  1.1377  0.3996 -0.1549
  137MOL0     H18479   7.721   0.460   1.648 -0.4242 -0.1112  0.6315
  137MOL0     H18480   7.505   0.447   1.516 -0.4930  0.9727 -1.9110
  137MOL0     H18481   7.331   0.411   1.088  0.4932 -0.1200  2.0114
  137MOL0     H18482   7.137   0.407   0.939 -0.3747 -0.6379  1.1391
  137MOL0     H18483   6.922   0.460   0.772  1.1252 -0.2007 -1.3712
  137MOL0     H18484   7.070   0.557   0.771  0.3835 -0.3835  2.1509
  137MOL0     H18485   6.768   0.618   0.717 -1.2831 -0.6984 -2.4456
  137MOL0     H18486   6.897   0.608   0.598 -0.0087 -0.6376  0.1348
  137MOL0     H18487   6.974   0.836   0.659  3.3791 -3.9039  3.4213
  137MOL0     H18488   6.859   0.848   0.793  0.5438  0.4175 -0.5930
  137MOL0     H18489   6.791   0.956   0.557  3.0368 -1.4127  0.0146
  137MOL0     H18490   6.752   0.789   0.518 -0.2166 -1.0682  0.1454
  137MOL0     H18491   6.427   0.844   0.749  0.6077  0.7372 -2.1384
  137MOL0     H18492   6.981   0.759   1.113 -0.1956  0.2976  0.2645
  137MOL0     H18493   7.165   0.777   1.406  0.5303  0.8892  0.3695
  137MOL0     H18494   7.269   0.844   1.280  2.4264 -3.4795  2.3424
  137MOL0     H18495   7.082   0.865   1.272 -0.0506 -1.2200 -1.0796
  138MOL0     O18496   0.324   4.808   6.028 -0.9425 -0.0822 -0.7907
  138MOL0     C18497   0.200   4.810   6.039  0.6878  0.6995  0.0555
  138MOL0     O18498   0.111   4.791   5.939 -0.5696 -0.1485  0.7650
  138MOL0     C18499   0.155   4.794   5.806  0.5589  0.6126 -0.1476
  138MOL0     C18500   0.198   4.912   5.745 -0.9381 -0.3736  1.3745
  138MOL0     C18501   0.253   4.918   5.613  0.7546 -0.1387 -0.7529
  138MOL0     C18502   0.240   4.794   5.538 -0.0933  0.3555  0.0011
  138MOL0     O18503   0.274   4.779   5.409 -0.0644 -0.0256 -0.4702
  138MOL0     C18504   0.372   4.874   5.362  0.9486 -0.1566  0.2671
  138MOL0     C18505   0.388   4.856   5.211 -0.2377  0.3765 -0.4776
  138MOL0     C18506   0.459   4.723   5.181  0.3167  0.0985 -0.5539
  138MOL0     C18507   0.495   4.711   5.032  1.1048  0.0381 -0.4664
  138MOL0     C18508   0.383   4.721   4.932 -0.7746  0.5173  0.2981
  138MOL0     C18509   0.442   4.697   4.791  0.3988 -0.6826 -0.2950
  138MOL0     C18510   0.323   4.670   4.696 -1.1955 -0.6834  0.2302
  138MOL0     C18511   0.352   4.732   4.560  0.1984 -0.2255 -0.1804
  138MOL0     N18512   0.482   4.703   4.501 -0.3928  0.5843  0.7840
  138MOL0     C18513   0.593   4.789   4.479 -0.9047 -0.1125 -0.0709
  138MOL0     C18514   0.690   4.722   4.409  0.6310  0.8050  0.3769
  138MOL0     C18515   0.822   4.773   4.352 -0.3447  0.4485 -0.8001
  138MOL0     C18516   0.950   4.699   4.394 -0.5492  0.2244  0.0132
  138MOL0     C18517   1.083   4.757   4.329  1.2531 -0.5760 -0.2655
  138MOL0     C18518   1.193   4.753   4.428  0.5580  1.3766 -0.6118
  138MOL0     O18519   1.221   4.616   4.465 -0.3543  0.0385 -0.5121
  138MOL0     C18520   1.306   4.528   4.391 -0.3879  0.6214 -0.6018
  138MOL0     C18521   1.342   4.557   4.258 -0.7024 -0.2960 -0.4724
  138MOL0     C18522   1.421   4.470   4.184 -0.3670  0.4307 -0.3120
  138MOL0     C18523   1.467   4.339   4.235 -0.0862 -0.2005 -0.6571
  138MOL0     C18524   1.565   4.256   4.164 -0.2036  0.2799  0.1063
  138MOL0     O18525   1.587   4.129   4.204 -0.1108  0.5762  0.2339
  138MOL0     C18526   1.693   4.074   4.141  0.4799  0.5455  0.5738
  138MOL0     C18527   1.804   4.032   4.213 -1.0312  0.5438  0.9704
  138MOL0     C18528   1.917   3.974   4.137  0.1782  0.4283  0.2825
  138MOL0     C18529   1.911   3.964   4.000  0.2437  0.5464  0.4949
  138MOL0     O18530   2.017   3.897   3.934  0.7382 -0.2893  0.2177
  138MOL0     C18531   2.109   3.978   3.859 -0.0320  0.3321  0.8141
  138MOL0     C18532   2.250   3.961   3.913 -0.4693 -1.1749  0.1552
  138MOL0     C18533   2.353   3.991   3.807  0.2698  0.4409 -0.8639
  138MOL0     C18534   2.341   4.129   3.744  0.5416  0.7240  0.1126
  138MOL0     C18535   2.429   4.140   3.619 -0.7984 -0.4618  0.5077
  138MOL0     C18536   2.485   4.286   3.597  0.5352 -0.5270 -0.5880
  138MOL0     C18537   2.559   4.311   3.467  0.2386  0.2801 -0.0471
  138MOL0     C18538   2.474   4.260   3.349 -0.8761  0.4929  0.4141
  138MOL0    Cl18539   2.301   4.307   3.355 -0.2967  0.0766 -0.2408
  138MOL0     C18540   1.792   3.988   3.929 -0.6324  0.3531 -0.3419
  138MOL0     C18541   1.681   4.042   3.997  0.2744 -0.6149 -0.8218
  138MOL0     O18542   1.623   4.321   4.077 -0.1365  0.4427 -0.0916
  138MOL0     C18543   1.419   4.305   4.362 -0.2284  0.2451 -0.6208
  138MOL0     C18544   1.336   4.396   4.436  0.1808 -0.3108  0.4504
  138MOL0     N18545   0.645   4.597   4.387  0.7214 -0.0268  0.5093
  138MOL0     N18546   0.517   4.587   4.436  0.0416 -0.0768 -0.0426
  138MOL0     C18547   0.187   4.674   5.599  0.2520 -1.1068  0.6655
  138MOL0     C18548   0.145   4.678   5.734 -0.3256  1.3946  0.0485
  138MOL0     C18549   0.141   4.835   6.171 -0.7367  0.0334  0.7484
  138MOL0     C18550   0.170   4.738   6.264  0.4686  0.4448 -0.9436
  138MOL0     C18551   0.095   4.736   6.388 -0.4773  0.4018  0.2002
  138MOL0     C18552  -0.004   4.830   6.414 -0.1349 -0.5106  0.2548
  138MOL0     O18553  -0.066   4.799   6.528  0.0763 -1.0569 -0.1420
  138MOL0     C18554  -0.177   4.884   6.567  0.1474 -0.3819 -0.0724
  138MOL0     C18555  -0.241   4.834   6.698 -0.1451  0.0755 -0.7696
  138MOL0     C18556  -0.394   4.841   6.704  0.1306  0.1824  0.0499
  138MOL0     C18557  -0.450   4.796   6.833 -0.4263 -0.1360  0.7730
  138MOL0     C18558  -0.442   4.650   6.846  0.8444  1.2132  0.9348
  138MOL0     C18559  -0.435   4.528   6.862  0.4576  0.3575  0.5724
  138MOL0     C18560  -0.030   4.927   6.320 -0.2723 -0.2859  0.6372
  138MOL0     C18561   0.045   4.934   6.203 -0.2570 -0.0262  0.7171
  138MOL0     C18562   0.013   5.033   6.098  0.4823  0.4682  1.3595
  138MOL0     H18563   0.223   5.000   5.805  1.9282  1.7680 -2.5040
  138MOL0     H18564   0.293   5.011   5.576  0.0430 -0.0972 -1.4347
  138MOL0     H18565   0.341   4.977   5.381  0.5555 -0.0023 -1.0815
  138MOL0     H18566   0.472   4.858   5.403  1.9346  1.2243 -1.4743
  138MOL0     H18567   0.443   4.938   5.164  0.7836  0.9341  1.5711
  138MOL0     H18568   0.288   4.860   5.167 -0.2723  4.3165 -0.4217
  138MOL0     H18569   0.392   4.640   5.203  1.4868 -0.7754 -0.1574
  138MOL0     H18570   0.543   4.695   5.246  1.2626  0.3654 -1.6329
  138MOL0     H18571   0.569   4.792   5.021  0.1069  0.7804 -2.2428
  138MOL0     H18572   0.547   4.621   4.999  0.5299 -0.2628 -0.5644
  138MOL0     H18573   0.318   4.640   4.966 -0.3960  0.7605  1.6332
  138MOL0     H18574   0.336   4.819   4.942  1.6774  1.7080  0.8741
  138MOL0     H18575   0.489   4.789   4.755  0.8284 -0.9982 -0.5575
  138MOL0     H18576   0.516   4.617   4.797  1.7435  0.5143 -0.4407
  138MOL0     H18577   0.234   4.714   4.741 -1.2475 -1.2963  0.7411
  138MOL0     H18578   0.299   4.565   4.679  0.9547 -1.2660  0.5229
  138MOL0     H18579   0.273   4.688   4.499 -3.5107  1.7229  2.7761
  138MOL0     H18580   0.340   4.841   4.566  0.1195 -0.2763  0.8406
  138MOL0     H18581   0.588   4.895   4.500 -1.7595 -0.7751  3.7904
  138MOL0     H18582   0.814   4.777   4.244 -2.9842 -0.2553 -0.6881
  138MOL0     H18583   0.845   4.874   4.389  1.7341 -0.1360 -0.3134
  138MOL0     H18584   0.945   4.691   4.503 -2.7704  0.4076 -0.0233
  138MOL0     H18585   0.949   4.595   4.362  2.9239  0.1312 -0.1657
  138MOL0     H18586   1.065   4.861   4.300  2.3081 -0.7609 -1.6789
  138MOL0     H18587   1.095   4.686   4.247 -0.3063 -1.6811  0.4102
  138MOL0     H18588   1.168   4.817   4.513  1.9865  2.5778 -1.0619
  138MOL0     H18589   1.282   4.792   4.378  1.9512 -2.3418 -1.4396
  138MOL0     H18590   1.321   4.652   4.210  1.5878  0.8526  0.6308
  138MOL0     H18591   1.451   4.506   4.086  2.1606  2.4929  1.0992
  138MOL0     H18592   1.810   4.035   4.322  1.7437  1.2773  0.8744
  138MOL0     H18593   2.010   3.941   4.183  0.6514 -0.0340 -0.9567
  138MOL0     H18594   2.109   3.945   3.755 -2.8144  0.0928  0.8255
  138MOL0     H18595   2.080   4.083   3.869 -0.6073  0.2017  0.5160
  138MOL0     H18596   2.272   4.019   4.003 -0.5432 -3.1021  1.4800
  138MOL0     H18597   2.267   3.857   3.943  1.1981 -1.3246 -1.1431
  138MOL0     H18598   2.451   3.986   3.856 -0.5213  0.9338  0.8167
  138MOL0     H18599   2.341   3.918   3.726  0.4016  1.4445 -1.8224
  138MOL0     H18600   2.370   4.212   3.809 -0.4654 -0.2261  1.8458
  138MOL0     H18601   2.239   4.148   3.709  0.7348  1.9575  0.1774
  138MOL0     H18602   2.370   4.107   3.532  0.6580 -1.6547 -0.0756
  138MOL0     H18603   2.514   4.073   3.630  0.1372 -0.7575 -5.3647
  138MOL0     H18604   2.397   4.351   3.598 -0.9521 -2.3552  2.3676
  138MOL0     H18605   2.545   4.306   3.686 -2.2183  0.4634  1.1871
  138MOL0     H18606   2.659   4.266   3.463 -1.1334 -2.9504 -1.2564
  138MOL0     H18607   2.575   4.418   3.454  0.1746  0.1939 -0.8467
  138MOL0     H18608   2.515   4.300   3.256 -0.3226 -1.8260 -0.4045
  138MOL0     H18609   2.482   4.151   3.337  1.9488  0.5669  0.9377
  138MOL0     H18610   1.784   3.958   3.825  1.7714 -1.2392 -0.1614
  138MOL0     H18611   1.600   4.070   3.929  1.7456 -1.2515 -2.9269
  138MOL0     H18612   1.446   4.212   4.411 -4.4367  0.2245  2.2081
  138MOL0     H18613   1.300   4.374   4.536  0.4296 -1.2883  0.3375
  138MOL0     H18614   0.176   4.576   5.555 -0.6418 -0.8764  0.3478
  138MOL0     H18615   0.106   4.590   5.784  1.0319  0.4138 -0.5514
  138MOL0     H18616   0.253   4.669   6.252 -0.6293 -1.3865  1.2078
  138MOL0     H18617   0.126   4.666   6.464 -0.7760  1.3982  1.2660
  138MOL0     H18618  -0.250   4.880   6.485  0.4563  1.0647 -0.4381
  138MOL0     H18619  -0.152   4.988   6.585 -0.6970 -0.3882  1.2928
  138MOL0     H18620  -0.191   4.888   6.779  0.5166  0.2950 -1.3219
  138MOL0     H18621  -0.212   4.729   6.697 -0.4901 -0.0369 -0.0213
  138MOL0     H18622  -0.442   4.789   6.621 -3.5813  0.2919  1.9196
  138MOL0     H18623  -0.404   4.948   6.686  1.9850  0.8929  2.6258
  138MOL0     H18624  -0.390   4.830   6.918  1.5645 -1.1619 -0.1596
  138MOL0     H18625  -0.555   4.825   6.844 -0.8100 -0.7771 -0.8747
  138MOL0     H18626  -0.441   4.423   6.884 -1.4906  0.4912  0.8749
  138MOL0     H18627  -0.121   4.984   6.334  0.3351 -0.0632  6.1495
  138MOL0     H18628  -0.066   5.103   6.126 -2.5943 -1.7330 -1.0930
  138MOL0     H18629   0.107   5.083   6.072 -0.5522  0.9726 -1.7670
  138MOL0     H18630  -0.025   4.993   6.004  1.2735  0.6641  0.9545
  139MOL0     O18631   2.746   9.056   1.978 -0.0994 -0.3881 -0.4009
  139MOL0     C18632   2.671   9.134   2.025  0.3363  0.9873  0.1588
  139MOL0     O18633   2.685   9.267   2.019 -0.3094  0.4290  0.3787
  139MOL0     C18634   2.794   9.330   1.952  0.5488  0.6521 -0.3299
  139MOL0     C18635   2.913   9.350   2.024  0.0930  0.2220 -0.9410
  139MOL0     C18636   3.029   9.394   1.957  0.0566 -0.9383 -0.1556
  139MOL0     C18637   3.016   9.437   1.826 -0.5237 -0.1032 -0.7552
  139MOL0     O18638   3.130   9.504   1.779  0.2316 -1.2487 -0.1840
  139MOL0     C18639   3.178   9.452   1.655 -0.3252  0.1533  0.1961
  139MOL0     C18640   3.177   9.559   1.538 -0.0981  0.3498 -0.3672
  139MOL0     C18641   3.045   9.588   1.468 -0.0142 -0.4158 -1.1984
  139MOL0     C18642   3.061   9.686   1.354 -0.3358  0.8107 -0.5744
  139MOL0     C18643   2.935   9.699   1.268  0.3789 -0.8697 -0.5517
  139MOL0     C18644   2.939   9.838   1.197  0.5029  0.2504 -0.1414
  139MOL0     C18645   3.005   9.818   1.072  0.0728 -0.1191  0.1848
  139MOL0     C18646   3.010   9.946   0.991 -0.3453  0.1728 -0.2714
  139MOL0     N18647   3.112   9.932   0.886 -0.8606  0.0666  0.5885
  139MOL0     C18648   3.112   9.851   0.773 -0.1611  0.4278  0.1598
  139MOL0     C18649   3.232   9.877   0.714  0.2252  0.0877  0.0564
  139MOL0     C18650   3.276   9.829   0.581 -1.3021  0.6526 -0.5773
  139MOL0     C18651   3.338   9.690   0.579  0.8429  0.1061  0.8597
  139MOL0     C18652   3.368   9.638   0.438  0.8498 -0.0624 -0.6715
  139MOL0     C18653   3.496   9.712   0.406  0.4367 -0.5897  0.0739
  139MOL0     O18654   3.591   9.627   0.343 -0.4308 -0.1871  0.1436
  139MOL0     C18655   3.552   9.579   0.217 -0.4250 -0.7479 -0.0683
  139MOL0     C18656   3.599   9.441   0.189 -0.2378 -0.1633  0.6505
  139MOL0     C18657   3.594   9.388   0.067  0.5638 -0.3263 -0.1019
  139MOL0     C18658   3.544   9.467  -0.039 -0.8869  0.2963 -0.3306
  139MOL0     C18659   3.537   9.420  -0.177  1.4211 -0.9142 -0.3803
  139MOL0     O18660   3.505   9.511  -0.277 -0.0278 -0.2370 -0.4864
  139MOL0     C18661   3.508   9.478  -0.419 -0.4231  0.7004  0.0553
  139MOL0     C18662   3.572   9.367  -0.481  0.1623 -1.0582 -0.6969
  139MOL0     C18663   3.571   9.342  -0.618  0.0396 -0.0195 -0.3644
  139MOL0     C18664   3.501   9.417  -0.701  0.8234 -0.4993  0.1175
  139MOL0     O18665   3.493   9.374  -0.832 -0.3018  0.2284 -0.1959
  139MOL0     C18666   3.374   9.410  -0.906 -0.0398  0.2385  0.4362
  139MOL0     C18667   3.395   9.526  -0.999  0.0753  0.1611 -0.3729
  139MOL0     C18668   3.309   9.507  -1.125 -0.4794 -0.4505 -0.0032
  139MOL0     C18669   3.338   9.622  -1.224  0.9642 -0.1130 -0.1538
  139MOL0     C18670   3.242   9.607  -1.344 -0.4549  0.1555  0.3106
  139MOL0     C18671   3.230   9.719  -1.453 -0.0184 -1.4163 -0.1230
  139MOL0     C18672   3.121   9.699  -1.561 -0.2394  0.3455  0.4134
  139MOL0     C18673   3.076   9.843  -1.605  0.0950 -0.1997 -0.4308
  139MOL0    Cl18674   3.016   9.954  -1.467  0.0129  0.2059 -0.0133
  139MOL0     C18675   3.444   9.536  -0.649 -0.0872  0.2713  0.2418
  139MOL0     C18676   3.448   9.566  -0.512  0.1922  0.5349 -0.5246
  139MOL0     O18677   3.555   9.303  -0.198  0.3498  0.6661 -0.1906
  139MOL0     C18678   3.487   9.591  -0.012  1.3079 -0.6374  0.0129
  139MOL0     C18679   3.497   9.656   0.115 -0.5465  0.1459  0.6884
  139MOL0     N18680   3.294   9.984   0.781  0.1962  0.2456  0.3883
  139MOL0     N18681   3.221  10.019   0.879  0.7723  0.1450  0.1993
  139MOL0     C18682   2.896   9.424   1.755 -0.1914  0.2404  0.3797
  139MOL0     C18683   2.787   9.360   1.817 -0.6086  0.1154 -0.6636
  139MOL0     C18684   2.554   9.081   2.104 -0.5606 -0.7355  0.5904
  139MOL0     C18685   2.464   9.179   2.164 -0.5668  1.3797 -0.1121
  139MOL0     C18686   2.360   9.137   2.245  0.7514 -0.2382 -0.7052
  139MOL0     C18687   2.327   9.005   2.266 -0.8357  0.6153 -1.3109
  139MOL0     O18688   2.221   8.964   2.345  0.0872  0.0662  0.5045
  139MOL0     C18689   2.137   8.853   2.318 -0.5295  0.1795  0.2219
  139MOL0     C18690   2.006   8.908   2.264 -0.1406  0.7750  0.0218
  139MOL0     C18691   2.020   9.023   2.156  0.0880 -0.1901  0.0533
  139MOL0     C18692   1.879   9.083   2.116  0.4801  0.5513  0.4528
  139MOL0     C18693   1.895   9.168   2.000 -0.3126 -0.1297 -0.0256
  139MOL0     C18694   1.903   9.229   1.899 -0.0357  0.1866 -0.4859
  139MOL0     C18695   2.413   8.908   2.201  0.5323  0.5443  0.3368
  139MOL0     C18696   2.528   8.943   2.120  0.3756 -0.0959 -0.2300
  139MOL0     C18697   2.603   8.828   2.056  1.2478  0.2525 -0.3254
  139MOL0     H18698   2.916   9.326   2.130 -0.5607  2.0509 -0.4712
  139MOL0     H18699   3.124   9.407   2.007  1.1421  0.5233 -2.4295
  139MOL0     H18700   3.283   9.424   1.670 -1.4345 -3.6036  2.1038
  139MOL0     H18701   3.119   9.370   1.614  2.1387 -0.8874 -1.5437
  139MOL0     H18702   3.249   9.521   1.466 -0.2630 -1.9015  0.5552
  139MOL0     H18703   3.207   9.655   1.581  1.0390 -0.3610  0.4833
  139MOL0     H18704   2.975   9.633   1.539  0.9991  1.7073 -1.4470
  139MOL0     H18705   3.009   9.491   1.434 -1.0155 -0.1353 -0.9627
  139MOL0     H18706   3.091   9.784   1.393 -1.4612  1.0738 -0.3474
  139MOL0     H18707   3.141   9.653   1.286  1.7409 -1.2143  2.5762
  139MOL0     H18708   2.924   9.605   1.212  0.2425 -0.4756 -1.1951
  139MOL0     H18709   2.847   9.700   1.333  4.2168  1.6740  5.4519
  139MOL0     H18710   2.840   9.876   1.170  1.7037  2.1457 -2.1828
  139MOL0     H18711   2.994   9.909   1.260 -1.1660  1.7441 -0.2797
  139MOL0     H18712   2.939   9.750   1.016 -2.9637  2.5546  0.2337
  139MOL0     H18713   3.102   9.774   1.095  2.1400  3.9849  0.1395
  139MOL0     H18714   2.921   9.952   0.928  1.1057 -0.3657 -2.4926
  139MOL0     H18715   3.023  10.036   1.051  2.5135 -1.8211  2.3983
  139MOL0     H18716   3.027   9.791   0.741  0.1627  0.9329 -1.7496
  139MOL0     H18717   3.193   9.828   0.509  0.6005 -0.5989 -2.8921
  139MOL0     H18718   3.350   9.899   0.541  0.7521 -1.7076 -1.1654
  139MOL0     H18719   3.425   9.688   0.646  1.3194  0.3454  0.2572
  139MOL0     H18720   3.256   9.635   0.626  2.6342 -1.0202  2.8695
  139MOL0     H18721   3.291   9.656   0.362  1.5419  1.3036 -1.0691
  139MOL0     H18722   3.383   9.530   0.430  0.8149  0.0114 -1.9753
  139MOL0     H18723   3.550   9.744   0.496 -1.6684 -2.3915  2.1306
  139MOL0     H18724   3.481   9.797   0.339  2.9906 -0.4834 -0.4538
  139MOL0     H18725   3.638   9.391   0.277  1.5197  1.1987  0.6996
  139MOL0     H18726   3.644   9.294   0.048  0.0864 -1.0324  1.9189
  139MOL0     H18727   3.627   9.300  -0.416 -0.6209 -0.3236  0.7974
  139MOL0     H18728   3.635   9.264  -0.657  0.0729  1.1175 -2.7535
  139MOL0     H18729   3.348   9.317  -0.959 -1.3200  2.1725 -2.6059
  139MOL0     H18730   3.291   9.429  -0.837 -0.7339  2.2765 -0.8818
  139MOL0     H18731   3.360   9.618  -0.951 -1.0213  0.5737 -1.8839
  139MOL0     H18732   3.498   9.543  -1.030 -0.0383 -0.2534 -0.9844
  139MOL0     H18733   3.329   9.410  -1.171  2.5585  0.4044 -0.6901
  139MOL0     H18734   3.206   9.505  -1.089  0.0948 -3.4485  1.8399
  139MOL0     H18735   3.438   9.626  -1.268  1.3535  2.9371  0.8069
  139MOL0     H18736   3.311   9.719  -1.183  3.1365 -0.1634  1.5572
  139MOL0     H18737   3.143   9.583  -1.303  0.0002  1.5927  2.4180
  139MOL0     H18738   3.276   9.517  -1.395 -2.2958 -0.5605  0.2526
  139MOL0     H18739   3.216   9.812  -1.397 -2.9497 -2.7361  1.5077
  139MOL0     H18740   3.326   9.735  -1.505 -0.4244 -1.4649 -0.9082
  139MOL0     H18741   3.037   9.642  -1.520 -1.2261 -1.2198 -3.3494
  139MOL0     H18742   3.154   9.640  -1.647 -1.8471 -3.0621  1.9531
  139MOL0     H18743   3.168   9.889  -1.643  1.6569 -2.1067  0.8753
  139MOL0     H18744   3.003   9.843  -1.687 -1.9631  2.5369  1.2002
  139MOL0     H18745   3.407   9.614  -0.715  0.6456  1.9844  1.7454
  139MOL0     H18746   3.411   9.654  -0.460 -1.8496 -0.8861  0.6036
  139MOL0     H18747   3.435   9.660  -0.077  1.5193  1.9629  2.4078
  139MOL0     H18748   3.466   9.760   0.111 -1.0571 -0.0478 -0.9025
  139MOL0     H18749   2.875   9.464   1.657 -1.7677  0.2850  0.7173
  139MOL0     H18750   2.692   9.355   1.765 -0.0602  0.4645 -1.7409
  139MOL0     H18751   2.472   9.288   2.160  1.9422  1.3290  1.3711
  139MOL0     H18752   2.295   9.207   2.296  0.0829 -1.4533  0.1834
  139MOL0     H18753   2.119   8.799   2.412  1.7805  0.8171  1.0989
  139MOL0     H18754   2.179   8.775   2.254  3.7063 -1.5276  4.4379
  139MOL0     H18755   1.942   8.948   2.342 -1.3647 -2.6791  0.9548
  139MOL0     H18756   1.946   8.825   2.224 -3.2546  2.4137  0.9837
  139MOL0     H18757   2.080   8.980   2.076 -2.8903 -1.7773 -1.5030
  139MOL0     H18758   2.075   9.103   2.206 -1.9392  1.0870  0.3645
  139MOL0     H18759   1.811   9.000   2.095 -0.5449  1.6703 -0.9119
  139MOL0     H18760   1.841   9.147   2.196  2.5008  2.1270  0.2334
  139MOL0     H18761   1.912   9.290   1.811 -0.5029 -1.0659 -1.4485
  139MOL0     H18762   2.391   8.803   2.214 -0.0031  0.7120  0.8112
  139MOL0     H18763   2.709   8.813   2.081  0.6202 -1.6201  1.5225
  139MOL0     H18764   2.557   8.733   2.081 -0.5772 -0.2553 -4.7229
  139MOL0     H18765   2.590   8.834   1.948 -0.9078  0.4534 -0.0966
  140MOL0     O18766  11.129   4.483   9.210 -0.1349  0.2760 -0.7946
  140MOL0     C18767  11.043   4.478   9.294 -0.5165 -0.1506  0.2496
  140MOL0     O18768  11.060   4.527   9.419 -0.1009 -0.8032 -0.2638
  140MOL0     C18769  11.160   4.615   9.466  0.0563 -0.6313  0.0232
  140MOL0     C18770  11.249   4.696   9.392  0.0258  0.1589 -0.8982
  140MOL0     C18771  11.335   4.783   9.464 -0.1016 -0.5304 -0.2294
  140MOL0     C18772  11.336   4.785   9.605 -0.3692  1.2454  0.3093
  140MOL0     O18773  11.425   4.860   9.684  0.3515  1.1071  0.5094
  140MOL0     C18774  11.450   4.984   9.628  0.0287 -0.6892 -0.1262
  140MOL0     C18775  11.542   5.054   9.734  0.4701 -0.3265 -0.3567
  140MOL0     C18776  11.505   5.022   9.879 -0.2322  0.7748 -0.2565
  140MOL0     C18777  11.594   5.090   9.980 -0.3213 -0.0750  0.1694
  140MOL0     C18778  11.599   5.019  10.119 -0.5170  0.1256 -0.2968
  140MOL0     C18779  11.708   5.074  10.202 -0.2634 -0.7533  0.3760
  140MOL0     C18780  11.658   5.203  10.269  0.7464 -0.8572  0.2329
  140MOL0     C18781  11.755   5.268  10.365 -0.5864  0.2031  0.0908
  140MOL0     N18782  11.705   5.402  10.398 -1.0188 -0.5678  0.1068
  140MOL0     C18783  11.576   5.451  10.407 -0.3945 -0.5459 -0.2580
  140MOL0     C18784  11.584   5.589  10.415  0.1304  0.2078  0.0567
  140MOL0     C18785  11.475   5.694  10.399 -0.7608 -0.1201 -0.4783
  140MOL0     C18786  11.415   5.748  10.527  0.0011 -0.1070  0.4653
  140MOL0     C18787  11.507   5.780  10.642 -0.1085  0.3230  0.5555
  140MOL0     C18788  11.628   5.867  10.606 -0.5201 -0.2051 -1.1291
  140MOL0     O18789  11.701   5.887  10.734 -0.7711 -0.0540  1.0791
  140MOL0     C18790  11.835   5.910  10.745  0.8140  0.0068  0.3345
  140MOL0     C18791  11.886   5.994  10.842  0.4791 -0.9329 -0.8394
  140MOL0     C18792  12.012   6.038  10.849 -0.1138  0.2017 -0.8863
  140MOL0     C18793  12.100   5.980  10.755  0.1381 -1.4391 -0.4977
  140MOL0     C18794  12.235   6.020  10.744  0.3523 -0.3494  0.2557
  140MOL0     O18795  12.314   5.925  10.687 -0.1850  0.4392 -0.9773
  140MOL0     C18796  12.444   5.962  10.686  0.0177  0.2553 -0.2978
  140MOL0     C18797  12.539   5.898  10.764 -0.0208  0.2682  0.7787
  140MOL0     C18798  12.669   5.941  10.760  0.9718  0.2176 -0.1461
  140MOL0     C18799  12.712   6.038  10.671  0.2545  0.1927 -0.7522
  140MOL0     O18800  12.833   6.092  10.677 -0.5189  0.5758 -0.1749
  140MOL0     C18801  12.924   6.031  10.586  0.2078 -0.3379 -0.1085
  140MOL0     C18802  13.040   5.940  10.645 -0.4081 -0.7450 -0.1681
  140MOL0     C18803  13.128   5.888  10.527  0.0695 -0.3493 -0.4830
  140MOL0     C18804  13.215   6.003  10.473 -0.1745  0.4363  0.5984
  140MOL0     C18805  13.358   5.942  10.456  0.9359  0.7092  0.1725
  140MOL0     C18806  13.450   6.043  10.395 -0.7514  0.5434 -0.0201
  140MOL0     C18807  13.578   5.983  10.344 -0.8307  0.4999  0.0710
  140MOL0     C18808  13.553   5.883  10.235 -0.7315 -0.1995  0.5212
  140MOL0    Cl18809  13.710   5.841  10.151  0.2013 -0.3037  0.2203
  140MOL0     C18810  12.619   6.102  10.590  0.6228  0.0109  0.0891
  140MOL0     C18811  12.487   6.070  10.601  0.1905  0.3634 -0.2827
  140MOL0     O18812  12.275   6.132  10.790 -0.0371  0.4543 -0.0073
  140MOL0     C18813  12.059   5.891  10.660  0.3779 -1.0129 -0.7669
  140MOL0     C18814  11.926   5.859  10.653  0.3472  0.0919 -0.5768
  140MOL0     N18815  11.721   5.611  10.428  0.3650  0.1994  0.2312
  140MOL0     N18816  11.792   5.503  10.402 -0.2598 -0.3787 -0.3327
  140MOL0     C18817  11.240   4.701   9.670 -0.0012 -0.3589 -0.0989
  140MOL0     C18818  11.153   4.625   9.602 -0.1943 -0.0658  0.1599
  140MOL0     C18819  10.917   4.410   9.254  0.4160 -0.1138  1.3309
  140MOL0     C18820  10.833   4.355   9.354 -0.2813 -1.2806  0.1890
  140MOL0     C18821  10.732   4.267   9.330 -0.3163  0.3114 -0.3684
  140MOL0     C18822  10.695   4.223   9.204 -0.5186  0.0527  1.0163
  140MOL0     O18823  10.580   4.148   9.196 -0.1936 -0.6844 -0.3384
  140MOL0     C18824  10.565   4.081   9.072  0.1494  0.4229  0.1128
  140MOL0     C18825  10.467   4.160   8.993 -0.8218 -0.0555 -0.4683
  140MOL0     C18826  10.444   4.111   8.850  0.5415  0.4268 -0.6421
  140MOL0     C18827  10.371   3.977   8.843 -0.6887 -0.0739 -0.3232
  140MOL0     C18828  10.238   3.976   8.892 -0.2325  0.1627 -0.2314
  140MOL0     C18829  10.128   3.979   8.938  0.6487  0.2347 -0.0115
  140MOL0     C18830  10.764   4.294   9.096 -0.9688 -0.1237 -0.3837
  140MOL0     C18831  10.877   4.382   9.113 -0.1453  0.3732 -0.6359
  140MOL0     C18832  10.943   4.424   8.982 -0.2309  0.2061 -0.2480
  140MOL0     H18833  11.259   4.703   9.284  0.7441  0.6080 -0.8080
  140MOL0     H18834  11.422   4.824   9.415 -1.7823 -0.0442 -3.0006
  140MOL0     H18835  11.511   4.979   9.538 -2.2270  0.6722 -1.8350
  140MOL0     H18836  11.353   5.033   9.613 -2.2282 -4.4271  0.7811
  140MOL0     H18837  11.556   5.162   9.722  1.4544 -0.4009  0.0509
  140MOL0     H18838  11.645   5.021   9.720  0.2704 -0.1407 -2.5324
  140MOL0     H18839  11.515   4.914   9.897 -3.2437  0.6346  1.4089
  140MOL0     H18840  11.399   5.039   9.902 -1.0745 -3.6387  0.2131
  140MOL0     H18841  11.696   5.099   9.941  0.5902 -4.6801  0.8982
  140MOL0     H18842  11.547   5.189   9.989 -2.4404 -0.8747 -1.4660
  140MOL0     H18843  11.505   5.023  10.175  0.3340 -0.3416  1.2271
  140MOL0     H18844  11.641   4.918  10.124  2.2859  1.2546  1.1842
  140MOL0     H18845  11.750   5.011  10.281 -2.3394 -0.7806  1.5339
  140MOL0     H18846  11.797   5.090  10.142 -0.6345 -0.5243 -0.1200
  140MOL0     H18847  11.572   5.182  10.332  0.6873  1.8241  1.1325
  140MOL0     H18848  11.630   5.279  10.195 -0.4085  0.5784  2.0844
  140MOL0     H18849  11.743   5.205  10.454  0.5574  0.1760  0.2472
  140MOL0     H18850  11.853   5.259  10.316 -0.8109 -0.1037 -0.3068
  140MOL0     H18851  11.484   5.395  10.394 -1.5897  1.6190 -1.5870
  140MOL0     H18852  11.504   5.776  10.332 -4.0357  0.6440 -1.1883
  140MOL0     H18853  11.398   5.636  10.347 -0.9419  1.0865 -1.6283
  140MOL0     H18854  11.355   5.831  10.486  0.1009 -0.6613 -0.8493
  140MOL0     H18855  11.351   5.673  10.572 -3.5176  3.4741  2.0932
  140MOL0     H18856  11.544   5.683  10.678 -0.5437  0.1874  0.6564
  140MOL0     H18857  11.445   5.836  10.713 -2.4459 -0.8578 -0.4396
  140MOL0     H18858  11.597   5.962  10.560 -2.1128  0.6320  1.4783
  140MOL0     H18859  11.679   5.812  10.526  0.4684 -0.9288 -0.0250
  140MOL0     H18860  11.810   6.023  10.913  1.6071  0.4094 -0.1487
  140MOL0     H18861  12.042   6.109  10.926 -0.5477 -1.2878  0.7133
  140MOL0     H18862  12.514   5.814  10.829  0.9958 -1.3201 -0.7813
  140MOL0     H18863  12.738   5.892  10.828 -1.1370 -2.3901  0.2743
  140MOL0     H18864  12.871   5.977  10.507 -0.1146 -3.5639  2.1093
  140MOL0     H18865  12.967   6.115  10.531  0.7316 -0.2777  0.3742
  140MOL0     H18866  13.102   5.993  10.718  1.8181  1.3532 -3.3460
  140MOL0     H18867  12.979   5.864  10.694 -0.4154  0.3760  1.6624
  140MOL0     H18868  13.192   5.805  10.556 -1.1896 -1.5572 -1.0386
  140MOL0     H18869  13.063   5.867  10.441 -2.0815  3.1670  0.0515
  140MOL0     H18870  13.210   6.088  10.542 -0.7634  1.0880 -0.2209
  140MOL0     H18871  13.170   6.042  10.382 -3.3369 -2.5242  0.6817
  140MOL0     H18872  13.347   5.849  10.400  1.2388 -0.4334  1.9511
  140MOL0     H18873  13.393   5.913  10.555  1.5715 -0.2887 -0.3271
  140MOL0     H18874  13.412   6.089  10.304  2.0699  3.3761  0.0539
  140MOL0     H18875  13.479   6.122  10.465  1.4163 -0.7515  0.6361
  140MOL0     H18876  13.633   5.940  10.428  3.7044  1.6552 -1.9472
  140MOL0     H18877  13.644   6.061  10.303 -1.9171  0.8476 -1.0685
  140MOL0     H18878  13.515   5.787  10.269 -2.1870 -1.5504 -4.0971
  140MOL0     H18879  13.484   5.918  10.157  2.7036  1.2724 -2.1603
  140MOL0     H18880  12.656   6.182  10.527  0.4360 -0.3333 -0.4695
  140MOL0     H18881  12.414   6.119  10.539  0.9717  0.1694 -1.3868
  140MOL0     H18882  12.127   5.854  10.584  2.9868  0.4590  0.6986
  140MOL0     H18883  11.888   5.797  10.573  1.3510  1.5245 -2.2485
  140MOL0     H18884  11.236   4.709   9.779  0.6004  2.9473 -0.2177
  140MOL0     H18885  11.089   4.560   9.661  0.6087 -0.6156  0.4522
  140MOL0     H18886  10.872   4.371   9.454 -2.8044  1.7603  0.8591
  140MOL0     H18887  10.687   4.217   9.415  3.0890 -2.3064  0.0849
  140MOL0     H18888  10.514   3.985   9.087 -0.5896  1.1777  3.0205
  140MOL0     H18889  10.658   4.055   9.021  0.4980 -0.5330  1.1812
  140MOL0     H18890  10.517   4.257   8.986  0.5800 -0.8337 -1.6604
  140MOL0     H18891  10.373   4.174   9.048 -0.0013  1.0530  0.7021
  140MOL0     H18892  10.543   4.112   8.804  0.5619  1.1476 -0.5980
  140MOL0     H18893  10.389   4.189   8.795  0.1648 -0.3159 -1.3549
  140MOL0     H18894  10.361   3.932   8.743 -4.9854 -1.6792  0.6107
  140MOL0     H18895  10.430   3.902   8.898 -3.4760 -2.2847 -0.1293
  140MOL0     H18896  10.032   4.014   8.970  1.3064  0.8195  1.4120
  140MOL0     H18897  10.728   4.282   8.994 -2.3659 -0.4784  0.1183
  140MOL0     H18898  10.913   4.523   8.945  2.3345  1.3963  0.5866
  140MOL0     H18899  11.048   4.436   9.010 -0.5446 -1.2244  1.7658
  140MOL0     H18900  10.934   4.346   8.907  0.4067 -0.4491  0.3468
  141MOL0     O18901   9.110   0.668   5.462  0.4741 -0.0444 -0.5520
  141MOL0     C18902   9.047   0.687   5.359  0.3680 -0.4061 -0.0350
  141MOL0     O18903   9.050   0.607   5.241 -0.0335  0.1885  0.2587
  141MOL0     C18904   9.083   0.478   5.263 -0.3397 -0.3913 -0.7310
  141MOL0     C18905   8.998   0.367   5.268 -0.1793 -0.1029  0.6121
  141MOL0     C18906   9.034   0.236   5.276  0.0920  0.2773  0.1184
  141MOL0     C18907   9.173   0.206   5.302 -0.5408  0.4303 -0.3776
  141MOL0     O18908   9.230   0.084   5.325  0.5632 -0.3903 -0.4665
  141MOL0     C18909   9.179  -0.018   5.233  0.4443  0.2876  0.0933
  141MOL0     C18910   9.248  -0.157   5.266  0.1859  1.0093  0.0328
  141MOL0     C18911   9.397  -0.149   5.247 -0.7835  0.6426  0.1625
  141MOL0     C18912   9.471  -0.283   5.238 -0.8912 -0.6446  0.5921
  141MOL0     C18913   9.485  -0.341   5.378  1.1048  0.4959 -0.3442
  141MOL0     C18914   9.538  -0.484   5.378 -0.0235  0.3253  0.0992
  141MOL0     C18915   9.671  -0.491   5.309 -0.6865  0.9407  0.7679
  141MOL0     C18916   9.757  -0.611   5.367  0.3951  0.2923 -0.0258
  141MOL0     N18917   9.677  -0.736   5.333 -0.4190 -0.0187  0.3734
  141MOL0     C18918   9.665  -0.788   5.205 -0.2732  1.3004 -1.0426
  141MOL0     C18919   9.604  -0.901   5.227  0.6107  0.3731 -0.4906
  141MOL0     C18920   9.588  -1.012   5.121  0.6150  0.3112 -0.2431
  141MOL0     C18921   9.443  -1.047   5.098  1.1011 -0.2780 -0.3074
  141MOL0     C18922   9.425  -1.141   4.988  0.1084  0.3645  0.6118
  141MOL0     C18923   9.273  -1.164   4.968 -0.2974 -1.1419  0.9105
  141MOL0     O18924   9.196  -1.045   4.951 -0.0776  0.4043 -0.0422
  141MOL0     C18925   9.064  -1.050   4.985 -0.2726 -0.2419  0.3719
  141MOL0     C18926   8.989  -0.929   4.979 -0.6826  0.2983  0.9918
  141MOL0     C18927   8.856  -0.925   5.011 -0.3111  0.4259 -0.2476
  141MOL0     C18928   8.784  -1.029   5.067 -0.5461  0.5138 -0.3549
  141MOL0     C18929   8.630  -1.023   5.084  0.2025 -0.2092 -0.1413
  141MOL0     O18930   8.561  -0.901   5.042 -0.1580  0.0244 -0.6067
  141MOL0     C18931   8.424  -0.903   5.035 -0.4334 -0.5232  0.1442
  141MOL0     C18932   8.342  -0.822   5.116  0.2007  0.9417  0.2597
  141MOL0     C18933   8.211  -0.812   5.099  0.2073 -0.2885 -0.6698
  141MOL0     C18934   8.148  -0.876   4.992 -0.8254  0.4159 -0.8453
  141MOL0     O18935   8.021  -0.831   4.968 -0.4317 -0.3580  0.6194
  141MOL0     C18936   7.955  -0.876   4.846  0.4065  0.6907  0.3866
  141MOL0     C18937   7.812  -0.827   4.863  0.4577 -0.0874 -0.6436
  141MOL0     C18938   7.744  -0.847   4.725  0.0084  0.3904  0.1544
  141MOL0     C18939   7.777  -0.977   4.650 -0.1684  0.4552 -0.8284
  141MOL0     C18940   7.700  -0.993   4.520  0.2448  0.4790  0.4966
  141MOL0     C18941   7.791  -1.065   4.407  0.1986  0.1476 -0.3758
  141MOL0     C18942   7.748  -1.065   4.259  0.1468 -0.4236  0.2129
  141MOL0     C18943   7.865  -1.006   4.164 -0.2845  0.2161 -0.5203
  141MOL0    Cl18944   7.806  -1.025   3.994 -0.0660 -0.0047 -0.2838
  141MOL0     C18945   8.231  -0.958   4.904 -0.0886  0.5802 -0.2930
  141MOL0     C18946   8.370  -0.968   4.929 -0.6039  0.1240 -0.0286
  141MOL0     O18947   8.576  -1.126   5.127  0.2866 -0.4274  0.6715
  141MOL0     C18948   8.856  -1.149   5.076 -0.3178 -0.0797  0.4432
  141MOL0     C18949   8.990  -1.162   5.032 -0.2858 -0.0969 -0.2926
  141MOL0     N18950   9.558  -0.911   5.358  0.6078 -0.3012  0.2004
  141MOL0     N18951   9.589  -0.796   5.417 -0.3544 -0.1187  0.4158
  141MOL0     C18952   9.264   0.310   5.296 -0.2229 -0.1286 -0.9565
  141MOL0     C18953   9.220   0.441   5.283  0.4165  0.5113 -0.0897
  141MOL0     C18954   8.967   0.814   5.350  0.1263 -0.5452  0.2255
  141MOL0     C18955   8.854   0.812   5.265  0.0731  0.3111 -0.0163
  141MOL0     C18956   8.776   0.930   5.249 -0.4996  0.3904  0.0583
  141MOL0     C18957   8.793   1.052   5.319 -0.3292  0.5511 -0.5319
  141MOL0     O18958   8.716   1.166   5.326  0.2666 -0.0446 -0.2606
  141MOL0     C18959   8.635   1.202   5.222 -0.0545  0.2315 -0.5099
  141MOL0     C18960   8.486   1.215   5.265  0.4145  0.2432  1.8687
  141MOL0     C18961   8.422   1.075   5.292 -0.0551  0.0308 -0.3135
  141MOL0     C18962   8.271   1.090   5.318 -0.2885 -0.9783  0.2851
  141MOL0     C18963   8.204   0.957   5.334 -0.6349 -0.6332  0.6930
  141MOL0     C18964   8.164   0.845   5.347 -1.0789  0.7587 -0.0667
  141MOL0     C18965   8.907   1.052   5.407  0.5383  0.7305 -0.3431
  141MOL0     C18966   8.990   0.936   5.419  0.3143  0.6380 -0.5393
  141MOL0     C18967   9.108   0.945   5.515  0.1803  0.0328  0.1101
  141MOL0     H18968   8.892   0.386   5.257 -0.5262 -1.4829  1.3210
  141MOL0     H18969   8.962   0.156   5.287  1.0542 -0.3439  3.0280
  141MOL0     H18970   9.073  -0.041   5.243  1.2141 -5.0367 -1.0231
  141MOL0     H18971   9.192   0.014   5.129 -1.2344  0.1893 -0.1742
  141MOL0     H18972   9.211  -0.230   5.193 -1.8525 -1.9024  3.6038
  141MOL0     H18973   9.224  -0.189   5.368  0.1796 -3.2655 -1.0956
  141MOL0     H18974   9.429  -0.109   5.344  0.8293 -4.0013  1.8530
  141MOL0     H18975   9.417  -0.092   5.156 -0.2085 -1.9756 -1.4603
  141MOL0     H18976   9.421  -0.350   5.167 -0.9101 -1.2225  1.1493
  141MOL0     H18977   9.566  -0.263   5.186 -2.3595 -1.1475 -2.5448
  141MOL0     H18978   9.542  -0.274   5.442 -0.4015  1.1668  0.3419
  141MOL0     H18979   9.389  -0.337   5.431 -0.7435  0.9194 -3.4678
  141MOL0     H18980   9.548  -0.515   5.482  0.1885 -0.6353 -0.1985
  141MOL0     H18981   9.467  -0.554   5.334 -0.0766  0.7880 -0.5647
  141MOL0     H18982   9.730  -0.400   5.326  3.8181 -1.0163 -2.3449
  141MOL0     H18983   9.655  -0.491   5.201  1.6190  2.0762  0.3710
  141MOL0     H18984   9.857  -0.616   5.323  1.6470  1.1195  2.5006
  141MOL0     H18985   9.772  -0.606   5.475 -0.7164 -2.2482  0.3130
  141MOL0     H18986   9.707  -0.762   5.108  1.7005 -1.3239 -0.9868
  141MOL0     H18987   9.637  -0.989   5.026  2.2003 -1.1642  0.1565
  141MOL0     H18988   9.639  -1.102   5.156 -0.8994 -0.0691  1.1273
  141MOL0     H18989   9.399  -1.085   5.190 -0.5812  0.6447 -0.6929
  141MOL0     H18990   9.392  -0.952   5.078 -0.0100 -0.5910  0.8986
  141MOL0     H18991   9.480  -1.234   5.009  1.8599  1.2256  0.0530
  141MOL0     H18992   9.467  -1.102   4.895  1.5571 -0.6111  0.8112
  141MOL0     H18993   9.248  -1.217   5.060 -3.2631  0.9499  1.4738
  141MOL0     H18994   9.260  -1.233   4.885  0.4816  0.1732 -0.3613
  141MOL0     H18995   9.025  -0.851   4.913 -1.0848 -0.2643  0.0892
  141MOL0     H18996   8.807  -0.828   5.000  1.0251  1.2984  1.0446
  141MOL0     H18997   8.394  -0.769   5.195  2.4342  0.1587 -0.5855
  141MOL0     H18998   8.147  -0.744   5.153  0.8869 -0.0437 -0.1605
  141MOL0     H18999   8.005  -0.836   4.757  1.5314 -2.5723 -0.6023
  141MOL0     H19000   7.960  -0.984   4.827 -0.5661  0.9220 -1.3931
  141MOL0     H19001   7.756  -0.880   4.941  2.4702 -1.5967 -0.1537
  141MOL0     H19002   7.797  -0.720   4.880 -4.7190 -0.7353  0.5184
  141MOL0     H19003   7.637  -0.828   4.741 -0.0780  1.2089 -1.2404
  141MOL0     H19004   7.777  -0.760   4.667 -0.8481  1.3319  1.0277
  141MOL0     H19005   7.750  -1.052   4.726 -0.2411  2.7222  1.5521
  141MOL0     H19006   7.885  -0.972   4.636  0.7419 -0.7852  3.8946
  141MOL0     H19007   7.655  -0.900   4.483 -1.6000 -1.0796 -1.3773
  141MOL0     H19008   7.615  -1.061   4.531 -0.5039  0.9789 -1.7057
  141MOL0     H19009   7.884  -1.008   4.400 -0.1536  0.9055  0.8576
  141MOL0     H19010   7.824  -1.166   4.432 -2.4765 -0.7967 -0.3882
  141MOL0     H19011   7.659  -1.000   4.253  0.0273 -0.1837  3.0322
  141MOL0     H19012   7.724  -1.167   4.228 -1.2675 -0.0113 -0.1508
  141MOL0     H19013   7.906  -0.907   4.191 -0.4904 -0.0340  0.7932
  141MOL0     H19014   7.956  -1.064   4.183  0.6541  1.5781 -0.6233
  141MOL0     H19015   8.192  -1.012   4.819  0.7482  0.4665 -0.6174
  141MOL0     H19016   8.427  -1.036   4.867 -1.4627 -0.5633 -0.0681
  141MOL0     H19017   8.793  -1.234   5.097  1.0449 -1.1401  0.4185
  141MOL0     H19018   9.029  -1.263   5.024 -2.8079 -1.3665  1.8310
  141MOL0     H19019   9.369   0.291   5.316  0.1415  1.8279 -0.8217
  141MOL0     H19020   9.289   0.524   5.295  0.4564  0.3341  0.9953
  141MOL0     H19021   8.837   0.728   5.199  1.7464  0.1223 -0.2518
  141MOL0     H19022   8.686   0.923   5.189 -0.3500 -0.3879 -0.0844
  141MOL0     H19023   8.641   1.127   5.142  0.0896  1.1744 -1.4001
  141MOL0     H19024   8.676   1.301   5.198  2.2837 -0.6198 -0.3275
  141MOL0     H19025   8.438   1.270   5.184  0.7672 -1.4495  0.4351
  141MOL0     H19026   8.484   1.270   5.359  1.4795  0.2744  1.8847
  141MOL0     H19027   8.475   1.024   5.374 -0.4347  0.3196  0.1188
  141MOL0     H19028   8.437   1.015   5.202  2.3445  1.1509 -0.7112
  141MOL0     H19029   8.259   1.134   5.418 -0.1962 -0.3763  0.0364
  141MOL0     H19030   8.218   1.152   5.245  1.4250 -0.9546 -0.9926
  141MOL0     H19031   8.125   0.745   5.340 -0.2935 -0.0076  4.0540
  141MOL0     H19032   8.926   1.140   5.467  1.0657  0.7955 -0.5983
  141MOL0     H19033   9.093   0.874   5.596 -0.5111  2.3648  2.1624
  141MOL0     H19034   9.200   0.916   5.463  0.3367 -0.1087  0.4636
  141MOL0     H19035   9.118   1.037   5.574 -0.5808 -0.8166  1.6128
  142MOL0     O19036   8.320   6.921   8.128 -0.2389  0.4929 -0.1704
  142MOL0     C19037   8.262   6.814   8.130  0.6959 -0.0986 -0.1790
  142MOL0     O19038   8.198   6.761   8.027  0.0179 -0.7683  0.0525
  142MOL0     C19039   8.207   6.831   7.909 -1.8121  0.0800  0.0644
  142MOL0     C19040   8.294   6.789   7.805  0.5301 -0.2342  0.1446
  142MOL0     C19041   8.296   6.854   7.678 -0.8617 -0.0580 -0.9830
  142MOL0     C19042   8.228   6.974   7.658  0.4912  0.5154 -0.6764
  142MOL0     O19043   8.240   7.041   7.538  0.7038 -0.3663 -0.3654
  142MOL0     C19044   8.205   7.181   7.527 -0.2120 -0.5596 -0.3518
  142MOL0     C19045   8.164   7.189   7.389 -0.4504 -0.3750 -0.6610
  142MOL0     C19046   8.038   7.111   7.350 -0.6860  0.2963  0.1214
  142MOL0     C19047   7.917   7.131   7.446  0.4217 -0.2074  0.5679
  142MOL0     C19048   7.804   7.020   7.415 -0.0776  0.2464  0.9107
  142MOL0     C19049   7.848   6.876   7.457 -0.4772 -0.1438 -0.6172
  142MOL0     C19050   7.850   6.852   7.601  0.0611  0.7652 -0.3289
  142MOL0     C19051   7.866   6.710   7.661  0.3655  0.6211 -0.1451
  142MOL0     N19052   7.758   6.618   7.619  0.5102  0.7442  0.5286
  142MOL0     C19053   7.663   6.566   7.710  0.9669 -0.2305  0.3509
  142MOL0     C19054   7.597   6.480   7.634 -0.4929 -1.0630 -0.1867
  142MOL0     C19055   7.480   6.404   7.684  0.6193  0.7963 -0.5152
  142MOL0     C19056   7.367   6.484   7.737 -0.1726  0.2397 -0.2252
  142MOL0     C19057   7.271   6.398   7.811  0.2231  0.2821  0.5131
  142MOL0     C19058   7.172   6.467   7.908  0.1394  0.7755  0.4557
  142MOL0     O19059   7.103   6.578   7.848  0.0887 -0.7050  0.5354
  142MOL0     C19060   6.987   6.629   7.909  0.0376  0.1982 -0.0951
  142MOL0     C19061   6.923   6.576   8.021 -0.0030  0.0155  0.3907
  142MOL0     C19062   6.804   6.623   8.079  0.5922  0.1069  0.1966
  142MOL0     C19063   6.745   6.731   8.006  0.3698 -0.2306 -0.0240
  142MOL0     C19064   6.608   6.780   8.051  0.1743 -0.2138  0.5086
  142MOL0     O19065   6.583   6.771   8.186  0.4621 -0.0046 -0.0098
  142MOL0     C19066   6.467   6.817   8.237  0.5723  0.3508 -0.6629
  142MOL0     C19067   6.348   6.743   8.232  0.8714  0.3531 -0.0127
  142MOL0     C19068   6.235   6.793   8.296  0.2772  0.6703 -0.7670
  142MOL0     C19069   6.238   6.910   8.371  0.1579 -1.0508 -0.0545
  142MOL0     O19070   6.136   6.979   8.422 -0.6397  0.2962  0.5448
  142MOL0     C19071   6.005   6.942   8.373 -0.5128 -0.0455 -0.6428
  142MOL0     C19072   5.901   7.024   8.452  0.7720  0.7308 -0.3307
  142MOL0     C19073   5.900   7.172   8.423 -0.0098  0.4519  0.6848
  142MOL0     C19074   5.795   7.229   8.522 -0.2331  0.4212  0.3877
  142MOL0     C19075   5.776   7.385   8.513 -0.4095 -0.3347  0.5754
  142MOL0     C19076   5.804   7.451   8.650 -0.1046 -0.6760  0.7251
  142MOL0     C19077   5.952   7.473   8.684 -0.4422 -0.1625  0.1484
  142MOL0     C19078   5.963   7.521   8.831 -0.4660  0.4608  0.0662
  142MOL0    Cl19079   6.126   7.581   8.871 -0.3021  0.7298  0.4194
  142MOL0     C19080   6.358   6.982   8.382 -0.0420  0.2865  0.1088
  142MOL0     C19081   6.480   6.929   8.323  0.0202  0.3572  0.0515
  142MOL0     O19082   6.531   6.824   7.966 -0.5267 -0.5037 -0.3394
  142MOL0     C19083   6.796   6.796   7.885 -0.7409  0.8591  0.0471
  142MOL0     C19084   6.911   6.734   7.841 -0.3025 -0.1750 -1.4885
  142MOL0     N19085   7.653   6.469   7.504  0.1093 -0.2342 -0.1754
  142MOL0     N19086   7.752   6.552   7.497  0.0615 -0.7263 -0.2527
  142MOL0     C19087   8.147   7.014   7.768 -0.0612 -0.4503  0.4393
  142MOL0     C19088   8.132   6.942   7.883 -0.1391  0.0570  1.1285
  142MOL0     C19089   8.238   6.748   8.270 -0.2414  0.2150  0.1172
  142MOL0     C19090   8.167   6.626   8.268  0.6073 -0.3124 -0.0181
  142MOL0     C19091   8.138   6.561   8.392  0.1420  0.0369  0.1721
  142MOL0     C19092   8.192   6.593   8.515 -0.2647 -0.0716 -0.1801
  142MOL0     O19093   8.156   6.527   8.626  0.4445 -0.6171  0.6301
  142MOL0     C19094   8.134   6.609   8.749  0.0503  0.5213 -0.2263
  142MOL0     C19095   8.251   6.586   8.845 -0.4557  0.0645 -0.0825
  142MOL0     C19096   8.257   6.680   8.968 -0.3196  0.3647  0.5558
  142MOL0     C19097   8.169   6.632   9.077  0.1531  0.7086  0.2711
  142MOL0     C19098   8.191   6.490   9.107  0.2428 -0.4533 -0.8872
  142MOL0     C19099   8.207   6.366   9.107  0.4121 -0.5859  0.0051
  142MOL0     C19100   8.267   6.708   8.517  0.4999  0.1832 -0.5077
  142MOL0     C19101   8.289   6.789   8.397 -0.6375 -0.2120 -0.5822
  142MOL0     C19102   8.369   6.921   8.411 -0.5885 -0.1043 -0.5053
  142MOL0     H19103   8.348   6.695   7.818  1.4934  0.4637  1.3802
  142MOL0     H19104   8.365   6.827   7.599  2.4968  4.1248  0.1713
  142MOL0     H19105   8.126   7.225   7.589  0.6431 -1.9424  1.8279
  142MOL0     H19106   8.293   7.245   7.533 -1.5660  1.3024  0.8781
  142MOL0     H19107   8.249   7.180   7.321 -1.2163  1.9126 -2.0584
  142MOL0     H19108   8.156   7.296   7.368 -0.8559 -0.4791 -1.0818
  142MOL0     H19109   8.065   7.005   7.358  1.4888  0.8797  1.3315
  142MOL0     H19110   8.013   7.132   7.246  1.0076  0.2643 -0.3100
  142MOL0     H19111   7.944   7.119   7.551  0.9104 -3.2783  0.1803
  142MOL0     H19112   7.880   7.234   7.433  3.0283  0.7859  0.4074
  142MOL0     H19113   7.723   7.061   7.475 -0.2704  1.2951 -0.0528
  142MOL0     H19114   7.777   7.032   7.310  3.1309  0.9612  0.0422
  142MOL0     H19115   7.774   6.813   7.406  0.8039  0.1936 -3.0409
  142MOL0     H19116   7.939   6.837   7.409 -0.6811 -0.7198 -0.5403
  142MOL0     H19117   7.751   6.877   7.639  0.0398  0.1161  0.0643
  142MOL0     H19118   7.913   6.925   7.652  2.4287 -0.1877 -1.7106
  142MOL0     H19119   7.953   6.657   7.622  0.6402 -1.9494  3.4814
  142MOL0     H19120   7.867   6.719   7.770  0.9980  0.0748 -0.0977
  142MOL0     H19121   7.646   6.591   7.814 -0.2903  2.4823 -0.3918
  142MOL0     H19122   7.432   6.344   7.606 -0.3345  0.2856  0.4426
  142MOL0     H19123   7.514   6.335   7.761 -2.0110 -0.2546 -0.2138
  142MOL0     H19124   7.400   6.554   7.814 -1.8852 -0.0080  0.7971
  142MOL0     H19125   7.306   6.539   7.664 -2.2781  1.0447  2.0092
  142MOL0     H19126   7.326   6.321   7.865  0.6972 -0.0206 -0.3806
  142MOL0     H19127   7.202   6.358   7.736  0.9143 -0.4477  0.2521
  142MOL0     H19128   7.225   6.510   7.993  2.1811 -0.6907 -0.0026
  142MOL0     H19129   7.100   6.394   7.946  1.9330  0.1999  2.9852
  142MOL0     H19130   6.969   6.493   8.075  0.5691 -0.2056 -0.4245
  142MOL0     H19131   6.754   6.579   8.165 -2.2041  0.4875 -1.1423
  142MOL0     H19132   6.339   6.659   8.165 -0.0809  0.9491 -0.6676
  142MOL0     H19133   6.148   6.732   8.276 -0.5687  1.4597  0.3915
  142MOL0     H19134   6.002   6.960   8.265 -1.1718 -3.2094 -1.2511
  142MOL0     H19135   5.996   6.833   8.375  2.6983 -0.4123 -0.8274
  142MOL0     H19136   5.805   6.978   8.427  0.7025  0.2353  0.8244
  142MOL0     H19137   5.927   7.017   8.558  0.9778  0.6565 -0.3854
  142MOL0     H19138   5.994   7.221   8.450  0.0681  0.8050 -0.1951
  142MOL0     H19139   5.875   7.191   8.319  1.1935 -0.5069  0.2028
  142MOL0     H19140   5.823   7.202   8.625 -1.2302  0.7166  0.7397
  142MOL0     H19141   5.701   7.180   8.497  1.1968 -1.8673 -0.9304
  142MOL0     H19142   5.675   7.414   8.486 -0.2385  2.2111  2.3301
  142MOL0     H19143   5.843   7.432   8.441 -2.8733  2.5128 -0.0243
  142MOL0     H19144   5.760   7.551   8.643  2.0777  0.3340  0.7104
  142MOL0     H19145   5.768   7.392   8.734  0.3733  0.0814  1.4768
  142MOL0     H19146   5.998   7.550   8.621 -0.2344 -1.3586 -1.1946
  142MOL0     H19147   6.015   7.384   8.676  0.5513  0.5167  0.2860
  142MOL0     H19148   5.893   7.591   8.877 -0.2102  2.1264 -1.9260
  142MOL0     H19149   5.951   7.426   8.884 -0.5297  0.0924 -0.5960
  142MOL0     H19150   6.365   7.082   8.423 -2.1291  0.1720  0.8260
  142MOL0     H19151   6.579   6.970   8.340  0.3878 -0.1621 -0.7896
  142MOL0     H19152   6.747   6.877   7.832 -0.2262  1.0700 -0.1157
  142MOL0     H19153   6.952   6.750   7.742 -1.1520  0.0128 -1.8178
  142MOL0     H19154   8.076   7.093   7.746 -1.5739 -2.0523 -0.7850
  142MOL0     H19155   8.049   6.963   7.950 -1.3505 -0.1352 -0.2528
  142MOL0     H19156   8.139   6.579   8.174  0.7270 -2.3395  0.9061
  142MOL0     H19157   8.074   6.474   8.388  0.7917 -0.6834  2.9254
  142MOL0     H19158   8.033   6.595   8.788 -0.1042  3.2275  0.5513
  142MOL0     H19159   8.143   6.716   8.731 -0.5186  1.0592  2.2628
  142MOL0     H19160   8.346   6.606   8.794  0.6063 -0.4322  1.6044
  142MOL0     H19161   8.257   6.478   8.856  1.6549 -0.1544 -2.3952
  142MOL0     H19162   8.226   6.777   8.929 -1.9839 -0.0457  0.7877
  142MOL0     H19163   8.358   6.692   9.009  0.8951 -2.7545 -1.2409
  142MOL0     H19164   8.189   6.696   9.165  1.5838 -1.2460  1.4549
  142MOL0     H19165   8.065   6.643   9.045  0.5267 -2.6839 -2.6269
  142MOL0     H19166   8.208   6.260   9.091 -1.1973 -0.9515  1.8847
  142MOL0     H19167   8.305   6.745   8.612  2.9056 -1.3760 -0.7941
  142MOL0     H19168   8.304   7.008   8.401  0.5249  0.7812 -0.3044
  142MOL0     H19169   8.412   6.934   8.511  0.6378 -0.4548 -0.9660
  142MOL0     H19170   8.452   6.933   8.342  0.8387  2.0245  1.4365
  143MOL0     O19171   8.636   7.456   3.564 -0.6729 -0.5706 -0.2530
  143MOL0     C19172   8.675   7.507   3.666  0.3331  0.6177 -0.2236
  143MOL0     O19173   8.746   7.440   3.769 -0.0350 -0.1913 -0.1003
  143MOL0     C19174   8.719   7.305   3.780  0.2380  0.2471  0.4437
  143MOL0     C19175   8.611   7.238   3.726 -0.0847  0.2871 -0.3427
  143MOL0     C19176   8.606   7.094   3.729  0.4473  0.3582 -0.3663
  143MOL0     C19177   8.689   7.022   3.809  0.1497  0.4614  0.0852
  143MOL0     O19178   8.684   6.887   3.823  0.5284 -0.3384  0.2309
  143MOL0     C19179   8.639   6.820   3.709 -0.1858  0.5316  0.2115
  143MOL0     C19180   8.654   6.669   3.723  0.5992  0.0347  0.8175
  143MOL0     C19181   8.803   6.628   3.740 -0.1604  0.6521 -0.0105
  143MOL0     C19182   8.814   6.474   3.787  0.2224  0.1154 -0.1542
  143MOL0     C19183   8.793   6.375   3.670  0.3804  0.1354  0.0863
  143MOL0     C19184   8.860   6.241   3.697  0.0287  0.4649  0.4616
  143MOL0     C19185   8.808   6.132   3.604 -0.2034 -0.4283 -0.1432
  143MOL0     C19186   8.851   6.154   3.453  0.5231 -0.3892  0.0680
  143MOL0     N19187   8.994   6.156   3.422 -0.0083 -0.6166 -0.6704
  143MOL0     C19188   9.078   6.052   3.452  1.5002  0.2297  0.5658
  143MOL0     C19189   9.187   6.090   3.390  0.3918 -0.0785 -0.5597
  143MOL0     C19190   9.312   6.014   3.394 -0.3552  1.3796  0.3007
  143MOL0     C19191   9.284   5.875   3.324 -0.0395 -0.5195  0.5561
  143MOL0     C19192   9.371   5.757   3.364 -0.7379  0.3286 -0.2579
  143MOL0     C19193   9.517   5.800   3.367  0.1315  0.0379 -0.4693
  143MOL0     O19194   9.594   5.696   3.428 -0.6489  0.3607  0.7670
  143MOL0     C19195   9.734   5.702   3.423  0.3052  0.7664 -0.1680
  143MOL0     C19196   9.813   5.799   3.371  0.1973  0.2946  0.1179
  143MOL0     C19197   9.957   5.792   3.384 -0.6530  0.4745  0.0111
  143MOL0     C19198  10.025   5.686   3.449  0.5063 -0.1630  1.0919
  143MOL0     C19199  10.168   5.684   3.467 -1.6336  0.1161 -1.1982
  143MOL0     O19200  10.216   5.562   3.518 -1.0416 -0.2717  0.2724
  143MOL0     C19201  10.337   5.557   3.582  0.3577 -0.5823  0.0602
  143MOL0     C19202  10.380   5.430   3.611 -1.1248 -0.6521  1.4433
  143MOL0     C19203  10.503   5.404   3.668  0.2993 -0.6094 -0.5405
  143MOL0     C19204  10.574   5.507   3.713 -0.1313  0.3346  0.3244
  143MOL0     O19205  10.692   5.492   3.788 -0.1106 -0.4564 -0.0268
  143MOL0     C19206  10.695   5.370   3.862 -0.0605 -0.3076  0.3922
  143MOL0     C19207  10.779   5.383   3.988  0.6541 -0.0516 -0.1454
  143MOL0     C19208  10.930   5.382   3.959 -0.5653  0.1699 -0.2593
  143MOL0     C19209  11.021   5.403   4.087  0.1835 -0.6568  0.2281
  143MOL0     C19210  11.159   5.332   4.060 -0.0840  0.7486 -0.1673
  143MOL0     C19211  11.244   5.340   4.187  0.0468  0.7050 -0.4123
  143MOL0     C19212  11.395   5.353   4.157  0.1206  0.3660  0.1181
  143MOL0     C19213  11.468   5.371   4.293 -0.1769 -0.3099  0.5166
  143MOL0    Cl19214  11.481   5.235   4.398 -0.1702  0.1469  0.2159
  143MOL0     C19215  10.535   5.638   3.698 -0.4181 -0.1117  0.1086
  143MOL0     C19216  10.419   5.668   3.623  0.5259  0.5352  0.1341
  143MOL0     O19217  10.237   5.780   3.448 -0.4310 -0.2990 -0.1890
  143MOL0     C19218   9.942   5.582   3.487 -0.0313  0.4241  0.2463
  143MOL0     C19219   9.798   5.590   3.475 -1.1071 -0.2806  0.1014
  143MOL0     N19220   9.170   6.213   3.330 -0.5689 -0.1935  0.6170
  143MOL0     N19221   9.058   6.256   3.363  0.2139  0.5641 -0.9423
  143MOL0     C19222   8.791   7.095   3.879  0.1561  0.6372  1.0525
  143MOL0     C19223   8.807   7.236   3.862 -1.4691  0.9231 -0.8142
  143MOL0     C19224   8.654   7.656   3.672 -0.9993 -0.3841  0.5582
  143MOL0     C19225   8.743   7.722   3.747  0.4442 -0.9351 -0.9575
  143MOL0     C19226   8.732   7.858   3.776 -0.0884  0.6844 -0.5294
  143MOL0     C19227   8.624   7.936   3.726 -0.0601  0.3221  0.3760
  143MOL0     O19228   8.622   8.069   3.765  0.0964  0.5754 -0.9817
  143MOL0     C19229   8.510   8.157   3.744  0.2245 -0.6618  0.4290
  143MOL0     C19230   8.524   8.280   3.827 -0.0830 -0.4900 -0.2067
  143MOL0     C19231   8.461   8.260   3.967  0.3727 -0.2218 -0.4101
  143MOL0     C19232   8.360   8.367   3.990 -0.0516 -0.7607 -0.8082
  143MOL0     C19233   8.293   8.348   4.120  0.0488 -0.3531 -0.5775
  143MOL0     C19234   8.248   8.317   4.230 -0.3838 -0.0539 -1.1773
  143MOL0     C19235   8.534   7.872   3.643 -0.0098 -0.1482  0.5584
  143MOL0     C19236   8.541   7.732   3.621  0.4306 -0.2398  0.5557
  143MOL0     C19237   8.420   7.660   3.566 -0.2844 -0.2560  0.3950
  143MOL0     H19238   8.529   7.286   3.673 -1.7238 -1.1797  0.7370
  143MOL0     H19239   8.521   7.043   3.686  0.1895  0.5971 -0.1529
  143MOL0     H19240   8.536   6.837   3.678  0.2497  0.7962 -1.1260
  143MOL0     H19241   8.705   6.854   3.629  1.0717  1.0259  1.4214
  143MOL0     H19242   8.614   6.624   3.631  1.0745  2.1788 -0.5211
  143MOL0     H19243   8.597   6.634   3.809  0.8182 -1.0427  0.5465
  143MOL0     H19244   8.853   6.691   3.814  3.5137 -0.8139 -0.9809
  143MOL0     H19245   8.869   6.633   3.653  4.3095  2.5291  3.0910
  143MOL0     H19246   8.917   6.472   3.823  0.3936  0.9066 -0.5746
  143MOL0     H19247   8.748   6.450   3.871 -0.3937  3.8106  0.6240
  143MOL0     H19248   8.688   6.358   3.645  0.6906 -1.1753 -0.4333
  143MOL0     H19249   8.838   6.411   3.577 -0.1601  2.3815  0.6300
  143MOL0     H19250   8.969   6.249   3.694  0.2085 -1.5315 -1.4293
  143MOL0     H19251   8.833   6.204   3.796 -2.0162 -3.6602 -1.3534
  143MOL0     H19252   8.699   6.122   3.609 -0.6524  1.7415 -2.9667
  143MOL0     H19253   8.863   6.042   3.634  3.3606  1.2238 -1.1548
  143MOL0     H19254   8.797   6.075   3.399 -0.1921 -0.9797  1.5840
  143MOL0     H19255   8.801   6.244   3.417 -0.7153  0.0269  2.5520
  143MOL0     H19256   9.068   5.962   3.511 -0.8692  0.1974  0.2025
  143MOL0     H19257   9.395   6.074   3.354 -0.9777  2.5992  0.7935
  143MOL0     H19258   9.338   5.990   3.498 -0.3622 -0.3080 -0.0479
  143MOL0     H19259   9.178   5.848   3.332 -1.2082  3.3177 -0.0348
  143MOL0     H19260   9.293   5.910   3.221 -0.0814  2.7159  1.5343
  143MOL0     H19261   9.358   5.670   3.299  0.3498 -0.0384 -0.0090
  143MOL0     H19262   9.330   5.719   3.458 -4.5081 -0.7472 -2.1332
  143MOL0     H19263   9.534   5.878   3.442  0.3197 -2.7191  2.5938
  143MOL0     H19264   9.553   5.813   3.265  1.6441 -0.7162 -0.0616
  143MOL0     H19265   9.759   5.882   3.327 -2.7124 -2.1208 -1.1581
  143MOL0     H19266  10.012   5.880   3.351  0.8455 -0.1859  0.6699
  143MOL0     H19267  10.319   5.350   3.569 -0.8209 -0.4242  0.5439
  143MOL0     H19268  10.539   5.302   3.669 -1.3448 -1.2162 -0.0100
  143MOL0     H19269  10.595   5.348   3.901  0.3949  0.0668  1.8386
  143MOL0     H19270  10.731   5.293   3.793  0.7580  2.8765 -3.0781
  143MOL0     H19271  10.741   5.464   4.051 -0.9768 -2.7369  2.5335
  143MOL0     H19272  10.748   5.295   4.044  0.6917  1.4549  2.3905
  143MOL0     H19273  10.958   5.283   3.923 -0.5642 -0.7542  2.0816
  143MOL0     H19274  10.961   5.460   3.888  1.9044  0.5675  1.1333
  143MOL0     H19275  10.967   5.372   4.177  0.0957  3.3499  1.7364
  143MOL0     H19276  11.028   5.512   4.098 -0.1502 -0.5967 -0.1103
  143MOL0     H19277  11.213   5.392   3.986 -1.7044  1.5733 -0.7230
  143MOL0     H19278  11.146   5.229   4.027  1.0901 -0.0230  1.6086
  143MOL0     H19279  11.221   5.435   4.237 -1.3723 -0.0510  0.4295
  143MOL0     H19280  11.229   5.257   4.257 -0.5895 -0.4586 -1.8934
  143MOL0     H19281  11.418   5.443   4.099  0.7016 -1.0338 -1.9856
  143MOL0     H19282  11.440   5.270   4.101  0.6032  0.7291 -0.0386
  143MOL0     H19283  11.565   5.409   4.260 -1.3941  0.3849 -2.6171
  143MOL0     H19284  11.425   5.453   4.351 -0.2109 -0.0995  0.1948
  143MOL0     H19285  10.596   5.716   3.743 -2.2874  1.0225  0.8288
  143MOL0     H19286  10.391   5.773   3.614  0.4113  0.3461 -2.8862
  143MOL0     H19287   9.969   5.489   3.536 -0.5265 -0.6413 -1.4139
  143MOL0     H19288   9.741   5.502   3.503 -0.1667 -0.6317  1.0193
  143MOL0     H19289   8.859   7.031   3.935 -1.3770  0.6283  2.9817
  143MOL0     H19290   8.893   7.283   3.907  1.1961 -3.0083 -1.2953
  143MOL0     H19291   8.829   7.674   3.792  0.2147 -1.2645 -0.8665
  143MOL0     H19292   8.808   7.908   3.835  0.7358 -1.4965  0.3592
  143MOL0     H19293   8.415   8.108   3.770 -0.9977  1.6277  0.4983
  143MOL0     H19294   8.498   8.187   3.639 -1.0452 -1.2491  0.3838
  143MOL0     H19295   8.471   8.363   3.781  0.5780  0.0020 -0.0971
  143MOL0     H19296   8.625   8.310   3.857 -0.9890  0.3414  2.2818
  143MOL0     H19297   8.533   8.254   4.050  0.8269  0.9605 -0.7039
  143MOL0     H19298   8.395   8.175   3.983  1.4092 -0.8349  0.8147
  143MOL0     H19299   8.417   8.460   4.000 -1.1931 -0.2082  1.4656
  143MOL0     H19300   8.293   8.369   3.904  3.3826 -0.3337 -3.6722
  143MOL0     H19301   8.225   8.293   4.332  2.0934  0.8727 -0.3326
  143MOL0     H19302   8.443   7.924   3.614  0.1018 -0.3383 -0.1458
  143MOL0     H19303   8.415   7.553   3.587 -2.6175 -0.5293 -1.0977
  143MOL0     H19304   8.332   7.705   3.614  0.2844  1.8367 -0.4244
  143MOL0     H19305   8.403   7.684   3.460 -1.9730  2.9188  1.2365
  144MOL0     O19306   0.219   3.573   8.153  0.7723  0.3831 -0.3129
  144MOL0     C19307   0.237   3.682   8.207  0.8145  0.5385 -1.6157
  144MOL0     O19308   0.355   3.728   8.250  0.2914 -0.2305  0.1961
  144MOL0     C19309   0.453   3.631   8.256 -0.4763  0.2832 -0.3001
  144MOL0     C19310   0.539   3.585   8.158  0.6065 -0.6130 -0.4062
  144MOL0     C19311   0.648   3.503   8.185 -0.2616  0.1638  0.8914
  144MOL0     C19312   0.673   3.458   8.318 -0.0158 -0.6539 -0.6749
  144MOL0     O19313   0.780   3.379   8.353  0.2723 -0.2489 -0.6560
  144MOL0     C19314   0.889   3.459   8.407 -0.3251  0.0347 -0.3604
  144MOL0     C19315   0.967   3.527   8.293 -0.4856 -0.9391  0.4963
  144MOL0     C19316   1.082   3.613   8.352  0.1563 -0.1872 -1.1634
  144MOL0     C19317   1.170   3.696   8.250  1.3954  0.6057  0.6724
  144MOL0     C19318   1.269   3.803   8.306  0.3023 -0.6323  0.3555
  144MOL0     C19319   1.359   3.839   8.188 -0.0404 -0.8622  0.7176
  144MOL0     C19320   1.494   3.900   8.224 -0.8638 -0.3875  0.7049
  144MOL0     C19321   1.563   3.927   8.083  0.0634 -0.3256 -0.6207
  144MOL0     N19322   1.698   3.971   8.109  0.7567  0.1624  0.5857
  144MOL0     C19323   1.743   4.093   8.162  0.0921  0.0737  0.4395
  144MOL0     C19324   1.875   4.093   8.124 -0.6063 -0.5696  0.4095
  144MOL0     C19325   1.972   4.210   8.147  0.1390  0.0956  0.0342
  144MOL0     C19326   2.105   4.206   8.057 -0.2072 -0.2030  1.0669
  144MOL0     C19327   2.054   4.243   7.916  0.2151  0.4068 -0.3879
  144MOL0     C19328   2.151   4.248   7.800  0.1910  0.1597 -0.2737
  144MOL0     O19329   2.227   4.366   7.840 -0.3803  1.0033  0.1739
  144MOL0     C19330   2.334   4.384   7.756  0.9451 -0.5573 -0.1099
  144MOL0     C19331   2.357   4.339   7.622  0.4989  0.3920 -0.0918
  144MOL0     C19332   2.467   4.378   7.539 -0.0283  0.0937 -0.1657
  144MOL0     C19333   2.562   4.468   7.594  0.3539  0.3530 -0.2298
  144MOL0     C19334   2.681   4.509   7.512 -0.5521  0.7398  0.0068
  144MOL0     O19335   2.644   4.547   7.390  0.4698  0.2031  0.1547
  144MOL0     C19336   2.740   4.575   7.296  0.2805 -0.1433 -0.0450
  144MOL0     C19337   2.733   4.687   7.222 -0.6219 -0.1245 -0.0090
  144MOL0     C19338   2.824   4.700   7.120 -0.2783 -0.3789  0.2295
  144MOL0     C19339   2.931   4.606   7.100 -0.0480  0.1436  0.2741
  144MOL0     O19340   3.026   4.608   7.010  0.0054  0.0754 -0.0844
  144MOL0     C19341   3.001   4.673   6.887  0.4305 -0.9283  0.6316
  144MOL0     C19342   3.119   4.661   6.786  0.3976  0.1790 -0.1350
  144MOL0     C19343   3.096   4.745   6.659 -0.0239  0.7138 -0.9098
  144MOL0     C19344   3.203   4.855   6.661  0.6549  0.0753 -0.6720
  144MOL0     C19345   3.200   4.925   6.522  0.1689  0.6138 -0.7226
  144MOL0     C19346   3.071   5.003   6.486 -0.3105 -0.1642 -1.3898
  144MOL0     C19347   3.014   5.087   6.608 -0.8221  1.3001  0.9925
  144MOL0     C19348   2.939   5.204   6.550  0.1246 -0.3630  0.0466
  144MOL0    Cl19349   2.774   5.169   6.498  0.1096 -0.1678 -0.0787
  144MOL0     C19350   2.941   4.508   7.194 -0.5370  0.0710 -0.4007
  144MOL0     C19351   2.840   4.480   7.284  0.5436 -0.1614 -0.0468
  144MOL0     O19352   2.796   4.501   7.556  1.0043 -0.7588 -0.7679
  144MOL0     C19353   2.547   4.507   7.728 -0.1572  1.4387  0.9641
  144MOL0     C19354   2.435   4.470   7.812  0.0712 -0.2158  1.0731
  144MOL0     N19355   1.917   3.973   8.071 -0.7077 -0.2279 -0.5151
  144MOL0     N19356   1.802   3.904   8.051 -0.0180 -0.6158 -0.2314
  144MOL0     C19357   0.587   3.510   8.422 -0.2634 -0.3915  0.5671
  144MOL0     C19358   0.482   3.601   8.393 -0.7584 -0.8682  0.3515
  144MOL0     C19359   0.114   3.769   8.226 -0.5069  0.5583 -0.1172
  144MOL0     C19360   0.126   3.872   8.318 -0.8452 -0.1610 -0.5028
  144MOL0     C19361   0.024   3.966   8.344 -1.1596  0.3974 -0.7301
  144MOL0     C19362  -0.098   3.959   8.278 -0.1336 -0.4617 -0.3835
  144MOL0     O19363  -0.182   4.063   8.306  0.2398  0.3037  0.4874
  144MOL0     C19364  -0.291   4.094   8.230  0.1950  0.1966  0.1652
  144MOL0     C19365  -0.364   4.211   8.281  0.0074  0.1316  0.6760
  144MOL0     C19366  -0.281   4.335   8.273 -0.2807 -0.4871  0.4774
  144MOL0     C19367  -0.219   4.379   8.140  0.0941  0.3509 -0.1393
  144MOL0     C19368  -0.306   4.356   8.023 -0.0153 -0.7178 -1.1689
  144MOL0     C19369  -0.385   4.355   7.924  0.6036  0.1360 -0.6764
  144MOL0     C19370  -0.113   3.853   8.184 -0.2604  0.0622 -0.6072
  144MOL0     C19371  -0.003   3.760   8.159 -1.0867 -0.6932  0.3914
  144MOL0     C19372  -0.038   3.644   8.071  0.8742 -0.6123 -0.0527
  144MOL0     H19373   0.519   3.618   8.057  2.2737  1.4711 -0.1233
  144MOL0     H19374   0.713   3.465   8.107 -0.4284 -2.5795  1.9539
  144MOL0     H19375   0.854   3.539   8.473 -1.3813  1.4244 -2.4993
  144MOL0     H19376   0.965   3.397   8.455 -0.2035 -1.6501 -2.5466
  144MOL0     H19377   0.900   3.585   8.228  0.1146 -3.0585 -2.1727
  144MOL0     H19378   1.008   3.450   8.227  2.8204 -1.5262  3.0060
  144MOL0     H19379   1.144   3.549   8.414  0.3781  0.3219 -0.8525
  144MOL0     H19380   1.050   3.682   8.430  3.5463 -0.9497  1.0872
  144MOL0     H19381   1.222   3.626   8.184 -0.1266 -0.5840  0.6628
  144MOL0     H19382   1.105   3.751   8.182  2.5853  1.9275  0.5603
  144MOL0     H19383   1.221   3.897   8.335  0.2935 -0.7399  0.6915
  144MOL0     H19384   1.341   3.778   8.385  1.6714  0.7101 -0.4012
  144MOL0     H19385   1.393   3.751   8.134  1.8276 -0.1178  0.6030
  144MOL0     H19386   1.302   3.904   8.121 -2.5852 -2.1917  1.4574
  144MOL0     H19387   1.552   3.824   8.277 -0.5429  0.9849  2.4214
  144MOL0     H19388   1.482   3.993   8.281  0.6313  1.0970 -1.2314
  144MOL0     H19389   1.566   3.844   8.011  1.0765 -1.8376  1.0831
  144MOL0     H19390   1.512   4.015   8.043 -2.8613 -2.1417 -1.2078
  144MOL0     H19391   1.694   4.182   8.199  3.5194  3.3978 -2.1351
  144MOL0     H19392   1.916   4.301   8.126  0.1809 -0.2228 -1.5745
  144MOL0     H19393   2.014   4.209   8.248  1.1123  1.4855 -0.3182
  144MOL0     H19394   2.187   4.268   8.093 -1.0793  1.5645  0.1489
  144MOL0     H19395   2.148   4.105   8.057 -3.6394 -1.8352  1.1351
  144MOL0     H19396   2.014   4.345   7.926 -0.5164  0.0969 -0.1087
  144MOL0     H19397   1.979   4.168   7.891  1.8249 -0.7049 -2.1742
  144MOL0     H19398   2.110   4.256   7.699 -1.1999 -1.1645  0.1369
  144MOL0     H19399   2.207   4.155   7.802 -0.2075 -0.0798 -0.0266
  144MOL0     H19400   2.288   4.277   7.566 -0.2145 -1.2757  2.4498
  144MOL0     H19401   2.472   4.343   7.437  0.5770  0.0404 -0.1226
  144MOL0     H19402   2.655   4.761   7.233 -2.8775 -2.2141 -0.8411
  144MOL0     H19403   2.820   4.787   7.055  1.8751  0.5641  1.2599
  144MOL0     H19404   2.918   4.627   6.834  1.7279 -1.2549 -1.2520
  144MOL0     H19405   2.988   4.781   6.897 -1.9152 -0.9050 -1.6238
  144MOL0     H19406   3.208   4.695   6.838  1.3042 -0.2584 -1.3463
  144MOL0     H19407   3.139   4.559   6.749  0.2520  1.2494 -3.5634
  144MOL0     H19408   3.131   4.675   6.582 -0.0117 -1.5487  1.0439
  144MOL0     H19409   2.996   4.787   6.651  0.1797  0.9888 -2.4035
  144MOL0     H19410   3.299   4.806   6.680  1.8872  1.7659 -2.2572
  144MOL0     H19411   3.187   4.925   6.744 -0.1551 -3.2617  2.2656
  144MOL0     H19412   3.202   4.853   6.440 -0.6493 -0.4876  0.1995
  144MOL0     H19413   3.282   4.997   6.517  1.5471 -0.9752 -2.3424
  144MOL0     H19414   3.083   5.064   6.396 -3.1266  2.2437 -0.3057
  144MOL0     H19415   2.992   4.928   6.472 -1.8477  0.8842  0.9560
  144MOL0     H19416   3.105   5.116   6.661  0.7259 -1.9725  0.3785
  144MOL0     H19417   2.964   5.023   6.681  2.3217 -0.4684  1.7564
  144MOL0     H19418   2.933   5.280   6.629 -0.5307  0.7250 -1.0222
  144MOL0     H19419   2.987   5.245   6.461  0.1568 -0.9641 -0.2147
  144MOL0     H19420   3.027   4.441   7.191 -0.1221  0.5848 -0.1864
  144MOL0     H19421   2.833   4.383   7.332 -0.3611  0.1458  0.4609
  144MOL0     H19422   2.634   4.566   7.756  2.5569 -2.4469  1.5749
  144MOL0     H19423   2.424   4.500   7.916 -1.7321  2.5174  0.2055
  144MOL0     H19424   0.606   3.489   8.527 -0.5367  1.0964  0.9287
  144MOL0     H19425   0.427   3.636   8.480 -1.5038  0.1109 -0.4875
  144MOL0     H19426   0.216   3.896   8.374 -1.3923  1.2672 -0.1984
  144MOL0     H19427   0.051   4.046   8.413  3.4061  1.6939 -3.5594
  144MOL0     H19428  -0.352   4.003   8.229  2.3739 -1.3538  1.0575
  144MOL0     H19429  -0.275   4.113   8.123 -1.3555 -0.3357 -0.1868
  144MOL0     H19430  -0.405   4.183   8.378 -2.4488  1.2565  0.0411
  144MOL0     H19431  -0.456   4.230   8.225 -1.7049 -1.2171  2.8524
  144MOL0     H19432  -0.206   4.319   8.352 -0.3344 -2.8409  0.1287
  144MOL0     H19433  -0.345   4.413   8.314 -2.4747 -3.3469  3.0252
  144MOL0     H19434  -0.178   4.480   8.141  1.6487 -0.2310 -1.3299
  144MOL0     H19435  -0.129   4.317   8.135  0.2797  0.6037  0.0420
  144MOL0     H19436  -0.435   4.343   7.830 -0.3598  0.0167 -0.1594
  144MOL0     H19437  -0.206   3.840   8.131  0.5193  1.9279 -2.5738
  144MOL0     H19438  -0.127   3.665   8.010 -0.5113 -0.7113  1.8629
  144MOL0     H19439   0.046   3.643   8.000  0.6395 -0.9335 -0.3297
  144MOL0     H19440  -0.058   3.556   8.133 -2.2404  1.3548  1.9850
  145MOL0     O19441   7.508   6.347  11.206  0.8560 -0.1807 -0.1352
  145MOL0     C19442   7.412   6.417  11.175  0.1954  1.2268  0.1601
  145MOL0     O19443   7.385   6.541  11.226  1.0883 -0.2551  0.4464
  145MOL0     C19444   7.475   6.596  11.309  0.0556 -0.3487  0.4477
  145MOL0     C19445   7.480   6.544  11.439 -0.5534  0.7680 -0.0956
  145MOL0     C19446   7.588   6.586  11.524 -0.8201  0.3572 -0.8482
  145MOL0     C19447   7.688   6.678  11.475  0.1183 -0.8212 -0.4816
  145MOL0     O19448   7.793   6.713  11.552  0.2218 -0.0720  0.2330
  145MOL0     C19449   7.899   6.802  11.504 -0.1149 -1.4652 -0.0094
  145MOL0     C19450   7.988   6.862  11.617 -0.0920  0.1495  0.6246
  145MOL0     C19451   8.113   6.940  11.549  0.3972  0.3526  0.1000
  145MOL0     C19452   8.213   7.006  11.637 -0.2841  0.1168 -0.4246
  145MOL0     C19453   8.145   7.115  11.717 -0.5603 -0.2297  0.2571
  145MOL0     C19454   8.220   7.253  11.713  0.3841  0.5277  0.3464
  145MOL0     C19455   8.311   7.262  11.828 -0.9217  0.7191 -0.2741
  145MOL0     C19456   8.407   7.383  11.820 -0.0439  0.4262 -0.0386
  145MOL0     N19457   8.321   7.505  11.817 -0.6035 -0.6438  0.0909
  145MOL0     C19458   8.294   7.589  11.710 -0.8446 -0.5306  0.8773
  145MOL0     C19459   8.226   7.691  11.766  0.5456  0.1246  1.0289
  145MOL0     C19460   8.178   7.810  11.682 -0.3531 -0.9477 -0.0973
  145MOL0     C19461   8.149   7.937  11.763  0.7667 -0.1928 -0.3078
  145MOL0     C19462   8.155   8.066  11.682 -0.7757 -0.2660 -0.4813
  145MOL0     C19463   8.125   8.187  11.774  0.4526  0.3231  0.1743
  145MOL0     O19464   7.990   8.172  11.824 -0.4483  0.4650  0.7118
  145MOL0     C19465   7.946   8.255  11.919 -0.3311  0.1936  0.7316
  145MOL0     C19466   7.855   8.202  12.016 -0.3577  0.0560  0.3992
  145MOL0     C19467   7.807   8.275  12.122  0.8201 -0.7836 -0.2420
  145MOL0     C19468   7.846   8.411  12.131  0.4044 -0.5836  0.5832
  145MOL0     C19469   7.788   8.508  12.229 -0.1780 -0.4426 -0.1063
  145MOL0     O19470   7.668   8.480  12.281  0.0854 -0.1809  0.6234
  145MOL0     C19471   7.626   8.570  12.373  0.9345 -0.3230 -1.7362
  145MOL0     C19472   7.517   8.656  12.347 -0.6201  0.7103 -0.0482
  145MOL0     C19473   7.465   8.738  12.449  0.0489 -0.0600 -0.3599
  145MOL0     C19474   7.509   8.731  12.589  0.0935 -0.5141 -0.9690
  145MOL0     O19475   7.454   8.789  12.704  0.0691  0.1401  0.1147
  145MOL0     C19476   7.319   8.834  12.696  0.1906 -0.3717  0.0817
  145MOL0     C19477   7.262   8.868  12.840  0.0521 -0.3154  0.1880
  145MOL0     C19478   7.316   8.766  12.939 -0.2006 -0.0675  0.5439
  145MOL0     C19479   7.279   8.825  13.084 -0.5293 -0.1110  0.3485
  145MOL0     C19480   7.337   8.736  13.201  0.2343 -0.1958 -0.7168
  145MOL0     C19481   7.305   8.806  13.336  0.2290 -0.4930  0.0765
  145MOL0     C19482   7.412   8.902  13.377 -0.7497 -0.2663 -0.5123
  145MOL0     C19483   7.385   8.974  13.513 -0.0106  1.0003  1.0361
  145MOL0    Cl19484   7.306   9.133  13.490  0.2148  0.7337  0.1683
  145MOL0     C19485   7.617   8.646  12.608 -0.8576 -0.4490  0.0809
  145MOL0     C19486   7.668   8.570  12.500 -0.0832 -0.2740 -0.5173
  145MOL0     O19487   7.859   8.611  12.254  0.5695  0.0555 -0.0446
  145MOL0     C19488   7.937   8.466  12.029  0.0139 -0.0375  0.2855
  145MOL0     C19489   7.977   8.385  11.921  0.0403  0.0718 -0.1355
  145MOL0     N19490   8.212   7.659  11.897 -0.0587 -0.0102  0.3102
  145MOL0     N19491   8.267   7.555  11.928 -0.7780 -0.1918  0.0185
  145MOL0     C19492   7.670   6.741  11.347  0.1422  0.0349  0.1802
  145MOL0     C19493   7.572   6.685  11.263 -0.6042 -0.0026 -0.6201
  145MOL0     C19494   7.316   6.362  11.070  0.1929 -0.6188 -0.1649
  145MOL0     C19495   7.179   6.370  11.077  0.1680  0.0375 -0.3958
  145MOL0     C19496   7.095   6.308  10.984 -0.1439  0.2763 -0.1040
  145MOL0     C19497   7.140   6.234  10.879 -0.0090 -0.7448  0.3228
  145MOL0     O19498   7.049   6.182  10.785  1.0628  0.2344  0.7412
  145MOL0     C19499   6.916   6.238  10.780 -1.2769 -0.1928 -0.0584
  145MOL0     C19500   6.857   6.209  10.649 -0.4687  0.6682 -0.0428
  145MOL0     C19501   6.950   6.257  10.535  0.0181  0.3413  0.4164
  145MOL0     C19502   6.860   6.363  10.460 -0.6808  0.3624 -0.8310
  145MOL0     C19503   6.929   6.411  10.350  0.1186 -0.2570 -0.1351
  145MOL0     C19504   7.002   6.468  10.271  0.6563 -0.3263 -0.1314
  145MOL0     C19505   7.276   6.228  10.867  0.0536  0.3212 -0.3829
  145MOL0     C19506   7.372   6.289  10.953  0.0081 -0.9375  0.2602
  145MOL0     C19507   7.513   6.275  10.926 -0.0503  0.1647  0.5411
  145MOL0     H19508   7.413   6.466  11.473 -0.3416 -0.6024 -2.5964
  145MOL0     H19509   7.593   6.550  11.626 -0.6328  0.2417 -0.8973
  145MOL0     H19510   7.966   6.754  11.431 -2.0356 -3.0875 -0.8071
  145MOL0     H19511   7.853   6.886  11.452 -0.5199 -3.4273 -3.1240
  145MOL0     H19512   8.032   6.784  11.680  0.9161  1.2680  1.3536
  145MOL0     H19513   7.944   6.946  11.672  2.5738  0.4294  2.5563
  145MOL0     H19514   8.066   7.021  11.493 -2.4180 -0.6149  0.9026
  145MOL0     H19515   8.163   6.870  11.480  2.2722 -0.1272  1.8594
  145MOL0     H19516   8.257   6.932  11.704 -2.6555 -1.1664 -0.1766
  145MOL0     H19517   8.292   7.044  11.571 -2.5306  1.5932 -2.4441
  145MOL0     H19518   8.043   7.131  11.681 -0.9405 -1.6564  0.6225
  145MOL0     H19519   8.126   7.075  11.817  0.4501 -1.5537 -0.0405
  145MOL0     H19520   8.275   7.273  11.620 -1.1554  3.7807 -0.0130
  145MOL0     H19521   8.148   7.336  11.717 -0.9797 -0.0319 -4.9936
  145MOL0     H19522   8.383   7.181  11.836 -0.8463  0.8647  0.5601
  145MOL0     H19523   8.246   7.263  11.916 -1.8656  1.6603 -0.9559
  145MOL0     H19524   8.467   7.395  11.910 -0.4748  0.7742  0.2126
  145MOL0     H19525   8.462   7.364  11.728  0.6779 -2.2203  0.8739
  145MOL0     H19526   8.320   7.569  11.607  3.9044 -0.0595  1.7520
  145MOL0     H19527   8.255   7.830  11.608 -0.9172 -2.7236 -1.2373
  145MOL0     H19528   8.086   7.786  11.627  0.0678  0.6974 -1.5874
  145MOL0     H19529   8.052   7.924  11.813  1.7314 -0.5684  1.5465
  145MOL0     H19530   8.223   7.937  11.843  0.1744  1.3280  0.2857
  145MOL0     H19531   8.086   8.059  11.597 -0.9824 -0.2209 -0.3151
  145MOL0     H19532   8.254   8.076  11.636 -0.8546  1.8513 -0.3149
  145MOL0     H19533   8.140   8.281  11.719 -4.6107 -0.8438 -4.0816
  145MOL0     H19534   8.200   8.185  11.853  1.1861 -1.9218 -0.5203
  145MOL0     H19535   7.827   8.097  12.003  0.1656 -0.1503  0.8973
  145MOL0     H19536   7.730   8.238  12.189  1.8453 -1.2493  0.7200
  145MOL0     H19537   7.483   8.659  12.244  2.6151  0.2897 -1.2373
  145MOL0     H19538   7.385   8.808  12.430  0.1218  0.0274 -0.3471
  145MOL0     H19539   7.294   8.917  12.630  0.7957 -2.3875 -2.8677
  145MOL0     H19540   7.256   8.752  12.662 -0.8107 -0.1955  1.3976
  145MOL0     H19541   7.276   8.974  12.865  1.7257  0.1157 -2.2216
  145MOL0     H19542   7.156   8.841  12.836 -0.0034  0.0614 -2.5888
  145MOL0     H19543   7.254   8.677  12.923 -2.0600  1.5231 -1.6995
  145MOL0     H19544   7.425   8.754  12.939 -0.2042 -0.0990  0.9087
  145MOL0     H19545   7.171   8.807  13.086 -0.6862  0.1786 -2.1341
  145MOL0     H19546   7.308   8.929  13.100  0.1552 -0.3932  1.0082
  145MOL0     H19547   7.443   8.716  13.187  0.4584  1.5146 -1.8344
  145MOL0     H19548   7.285   8.640  13.191  1.1419 -0.7656 -0.0011
  145MOL0     H19549   7.208   8.852  13.314  0.3188  1.0522  2.5957
  145MOL0     H19550   7.294   8.732  13.416 -0.4402  0.4315  0.8675
  145MOL0     H19551   7.440   8.972  13.298  0.6976 -1.6628 -1.2787
  145MOL0     H19552   7.505   8.847  13.389 -0.4856  0.5183  1.4274
  145MOL0     H19553   7.327   8.921  13.590 -1.2053  1.1666  0.2822
  145MOL0     H19554   7.482   8.981  13.563 -0.5156  0.4697  2.1353
  145MOL0     H19555   7.655   8.638  12.709  1.5060 -2.3267 -0.8634
  145MOL0     H19556   7.745   8.495  12.519  1.2983  1.1814 -0.1509
  145MOL0     H19557   7.953   8.573  12.030  1.0454 -0.1757 -0.1016
  145MOL0     H19558   8.029   8.436  11.841  0.0926  1.8390  0.9735
  145MOL0     H19559   7.744   6.810  11.307  0.2427 -0.3333 -0.2708
  145MOL0     H19560   7.579   6.726  11.163 -0.2781 -0.2522 -0.7019
  145MOL0     H19561   7.132   6.433  11.151 -2.7862  0.0587 -2.0947
  145MOL0     H19562   6.988   6.316  10.999 -0.0062  0.1804  1.0928
  145MOL0     H19563   6.931   6.345  10.795 -1.6498 -0.2448  0.7751
  145MOL0     H19564   6.864   6.179  10.856 -2.0280 -1.1309 -1.2539
  145MOL0     H19565   6.759   6.257  10.637 -0.3720  0.6718 -0.8694
  145MOL0     H19566   6.838   6.101  10.653  1.6978  0.2045 -0.9963
  145MOL0     H19567   6.975   6.179  10.463  3.0208  2.7224 -1.3947
  145MOL0     H19568   7.045   6.309  10.555  2.0911 -0.9182 -4.5710
  145MOL0     H19569   6.765   6.315  10.437 -2.7681  2.7778  1.9897
  145MOL0     H19570   6.846   6.453  10.520  0.1074  1.5704 -2.3781
  145MOL0     H19571   7.055   6.536  10.207  2.6302 -2.7361 -1.2749
  145MOL0     H19572   7.309   6.161  10.789  0.0002  1.4326 -1.3992
  145MOL0     H19573   7.535   6.225  10.831 -2.8839 -0.3348  0.0830
  145MOL0     H19574   7.558   6.373  10.906  0.4068 -0.2037 -0.3035
  145MOL0     H19575   7.563   6.219  11.005 -2.7670 -2.1929  0.7356
  146MOL0     O19576   1.740   1.616   5.300  0.0284 -0.3218  0.3164
  146MOL0     C19577   1.741   1.562   5.409 -0.0848 -0.0369  0.8077
  146MOL0     O19578   1.851   1.526   5.466  0.5072  0.1155  0.6099
  146MOL0     C19579   1.976   1.527   5.414  0.3616  0.3042 -0.4957
  146MOL0     C19580   2.022   1.451   5.304  0.0204  0.5105 -0.5890
  146MOL0     C19581   2.155   1.445   5.272 -0.0329 -0.0508  0.4709
  146MOL0     C19582   2.247   1.529   5.335  0.4520 -0.8441  0.2560
  146MOL0     O19583   2.374   1.544   5.296 -0.2044  0.2717  0.3466
  146MOL0     C19584   2.441   1.428   5.249 -0.3379  0.2869  0.4175
  146MOL0     C19585   2.589   1.457   5.220  0.4547 -0.7103 -0.3564
  146MOL0     C19586   2.620   1.552   5.102 -0.4768 -1.0957  0.6224
  146MOL0     C19587   2.758   1.516   5.041  0.4869 -0.0367  0.8964
  146MOL0     C19588   2.806   1.605   4.934 -0.8971 -0.5706  0.6374
  146MOL0     C19589   2.947   1.562   4.900 -0.4474  0.1209 -0.9343
  146MOL0     C19590   3.013   1.678   4.837  0.7245  0.8422 -0.2172
  146MOL0     C19591   3.160   1.651   4.784 -0.3958 -0.3549 -0.1965
  146MOL0     N19592   3.210   1.765   4.715 -0.2518 -0.1623 -0.6252
  146MOL0     C19593   3.274   1.866   4.778 -0.6851  0.4411 -0.6311
  146MOL0     C19594   3.299   1.959   4.686 -0.2729  0.0057  1.0752
  146MOL0     C19595   3.383   2.083   4.709  0.1907 -0.0108  0.4749
  146MOL0     C19596   3.516   2.054   4.637 -0.6113 -0.2735  0.2534
  146MOL0     C19597   3.584   2.189   4.609  0.4731 -0.3983 -0.4916
  146MOL0     C19598   3.680   2.181   4.498 -0.0726  0.5105 -0.0410
  146MOL0     O19599   3.801   2.101   4.517 -0.8409 -0.2528 -0.5378
  146MOL0     C19600   3.892   2.094   4.417  0.1326  0.1418  0.5873
  146MOL0     C19601   3.977   1.984   4.408 -0.4790  0.4738 -0.9154
  146MOL0     C19602   4.070   1.967   4.304 -0.7154 -0.3950  0.9278
  146MOL0     C19603   4.080   2.067   4.206 -0.1298 -0.0061  0.5819
  146MOL0     C19604   4.182   2.056   4.092  0.3513 -0.4079 -0.5686
  146MOL0     O19605   4.293   1.976   4.110 -0.0740  0.0526 -0.2195
  146MOL0     C19606   4.375   1.942   4.002  0.3780  0.1480  0.1897
  146MOL0     C19607   4.382   1.813   3.954  0.2354 -0.8225  0.5338
  146MOL0     C19608   4.485   1.774   3.867  0.0247 -0.1682  0.0063
  146MOL0     C19609   4.577   1.871   3.831 -0.0855  0.2639 -0.1309
  146MOL0     O19610   4.678   1.830   3.745  0.3603 -0.5609  0.3000
  146MOL0     C19611   4.772   1.930   3.692  0.5135 -0.0211  0.0618
  146MOL0     C19612   4.904   1.879   3.641  0.5860  0.7077  0.0954
  146MOL0     C19613   4.909   1.795   3.512  0.0837  0.4265 -0.6675
  146MOL0     C19614   5.047   1.749   3.474  0.6832  0.3330 -0.1333
  146MOL0     C19615   5.151   1.852   3.415 -0.0331  0.3809  0.1162
  146MOL0     C19616   5.289   1.783   3.388 -0.0717 -0.0330 -0.4504
  146MOL0     C19617   5.304   1.700   3.257 -0.3705  0.2395  0.5604
  146MOL0     C19618   5.406   1.755   3.157  0.4705  0.7520 -0.2837
  146MOL0    Cl19619   5.547   1.829   3.240 -0.0089 -0.4200 -0.3335
  146MOL0     C19620   4.576   1.998   3.896  0.6705  0.7269 -0.3168
  146MOL0     C19621   4.466   2.038   3.967  0.3902  0.3162 -0.1131
  146MOL0     O19622   4.159   2.124   3.989 -0.1864  0.3232 -0.4224
  146MOL0     C19623   3.991   2.175   4.208  0.3287 -0.5789  0.0123
  146MOL0     C19624   3.902   2.193   4.313  0.6384 -0.1776  0.1369
  146MOL0     N19625   3.245   1.906   4.564 -0.1917 -0.4722 -0.3119
  146MOL0     N19626   3.196   1.796   4.586  0.2519  0.4809  0.3937
  146MOL0     C19627   2.197   1.622   5.433 -0.3933 -0.0443 -0.7828
  146MOL0     C19628   2.062   1.611   5.480  0.8184 -0.4333 -0.0049
  146MOL0     C19629   1.624   1.525   5.483  0.7197  0.0271 -0.0043
  146MOL0     C19630   1.634   1.436   5.593 -0.6572 -0.3884 -0.1152
  146MOL0     C19631   1.523   1.396   5.672  0.0896  0.2338 -0.7295
  146MOL0     C19632   1.394   1.457   5.653 -0.0689 -0.1756 -0.4447
  146MOL0     O19633   1.292   1.408   5.736 -0.2923 -0.5648  0.6921
  146MOL0     C19634   1.175   1.499   5.739 -0.5249  0.5938 -0.4934
  146MOL0     C19635   1.072   1.446   5.642 -0.9210  0.5389 -0.2738
  146MOL0     C19636   0.952   1.535   5.627  0.4967  0.4527  0.6497
  146MOL0     C19637   0.976   1.678   5.576 -0.5846 -0.4466 -1.2862
  146MOL0     C19638   1.035   1.675   5.437  0.3951 -0.8151  0.6490
  146MOL0     C19639   1.066   1.686   5.322 -1.1851 -0.7260 -0.4393
  146MOL0     C19640   1.379   1.536   5.538  0.0146 -0.3663  0.0218
  146MOL0     C19641   1.491   1.583   5.464 -0.7932  0.6510  0.6496
  146MOL0     C19642   1.450   1.675   5.358  0.2873  0.2681 -0.5997
  146MOL0     H19643   1.952   1.382   5.258  0.7739  0.5930 -1.9406
  146MOL0     H19644   2.182   1.394   5.180 -4.4306  0.4442 -1.3551
  146MOL0     H19645   2.449   1.347   5.323  0.1431 -0.4253 -0.3831
  146MOL0     H19646   2.400   1.403   5.151 -1.5443  0.0255  0.9691
  146MOL0     H19647   2.639   1.362   5.203 -0.2399 -1.0956 -0.2558
  146MOL0     H19648   2.641   1.506   5.303 -1.3669  0.3221  0.2308
  146MOL0     H19649   2.614   1.657   5.131 -1.2017 -1.3159  1.3026
  146MOL0     H19650   2.548   1.536   5.022  0.2697  2.3919 -0.9130
  146MOL0     H19651   2.830   1.510   5.123  0.8567  0.5754  0.6219
  146MOL0     H19652   2.758   1.412   5.006  3.6404  0.5434 -1.1962
  146MOL0     H19653   2.751   1.593   4.841 -1.0458  1.2072  0.4560
  146MOL0     H19654   2.800   1.709   4.969 -0.8793  0.6207 -2.5360
  146MOL0     H19655   3.010   1.528   4.983 -0.0877  0.5870 -1.0117
  146MOL0     H19656   2.956   1.476   4.832  0.5406 -0.2320 -0.3851
  146MOL0     H19657   3.022   1.763   4.906  0.5826  0.7534 -0.0892
  146MOL0     H19658   2.953   1.722   4.758  1.3953  0.5245 -0.9182
  146MOL0     H19659   3.221   1.633   4.873  3.3352  3.7399 -1.5665
  146MOL0     H19660   3.160   1.564   4.719  0.7921 -0.8808  0.4800
  146MOL0     H19661   3.312   1.863   4.880 -3.5922  0.3972  0.5255
  146MOL0     H19662   3.336   2.172   4.667 -0.0760 -1.2866 -2.1656
  146MOL0     H19663   3.402   2.097   4.816 -0.3598 -1.6049  0.8121
  146MOL0     H19664   3.586   1.994   4.696  1.6616  0.7987 -1.1785
  146MOL0     H19665   3.511   2.003   4.541  3.2238 -1.3869  0.4759
  146MOL0     H19666   3.629   2.223   4.703 -2.4237 -0.6789  1.1147
  146MOL0     H19667   3.508   2.258   4.572 -2.0128 -1.7079  1.8318
  146MOL0     H19668   3.713   2.284   4.480 -0.2968  1.2381  3.1229
  146MOL0     H19669   3.615   2.140   4.420 -1.2134 -1.8389  1.9983
  146MOL0     H19670   3.979   1.923   4.498  0.4128  1.1717 -0.4440
  146MOL0     H19671   4.137   1.881   4.306  0.9577  0.8217  0.0518
  146MOL0     H19672   4.309   1.739   3.984 -0.2997 -1.2096 -1.5360
  146MOL0     H19673   4.479   1.675   3.824 -3.1268  0.3204 -0.9695
  146MOL0     H19674   4.723   1.973   3.605  1.8185 -1.7692 -1.6095
  146MOL0     H19675   4.784   2.015   3.759 -2.3431  0.3257  0.2559
  146MOL0     H19676   4.977   1.960   3.631  2.9318 -1.2036  0.6505
  146MOL0     H19677   4.950   1.815   3.717  0.1165 -2.5951 -2.1944
  146MOL0     H19678   4.834   1.716   3.520 -1.2610  1.7840  0.7978
  146MOL0     H19679   4.875   1.858   3.430 -3.2241 -0.4835 -0.1578
  146MOL0     H19680   5.036   1.682   3.389  2.7265 -3.0396  1.9981
  146MOL0     H19681   5.085   1.685   3.555 -0.7032 -1.2541 -0.6702
  146MOL0     H19682   5.151   1.937   3.484 -0.7070 -1.0222  1.9178
  146MOL0     H19683   5.114   1.887   3.318 -0.0544  1.0488  0.3569
  146MOL0     H19684   5.363   1.864   3.388  3.3886 -2.9799 -1.6461
  146MOL0     H19685   5.313   1.725   3.478 -1.9528  0.5875  0.5196
  146MOL0     H19686   5.209   1.683   3.206 -0.0236  1.9200 -0.7326
  146MOL0     H19687   5.352   1.605   3.280 -2.6696 -1.8714 -2.5384
  146MOL0     H19688   5.440   1.687   3.078  0.0986  1.0782 -0.7274
  146MOL0     H19689   5.348   1.826   3.098 -0.9846 -0.6807 -0.6565
  146MOL0     H19690   4.660   2.065   3.902 -0.2574  1.8294  4.0419
  146MOL0     H19691   4.454   2.135   4.014 -1.4367  0.7742 -1.4267
  146MOL0     H19692   3.994   2.247   4.127 -1.9257 -1.0199 -0.5544
  146MOL0     H19693   3.846   2.285   4.322  2.7097  0.9230  4.4663
  146MOL0     H19694   2.257   1.703   5.472  1.6585 -1.5453 -0.6816
  146MOL0     H19695   2.023   1.685   5.549  3.0865  1.8989 -1.0750
  146MOL0     H19696   1.730   1.395   5.625 -1.0391 -1.4762 -0.3208
  146MOL0     H19697   1.523   1.330   5.757 -0.0928  1.4364  0.2352
  146MOL0     H19698   1.217   1.599   5.724  2.8831 -0.6312  0.1003
  146MOL0     H19699   1.142   1.503   5.844  0.2716 -0.8528 -0.1567
  146MOL0     H19700   1.039   1.352   5.687 -0.4158  0.8610  0.8072
  146MOL0     H19701   1.112   1.427   5.542  2.4083 -3.0704  1.4641
  146MOL0     H19702   0.904   1.549   5.724  0.6846  3.2247  0.4238
  146MOL0     H19703   0.887   1.480   5.559  1.7047 -1.3485  0.8848
  146MOL0     H19704   0.887   1.740   5.589  1.1474  1.7359  1.0409
  146MOL0     H19705   1.050   1.731   5.637 -0.2089  0.8368 -2.7929
  146MOL0     H19706   1.098   1.673   5.221  0.3010  0.0949 -0.0963
  146MOL0     H19707   1.287   1.587   5.510  2.1740  3.9155 -0.0679
  146MOL0     H19708   1.362   1.637   5.306 -0.0837 -0.0999  0.2876
  146MOL0     H19709   1.440   1.774   5.405 -1.1287 -0.0043 -0.2992
  146MOL0     H19710   1.527   1.689   5.282  3.0346 -1.5471  1.6489
  147MOL0     O19711   5.365   3.039  10.205  0.8662 -0.5511 -0.9469
  147MOL0     C19712   5.470   3.063  10.151 -0.0424  0.5232  0.4920
  147MOL0     O19713   5.579   2.978  10.135 -0.2329  0.6586 -0.2915
  147MOL0     C19714   5.555   2.850  10.164 -0.6939  0.7766  0.1765
  147MOL0     C19715   5.548   2.753  10.070  0.1134 -0.7689  0.3686
  147MOL0     C19716   5.506   2.625  10.093 -0.1058  0.6062  0.3025
  147MOL0     C19717   5.492   2.581  10.227 -0.5218  0.1850  0.1879
  147MOL0     O19718   5.474   2.448  10.247 -0.3051 -0.6031  0.7968
  147MOL0     C19719   5.496   2.387  10.378  0.0105 -0.3256 -0.1477
  147MOL0     C19720   5.503   2.226  10.366 -0.3222  0.3178 -0.6655
  147MOL0     C19721   5.373   2.162  10.307  0.7373  0.4974 -0.8737
  147MOL0     C19722   5.258   2.177  10.406 -0.2491  0.3075 -0.6073
  147MOL0     C19723   5.146   2.070  10.393 -0.5906 -0.8732 -0.2708
  147MOL0     C19724   5.039   2.114  10.498  0.1593 -0.2741 -0.5852
  147MOL0     C19725   4.896   2.063  10.494 -0.7453  0.8172 -0.4293
  147MOL0     C19726   4.887   1.931  10.570 -0.0816  0.4133  0.2112
  147MOL0     N19727   4.753   1.869  10.563  0.3901  0.1685 -1.0185
  147MOL0     C19728   4.675   1.847  10.675  0.3016 -0.0014  0.3622
  147MOL0     C19729   4.594   1.749  10.651 -0.1880 -0.6349 -0.2582
  147MOL0     C19730   4.524   1.672  10.747  1.2746 -0.3587  0.4407
  147MOL0     C19731   4.371   1.691  10.734  0.6759  0.4326 -0.6105
  147MOL0     C19732   4.312   1.577  10.821  0.1794  0.4359  0.2683
  147MOL0     C19733   4.161   1.583  10.839  0.4030  1.5431  0.4243
  147MOL0     O19734   4.120   1.455  10.898 -0.6486  0.4554  0.2911
  147MOL0     C19735   3.998   1.403  10.859  0.2828 -0.4757  0.3565
  147MOL0     C19736   3.902   1.485  10.792  0.5017 -0.1906  0.0987
  147MOL0     C19737   3.776   1.433  10.773  0.2835  0.6727 -0.4662
  147MOL0     C19738   3.731   1.299  10.811 -0.7304  0.0978  0.7856
  147MOL0     C19739   3.597   1.255  10.777 -0.1829  0.5826  0.7015
  147MOL0     O19740   3.570   1.129  10.821 -0.7344  0.4641  0.3656
  147MOL0     C19741   3.455   1.062  10.785  1.0100 -0.1916 -0.3397
  147MOL0     C19742   3.451   0.964  10.682  0.1151 -0.4596 -0.2598
  147MOL0     C19743   3.333   0.893  10.642 -0.1474 -0.3214 -0.3996
  147MOL0     C19744   3.206   0.926  10.714 -0.2355  0.8919 -0.6187
  147MOL0     O19745   3.080   0.876  10.684  0.1457  0.1324 -0.3595
  147MOL0     C19746   3.050   0.824  10.550 -0.3468  1.0767 -1.3698
  147MOL0     C19747   3.082   0.672  10.553 -0.2743  0.7706  1.0867
  147MOL0     C19748   3.030   0.603  10.686  0.5158 -0.4802  0.6008
  147MOL0     C19749   3.060   0.457  10.678  0.5758  0.6800 -0.5040
  147MOL0     C19750   3.024   0.377  10.809 -0.1117  2.5595  0.2364
  147MOL0     C19751   3.013   0.228  10.774 -0.6770  0.1847  0.4083
  147MOL0     C19752   3.137   0.149  10.735 -0.1426 -0.4969  0.3935
  147MOL0     C19753   3.119   0.004  10.716  0.2745 -0.0330 -1.3389
  147MOL0    Cl19754   3.287  -0.073  10.715 -0.1910  0.0460  0.3329
  147MOL0     C19755   3.221   1.014  10.818  0.0732  0.7827 -0.6113
  147MOL0     C19756   3.333   1.081  10.859 -0.4376 -0.5615  0.4979
  147MOL0     O19757   3.518   1.331  10.719  0.0108  0.0249 -0.0732
  147MOL0     C19758   3.832   1.222  10.875  0.1343 -0.0858 -0.9340
  147MOL0     C19759   3.958   1.274  10.893 -0.4013 -0.1001  0.2828
  147MOL0     N19760   4.602   1.729  10.515  1.0710  0.3040 -0.2290
  147MOL0     N19761   4.689   1.801  10.462 -0.3244 -0.5201  0.0305
  147MOL0     C19762   5.500   2.676  10.335  0.3241 -0.2608 -0.2193
  147MOL0     C19763   5.533   2.810  10.294  0.6116 -0.0874  0.5283
  147MOL0     C19764   5.499   3.214  10.123  0.0722  0.6678 -0.7672
  147MOL0     C19765   5.606   3.249  10.035 -0.3992  0.2443  0.2601
  147MOL0     C19766   5.647   3.384   9.997 -0.4456  0.6355  0.4349
  147MOL0     C19767   5.573   3.487  10.065 -0.4097  0.1871 -0.2392
  147MOL0     O19768   5.602   3.619  10.051  0.1681 -0.2279  0.6828
  147MOL0     C19769   5.707   3.667   9.970 -1.0547 -0.5422  1.0866
  147MOL0     C19770   5.848   3.642  10.043  0.1716  0.5706 -0.5489
  147MOL0     C19771   5.859   3.715  10.176 -0.2444  0.6486  0.3968
  147MOL0     C19772   5.746   3.710  10.275 -0.1032 -0.5049  0.5065
  147MOL0     C19773   5.782   3.788  10.400 -0.7848  0.0695  0.1851
  147MOL0     C19774   5.806   3.874  10.484 -0.2163 -0.7231  0.0902
  147MOL0     C19775   5.464   3.452  10.138 -0.3322  0.3574  0.1783
  147MOL0     C19776   5.424   3.319  10.178 -0.2399 -0.2553 -0.1509
  147MOL0     C19777   5.320   3.314  10.281  0.1812  1.0844 -0.5044
  147MOL0     H19778   5.595   2.780   9.976  2.3947 -0.6207  1.4838
  147MOL0     H19779   5.483   2.559  10.009  0.1712  0.3797  0.3994
  147MOL0     H19780   5.595   2.429  10.399 -0.7826  3.1166 -2.5857
  147MOL0     H19781   5.411   2.416  10.440  0.4050  1.0525 -0.2127
  147MOL0     H19782   5.518   2.173  10.461  0.0605  3.4289  1.1691
  147MOL0     H19783   5.590   2.206  10.303 -0.6844  2.4600 -1.9511
  147MOL0     H19784   5.382   2.056  10.283 -0.9425  0.1255  0.0166
  147MOL0     H19785   5.346   2.216  10.216  2.3066 -0.4428 -1.9406
  147MOL0     H19786   5.300   2.176  10.507 -0.7509  0.3143 -0.3956
  147MOL0     H19787   5.221   2.279  10.388  2.5371  1.1391 -2.3283
  147MOL0     H19788   5.097   2.068  10.295  1.3238  1.2797 -1.3847
  147MOL0     H19789   5.187   1.972  10.418  1.3109 -0.0973 -0.1972
  147MOL0     H19790   5.069   2.118  10.603 -0.1580  1.2127 -0.5337
  147MOL0     H19791   5.022   2.220  10.478 -1.7054 -0.6211 -0.9732
  147MOL0     H19792   4.853   2.050  10.394  0.9236 -0.3113 -1.0534
  147MOL0     H19793   4.838   2.137  10.549  0.4017  0.5483  1.2209
  147MOL0     H19794   4.958   1.856  10.535  0.0733 -0.3008  1.9953
  147MOL0     H19795   4.902   1.951  10.676 -0.4768  2.8294 -0.1185
  147MOL0     H19796   4.691   1.887  10.775 -1.9065 -0.8517  1.1022
  147MOL0     H19797   4.551   1.569  10.724 -1.8480 -1.0548 -0.5910
  147MOL0     H19798   4.557   1.702  10.847 -0.5076 -0.5108  1.1101
  147MOL0     H19799   4.329   1.784  10.773 -2.3556 -1.0792  0.0030
  147MOL0     H19800   4.341   1.683  10.630  0.3196  0.2643 -0.4985
  147MOL0     H19801   4.354   1.577  10.922  2.7778  0.0973 -0.7488
  147MOL0     H19802   4.334   1.476  10.784  0.8891 -1.0028  4.1273
  147MOL0     H19803   4.120   1.602  10.739 -1.4997 -2.9028  0.1329
  147MOL0     H19804   4.129   1.663  10.906 -0.9942 -0.2297  1.9606
  147MOL0     H19805   3.918   1.588  10.759 -1.9142 -0.3705 -1.8815
  147MOL0     H19806   3.694   1.494  10.737 -0.9299 -2.2362 -3.0954
  147MOL0     H19807   3.542   0.956  10.624  1.7630  3.6744  1.4050
  147MOL0     H19808   3.338   0.830  10.554  0.8269 -1.4594  0.4245
  147MOL0     H19809   2.942   0.837  10.537 -0.5549  0.0375 -0.7541
  147MOL0     H19810   3.103   0.882  10.474  0.2572  2.0151 -0.2608
  147MOL0     H19811   3.040   0.623  10.465  0.1455  0.7497  0.8928
  147MOL0     H19812   3.191   0.664  10.543 -0.5147 -2.8348 -0.0814
  147MOL0     H19813   3.089   0.644  10.769  1.0353 -0.8308  0.4166
  147MOL0     H19814   2.923   0.621  10.699  0.7021  0.9870  0.2706
  147MOL0     H19815   3.168   0.442  10.671  0.5840 -0.2366  1.0091
  147MOL0     H19816   3.007   0.415  10.592  0.3449  2.6564 -1.3862
  147MOL0     H19817   2.927   0.401  10.852 -0.6975  1.9011 -0.6940
  147MOL0     H19818   3.097   0.379  10.891  3.2498 -3.5171 -1.9830
  147MOL0     H19819   2.968   0.172  10.857  0.2401  1.1920  1.6250
  147MOL0     H19820   2.935   0.220  10.698 -0.9009  0.3735  0.6173
  147MOL0     H19821   3.204   0.153  10.823  0.8448 -3.0630 -0.1562
  147MOL0     H19822   3.188   0.195  10.650 -1.3248 -0.7767 -0.4877
  147MOL0     H19823   3.051  -0.043  10.788 -0.3243  0.1763 -1.7591
  147MOL0     H19824   3.076  -0.025  10.619  0.7083  1.4421 -2.0026
  147MOL0     H19825   3.138   1.038  10.884 -0.4643  0.0649 -1.0068
  147MOL0     H19826   3.336   1.134  10.954 -0.6025  0.2316  0.0659
  147MOL0     H19827   3.817   1.119  10.905 -0.5814 -0.5510 -2.7252
  147MOL0     H19828   4.032   1.216  10.948  0.3663  1.6977  1.2328
  147MOL0     H19829   5.497   2.659  10.442  1.4320  3.2141  0.4742
  147MOL0     H19830   5.535   2.895  10.361 -1.1723  1.2548 -1.0097
  147MOL0     H19831   5.657   3.170   9.981 -0.6660 -1.4127  2.2829
  147MOL0     H19832   5.739   3.400   9.942 -0.6820  1.6078  0.3061
  147MOL0     H19833   5.698   3.771   9.939  0.3014 -1.3310 -2.3433
  147MOL0     H19834   5.706   3.607   9.878 -1.8535  1.4715 -0.2778
  147MOL0     H19835   5.933   3.650   9.975  1.4348 -3.5229  0.2587
  147MOL0     H19836   5.855   3.536  10.069 -1.9388  0.2098 -1.2904
  147MOL0     H19837   5.888   3.819  10.155  0.8598  0.9750  3.1047
  147MOL0     H19838   5.947   3.673  10.226  2.5022  2.3426 -2.6633
  147MOL0     H19839   5.656   3.763  10.242  0.2542 -0.0471  0.2691
  147MOL0     H19840   5.717   3.608  10.302 -5.3293  0.1400 -1.5074
  147MOL0     H19841   5.827   3.941  10.565  0.9088 -1.9786  0.8962
  147MOL0     H19842   5.416   3.535  10.190 -0.9598  0.6585 -0.8474
  147MOL0     H19843   5.294   3.408  10.329 -1.8318  0.9188 -1.1676
  147MOL0     H19844   5.224   3.279  10.240 -0.5285  0.2197  1.7554
  147MOL0     H19845   5.348   3.246  10.362  1.2189  0.4990 -1.3261
  148MOL0     O19846   7.298   5.240   4.253  1.3124 -0.1760  0.1257
  148MOL0     C19847   7.398   5.258   4.314  0.0074  0.5331  0.4276
  148MOL0     O19848   7.517   5.189   4.307  0.4013 -0.2406 -0.6924
  148MOL0     C19849   7.532   5.080   4.226  0.1666  0.4218 -0.6668
  148MOL0     C19850   7.443   4.964   4.228  0.0297 -1.3375 -0.5297
  148MOL0     C19851   7.479   4.855   4.152  0.9533 -0.0586 -0.2181
  148MOL0     C19852   7.593   4.846   4.070  0.3201  0.2766 -0.6078
  148MOL0     O19853   7.642   4.729   4.000  0.6684 -0.1308 -0.1549
  148MOL0     C19854   7.599   4.602   4.056 -0.5109  0.5081 -0.3102
  148MOL0     C19855   7.723   4.515   4.067  0.2063  0.4918  0.2052
  148MOL0     C19856   7.683   4.376   4.129 -0.1461 -0.1575 -1.1008
  148MOL0     C19857   7.804   4.316   4.199 -0.7775 -0.1603  0.3507
  148MOL0     C19858   7.912   4.265   4.107  0.0779  0.0123 -0.9837
  148MOL0     C19859   8.048   4.247   4.178  0.5300 -0.8188  0.6675
  148MOL0     C19860   8.161   4.218   4.078 -0.7990 -0.8591  0.4791
  148MOL0     C19861   8.304   4.226   4.127 -0.5447 -0.1594 -0.3858
  148MOL0     N19862   8.327   4.359   4.184  0.0473  0.5219 -0.5059
  148MOL0     C19863   8.317   4.398   4.311 -1.2925  0.6240  0.4374
  148MOL0     C19864   8.316   4.531   4.301 -0.3779  0.3655 -0.2320
  148MOL0     C19865   8.329   4.626   4.412  0.8885  0.7150 -0.0936
  148MOL0     C19866   8.205   4.647   4.493  0.1741 -0.2683 -0.3765
  148MOL0     C19867   8.147   4.519   4.538  0.5584 -0.1451  0.6115
  148MOL0     C19868   8.013   4.542   4.614 -0.2982 -0.6857 -0.0155
  148MOL0     O19869   7.915   4.578   4.517 -0.0861  0.2476  0.2351
  148MOL0     C19870   7.787   4.600   4.558  0.5775  0.7594  0.1667
  148MOL0     C19871   7.686   4.623   4.469 -0.0007  0.1449 -0.1771
  148MOL0     C19872   7.554   4.652   4.491  0.5489  0.0172  0.0771
  148MOL0     C19873   7.512   4.662   4.630 -0.2802 -0.1953 -1.2112
  148MOL0     C19874   7.391   4.710   4.667  1.0729 -0.8997  1.2625
  148MOL0     O19875   7.362   4.738   4.797 -0.5007 -0.7525  0.3077
  148MOL0     C19876   7.281   4.841   4.832  0.3080  0.6177 -0.1579
  148MOL0     C19877   7.292   4.961   4.757 -0.8098 -0.4248  0.3403
  148MOL0     C19878   7.218   5.072   4.797  0.2869  0.6765  0.1635
  148MOL0     C19879   7.131   5.060   4.903 -0.2888 -0.0659 -0.1555
  148MOL0     O19880   7.062   5.170   4.939 -0.0947  0.1473  0.5302
  148MOL0     C19881   6.920   5.186   4.938  0.1359 -0.4458 -0.4048
  148MOL0     C19882   6.887   5.276   5.056 -0.0054 -0.0994 -0.0599
  148MOL0     C19883   6.843   5.177   5.170  0.1506  0.2106 -0.4259
  148MOL0     C19884   6.826   5.246   5.304  0.4845 -0.2255  0.3750
  148MOL0     C19885   6.689   5.321   5.302  0.9886 -0.7173  0.6963
  148MOL0     C19886   6.670   5.411   5.421  0.7147 -0.1547  0.3550
  148MOL0     C19887   6.525   5.469   5.420  0.1908 -0.0357  0.0070
  148MOL0     C19888   6.497   5.583   5.520  0.7302  0.1603  0.2866
  148MOL0    Cl19889   6.566   5.738   5.447 -0.2140 -0.6444  0.1831
  148MOL0     C19890   7.116   4.944   4.984 -0.4747 -0.5400  0.0594
  148MOL0     C19891   7.194   4.833   4.946 -0.1420 -0.1232  0.5812
  148MOL0     O19892   7.301   4.717   4.580  0.2488 -0.2909  0.1455
  148MOL0     C19893   7.605   4.641   4.731 -0.9626  0.2562  0.3795
  148MOL0     C19894   7.740   4.605   4.695  0.5633 -0.0360  0.0076
  148MOL0     N19895   8.336   4.572   4.168 -0.9884 -0.5266 -0.0475
  148MOL0     N19896   8.340   4.463   4.097  1.1060 -0.7969  0.7235
  148MOL0     C19897   7.676   4.953   4.074  0.8101  0.0422 -0.4599
  148MOL0     C19898   7.644   5.070   4.144  0.6211 -0.1491  0.3185
  148MOL0     C19899   7.405   5.366   4.406 -0.2798 -0.0451 -1.2849
  148MOL0     C19900   7.525   5.437   4.421  1.2206  0.9760 -0.1476
  148MOL0     C19901   7.541   5.544   4.513 -0.9643 -0.1555  0.5104
  148MOL0     C19902   7.434   5.597   4.582  0.0272  0.5192  0.4789
  148MOL0     O19903   7.461   5.708   4.653 -0.0640  0.6045 -0.3771
  148MOL0     C19904   7.356   5.789   4.714  1.2418  0.6751 -0.6352
  148MOL0     C19905   7.267   5.858   4.611 -0.8368 -0.7141  0.0215
  148MOL0     C19906   7.154   5.941   4.680 -0.1030 -0.1135  0.0149
  148MOL0     C19907   7.038   5.868   4.751  0.3037  0.1568 -0.6223
  148MOL0     C19908   6.986   5.744   4.691 -0.6991 -0.0076 -0.2724
  148MOL0     C19909   6.949   5.628   4.668 -0.5567  0.3988  0.1625
  148MOL0     C19910   7.314   5.534   4.571  0.1613 -0.6964  1.1268
  148MOL0     C19911   7.299   5.424   4.495  0.2265 -0.5447  0.4446
  148MOL0     C19912   7.166   5.354   4.488  0.0230  0.8834  0.0105
  148MOL0     H19913   7.360   4.974   4.297  1.7059  1.5862  1.3053
  148MOL0     H19914   7.420   4.764   4.151  0.0008  0.5418  0.0815
  148MOL0     H19915   7.564   4.618   4.158  2.6343  1.7578  0.7316
  148MOL0     H19916   7.521   4.557   3.994 -0.5922 -1.5212  1.1998
  148MOL0     H19917   7.799   4.560   4.131  0.0554  2.2665 -0.8114
  148MOL0     H19918   7.775   4.502   3.972  2.0477 -1.4671  1.3898
  148MOL0     H19919   7.642   4.307   4.055  1.0463  2.5185 -4.5623
  148MOL0     H19920   7.607   4.388   4.207  0.1722  1.6400 -1.0167
  148MOL0     H19921   7.834   4.384   4.279 -3.6287 -0.1153  1.4977
  148MOL0     H19922   7.776   4.232   4.263  0.0993 -0.1748  0.7309
  148MOL0     H19923   7.875   4.167   4.078 -0.8062  0.2708 -0.7383
  148MOL0     H19924   7.943   4.334   4.027 -1.6403  1.4562 -0.4646
  148MOL0     H19925   8.072   4.335   4.238 -0.8686 -0.2773  0.4621
  148MOL0     H19926   8.042   4.162   4.247  1.2996 -2.0431 -0.7313
  148MOL0     H19927   8.161   4.293   3.999  0.8359 -1.7581 -0.4119
  148MOL0     H19928   8.149   4.116   4.039  0.9875 -0.6646 -0.6508
  148MOL0     H19929   8.325   4.158   4.210 -1.0026  0.2657  0.0928
  148MOL0     H19930   8.375   4.208   4.046 -0.2977  0.3906 -0.2978
  148MOL0     H19931   8.310   4.331   4.396 -0.6514 -2.9014 -2.0702
  148MOL0     H19932   8.414   4.595   4.474 -1.1439  0.1231  2.5640
  148MOL0     H19933   8.367   4.719   4.369  3.6846 -0.7154 -1.0197
  148MOL0     H19934   8.228   4.698   4.587  2.9488 -2.7169  0.3990
  148MOL0     H19935   8.132   4.697   4.428  0.8292  2.1350  0.6233
  148MOL0     H19936   8.216   4.460   4.598  1.3757  1.2821  1.1295
  148MOL0     H19937   8.124   4.463   4.447  1.7492 -0.8124  0.7134
  148MOL0     H19938   8.025   4.618   4.691 -2.6494 -1.4581  1.2344
  148MOL0     H19939   7.969   4.455   4.663 -2.0260 -0.0096 -0.2958
  148MOL0     H19940   7.729   4.616   4.370  0.5126  0.0513  0.0480
  148MOL0     H19941   7.484   4.674   4.410 -0.8045 -3.5805  0.0591
  148MOL0     H19942   7.359   4.975   4.672 -0.3435 -2.5695  0.3023
  148MOL0     H19943   7.243   5.165   4.746  3.9925 -0.4400 -0.3227
  148MOL0     H19944   6.886   5.222   4.841  1.3810 -1.6733 -1.3528
  148MOL0     H19945   6.871   5.088   4.945 -2.1806  0.7801  3.0166
  148MOL0     H19946   6.971   5.341   5.082 -0.1464 -0.2230  0.7287
  148MOL0     H19947   6.797   5.330   5.025 -1.1990 -3.1554 -2.4799
  148MOL0     H19948   6.756   5.117   5.140  0.3677  0.0780 -0.7892
  148MOL0     H19949   6.924   5.106   5.185  1.1775  1.1263 -1.3810
  148MOL0     H19950   6.902   5.324   5.297  0.6670 -0.5492 -1.7187
  148MOL0     H19951   6.844   5.188   5.396 -0.2194 -1.2036 -0.0835
  148MOL0     H19952   6.602   5.257   5.285  0.1909  0.1747  1.3513
  148MOL0     H19953   6.684   5.388   5.216 -3.9448  0.3176  1.4836
  148MOL0     H19954   6.671   5.356   5.516 -1.3549  1.8458  1.6372
  148MOL0     H19955   6.749   5.485   5.425  0.0585  0.5950 -0.2542
  148MOL0     H19956   6.470   5.379   5.451 -0.6036  0.6296  0.5419
  148MOL0     H19957   6.504   5.497   5.316  2.2509  0.3834 -0.3419
  148MOL0     H19958   6.389   5.590   5.539  0.7812 -1.4158  1.3101
  148MOL0     H19959   6.550   5.551   5.610  1.1617 -2.0071 -0.6874
  148MOL0     H19960   7.043   4.948   5.064 -1.0050  3.9317 -0.3914
  148MOL0     H19961   7.183   4.746   5.010 -2.9826 -0.8638 -0.7134
  148MOL0     H19962   7.582   4.652   4.837  2.3150  0.9176  1.1220
  148MOL0     H19963   7.814   4.598   4.774 -1.4779  2.1293  2.2989
  148MOL0     H19964   7.768   4.952   4.016  0.2153 -2.1474 -1.4389
  148MOL0     H19965   7.702   5.161   4.134 -0.4066  0.4302 -0.5397
  148MOL0     H19966   7.606   5.398   4.360 -0.4151 -3.1645  0.0370
  148MOL0     H19967   7.642   5.583   4.512 -0.3294 -1.5944 -2.4873
  148MOL0     H19968   7.392   5.874   4.773 -3.4597  2.6750 -0.2099
  148MOL0     H19969   7.292   5.735   4.785 -1.4900  4.0693 -0.2941
  148MOL0     H19970   7.221   5.781   4.547 -0.8618 -2.7197  2.3047
  148MOL0     H19971   7.339   5.919   4.556 -1.6830 -1.7156 -2.3409
  148MOL0     H19972   7.106   5.997   4.599 -1.9197  1.2072  1.8774
  148MOL0     H19973   7.188   6.026   4.740 -1.3659  1.2299 -1.0828
  148MOL0     H19974   7.089   5.849   4.846 -2.1644  1.6353  1.1206
  148MOL0     H19975   6.952   5.931   4.775  0.5509  0.4004 -0.3727
  148MOL0     H19976   6.917   5.526   4.673 -0.1033  0.0074 -3.1252
  148MOL0     H19977   7.228   5.570   4.627 -0.9535 -0.2901 -0.7428
  148MOL0     H19978   7.124   5.347   4.589  0.0559 -3.5597 -0.0935
  148MOL0     H19979   7.102   5.412   4.422 -0.4925 -0.1130 -0.3892
  148MOL0     H19980   7.170   5.253   4.447  0.8639  0.3542  1.2966
  149MOL0     O19981   9.971   7.309   0.262 -0.3128 -0.4145  0.0532
  149MOL0     C19982   9.955   7.429   0.287  0.8359  0.4793  0.2941
  149MOL0     O19983  10.052   7.526   0.295  0.0117  0.2708  0.0929
  149MOL0     C19984  10.178   7.485   0.263  0.5660 -1.1057 -0.2201
  149MOL0     C19985  10.213   7.450   0.127  0.2163  0.5179  0.3119
  149MOL0     C19986  10.348   7.445   0.094 -0.5950 -0.1182 -0.1453
  149MOL0     C19987  10.445   7.449   0.198  0.4801  0.3298 -0.5475
  149MOL0     O19988  10.577   7.448   0.177 -0.2579  0.2051  0.5574
  149MOL0     C19989  10.661   7.404   0.283 -0.3231  0.1967 -0.5692
  149MOL0     C19990  10.742   7.506   0.370 -0.9751  0.0506  0.2236
  149MOL0     C19991  10.864   7.455   0.449 -0.2876  0.0002  1.3453
  149MOL0     C19992  10.976   7.413   0.353 -0.3306  0.0860 -0.3032
  149MOL0     C19993  11.099   7.348   0.431  0.5430 -0.3372  0.0786
  149MOL0     C19994  11.162   7.441   0.529 -0.6180  0.4074 -0.0630
  149MOL0     C19995  11.307   7.395   0.553  0.3458 -0.8511 -0.0866
  149MOL0     C19996  11.398   7.510   0.626 -0.1181  1.1940  0.8721
  149MOL0     N19997  11.527   7.445   0.646 -0.3773  0.0928  0.3311
  149MOL0     C19998  11.630   7.434   0.562  0.1512  0.7347  1.1423
  149MOL0     C19999  11.711   7.342   0.621  0.5830 -0.8984  0.2479
  149MOL0     C20000  11.834   7.305   0.551 -0.2736  0.1626  1.2068
  149MOL0     C20001  11.958   7.381   0.596  0.1602  0.6959  0.0857
  149MOL0     C20002  12.002   7.353   0.746  0.0077  0.2391  0.2467
  149MOL0     C20003  12.125   7.437   0.797  0.3677 -0.0717  0.8690
  149MOL0     O20004  12.247   7.407   0.720  0.0145  0.1734  0.5814
  149MOL0     C20005  12.367   7.472   0.754  0.8952  0.2657  0.4163
  149MOL0     C20006  12.368   7.570   0.847 -0.2545 -0.2524  0.2414
  149MOL0     C20007  12.486   7.641   0.879 -1.1731 -0.3810 -0.0598
  149MOL0     C20008  12.607   7.602   0.813  0.2846  0.0655  0.4577
  149MOL0     C20009  12.730   7.677   0.839  0.1075 -0.6449  0.6391
  149MOL0     O20010  12.832   7.680   0.754  0.4514  0.1311 -0.2272
  149MOL0     C20011  12.961   7.683   0.799 -0.4181 -0.6970  0.1783
  149MOL0     C20012  13.011   7.628   0.915 -0.3965  0.2739 -0.1316
  149MOL0     C20013  13.151   7.617   0.936  1.5697 -0.3258  0.0311
  149MOL0     C20014  13.237   7.674   0.846  0.1540 -0.7308 -0.1956
  149MOL0     O20015  13.372   7.659   0.868 -0.4320  0.3769 -0.7548
  149MOL0     C20016  13.463   7.762   0.819  0.2747  0.1308 -0.4681
  149MOL0     C20017  13.590   7.738   0.895 -0.2819  0.1808 -0.3752
  149MOL0     C20018  13.713   7.830   0.857 -0.3225 -0.1241 -0.9697
  149MOL0     C20019  13.789   7.875   0.993  0.3891  0.3521 -0.5360
  149MOL0     C20020  13.889   7.981   0.963  0.5095  0.1410 -0.2447
  149MOL0     C20021  14.023   7.917   0.930 -0.1433  1.3423  0.2944
  149MOL0     C20022  14.125   8.038   0.924 -0.8011  0.3323  0.3883
  149MOL0     C20023  14.274   7.994   0.936  0.0521  0.3528  0.1855
  149MOL0    Cl20024  14.300   7.924   1.095 -0.1715  0.1179 -0.3100
  149MOL0     C20025  13.190   7.748   0.744 -0.4268  0.0179 -0.0712
  149MOL0     C20026  13.060   7.742   0.713 -0.5507  0.1628 -0.4063
  149MOL0     O20027  12.735   7.743   0.944  0.7783  0.4460  0.3677
  149MOL0     C20028  12.605   7.490   0.724 -0.1986  0.7370 -0.1580
  149MOL0     C20029  12.483   7.434   0.691 -0.5305  0.1548 -0.1989
  149MOL0     N20030  11.664   7.305   0.743 -0.7593 -0.6733 -0.4006
  149MOL0     N20031  11.560   7.378   0.758  0.2254 -0.3904 -0.8405
  149MOL0     C20032  10.405   7.480   0.330  0.0605  0.6826  0.2614
  149MOL0     C20033  10.267   7.493   0.363 -0.4008 -0.2458  0.5696
  149MOL0     C20034   9.814   7.468   0.294 -0.1063 -0.7638 -0.6034
  149MOL0     C20035   9.776   7.593   0.241  0.5128  0.8159 -0.1750
  149MOL0     C20036   9.642   7.633   0.237 -0.2808 -0.7103 -0.3826
  149MOL0     C20037   9.537   7.554   0.289  0.1732 -1.1376  0.0824
  149MOL0     O20038   9.402   7.589   0.277 -1.0649 -0.2456  0.4680
  149MOL0     C20039   9.371   7.680   0.174  0.5355 -0.5289  0.0712
  149MOL0     C20040   9.255   7.612   0.089 -0.5094  0.9140  0.4550
  149MOL0     C20041   9.137   7.595   0.162  0.4706 -0.4206 -0.8536
  149MOL0     C20042   9.073   7.720   0.230 -0.2877 -0.3337 -0.0327
  149MOL0     C20043   9.060   7.839   0.140  0.7106  0.2085 -0.1955
  149MOL0     C20044   9.044   7.939   0.070  0.0511 -0.5215 -0.5833
  149MOL0     C20045   9.576   7.429   0.342 -0.7051  0.3931  0.5490
  149MOL0     C20046   9.710   7.388   0.345  0.1945  0.8866 -0.0775
  149MOL0     C20047   9.731   7.245   0.391  0.9531  0.1237 -0.2269
  149MOL0     H20048  10.137   7.456   0.050 -2.0007 -1.4476  2.1769
  149MOL0     H20049  10.383   7.433  -0.008 -0.2068  0.0597 -0.0353
  149MOL0     H20050  10.613   7.336   0.355  0.0786  1.2171  0.7135
  149MOL0     H20051  10.733   7.331   0.243 -0.2084 -0.0277  0.0203
  149MOL0     H20052  10.673   7.550   0.443  0.4051  1.1732  0.9035
  149MOL0     H20053  10.768   7.587   0.301 -0.9662  0.9440  1.2414
  149MOL0     H20054  10.840   7.373   0.518 -1.3506 -0.6713  0.2104
  149MOL0     H20055  10.892   7.546   0.501  1.1491 -1.5114  3.3938
  149MOL0     H20056  10.934   7.336   0.287 -2.9776 -0.8106  2.2069
  149MOL0     H20057  11.011   7.497   0.293  1.4558  1.2755  2.2394
  149MOL0     H20058  11.058   7.261   0.484 -1.0758  1.2026  1.4989
  149MOL0     H20059  11.181   7.324   0.363  0.9702 -1.1176  0.8457
  149MOL0     H20060  11.169   7.541   0.485  1.5349  1.1336  1.7483
  149MOL0     H20061  11.112   7.458   0.625  0.8878 -1.1116  1.0579
  149MOL0     H20062  11.367   7.382   0.462  1.7840  0.4042  0.6377
  149MOL0     H20063  11.300   7.301   0.608 -3.0724 -1.2267 -0.9570
  149MOL0     H20064  11.417   7.593   0.558  2.3176 -0.1794 -0.2785
  149MOL0     H20065  11.351   7.533   0.722 -1.5891 -2.3494  1.1710
  149MOL0     H20066  11.655   7.489   0.471  1.9396  1.0047  1.7467
  149MOL0     H20067  11.856   7.198   0.542 -1.9523 -0.1012 -0.2417
  149MOL0     H20068  11.828   7.307   0.441  0.3244 -0.0106  1.1656
  149MOL0     H20069  12.041   7.362   0.527  1.1152 -1.1009  1.6585
  149MOL0     H20070  11.948   7.488   0.575  0.8571  1.0384  1.3826
  149MOL0     H20071  12.033   7.249   0.753  0.8799  0.0507 -3.7655
  149MOL0     H20072  11.918   7.366   0.814  1.9619  1.9154  2.4827
  149MOL0     H20073  12.149   7.415   0.902  1.6287  2.5670  1.2260
  149MOL0     H20074  12.099   7.543   0.787  0.2328 -0.2247 -0.5112
  149MOL0     H20075  12.285   7.604   0.908  1.1066  0.0163  2.0339
  149MOL0     H20076  12.495   7.727   0.945  0.0591 -1.6270  1.4638
  149MOL0     H20077  12.951   7.582   0.993  1.9618  2.3138  3.1123
  149MOL0     H20078  13.193   7.559   1.017 -2.8796 -2.3466  1.1785
  149MOL0     H20079  13.477   7.758   0.711  1.5654  2.7034 -0.4783
  149MOL0     H20080  13.422   7.861   0.843 -0.2969 -0.7643  2.7850
  149MOL0     H20081  13.575   7.737   1.003  0.4183 -2.6694 -0.2131
  149MOL0     H20082  13.623   7.634   0.882  1.2739  0.1730  2.6955
  149MOL0     H20083  13.777   7.766   0.796 -1.6415 -4.3710  1.6443
  149MOL0     H20084  13.682   7.915   0.796  1.3649  0.1673 -1.4730
  149MOL0     H20085  13.840   7.786   1.031 -4.7046 -3.1015 -0.7821
  149MOL0     H20086  13.714   7.910   1.064 -0.2339 -0.5144 -0.7428
  149MOL0     H20087  13.893   8.051   1.048  0.0064 -1.0575  0.7920
  149MOL0     H20088  13.857   8.048   0.882  0.8593 -1.7594 -2.0309
  149MOL0     H20089  14.059   7.849   1.008 -1.3621  0.2156 -0.0881
  149MOL0     H20090  14.020   7.866   0.833  3.3505  1.5438 -0.0500
  149MOL0     H20091  14.116   8.092   1.019 -1.0845 -1.9341  1.7480
  149MOL0     H20092  14.105   8.090   0.830 -0.4395  0.9597  0.6556
  149MOL0     H20093  14.290   7.911   0.866 -0.8019 -0.5418  1.0279
  149MOL0     H20094  14.342   8.078   0.918  1.1342 -0.9072 -2.2191
  149MOL0     H20095  13.261   7.802   0.683  2.3775 -2.3659  0.8390
  149MOL0     H20096  13.026   7.776   0.615  2.3424 -1.9106 -2.2794
  149MOL0     H20097  12.696   7.454   0.678 -1.7790 -1.2540 -1.9131
  149MOL0     H20098  12.474   7.364   0.608 -0.1502 -0.3887  0.2041
  149MOL0     H20099  10.472   7.492   0.415  1.2762  0.8756 -0.7000
  149MOL0     H20100  10.239   7.519   0.464  2.2981 -0.1286  1.3452
  149MOL0     H20101   9.855   7.648   0.190  1.8770  0.3035  1.3147
  149MOL0     H20102   9.629   7.726   0.182  1.1779  1.4287  2.5731
  149MOL0     H20103   9.438   7.709   0.093 -0.7812 -3.8053 -2.4048
  149MOL0     H20104   9.337   7.764   0.235  1.1651 -2.1730  2.9026
  149MOL0     H20105   9.294   7.514   0.057 -0.0413  0.9147  0.9997
  149MOL0     H20106   9.227   7.660  -0.004 -1.9360 -1.2140 -0.2953
  149MOL0     H20107   9.154   7.527   0.247 -2.6387  1.1395  1.2296
  149MOL0     H20108   9.060   7.550   0.100  1.3958 -1.6237 -1.1864
  149MOL0     H20109   8.974   7.697   0.269 -1.3488  0.9374 -1.8535
  149MOL0     H20110   9.132   7.756   0.315 -2.8902  0.7161  1.4252
  149MOL0     H20111   9.045   8.038   0.030  1.8148 -0.5152 -0.6019
  149MOL0     H20112   9.504   7.350   0.356  1.7506 -2.5904 -2.0921
  149MOL0     H20113   9.649   7.219   0.459 -1.7345  0.4508 -3.1278
  149MOL0     H20114   9.723   7.169   0.313 -0.0483 -0.1032  0.0721
  149MOL0     H20115   9.821   7.233   0.452 -0.6720 -0.0637  2.3004
  150MOL0     O20116   1.593   2.947   8.113 -0.6387 -0.0059  0.3136
  150MOL0     C20117   1.617   2.918   8.231 -0.9770  0.6351  0.1397
  150MOL0     O20118   1.745   2.903   8.288 -0.1961  0.3685 -0.7254
  150MOL0     C20119   1.869   2.944   8.233  0.8169  0.1029 -0.2696
  150MOL0     C20120   1.881   3.064   8.171  0.3102 -1.6376  0.6998
  150MOL0     C20121   2.007   3.108   8.137  0.4063 -0.6136 -0.3620
  150MOL0     C20122   2.121   3.042   8.176 -0.5066 -0.3962 -0.6420
  150MOL0     O20123   2.259   3.084   8.161  0.0812  0.3224 -0.3261
  150MOL0     C20124   2.287   3.189   8.068  0.3010 -0.5290  0.0795
  150MOL0     C20125   2.438   3.207   8.069  0.4166 -0.7813  0.4844
  150MOL0     C20126   2.479   3.316   7.972 -0.1698  0.0452  0.1573
  150MOL0     C20127   2.425   3.446   8.011  0.3935  0.1071  0.8304
  150MOL0     C20128   2.481   3.559   7.929 -0.0105  0.4559  0.2889
  150MOL0     C20129   2.412   3.696   7.934  0.4284 -0.4535 -0.2796
  150MOL0     C20130   2.442   3.786   7.812  0.1816  0.6756  0.4251
  150MOL0     C20131   2.323   3.785   7.715 -0.9153 -0.8636 -0.1513
  150MOL0     N20132   2.347   3.866   7.601 -0.5140  0.4344  0.1626
  150MOL0     C20133   2.458   3.860   7.514 -0.7661 -0.0731 -0.0323
  150MOL0     C20134   2.456   3.958   7.428 -0.3174  0.1203  0.7187
  150MOL0     C20135   2.547   4.003   7.322  0.4009 -0.1857 -0.1488
  150MOL0     C20136   2.693   4.000   7.364  0.0110 -0.0742  0.1032
  150MOL0     C20137   2.774   4.064   7.243 -0.0220 -0.0416 -0.1801
  150MOL0     C20138   2.918   4.087   7.292  0.4170 -0.7649 -0.0020
  150MOL0     O20139   3.001   4.100   7.177 -0.0630 -1.1124  0.0396
  150MOL0     C20140   3.121   4.158   7.190 -0.3417  0.3994  0.0737
  150MOL0     C20141   3.192   4.167   7.306  0.1502 -0.5500  0.3332
  150MOL0     C20142   3.308   4.237   7.313  0.8285 -0.1760  0.1793
  150MOL0     C20143   3.364   4.286   7.194  0.2769  0.3927  0.2545
  150MOL0     C20144   3.493   4.356   7.201 -0.4017  0.0463  0.8107
  150MOL0     O20145   3.559   4.364   7.070  0.0299  0.2147 -0.1412
  150MOL0     C20146   3.666   4.443   7.047  0.4139  0.2980 -0.3607
  150MOL0     C20147   3.786   4.390   6.991 -0.5553 -0.8514  0.1153
  150MOL0     C20148   3.889   4.476   6.951 -0.4478  0.3418  0.1169
  150MOL0     C20149   3.875   4.614   6.972  0.1677  0.5445 -0.0314
  150MOL0     O20150   3.965   4.702   6.930 -0.1903 -0.7087  0.7650
  150MOL0     C20151   4.087   4.664   6.869  0.2173 -0.1721  0.4244
  150MOL0     C20152   4.176   4.777   6.843 -0.1577 -0.0752 -0.2714
  150MOL0     C20153   4.326   4.751   6.817  1.2220 -0.1846  0.3050
  150MOL0     C20154   4.420   4.868   6.830  0.7580  0.2218  0.0092
  150MOL0     C20155   4.417   4.975   6.720 -0.5926  0.2487  1.0209
  150MOL0     C20156   4.523   5.083   6.754 -0.1613  0.4338  1.0952
  150MOL0     C20157   4.499   5.219   6.691  0.3884  0.0627  0.2365
  150MOL0     C20158   4.501   5.331   6.793  0.5432 -0.6086  0.1055
  150MOL0    Cl20159   4.527   5.493   6.724 -0.2240 -0.3762  0.4528
  150MOL0     C20160   3.769   4.661   7.047  0.5110 -0.1980  0.7303
  150MOL0     C20161   3.656   4.581   7.079  0.1686 -0.5415 -0.1097
  150MOL0     O20162   3.544   4.388   7.307 -0.1174  0.0555 -0.0810
  150MOL0     C20163   3.293   4.278   7.070 -0.4361 -0.0724 -0.5309
  150MOL0     C20164   3.178   4.203   7.071 -0.1544 -0.1353 -0.2919
  150MOL0     N20165   2.335   4.020   7.455  0.4192  0.6512  0.4498
  150MOL0     N20166   2.269   3.963   7.552  0.1958  0.1971  0.2694
  150MOL0     C20167   2.100   2.908   8.222 -0.5915 -0.2242 -0.5232
  150MOL0     C20168   1.978   2.861   8.259  0.3828  0.2379 -0.0078
  150MOL0     C20169   1.493   2.892   8.317 -0.6652 -0.6979  0.2138
  150MOL0     C20170   1.378   2.895   8.241  0.4602  0.5443 -0.0297
  150MOL0     C20171   1.256   2.868   8.303  0.0396 -0.3625  0.0035
  150MOL0     C20172   1.255   2.833   8.436 -0.6363 -0.2787  1.2735
  150MOL0     O20173   1.147   2.791   8.499 -0.8853  0.7174 -0.3152
  150MOL0     C20174   1.029   2.762   8.429 -0.0943  0.3289 -0.1373
  150MOL0     C20175   0.917   2.691   8.509  0.3524  0.0498 -0.1240
  150MOL0     C20176   0.855   2.777   8.624 -1.2291  1.3395  0.2507
  150MOL0     C20177   0.753   2.873   8.568  0.3724  0.2566 -0.5110
  150MOL0     C20178   0.809   3.005   8.532  0.2378 -0.5922 -0.6766
  150MOL0     C20179   0.845   3.113   8.498  0.4566 -0.2834  0.1186
  150MOL0     C20180   1.374   2.832   8.516  0.0350  0.3250  0.0260
  150MOL0     C20181   1.493   2.878   8.460  0.5837  0.2839  1.0932
  150MOL0     C20182   1.607   2.906   8.561 -0.2492 -0.6729 -0.5516
  150MOL0     H20183   1.797   3.119   8.131  2.1249  0.4813 -0.4714
  150MOL0     H20184   2.017   3.207   8.094 -1.3796 -0.3862 -0.3180
  150MOL0     H20185   2.238   3.161   7.975 -2.1741 -0.0218  1.1359
  150MOL0     H20186   2.241   3.283   8.101 -0.5779 -0.5437 -1.0472
  150MOL0     H20187   2.491   3.116   8.041 -3.4988 -2.6297 -1.6961
  150MOL0     H20188   2.468   3.239   8.170  2.8843 -2.0597  0.2266
  150MOL0     H20189   2.439   3.290   7.874 -3.7594 -0.2805  1.5925
  150MOL0     H20190   2.588   3.329   7.966 -0.3218  0.8166 -1.1946
  150MOL0     H20191   2.316   3.445   8.003  0.5174  1.0169 -2.6539
  150MOL0     H20192   2.430   3.458   8.119 -5.1219 -1.8498  1.6071
  150MOL0     H20193   2.584   3.561   7.966  0.3725 -2.9819 -0.2403
  150MOL0     H20194   2.476   3.534   7.823  1.2092  1.8058 -0.1223
  150MOL0     H20195   2.304   3.681   7.935  0.6521 -3.1913  3.6722
  150MOL0     H20196   2.440   3.748   8.026  1.0988  2.6640 -2.0752
  150MOL0     H20197   2.531   3.756   7.757 -0.4329  1.9113 -1.3087
  150MOL0     H20198   2.467   3.883   7.856  0.6746  0.5425  0.4433
  150MOL0     H20199   2.281   3.690   7.680  1.2725 -0.7448 -3.5395
  150MOL0     H20200   2.246   3.839   7.772 -1.7192 -2.2561  0.1427
  150MOL0     H20201   2.547   3.799   7.526 -0.9363 -0.9680 -2.7093
  150MOL0     H20202   2.532   3.942   7.233  1.1584 -1.7389  0.7447
  150MOL0     H20203   2.521   4.101   7.282 -0.0454 -0.4717 -0.5598
  150MOL0     H20204   2.707   4.043   7.464  5.8622 -0.6179 -0.1185
  150MOL0     H20205   2.731   3.899   7.378  0.1334  0.1518  1.6563
  150MOL0     H20206   2.732   4.163   7.223 -0.4740 -0.6307 -2.3870
  150MOL0     H20207   2.772   4.003   7.153  2.1853 -0.1448 -0.2029
  150MOL0     H20208   2.946   3.995   7.344 -2.1503 -1.1319  0.8676
  150MOL0     H20209   2.936   4.176   7.354 -0.4051 -1.2632  0.9781
  150MOL0     H20210   3.172   4.115   7.398  0.6074 -2.5809 -0.6612
  150MOL0     H20211   3.350   4.244   7.413  0.6192 -0.5160  0.2939
  150MOL0     H20212   3.796   4.283   6.972 -3.1327 -1.3692  1.1270
  150MOL0     H20213   3.969   4.430   6.894  1.6318  1.0646  2.3096
  150MOL0     H20214   4.141   4.582   6.917 -1.7353  0.0177  3.2007
  150MOL0     H20215   4.064   4.626   6.769 -1.9147 -0.8477  1.1187
  150MOL0     H20216   4.141   4.851   6.771  1.1327  0.0019 -0.8500
  150MOL0     H20217   4.190   4.830   6.937  0.8867  3.1503 -2.0992
  150MOL0     H20218   4.354   4.683   6.897 -0.1697  0.2486  1.2097
  150MOL0     H20219   4.337   4.700   6.721  0.6877 -0.9103  0.6157
  150MOL0     H20220   4.520   4.823   6.824  0.1388 -1.3977  1.1683
  150MOL0     H20221   4.409   4.925   6.923 -0.4270  2.5477 -1.4499
  150MOL0     H20222   4.320   5.024   6.727  0.0235  1.4421  1.5637
  150MOL0     H20223   4.438   4.931   6.622 -1.9747 -0.4055  0.9949
  150MOL0     H20224   4.530   5.098   6.862 -2.1184  1.3143  1.1578
  150MOL0     H20225   4.619   5.042   6.723 -0.3297  1.1211 -0.4579
  150MOL0     H20226   4.400   5.217   6.644 -0.8426  2.9289  2.4272
  150MOL0     H20227   4.569   5.230   6.608 -1.9167  0.3300 -1.7935
  150MOL0     H20228   4.406   5.319   6.847 -1.0175 -2.9266 -2.8508
  150MOL0     H20229   4.578   5.309   6.868 -0.3416 -0.8005  0.9945
  150MOL0     H20230   3.772   4.765   7.075 -0.0141  1.1705 -3.5652
  150MOL0     H20231   3.581   4.624   7.145  1.5105 -0.8068  1.6908
  150MOL0     H20232   3.340   4.301   6.975  2.4358 -3.0153 -0.0316
  150MOL0     H20233   3.119   4.194   6.980 -1.6095  0.6403  0.5236
  150MOL0     H20234   2.194   2.854   8.233  0.5624  1.3846 -1.8663
  150MOL0     H20235   1.965   2.767   8.312  5.5149 -1.1561 -0.6852
  150MOL0     H20236   1.369   2.929   8.138  0.9453 -1.5099 -0.8101
  150MOL0     H20237   1.168   2.859   8.240 -0.3374 -4.3745  0.8244
  150MOL0     H20238   1.045   2.693   8.345 -0.9866 -0.9005  0.6520
  150MOL0     H20239   0.993   2.859   8.393  0.1152 -0.6298 -3.2239
  150MOL0     H20240   0.950   2.594   8.546  0.5607  0.0427 -0.3224
  150MOL0     H20241   0.834   2.668   8.442  0.5134  1.3340 -0.8037
  150MOL0     H20242   0.927   2.827   8.690  1.4564 -2.2133  0.2841
  150MOL0     H20243   0.794   2.713   8.689  1.3620 -1.6487 -0.0416
  150MOL0     H20244   0.711   2.834   8.475 -0.5359 -1.9676  0.7418
  150MOL0     H20245   0.673   2.869   8.643  0.8760  0.2796  0.0316
  150MOL0     H20246   0.887   3.203   8.458  0.7610 -0.1858  0.6463
  150MOL0     H20247   1.357   2.807   8.620  1.2096  1.2197  0.4678
  150MOL0     H20248   1.579   2.991   8.624  1.2949 -1.2653  1.0145
  150MOL0     H20249   1.636   2.814   8.613 -1.9196 -1.3218 -0.7063
  150MOL0     H20250   1.700   2.946   8.521  2.0726  0.5549  5.0957
  151MOL0     O20251   4.574   0.591   3.581  0.7736 -0.2551  0.0581
  151MOL0     C20252   4.483   0.590   3.669 -0.6155  0.4509 -0.8826
  151MOL0     O20253   4.483   0.663   3.778 -0.5661 -0.6126  0.3551
  151MOL0     C20254   4.576   0.765   3.783  0.4176  0.1392 -0.5105
  151MOL0     C20255   4.675   0.758   3.889  0.1642  0.1336 -0.1247
  151MOL0     C20256   4.779   0.850   3.902 -1.1651 -0.4786 -0.5293
  151MOL0     C20257   4.794   0.960   3.813 -0.1578  0.6709 -0.4107
  151MOL0     O20258   4.889   1.057   3.811  0.5681  0.3267 -0.2114
  151MOL0     C20259   4.996   1.043   3.906  0.0701 -0.3504  0.0340
  151MOL0     C20260   5.136   1.086   3.841 -0.4643  0.1833 -0.7880
  151MOL0     C20261   5.153   1.235   3.848  0.6536 -0.2258 -0.5743
  151MOL0     C20262   5.278   1.277   3.758  0.1139 -0.4782  0.3672
  151MOL0     C20263   5.361   1.385   3.817 -0.6638  0.2306  0.1842
  151MOL0     C20264   5.282   1.485   3.896 -0.4065 -0.4059  0.1591
  151MOL0     C20265   5.365   1.612   3.931 -0.0199 -0.2459  0.0027
  151MOL0     C20266   5.307   1.695   4.047 -0.0353  0.3640 -0.9383
  151MOL0     N20267   5.404   1.797   4.101 -0.2881  0.0945  0.0070
  151MOL0     C20268   5.365   1.920   4.155  0.2072  0.2588 -0.2312
  151MOL0     C20269   5.488   1.965   4.197  0.1183 -0.7306  0.4021
  151MOL0     C20270   5.513   2.085   4.281  0.4540  0.3141 -0.6271
  151MOL0     C20271   5.613   2.049   4.397  1.0687  0.6016 -0.1825
  151MOL0     C20272   5.632   2.163   4.496  0.0860 -0.1624 -0.2856
  151MOL0     C20273   5.622   2.098   4.638 -0.5082 -0.3585  0.6938
  151MOL0     O20274   5.593   2.213   4.721  0.2007  0.1427 -0.8972
  151MOL0     C20275   5.690   2.294   4.778  0.3419 -0.1102 -0.2543
  151MOL0     C20276   5.642   2.409   4.840 -0.7060 -0.1208 -0.3305
  151MOL0     C20277   5.731   2.488   4.914 -0.6160 -0.3228  0.0029
  151MOL0     C20278   5.869   2.452   4.924 -0.3557 -0.4284  0.4309
  151MOL0     C20279   5.962   2.539   5.003 -0.1972 -0.0532  0.4596
  151MOL0     O20280   6.096   2.491   5.006  0.1159 -0.7499 -0.1028
  151MOL0     C20281   6.178   2.587   5.062  0.6294 -0.1964  0.8766
  151MOL0     C20282   6.259   2.553   5.168 -0.0694  0.1739 -0.3277
  151MOL0     C20283   6.354   2.642   5.225  0.0360  0.3380  0.8250
  151MOL0     C20284   6.364   2.770   5.174  0.2467  0.5167 -0.0035
  151MOL0     O20285   6.463   2.847   5.231  0.2184 -0.1151  0.1432
  151MOL0     C20286   6.473   2.985   5.200 -0.3612  0.1037 -0.0131
  151MOL0     C20287   6.391   3.062   5.297 -0.6251 -0.3773  0.3346
  151MOL0     C20288   6.451   3.203   5.315 -0.2052 -0.4572 -0.8206
  151MOL0     C20289   6.364   3.298   5.391 -0.0137 -0.1461 -0.3824
  151MOL0     C20290   6.321   3.227   5.521 -0.8641  0.3715  0.3084
  151MOL0     C20291   6.290   3.332   5.632 -0.0025 -0.1239 -0.3715
  151MOL0     C20292   6.421   3.367   5.717  1.6890  0.5457 -0.7954
  151MOL0     C20293   6.392   3.494   5.801 -0.1295 -0.4406  0.0592
  151MOL0    Cl20294   6.281   3.464   5.920 -0.2743 -0.1859  0.2961
  151MOL0     C20295   6.291   2.803   5.059 -0.5021 -0.3718 -0.0890
  151MOL0     C20296   6.197   2.711   5.005 -0.3381 -0.4305 -0.2823
  151MOL0     O20297   5.921   2.634   5.062 -0.5896 -0.7250  0.0024
  151MOL0     C20298   5.913   2.335   4.862  0.3637 -0.0847  0.1815
  151MOL0     C20299   5.821   2.259   4.784  0.3411 -0.8732  0.1697
  151MOL0     N20300   5.592   1.881   4.159 -0.2786 -0.0172  0.9874
  151MOL0     N20301   5.537   1.783   4.097  0.2670  0.9164 -0.0841
  151MOL0     C20302   4.695   0.979   3.718  0.4016  0.7630  0.0690
  151MOL0     C20303   4.586   0.883   3.711 -0.3427  0.6547 -0.2063
  151MOL0     C20304   4.379   0.492   3.667 -0.1004 -0.2599 -0.4584
  151MOL0     C20305   4.253   0.530   3.715 -0.4765 -0.4951  1.1018
  151MOL0     C20306   4.147   0.448   3.708  0.3326  0.7951 -0.7452
  151MOL0     C20307   4.158   0.317   3.672  0.2334  0.2143  0.0744
  151MOL0     O20308   4.051   0.233   3.670  0.0978 -0.4475  0.7837
  151MOL0     C20309   4.032   0.145   3.558  0.4739 -0.2645  0.5951
  151MOL0     C20310   3.899   0.060   3.577  0.2382 -0.2696  0.6754
  151MOL0     C20311   3.849  -0.004   3.451  0.0776 -0.4366 -0.2429
  151MOL0     C20312   3.735   0.084   3.397  0.3758 -0.2028 -1.2770
  151MOL0     C20313   3.765   0.233   3.377  0.0285 -0.1548 -0.5462
  151MOL0     C20314   3.799   0.342   3.351 -0.2522  0.7585 -0.0728
  151MOL0     C20315   4.292   0.270   3.642 -0.4737  0.2707 -0.6915
  151MOL0     C20316   4.407   0.351   3.634 -0.0245 -0.1647 -1.4091
  151MOL0     C20317   4.535   0.294   3.583 -0.7516 -0.5849  0.0926
  151MOL0     H20318   4.685   0.669   3.950  3.8066  0.9740  0.7494
  151MOL0     H20319   4.847   0.821   3.982 -4.0308 -0.2572  2.2038
  151MOL0     H20320   4.979   1.096   4.000 -0.9695 -0.2811 -0.1869
  151MOL0     H20321   5.013   0.938   3.933 -0.6951  0.1739  2.8432
  151MOL0     H20322   5.132   1.048   3.738 -2.0916  1.4585 -1.2256
  151MOL0     H20323   5.227   1.057   3.895  0.2622  0.6343 -1.7323
  151MOL0     H20324   5.167   1.259   3.954 -0.0761 -2.5141  0.0906
  151MOL0     H20325   5.059   1.286   3.826 -0.1308 -1.1419  0.5497
  151MOL0     H20326   5.343   1.189   3.749  0.1034 -0.6749  1.9964
  151MOL0     H20327   5.240   1.300   3.658 -0.8654 -1.2189  0.5560
  151MOL0     H20328   5.437   1.331   3.875  0.0506  0.5104 -0.4797
  151MOL0     H20329   5.418   1.434   3.738  0.4584 -0.6199  0.4495
  151MOL0     H20330   5.194   1.515   3.839 -1.6395  0.1337  2.2323
  151MOL0     H20331   5.240   1.448   3.990 -0.5302  1.4303  0.8694
  151MOL0     H20332   5.366   1.673   3.841  2.0323 -0.4404 -0.1616
  151MOL0     H20333   5.466   1.582   3.961  0.7360  0.2410 -1.9370
  151MOL0     H20334   5.213   1.744   4.021  0.0578  1.9411  1.3346
  151MOL0     H20335   5.289   1.633   4.135  0.2072  1.6029  0.0207
  151MOL0     H20336   5.267   1.964   4.169  0.7317  1.0403  1.1971
  151MOL0     H20337   5.551   2.163   4.215 -0.5273  0.3790 -1.1225
  151MOL0     H20338   5.423   2.125   4.329  0.9147 -1.9967  2.5217
  151MOL0     H20339   5.583   1.954   4.443 -0.1296  1.1892  0.2788
  151MOL0     H20340   5.714   2.029   4.359  0.7285 -1.5525 -0.1156
  151MOL0     H20341   5.556   2.241   4.483 -1.0153 -0.9389  1.1958
  151MOL0     H20342   5.733   2.201   4.481 -0.5966  1.7012 -0.4281
  151MOL0     H20343   5.719   2.047   4.645 -0.8677 -1.9426 -3.2521
  151MOL0     H20344   5.536   2.031   4.630 -0.8653 -0.4162  3.8332
  151MOL0     H20345   5.538   2.439   4.840 -0.9841 -0.9647  1.4814
  151MOL0     H20346   5.687   2.568   4.973  1.9280  0.9826  0.2431
  151MOL0     H20347   6.241   2.456   5.212 -0.8695  0.3630 -0.2252
  151MOL0     H20348   6.412   2.615   5.312  0.4422  4.8549  2.2280
  151MOL0     H20349   6.573   3.025   5.215 -1.2562  2.3500  0.4067
  151MOL0     H20350   6.441   3.009   5.098  3.0022  1.2354 -0.9349
  151MOL0     H20351   6.298   3.082   5.243  0.7260 -2.5443 -3.1642
  151MOL0     H20352   6.382   3.011   5.393  0.4899 -1.0672  0.0886
  151MOL0     H20353   6.552   3.202   5.356  0.1502  2.3282 -1.4559
  151MOL0     H20354   6.456   3.247   5.215 -0.7442  2.0262  0.1781
  151MOL0     H20355   6.275   3.318   5.331  1.5489  1.3135 -2.3334
  151MOL0     H20356   6.420   3.391   5.406 -3.4551  2.4500 -2.2009
  151MOL0     H20357   6.394   3.152   5.553 -0.1117  0.5436 -0.9028
  151MOL0     H20358   6.236   3.167   5.488  0.0105  0.2022 -1.8110
  151MOL0     H20359   6.252   3.422   5.583  0.7572  0.7489  0.6029
  151MOL0     H20360   6.216   3.285   5.697  0.2972 -1.2821 -0.8503
  151MOL0     H20361   6.505   3.393   5.653 -0.3204  2.3668 -2.8941
  151MOL0     H20362   6.442   3.279   5.779 -1.3259 -0.1695 -0.6276
  151MOL0     H20363   6.489   3.527   5.838 -0.0170  2.4369 -2.4558
  151MOL0     H20364   6.358   3.569   5.729  2.6561  0.6226 -0.2744
  151MOL0     H20365   6.290   2.903   5.018 -0.1907  0.2718  1.4138
  151MOL0     H20366   6.133   2.741   4.923 -1.7599 -5.5167 -1.3874
  151MOL0     H20367   6.016   2.303   4.871  0.4275  0.3745  1.1704
  151MOL0     H20368   5.858   2.172   4.730  2.2964  0.5494 -0.8935
  151MOL0     H20369   4.697   1.066   3.653  0.4758  0.1289 -0.7874
  151MOL0     H20370   4.498   0.911   3.653 -0.2961  0.7775 -0.2181
  151MOL0     H20371   4.248   0.632   3.753  4.6365 -0.2332  1.8043
  151MOL0     H20372   4.053   0.483   3.747 -1.0787  1.0115 -4.0132
  151MOL0     H20373   4.117   0.079   3.539 -0.9254 -1.9822  0.0427
  151MOL0     H20374   4.006   0.199   3.466 -0.3830  1.4502  1.7863
  151MOL0     H20375   3.826   0.115   3.636  0.1804 -2.4407  2.7981
  151MOL0     H20376   3.920  -0.018   3.652  2.1255  0.4381  0.9442
  151MOL0     H20377   3.821  -0.107   3.478  0.4488 -0.8030 -1.2218
  151MOL0     H20378   3.926  -0.011   3.374  2.7743  1.7664  2.0230
  151MOL0     H20379   3.678   0.034   3.318 -1.0739 -1.3747  0.4156
  151MOL0     H20380   3.660   0.097   3.475  1.2342  0.8765 -0.5996
  151MOL0     H20381   3.816   0.443   3.320 -0.6641  0.5153 -1.1398
  151MOL0     H20382   4.311   0.164   3.634 -1.9722 -0.0092 -0.7973
  151MOL0     H20383   4.571   0.213   3.648 -0.3346 -0.0630  0.5200
  151MOL0     H20384   4.522   0.257   3.481 -2.4097  1.2935 -0.4402
  151MOL0     H20385   4.617   0.365   3.573 -1.6353  0.1756 -2.5787
  152MOL0     O20386   1.970   9.208   5.167  0.2428  0.0052 -0.8082
  152MOL0     C20387   1.876   9.160   5.109  0.0099 -0.0677 -0.4496
  152MOL0     O20388   1.834   9.195   4.985  0.0050  0.0982  0.1077
  152MOL0     C20389   1.879   9.312   4.931 -0.4194 -0.4732 -0.6127
  152MOL0     C20390   1.786   9.390   4.854 -0.5028  1.3100 -0.1331
  152MOL0     C20391   1.811   9.515   4.802 -0.6855 -1.3215  0.8111
  152MOL0     C20392   1.938   9.571   4.832  1.0709 -0.0712 -0.9557
  152MOL0     O20393   1.953   9.697   4.792  0.0053 -0.8385  0.1297
  152MOL0     C20394   2.082   9.738   4.737 -0.2529  0.1576 -0.6254
  152MOL0     C20395   2.100   9.684   4.593 -0.2199  0.7324 -0.2350
  152MOL0     C20396   2.009   9.759   4.491 -0.9734 -0.6620  0.8942
  152MOL0     C20397   2.060   9.902   4.458  0.1119 -0.6581 -0.1141
  152MOL0     C20398   1.999   9.950   4.323  0.9110  0.4740 -0.4407
  152MOL0     C20399   2.058  10.085   4.277 -1.4889  0.1844 -0.2108
  152MOL0     C20400   2.102  10.195   4.388  1.1131  0.2489  0.2471
  152MOL0     C20401   2.161  10.314   4.310 -0.0332  0.7629  0.0731
  152MOL0     N20402   2.165  10.427   4.393 -0.3202  0.0992 -0.0039
  152MOL0     C20403   2.079  10.525   4.390  0.2014 -1.3645 -0.1456
  152MOL0     C20404   2.125  10.633   4.466 -0.0316  0.9079 -0.2386
  152MOL0     C20405   2.058  10.766   4.483 -0.7101  0.4040  0.3664
  152MOL0     C20406   1.958  10.765   4.595  0.6778  0.3302  0.6414
  152MOL0     C20407   1.917  10.914   4.634  0.2382 -0.5566  0.3580
  152MOL0     C20408   1.916  10.949   4.780 -0.2461  0.9943  0.6578
  152MOL0     O20409   1.809  10.875   4.847 -0.9167  0.3044 -0.2693
  152MOL0     C20410   1.695  10.951   4.866  0.7344 -0.0666 -0.3102
  152MOL0     C20411   1.686  11.041   4.978 -0.6007  0.0376 -1.0984
  152MOL0     C20412   1.580  11.132   4.982 -0.2637 -0.4045 -0.2724
  152MOL0     C20413   1.486  11.135   4.881 -0.1470 -0.1360  0.0939
  152MOL0     C20414   1.374  11.238   4.887  0.7421  0.4628 -0.4905
  152MOL0     O20415   1.258  11.212   4.816  0.1100  0.3009 -0.1886
  152MOL0     C20416   1.150  11.297   4.816  0.0216 -0.0262  0.5748
  152MOL0     C20417   1.028  11.225   4.801 -0.6633 -0.7359  0.1182
  152MOL0     C20418   0.903  11.287   4.779  0.6133 -0.3013  0.2789
  152MOL0     C20419   0.904  11.424   4.773  0.2480 -0.3778  0.2115
  152MOL0     O20420   0.776  11.485   4.751 -0.5019  0.3857 -0.0321
  152MOL0     C20421   0.750  11.611   4.800  0.2723 -0.6607 -0.2780
  152MOL0     C20422   0.610  11.657   4.768 -0.0723  0.0239  0.7061
  152MOL0     C20423   0.487  11.576   4.826  0.1469 -0.1464 -0.2174
  152MOL0     C20424   0.448  11.624   4.963 -0.7738 -0.3415  0.6602
  152MOL0     C20425   0.322  11.555   5.009  0.2584  0.1912  0.4622
  152MOL0     C20426   0.259  11.620   5.135  0.1570  0.4965 -0.2197
  152MOL0     C20427   0.187  11.736   5.088 -0.5499 -0.9259  0.4335
  152MOL0     C20428   0.165  11.839   5.199 -0.4839  0.8030  1.1248
  152MOL0    Cl20429   0.075  11.779   5.333  0.3240  0.2046 -0.4139
  152MOL0     C20430   1.026  11.499   4.786 -0.3761 -0.3881 -0.5480
  152MOL0     C20431   1.154  11.435   4.805  0.0297  0.4356 -0.2588
  152MOL0     O20432   1.393  11.339   4.956  0.7430  1.0422 -0.0854
  152MOL0     C20433   1.491  11.039   4.781 -0.7762  0.1576 -0.1568
  152MOL0     C20434   1.598  10.954   4.769 -0.0510  1.3926 -0.1294
  152MOL0     N20435   2.242  10.594   4.529 -0.0688  0.8143  0.3580
  152MOL0     N20436   2.268  10.471   4.481  0.3278 -0.0746  0.1997
  152MOL0     C20437   2.027   9.489   4.897 -0.5737  0.3533 -0.6461
  152MOL0     C20438   2.012   9.359   4.936 -0.1133 -0.2347  0.2858
  152MOL0     C20439   1.812   9.045   5.172 -0.6269  0.2805 -0.3723
  152MOL0     C20440   1.789   8.934   5.096 -0.0973 -0.1816 -0.1544
  152MOL0     C20441   1.737   8.814   5.136  0.5162  0.0258 -1.1830
  152MOL0     C20442   1.704   8.802   5.266  0.4374  1.0194  0.1616
  152MOL0     O20443   1.676   8.673   5.307  0.1028  0.7229  0.2381
  152MOL0     C20444   1.660   8.638   5.445  1.0056 -0.0669 -0.1296
  152MOL0     C20445   1.515   8.667   5.493 -1.0650 -0.2555 -0.4199
  152MOL0     C20446   1.482   8.649   5.647 -0.2707 -0.6209  0.2494
  152MOL0     C20447   1.585   8.719   5.741  0.0465 -0.7200 -0.4982
  152MOL0     C20448   1.579   8.869   5.758  0.0841 -0.1338  0.6699
  152MOL0     C20449   1.593   8.993   5.779  0.5433 -0.2766  0.2147
  152MOL0     C20450   1.716   8.914   5.353 -0.2708  0.4411 -0.9077
  152MOL0     C20451   1.771   9.031   5.306 -0.5131 -0.0766 -0.2075
  152MOL0     C20452   1.782   9.164   5.389  0.7133 -0.3559  0.2458
  152MOL0     H20453   1.689   9.343   4.847  0.8726 -1.8110 -0.0601
  152MOL0     H20454   1.731   9.569   4.753 -0.6895 -0.9047  1.2652
  152MOL0     H20455   2.092   9.847   4.735  1.1301  0.2437  2.9590
  152MOL0     H20456   2.171   9.695   4.784 -0.3382  0.9615  0.3099
  152MOL0     H20457   2.082   9.577   4.581  2.2356  0.3736 -1.1866
  152MOL0     H20458   2.204   9.694   4.562 -0.6726 -0.4493 -2.3228
  152MOL0     H20459   1.907   9.764   4.528 -1.2580 -2.1870  0.3888
  152MOL0     H20460   2.026   9.693   4.405  1.4994 -1.0449  1.5811
  152MOL0     H20461   2.015   9.966   4.535 -0.9618 -1.1550 -0.3034
  152MOL0     H20462   2.168   9.908   4.442  0.4661  0.3895  2.1779
  152MOL0     H20463   2.004   9.878   4.241  0.3127 -2.7829  2.1725
  152MOL0     H20464   1.891   9.961   4.340  0.3419 -1.9445 -1.9470
  152MOL0     H20465   2.154  10.068   4.227 -0.7114 -0.1348  1.3375
  152MOL0     H20466   1.988  10.136   4.210 -1.2924  1.2465  0.3644
  152MOL0     H20467   2.176  10.158   4.459  0.0095  1.5031  2.1617
  152MOL0     H20468   2.021  10.228   4.454 -0.6077  1.6058 -2.3588
  152MOL0     H20469   2.260  10.274   4.287 -0.6810 -2.1924  1.8882
  152MOL0     H20470   2.109  10.333   4.216  0.3213  1.3078 -0.0161
  152MOL0     H20471   1.983  10.534   4.340  0.3119  0.5167 -0.1142
  152MOL0     H20472   2.131  10.844   4.503 -0.2125  0.6266 -2.0208
  152MOL0     H20473   2.012  10.781   4.385  3.1272 -2.5487 -2.1735
  152MOL0     H20474   1.881  10.695   4.561  3.4879 -3.0164  0.7126
  152MOL0     H20475   2.018  10.717   4.672  1.4776  0.1774 -0.0657
  152MOL0     H20476   1.813  10.913   4.600 -0.2533 -0.1521  1.7860
  152MOL0     H20477   1.981  10.979   4.572  2.9042 -2.1488  1.2642
  152MOL0     H20478   1.898  11.056   4.796 -0.7982  1.0227 -0.0704
  152MOL0     H20479   2.016  10.924   4.816 -1.5527 -2.0650  2.4664
  152MOL0     H20480   1.751  11.045   5.065  0.1084 -0.1585 -1.6150
  152MOL0     H20481   1.578  11.202   5.065  2.1452  0.6203 -0.9937
  152MOL0     H20482   1.034  11.120   4.829  6.5126 -0.2722  2.2895
  152MOL0     H20483   0.815  11.225   4.765  0.8755 -0.5931 -0.0924
  152MOL0     H20484   0.767  11.623   4.907 -3.8495 -4.0321  1.0223
  152MOL0     H20485   0.819  11.681   4.751  1.4249 -1.2031  0.5367
  152MOL0     H20486   0.616  11.764   4.791  2.3459 -0.1442  1.1203
  152MOL0     H20487   0.604  11.647   4.659 -1.9958  3.7358  0.2939
  152MOL0     H20488   0.405  11.598   4.758 -1.1746 -0.0056  1.3587
  152MOL0     H20489   0.522  11.472   4.835 -1.3029 -0.5972  0.5090
  152MOL0     H20490   0.441  11.732   4.954  1.7921 -0.2482 -1.3522
  152MOL0     H20491   0.526  11.605   5.037  2.6793  0.6360 -2.4342
  152MOL0     H20492   0.341  11.456   5.053 -2.5511  1.0976  4.2585
  152MOL0     H20493   0.242  11.540   4.936 -0.8319  1.7933  1.2607
  152MOL0     H20494   0.179  11.560   5.179  0.1243  0.7744  0.1044
  152MOL0     H20495   0.328  11.655   5.213 -0.9126 -0.9920  1.4625
  152MOL0     H20496   0.086  11.710   5.053 -2.0713  2.5462  1.7658
  152MOL0     H20497   0.231  11.797   5.009 -0.3390  0.0803  1.3099
  152MOL0     H20498   0.261  11.865   5.243 -0.1020  0.3778  0.5542
  152MOL0     H20499   0.117  11.927   5.155 -0.8997 -0.6287 -1.4816
  152MOL0     H20500   1.026  11.607   4.792  2.1149 -0.4367  2.6360
  152MOL0     H20501   1.244  11.493   4.822  1.1664 -1.1167 -0.7696
  152MOL0     H20502   1.411  11.031   4.707  0.7234  2.3808 -2.1653
  152MOL0     H20503   1.607  10.880   4.691 -0.9984  1.1764 -0.0512
  152MOL0     H20504   2.124   9.531   4.923 -0.9598  1.7369 -1.3208
  152MOL0     H20505   2.093   9.301   4.978  0.5585 -2.1937 -3.3312
  152MOL0     H20506   1.802   8.936   4.988 -2.3017  3.6860 -0.5101
  152MOL0     H20507   1.740   8.732   5.064  0.8933 -0.1813 -0.9359
  152MOL0     H20508   1.737   8.698   5.495 -1.5261  2.1718  1.3555
  152MOL0     H20509   1.670   8.532   5.468 -3.5747 -0.6816 -0.0552
  152MOL0     H20510   1.453   8.592   5.443 -1.9740 -0.9678  1.6841
  152MOL0     H20511   1.491   8.769   5.461  1.7081  1.1657  1.5942
  152MOL0     H20512   1.486   8.541   5.665  0.0240 -1.0026 -1.8501
  152MOL0     H20513   1.379   8.677   5.673  0.0198  1.0153 -0.2632
  152MOL0     H20514   1.591   8.675   5.841  2.0290 -2.0988 -1.1588
  152MOL0     H20515   1.683   8.705   5.694 -0.9610 -1.4081 -2.4934
  152MOL0     H20516   1.611   9.097   5.798 -0.9035  0.0121  0.1068
  152MOL0     H20517   1.695   8.909   5.459  0.2098 -1.0569 -0.8597
  152MOL0     H20518   1.885   9.199   5.404  0.5201  0.5337 -0.4715
  152MOL0     H20519   1.723   9.234   5.330  1.8554 -0.1253 -0.6503
  152MOL0     H20520   1.732   9.143   5.484  0.1663 -3.6301 -0.6120
  153MOL0     O20521   7.169  10.450   2.163 -0.2486 -0.3153 -0.3927
  153MOL0     C20522   7.201  10.443   2.282 -0.0020  0.0664  0.6261
  153MOL0     O20523   7.301  10.370   2.337  1.0515  0.1620  0.5836
  153MOL0     C20524   7.389  10.315   2.249 -0.1868  1.0313  0.1421
  153MOL0     C20525   7.365  10.195   2.173 -0.0381  0.4064  0.8087
  153MOL0     C20526   7.466  10.134   2.086  0.8531  0.1242 -0.3040
  153MOL0     C20527   7.590  10.202   2.079 -0.9715  1.5493  0.6295
  153MOL0     O20528   7.699  10.152   2.010  0.5369  0.2014 -0.7144
  153MOL0     C20529   7.713  10.205   1.884 -0.6071 -0.8175 -0.0312
  153MOL0     C20530   7.853  10.194   1.824 -0.0704 -0.5812 -0.0257
  153MOL0     C20531   7.939  10.315   1.848 -0.1947 -0.2207  0.3457
  153MOL0     C20532   8.076  10.297   1.805 -0.1323  0.6505  0.2082
  153MOL0     C20533   8.152  10.428   1.803  0.3671 -0.4580  0.4647
  153MOL0     C20534   8.287  10.409   1.744 -0.4330 -1.5949 -0.1398
  153MOL0     C20535   8.388  10.339   1.833  0.1064  0.1737  0.3896
  153MOL0     C20536   8.533  10.362   1.781 -0.1734  0.1885 -0.2955
  153MOL0     N20537   8.626  10.280   1.869 -0.1150 -0.2965 -0.4771
  153MOL0     C20538   8.621  10.142   1.874 -0.1221  0.5254  0.4795
  153MOL0     C20539   8.670  10.113   1.989  0.6411 -0.0033 -0.5561
  153MOL0     C20540   8.695   9.975   2.046 -0.0010 -0.2767 -0.3839
  153MOL0     C20541   8.795   9.892   1.962  0.0548 -0.3498  0.9849
  153MOL0     C20542   8.862   9.778   2.030  0.6935  0.0140  0.1188
  153MOL0     C20543   8.927   9.799   2.163 -0.6493 -0.5946 -0.2494
  153MOL0     O20544   9.029   9.901   2.150  0.5052  0.0413  0.0444
  153MOL0     C20545   9.132   9.869   2.220 -0.8401 -0.0335 -0.3449
  153MOL0     C20546   9.140   9.893   2.356  0.6876 -0.2360  0.0487
  153MOL0     C20547   9.247   9.863   2.437 -0.2568 -0.3030  0.3510
  153MOL0     C20548   9.369   9.819   2.376  0.1242 -1.1905  0.3195
  153MOL0     C20549   9.481   9.756   2.442  0.3952  0.1885 -0.1131
  153MOL0     O20550   9.478   9.744   2.584 -0.0130 -0.1118 -0.4997
  153MOL0     C20551   9.599   9.745   2.653  0.3583  0.0322 -0.3655
  153MOL0     C20552   9.623   9.649   2.748 -0.3077 -1.1618 -1.0820
  153MOL0     C20553   9.746   9.636   2.819 -0.3160 -0.3629 -0.0128
  153MOL0     C20554   9.835   9.744   2.790 -1.0659  0.7031 -0.0863
  153MOL0     O20555   9.961   9.760   2.852  0.4724 -0.4401  0.3269
  153MOL0     C20556  10.003   9.676   2.961  0.5729 -0.4208 -0.3063
  153MOL0     C20557   9.949   9.744   3.088 -0.6510 -0.1323 -0.3847
  153MOL0     C20558  10.022   9.878   3.098  0.7357  0.2713 -0.6169
  153MOL0     C20559  10.165   9.893   3.154  0.1077 -0.4496  0.8709
  153MOL0     C20560  10.233  10.024   3.105 -1.3578  1.4292  0.2084
  153MOL0     C20561  10.164  10.141   3.185 -0.4532  0.5671  0.4045
  153MOL0     C20562  10.179  10.138   3.340 -0.4029 -0.3251  0.0407
  153MOL0     C20563  10.075  10.238   3.405  0.7736 -0.5521 -0.1563
  153MOL0    Cl20564   9.917  10.169   3.442  0.0528  0.0760 -0.1096
  153MOL0     C20565   9.814   9.850   2.702  0.4491 -0.5269 -0.6963
  153MOL0     C20566   9.691   9.850   2.632 -1.1216 -0.2414  0.2672
  153MOL0     O20567   9.580   9.723   2.375 -0.3877  0.3353  0.4132
  153MOL0     C20568   9.368   9.819   2.228 -0.4307  0.3152  0.1059
  153MOL0     C20569   9.247   9.833   2.158 -0.4356  0.1531  0.0904
  153MOL0     N20570   8.700  10.225   2.060  1.1793 -0.9899  0.4478
  153MOL0     N20571   8.672  10.330   1.991  0.6609  0.4555  0.2322
  153MOL0     C20572   7.606  10.320   2.152 -0.2283 -0.3225  0.2069
  153MOL0     C20573   7.507  10.379   2.234 -0.5928 -1.0128 -0.0232
  153MOL0     C20574   7.120  10.520   2.378  0.2653  0.2415  1.3799
  153MOL0     C20575   7.114  10.473   2.508 -0.0125  1.2867 -1.0174
  153MOL0     C20576   7.028  10.537   2.599  0.8401  0.2423  0.3370
  153MOL0     C20577   6.954  10.654   2.576 -0.3883 -0.5840  0.2957
  153MOL0     O20578   6.877  10.713   2.676  0.0253 -0.7016 -0.3846
  153MOL0     C20579   6.739  10.722   2.655  1.1237  0.2483 -0.5005
  153MOL0     C20580   6.658  10.671   2.781 -0.0285 -0.1626 -0.7654
  153MOL0     C20581   6.507  10.653   2.751 -0.6744 -0.2225  0.3555
  153MOL0     C20582   6.408  10.668   2.865  0.1335 -0.1975  0.7897
  153MOL0     C20583   6.315  10.778   2.844 -0.0144 -0.6821  0.0156
  153MOL0     C20584   6.238  10.870   2.828  0.1840 -0.6636 -0.6901
  153MOL0     C20585   6.969  10.705   2.454  0.2506  0.4511  0.1400
  153MOL0     C20586   7.049  10.642   2.349  0.3277 -0.3966  0.3366
  153MOL0     C20587   7.059  10.707   2.204  0.2312  0.8100 -0.4014
  153MOL0     H20588   7.273  10.137   2.170  0.8361 -1.0486  0.9263
  153MOL0     H20589   7.447  10.042   2.032  1.8246 -0.0266 -0.4039
  153MOL0     H20590   7.655  10.134   1.825 -0.7480 -0.2199 -0.6215
  153MOL0     H20591   7.674  10.307   1.875  2.6687  0.9735  2.9691
  153MOL0     H20592   7.840  10.183   1.716 -0.8833 -0.6974  0.0821
  153MOL0     H20593   7.901  10.104   1.864 -1.0992 -1.1083  0.0358
  153MOL0     H20594   7.922  10.336   1.954 -2.7734  0.8175 -0.1798
  153MOL0     H20595   7.895  10.393   1.786 -1.8552 -0.9876  0.4978
  153MOL0     H20596   8.129  10.220   1.861  1.7124 -2.1573 -4.7721
  153MOL0     H20597   8.077  10.247   1.708 -0.7579  0.4860  0.2822
  153MOL0     H20598   8.111  10.500   1.731  0.7998  0.0110  0.6838
  153MOL0     H20599   8.164  10.471   1.902  3.0483 -1.3622  0.5924
  153MOL0     H20600   8.276  10.370   1.643 -2.4416  1.2465 -1.1572
  153MOL0     H20601   8.318  10.514   1.736 -2.1314 -1.0714 -0.2210
  153MOL0     H20602   8.360  10.234   1.822  1.4529 -0.1097 -0.6525
  153MOL0     H20603   8.375  10.371   1.936  0.3283  1.2639  0.0919
  153MOL0     H20604   8.540  10.329   1.677  2.2637 -1.5183  0.3398
  153MOL0     H20605   8.563  10.467   1.772 -1.4452  0.6202  0.1919
  153MOL0     H20606   8.569  10.070   1.812 -3.0563  2.6204  0.3059
  153MOL0     H20607   8.727   9.987   2.150 -0.1719  0.5985 -0.4251
  153MOL0     H20608   8.599   9.922   2.052  0.2072 -0.7635 -1.2032
  153MOL0     H20609   8.739   9.847   1.879 -1.5227 -3.8705  3.6881
  153MOL0     H20610   8.872   9.958   1.921 -0.8666  0.1945  0.0766
  153MOL0     H20611   8.937   9.742   1.959  1.6269 -1.6385  1.8425
  153MOL0     H20612   8.790   9.697   2.043  0.5892  0.1401  0.3359
  153MOL0     H20613   8.974   9.708   2.201  1.2273 -0.0732 -1.2030
  153MOL0     H20614   8.850   9.829   2.235 -1.9080 -3.1067 -0.4366
  153MOL0     H20615   9.052   9.926   2.409 -0.9551 -0.6360 -2.2591
  153MOL0     H20616   9.241   9.848   2.545 -3.2640 -0.4710  0.2538
  153MOL0     H20617   9.541   9.581   2.767  1.4018 -2.6372  1.6538
  153MOL0     H20618   9.751   9.559   2.895  0.1014  0.2900  0.6380
  153MOL0     H20619   9.973   9.572   2.948 -2.3749  0.2034  0.6258
  153MOL0     H20620  10.112   9.668   2.964  0.9348  3.1178 -0.1770
  153MOL0     H20621   9.840   9.748   3.084 -0.5968  1.7523 -1.0985
  153MOL0     H20622   9.979   9.686   3.177 -3.3893 -2.6113 -0.9338
  153MOL0     H20623  10.018   9.929   3.002 -0.0494  0.2617 -0.5929
  153MOL0     H20624   9.959   9.941   3.162  0.2548 -1.6765  0.9137
  153MOL0     H20625  10.218   9.819   3.093 -1.8049  0.7764 -2.4991
  153MOL0     H20626  10.172   9.869   3.261  1.5415  1.2078  1.2131
  153MOL0     H20627  10.218  10.026   2.997  0.0369  0.0658 -0.0420
  153MOL0     H20628  10.340  10.017   3.123 -1.5335  0.8931  1.1208
  153MOL0     H20629  10.211  10.235   3.154 -1.4210  0.8132 -0.3557
  153MOL0     H20630  10.059  10.141   3.156  0.1086  2.0880 -1.8383
  153MOL0     H20631  10.283  10.162   3.365  0.1560 -3.6756  1.3641
  153MOL0     H20632  10.166  10.040   3.386  0.3766  0.3506  1.7984
  153MOL0     H20633  10.120  10.260   3.502 -0.4394  0.7818  0.1256
  153MOL0     H20634  10.067  10.334   3.355 -3.5168 -1.3151 -1.3474
  153MOL0     H20635   9.884   9.931   2.689 -1.6143  1.9079  2.1530
  153MOL0     H20636   9.665   9.935   2.570 -2.0765 -0.6564  0.0847
  153MOL0     H20637   9.453   9.787   2.169 -0.9202  2.2114 -1.7383
  153MOL0     H20638   9.240   9.832   2.050 -1.5372  0.9360  0.1336
  153MOL0     H20639   7.697  10.380   2.149 -1.1630  1.3516  2.7067
  153MOL0     H20640   7.533  10.475   2.278  0.2562 -0.8881 -0.7870
  153MOL0     H20641   7.158  10.381   2.544  1.1802  2.1285 -0.2561
  153MOL0     H20642   6.998  10.488   2.691  0.7506 -1.4733 -0.5630
  153MOL0     H20643   6.711  10.660   2.570  0.4987 -0.3394  0.1266
  153MOL0     H20644   6.700  10.819   2.622 -0.9774 -0.0551  0.8904
  153MOL0     H20645   6.674  10.744   2.861  1.2632 -1.7870  0.5254
  153MOL0     H20646   6.701  10.582   2.827 -0.8474  0.5470  1.5250
  153MOL0     H20647   6.502  10.552   2.711  0.1854  0.2167 -0.9149
  153MOL0     H20648   6.477  10.720   2.670  0.5174  1.1337  0.9876
  153MOL0     H20649   6.347  10.577   2.857  0.7927 -0.6158  0.3859
  153MOL0     H20650   6.452  10.667   2.965  1.8832 -2.7618  0.1084
  153MOL0     H20651   6.166  10.947   2.814 -0.9082 -1.5447 -0.0383
  153MOL0     H20652   6.905  10.788   2.427 -4.1268 -1.9303  2.1412
  153MOL0     H20653   7.027  10.638   2.126  4.2158 -0.7963 -0.8724
  153MOL0     H20654   6.992  10.793   2.199 -0.7447 -0.0071 -2.0711
  153MOL0     H20655   7.158  10.747   2.181 -0.3085  1.0785 -2.3770
  154MOL0     O20656   1.902   4.897   5.207 -0.2941  0.4874 -0.0550
  154MOL0     C20657   1.791   4.945   5.205  0.1552  0.2027  0.4426
  154MOL0     O20658   1.705   4.933   5.104  0.0560  0.1377  0.9496
  154MOL0     C20659   1.765   4.934   4.982 -0.0093  1.0862  0.4094
  154MOL0     C20660   1.806   5.056   4.920  0.2043 -0.2445  0.5083
  154MOL0     C20661   1.889   5.056   4.807 -0.5582 -0.0753 -0.3432
  154MOL0     C20662   1.910   4.941   4.745  0.0098  0.2255  0.1908
  154MOL0     O20663   1.982   4.952   4.627 -0.2142 -0.5604  0.5722
  154MOL0     C20664   1.987   4.852   4.535 -0.5010 -0.4016 -0.0962
  154MOL0     C20665   2.056   4.897   4.406  0.2160 -0.7355 -0.1897
  154MOL0     C20666   2.200   4.948   4.414 -0.4101 -0.1890 -0.3748
  154MOL0     C20667   2.312   4.860   4.476  0.7846  0.1353  0.9523
  154MOL0     C20668   2.450   4.926   4.458 -0.9757  0.2501 -0.6780
  154MOL0     C20669   2.570   4.829   4.507  0.3968 -0.3843  1.0278
  154MOL0     C20670   2.715   4.888   4.523 -1.5664  0.1922  0.8500
  154MOL0     C20671   2.799   4.872   4.387  0.4328 -0.0548 -0.6097
  154MOL0     N20672   2.919   4.953   4.389  0.4237 -0.3998 -0.0240
  154MOL0     C20673   3.041   4.900   4.364 -0.1381  0.4108 -0.4257
  154MOL0     C20674   3.122   5.007   4.371 -0.9564 -1.1524 -0.2147
  154MOL0     C20675   3.264   4.997   4.339 -0.4496 -0.6047 -0.8915
  154MOL0     C20676   3.331   5.067   4.454  0.2465 -0.7666 -1.0293
  154MOL0     C20677   3.481   5.073   4.433  0.5253 -0.0279 -1.0350
  154MOL0     C20678   3.530   5.127   4.561  0.8826  0.0609  0.1427
  154MOL0     O20679   3.663   5.169   4.537 -0.1737 -0.3882  0.5363
  154MOL0     C20680   3.764   5.088   4.580  0.3452  0.4939 -0.4058
  154MOL0     C20681   3.754   4.994   4.688 -0.5692 -0.9395 -0.2374
  154MOL0     C20682   3.861   4.914   4.726 -1.1380  0.1754  0.7885
  154MOL0     C20683   3.977   4.914   4.646 -0.3760  0.1129  0.4558
  154MOL0     C20684   4.098   4.827   4.679  0.3952  0.1691  0.7175
  154MOL0     O20685   4.207   4.838   4.593  0.5528  0.0384  0.0182
  154MOL0     C20686   4.301   4.739   4.592  1.1259 -1.2541  0.3492
  154MOL0     C20687   4.263   4.608   4.561 -0.7731 -0.3207 -0.7705
  154MOL0     C20688   4.359   4.511   4.536  0.4829  0.4343 -0.7094
  154MOL0     C20689   4.495   4.540   4.552 -0.4173 -0.3102 -0.4876
  154MOL0     O20690   4.582   4.438   4.530 -0.1464 -0.2385 -0.2107
  154MOL0     C20691   4.546   4.307   4.576  0.2777  0.4134  0.0524
  154MOL0     C20692   4.673   4.226   4.580  0.5933 -0.6161 -0.3509
  154MOL0     C20693   4.763   4.252   4.704  1.0424  0.6358 -0.7652
  154MOL0     C20694   4.904   4.190   4.692 -0.0310  0.3886  0.3686
  154MOL0     C20695   5.005   4.290   4.734 -0.2954 -0.4153  0.7633
  154MOL0     C20696   5.152   4.252   4.720  0.9118  0.2621 -0.4703
  154MOL0     C20697   5.244   4.324   4.819  0.0074 -0.2675 -0.3199
  154MOL0     C20698   5.387   4.269   4.824 -0.1988  0.1316  0.3900
  154MOL0    Cl20699   5.387   4.121   4.912 -0.1424 -0.1842 -0.1725
  154MOL0     C20700   4.538   4.672   4.581 -0.6110  0.2607  0.0211
  154MOL0     C20701   4.440   4.773   4.605  0.3848 -0.1531  0.2281
  154MOL0     O20702   4.092   4.746   4.771  0.2224 -0.1553 -0.4482
  154MOL0     C20703   3.982   4.993   4.531  0.1793 -0.5532  0.4189
  154MOL0     C20704   3.880   5.087   4.504 -0.2129  0.0209  0.9152
  154MOL0     N20705   3.050   5.123   4.397  0.3868 -0.0753  0.5347
  154MOL0     N20706   2.923   5.084   4.403  0.7083 -0.1646 -0.8666
  154MOL0     C20707   1.852   4.822   4.794  0.2524  0.4317  0.5077
  154MOL0     C20708   1.786   4.816   4.918  1.0867  0.5655  0.2756
  154MOL0     C20709   1.746   5.017   5.325  0.0816 -0.3506  0.1590
  154MOL0     C20710   1.817   5.011   5.447 -0.3969  0.2546  0.0361
  154MOL0     C20711   1.796   5.094   5.562  0.2519  0.0243 -0.0566
  154MOL0     C20712   1.688   5.182   5.560  0.3071  0.6127 -0.3687
  154MOL0     O20713   1.660   5.262   5.661  0.6611  0.0375 -0.3765
  154MOL0     C20714   1.625   5.202   5.787 -0.1756 -0.4632  0.4268
  154MOL0     C20715   1.735   5.207   5.892 -0.0949  0.0413 -0.2766
  154MOL0     C20716   1.791   5.356   5.914 -0.3965  0.2014  0.6839
  154MOL0     C20717   1.892   5.377   6.022  0.4944  0.2250  0.5231
  154MOL0     C20718   1.829   5.382   6.155 -0.3110 -0.6935  0.4545
  154MOL0     C20719   1.759   5.376   6.255 -0.4111  0.3189  0.5140
  154MOL0     C20720   1.612   5.187   5.441 -0.5178  0.1586  0.4785
  154MOL0     C20721   1.636   5.106   5.328  0.3447 -0.3616 -0.9326
  154MOL0     C20722   1.547   5.140   5.209  0.5366 -0.0851 -0.7032
  154MOL0     H20723   1.790   5.150   4.971 -0.7382  0.9490 -1.8551
  154MOL0     H20724   1.918   5.154   4.770 -1.3400  1.1693  2.1251
  154MOL0     H20725   2.034   4.763   4.577 -2.6599 -1.5869 -0.0354
  154MOL0     H20726   1.887   4.827   4.497 -0.8892  2.2909 -1.0621
  154MOL0     H20727   2.013   4.986   4.361  1.9531  1.3003  1.9331
  154MOL0     H20728   2.059   4.817   4.331  2.3204 -0.7810 -0.1236
  154MOL0     H20729   2.213   5.044   4.465  3.3251 -0.1262 -1.1537
  154MOL0     H20730   2.226   4.971   4.311  1.4015 -4.2529 -1.0274
  154MOL0     H20731   2.285   4.850   4.581  0.0691  0.8957  0.8604
  154MOL0     H20732   2.314   4.759   4.434 -2.7451  0.1513  0.4498
  154MOL0     H20733   2.479   4.953   4.356  1.8320 -0.7994 -0.2714
  154MOL0     H20734   2.463   5.016   4.519 -1.5714 -0.8256  1.1280
  154MOL0     H20735   2.533   4.804   4.607 -2.6698  1.5233  0.5057
  154MOL0     H20736   2.568   4.740   4.443 -0.8219  0.2286  0.1823
  154MOL0     H20737   2.773   4.829   4.595 -0.9231  0.1902  0.3403
  154MOL0     H20738   2.719   4.989   4.563 -3.0546  0.0591  1.3790
  154MOL0     H20739   2.832   4.767   4.381  2.6500  0.5350  0.1698
  154MOL0     H20740   2.740   4.896   4.297  2.7059 -1.2245 -2.5365
  154MOL0     H20741   3.069   4.796   4.350 -1.8526 -0.6842  3.1971
  154MOL0     H20742   3.295   4.892   4.339 -3.7033 -1.7293  1.0704
  154MOL0     H20743   3.280   5.043   4.242 -3.4875  1.7411 -0.4179
  154MOL0     H20744   3.305   5.173   4.466  2.2434 -0.2373 -1.0040
  154MOL0     H20745   3.313   5.019   4.551  1.7733 -2.9772 -1.7687
  154MOL0     H20746   3.504   5.141   4.351 -1.0480  0.7387 -0.8860
  154MOL0     H20747   3.518   4.972   4.416 -0.1809 -0.5590  0.3736
  154MOL0     H20748   3.510   5.058   4.643 -3.7202  2.5724  1.4932
  154MOL0     H20749   3.483   5.213   4.609  0.9815  0.6750 -0.8342
  154MOL0     H20750   3.676   4.990   4.764  1.9984 -0.0854  2.6769
  154MOL0     H20751   3.864   4.844   4.810  0.3490 -0.0089  0.6225
  154MOL0     H20752   4.158   4.586   4.543 -1.0713  2.4563 -3.2094
  154MOL0     H20753   4.327   4.418   4.491 -0.7240  0.8266 -0.6905
  154MOL0     H20754   4.496   4.298   4.673  0.9703 -1.7845  0.2359
  154MOL0     H20755   4.480   4.255   4.505  1.9517 -2.8372  0.6939
  154MOL0     H20756   4.640   4.122   4.584 -0.0302 -0.3903  2.6460
  154MOL0     H20757   4.731   4.241   4.488 -1.2194 -0.0027 -1.4368
  154MOL0     H20758   4.778   4.354   4.740 -0.1454  0.0098  1.7075
  154MOL0     H20759   4.722   4.201   4.792  0.7986 -1.6969 -2.1535
  154MOL0     H20760   4.918   4.162   4.587 -0.1616  0.7410  0.2561
  154MOL0     H20761   4.918   4.102   4.755 -0.2816  1.3439  1.7949
  154MOL0     H20762   4.981   4.311   4.839  0.5263  1.4758  0.6157
  154MOL0     H20763   4.989   4.383   4.678  1.7892 -1.5978 -2.0483
  154MOL0     H20764   5.153   4.144   4.739 -2.7630  0.6436  3.1098
  154MOL0     H20765   5.187   4.266   4.617  2.4761 -2.2057 -0.3536
  154MOL0     H20766   5.198   4.335   4.918 -0.8531 -0.6057 -0.6703
  154MOL0     H20767   5.253   4.430   4.795  0.7265 -0.3818 -0.5721
  154MOL0     H20768   5.414   4.249   4.720  0.9710  2.3908  0.2175
  154MOL0     H20769   5.459   4.345   4.854  2.3862 -2.0717  0.2283
  154MOL0     H20770   4.646   4.683   4.583 -0.1518 -2.6227 -2.6128
  154MOL0     H20771   4.470   4.871   4.641 -2.0371  1.0216 -0.7391
  154MOL0     H20772   4.069   4.993   4.465 -2.3009  0.1300 -3.1262
  154MOL0     H20773   3.889   5.159   4.424  2.8273 -0.7793  0.4074
  154MOL0     H20774   1.875   4.733   4.736  2.3488  0.9721  0.4244
  154MOL0     H20775   1.754   4.720   4.957  0.1665  0.7071 -0.1250
  154MOL0     H20776   1.899   4.940   5.443 -0.9938 -0.5184  1.2336
  154MOL0     H20777   1.851   5.091   5.655  0.9294 -2.7391 -0.4795
  154MOL0     H20778   1.577   5.105   5.774 -0.3925 -0.2384 -0.5486
  154MOL0     H20779   1.544   5.264   5.826  0.4800 -0.4021  1.7268
  154MOL0     H20780   1.813   5.135   5.868  0.9024  0.5696  1.1854
  154MOL0     H20781   1.696   5.169   5.987  1.5461 -0.4041  0.2437
  154MOL0     H20782   1.705   5.420   5.933 -0.2363  0.4105  0.7082
  154MOL0     H20783   1.842   5.376   5.819  0.1631 -2.0369  0.4701
  154MOL0     H20784   1.966   5.296   6.021 -1.6782 -1.9137  0.2193
  154MOL0     H20785   1.935   5.475   6.002  0.4201 -0.3984 -3.5932
  154MOL0     H20786   1.703   5.350   6.343 -1.9584  2.9534  0.4146
  154MOL0     H20787   1.530   5.258   5.436  0.0525  0.9115  1.3042
  154MOL0     H20788   1.479   5.224   5.221  0.6169  0.0881 -1.4047
  154MOL0     H20789   1.617   5.184   5.137  2.2557 -1.8589 -0.1976
  154MOL0     H20790   1.490   5.060   5.161 -1.9316  1.7311 -0.9911
  155MOL0     O20791   6.998   5.069   3.054  0.9577  0.0621 -0.3278
  155MOL0     C20792   7.115   5.073   3.034 -0.6153  0.1017 -0.3340
  155MOL0     O20793   7.192   4.972   2.996  0.3660 -0.1395 -0.0379
  155MOL0     C20794   7.155   4.845   3.026  0.2424 -0.7602  0.5302
  155MOL0     C20795   7.069   4.778   2.938 -0.7310 -0.4536 -0.8734
  155MOL0     C20796   7.032   4.646   2.957 -1.2647  0.0593  0.3029
  155MOL0     C20797   7.077   4.578   3.068  0.9979 -0.8516  0.0060
  155MOL0     O20798   7.051   4.446   3.075  0.0961  0.0430 -0.5089
  155MOL0     C20799   6.937   4.385   3.006 -0.2301 -0.1951 -0.3367
  155MOL0     C20800   6.879   4.269   3.092 -0.7376  0.4122  0.8645
  155MOL0     C20801   6.789   4.183   2.996 -0.1883  0.1287  0.6640
  155MOL0     C20802   6.705   4.070   3.059 -0.5454 -0.2052  0.2445
  155MOL0     C20803   6.814   3.956   3.100  0.5945 -0.5083  0.2532
  155MOL0     C20804   6.744   3.843   3.170  0.9935  0.3870 -0.0756
  155MOL0     C20805   6.622   3.794   3.099  0.2668  0.8930  0.4048
  155MOL0     C20806   6.566   3.690   3.190  0.2566  0.2686 -0.0030
  155MOL0     N20807   6.518   3.723   3.328  0.1157  0.1853 -0.1747
  155MOL0     C20808   6.400   3.791   3.356 -0.1301  0.7071  0.6550
  155MOL0     C20809   6.403   3.806   3.491 -0.5355 -0.7795  0.0189
  155MOL0     C20810   6.293   3.892   3.548  0.4689  0.4590  0.5886
  155MOL0     C20811   6.209   3.796   3.615 -0.9135 -0.4719  0.1491
  155MOL0     C20812   6.068   3.853   3.637  0.0518  0.4499  0.0419
  155MOL0     C20813   5.971   3.731   3.660  0.0818 -0.3515  0.9013
  155MOL0     O20814   5.930   3.683   3.539  0.2197  0.2254  0.1660
  155MOL0     C20815   5.832   3.586   3.543  0.0171 -1.0771 -0.0513
  155MOL0     C20816   5.795   3.522   3.425  0.6193  0.1178 -0.2511
  155MOL0     C20817   5.684   3.439   3.406 -0.3280  1.5371  0.0256
  155MOL0     C20818   5.590   3.424   3.510 -0.9459  0.2422 -0.1514
  155MOL0     C20819   5.473   3.340   3.489 -0.0259  0.0783 -0.1342
  155MOL0     O20820   5.398   3.317   3.597  0.4604  0.5500  0.0703
  155MOL0     C20821   5.281   3.244   3.603  0.3359 -0.0699  0.4292
  155MOL0     C20822   5.280   3.141   3.693  0.4122  0.1990  0.1009
  155MOL0     C20823   5.173   3.052   3.713  0.0637  0.2865 -0.8495
  155MOL0     C20824   5.057   3.069   3.648  0.8242 -0.7767  0.0123
  155MOL0     O20825   4.954   2.992   3.697 -0.0856 -0.6744  0.2997
  155MOL0     C20826   4.829   3.045   3.667 -0.1396 -0.6032  0.5988
  155MOL0     C20827   4.725   2.970   3.748  0.2124 -0.2716 -0.5300
  155MOL0     C20828   4.687   3.048   3.875 -1.2283  0.4591 -0.1729
  155MOL0     C20829   4.587   2.980   3.972 -0.0721 -0.7376  0.2840
  155MOL0     C20830   4.540   3.067   4.088 -0.3267 -0.2632 -0.3500
  155MOL0     C20831   4.661   3.099   4.186  0.5531 -0.5983  0.5839
  155MOL0     C20832   4.637   3.235   4.253 -0.1986 -0.2176  0.1610
  155MOL0     C20833   4.751   3.261   4.357  1.2340 -0.7682 -0.0093
  155MOL0    Cl20834   4.911   3.276   4.297  0.1888 -0.2808  0.5151
  155MOL0     C20835   5.046   3.178   3.548 -0.0829 -0.6760 -0.1706
  155MOL0     C20836   5.157   3.265   3.529 -0.1892 -0.9764  0.6581
  155MOL0     O20837   5.447   3.308   3.370  0.1105 -0.9889  1.0863
  155MOL0     C20838   5.622   3.488   3.629  0.2038  0.1968  0.1696
  155MOL0     C20839   5.740   3.561   3.643  0.7426  0.1660 -0.3824
  155MOL0     N20840   6.518   3.756   3.543 -0.3245  0.1615 -0.2044
  155MOL0     N20841   6.586   3.697   3.445 -0.3683  0.1547 -0.5353
  155MOL0     C20842   7.169   4.645   3.155  0.4106 -0.6776 -0.5630
  155MOL0     C20843   7.203   4.777   3.132  1.0878  0.4507  0.9334
  155MOL0     C20844   7.174   5.204   3.021  0.4648 -0.3918 -0.0348
  155MOL0     C20845   7.291   5.221   2.946 -0.3012  0.9030 -0.9877
  155MOL0     C20846   7.362   5.343   2.956 -0.1328  0.4735  0.3468
  155MOL0     C20847   7.312   5.445   3.034 -0.0504  0.1012  0.9698
  155MOL0     O20848   7.373   5.568   3.014  0.5346 -0.3676  0.4990
  155MOL0     C20849   7.297   5.671   2.935  0.0265  0.2412 -0.1738
  155MOL0     C20850   7.387   5.781   2.888 -0.8159 -0.0583  0.0433
  155MOL0     C20851   7.512   5.745   2.806  0.3257 -0.3832 -0.4500
  155MOL0     C20852   7.603   5.875   2.776 -0.6825  0.0450  1.5283
  155MOL0     C20853   7.545   5.953   2.665  0.3737 -0.4740 -0.2146
  155MOL0     C20854   7.494   6.037   2.595 -0.1906 -0.3735  0.5722
  155MOL0     C20855   7.198   5.431   3.113  0.1685 -0.4148 -0.9990
  155MOL0     C20856   7.129   5.311   3.110 -0.5070 -0.0688  1.0322
  155MOL0     C20857   7.000   5.304   3.184 -0.7221  0.1728  0.2571
  155MOL0     H20858   7.020   4.842   2.865 -1.4219  4.2326  3.1771
  155MOL0     H20859   6.972   4.601   2.878  0.8677 -1.1311 -0.7185
  155MOL0     H20860   6.861   4.463   3.002 -0.7774 -0.6086  1.2941
  155MOL0     H20861   6.972   4.347   2.909 -0.4235  0.6687 -0.7470
  155MOL0     H20862   6.819   4.311   3.173  0.0467  0.5826  1.3745
  155MOL0     H20863   6.962   4.209   3.133 -0.1148  0.5018 -0.2141
  155MOL0     H20864   6.847   4.131   2.920  0.7617 -0.1025  1.5240
  155MOL0     H20865   6.724   4.251   2.941  0.2220  1.6183  1.9274
  155MOL0     H20866   6.667   4.125   3.146  2.5096  0.8994  1.0168
  155MOL0     H20867   6.618   4.049   2.998 -1.0445 -0.0172  0.8783
  155MOL0     H20868   6.860   3.917   3.008  1.3184 -1.9421  1.1723
  155MOL0     H20869   6.900   4.000   3.151  0.5951  1.6063 -1.4159
  155MOL0     H20870   6.818   3.765   3.186 -1.7750 -1.8890  2.8657
  155MOL0     H20871   6.722   3.889   3.267  1.0051 -1.1362  0.6728
  155MOL0     H20872   6.647   3.753   3.001  0.3605  1.8211  0.0264
  155MOL0     H20873   6.540   3.867   3.095  0.7217  1.4287  0.7105
  155MOL0     H20874   6.489   3.627   3.145  1.8472 -1.9453  0.2032
  155MOL0     H20875   6.641   3.611   3.196 -0.3149 -0.2996 -0.2846
  155MOL0     H20876   6.330   3.811   3.275 -0.0368  1.1561  0.6823
  155MOL0     H20877   6.326   3.973   3.613  0.5523  0.0695  1.0290
  155MOL0     H20878   6.246   3.940   3.461 -1.0179 -0.6742  0.7259
  155MOL0     H20879   6.198   3.701   3.561 -0.3334 -0.7132  0.4399
  155MOL0     H20880   6.260   3.773   3.709  1.7795 -1.2088 -1.3950
  155MOL0     H20881   6.023   3.902   3.550 -1.6238 -1.4007 -0.2040
  155MOL0     H20882   6.058   3.922   3.721 -1.7881  0.7116 -0.3415
  155MOL0     H20883   5.884   3.764   3.717 -2.3329 -1.3129 -1.9835
  155MOL0     H20884   6.020   3.650   3.715  0.6249 -1.7852 -1.5151
  155MOL0     H20885   5.857   3.537   3.336 -1.1055 -0.9656 -1.7130
  155MOL0     H20886   5.665   3.380   3.317  0.6152 -0.7055  1.2400
  155MOL0     H20887   5.376   3.125   3.741  0.1675 -1.2941  0.1414
  155MOL0     H20888   5.164   2.976   3.790 -4.7428  1.5383  0.1419
  155MOL0     H20889   4.827   3.150   3.699  1.1330 -0.6211  0.7875
  155MOL0     H20890   4.795   3.040   3.563 -0.8267 -2.6509  0.8836
  155MOL0     H20891   4.629   2.960   3.697  0.3622 -2.1393 -0.4993
  155MOL0     H20892   4.757   2.868   3.769 -2.3378 -1.8330 -3.4285
  155MOL0     H20893   4.787   3.060   3.917  0.5788 -0.4366 -3.8221
  155MOL0     H20894   4.648   3.147   3.849  1.0645  1.1140 -1.4140
  155MOL0     H20895   4.636   2.888   4.005  2.8598 -0.0501 -1.7438
  155MOL0     H20896   4.502   2.968   3.905  0.2328  6.0992 -2.1430
  155MOL0     H20897   4.457   3.025   4.145  0.6314 -0.3629  1.0212
  155MOL0     H20898   4.502   3.161   4.048  0.8259  0.2140 -0.3483
  155MOL0     H20899   4.683   3.016   4.254  2.8581 -0.4934  0.0538
  155MOL0     H20900   4.752   3.124   4.131  0.3155 -0.7836  0.1002
  155MOL0     H20901   4.542   3.251   4.304 -1.4011  0.8584 -2.2607
  155MOL0     H20902   4.650   3.315   4.179 -0.8746 -1.1663 -1.0291
  155MOL0     H20903   4.735   3.360   4.401  2.1472 -1.2038  1.3788
  155MOL0     H20904   4.747   3.196   4.445 -0.7754  0.0396  0.5418
  155MOL0     H20905   4.950   3.196   3.499  0.1737  0.9766 -0.1096
  155MOL0     H20906   5.149   3.342   3.454 -2.4585 -3.1739 -1.5282
  155MOL0     H20907   5.543   3.480   3.702 -0.4923 -1.7075 -0.7157
  155MOL0     H20908   5.754   3.602   3.742 -1.8682  0.8630 -0.2209
  155MOL0     H20909   7.212   4.581   3.232 -2.8325 -3.3339 -0.7002
  155MOL0     H20910   7.272   4.809   3.210  1.9127 -0.3679  0.5651
  155MOL0     H20911   7.335   5.137   2.894 -0.4815  0.0808  0.1509
  155MOL0     H20912   7.458   5.353   2.906  0.1758  4.4107  1.3995
  155MOL0     H20913   7.221   5.715   3.000  0.3113 -1.0296  1.0536
  155MOL0     H20914   7.257   5.625   2.844 -0.4225  1.5170 -0.6526
  155MOL0     H20915   7.428   5.826   2.978  0.8169 -1.3912  0.0132
  155MOL0     H20916   7.334   5.855   2.826  3.0497  1.8810 -1.2780
  155MOL0     H20917   7.474   5.698   2.714 -0.2628  1.0260 -0.9537
  155MOL0     H20918   7.574   5.668   2.853 -2.0005 -1.6093  0.8155
  155MOL0     H20919   7.605   5.944   2.861  2.0251  2.5814 -0.4002
  155MOL0     H20920   7.706   5.848   2.751 -0.6879  0.8894  0.5357
  155MOL0     H20921   7.442   6.106   2.532 -0.8821 -1.4227 -0.0411
  155MOL0     H20922   7.164   5.518   3.168 -0.4633 -1.7238  0.7555
  155MOL0     H20923   6.913   5.289   3.120 -0.7240 -2.5921  0.7820
  155MOL0     H20924   6.998   5.230   3.264  1.1006 -0.5636 -0.3252
  155MOL0     H20925   6.988   5.401   3.233  3.2621  0.9961  0.0020
  156MOL0     O20926   1.388   5.482   1.865  0.3787  0.4972 -0.3165
  156MOL0     C20927   1.348   5.504   1.751 -0.1817  0.2319  0.6999
  156MOL0     O20928   1.428   5.534   1.652 -0.5581  0.5140 -0.5074
  156MOL0     C20929   1.555   5.599   1.675  0.8432  0.6291 -0.4939
  156MOL0     C20930   1.581   5.701   1.775  0.6960 -1.3570  0.0135
  156MOL0     C20931   1.707   5.754   1.787 -0.4923  1.0613 -0.5340
  156MOL0     C20932   1.804   5.728   1.692  0.3022 -0.1088  0.1675
  156MOL0     O20933   1.931   5.774   1.703 -0.0108  0.3333 -0.0187
  156MOL0     C20934   1.992   5.815   1.828 -0.0900  0.2957  0.2143
  156MOL0     C20935   2.130   5.745   1.813 -0.0905 -0.9288 -0.6634
  156MOL0     C20936   2.183   5.712   1.947  0.2163 -0.0749 -0.4930
  156MOL0     C20937   2.326   5.648   1.943 -0.3926  0.3296 -0.4921
  156MOL0     C20938   2.429   5.756   1.944 -1.2358  0.1171 -0.5247
  156MOL0     C20939   2.568   5.699   1.926  0.2473 -0.2389  1.3019
  156MOL0     C20940   2.590   5.619   1.804 -0.0842 -0.1797  0.7527
  156MOL0     C20941   2.739   5.589   1.782 -0.5151 -0.1893 -0.8439
  156MOL0     N20942   2.797   5.516   1.901 -0.8822  0.8741 -0.3515
  156MOL0     C20943   2.847   5.565   2.014 -0.5508 -0.4214  0.6704
  156MOL0     C20944   2.890   5.453   2.090  0.0501 -0.9034 -0.4719
  156MOL0     C20945   2.956   5.448   2.231  1.1195  0.2808 -0.9429
  156MOL0     C20946   3.095   5.508   2.236  0.0516 -0.6946 -0.2035
  156MOL0     C20947   3.203   5.442   2.143  0.3630  0.0512 -0.5294
  156MOL0     C20948   3.344   5.466   2.191  0.4829  1.8515 -0.2241
  156MOL0     O20949   3.415   5.348   2.148  0.7846 -0.4689  0.1282
  156MOL0     C20950   3.544   5.358   2.188 -0.3436  0.0399 -0.2464
  156MOL0     C20951   3.638   5.419   2.105 -0.0804  0.0253  1.0184
  156MOL0     C20952   3.767   5.440   2.149 -0.2861  0.0568 -0.0182
  156MOL0     C20953   3.796   5.386   2.271 -0.9327 -0.8633 -0.2312
  156MOL0     C20954   3.934   5.412   2.323 -0.9929  0.1920  1.2536
  156MOL0     O20955   3.997   5.533   2.290  0.0006  0.5470 -0.4498
  156MOL0     C20956   4.073   5.600   2.384  1.0257 -0.6820  0.5271
  156MOL0     C20957   4.021   5.642   2.508 -0.1236 -0.1497  0.0786
  156MOL0     C20958   4.094   5.713   2.598 -0.8873  0.7912 -0.3925
  156MOL0     C20959   4.218   5.769   2.562  0.1570 -0.1615 -0.0350
  156MOL0     O20960   4.277   5.843   2.661  0.1164  0.1650  0.1997
  156MOL0     C20961   4.382   5.928   2.614 -1.1214 -0.3804  0.2520
  156MOL0     C20962   4.456   5.969   2.736 -0.1955 -0.1328  0.8654
  156MOL0     C20963   4.586   6.042   2.696  0.4904 -0.0967 -0.3119
  156MOL0     C20964   4.641   6.114   2.822  0.3170 -0.2394  1.1420
  156MOL0     C20965   4.765   6.193   2.784 -0.4921  0.5415  0.2523
  156MOL0     C20966   4.857   6.228   2.902 -0.4713 -0.4614 -0.1688
  156MOL0     C20967   4.989   6.299   2.873  0.2522 -0.5512  0.2388
  156MOL0     C20968   5.061   6.235   2.748 -0.0027 -0.0545  0.1202
  156MOL0    Cl20969   5.141   6.085   2.778  0.1927 -0.2235 -0.2971
  156MOL0     C20970   4.277   5.724   2.437  0.4580 -0.7062  0.3911
  156MOL0     C20971   4.203   5.638   2.352 -0.5413 -0.3652 -0.4370
  156MOL0     O20972   3.980   5.338   2.402 -0.9208  0.6167 -0.0990
  156MOL0     C20973   3.701   5.310   2.344 -0.5422  0.2716  0.1082
  156MOL0     C20974   3.576   5.289   2.306  0.1145 -0.3393  0.6808
  156MOL0     N20975   2.892   5.342   2.006 -0.1730 -0.0357  0.8897
  156MOL0     N20976   2.825   5.378   1.901  0.1477  0.5641  0.1135
  156MOL0     C20977   1.779   5.647   1.583  0.2892  0.4485 -0.1523
  156MOL0     C20978   1.659   5.572   1.580  0.5167  0.8119 -0.2990
  156MOL0     C20979   1.207   5.482   1.713  0.4293  1.3743  1.1417
  156MOL0     C20980   1.141   5.383   1.799 -0.1880 -0.0788  0.6795
  156MOL0     C20981   1.014   5.337   1.770 -0.2989  1.1415  0.5103
  156MOL0     C20982   0.958   5.369   1.643 -0.7688  0.1052  0.0721
  156MOL0     O20983   0.828   5.331   1.605  0.4736 -0.3208  0.4777
  156MOL0     C20984   0.743   5.259   1.698 -1.0151  1.4557  0.2607
  156MOL0     C20985   0.597   5.271   1.667  0.8187 -0.1481 -0.5610
  156MOL0     C20986   0.517   5.208   1.787 -0.5235  0.2165 -0.3203
  156MOL0     C20987   0.470   5.072   1.756 -0.3672 -0.8188  0.9996
  156MOL0     C20988   0.337   5.074   1.684  0.9829 -0.2529  0.0726
  156MOL0     C20989   0.239   5.086   1.619  0.3487 -0.3090  0.5147
  156MOL0     C20990   1.026   5.451   1.551 -0.5873  0.2926 -0.0531
  156MOL0     C20991   1.144   5.516   1.594  0.2388  0.5916  0.7171
  156MOL0     C20992   1.181   5.629   1.496  0.0630  0.6491 -0.0393
  156MOL0     H20993   1.504   5.724   1.849 -0.1506 -0.0164 -1.2361
  156MOL0     H20994   1.736   5.819   1.869 -1.1716  2.4591 -1.3612
  156MOL0     H20995   1.989   5.924   1.842  1.0561  0.0288  3.0066
  156MOL0     H20996   1.940   5.776   1.915 -0.5218 -0.0133 -0.1745
  156MOL0     H20997   2.198   5.812   1.759  0.6555 -1.1057  0.0416
  156MOL0     H20998   2.119   5.651   1.757 -1.8192 -1.4010  0.3799
  156MOL0     H20999   2.112   5.639   1.988  0.6803 -0.6484 -0.6994
  156MOL0     H21000   2.185   5.799   2.013  0.3681 -1.3328  1.2176
  156MOL0     H21001   2.346   5.590   2.033  0.5344 -0.0014 -0.8992
  156MOL0     H21002   2.339   5.573   1.865 -0.6234  0.9795 -1.1716
  156MOL0     H21003   2.406   5.815   1.854 -0.5405 -2.9928 -2.9063
  156MOL0     H21004   2.440   5.817   2.034  0.7604 -0.1121 -0.5615
  156MOL0     H21005   2.629   5.786   1.900  0.3608 -1.1542 -1.9136
  156MOL0     H21006   2.589   5.664   2.027 -3.0611  4.8671  4.2321
  156MOL0     H21007   2.552   5.658   1.709  1.8632  0.1303  0.0495
  156MOL0     H21008   2.545   5.521   1.820 -0.0232 -0.2570  0.4543
  156MOL0     H21009   2.736   5.533   1.688  1.1214  1.3104 -1.8651
  156MOL0     H21010   2.795   5.682   1.769 -0.9869  0.5129  1.5523
  156MOL0     H21011   2.839   5.665   2.054 -0.8660  0.8958 -2.4409
  156MOL0     H21012   2.895   5.512   2.296 -0.3218  0.2068 -2.1586
  156MOL0     H21013   2.951   5.342   2.257 -1.0445  0.4270 -0.5054
  156MOL0     H21014   3.090   5.617   2.224 -1.8902 -0.4553  2.0460
  156MOL0     H21015   3.125   5.507   2.342 -2.5265  1.8368  0.6891
  156MOL0     H21016   3.193   5.473   2.039  3.6192  0.0559 -0.9603
  156MOL0     H21017   3.188   5.333   2.150  2.3576 -0.1999  0.8163
  156MOL0     H21018   3.363   5.469   2.299  5.9824  2.5542 -0.9598
  156MOL0     H21019   3.385   5.556   2.146  1.7138  1.8433  0.8318
  156MOL0     H21020   3.592   5.453   2.013 -1.9615 -1.6038  1.3060
  156MOL0     H21021   3.839   5.499   2.092  0.9746 -2.4745 -1.1976
  156MOL0     H21022   3.920   5.607   2.527  0.2227 -1.9232 -1.0507
  156MOL0     H21023   4.059   5.748   2.694 -0.7937  3.2521 -1.1701
  156MOL0     H21024   4.451   5.872   2.550  0.7466  0.6222  1.3176
  156MOL0     H21025   4.334   6.014   2.567 -1.7515 -1.3066 -0.8420
  156MOL0     H21026   4.396   6.037   2.797  1.2529  1.5515  0.4795
  156MOL0     H21027   4.481   5.880   2.795  2.8776 -0.7324 -1.1316
  156MOL0     H21028   4.654   5.961   2.668 -1.6144 -2.4158  0.9265
  156MOL0     H21029   4.570   6.123   2.623 -3.2653  0.1341  0.5553
  156MOL0     H21030   4.662   6.046   2.905  1.8517 -0.0805  0.9091
  156MOL0     H21031   4.573   6.185   2.869  2.0946  0.5193  2.6593
  156MOL0     H21032   4.730   6.285   2.737  1.8744  2.8040  2.6210
  156MOL0     H21033   4.821   6.128   2.715  0.0931 -0.1569  1.3584
  156MOL0     H21034   4.801   6.294   2.970  0.8772 -1.1121  1.6605
  156MOL0     H21035   4.885   6.134   2.951  3.3749 -0.1053 -1.3645
  156MOL0     H21036   5.059   6.294   2.957  1.1264  2.4825 -0.2078
  156MOL0     H21037   4.972   6.405   2.853 -1.8594 -1.1132 -1.2690
  156MOL0     H21038   4.990   6.229   2.665  0.6493 -1.5384 -0.3738
  156MOL0     H21039   5.142   6.303   2.717  0.0583 -0.8814 -1.6476
  156MOL0     H21040   4.381   5.745   2.416 -0.1000  4.1573  1.1487
  156MOL0     H21041   4.239   5.595   2.259 -1.4140 -2.0940 -0.0051
  156MOL0     H21042   3.740   5.271   2.438  0.6340 -0.1290 -0.5282
  156MOL0     H21043   3.510   5.247   2.382  0.6934  0.2290  1.5231
  156MOL0     H21044   1.864   5.628   1.518  0.7981 -0.3979  0.7374
  156MOL0     H21045   1.654   5.492   1.507  1.8288  0.8190 -0.4214
  156MOL0     H21046   1.193   5.332   1.879  1.1508 -0.2030 -0.2433
  156MOL0     H21047   0.970   5.267   1.841 -0.3201  1.1095  0.4659
  156MOL0     H21048   0.760   5.306   1.795 -0.2066  0.9108  0.3920
  156MOL0     H21049   0.787   5.159   1.697 -1.8040  1.0276  2.4952
  156MOL0     H21050   0.577   5.223   1.571  1.0766  0.5467 -0.9676
  156MOL0     H21051   0.563   5.375   1.667 -0.1680 -0.4633 -0.4059
  156MOL0     H21052   0.439   5.280   1.812 -2.2719 -1.5920 -0.2896
  156MOL0     H21053   0.582   5.192   1.873 -0.8853 -1.9567 -0.4075
  156MOL0     H21054   0.546   5.020   1.696  0.1925 -0.6493  1.5540
  156MOL0     H21055   0.459   5.012   1.847  0.5045 -2.0973  0.3057
  156MOL0     H21056   0.149   5.089   1.560  1.5857 -3.3857 -1.8138
  156MOL0     H21057   0.969   5.467   1.461 -1.4955 -0.7209  0.3235
  156MOL0     H21058   1.107   5.648   1.418 -1.2734  0.4041  1.1297
  156MOL0     H21059   1.217   5.716   1.550  1.8836  0.0786 -0.2662
  156MOL0     H21060   1.263   5.585   1.438  0.0290  0.3382  0.1445
  157MOL0     O21061   3.724   8.162   6.863 -0.2895  0.1793 -0.3594
  157MOL0     C21062   3.613   8.133   6.819  0.0527  0.3338 -0.3957
  157MOL0     O21063   3.496   8.123   6.888 -0.2000 -0.8751 -0.1170
  157MOL0     C21064   3.506   8.162   7.022  0.7110 -1.0674 -0.6041
  157MOL0     C21065   3.479   8.066   7.117 -0.8617  0.1249  0.4182
  157MOL0     C21066   3.492   8.101   7.253 -0.3226 -0.7267 -0.3658
  157MOL0     C21067   3.535   8.236   7.295 -0.2404 -0.4215 -0.4870
  157MOL0     O21068   3.540   8.267   7.433  0.2151 -0.0495  0.1487
  157MOL0     C21069   3.577   8.400   7.475  0.7289 -0.3739  0.7161
  157MOL0     C21070   3.612   8.412   7.623  0.2028  0.1463  0.1092
  157MOL0     C21071   3.743   8.345   7.672 -0.3906 -0.0311 -0.0640
  157MOL0     C21072   3.871   8.409   7.620  0.4974  0.2656  0.4849
  157MOL0     C21073   3.998   8.326   7.643  0.8909 -0.1504 -0.5095
  157MOL0     C21074   4.122   8.410   7.615 -0.0076  0.6436 -0.1282
  157MOL0     C21075   4.190   8.472   7.742  1.0113  0.6896 -0.0925
  157MOL0     C21076   4.306   8.550   7.679 -0.4372 -0.2926 -1.3528
  157MOL0     N21077   4.425   8.459   7.658 -0.4601 -0.1122  0.5969
  157MOL0     C21078   4.507   8.394   7.743 -0.1673  0.0972 -0.4690
  157MOL0     C21079   4.609   8.347   7.667  0.0210 -0.3748 -0.6469
  157MOL0     C21080   4.731   8.289   7.727  0.3768 -0.4341 -0.0853
  157MOL0     C21081   4.704   8.135   7.725  0.5170  0.1359  0.3555
  157MOL0     C21082   4.833   8.052   7.709  0.2830 -0.2010 -0.9322
  157MOL0     C21083   4.935   8.081   7.820 -0.7167  0.2628 -0.4694
  157MOL0     O21084   5.007   8.197   7.780  0.6845 -0.4812  0.2501
  157MOL0     C21085   5.082   8.272   7.873  0.7088  0.5097 -0.3172
  157MOL0     C21086   5.140   8.392   7.840 -0.3530 -0.0262  0.6726
  157MOL0     C21087   5.213   8.468   7.932 -0.2769 -0.9803  0.2098
  157MOL0     C21088   5.240   8.422   8.060  0.0640  0.4703  0.4007
  157MOL0     C21089   5.332   8.482   8.157  0.4647 -0.3230 -0.0609
  157MOL0     O21090   5.300   8.436   8.279 -0.3569 -0.7124  0.1855
  157MOL0     C21091   5.338   8.513   8.379 -1.6365  0.1444  0.2697
  157MOL0     C21092   5.314   8.649   8.401 -0.2642 -0.4277  0.0767
  157MOL0     C21093   5.359   8.712   8.517  1.3594  0.9184 -0.9436
  157MOL0     C21094   5.448   8.659   8.604  0.0940 -0.1109  0.5823
  157MOL0     O21095   5.499   8.744   8.705  1.4794 -0.0103  0.3255
  157MOL0     C21096   5.640   8.736   8.715  0.2096  0.4167 -0.6312
  157MOL0     C21097   5.680   8.862   8.640 -0.2588  0.3556  0.0042
  157MOL0     C21098   5.817   8.907   8.699 -0.4191 -0.4989 -0.1183
  157MOL0     C21099   5.847   9.045   8.645 -0.3224  0.0071  0.3067
  157MOL0     C21100   5.973   9.100   8.706  0.6724 -0.0918  0.2752
  157MOL0     C21101   6.007   9.227   8.637  0.4052  0.0885 -0.6667
  157MOL0     C21102   6.144   9.281   8.682 -0.6991  0.7223 -0.2383
  157MOL0     C21103   6.246   9.252   8.576 -0.1338  0.4242  0.2103
  157MOL0    Cl21104   6.401   9.331   8.605 -0.3373 -0.3105 -0.0045
  157MOL0     C21105   5.477   8.521   8.592 -0.5331  0.6705  0.2433
  157MOL0     C21106   5.414   8.450   8.483 -0.6035 -0.4951  1.0344
  157MOL0     O21107   5.409   8.567   8.122 -0.5493  0.0286  0.3261
  157MOL0     C21108   5.180   8.298   8.098  0.3801 -0.4433  0.8398
  157MOL0     C21109   5.106   8.227   8.004 -0.0354  0.4305  0.0893
  157MOL0     N21110   4.577   8.375   7.539  0.2359  0.6182  0.1193
  157MOL0     N21111   4.472   8.436   7.534  0.4980  0.2593 -0.1626
  157MOL0     C21112   3.554   8.333   7.188  0.2851 -0.1550  0.8658
  157MOL0     C21113   3.539   8.291   7.056  0.3079 -0.1095 -0.0168
  157MOL0     C21114   3.601   8.131   6.665 -0.1656  0.2185 -0.0746
  157MOL0     C21115   3.471   8.137   6.605 -0.1204 -0.3204  0.2975
  157MOL0     C21116   3.457   8.120   6.466  0.1063 -0.0271  0.3431
  157MOL0     C21117   3.566   8.105   6.384 -0.6797 -0.8051 -1.0782
  157MOL0     O21118   3.535   8.108   6.248  0.2479 -0.2243  0.6343
  157MOL0     C21119   3.640   8.150   6.160 -0.4479 -0.1773  0.5927
  157MOL0     C21120   3.611   8.141   6.013 -0.3095  0.5431 -0.6317
  157MOL0     C21121   3.478   8.198   5.968  0.0646  0.1854  0.4883
  157MOL0     C21122   3.487   8.360   5.958 -0.1538  0.1243 -0.8926
  157MOL0     C21123   3.498   8.435   6.079 -0.0588 -0.8397 -0.1840
  157MOL0     C21124   3.535   8.507   6.173  0.4652 -0.1213  0.2695
  157MOL0     C21125   3.697   8.136   6.435  0.8052 -0.1306  0.1761
  157MOL0     C21126   3.719   8.128   6.575  0.1927 -0.4072 -0.3227
  157MOL0     C21127   3.861   8.115   6.619  0.4430  0.4414 -0.3647
  157MOL0     H21128   3.485   7.961   7.093  2.4926  0.1809  0.5323
  157MOL0     H21129   3.494   8.024   7.330 -2.4192  0.6089  1.1407
  157MOL0     H21130   3.655   8.443   7.410  0.9639 -0.8451  0.6807
  157MOL0     H21131   3.484   8.455   7.460 -0.1008 -1.5287  1.4919
  157MOL0     H21132   3.531   8.382   7.690  0.7503 -1.3384  0.1472
  157MOL0     H21133   3.619   8.517   7.651  0.1450  0.4434 -0.9491
  157MOL0     H21134   3.740   8.240   7.641 -0.7106 -1.3610  3.9614
  157MOL0     H21135   3.752   8.353   7.780  1.4882  3.2892 -0.3552
  157MOL0     H21136   3.860   8.410   7.511 -0.6337 -1.6463  0.5220
  157MOL0     H21137   3.861   8.506   7.668  2.1756  2.0351 -2.4399
  157MOL0     H21138   4.011   8.279   7.742  1.0815  1.1746  0.1094
  157MOL0     H21139   3.990   8.239   7.577 -1.2458 -0.3140 -0.1155
  157MOL0     H21140   4.197   8.343   7.572 -0.1838 -0.1745  0.7888
  157MOL0     H21141   4.105   8.498   7.553  0.9165  0.8938 -0.0415
  157MOL0     H21142   4.223   8.403   7.820  0.4848  1.1856  0.5782
  157MOL0     H21143   4.115   8.539   7.784 -3.1482 -3.5435  0.0938
  157MOL0     H21144   4.290   8.610   7.589  3.5443 -1.3475 -2.9928
  157MOL0     H21145   4.320   8.627   7.755 -2.4552  0.9859 -2.1931
  157MOL0     H21146   4.510   8.408   7.850 -1.6137 -1.5001 -0.1747
  157MOL0     H21147   4.810   8.325   7.661 -0.9854  0.8506 -1.0867
  157MOL0     H21148   4.755   8.327   7.827  0.5476 -2.2162  0.5913
  157MOL0     H21149   4.651   8.115   7.818  2.2932  1.5769  1.7579
  157MOL0     H21150   4.648   8.101   7.637  1.8529  0.2358 -0.5603
  157MOL0     H21151   4.871   8.044   7.607 -0.2921 -2.6064 -1.0247
  157MOL0     H21152   4.802   7.948   7.726 -0.2445  0.4187  2.7056
  157MOL0     H21153   4.997   7.992   7.828  1.3841  1.4794 -2.1458
  157MOL0     H21154   4.875   8.095   7.910  0.1250 -1.8027  0.4624
  157MOL0     H21155   5.135   8.424   7.736  1.6649  0.6101  0.7316
  157MOL0     H21156   5.248   8.567   7.907 -0.5252 -1.2456 -1.2744
  157MOL0     H21157   5.266   8.711   8.326 -0.5653  0.7559  1.2212
  157MOL0     H21158   5.331   8.815   8.533  0.4421  0.2724  2.1364
  157MOL0     H21159   5.673   8.735   8.819 -2.2628 -1.3347  0.2280
  157MOL0     H21160   5.691   8.648   8.675  1.3443 -0.9549  3.3734
  157MOL0     H21161   5.678   8.843   8.532 -0.8773 -3.2805  0.5384
  157MOL0     H21162   5.613   8.946   8.664 -1.4635 -0.2147 -1.2082
  157MOL0     H21163   5.830   8.914   8.807 -0.7425 -0.9406 -0.0471
  157MOL0     H21164   5.892   8.838   8.661 -1.3617 -0.2557 -2.6549
  157MOL0     H21165   5.763   9.115   8.647  0.8363  1.6309 -2.3515
  157MOL0     H21166   5.873   9.025   8.541 -3.7495  1.3726 -0.9513
  157MOL0     H21167   6.057   9.030   8.696 -0.4385 -1.5151  0.5063
  157MOL0     H21168   5.947   9.122   8.810 -2.4017 -0.8318 -0.2219
  157MOL0     H21169   6.020   9.219   8.529  3.1644  2.0812 -0.5776
  157MOL0     H21170   5.921   9.291   8.658  0.9344  1.2452 -1.8743
  157MOL0     H21171   6.181   9.237   8.775  3.6130  0.6695 -1.7363
  157MOL0     H21172   6.133   9.388   8.701 -0.0076  0.3968  2.2221
  157MOL0     H21173   6.266   9.145   8.574  1.5693  0.5779  2.9667
  157MOL0     H21174   6.215   9.278   8.475 -1.1289  0.8353  0.6094
  157MOL0     H21175   5.529   8.476   8.676 -2.5251  1.5474  2.0402
  157MOL0     H21176   5.447   8.347   8.473  0.8591  0.1697 -1.7656
  157MOL0     H21177   5.183   8.264   8.201  0.7941 -2.2821  0.2487
  157MOL0     H21178   5.054   8.136   8.033 -0.3354  0.0345 -1.5429
  157MOL0     H21179   3.588   8.436   7.196  0.2188  0.0025 -0.7110
  157MOL0     H21180   3.538   8.363   6.975  0.0580 -0.8248 -0.6731
  157MOL0     H21181   3.380   8.130   6.663 -3.2031  0.3565 -4.0190
  157MOL0     H21182   3.362   8.098   6.420  0.6793 -0.2548 -0.7779
  157MOL0     H21183   3.731   8.092   6.177  0.9155  1.6587 -0.0816
  157MOL0     H21184   3.657   8.256   6.182 -0.3809 -0.7345  3.6891
  157MOL0     H21185   3.621   8.035   5.985 -0.8036  0.0669  0.8597
  157MOL0     H21186   3.687   8.194   5.955  1.8659 -0.4333  1.1654
  157MOL0     H21187   3.392   8.180   6.033 -1.9594  0.6612 -1.9020
  157MOL0     H21188   3.446   8.151   5.875 -0.6327 -2.4333  1.9511
  157MOL0     H21189   3.559   8.390   5.882  0.4443 -1.7695 -1.1115
  157MOL0     H21190   3.391   8.389   5.915 -0.7940 -1.9681 -0.9864
  157MOL0     H21191   3.576   8.571   6.248 -1.4671 -1.1069  2.2649
  157MOL0     H21192   3.782   8.154   6.370 -1.6175  3.6756 -2.3609
  157MOL0     H21193   3.890   8.216   6.651  2.8692  0.3990 -2.1550
  157MOL0     H21194   3.883   8.045   6.700 -0.7594 -0.2076 -0.5737
  157MOL0     H21195   3.927   8.074   6.542  0.1070 -1.4957  0.3389
  158MOL0     O21196   4.595   7.660   1.406 -0.1477 -0.5656  0.1737
  158MOL0     C21197   4.505   7.709   1.470  0.5346  0.7674  0.2340
  158MOL0     O21198   4.499   7.835   1.520  0.5181 -0.2628  0.9308
  158MOL0     C21199   4.609   7.917   1.502 -0.1733 -0.3533  0.0093
  158MOL0     C21200   4.598   8.044   1.430 -0.9222 -0.6960  0.5410
  158MOL0     C21201   4.716   8.121   1.402  0.6048 -0.0275  0.2131
  158MOL0     C21202   4.840   8.076   1.456  1.2873 -0.3294  0.3309
  158MOL0     O21203   4.960   8.126   1.434 -0.5412  0.3052  0.4075
  158MOL0     C21204   4.987   8.197   1.313 -0.3329  0.1654  0.7031
  158MOL0     C21205   5.139   8.226   1.309 -0.7067 -0.3238  0.0511
  158MOL0     C21206   5.191   8.319   1.427 -0.5511  0.5775 -0.4757
  158MOL0     C21207   5.156   8.471   1.384  0.1662 -0.6321  1.1150
  158MOL0     C21208   5.186   8.554   1.504  0.3518  0.2501 -0.1354
  158MOL0     C21209   5.171   8.713   1.465  0.1632  0.4988  0.4178
  158MOL0     C21210   5.185   8.799   1.582 -0.3018 -0.7735  0.1157
  158MOL0     C21211   5.114   8.941   1.581  0.2764 -0.4938 -0.6499
  158MOL0     N21212   5.170   9.036   1.679 -0.3291  1.0577 -0.2683
  158MOL0     C21213   5.309   9.058   1.694  0.8267  0.4340 -0.2816
  158MOL0     C21214   5.315   9.171   1.769 -0.5686 -0.0668  0.0571
  158MOL0     C21215   5.447   9.233   1.813 -0.2718  0.3055  0.9796
  158MOL0     C21216   5.423   9.352   1.907  0.7861  0.1603 -0.7549
  158MOL0     C21217   5.527   9.367   2.022  0.6080  1.1214  0.5648
  158MOL0     C21218   5.524   9.489   2.116 -0.4911 -0.3093 -0.8981
  158MOL0     O21219   5.583   9.442   2.234 -0.0917 -0.4108  0.4124
  158MOL0     C21220   5.723   9.432   2.243 -0.0325 -0.8372 -0.5407
  158MOL0     C21221   5.817   9.481   2.150  0.0605  0.7294 -0.3901
  158MOL0     C21222   5.957   9.475   2.163 -0.1796 -0.5791  0.0858
  158MOL0     C21223   6.006   9.409   2.280  0.5332  0.6519 -0.8753
  158MOL0     C21224   6.149   9.392   2.301  0.3847  0.4774  0.3813
  158MOL0     O21225   6.198   9.376   2.431  0.2669 -0.4414  0.2461
  158MOL0     C21226   6.322   9.317   2.451 -0.8080 -0.0748  0.3225
  158MOL0     C21227   6.433   9.395   2.503  1.0620 -0.3464  0.0017
  158MOL0     C21228   6.560   9.340   2.511 -0.0360 -0.1216 -0.1744
  158MOL0     C21229   6.576   9.202   2.513  0.0370 -0.6609  0.5403
  158MOL0     O21230   6.699   9.149   2.550  0.7026  0.1045  0.1642
  158MOL0     C21231   6.718   9.005   2.518 -0.6902 -0.4303  0.2018
  158MOL0     C21232   6.857   8.951   2.550  0.4667 -0.6849  0.5943
  158MOL0     C21233   6.882   8.969   2.701  0.3628  1.0793  0.0085
  158MOL0     C21234   7.031   8.931   2.721  0.1651 -0.6595 -0.1982
  158MOL0     C21235   7.056   8.929   2.877 -0.8416  0.6600  0.7649
  158MOL0     C21236   7.202   8.896   2.911  0.7647 -0.3037  0.6317
  158MOL0     C21237   7.312   9.004   2.900  0.7147 -0.0098  0.1288
  158MOL0     C21238   7.441   8.955   2.972  0.3089 -0.0270 -0.3877
  158MOL0    Cl21239   7.512   8.800   2.906  0.2512  0.5194  0.0581
  158MOL0     C21240   6.460   9.122   2.460 -0.1250 -0.3744  0.0342
  158MOL0     C21241   6.334   9.185   2.428 -0.7367 -0.6352  0.0426
  158MOL0     O21242   6.217   9.364   2.205 -0.0534 -0.1493 -0.2846
  158MOL0     C21243   5.909   9.376   2.385 -0.3239 -0.3946  0.0876
  158MOL0     C21244   5.771   9.382   2.359  0.8823 -0.2175  0.3557
  158MOL0     N21245   5.187   9.218   1.794 -0.1155 -0.1789  0.2485
  158MOL0     N21246   5.104   9.135   1.742  0.1992 -0.1649 -0.1634
  158MOL0     C21247   4.849   7.957   1.527  0.1401  0.3796 -0.4054
  158MOL0     C21248   4.732   7.875   1.554 -0.5283 -0.3053  0.7928
  158MOL0     C21249   4.391   7.622   1.496  0.7356  0.5288 -0.1606
  158MOL0     C21250   4.373   7.573   1.622  0.2616 -0.3080  0.1246
  158MOL0     C21251   4.255   7.491   1.638 -0.1004 -0.4128 -0.1054
  158MOL0     C21252   4.152   7.487   1.541 -0.6423  0.6337 -0.6317
  158MOL0     O21253   4.049   7.396   1.578 -0.8666 -0.1955 -0.2431
  158MOL0     C21254   3.948   7.367   1.494 -0.0752  0.5406 -0.5325
  158MOL0     C21255   3.827   7.325   1.572 -0.0299  0.7808 -0.6225
  158MOL0     C21256   3.757   7.183   1.550  0.5497  0.5150 -0.2860
  158MOL0     C21257   3.628   7.172   1.633  0.0034 -0.2087 -0.4814
  158MOL0     C21258   3.655   7.226   1.774  0.5505  0.5174  0.3564
  158MOL0     C21259   3.682   7.265   1.886  0.0319  0.2516 -0.1160
  158MOL0     C21260   4.170   7.548   1.424  0.7378  0.0782 -0.2946
  158MOL0     C21261   4.290   7.614   1.392 -0.0834  0.9687 -0.1956
  158MOL0     C21262   4.304   7.679   1.255  0.1717  0.8663 -0.9851
  158MOL0     H21263   4.506   8.086   1.390 -0.5273 -0.7260 -0.4199
  158MOL0     H21264   4.705   8.216   1.350  0.8767  0.3617  0.8653
  158MOL0     H21265   4.954   8.146   1.222  2.2225  1.4211 -1.0316
  158MOL0     H21266   4.926   8.286   1.302  2.1371  1.7214 -1.9672
  158MOL0     H21267   5.167   8.263   1.211 -1.4791 -0.6294 -0.2904
  158MOL0     H21268   5.185   8.127   1.310  1.7327  0.6853 -2.1270
  158MOL0     H21269   5.297   8.306   1.451 -0.6116 -2.3793 -1.3763
  158MOL0     H21270   5.144   8.289   1.521  0.7022 -0.0222 -0.0205
  158MOL0     H21271   5.212   8.499   1.294  0.6390  1.0079  1.8812
  158MOL0     H21272   5.049   8.475   1.360 -0.1678 -2.0946  2.2351
  158MOL0     H21273   5.130   8.516   1.590  5.1116 -2.5435  2.1466
  158MOL0     H21274   5.290   8.547   1.536  0.5795  2.6364 -0.1771
  158MOL0     H21275   5.244   8.740   1.387 -1.2286  1.0238 -0.7540
  158MOL0     H21276   5.072   8.734   1.423 -1.1124 -1.1760  2.3780
  158MOL0     H21277   5.292   8.815   1.598 -0.0790 -0.0927 -1.7910
  158MOL0     H21278   5.169   8.740   1.673  4.5582 -2.1136  0.3617
  158MOL0     H21279   5.134   8.995   1.488  2.3159  1.0099  0.5649
  158MOL0     H21280   5.005   8.945   1.589  0.4127  1.2666  1.3203
  158MOL0     H21281   5.391   9.002   1.649  2.5058  1.4660  1.3554
  158MOL0     H21282   5.518   9.160   1.851 -2.2053 -1.2228  1.8031
  158MOL0     H21283   5.480   9.269   1.715  0.5319  1.5005  1.6625
  158MOL0     H21284   5.419   9.445   1.849  1.2962  0.6752  0.0096
  158MOL0     H21285   5.330   9.342   1.964  1.4559 -2.3610  0.0086
  158MOL0     H21286   5.622   9.366   1.968  0.5759 -0.1515  0.5058
  158MOL0     H21287   5.523   9.274   2.080 -0.6317  0.6978 -0.1429
  158MOL0     H21288   5.421   9.516   2.143  0.0543  0.0793  0.8978
  158MOL0     H21289   5.579   9.562   2.057  0.4691  0.1514  0.5165
  158MOL0     H21290   5.774   9.520   2.059 -3.9678  0.4773  1.1922
  158MOL0     H21291   6.024   9.510   2.085  0.7274 -0.7640  0.7665
  158MOL0     H21292   6.423   9.503   2.508 -0.6067 -0.5098  0.5362
  158MOL0     H21293   6.638   9.411   2.537 -0.5426 -0.0413  1.2495
  158MOL0     H21294   6.655   8.936   2.576 -0.9215 -0.8007 -0.4787
  158MOL0     H21295   6.692   8.993   2.412 -1.4838  4.3608 -0.3616
  158MOL0     H21296   6.854   8.844   2.530 -2.2344 -0.3847 -1.0238
  158MOL0     H21297   6.933   8.995   2.485 -1.1299 -0.5434 -1.2688
  158MOL0     H21298   6.870   9.071   2.741  2.4773  2.0475 -1.6530
  158MOL0     H21299   6.830   8.891   2.757  0.5336  0.0226 -1.2821
  158MOL0     H21300   7.095   9.004   2.671  0.3128 -0.0583  0.8503
  158MOL0     H21301   7.043   8.834   2.673  0.0410 -0.5518 -0.4543
  158MOL0     H21302   6.976   8.873   2.926 -0.5004 -1.4047 -0.8795
  158MOL0     H21303   7.031   9.030   2.909 -0.7118  0.2842  2.1011
  158MOL0     H21304   7.202   8.878   3.019 -0.4123 -0.0209  0.6908
  158MOL0     H21305   7.233   8.802   2.865  2.3554 -1.0898  3.0565
  158MOL0     H21306   7.284   9.098   2.949  0.6923  1.0239 -1.7520
  158MOL0     H21307   7.326   9.025   2.793 -0.0497 -1.7708 -0.3514
  158MOL0     H21308   7.517   9.031   2.989  1.8848 -1.8423  1.1260
  158MOL0     H21309   7.406   8.937   3.074 -1.9758  0.4097 -1.0262
  158MOL0     H21310   6.462   9.014   2.452 -1.3839 -0.3771 -0.4374
  158MOL0     H21311   6.252   9.131   2.383 -1.0793 -0.3821  0.3604
  158MOL0     H21312   5.949   9.336   2.478  0.0689  0.2385  0.2005
  158MOL0     H21313   5.697   9.371   2.438  0.1022  2.3552  0.0543
  158MOL0     H21314   4.945   7.920   1.562 -0.3028  1.0488  1.7022
  158MOL0     H21315   4.746   7.774   1.589  1.0449 -1.5403 -2.8456
  158MOL0     H21316   4.446   7.596   1.699  1.3387 -0.6533 -0.7611
  158MOL0     H21317   4.230   7.447   1.734  0.8658 -2.1029 -0.5778
  158MOL0     H21318   3.985   7.282   1.436  0.4731  0.7512 -0.4974
  158MOL0     H21319   3.923   7.458   1.438  0.9044  0.5145 -1.0209
  158MOL0     H21320   3.753   7.405   1.567 -0.2013  0.8231  1.4827
  158MOL0     H21321   3.862   7.315   1.676  2.3015 -0.8171 -1.4690
  158MOL0     H21322   3.820   7.100   1.581 -0.0715  1.1852  3.2055
  158MOL0     H21323   3.733   7.184   1.443  4.1099 -0.1640 -1.2043
  158MOL0     H21324   3.543   7.222   1.585 -2.3233 -2.4579  1.0019
  158MOL0     H21325   3.593   7.068   1.641  1.4529 -0.5671  2.6714
  158MOL0     H21326   3.724   7.283   1.983 -1.0206 -1.0985  0.6179
  158MOL0     H21327   4.098   7.517   1.349 -1.2153 -0.0276  1.5536
  158MOL0     H21328   4.409   7.699   1.228  0.5703  0.1025 -0.0613
  158MOL0     H21329   4.247   7.627   1.178 -3.3355  0.2982  1.7422
  158MOL0     H21330   4.251   7.772   1.274  0.0946  0.8962 -1.3521
  159MOL0     O21331   7.510   2.347   4.164  0.1356  0.1868  0.5586
  159MOL0     C21332   7.454   2.388   4.264 -0.1913  0.6900  0.2138
  159MOL0     O21333   7.522   2.413   4.380  0.5317 -0.3320  0.0398
  159MOL0     C21334   7.662   2.419   4.379  0.3674 -0.3441  0.2211
  159MOL0     C21335   7.733   2.495   4.287 -1.1732 -0.0544  0.1585
  159MOL0     C21336   7.870   2.509   4.309  0.4713  0.3766  0.0974
  159MOL0     C21337   7.938   2.448   4.415  0.4048 -1.1767  0.1356
  159MOL0     O21338   8.074   2.465   4.433 -0.3808 -0.0826  0.1042
  159MOL0     C21339   8.143   2.392   4.333 -0.3859 -0.3895  0.2705
  159MOL0     C21340   8.175   2.248   4.388 -0.4242 -0.2481 -0.2434
  159MOL0     C21341   8.235   2.172   4.279 -0.9853 -0.2752  0.3517
  159MOL0     C21342   8.271   2.024   4.306  0.2946 -1.1595 -0.0678
  159MOL0     C21343   8.338   1.955   4.171 -0.1679 -0.2351  0.0501
  159MOL0     C21344   8.429   1.842   4.201 -0.0594 -0.0578 -0.7224
  159MOL0     C21345   8.587   1.859   4.204 -0.3359 -0.6913  0.1956
  159MOL0     C21346   8.650   1.727   4.207 -0.2630  0.6640 -0.8186
  159MOL0     N21347   8.792   1.749   4.222 -0.2912  0.0779 -0.1617
  159MOL0     C21348   8.870   1.810   4.132 -0.1789 -0.2597 -0.0530
  159MOL0     C21349   8.993   1.794   4.189  0.5941 -0.5527  0.8155
  159MOL0     C21350   9.110   1.878   4.152 -0.1302 -0.2642 -0.3840
  159MOL0     C21351   9.162   1.945   4.275 -0.2573 -0.5686  0.5162
  159MOL0     C21352   9.291   2.008   4.262  0.2708 -0.0085  0.3204
  159MOL0     C21353   9.408   1.914   4.258  0.1348 -0.3523  0.8042
  159MOL0     O21354   9.521   1.994   4.283 -0.4152  0.3374  0.3734
  159MOL0     C21355   9.647   1.947   4.256  0.3060 -0.7392  0.1997
  159MOL0     C21356   9.747   2.045   4.270 -0.5120 -0.3019 -0.7875
  159MOL0     C21357   9.878   2.008   4.267  0.2726 -0.4977  0.5938
  159MOL0     C21358   9.918   1.870   4.237  0.3109 -0.2617  1.0208
  159MOL0     C21359  10.060   1.829   4.216 -0.1821 -0.9303  0.5523
  159MOL0     O21360  10.146   1.929   4.225 -0.5021 -0.3110 -0.6222
  159MOL0     C21361  10.255   1.930   4.133  0.4632  0.9852  0.6912
  159MOL0     C21362  10.381   1.990   4.161  0.6274 -0.6532 -0.0387
  159MOL0     C21363  10.474   2.021   4.061 -1.5149 -0.8500  0.5962
  159MOL0     C21364  10.451   1.972   3.929 -0.3752 -0.9861  0.1802
  159MOL0     O21365  10.534   2.007   3.824 -0.6513 -1.4276 -0.2782
  159MOL0     C21366  10.642   2.111   3.849  0.8090 -0.5361  0.8629
  159MOL0     C21367  10.743   2.120   3.735  0.1158  0.3566  0.0054
  159MOL0     C21368  10.874   2.182   3.777 -0.2610 -0.8735  0.1991
  159MOL0     C21369  10.938   2.113   3.908 -0.2456  0.2710  0.1437
  159MOL0     C21370  11.086   2.137   3.918 -0.0153 -1.1666  0.8810
  159MOL0     C21371  11.167   2.023   3.849 -0.1994 -0.7173 -0.3179
  159MOL0     C21372  11.316   2.063   3.833  0.0974 -0.3328  0.5539
  159MOL0     C21373  11.335   2.194   3.763  0.8434  0.4263 -0.4122
  159MOL0    Cl21374  11.474   2.204   3.657 -0.3703  0.2803 -0.2289
  159MOL0     C21375  10.325   1.910   3.901 -0.3735 -0.0834 -0.0442
  159MOL0     C21376  10.229   1.888   3.994 -0.1202 -0.2346 -0.2873
  159MOL0     O21377  10.093   1.714   4.189 -0.0366 -0.0218  0.6713
  159MOL0     C21378   9.812   1.784   4.195 -0.1269 -0.2793  0.5704
  159MOL0     C21379   9.677   1.821   4.214  0.1792  0.4134 -0.0263
  159MOL0     N21380   8.989   1.720   4.309  0.3252  0.4525  0.2361
  159MOL0     N21381   8.861   1.682   4.313 -0.5351  0.2251 -0.3364
  159MOL0     C21382   7.866   2.370   4.499 -0.2073 -0.0117  0.2119
  159MOL0     C21383   7.727   2.356   4.490 -0.0197 -0.3707 -0.0994
  159MOL0     C21384   7.307   2.377   4.274  0.7330 -0.6757  0.6177
  159MOL0     C21385   7.247   2.368   4.403 -0.4682  0.1263  0.1099
  159MOL0     C21386   7.106   2.370   4.420 -0.3253  0.2928 -0.4095
  159MOL0     C21387   7.024   2.389   4.307 -0.0718 -0.1846 -0.2204
  159MOL0     O21388   6.892   2.416   4.345 -0.3423  0.3318 -0.0052
  159MOL0     C21389   6.798   2.412   4.239 -1.0978 -0.2408  0.0865
  159MOL0     C21390   6.657   2.430   4.298  0.0121  0.0046  0.0640
  159MOL0     C21391   6.625   2.334   4.410 -0.0858 -0.6058  0.7056
  159MOL0     C21392   6.609   2.188   4.377  0.9676 -0.1525  0.0453
  159MOL0     C21393   6.491   2.155   4.294 -0.2526  0.4668 -0.1389
  159MOL0     C21394   6.393   2.141   4.218 -0.7204  0.2976  0.6557
  159MOL0     C21395   7.082   2.399   4.180 -0.7038 -0.1056 -0.5108
  159MOL0     C21396   7.220   2.391   4.158  0.1262  1.1193 -0.0534
  159MOL0     C21397   7.259   2.398   4.008 -0.2722 -0.0351  0.4728
  159MOL0     H21398   7.681   2.532   4.199  1.3973 -0.7652 -1.7934
  159MOL0     H21399   7.934   2.571   4.247  2.9059  0.8685  2.8824
  159MOL0     H21400   8.085   2.381   4.241  2.2373 -2.4376 -1.2979
  159MOL0     H21401   8.236   2.445   4.310 -1.0999 -0.2116 -2.7034
  159MOL0     H21402   8.076   2.211   4.416 -0.6068 -2.0911 -2.9517
  159MOL0     H21403   8.247   2.256   4.470 -1.8009  1.2798  0.8708
  159MOL0     H21404   8.330   2.211   4.242 -1.6457 -0.7886 -2.0569
  159MOL0     H21405   8.168   2.171   4.193 -1.7983  2.6270  0.8445
  159MOL0     H21406   8.344   2.020   4.387 -1.9670 -2.4843  2.0469
  159MOL0     H21407   8.179   1.977   4.344 -1.1721  0.5905 -1.2611
  159MOL0     H21408   8.255   1.910   4.116  0.6419 -1.2387 -0.3706
  159MOL0     H21409   8.378   2.032   4.104 -2.0118 -1.9186 -3.2074
  159MOL0     H21410   8.397   1.807   4.300 -0.2684  0.3782 -0.6341
  159MOL0     H21411   8.406   1.766   4.126 -2.4350  0.8959 -1.0474
  159MOL0     H21412   8.611   1.905   4.301 -0.5526 -2.6733  1.2326
  159MOL0     H21413   8.627   1.914   4.119  2.5810 -0.8863  1.3237
  159MOL0     H21414   8.604   1.677   4.292  1.8288  0.9932  0.5794
  159MOL0     H21415   8.635   1.669   4.116  1.3562 -2.5430  0.8025
  159MOL0     H21416   8.839   1.868   4.045 -1.5924 -0.7683  0.0765
  159MOL0     H21417   9.185   1.820   4.098 -0.5072 -1.5072  0.4016
  159MOL0     H21418   9.082   1.960   4.085  1.7799 -1.1409 -2.3632
  159MOL0     H21419   9.088   2.019   4.304 -0.1934  1.7375 -4.2869
  159MOL0     H21420   9.173   1.877   4.361  0.5558 -2.3055 -0.8884
  159MOL0     H21421   9.302   2.081   4.343  0.2941 -0.1247  0.4224
  159MOL0     H21422   9.296   2.064   4.169  2.3792  1.3652  1.1787
  159MOL0     H21423   9.420   1.865   4.160 -0.9342  2.1976 -0.6817
  159MOL0     H21424   9.388   1.838   4.334 -1.3128 -1.9689 -1.0885
  159MOL0     H21425   9.730   2.152   4.278  2.9014  0.3704 -0.7854
  159MOL0     H21426   9.958   2.080   4.264 -0.0276 -0.1995 -0.8125
  159MOL0     H21427  10.399   2.043   4.254 -1.4560  4.2242 -2.0334
  159MOL0     H21428  10.564   2.075   4.090 -0.1503 -2.2129 -0.9258
  159MOL0     H21429  10.602   2.208   3.879  2.3910  0.4454 -0.0765
  159MOL0     H21430  10.704   2.079   3.933 -1.3192 -2.1856  1.9149
  159MOL0     H21431  10.773   2.020   3.704  0.3406  1.0781 -2.2375
  159MOL0     H21432  10.706   2.168   3.644  0.6216 -3.0620 -2.1938
  159MOL0     H21433  10.946   2.187   3.695  2.8541  0.8858  2.8082
  159MOL0     H21434  10.858   2.289   3.794 -0.7588 -0.7251 -1.0502
  159MOL0     H21435  10.922   2.005   3.906  4.7154 -0.7257 -0.6139
  159MOL0     H21436  10.895   2.155   3.999 -0.9371 -1.3050  0.5783
  159MOL0     H21437  11.120   2.139   4.022  0.2961  3.4355  0.9049
  159MOL0     H21438  11.106   2.231   3.865  1.7347 -2.6493 -1.2866
  159MOL0     H21439  11.163   1.933   3.911 -1.3150  0.7351  1.8571
  159MOL0     H21440  11.128   1.999   3.750  0.1688 -1.8078 -0.2089
  159MOL0     H21441  11.367   1.985   3.776  2.4321  0.2953  1.6726
  159MOL0     H21442  11.367   2.076   3.929 -0.5382  1.0053  0.7285
  159MOL0     H21443  11.243   2.211   3.706  0.2777  1.6367  0.8174
  159MOL0     H21444  11.356   2.274   3.834  0.3122  0.5991 -0.4466
  159MOL0     H21445  10.308   1.882   3.798 -1.8221  0.9217 -0.1054
  159MOL0     H21446  10.132   1.855   3.958  0.6008 -2.0323 -0.7036
  159MOL0     H21447   9.830   1.680   4.169 -2.3485 -1.2428  2.5162
  159MOL0     H21448   9.598   1.747   4.207 -1.1783  1.7281  0.7563
  159MOL0     H21449   7.926   2.331   4.580  0.1803 -0.5223 -0.3048
  159MOL0     H21450   7.669   2.311   4.571 -0.8717  1.9843  0.6719
  159MOL0     H21451   7.317   2.351   4.484  2.1817 -0.5591 -2.1812
  159MOL0     H21452   7.063   2.362   4.519  0.0662  1.0979 -0.1719
  159MOL0     H21453   6.808   2.321   4.178  1.0872  1.4236 -2.2151
  159MOL0     H21454   6.802   2.500   4.176 -0.8471 -0.7726 -0.6525
  159MOL0     H21455   6.583   2.407   4.221 -2.7005  1.2018  2.1859
  159MOL0     H21456   6.641   2.532   4.334  1.2137  0.7492 -1.3645
  159MOL0     H21457   6.530   2.372   4.450 -0.5961 -1.4879  0.3686
  159MOL0     H21458   6.702   2.332   4.488 -0.7163 -3.1506  1.3406
  159MOL0     H21459   6.706   2.159   4.335  0.9675  2.6234 -2.1947
  159MOL0     H21460   6.591   2.135   4.471  1.2586 -0.8492 -0.2805
  159MOL0     H21461   6.312   2.128   4.149  1.0710  2.2438 -2.0509
  159MOL0     H21462   7.011   2.418   4.100 -0.7860  1.6390 -0.0563
  159MOL0     H21463   7.356   2.448   4.013  1.1450 -2.3132 -1.7346
  159MOL0     H21464   7.265   2.300   3.958 -1.9837  0.8401 -1.6065
  159MOL0     H21465   7.193   2.464   3.951  0.9204  0.7431 -0.0633
  160MOL0     O21466   9.220   0.426   1.141  0.1742  0.0521  0.3696
  160MOL0     C21467   9.164   0.536   1.129  0.5168  0.6058  0.6069
  160MOL0     O21468   9.212   0.662   1.126 -0.1572 -0.0372  0.4701
  160MOL0     C21469   9.342   0.676   1.163  0.0287 -0.1164 -0.0595
  160MOL0     C21470   9.389   0.635   1.294 -0.4206 -0.6170 -0.5680
  160MOL0     C21471   9.525   0.666   1.323  0.2481 -0.3937 -0.6925
  160MOL0     C21472   9.604   0.738   1.241  0.1303  0.5357 -0.1325
  160MOL0     O21473   9.735   0.763   1.288 -0.2009  0.4381 -0.6897
  160MOL0     C21474   9.834   0.762   1.183 -1.0386 -0.5056  0.2071
  160MOL0     C21475   9.980   0.782   1.225 -0.3030  0.6606  0.5259
  160MOL0     C21476  10.041   0.651   1.285  0.5016  0.0614  0.1814
  160MOL0     C21477  10.175   0.673   1.347  0.9035 -0.5506  0.1920
  160MOL0     C21478  10.240   0.541   1.384 -0.4271  0.8245  0.9706
  160MOL0     C21479  10.368   0.557   1.472  0.6155  0.7922  0.5929
  160MOL0     C21480  10.469   0.451   1.419 -0.5298 -0.0224 -0.7587
  160MOL0     C21481  10.564   0.416   1.534 -0.3272 -0.6090 -0.5520
  160MOL0     N21482  10.701   0.379   1.493  0.5100 -0.7787 -0.2669
  160MOL0     C21483  10.764   0.263   1.534  0.8555  0.2324 -0.4352
  160MOL0     C21484  10.885   0.273   1.486  1.0504  0.0553  0.2791
  160MOL0     C21485  10.983   0.164   1.459  0.3585  0.2771 -0.1051
  160MOL0     C21486  11.116   0.218   1.443 -0.5424  0.6801 -0.1088
  160MOL0     C21487  11.224   0.118   1.431  0.4727 -0.2701  0.0475
  160MOL0     C21488  11.357   0.180   1.423 -1.1681 -1.0590  0.4537
  160MOL0     O21489  11.394   0.225   1.556 -0.6776  0.3209 -0.2940
  160MOL0     C21490  11.479   0.336   1.580  1.8762 -0.4084  0.3760
  160MOL0     C21491  11.566   0.392   1.494 -0.5154 -0.5683  0.0782
  160MOL0     C21492  11.642   0.509   1.522  1.9370 -0.0608  0.1434
  160MOL0     C21493  11.632   0.571   1.645 -0.9710  0.3253 -0.5183
  160MOL0     C21494  11.704   0.702   1.679  0.4904  0.5178  0.2626
  160MOL0     O21495  11.773   0.762   1.574  1.2283 -0.3850 -0.5649
  160MOL0     C21496  11.846   0.882   1.585  0.0833 -0.2852 -0.0592
  160MOL0     C21497  11.963   0.878   1.512  0.4136 -0.1097  0.5968
  160MOL0     C21498  12.058   0.971   1.547  0.7961  0.3737  0.1075
  160MOL0     C21499  12.042   1.072   1.645 -0.1090  0.1105  0.1405
  160MOL0     O21500  12.116   1.178   1.692 -0.0431  0.3698  0.5821
  160MOL0     C21501  12.254   1.160   1.666 -1.2839 -0.0726  0.7233
  160MOL0     C21502  12.322   1.298   1.658  0.6732  0.1195 -0.5456
  160MOL0     C21503  12.408   1.325   1.540 -0.1969 -0.3394 -0.2143
  160MOL0     C21504  12.481   1.462   1.544  0.0646  0.1221  0.0272
  160MOL0     C21505  12.566   1.491   1.419  1.0870 -0.2114 -0.2413
  160MOL0     C21506  12.490   1.468   1.292  0.0484 -0.8929  0.7896
  160MOL0     C21507  12.554   1.518   1.157 -0.3538  0.9038 -0.0669
  160MOL0     C21508  12.462   1.485   1.038 -0.4976 -1.5565 -0.5000
  160MOL0    Cl21509  12.522   1.563   0.884 -0.0945  0.5816 -0.1182
  160MOL0     C21510  11.911   1.079   1.697  0.3437  1.1305 -0.1233
  160MOL0     C21511  11.819   0.981   1.669  0.2179  0.2002 -0.0882
  160MOL0     O21512  11.711   0.731   1.796  0.3385 -0.4040  0.3796
  160MOL0     C21513  11.553   0.507   1.742 -1.2366  0.7011  0.2027
  160MOL0     C21514  11.478   0.390   1.707  0.4951  0.1768 -0.2614
  160MOL0     N21515  10.899   0.395   1.422  0.7488  1.1158  0.1618
  160MOL0     N21516  10.789   0.455   1.420 -0.3375 -0.1529 -0.1141
  160MOL0     C21517   9.549   0.789   1.129  0.1067  0.3476 -0.6418
  160MOL0     C21518   9.423   0.755   1.090  0.2655  0.0244  0.9068
  160MOL0     C21519   9.012   0.526   1.116 -0.1794  0.9620  0.1151
  160MOL0     C21520   8.929   0.585   1.206 -0.4971  0.2915  0.0358
  160MOL0     C21521   8.791   0.598   1.184 -0.7478  0.5812 -0.7263
  160MOL0     C21522   8.726   0.548   1.071  0.0817 -0.0525 -0.5730
  160MOL0     O21523   8.586   0.556   1.070 -0.1174  0.2133  0.8261
  160MOL0     C21524   8.540   0.542   0.936 -0.1048 -0.5199  0.9700
  160MOL0     C21525   8.574   0.663   0.859  0.1680 -1.1612 -0.1259
  160MOL0     C21526   8.552   0.792   0.944  0.5063 -0.4196  0.1105
  160MOL0     C21527   8.492   0.914   0.860  0.3185 -0.0315  0.0118
  160MOL0     C21528   8.595   0.937   0.758  0.1907  0.0216  0.1221
  160MOL0     C21529   8.680   0.966   0.679 -0.9018 -0.5219 -0.5122
  160MOL0     C21530   8.807   0.485   0.976 -0.0248  0.0762  0.0792
  160MOL0     C21531   8.949   0.468   0.999 -0.0232  0.4392  0.4161
  160MOL0     C21532   9.039   0.389   0.912 -0.7065 -0.1042  0.9032
  160MOL0     H21533   9.334   0.577   1.368 -0.9946  3.9619  3.1199
  160MOL0     H21534   9.564   0.645   1.423 -2.7268  0.3001  0.7242
  160MOL0     H21535   9.823   0.670   1.126 -2.2362 -0.6264  0.6087
  160MOL0     H21536   9.813   0.845   1.114 -3.0381 -0.5256  0.7130
  160MOL0     H21537   9.970   0.843   1.315 -0.0200 -1.4597  2.0636
  160MOL0     H21538  10.038   0.827   1.143 -1.0840 -1.6342 -1.3768
  160MOL0     H21539  10.072   0.581   1.207  2.7055  1.8112 -0.6339
  160MOL0     H21540   9.980   0.598   1.359  1.3417  1.0554  1.6526
  160MOL0     H21541  10.247   0.721   1.280  0.5992 -1.3272 -0.7153
  160MOL0     H21542  10.162   0.730   1.440  3.6957  1.1753 -0.3432
  160MOL0     H21543  10.174   0.478   1.443  0.1764 -2.0497 -1.2040
  160MOL0     H21544  10.269   0.475   1.302 -0.0758 -2.7392  3.7573
  160MOL0     H21545  10.410   0.656   1.452 -3.4370  2.4506 -0.8497
  160MOL0     H21546  10.342   0.538   1.577 -1.9133 -0.1452 -0.1453
  160MOL0     H21547  10.527   0.482   1.332  1.3316 -0.8684  0.1190
  160MOL0     H21548  10.421   0.355   1.397 -1.2477  0.4317 -1.2104
  160MOL0     H21549  10.578   0.499   1.605 -1.3323 -0.9957  0.1224
  160MOL0     H21550  10.516   0.335   1.591 -1.4567  0.4323  0.0425
  160MOL0     H21551  10.709   0.185   1.584  1.5987  1.9247  3.3728
  160MOL0     H21552  10.989   0.098   1.546 -0.8304 -4.1308 -3.0745
  160MOL0     H21553  10.957   0.111   1.367  0.2381  1.1572 -0.5972
  160MOL0     H21554  11.125   0.268   1.346  0.7187  1.5232  0.4197
  160MOL0     H21555  11.148   0.290   1.518 -2.5779  0.3438  1.1717
  160MOL0     H21556  11.217   0.053   1.343  0.9573  2.1227 -1.8671
  160MOL0     H21557  11.227   0.057   1.521 -1.2191  2.1146  1.8326
  160MOL0     H21558  11.351   0.262   1.351 -1.1754 -2.0776 -0.7390
  160MOL0     H21559  11.432   0.103   1.400 -0.3398 -0.2676  0.4570
  160MOL0     H21560  11.597   0.339   1.404 -2.4755 -1.0496 -0.3563
  160MOL0     H21561  11.708   0.545   1.444 -1.1078  1.9441 -1.7353
  160MOL0     H21562  11.967   0.790   1.449 -2.3487 -0.6527  1.0532
  160MOL0     H21563  12.149   0.958   1.488 -1.3993 -0.4172 -3.4028
  160MOL0     H21564  12.304   1.095   1.739 -1.4897  0.9982  1.8375
  160MOL0     H21565  12.271   1.126   1.563 -3.9590 -1.8618  0.7836
  160MOL0     H21566  12.242   1.372   1.662 -1.9946 -2.5526 -0.9747
  160MOL0     H21567  12.388   1.310   1.745 -1.5764 -1.7373  1.5861
  160MOL0     H21568  12.479   1.242   1.527 -1.7739 -1.6423 -0.9009
  160MOL0     H21569  12.333   1.327   1.461 -1.6836 -0.0680  1.1656
  160MOL0     H21570  12.550   1.470   1.628 -1.6482  2.5924  1.3458
  160MOL0     H21571  12.408   1.540   1.570 -1.4926 -1.9907  2.4685
  160MOL0     H21572  12.661   1.438   1.423  1.5700  0.7152  1.4721
  160MOL0     H21573  12.591   1.597   1.429 -2.5197  0.6994  0.8593
  160MOL0     H21574  12.482   1.360   1.276  3.9782 -1.0734 -1.3546
  160MOL0     H21575  12.388   1.506   1.299 -1.2804 -4.2249  1.7516
  160MOL0     H21576  12.657   1.490   1.135 -0.4321  0.7778 -0.2755
  160MOL0     H21577  12.563   1.627   1.165  3.0709  0.6283  1.8287
  160MOL0     H21578  12.445   1.377   1.039 -2.1335 -1.3347  1.1827
  160MOL0     H21579  12.363   1.529   1.050 -0.2400 -0.2078 -2.7580
  160MOL0     H21580  11.877   1.164   1.756 -2.4499  0.1659 -0.1614
  160MOL0     H21581  11.719   0.978   1.712  1.2822  0.3841  2.6047
  160MOL0     H21582  11.557   0.538   1.845  1.9455  2.1751 -0.2441
  160MOL0     H21583  11.402   0.347   1.772  1.2015 -1.0409 -0.2169
  160MOL0     H21584   9.606   0.843   1.055  0.3710  0.2476 -0.5097
  160MOL0     H21585   9.396   0.784   0.989  1.7470 -1.3152  0.0882
  160MOL0     H21586   8.963   0.636   1.295 -3.4819  1.5952  0.5511
  160MOL0     H21587   8.733   0.657   1.253  1.4008  2.4691 -0.4232
  160MOL0     H21588   8.432   0.524   0.934  0.1496 -2.1633  0.4109
  160MOL0     H21589   8.567   0.450   0.882 -0.1482  0.1307 -0.1852
  160MOL0     H21590   8.516   0.663   0.766  0.5783 -0.2432 -0.3947
  160MOL0     H21591   8.682   0.654   0.844  0.4555 -2.2785  2.1568
  160MOL0     H21592   8.647   0.826   0.986  0.1711 -1.2045  1.5789
  160MOL0     H21593   8.475   0.774   1.019 -1.4551  0.1680 -1.6714
  160MOL0     H21594   8.398   0.899   0.805 -0.8229  1.0445  1.5787
  160MOL0     H21595   8.479   1.003   0.922 -1.1635  1.7440 -2.6211
  160MOL0     H21596   8.756   0.990   0.608 -0.6367 -0.1217 -0.1007
  160MOL0     H21597   8.761   0.454   0.882  0.4445 -0.7488  0.1095
  160MOL0     H21598   8.996   0.404   0.812 -1.2784  0.3633  1.2201
  160MOL0     H21599   9.142   0.425   0.902 -1.0441  1.1477  1.7050
  160MOL0     H21600   9.034   0.282   0.935  0.4196 -0.1919  0.8178
  161MOL0     O21601  11.148   3.580   3.850  0.0663 -0.2464  0.5507
  161MOL0     C21602  11.147   3.659   3.754 -0.9662  0.8700 -0.5299
  161MOL0     O21603  11.260   3.700   3.696  0.3239 -0.0158  0.5261
  161MOL0     C21604  11.388   3.675   3.743 -0.6232 -0.0241  0.1451
  161MOL0     C21605  11.455   3.564   3.706  0.6477  0.8453  1.4945
  161MOL0     C21606  11.579   3.533   3.750 -0.0352 -0.7140  0.2501
  161MOL0     C21607  11.650   3.626   3.832 -0.0095 -0.5025  0.2505
  161MOL0     O21608  11.785   3.611   3.857 -0.3184 -0.0710  0.1020
  161MOL0     C21609  11.847   3.484   3.845  0.1353  0.3834  0.2870
  161MOL0     C21610  11.990   3.487   3.899  0.7663  0.5941  0.2179
  161MOL0     C21611  12.076   3.574   3.805  0.4491 -0.2922 -0.7534
  161MOL0     C21612  12.219   3.519   3.791 -0.7060 -0.2833 -0.6934
  161MOL0     C21613  12.305   3.556   3.914 -0.3045  0.1316  0.2810
  161MOL0     C21614  12.449   3.499   3.895 -0.7943  0.3313  0.6904
  161MOL0     C21615  12.516   3.499   4.028  0.7155 -0.1069 -0.6413
  161MOL0     C21616  12.642   3.411   4.042  0.9315  1.1806  0.4223
  161MOL0     N21617  12.746   3.449   3.947  0.0478  0.7525  0.2117
  161MOL0     C21618  12.785   3.579   3.934  0.0005 -0.1872 -0.0381
  161MOL0     C21619  12.855   3.579   3.822 -0.6014 -0.7644 -0.2314
  161MOL0     C21620  12.921   3.688   3.749 -0.4719 -0.7892 -0.2000
  161MOL0     C21621  12.834   3.734   3.627  0.5034  0.2702 -0.0104
  161MOL0     C21622  12.690   3.756   3.664  1.2981  0.3345  0.3226
  161MOL0     C21623  12.607   3.852   3.576 -0.0484  0.0449  0.4092
  161MOL0     O21624  12.468   3.822   3.603  0.3066 -0.8836 -0.0658
  161MOL0     C21625  12.396   3.828   3.487  0.1493 -0.3818 -0.2639
  161MOL0     C21626  12.380   3.947   3.412 -1.0269 -0.3387  0.6019
  161MOL0     C21627  12.312   3.951   3.290 -0.6774  0.0336  0.2653
  161MOL0     C21628  12.255   3.828   3.248 -0.0967 -0.1061  0.1524
  161MOL0     C21629  12.186   3.815   3.114 -0.0464  1.3987  0.7485
  161MOL0     O21630  12.198   3.917   3.037 -0.1960 -0.2996  0.5147
  161MOL0     C21631  12.132   3.934   2.911 -0.1806 -0.0072  0.5176
  161MOL0     C21632  12.107   4.069   2.863 -1.3669 -0.3273 -0.0523
  161MOL0     C21633  12.043   4.096   2.742  0.3463 -0.1301  0.2236
  161MOL0     C21634  12.013   3.989   2.654  0.4111  0.3444  0.0466
  161MOL0     O21635  11.961   4.014   2.534 -0.2173 -0.8195 -0.2265
  161MOL0     C21636  12.018   4.124   2.459 -0.1044  0.2327  0.8039
  161MOL0     C21637  12.033   4.062   2.313  1.2686 -0.7006  0.5254
  161MOL0     C21638  12.127   4.149   2.224 -0.2420 -0.1255 -0.2068
  161MOL0     C21639  12.161   4.091   2.083  1.4939  0.6817 -0.1824
  161MOL0     C21640  12.216   4.200   1.988 -0.0062  0.3784 -0.9487
  161MOL0     C21641  12.253   4.154   1.854 -0.4634 -0.5452  0.1068
  161MOL0     C21642  12.307   4.262   1.753 -0.3189 -0.0608 -0.0957
  161MOL0     C21643  12.195   4.363   1.727  0.2777 -0.0553 -0.3442
  161MOL0    Cl21644  12.054   4.273   1.629  0.0286  0.2973 -0.1083
  161MOL0     C21645  12.041   3.858   2.691  0.0568 -1.3065  0.7109
  161MOL0     C21646  12.100   3.833   2.813 -0.0562  0.0070 -1.9009
  161MOL0     O21647  12.136   3.707   3.088  1.0387 -0.1872  0.5106
  161MOL0     C21648  12.266   3.706   3.327 -0.3470  0.6123 -0.7038
  161MOL0     C21649  12.335   3.712   3.450 -0.5515  0.2783  0.7534
  161MOL0     N21650  12.874   3.447   3.783 -0.5391  0.2533  0.4936
  161MOL0     N21651  12.800   3.378   3.849 -0.9855  0.1460 -0.3661
  161MOL0     C21652  11.590   3.752   3.857  0.3836  0.3338  0.2263
  161MOL0     C21653  11.459   3.775   3.807 -0.2355 -0.9158  0.0028
  161MOL0     C21654  11.016   3.706   3.699  0.1808  0.1804  0.0729
  161MOL0     C21655  11.021   3.813   3.602 -1.3141  0.6787  0.7273
  161MOL0     C21656  10.906   3.863   3.540  0.6999  0.2046 -0.9446
  161MOL0     C21657  10.783   3.814   3.580  0.9363  0.0658  0.6459
  161MOL0     O21658  10.679   3.858   3.494  0.1054  0.0046  0.5057
  161MOL0     C21659  10.550   3.812   3.517  0.9674 -1.2923  0.1847
  161MOL0     C21660  10.456   3.876   3.416  0.6469  0.0181  0.6209
  161MOL0     C21661  10.485   3.849   3.264 -0.6238  0.8235 -0.1253
  161MOL0     C21662  10.402   3.720   3.232  0.2277 -0.0806 -0.0444
  161MOL0     C21663  10.415   3.691   3.093 -0.2634 -0.3756 -0.1094
  161MOL0     C21664  10.422   3.665   2.976 -0.1441 -0.4212 -0.4903
  161MOL0     C21665  10.775   3.715   3.676  0.2463 -0.1489 -0.1493
  161MOL0     C21666  10.887   3.655   3.734  0.0617 -1.1808  0.4367
  161MOL0     C21667  10.869   3.530   3.829 -0.0108 -1.0915 -0.7634
  161MOL0     H21668  11.413   3.484   3.646 -0.3602  1.6706  1.0678
  161MOL0     H21669  11.618   3.433   3.737  0.4332 -0.6885  1.3117
  161MOL0     H21670  11.783   3.416   3.903 -0.2099  1.0762  0.7208
  161MOL0     H21671  11.834   3.446   3.743 -0.9330  2.5044 -0.4114
  161MOL0     H21672  12.025   3.385   3.884  2.1767  0.9787  0.7309
  161MOL0     H21673  11.996   3.503   4.007  1.7623  0.4597  0.1888
  161MOL0     H21674  12.085   3.677   3.840  0.6843  0.4513 -2.8466
  161MOL0     H21675  12.038   3.564   3.702  0.1187  0.3077 -0.6938
  161MOL0     H21676  12.217   3.410   3.783 -2.8474 -0.3014 -0.4192
  161MOL0     H21677  12.269   3.562   3.704 -0.0622 -1.6450 -1.0202
  161MOL0     H21678  12.310   3.665   3.924  1.7372 -0.1385  3.5230
  161MOL0     H21679  12.251   3.519   4.001 -0.6731 -1.3984 -0.5659
  161MOL0     H21680  12.436   3.400   3.849 -0.5871  1.6165 -2.3866
  161MOL0     H21681  12.513   3.555   3.826  0.2030  1.6601  2.6243
  161MOL0     H21682  12.440   3.462   4.098  3.9005 -1.6530  2.3046
  161MOL0     H21683  12.537   3.600   4.064 -0.2590  0.2128 -0.9402
  161MOL0     H21684  12.673   3.403   4.146 -3.0359  1.8655  1.8568
  161MOL0     H21685  12.603   3.313   4.013  2.4110 -0.3867  3.2718
  161MOL0     H21686  12.758   3.663   3.997 -2.2048 -0.0322 -1.0988
  161MOL0     H21687  12.936   3.772   3.817 -0.6725  1.5896 -2.9061
  161MOL0     H21688  13.022   3.666   3.713 -0.4204  0.0711 -0.6051
  161MOL0     H21689  12.871   3.833   3.597  1.6349  0.9498  3.1595
  161MOL0     H21690  12.843   3.651   3.557  1.6044 -0.3742  0.8552
  161MOL0     H21691  12.699   3.800   3.764 -0.9365 -0.5633  0.9858
  161MOL0     H21692  12.652   3.654   3.673  0.5675  0.5251 -0.5056
  161MOL0     H21693  12.637   3.865   3.471 -0.3201 -0.1584  0.3048
  161MOL0     H21694  12.637   3.947   3.622  1.0920  1.2574 -2.5501
  161MOL0     H21695  12.439   4.035   3.437  2.2803 -0.7932 -4.2079
  161MOL0     H21696  12.304   4.048   3.242 -2.9172  0.7702  1.9593
  161MOL0     H21697  12.130   4.147   2.936 -2.5600 -1.2773  1.4072
  161MOL0     H21698  12.022   4.202   2.726  0.5897  0.3709  2.8277
  161MOL0     H21699  11.956   4.213   2.452 -1.0834 -0.1684  3.2909
  161MOL0     H21700  12.118   4.160   2.484  1.1515  0.6977 -3.9414
  161MOL0     H21701  12.066   3.958   2.324  0.3708 -1.2410 -1.3838
  161MOL0     H21702  11.937   4.065   2.260 -1.0844 -3.1672  4.1921
  161MOL0     H21703  12.075   4.245   2.212  1.0611  0.8356  1.3850
  161MOL0     H21704  12.222   4.170   2.274  0.0724  0.1277 -0.8867
  161MOL0     H21705  12.072   4.055   2.029 -0.0473  0.1599  2.5256
  161MOL0     H21706  12.224   4.002   2.091  3.4230  1.6311 -3.1293
  161MOL0     H21707  12.306   4.247   2.028 -0.4564  2.0083 -1.7562
  161MOL0     H21708  12.136   4.275   1.980 -1.5900 -1.4720 -4.7754
  161MOL0     H21709  12.332   4.080   1.872 -0.9685 -1.4933 -1.4279
  161MOL0     H21710  12.173   4.097   1.807  0.3935 -1.4069 -0.3372
  161MOL0     H21711  12.327   4.222   1.653  1.8230  4.5756 -1.7861
  161MOL0     H21712  12.401   4.309   1.783  0.8119 -3.0771  1.6005
  161MOL0     H21713  12.170   4.420   1.817  3.6851 -0.0098  0.7267
  161MOL0     H21714  12.238   4.445   1.669  1.0146 -1.4572 -1.8661
  161MOL0     H21715  12.025   3.778   2.620  0.2738  1.3532 -2.5902
  161MOL0     H21716  12.128   3.730   2.836  2.7506  0.6011 -2.3579
  161MOL0     H21717  12.239   3.608   3.288 -0.8140 -0.4278  2.0520
  161MOL0     H21718  12.347   3.628   3.517  3.3339  2.1735  2.7841
  161MOL0     H21719  11.646   3.830   3.908 -0.9499  0.2078  1.9609
  161MOL0     H21720  11.429   3.875   3.838  0.2967 -1.2860  1.8331
  161MOL0     H21721  11.116   3.856   3.572 -1.3241 -0.0201 -0.3611
  161MOL0     H21722  10.904   3.947   3.472 -2.6518  0.0233 -1.2365
  161MOL0     H21723  10.515   3.848   3.614  0.0330 -1.7231  0.0247
  161MOL0     H21724  10.549   3.703   3.510  1.8963 -1.1968 -2.1335
  161MOL0     H21725  10.452   3.983   3.438  0.1053  0.0717  0.2777
  161MOL0     H21726  10.356   3.841   3.444 -0.1862 -0.3058 -2.3766
  161MOL0     H21727  10.590   3.822   3.254 -1.3575 -2.2449 -0.6011
  161MOL0     H21728  10.469   3.932   3.196 -0.1196  0.1661 -1.0627
  161MOL0     H21729  10.429   3.641   3.303  0.2127  1.2576  1.5170
  161MOL0     H21730  10.299   3.751   3.251  0.1174 -1.3227  1.6053
  161MOL0     H21731  10.424   3.681   2.870  3.6253  0.1132 -0.4916
  161MOL0     H21732  10.678   3.669   3.692 -0.6810  1.7166 -0.2318
  161MOL0     H21733  10.928   3.443   3.798  0.8977 -0.1067 -1.9116
  161MOL0     H21734  10.906   3.552   3.929 -1.3239 -1.8726 -0.0876
  161MOL0     H21735  10.764   3.503   3.838 -0.5489  0.6850 -1.2120
  162MOL0     O21736   6.655   8.353   8.746 -0.7334  0.9496 -0.5170
  162MOL0     C21737   6.566   8.272   8.775  0.5002  0.3232  0.2582
  162MOL0     O21738   6.494   8.220   8.676  0.2694  0.2436  0.9695
  162MOL0     C21739   6.491   8.270   8.546  0.9619 -0.8464  0.1175
  162MOL0     C21740   6.368   8.320   8.500  1.1541  0.7134 -0.0236
  162MOL0     C21741   6.361   8.374   8.369  0.0922  0.1065 -0.2073
  162MOL0     C21742   6.474   8.377   8.284 -0.0083 -0.3358  0.8079
  162MOL0     O21743   6.470   8.428   8.153 -0.3641 -0.1039  0.3744
  162MOL0     C21744   6.355   8.472   8.090  0.0376 -0.3861 -0.3807
  162MOL0     C21745   6.388   8.472   7.942 -0.6657 -0.1096 -0.1440
  162MOL0     C21746   6.263   8.482   7.848  0.1350  0.0738  0.0893
  162MOL0     C21747   6.204   8.338   7.835 -0.2025  0.8983  0.5502
  162MOL0     C21748   6.057   8.352   7.787  0.3428 -0.0154 -0.0906
  162MOL0     C21749   5.988   8.219   7.775  0.0225  0.3699  0.1017
  162MOL0     C21750   6.054   8.100   7.694  0.4086  0.5311  0.2603
  162MOL0     C21751   6.102   8.134   7.549 -0.6896  0.0534 -0.0133
  162MOL0     N21752   6.245   8.181   7.536  0.5233  0.4481  0.2766
  162MOL0     C21753   6.272   8.313   7.528 -0.2142 -1.7782 -0.6381
  162MOL0     C21754   6.407   8.322   7.526 -0.4715  0.2064 -0.0817
  162MOL0     C21755   6.495   8.433   7.535  0.4619 -0.2982  0.0368
  162MOL0     C21756   6.503   8.495   7.392  0.1474  0.1653  0.0205
  162MOL0     C21757   6.616   8.600   7.371  0.0592 -0.2442 -0.4484
  162MOL0     C21758   6.753   8.552   7.435  0.0146 -0.2898  0.0301
  162MOL0     O21759   6.797   8.433   7.370 -0.1447 -0.4196 -0.7160
  162MOL0     C21760   6.906   8.373   7.420  0.1356 -0.0018 -0.6639
  162MOL0     C21761   7.033   8.406   7.379 -0.3629 -0.4016 -0.6682
  162MOL0     C21762   7.141   8.347   7.448 -0.5829  0.3474 -0.0121
  162MOL0     C21763   7.125   8.264   7.552 -1.1203  0.1253  0.8904
  162MOL0     C21764   7.241   8.211   7.617 -0.3871  0.3476 -0.2592
  162MOL0     O21765   7.358   8.279   7.600  0.5327 -0.1974 -0.2903
  162MOL0     C21766   7.469   8.230   7.671  0.8630 -0.5511 -0.2287
  162MOL0     C21767   7.517   8.096   7.650  0.3367 -0.6259  0.9623
  162MOL0     C21768   7.633   8.048   7.724 -1.5284 -0.1443 -0.1542
  162MOL0     C21769   7.703   8.145   7.806  0.3621 -0.6295 -0.3777
  162MOL0     O21770   7.815   8.117   7.875  0.2329 -0.2511 -0.0134
  162MOL0     C21771   7.874   8.213   7.962 -0.2389 -0.6512  0.7232
  162MOL0     C21772   8.013   8.171   8.006 -0.3979 -0.4586  0.2666
  162MOL0     C21773   8.104   8.273   8.069 -0.7513 -0.9870 -0.2920
  162MOL0     C21774   8.247   8.224   8.087  0.7416  0.5524 -0.3001
  162MOL0     C21775   8.333   8.319   8.173  0.2036  0.3162  0.2359
  162MOL0     C21776   8.459   8.265   8.218 -0.2900 -0.3466  0.3219
  162MOL0     C21777   8.533   8.360   8.314  0.0636  1.2629  0.0789
  162MOL0     C21778   8.651   8.294   8.384  0.3395 -0.2980  0.6423
  162MOL0    Cl21779   8.608   8.151   8.480  0.3673 -0.2365 -0.0174
  162MOL0     C21780   7.637   8.274   7.825 -0.2592  0.4180 -0.8362
  162MOL0     C21781   7.540   8.322   7.748 -0.0885  0.5314 -0.0491
  162MOL0     O21782   7.231   8.114   7.694  0.8128 -0.0258 -0.2386
  162MOL0     C21783   6.990   8.222   7.584  0.5760  0.4434  0.3309
  162MOL0     C21784   6.877   8.269   7.510 -0.4608 -0.3497  0.6319
  162MOL0     N21785   6.454   8.192   7.526 -0.1444  0.2850 -0.4649
  162MOL0     N21786   6.361   8.109   7.537 -0.3345 -0.0901  0.8888
  162MOL0     C21787   6.599   8.340   8.333 -0.6362 -0.3364 -1.0710
  162MOL0     C21788   6.603   8.279   8.459  0.1390 -0.7481  0.1497
  162MOL0     C21789   6.550   8.232   8.918  0.3463 -0.4931  0.4919
  162MOL0     C21790   6.653   8.252   9.002 -1.3232 -0.8317  1.2743
  162MOL0     C21791   6.646   8.221   9.143  0.0427  0.9661  0.2659
  162MOL0     C21792   6.525   8.157   9.184 -0.9838 -0.4828  0.3893
  162MOL0     O21793   6.498   8.126   9.314  0.4593 -0.7805 -0.1729
  162MOL0     C21794   6.595   8.087   9.405 -0.1233 -0.5400  0.4216
  162MOL0     C21795   6.682   7.982   9.348 -0.7526  1.1000  1.0075
  162MOL0     C21796   6.762   7.912   9.465  0.8374 -0.3632  0.5692
  162MOL0     C21797   6.834   7.790   9.414 -0.9331  0.3660 -0.3514
  162MOL0     C21798   6.942   7.747   9.508 -0.3099  0.8282 -0.2339
  162MOL0     C21799   7.013   7.702   9.601 -0.8383 -0.2107  0.4346
  162MOL0     C21800   6.425   8.130   9.099  1.0316  0.9257 -0.0320
  162MOL0     C21801   6.426   8.172   8.962  0.7836 -0.2833 -0.3228
  162MOL0     C21802   6.303   8.160   8.870  0.2958 -0.0752  0.7410
  162MOL0     H21803   6.276   8.320   8.558 -1.6558  0.2404 -4.1121
  162MOL0     H21804   6.267   8.401   8.322  0.3635 -1.9330 -2.0566
  162MOL0     H21805   6.283   8.390   8.097 -2.5523  1.2669 -4.1215
  162MOL0     H21806   6.312   8.566   8.125 -0.6558 -1.7736  2.8428
  162MOL0     H21807   6.443   8.381   7.913  1.1695  0.8403  0.2290
  162MOL0     H21808   6.452   8.559   7.924 -2.8118  1.5036 -0.4202
  162MOL0     H21809   6.287   8.529   7.753 -0.8873  2.1952  0.8016
  162MOL0     H21810   6.189   8.538   7.906  0.1079 -0.4941  0.6168
  162MOL0     H21811   6.273   8.268   7.788 -1.0556 -0.8710  1.8068
  162MOL0     H21812   6.196   8.293   7.935  1.0846  1.2897  0.8470
  162MOL0     H21813   6.003   8.413   7.860 -0.8429 -0.0553 -0.9095
  162MOL0     H21814   6.049   8.404   7.691 -3.1914  0.5158  0.3805
  162MOL0     H21815   5.974   8.182   7.877  2.2666  1.3436  0.8371
  162MOL0     H21816   5.887   8.225   7.735  0.6829 -0.7421 -1.8865
  162MOL0     H21817   5.990   8.012   7.699  3.2218 -1.5993  3.1741
  162MOL0     H21818   6.146   8.064   7.742  0.9768 -0.0952 -1.2562
  162MOL0     H21819   6.091   8.042   7.492 -1.8159 -1.5145  2.5472
  162MOL0     H21820   6.034   8.202   7.498 -2.2408 -1.1930  0.3243
  162MOL0     H21821   6.203   8.397   7.527 -1.5134 -2.6394  2.7364
  162MOL0     H21822   6.473   8.506   7.613 -1.6052 -1.0707  0.2474
  162MOL0     H21823   6.594   8.395   7.563  0.3991 -0.0559  0.5972
  162MOL0     H21824   6.532   8.418   7.320  4.0026  0.3044  1.1885
  162MOL0     H21825   6.410   8.550   7.377 -0.1206 -0.3756 -0.3441
  162MOL0     H21826   6.588   8.688   7.431  1.3892  1.5104 -2.2650
  162MOL0     H21827   6.632   8.633   7.268  2.3073 -1.2935 -0.5004
  162MOL0     H21828   6.753   8.530   7.542  1.1957 -1.2429 -0.1307
  162MOL0     H21829   6.828   8.632   7.429 -1.5986  1.4642  2.0682
  162MOL0     H21830   7.055   8.488   7.311  3.7802 -1.1241 -0.4636
  162MOL0     H21831   7.241   8.357   7.408 -0.5294 -1.9644 -0.6198
  162MOL0     H21832   7.467   8.020   7.590  1.6256 -2.6955  2.3824
  162MOL0     H21833   7.667   7.947   7.706 -0.2111  0.2507 -0.0330
  162MOL0     H21834   7.889   8.311   7.917  0.3765 -0.9973  0.1611
  162MOL0     H21835   7.817   8.217   8.055  0.2746  1.3007  0.9959
  162MOL0     H21836   7.996   8.090   8.078 -0.2926 -0.6676  0.0584
  162MOL0     H21837   8.062   8.127   7.918  1.1331 -0.4442  1.0721
  162MOL0     H21838   8.108   8.365   8.010 -1.7643  0.4732  1.7678
  162MOL0     H21839   8.061   8.298   8.166  2.0446 -0.3497  0.8855
  162MOL0     H21840   8.294   8.211   7.989  2.0996 -1.1486  0.5299
  162MOL0     H21841   8.237   8.123   8.128 -0.4082  0.3122 -1.1264
  162MOL0     H21842   8.281   8.325   8.269 -1.1144 -2.4381 -0.2316
  162MOL0     H21843   8.342   8.411   8.115  0.7572  0.0068 -0.1830
  162MOL0     H21844   8.432   8.174   8.273 -0.4744 -1.0717 -0.9255
  162MOL0     H21845   8.523   8.233   8.136  0.3560 -0.1710  0.7444
  162MOL0     H21846   8.465   8.397   8.391 -1.4266 -1.6183  0.2846
  162MOL0     H21847   8.564   8.445   8.252  0.6538  1.7434  1.0204
  162MOL0     H21848   8.723   8.269   8.305 -0.2587  0.5095 -0.1748
  162MOL0     H21849   8.694   8.365   8.455  0.4818 -0.0289  0.2939
  162MOL0     H21850   7.671   8.355   7.889  2.4215  1.1427 -3.0114
  162MOL0     H21851   7.503   8.423   7.737  1.3158  0.8725 -2.6306
  162MOL0     H21852   6.970   8.158   7.669  0.5928 -0.2988 -0.2121
  162MOL0     H21853   6.773   8.237   7.503  0.0961 -1.9138 -3.2986
  162MOL0     H21854   6.681   8.336   8.261 -0.7709  1.4877 -1.3920
  162MOL0     H21855   6.698   8.240   8.496  0.5692  0.0078 -0.1281
  162MOL0     H21856   6.742   8.297   8.958 -1.7870 -0.4446  0.7080
  162MOL0     H21857   6.727   8.242   9.213 -1.2946  0.6999  1.9506
  162MOL0     H21858   6.542   8.051   9.493 -3.4063  1.7145 -0.4642
  162MOL0     H21859   6.653   8.175   9.435  2.0799 -1.0823 -1.8537
  162MOL0     H21860   6.749   8.032   9.277  1.4518  0.2514  2.3741
  162MOL0     H21861   6.616   7.913   9.295 -0.3459  3.2219 -2.6274
  162MOL0     H21862   6.697   7.882   9.548  1.1956  0.1795  1.0545
  162MOL0     H21863   6.834   7.986   9.501  0.3464  0.7527 -0.6638
  162MOL0     H21864   6.766   7.704   9.410 -2.0462  1.1385  0.8469
  162MOL0     H21865   6.891   7.815   9.324  2.3791  0.0554  1.5142
  162MOL0     H21866   7.085   7.674   9.676  0.8532 -0.5477 -1.2257
  162MOL0     H21867   6.333   8.096   9.145 -1.0036  2.3775 -2.6684
  162MOL0     H21868   6.284   8.246   8.805  2.3246 -2.9856 -4.1893
  162MOL0     H21869   6.311   8.070   8.809  1.7814 -1.9984  3.5263
  162MOL0     H21870   6.226   8.137   8.944 -0.4003  0.7768  0.2996
  163MOL0     O21871   4.849  11.245   1.218  0.5384 -0.6538 -0.2382
  163MOL0     C21872   4.934  11.154   1.229  1.0403 -0.5616  0.3842
  163MOL0     O21873   5.061  11.165   1.259 -0.2843 -0.1084  0.9682
  163MOL0     C21874   5.115  11.287   1.234  0.9288 -0.1986 -0.6921
  163MOL0     C21875   5.145  11.375   1.343  0.2322 -0.1230  0.0592
  163MOL0     C21876   5.198  11.502   1.321  0.8639  0.4798  0.1714
  163MOL0     C21877   5.253  11.532   1.203  0.5049  0.1596  0.0711
  163MOL0     O21878   5.316  11.657   1.185 -0.7623 -0.2621  0.1413
  163MOL0     C21879   5.443  11.667   1.248  0.5536 -1.0334  0.0984
  163MOL0     C21880   5.542  11.749   1.166 -0.0285 -0.1298  0.5562
  163MOL0     C21881   5.597  11.653   1.056 -0.6126  0.1304  0.8051
  163MOL0     C21882   5.709  11.721   0.972 -0.1185 -0.3568  0.3685
  163MOL0     C21883   5.773  11.650   0.852  1.5711  0.9755  0.8191
  163MOL0     C21884   5.842  11.528   0.899 -0.0769 -0.0098 -0.6115
  163MOL0     C21885   5.944  11.486   0.794  1.0076  0.2827  0.3695
  163MOL0     C21886   6.006  11.359   0.851 -0.1149 -0.1392  0.0246
  163MOL0     N21887   6.142  11.397   0.902 -0.2505  0.3056 -0.5338
  163MOL0     C21888   6.260  11.327   0.876 -0.2209 -0.3459  0.6985
  163MOL0     C21889   6.356  11.411   0.923  0.9159  0.9696 -0.0678
  163MOL0     C21890   6.501  11.395   0.928  0.3131 -0.0508  0.2567
  163MOL0     C21891   6.558  11.255   0.901 -0.0789  0.6261 -1.0853
  163MOL0     C21892   6.703  11.247   0.881  0.1219  0.0050  0.6103
  163MOL0     C21893   6.744  11.138   0.777  0.0989 -0.8215  0.0387
  163MOL0     O21894   6.886  11.161   0.746 -0.1785 -0.5058  0.0204
  163MOL0     C21895   6.980  11.084   0.808 -1.0301 -1.0107  0.6800
  163MOL0     C21896   7.103  11.110   0.766  0.0395 -0.1719 -0.3523
  163MOL0     C21897   7.212  11.033   0.814 -0.1127  1.0895 -0.1373
  163MOL0     C21898   7.201  10.937   0.923  0.3156  0.9989 -0.4797
  163MOL0     C21899   7.328  10.876   0.973  0.0791  0.2017  0.7658
  163MOL0     O21900   7.325  10.808   1.095  0.0432  0.8635 -0.0648
  163MOL0     C21901   7.416  10.708   1.125 -0.6225  0.8628  0.2939
  163MOL0     C21902   7.418  10.675   1.256 -0.2158 -0.1197  0.6958
  163MOL0     C21903   7.491  10.570   1.303 -0.4425  1.2365 -0.4060
  163MOL0     C21904   7.574  10.495   1.216  0.2887  0.4337 -1.0361
  163MOL0     O21905   7.660  10.391   1.247  0.1489 -0.1851 -0.1936
  163MOL0     C21906   7.699  10.377   1.390  0.6290  0.4335 -0.5498
  163MOL0     C21907   7.804  10.483   1.440  0.0353  0.3822 -0.6816
  163MOL0     C21908   7.932  10.474   1.357  0.3796 -0.0228 -0.4597
  163MOL0     C21909   8.027  10.587   1.386 -0.2093 -0.6742 -0.6560
  163MOL0     C21910   8.153  10.593   1.294  0.5521  0.4500  0.0703
  163MOL0     C21911   8.254  10.484   1.307  0.0636  0.1245 -0.5222
  163MOL0     C21912   8.344  10.463   1.183  0.0330  0.2746 -0.2167
  163MOL0     C21913   8.291  10.389   1.055  0.0834  1.0902 -0.2914
  163MOL0    Cl21914   8.210  10.248   1.104  0.0231 -0.5665 -0.2341
  163MOL0     C21915   7.576  10.534   1.084  0.3457  0.0604  0.1330
  163MOL0     C21916   7.493  10.637   1.035  0.8164 -0.5093  0.0325
  163MOL0     O21917   7.422  10.882   0.896  0.3532 -0.1406  0.4411
  163MOL0     C21918   7.069  10.911   0.963 -0.3689  0.2648  0.5868
  163MOL0     C21919   6.965  10.993   0.908 -0.8006  1.1955  0.8058
  163MOL0     N21920   6.288  11.525   0.981 -0.1562  0.2932  0.3627
  163MOL0     N21921   6.163  11.513   0.973  0.4199  0.5266 -0.3396
  163MOL0     C21922   5.236  11.444   1.095  0.0493  0.6123 -0.7382
  163MOL0     C21923   5.158  11.329   1.113 -0.3216  0.9552 -0.0175
  163MOL0     C21924   4.890  11.010   1.222 -0.0051 -0.2593  1.1336
  163MOL0     C21925   4.992  10.927   1.179  0.3010  0.3223  0.0436
  163MOL0     C21926   4.967  10.789   1.163  0.2652  0.9016  0.1572
  163MOL0     C21927   4.838  10.731   1.193  0.1682 -0.6121 -0.4011
  163MOL0     O21928   4.813  10.594   1.163  0.0350  0.2413  0.6513
  163MOL0     C21929   4.686  10.534   1.199 -0.2466  0.4161  0.1853
  163MOL0     C21930   4.681  10.393   1.131  0.5930 -0.1495 -0.0535
  163MOL0     C21931   4.553  10.312   1.152 -0.8045  1.1914 -0.1663
  163MOL0     C21932   4.428  10.356   1.076 -0.8438  0.3236  0.0879
  163MOL0     C21933   4.447  10.329   0.932  0.4188  0.0438 -0.1869
  163MOL0     C21934   4.461  10.304   0.812 -0.9398 -0.4548 -0.3268
  163MOL0     C21935   4.742  10.819   1.244 -0.2253 -0.8014 -0.0479
  163MOL0     C21936   4.766  10.959   1.240  0.5320 -0.0379  0.3329
  163MOL0     C21937   4.636  11.042   1.262 -0.2449  0.3725  0.4438
  163MOL0     H21938   5.100  11.356   1.440 -0.5729 -2.1814 -0.6628
  163MOL0     H21939   5.202  11.587   1.389 -1.5494  1.1134 -0.3738
  163MOL0     H21940   5.427  11.718   1.343  1.2452  2.2639 -1.4000
  163MOL0     H21941   5.486  11.570   1.274  0.7271 -0.2016  3.2759
  163MOL0     H21942   5.618  11.801   1.226 -0.1582  0.1731  0.4585
  163MOL0     H21943   5.486  11.826   1.113 -0.1500 -1.7001 -1.7091
  163MOL0     H21944   5.524  11.619   0.982  0.5964 -0.7566 -0.0391
  163MOL0     H21945   5.648  11.569   1.105 -0.9819 -0.3183  0.4215
  163MOL0     H21946   5.664  11.810   0.928 -0.8917 -0.7802  0.2664
  163MOL0     H21947   5.793  11.757   1.031  1.4802 -1.0495 -1.4104
  163MOL0     H21948   5.698  11.629   0.774  2.2907 -0.1521  0.4056
  163MOL0     H21949   5.852  11.714   0.811  0.8582  0.7889 -0.9317
  163MOL0     H21950   5.889  11.553   0.995  0.1293 -0.0039 -0.7146
  163MOL0     H21951   5.775  11.447   0.931  1.7148 -0.6870  1.8188
  163MOL0     H21952   6.020  11.562   0.771  1.3962 -0.4085 -0.6548
  163MOL0     H21953   5.898  11.470   0.697  1.7799  1.1145 -0.1572
  163MOL0     H21954   5.959  11.321   0.943  0.0262  0.1534  0.2204
  163MOL0     H21955   6.002  11.274   0.783  1.9188 -1.0172  0.9304
  163MOL0     H21956   6.272  11.228   0.831  0.9717  0.3174 -0.5346
  163MOL0     H21957   6.541  11.460   0.849  3.5957 -2.6960 -0.5040
  163MOL0     H21958   6.534  11.436   1.023  2.8784 -3.3045  0.9314
  163MOL0     H21959   6.526  11.210   0.995 -0.8257 -0.1688 -1.7059
  163MOL0     H21960   6.514  11.198   0.819  2.6879 -0.2308 -2.0860
  163MOL0     H21961   6.759  11.240   0.975  1.5185  0.8558 -0.1195
  163MOL0     H21962   6.724  11.343   0.832 -1.5327 -0.7731 -1.7795
  163MOL0     H21963   6.679  11.136   0.689 -1.3812  0.3217  1.0530
  163MOL0     H21964   6.732  11.041   0.827  1.6012  0.1993  2.6159
  163MOL0     H21965   7.117  11.186   0.689  0.0178 -0.6483 -0.8298
  163MOL0     H21966   7.309  11.048   0.767  0.5046 -0.3028  0.6227
  163MOL0     H21967   7.378  10.747   1.326  0.9285  0.5806  0.6482
  163MOL0     H21968   7.485  10.546   1.409  1.5922 -3.4201 -1.0839
  163MOL0     H21969   7.606  10.369   1.448  0.4541  1.3509 -0.6940
  163MOL0     H21970   7.739  10.275   1.396 -1.4328 -0.3759  0.4952
  163MOL0     H21971   7.750  10.578   1.436 -0.0979  0.4041  0.9003
  163MOL0     H21972   7.841  10.464   1.541 -0.9606  0.8668 -0.2036
  163MOL0     H21973   7.990  10.382   1.367  1.4592  0.4324 -2.1176
  163MOL0     H21974   7.900  10.489   1.253 -1.2151  2.4172  0.2908
  163MOL0     H21975   8.054  10.582   1.492  0.6806  0.4847 -0.8059
  163MOL0     H21976   7.971  10.681   1.383  0.1320 -0.2922  2.3156
  163MOL0     H21977   8.203  10.689   1.308 -2.4754  2.0668  0.6730
  163MOL0     H21978   8.109  10.596   1.194  0.8424 -0.8638 -0.1169
  163MOL0     H21979   8.314  10.514   1.393 -0.2450  2.3722 -1.0304
  163MOL0     H21980   8.206  10.390   1.337 -0.1630 -0.0482 -1.3946
  163MOL0     H21981   8.418  10.393   1.223  1.1709  0.8690 -1.2224
  163MOL0     H21982   8.377  10.566   1.167 -1.9353  1.3726  2.2052
  163MOL0     H21983   8.218  10.453   1.004  0.6345  2.2073  0.2745
  163MOL0     H21984   8.381  10.375   0.995  0.4115  0.1884  0.3873
  163MOL0     H21985   7.633  10.473   1.014  0.2474 -2.5345  2.1358
  163MOL0     H21986   7.488  10.670   0.932 -1.0485  0.4393  0.3834
  163MOL0     H21987   7.060  10.826   1.030 -0.2230 -3.0684 -3.2746
  163MOL0     H21988   6.873  10.976   0.962  1.0080 -0.7103  3.5925
  163MOL0     H21989   5.264  11.459   0.991 -3.3314 -0.7866 -2.0076
  163MOL0     H21990   5.152  11.253   1.035  2.4504 -0.5367  1.0645
  163MOL0     H21991   5.091  10.963   1.155  0.4292  0.8761  1.3086
  163MOL0     H21992   5.053  10.731   1.131 -0.0574 -1.7046  3.4145
  163MOL0     H21993   4.600  10.595   1.169 -0.3484  1.1364  1.8342
  163MOL0     H21994   4.685  10.518   1.307 -1.4733 -0.5274  0.0652
  163MOL0     H21995   4.774  10.344   1.162  2.7279  3.4024 -0.2285
  163MOL0     H21996   4.700  10.398   1.023  1.9056  1.5916  0.2116
  163MOL0     H21997   4.557  10.304   1.261  2.2695 -2.3020 -0.3368
  163MOL0     H21998   4.567  10.209   1.118  0.4335  1.5680 -0.8520
  163MOL0     H21999   4.352  10.290   1.119  1.3399 -3.7541 -1.6980
  163MOL0     H22000   4.419  10.463   1.099  0.1658  0.3174  0.5487
  163MOL0     H22001   4.488  10.274   0.713  0.4015  0.0262 -0.1186
  163MOL0     H22002   4.640  10.797   1.275 -0.0890  0.0012  1.0302
  163MOL0     H22003   4.631  11.079   1.365  2.8792 -0.3520  0.9710
  163MOL0     H22004   4.633  11.122   1.188 -2.6364 -0.5321 -0.5440
  163MOL0     H22005   4.545  10.983   1.247 -0.5432  0.3298  2.1814
  164MOL0     O22006  11.038   4.657  11.402 -0.5311 -0.2037  0.6814
  164MOL0     C22007  11.047   4.547  11.348  0.4808  0.2114  0.2655
  164MOL0     O22008  11.160   4.476  11.327 -0.3231 -0.0152 -0.5572
  164MOL0     C22009  11.275   4.507  11.389 -0.1019 -0.7530  0.1401
  164MOL0     C22010  11.328   4.649  11.383 -0.2378  0.6939 -0.3694
  164MOL0     C22011  11.446   4.669  11.460 -1.0581  0.5468  0.1595
  164MOL0     C22012  11.512   4.563  11.513  0.2836 -0.5517 -0.3071
  164MOL0     O22013  11.630   4.588  11.570  0.0035 -0.2395 -0.0665
  164MOL0     C22014  11.692   4.504  11.666 -0.1982  0.0730  0.1740
  164MOL0     C22015  11.790   4.402  11.589 -0.6100  0.7252 -0.5914
  164MOL0     C22016  11.926   4.453  11.532 -0.6006  0.1645 -0.0332
  164MOL0     C22017  12.007   4.530  11.637  0.1007  0.5062  0.1833
  164MOL0     C22018  12.150   4.574  11.585  0.2693  0.1453  0.0030
  164MOL0     C22019  12.244   4.451  11.600 -0.2962 -1.3833 -0.3281
  164MOL0     C22020  12.379   4.497  11.563 -0.6372 -0.3773 -0.2971
  164MOL0     C22021  12.493   4.390  11.550  0.5117  0.4362  0.1436
  164MOL0     N22022  12.617   4.440  11.483  0.1500  0.4444  0.3982
  164MOL0     C22023  12.630   4.493  11.354 -0.8794  0.6226 -1.4134
  164MOL0     C22024  12.765   4.484  11.316 -0.4708  0.8016  0.8451
  164MOL0     C22025  12.830   4.502  11.183 -0.5678  0.2592 -0.5344
  164MOL0     C22026  12.887   4.643  11.166 -0.3198  0.1352 -0.0269
  164MOL0     C22027  13.028   4.632  11.135 -0.5223 -0.4205  0.0885
  164MOL0     C22028  13.121   4.595  11.252 -0.0390  0.2816  0.9095
  164MOL0     O22029  13.216   4.495  11.204 -0.1964 -0.4075 -0.6033
  164MOL0     C22030  13.348   4.529  11.227  0.4443 -0.0593  0.1067
  164MOL0     C22031  13.398   4.524  11.356 -0.3215 -0.4002 -0.2814
  164MOL0     C22032  13.532   4.562  11.375 -0.1781  0.0749 -0.0219
  164MOL0     C22033  13.623   4.602  11.274 -0.0343 -0.6484  0.4279
  164MOL0     C22034  13.769   4.631  11.304  0.5198 -0.0804 -0.8811
  164MOL0     O22035  13.845   4.688  11.204  0.2766 -0.5854  0.3386
  164MOL0     C22036  13.978   4.703  11.228 -0.3510  0.7336 -0.5623
  164MOL0     C22037  14.071   4.687  11.123 -0.8083  0.1251 -0.7535
  164MOL0     C22038  14.206   4.712  11.138  0.3849 -0.0482 -0.3045
  164MOL0     C22039  14.257   4.756  11.264  0.7344  0.2056 -0.1664
  164MOL0     O22040  14.385   4.780  11.269  0.4132 -0.8829  1.1452
  164MOL0     C22041  14.442   4.876  11.368 -1.1486 -1.3764  0.2328
  164MOL0     C22042  14.571   4.944  11.313 -0.5666 -0.3013  0.3408
  164MOL0     C22043  14.639   5.042  11.414  0.0164  0.2156  0.3913
  164MOL0     C22044  14.690   4.974  11.536 -0.3559  0.5839  0.6522
  164MOL0     C22045  14.733   5.081  11.641 -0.1269  0.5817  0.0569
  164MOL0     C22046  14.779   5.028  11.777  0.0445 -0.3537  0.2353
  164MOL0     C22047  14.840   5.125  11.878 -0.1869  0.0729 -1.1512
  164MOL0     C22048  14.896   5.063  11.997 -0.8263  0.7070 -0.5174
  164MOL0    Cl22049  14.908   5.170  12.140 -0.5323 -0.2940  0.8140
  164MOL0     C22050  14.169   4.796  11.366  0.3893  0.8159  0.5013
  164MOL0     C22051  14.030   4.767  11.349  0.6508  0.7215 -0.1991
  164MOL0     O22052  13.807   4.592  11.415  0.5473  0.3861  0.3839
  164MOL0     C22053  13.559   4.613  11.143 -0.2412 -0.5695 -0.9836
  164MOL0     C22054  13.426   4.575  11.124  0.7328 -0.3658  0.9195
  164MOL0     N22055  12.827   4.440  11.433  0.9319 -0.5656  0.1703
  164MOL0     N22056  12.742   4.404  11.521 -0.2533 -0.5136 -0.3898
  164MOL0     C22057  11.461   4.432  11.506 -0.2466  0.1753  0.8158
  164MOL0     C22058  11.348   4.405  11.437  0.2379  0.0878  0.1728
  164MOL0     C22059  10.903   4.497  11.318 -0.4034  0.3886  0.7404
  164MOL0     C22060  10.804   4.588  11.302 -0.3752 -0.6947 -0.1251
  164MOL0     C22061  10.671   4.559  11.283 -0.0712  0.8783 -1.4077
  164MOL0     C22062  10.632   4.428  11.292  0.7773 -0.0529  0.2605
  164MOL0     O22063  10.501   4.406  11.279  0.2255  0.1521 -0.5150
  164MOL0     C22064  10.445   4.384  11.411  0.1045  0.5549 -0.0184
  164MOL0     C22065  10.309   4.320  11.416  0.2676 -0.0401 -0.1413
  164MOL0     C22066  10.308   4.191  11.344  0.5054  0.2868  0.2325
  164MOL0     C22067  10.365   4.064  11.415  0.4365 -0.0514 -0.3795
  164MOL0     C22068  10.354   3.950  11.329  0.3695  0.9809  0.4292
  164MOL0     C22069  10.331   3.841  11.272 -0.9187 -0.8837 -0.0186
  164MOL0     C22070  10.732   4.326  11.309 -0.3849  0.5162  0.1723
  164MOL0     C22071  10.869   4.365  11.318 -0.2543  0.4228 -0.7104
  164MOL0     C22072  10.961   4.244  11.357  0.4429  0.6988  0.2907
  164MOL0     H22073  11.256   4.719  11.342 -1.2792 -0.1067  0.0430
  164MOL0     H22074  11.484   4.770  11.471 -1.0916  0.9927 -2.9460
  164MOL0     H22075  11.744   4.564  11.742 -0.5718 -0.7271  1.0766
  164MOL0     H22076  11.619   4.441  11.719 -1.9504 -0.6046 -2.8511
  164MOL0     H22077  11.738   4.354  11.506  3.6891 -2.0101 -2.0498
  164MOL0     H22078  11.798   4.311  11.649 -0.8194 -0.4595 -2.3009
  164MOL0     H22079  11.915   4.519  11.445  3.0891  1.8680  0.6047
  164MOL0     H22080  11.982   4.370  11.487 -2.8226 -1.1811 -0.4961
  164MOL0     H22081  11.939   4.614  11.645 -1.9958 -0.6126 -3.4113
  164MOL0     H22082  12.008   4.477  11.733 -2.7361 -1.4417 -0.7354
  164MOL0     H22083  12.148   4.622  11.487  0.3082  2.8045  1.2430
  164MOL0     H22084  12.194   4.644  11.656  1.2493 -0.9974  0.5739
  164MOL0     H22085  12.228   4.414  11.702 -1.6655 -0.4465 -0.1696
  164MOL0     H22086  12.231   4.374  11.523 -1.0115 -1.5737 -0.0276
  164MOL0     H22087  12.416   4.561  11.644 -1.7570  0.3859 -0.3731
  164MOL0     H22088  12.375   4.553  11.470 -1.2077  0.0714 -0.0096
  164MOL0     H22089  12.506   4.368  11.657 -1.9189  4.1426  1.3726
  164MOL0     H22090  12.453   4.306  11.492 -1.9673  1.2126  0.6134
  164MOL0     H22091  12.548   4.532  11.295 -2.3079  0.2391  0.2146
  164MOL0     H22092  12.910   4.427  11.179  0.9655  1.8740 -2.2977
  164MOL0     H22093  12.759   4.480  11.103  1.4258 -1.1104 -2.0222
  164MOL0     H22094  12.823   4.693  11.092 -0.3076 -2.4920 -1.9524
  164MOL0     H22095  12.879   4.706  11.255  2.6291 -0.3782  0.6913
  164MOL0     H22096  13.059   4.730  11.097  1.2864 -0.9061  0.2107
  164MOL0     H22097  13.036   4.547  11.067  1.3781 -3.5596  3.7992
  164MOL0     H22098  13.061   4.583  11.343 -3.6114  4.8661 -0.4449
  164MOL0     H22099  13.169   4.689  11.281 -2.5162  1.7381  0.6287
  164MOL0     H22100  13.337   4.498  11.441  0.8495 -1.0821  0.3672
  164MOL0     H22101  13.568   4.544  11.476  1.8667 -2.8588 -1.1739
  164MOL0     H22102  14.032   4.670  11.023  3.4445 -3.6104 -2.1029
  164MOL0     H22103  14.277   4.696  11.058  1.0655 -1.4862  0.5588
  164MOL0     H22104  14.385   4.964  11.399 -0.7741 -0.9179 -0.3361
  164MOL0     H22105  14.471   4.822  11.458  1.2230 -1.1939 -0.3420
  164MOL0     H22106  14.643   4.865  11.288 -1.1402 -0.4054 -1.0952
  164MOL0     H22107  14.548   5.000  11.222 -1.1012 -3.9503 -1.9851
  164MOL0     H22108  14.706   5.109  11.360  1.2796 -1.3510 -0.0731
  164MOL0     H22109  14.562   5.117  11.434 -0.2886  1.3040 -3.8549
  164MOL0     H22110  14.775   4.914  11.503  1.6437  3.7586 -0.4611
  164MOL0     H22111  14.619   4.902  11.577  2.9440 -3.9253 -0.7377
  164MOL0     H22112  14.644   5.140  11.664 -2.0769 -1.0459 -2.7708
  164MOL0     H22113  14.803   5.156  11.604 -0.0793  0.9713  0.9159
  164MOL0     H22114  14.693   4.976  11.819 -3.0108  0.5892 -4.1303
  164MOL0     H22115  14.863   4.960  11.759  0.0748 -0.4411  0.7070
  164MOL0     H22116  14.759   5.190  11.913 -0.8975 -0.8235 -1.1057
  164MOL0     H22117  14.923   5.181  11.834  2.0244 -1.7759  0.4131
  164MOL0     H22118  14.837   4.974  12.021 -1.7250  1.7882  1.5894
  164MOL0     H22119  14.994   5.021  11.976 -1.0105  0.0947 -0.1964
  164MOL0     H22120  14.200   4.838  11.462 -2.5488  1.9302  1.0647
  164MOL0     H22121  13.956   4.800  11.422  0.3322  0.0396 -0.2118
  164MOL0     H22122  13.616   4.650  11.058  0.2632  1.9175  0.3590
  164MOL0     H22123  13.384   4.585  11.024 -0.4388 -1.8852  1.2138
  164MOL0     H22124  11.499   4.339  11.547 -2.3380 -0.9298  0.3885
  164MOL0     H22125  11.318   4.302  11.420  0.8134 -0.5466  2.6306
  164MOL0     H22126  10.829   4.694  11.304  1.1483 -1.0331  1.8237
  164MOL0     H22127  10.612   4.649  11.272  0.2187  0.9603 -2.4212
  164MOL0     H22128  10.455   4.474  11.473  1.7799 -0.6370  1.5234
  164MOL0     H22129  10.503   4.301  11.452  0.8277  0.1998 -1.6808
  164MOL0     H22130  10.233   4.389  11.379  0.0868 -0.0855  0.1409
  164MOL0     H22131  10.283   4.295  11.519  1.6053 -1.6659 -0.1433
  164MOL0     H22132  10.365   4.205  11.252  1.7904  0.7208  1.0692
  164MOL0     H22133  10.207   4.166  11.311  1.9756 -1.0405 -3.8932
  164MOL0     H22134  10.469   4.085  11.444  1.1337 -1.5790 -1.5796
  164MOL0     H22135  10.298   4.046  11.499  0.1479 -1.5317 -0.9108
  164MOL0     H22136  10.327   3.743  11.228  0.3182 -1.5564  1.2909
  164MOL0     H22137  10.710   4.220  11.314  1.3196  0.0696 -0.8636
  164MOL0     H22138  11.036   4.281  11.428  1.5415 -3.0197  1.2926
  164MOL0     H22139  10.901   4.165  11.404  1.7200 -0.7865 -0.5108
  164MOL0     H22140  11.009   4.203  11.268 -0.8181 -1.4876  0.5378
  165MOL0     O22141   6.351   3.071   2.916 -0.6349 -0.2711  0.0089
  165MOL0     C22142   6.275   3.021   2.997  0.5314 -1.0502 -0.9541
  165MOL0     O22143   6.299   2.924   3.082  0.3363  0.4348 -0.1494
  165MOL0     C22144   6.395   2.834   3.045 -0.2306 -0.0826  0.1266
  165MOL0     C22145   6.497   2.817   3.141  0.6838 -0.1086  0.3472
  165MOL0     C22146   6.616   2.741   3.112 -0.7352  0.3166  0.2541
  165MOL0     C22147   6.632   2.682   2.992 -0.4940 -0.7869  0.5716
  165MOL0     O22148   6.753   2.620   2.953  0.4351  0.2037 -0.1693
  165MOL0     C22149   6.765   2.485   3.001  0.1684 -0.8571  0.5377
  165MOL0     C22150   6.911   2.454   3.006  0.3146  0.0452  0.1436
  165MOL0     C22151   6.931   2.314   3.070 -0.5871  0.1933 -0.1323
  165MOL0     C22152   6.874   2.196   2.985 -0.5409  0.0198 -0.3891
  165MOL0     C22153   6.904   2.062   3.050  0.5678  0.9366  0.3254
  165MOL0     C22154   7.062   2.036   3.057  0.8892 -0.1841  0.3194
  165MOL0     C22155   7.099   1.888   3.068  1.5389  0.3622  0.7027
  165MOL0     C22156   7.248   1.863   3.100  0.5298  0.3200  0.9757
  165MOL0     N22157   7.261   1.718   3.100 -0.2302  0.4105 -0.4894
  165MOL0     C22158   7.245   1.629   3.201 -0.3952  0.5548 -0.8063
  165MOL0     C22159   7.269   1.515   3.146  0.4548 -0.3423 -0.5988
  165MOL0     C22160   7.272   1.388   3.213 -0.3104  0.6796 -0.3700
  165MOL0     C22161   7.406   1.301   3.188 -0.1594  0.0327  0.2694
  165MOL0     C22162   7.525   1.380   3.251  0.5420 -0.7853 -1.0349
  165MOL0     C22163   7.638   1.282   3.252 -0.2856  0.1011  0.7708
  165MOL0     O22164   7.757   1.338   3.231 -0.4822 -0.3343 -0.6296
  165MOL0     C22165   7.862   1.260   3.258  1.1840  0.4524  0.5287
  165MOL0     C22166   7.932   1.290   3.374 -0.2669  0.2657  0.1559
  165MOL0     C22167   8.055   1.225   3.394  0.0877 -0.4601 -0.4580
  165MOL0     C22168   8.099   1.130   3.304 -0.6989 -0.2462 -0.1794
  165MOL0     C22169   8.231   1.061   3.332  0.1611  0.2288  0.0940
  165MOL0     O22170   8.265   0.955   3.252  0.1757  0.1616  0.1792
  165MOL0     C22171   8.378   0.879   3.281 -0.6456 -0.1483  0.0092
  165MOL0     C22172   8.510   0.930   3.315  0.2940  0.8522  0.3767
  165MOL0     C22173   8.615   0.833   3.336 -0.9450 -0.1456  0.1841
  165MOL0     C22174   8.601   0.692   3.321  0.3098 -0.6455 -0.5516
  165MOL0     O22175   8.691   0.591   3.343 -0.0127 -0.0908  0.4404
  165MOL0     C22176   8.833   0.629   3.345 -0.2637  0.4899 -0.4729
  165MOL0     C22177   8.924   0.516   3.383  0.3365  0.4142 -0.8957
  165MOL0     C22178   9.073   0.532   3.346 -0.7348  1.1355 -0.2690
  165MOL0     C22179   9.129   0.665   3.387 -0.2018  1.1671  0.3784
  165MOL0     C22180   9.274   0.682   3.342 -0.5138  0.5314  0.4921
  165MOL0     C22181   9.343   0.817   3.390  0.3891 -0.5697 -1.1046
  165MOL0     C22182   9.497   0.814   3.394 -0.0898  0.3441  0.7983
  165MOL0     C22183   9.553   0.956   3.398 -0.0819 -0.6502 -0.5807
  165MOL0    Cl22184   9.527   1.043   3.240  0.6577 -0.2480 -0.4810
  165MOL0     C22185   8.472   0.651   3.289 -0.2940 -0.7858 -0.1078
  165MOL0     C22186   8.367   0.744   3.267  0.0113  0.4641  0.3391
  165MOL0     O22187   8.283   1.084   3.443  0.1802 -0.2432  0.1988
  165MOL0     C22188   8.013   1.085   3.207  0.5215 -0.1257 -0.2941
  165MOL0     C22189   7.904   1.163   3.181  0.2665 -0.2368  0.0227
  165MOL0     N22190   7.309   1.531   3.015 -0.2311 -0.0706 -0.5753
  165MOL0     N22191   7.291   1.654   2.991 -0.3907 -0.1621  0.3023
  165MOL0     C22192   6.536   2.695   2.894  0.4684  0.8514 -0.9206
  165MOL0     C22193   6.419   2.775   2.919  0.3760 -0.7858  0.2800
  165MOL0     C22194   6.156   3.103   3.012  0.0274  0.0454 -0.2431
  165MOL0     C22195   6.130   3.153   3.140 -0.4672 -0.3104  1.1099
  165MOL0     C22196   6.028   3.239   3.161 -0.2436 -0.4970 -0.8778
  165MOL0     C22197   5.945   3.268   3.059  0.4211  0.0004  0.4355
  165MOL0     O22198   5.846   3.355   3.091 -0.1603  0.6091 -0.2704
  165MOL0     C22199   5.765   3.426   2.994  0.7759 -0.0573  0.5265
  165MOL0     C22200   5.650   3.513   3.049 -1.0565 -0.0549 -0.1918
  165MOL0     C22201   5.567   3.588   2.947  0.0244  0.5666 -0.6444
  165MOL0     C22202   5.441   3.654   3.002  0.1678 -1.8294  0.2127
  165MOL0     C22203   5.325   3.577   3.048 -0.5979  0.4419 -0.1955
  165MOL0     C22204   5.220   3.529   3.090 -0.6650  0.1026 -0.1503
  165MOL0     C22205   5.960   3.213   2.931 -1.2564 -0.1574  0.0673
  165MOL0     C22206   6.069   3.132   2.905 -0.0405  0.9357  0.3539
  165MOL0     C22207   6.083   3.075   2.757 -0.8310  0.1911 -1.0849
  165MOL0     H22208   6.473   2.851   3.241 -0.6516  0.5304 -0.1791
  165MOL0     H22209   6.699   2.736   3.182 -0.2345  1.1828 -0.2631
  165MOL0     H22210   6.725   2.492   3.102  0.5005  3.5608  0.5300
  165MOL0     H22211   6.713   2.409   2.942  1.4501 -0.1123 -1.6638
  165MOL0     H22212   6.946   2.534   3.072 -0.3728  1.3460 -1.0414
  165MOL0     H22213   6.964   2.450   2.910  2.0931 -2.4024  1.1165
  165MOL0     H22214   6.902   2.319   3.175 -1.2855 -0.8729 -0.2601
  165MOL0     H22215   7.038   2.294   3.068 -0.7218 -0.7365  1.0182
  165MOL0     H22216   6.765   2.193   2.983 -0.5211 -0.4545 -1.8286
  165MOL0     H22217   6.904   2.215   2.882  3.0429  0.7289  0.6350
  165MOL0     H22218   6.850   2.044   3.143 -1.0661  2.1169 -0.3546
  165MOL0     H22219   6.866   1.990   2.977 -1.5520  3.4679 -1.2135
  165MOL0     H22220   7.101   2.060   2.958 -2.2662 -0.4306 -1.1225
  165MOL0     H22221   7.092   2.104   3.136 -3.9663  3.5696 -0.5601
  165MOL0     H22222   7.078   1.837   2.973  1.3280  0.3973  0.7299
  165MOL0     H22223   7.037   1.841   3.144  0.8577  0.4691  0.2238
  165MOL0     H22224   7.310   1.900   3.018 -2.5303 -0.5016 -1.8997
  165MOL0     H22225   7.292   1.903   3.192  3.1455 -0.7971  0.2919
  165MOL0     H22226   7.230   1.650   3.307  2.2284  1.9000 -0.6320
  165MOL0     H22227   7.256   1.397   3.321  0.2480 -2.4600  0.0802
  165MOL0     H22228   7.185   1.346   3.162 -1.5004  2.0938  0.4098
  165MOL0     H22229   7.401   1.201   3.233  0.0950 -0.0432  0.1339
  165MOL0     H22230   7.423   1.297   3.080 -1.2354  1.8500 -0.0035
  165MOL0     H22231   7.506   1.429   3.346  0.0003  1.9950 -2.4639
  165MOL0     H22232   7.540   1.460   3.177 -5.5582  1.6185 -0.2866
  165MOL0     H22233   7.624   1.195   3.187 -0.1309  0.4272  0.2968
  165MOL0     H22234   7.643   1.248   3.356  1.4431  1.7268  1.2669
  165MOL0     H22235   7.895   1.375   3.431 -1.1897 -1.6508  2.6411
  165MOL0     H22236   8.122   1.261   3.471  2.8467 -0.9229 -2.4589
  165MOL0     H22237   8.529   1.035   3.329  1.9855  1.0241 -2.4625
  165MOL0     H22238   8.717   0.859   3.362  0.6239 -2.5048 -2.9719
  165MOL0     H22239   8.865   0.680   3.254  0.4763 -0.1949 -0.6032
  165MOL0     H22240   8.845   0.699   3.428 -0.9225 -1.5014  1.3735
  165MOL0     H22241   8.909   0.498   3.490 -3.1494 -0.0958 -1.3554
  165MOL0     H22242   8.894   0.428   3.325  1.5754  0.2784 -1.3594
  165MOL0     H22243   9.128   0.451   3.394 -0.3643  0.1084 -2.3434
  165MOL0     H22244   9.086   0.525   3.238 -2.6932 -2.3759 -0.4339
  165MOL0     H22245   9.130   0.675   3.496  0.0545 -1.1732  0.6365
  165MOL0     H22246   9.082   0.752   3.339  0.5615  0.7305 -1.2347
  165MOL0     H22247   9.285   0.684   3.233  0.9880  0.5629  0.6178
  165MOL0     H22248   9.324   0.596   3.387 -0.2139  0.3791 -0.1204
  165MOL0     H22249   9.305   0.898   3.327 -0.4550 -0.4900 -0.5039
  165MOL0     H22250   9.327   0.852   3.493  4.3850  0.2804 -0.5945
  165MOL0     H22251   9.548   0.751   3.321  0.4721 -0.4479  1.8538
  165MOL0     H22252   9.534   0.767   3.486  1.3480 -2.8063 -1.2492
  165MOL0     H22253   9.513   1.026   3.473 -0.9138 -1.6445 -0.0712
  165MOL0     H22254   9.661   0.954   3.412  0.1981  1.7580 -1.8401
  165MOL0     H22255   8.453   0.545   3.279  0.4873 -0.9930  0.5808
  165MOL0     H22256   8.274   0.693   3.244  1.2861 -1.4088 -0.8536
  165MOL0     H22257   8.034   1.008   3.134 -0.0925  0.5048 -1.1615
  165MOL0     H22258   7.837   1.136   3.099  1.5382  0.9875 -1.4807
  165MOL0     H22259   6.549   2.638   2.802 -4.0951 -0.8055 -0.8081
  165MOL0     H22260   6.350   2.794   2.837  1.3477 -0.9319 -0.5923
  165MOL0     H22261   6.184   3.123   3.229  0.9070 -1.5532 -0.1082
  165MOL0     H22262   6.009   3.279   3.260  1.9267 -0.8990 -0.2396
  165MOL0     H22263   5.726   3.352   2.923 -0.2008 -0.5701  1.5708
  165MOL0     H22264   5.828   3.491   2.933  0.9202  2.3777  3.0587
  165MOL0     H22265   5.695   3.584   3.119 -1.2289  0.1826 -0.3220
  165MOL0     H22266   5.579   3.457   3.110  0.6029 -1.9249  0.1210
  165MOL0     H22267   5.538   3.518   2.868 -0.0520 -3.3742  2.5753
  165MOL0     H22268   5.636   3.660   2.902  2.9711 -1.8406 -0.2382
  165MOL0     H22269   5.471   3.718   3.085 -1.1103 -2.9475  1.6051
  165MOL0     H22270   5.394   3.724   2.932 -0.1693 -0.9942  1.2503
  165MOL0     H22271   5.131   3.481   3.126 -0.3848 -2.5855 -2.6868
  165MOL0     H22272   5.891   3.219   2.848  0.7610  1.7077 -1.6268
  165MOL0     H22273   6.102   2.969   2.778  1.5028  0.8285  0.3685
  165MOL0     H22274   5.990   3.081   2.700 -2.0140  4.0545  0.8956
  165MOL0     H22275   6.170   3.117   2.706 -0.3638 -2.1219 -2.3247
  166MOL0     O22276  11.288   6.089   3.095 -0.1492  0.2557 -0.9578
  166MOL0     C22277  11.410   6.108   3.090 -0.1607 -0.1342 -0.6070
  166MOL0     O22278  11.502   6.069   2.993  0.1140 -0.4852  0.2743
  166MOL0     C22279  11.452   6.039   2.871 -0.9171  0.7430  0.7016
  166MOL0     C22280  11.439   5.898   2.834  0.1599 -0.2500 -0.5838
  166MOL0     C22281  11.371   5.870   2.706 -0.3006  0.1998  0.1237
  166MOL0     C22282  11.333   5.965   2.617 -0.1581 -1.2517  0.0758
  166MOL0     O22283  11.287   5.952   2.489 -0.1201 -0.1866 -0.1461
  166MOL0     C22284  11.242   5.823   2.453 -1.4170 -0.7891 -0.6886
  166MOL0     C22285  11.231   5.795   2.299 -0.6374  0.6964  0.6382
  166MOL0     C22286  11.368   5.801   2.230  0.1605  0.7664  0.4784
  166MOL0     C22287  11.366   5.753   2.078 -0.2472 -0.4309 -0.3819
  166MOL0     C22288  11.483   5.820   2.007  0.0429 -0.4413 -0.3773
  166MOL0     C22289  11.460   5.954   1.941 -0.5305  0.0343  0.1487
  166MOL0     C22290  11.600   6.010   1.899 -0.6256 -0.3578 -0.2994
  166MOL0     C22291  11.680   6.042   2.025  0.3120 -0.1906 -0.4488
  166MOL0     N22292  11.811   6.092   1.996  0.1103  0.5604  0.8409
  166MOL0     C22293  11.843   6.177   1.892 -0.5026  0.8624 -0.6245
  166MOL0     C22294  11.974   6.192   1.902 -0.8193 -0.4295  0.2579
  166MOL0     C22295  12.066   6.292   1.819 -0.5626 -0.3568 -0.1598
  166MOL0     C22296  12.196   6.218   1.792  0.3420  0.2333  0.5644
  166MOL0     C22297  12.258   6.312   1.682  0.6221  0.6836  0.4537
  166MOL0     C22298  12.390   6.258   1.652  0.3088 -0.9109 -0.5214
  166MOL0     O22299  12.444   6.336   1.544  0.1515 -0.1709 -0.3544
  166MOL0     C22300  12.561   6.306   1.489 -0.4432  0.3431  0.2432
  166MOL0     C22301  12.593   6.379   1.371  0.9429  0.4996 -0.2526
  166MOL0     C22302  12.712   6.364   1.312 -0.1182 -0.8975 -0.0030
  166MOL0     C22303  12.813   6.290   1.371 -0.3661 -0.0173  0.0354
  166MOL0     C22304  12.940   6.273   1.296 -0.3340  0.4157  0.3905
  166MOL0     O22305  12.950   6.324   1.175 -0.1315  0.3333 -0.0596
  166MOL0     C22306  13.075   6.346   1.129  0.2704 -0.4316  0.7071
  166MOL0     C22307  13.176   6.411   1.201 -0.3016  0.0344  0.5821
  166MOL0     C22308  13.308   6.416   1.143  0.4931  0.6919  0.1986
  166MOL0     C22309  13.338   6.356   1.021 -0.5059  0.7518  0.1686
  166MOL0     O22310  13.470   6.362   0.993 -0.3442 -0.9267  0.6300
  166MOL0     C22311  13.509   6.383   0.857  0.2363  0.9430  0.1324
  166MOL0     C22312  13.566   6.263   0.797 -1.0412  0.7088  0.4484
  166MOL0     C22313  13.670   6.186   0.868 -0.7331  0.4873 -0.0012
  166MOL0     C22314  13.720   6.074   0.769  0.2128  0.8725  0.4269
  166MOL0     C22315  13.610   5.960   0.769 -0.9248 -0.1653 -0.0762
  166MOL0     C22316  13.666   5.823   0.730 -0.3361 -0.7620 -1.1280
  166MOL0     C22317  13.566   5.709   0.774 -0.2425 -0.1973 -0.1729
  166MOL0     C22318  13.605   5.575   0.718 -0.8272 -0.7693  0.5845
  166MOL0    Cl22319  13.760   5.512   0.770 -0.3545  0.0779 -0.2829
  166MOL0     C22320  13.231   6.308   0.943  0.8192 -0.2749 -0.2509
  166MOL0     C22321  13.107   6.295   1.002 -0.0611  0.6542  0.2626
  166MOL0     O22322  13.032   6.234   1.367 -0.1954 -0.1548 -0.0329
  166MOL0     C22323  12.788   6.230   1.496  0.0163 -0.2081  1.3522
  166MOL0     C22324  12.665   6.239   1.557 -0.3470 -0.2749  0.1472
  166MOL0     N22325  12.025   6.119   2.005  0.4316  0.5227 -0.9183
  166MOL0     N22326  11.931   6.056   2.061  0.3883 -0.3174  0.1981
  166MOL0     C22327  11.361   6.096   2.660  0.2366  0.3311  0.3322
  166MOL0     C22328  11.411   6.138   2.782 -0.3899 -0.2045 -0.0151
  166MOL0     C22329  11.482   6.158   3.222 -0.0158 -0.4157 -0.1426
  166MOL0     C22330  11.616   6.125   3.242  1.0001  0.2648 -0.6815
  166MOL0     C22331  11.680   6.163   3.364  0.5755 -0.7379  0.9514
  166MOL0     C22332  11.604   6.219   3.473 -0.7476 -0.7064 -0.0673
  166MOL0     O22333  11.661   6.248   3.598 -0.5905 -0.7496  0.0440
  166MOL0     C22334  11.748   6.362   3.612  0.0721 -0.7708 -0.1127
  166MOL0     C22335  11.891   6.315   3.605 -0.1546 -0.1971  0.7272
  166MOL0     C22336  11.988   6.433   3.640  0.0153  0.2144 -0.0283
  166MOL0     C22337  12.118   6.417   3.572  0.0670 -1.2352  0.6684
  166MOL0     C22338  12.188   6.307   3.628 -0.7160 -0.3724 -0.5800
  166MOL0     C22339  12.238   6.230   3.700 -0.7520 -0.0308 -0.8346
  166MOL0     C22340  11.476   6.261   3.440  0.0254  0.1764 -0.7954
  166MOL0     C22341  11.410   6.229   3.325 -0.3845  0.6919 -0.4135
  166MOL0     C22342  11.267   6.281   3.309 -0.1492  0.4040 -0.4815
  166MOL0     H22343  11.484   5.825   2.900  3.1022  1.7350 -0.1913
  166MOL0     H22344  11.360   5.763   2.694  0.1509  0.4604 -3.9317
  166MOL0     H22345  11.298   5.741   2.500 -0.8632 -0.1876 -0.2731
  166MOL0     H22346  11.145   5.800   2.498 -1.0715 -3.8386 -1.3074
  166MOL0     H22347  11.153   5.864   2.265 -3.4245 -1.3394  2.5021
  166MOL0     H22348  11.183   5.702   2.268  1.1773 -0.1377  0.1810
  166MOL0     H22349  11.447   5.747   2.282  0.9168 -0.3130 -1.6510
  166MOL0     H22350  11.393   5.907   2.218 -4.0970  1.9120  0.3420
  166MOL0     H22351  11.366   5.644   2.085  0.5684 -0.5142 -1.4665
  166MOL0     H22352  11.276   5.790   2.028 -1.1266 -0.1849  1.3018
  166MOL0     H22353  11.565   5.807   2.078 -1.6589 -1.3982  1.5336
  166MOL0     H22354  11.503   5.750   1.925 -2.2562  1.5140 -2.7970
  166MOL0     H22355  11.400   5.927   1.854 -0.0053 -3.3976  0.7118
  166MOL0     H22356  11.408   6.016   2.014  0.3290  1.3404 -0.3105
  166MOL0     H22357  11.565   6.101   1.849  0.2438  0.1058 -0.0855
  166MOL0     H22358  11.651   5.941   1.831  1.1026  0.6635 -0.1066
  166MOL0     H22359  11.617   6.122   2.065 -0.9381 -0.1601 -2.3671
  166MOL0     H22360  11.695   5.964   2.100  2.4737  0.6872  0.1272
  166MOL0     H22361  11.772   6.232   1.831 -2.3508  0.9699  1.4872
  166MOL0     H22362  12.017   6.301   1.721  0.8671  0.6840 -0.8195
  166MOL0     H22363  12.073   6.390   1.867  0.1819 -0.5135  0.0696
  166MOL0     H22364  12.266   6.200   1.874  1.3855  0.7103 -0.1945
  166MOL0     H22365  12.172   6.125   1.738  1.9746  1.9874 -3.6364
  166MOL0     H22366  12.268   6.418   1.706 -0.3175  1.2234 -1.4120
  166MOL0     H22367  12.193   6.313   1.595  0.2065 -1.4671  0.6913
  166MOL0     H22368  12.386   6.155   1.615 -0.4964 -0.6910 -1.0545
  166MOL0     H22369  12.449   6.272   1.743 -1.3336 -0.8679  0.5741
  166MOL0     H22370  12.513   6.439   1.328  0.8620  0.6438  0.0937
  166MOL0     H22371  12.734   6.415   1.219 -0.2215  0.4538  0.6929
  166MOL0     H22372  13.149   6.463   1.292  1.4318 -1.7523  2.2069
  166MOL0     H22373  13.394   6.454   1.197  0.2556  0.4149  0.7775
  166MOL0     H22374  13.421   6.408   0.798  0.8211  0.6934 -0.8686
  166MOL0     H22375  13.587   6.459   0.856  3.8745 -2.4163  0.2788
  166MOL0     H22376  13.481   6.194   0.805 -3.1626  3.2001  0.7853
  166MOL0     H22377  13.609   6.286   0.699  0.3412  3.3893  1.5730
  166MOL0     H22378  13.752   6.256   0.885 -2.2624  1.9778  1.6775
  166MOL0     H22379  13.637   6.157   0.968 -4.7133  0.5368 -1.1201
  166MOL0     H22380  13.814   6.034   0.809  0.1593  0.0419 -0.2599
  166MOL0     H22381  13.735   6.102   0.665  0.6527 -3.7265 -0.9735
  166MOL0     H22382  13.528   5.989   0.703 -0.7587  2.4092  0.7406
  166MOL0     H22383  13.574   5.953   0.872 -0.8343 -2.3219 -0.1522
  166MOL0     H22384  13.685   5.827   0.622  1.3456 -0.1211 -0.8354
  166MOL0     H22385  13.757   5.798   0.786 -0.0581  0.3734 -1.0552
  166MOL0     H22386  13.462   5.727   0.743 -2.3191 -2.5748  4.4866
  166MOL0     H22387  13.565   5.693   0.882 -2.9033 -0.7685 -0.2104
  166MOL0     H22388  13.524   5.512   0.755 -0.3099 -1.4308  0.6168
  166MOL0     H22389  13.623   5.572   0.610 -2.7641  1.6797  0.1228
  166MOL0     H22390  13.259   6.275   0.843  1.4168  0.7928 -0.4581
  166MOL0     H22391  13.027   6.248   0.945  0.0529 -3.6769  3.2585
  166MOL0     H22392  12.867   6.175   1.546  0.1825  0.8939  2.3332
  166MOL0     H22393  12.655   6.208   1.661  1.0145  0.9432  0.6762
  166MOL0     H22394  11.337   6.170   2.584  0.4889  0.1257  0.0505
  166MOL0     H22395  11.413   6.242   2.811 -0.2043 -0.8044  2.2919
  166MOL0     H22396  11.669   6.053   3.182 -2.2812 -2.4115 -0.6335
  166MOL0     H22397  11.786   6.145   3.372  0.3397 -1.3385  3.6596
  166MOL0     H22398  11.738   6.411   3.709  3.1733 -0.4427  0.1113
  166MOL0     H22399  11.743   6.443   3.539  3.2316  1.5462  2.0233
  166MOL0     H22400  11.899   6.265   3.508  0.2488 -0.9530  1.1388
  166MOL0     H22401  11.919   6.243   3.682  4.0545  2.5324  2.1136
  166MOL0     H22402  11.999   6.447   3.747  1.0423 -2.8784  0.3783
  166MOL0     H22403  11.950   6.529   3.605 -1.3377 -0.3399 -0.1389
  166MOL0     H22404  12.101   6.414   3.464  2.7415  4.5395 -0.3011
  166MOL0     H22405  12.170   6.512   3.585 -2.4277  0.0647  1.9191
  166MOL0     H22406  12.281   6.155   3.763 -0.3396  0.1257 -0.9278
  166MOL0     H22407  11.418   6.315   3.515 -1.2146 -0.9043 -0.9543
  166MOL0     H22408  11.253   6.331   3.213  1.0560 -1.5363 -1.7230
  166MOL0     H22409  11.192   6.202   3.316 -0.9476  0.9028 -2.6327
  166MOL0     H22410  11.251   6.350   3.393  0.5152  0.1389 -0.1300
  167MOL0     O22411   8.495   4.568   7.465  0.1675 -0.6022 -1.1775
  167MOL0     C22412   8.529   4.642   7.562  0.2147  0.1911 -1.1865
  167MOL0     O22413   8.458   4.741   7.616 -0.4863  0.9618  0.7433
  167MOL0     C22414   8.335   4.761   7.557 -0.2948  0.7656  0.9234
  167MOL0     C22415   8.222   4.747   7.632 -0.1500 -0.8254  0.5173
  167MOL0     C22416   8.099   4.773   7.566  0.3149  0.9718  0.4645
  167MOL0     C22417   8.089   4.811   7.432 -0.3678  0.0406  0.1374
  167MOL0     O22418   7.967   4.846   7.374 -0.1572 -0.4483  0.1826
  167MOL0     C22419   7.956   4.814   7.232 -0.1440 -0.0405 -0.1865
  167MOL0     C22420   7.818   4.768   7.201  1.6370 -0.9631  0.0135
  167MOL0     C22421   7.797   4.626   7.258  0.2378 -0.0122 -0.0236
  167MOL0     C22422   7.656   4.584   7.218 -0.1369 -0.1233 -0.3082
  167MOL0     C22423   7.636   4.430   7.240 -0.3200 -0.9950  0.0353
  167MOL0     C22424   7.496   4.386   7.208  0.2118  0.9568  0.1704
  167MOL0     C22425   7.461   4.433   7.066 -0.4411 -0.1426 -0.0904
  167MOL0     C22426   7.329   4.384   7.029  0.0339 -0.0012 -0.2893
  167MOL0     N22427   7.268   4.434   6.910 -0.6744 -0.4050 -0.3702
  167MOL0     C22428   7.153   4.391   6.848  0.3121  0.0642 -0.2207
  167MOL0     C22429   7.141   4.465   6.731 -0.3389 -0.3460  0.0281
  167MOL0     C22430   7.018   4.479   6.642 -0.4904  0.7297  0.5525
  167MOL0     C22431   6.905   4.542   6.733  0.8639  0.0225 -0.5647
  167MOL0     C22432   6.908   4.695   6.751 -0.2821  1.1597 -0.3016
  167MOL0     C22433   7.003   4.737   6.863 -0.3587  0.2489 -0.4685
  167MOL0     O22434   6.942   4.714   6.990 -0.2635 -0.1759 -0.1409
  167MOL0     C22435   7.017   4.684   7.100  0.8125  0.4926  0.3182
  167MOL0     C22436   6.943   4.620   7.204 -0.4884 -0.5305 -0.0160
  167MOL0     C22437   7.007   4.598   7.322  0.0856 -0.2580 -0.5004
  167MOL0     C22438   7.143   4.641   7.350  0.0150 -0.0574  0.6903
  167MOL0     C22439   7.211   4.604   7.476  0.0624 -0.2022  0.1070
  167MOL0     O22440   7.350   4.577   7.465 -0.5719  0.5959  0.2690
  167MOL0     C22441   7.426   4.507   7.561  0.5831  0.1100  0.2421
  167MOL0     C22442   7.376   4.403   7.640 -0.7609 -0.8495  0.3787
  167MOL0     C22443   7.463   4.337   7.725  0.6715  0.2456 -0.0178
  167MOL0     C22444   7.593   4.371   7.747  0.3858 -0.5638  0.4796
  167MOL0     O22445   7.679   4.311   7.839 -0.1963 -0.0934 -0.2429
  167MOL0     C22446   7.695   4.167   7.819  1.3801  0.1284 -0.0924
  167MOL0     C22447   7.836   4.129   7.872  0.8828  0.9259  0.2189
  167MOL0     C22448   7.844   3.972   7.875  0.0307  0.0639  0.4508
  167MOL0     C22449   7.985   3.918   7.927  0.4113 -0.1496  1.0822
  167MOL0     C22450   8.068   3.866   7.804  0.7801 -0.0923  0.1114
  167MOL0     C22451   8.209   3.845   7.844 -0.2101  0.5628 -0.5677
  167MOL0     C22452   8.288   3.783   7.737  0.0346 -0.6860 -0.0943
  167MOL0     C22453   8.433   3.749   7.774  0.4654  0.6428 -0.7920
  167MOL0    Cl22454   8.511   3.626   7.652 -0.2987 -0.7278  0.2670
  167MOL0     C22455   7.636   4.480   7.670 -0.3350  0.4432 -0.8394
  167MOL0     C22456   7.558   4.541   7.567 -0.4567  0.1452  1.1609
  167MOL0     O22457   7.149   4.584   7.582 -0.4919 -0.3619 -0.1679
  167MOL0     C22458   7.209   4.709   7.243  0.1965  0.0442 -0.4759
  167MOL0     C22459   7.143   4.732   7.126  0.4163  0.0528  0.7163
  167MOL0     N22460   7.253   4.541   6.717 -0.6521  0.4860  0.0218
  167MOL0     N22461   7.319   4.529   6.828 -0.5920 -0.2748 -0.4372
  167MOL0     C22462   8.206   4.817   7.362  0.4577  0.3356  0.8529
  167MOL0     C22463   8.332   4.802   7.421  0.3698 -0.8892  0.2260
  167MOL0     C22464   8.669   4.627   7.624  0.0274  0.4615 -0.3573
  167MOL0     C22465   8.727   4.723   7.715  0.9772 -0.3107  0.1702
  167MOL0     C22466   8.851   4.706   7.776  0.6709 -0.0876  0.7484
  167MOL0     C22467   8.928   4.597   7.743 -0.2861 -0.3054 -0.4153
  167MOL0     O22468   9.048   4.573   7.809  0.5405  0.4918  0.8960
  167MOL0     C22469   9.090   4.670   7.905  0.4714 -0.1668  0.0927
  167MOL0     C22470   9.228   4.626   7.955  0.0105  0.9794 -0.9637
  167MOL0     C22471   9.327   4.568   7.846  0.1078  0.0656 -0.4890
  167MOL0     C22472   9.470   4.549   7.904 -0.9354 -0.9518  0.6441
  167MOL0     C22473   9.473   4.459   8.023 -0.0575 -0.3424  0.6924
  167MOL0     C22474   9.462   4.380   8.115 -0.0543  0.5961 -0.2512
  167MOL0     C22475   8.875   4.494   7.657 -0.0589 -0.6429  0.4176
  167MOL0     C22476   8.746   4.510   7.596 -0.3795 -0.1020  0.6063
  167MOL0     C22477   8.708   4.396   7.517  0.5444  0.5095  0.1623
  167MOL0     H22478   8.226   4.717   7.736  0.4538  0.2599  0.8242
  167MOL0     H22479   8.006   4.776   7.621  0.8697 -0.9643  1.5720
  167MOL0     H22480   7.971   4.915   7.191 -1.5788  0.0849 -0.4662
  167MOL0     H22481   8.023   4.738   7.192  0.4580 -0.7423  1.9989
  167MOL0     H22482   7.802   4.768   7.092 -2.2041 -2.6849  0.4180
  167MOL0     H22483   7.745   4.823   7.261  0.2278 -2.6744 -0.0708
  167MOL0     H22484   7.811   4.633   7.366  0.7170  1.3654 -0.1533
  167MOL0     H22485   7.875   4.562   7.216  0.1769 -0.8392  1.0675
  167MOL0     H22486   7.582   4.644   7.273 -2.7140 -1.4473 -2.0917
  167MOL0     H22487   7.642   4.608   7.112 -1.0135 -2.0434 -0.6754
  167MOL0     H22488   7.712   4.395   7.169 -1.2807  0.9139 -2.0463
  167MOL0     H22489   7.659   4.393   7.340 -1.4352 -1.4772  0.1306
  167MOL0     H22490   7.488   4.277   7.205 -0.1892  0.9834 -2.2363
  167MOL0     H22491   7.427   4.423   7.284  0.0796 -3.6426  2.6224
  167MOL0     H22492   7.537   4.414   6.990  0.5441  3.8426 -0.3581
  167MOL0     H22493   7.459   4.543   7.067 -0.8463 -0.1455 -0.1828
  167MOL0     H22494   7.341   4.277   7.013  0.1192 -0.1012  0.4400
  167MOL0     H22495   7.259   4.392   7.112  0.2480 -1.2398  0.0212
  167MOL0     H22496   7.088   4.308   6.876  0.4692 -0.3235 -0.9854
  167MOL0     H22497   7.031   4.529   6.546 -0.1868  0.6750  0.5669
  167MOL0     H22498   6.996   4.376   6.611  2.2285  0.2476  0.0124
  167MOL0     H22499   6.807   4.516   6.691 -0.4299  1.4961  1.4018
  167MOL0     H22500   6.910   4.490   6.829 -4.0482  3.0948  1.7904
  167MOL0     H22501   6.810   4.738   6.773 -1.6892 -2.4960  1.5080
  167MOL0     H22502   6.946   4.734   6.656 -0.3721  0.1504 -0.7767
  167MOL0     H22503   7.046   4.837   6.845 -0.5332  0.7110  1.4775
  167MOL0     H22504   7.090   4.672   6.857  0.7978  1.7287 -0.4606
  167MOL0     H22505   6.836   4.606   7.190 -1.3668  1.5882  3.5062
  167MOL0     H22506   6.955   4.556   7.407  0.8494  1.8757  1.1270
  167MOL0     H22507   7.270   4.381   7.646 -0.8519 -0.0618  3.1313
  167MOL0     H22508   7.415   4.263   7.789 -0.3152 -0.2962 -1.3348
  167MOL0     H22509   7.617   4.108   7.868 -0.8153  0.5624 -2.8567
  167MOL0     H22510   7.688   4.136   7.715 -3.7308  2.8323 -0.8494
  167MOL0     H22511   7.907   4.177   7.804  2.9408 -0.2475  1.4294
  167MOL0     H22512   7.860   4.176   7.968  3.0202  0.4819 -0.0615
  167MOL0     H22513   7.767   3.925   7.936 -1.0551 -2.7075 -2.7006
  167MOL0     H22514   7.826   3.939   7.772  1.5526  1.5161 -0.3414
  167MOL0     H22515   7.978   3.837   8.001  1.1054 -1.1614  0.0729
  167MOL0     H22516   8.048   3.998   7.967  0.5411  0.0513  0.4751
  167MOL0     H22517   8.066   3.937   7.721  3.0986 -1.2040 -0.9974
  167MOL0     H22518   8.022   3.775   7.764 -0.8454  0.6710  0.1610
  167MOL0     H22519   8.253   3.942   7.866 -2.6369  1.4441  0.7152
  167MOL0     H22520   8.204   3.785   7.935 -0.0024 -2.5266 -2.4173
  167MOL0     H22521   8.290   3.866   7.666  0.8800 -0.5753  0.0456
  167MOL0     H22522   8.243   3.695   7.690  0.0241  0.1876 -1.7759
  167MOL0     H22523   8.498   3.837   7.768 -0.5795  1.7646  2.1993
  167MOL0     H22524   8.428   3.701   7.872  1.5479 -0.8606 -1.4210
  167MOL0     H22525   7.733   4.525   7.685  0.3303 -0.3443 -2.4795
  167MOL0     H22526   7.605   4.622   7.510 -0.7750 -0.4716 -0.0215
  167MOL0     H22527   7.310   4.747   7.250  0.0901  0.4049 -0.8202
  167MOL0     H22528   7.193   4.773   7.039 -0.5370  2.6017  1.2922
  167MOL0     H22529   8.201   4.855   7.261  1.0741 -1.1804  0.2243
  167MOL0     H22530   8.429   4.818   7.375 -0.1321 -4.0447 -2.2747
  167MOL0     H22531   8.669   4.813   7.735  0.3185 -0.3769 -1.2957
  167MOL0     H22532   8.891   4.785   7.839 -3.5820  2.7964  0.2986
  167MOL0     H22533   9.027   4.672   7.994 -1.3945  0.0285 -1.1745
  167MOL0     H22534   9.092   4.771   7.863 -1.3292 -0.8878 -1.9208
  167MOL0     H22535   9.215   4.539   8.020  2.0990  0.8305 -0.6934
  167MOL0     H22536   9.277   4.700   8.018 -0.5234  0.5897 -0.0687
  167MOL0     H22537   9.326   4.642   7.765 -0.5605  0.8678  0.2469
  167MOL0     H22538   9.295   4.466   7.823  1.4931 -0.3411 -0.7248
  167MOL0     H22539   9.525   4.512   7.817  0.6586  1.9588  0.3088
  167MOL0     H22540   9.505   4.649   7.932 -2.7386 -0.1081 -0.0054
  167MOL0     H22541   9.459   4.291   8.174  1.1438  2.1528  2.3352
  167MOL0     H22542   8.932   4.405   7.632  0.9155  0.3202 -0.9569
  167MOL0     H22543   8.599   4.382   7.524  0.1634  2.7509 -0.4087
  167MOL0     H22544   8.732   4.416   7.412  2.0779 -1.4272  0.0972
  167MOL0     H22545   8.750   4.300   7.548 -1.5144 -0.3143  0.5934
  168MOL0     O22546   2.978   7.214  10.114 -0.3881  0.5527  0.2388
  168MOL0     C22547   2.927   7.102  10.119 -0.0261  0.3398  0.9540
  168MOL0     O22548   2.991   6.989  10.115 -0.4422  0.9745  0.0493
  168MOL0     C22549   3.125   6.991  10.133  0.7054  0.4607  0.0148
  168MOL0     C22550   3.166   6.910  10.236 -0.0702  0.1133 -0.4553
  168MOL0     C22551   3.296   6.887  10.264  0.4179  0.0349  1.1741
  168MOL0     C22552   3.393   6.949  10.198 -0.2454 -0.1975  0.0486
  168MOL0     O22553   3.526   6.927  10.227  0.2921 -0.0692  0.0646
  168MOL0     C22554   3.624   6.957  10.118  1.1082 -0.0191 -0.5833
  168MOL0     C22555   3.756   6.893  10.149 -0.4946  0.7814 -0.1786
  168MOL0     C22556   3.760   6.746  10.179 -1.1439  0.1702 -0.1126
  168MOL0     C22557   3.905   6.706  10.214  0.1465 -0.0156  0.8551
  168MOL0     C22558   3.925   6.550  10.225  0.6577  0.3153  1.1901
  168MOL0     C22559   3.809   6.474  10.289  0.1749  0.2214 -0.1451
  168MOL0     C22560   3.780   6.521  10.434 -0.3687 -0.0870 -0.2258
  168MOL0     C22561   3.637   6.498  10.475  0.3726  0.9742 -0.5473
  168MOL0     N22562   3.603   6.358  10.490 -0.5907 -0.8170 -0.2985
  168MOL0     C22563   3.575   6.270  10.390  0.5761  0.0742  1.3304
  168MOL0     C22564   3.556   6.150  10.455  0.2939 -0.3415  0.0122
  168MOL0     C22565   3.495   6.031  10.387 -1.1886  0.0940 -0.4459
  168MOL0     C22566   3.579   5.979  10.279 -0.6563 -0.0951  0.5139
  168MOL0     C22567   3.712   5.917  10.326 -0.9068  0.0132  0.8053
  168MOL0     C22568   3.841   5.998  10.296  0.4460 -0.3132 -0.5358
  168MOL0     O22569   3.960   5.910  10.285  0.1260 -0.1525  0.8785
  168MOL0     C22570   4.087   5.973  10.293 -0.5099  0.0741 -0.7376
  168MOL0     C22571   4.111   6.100  10.318 -0.0604 -0.3145 -0.5341
  168MOL0     C22572   4.241   6.150  10.324  0.2292 -0.2693 -0.0721
  168MOL0     C22573   4.352   6.069  10.294 -0.0794  0.9873 -0.4875
  168MOL0     C22574   4.485   6.124  10.308  0.4296  0.2334 -0.0190
  168MOL0     O22575   4.589   6.040  10.285  0.6106 -0.1143  0.3213
  168MOL0     C22576   4.720   6.063  10.312 -0.9410 -0.3468  0.1964
  168MOL0     C22577   4.782   6.186  10.356 -0.3009 -0.0662  0.1999
  168MOL0     C22578   4.917   6.213  10.361  0.2943  1.4318 -0.3156
  168MOL0     C22579   5.001   6.119  10.307 -0.4644 -0.5547 -0.1234
  168MOL0     O22580   5.136   6.152  10.331 -0.3612  0.0340 -0.2786
  168MOL0     C22581   5.246   6.060  10.296  0.4408 -0.6579  0.4275
  168MOL0     C22582   5.379   6.141  10.281  0.5180  0.3409 -0.0444
  168MOL0     C22583   5.481   6.064  10.206 -0.0007 -0.5791 -0.0111
  168MOL0     C22584   5.604   6.138  10.171 -0.7623 -0.3022  0.1960
  168MOL0     C22585   5.689   6.047  10.078  0.4257  0.0440 -0.7169
  168MOL0     C22586   5.787   6.134  10.016  0.4635 -0.4881 -0.4453
  168MOL0     C22587   5.920   6.064   9.962  0.1747 -0.0806 -0.2287
  168MOL0     C22588   6.008   6.160   9.890 -0.8159  0.5605 -0.2999
  168MOL0    Cl22589   6.064   6.288  10.011  0.3076 -0.0927  0.0256
  168MOL0     C22590   4.957   5.999  10.268  0.0296  0.5352  0.0829
  168MOL0     C22591   4.816   5.967  10.272 -0.7305  0.0062  0.2445
  168MOL0     O22592   4.498   6.244  10.326  0.0757  0.1366  0.4684
  168MOL0     C22593   4.321   5.935  10.268 -0.1453 -0.4696  0.2998
  168MOL0     C22594   4.190   5.887  10.265  0.0092  0.3420  0.1216
  168MOL0     N22595   3.574   6.167  10.590 -0.0097  0.4957  0.2788
  168MOL0     N22596   3.606   6.292  10.606 -0.7067  0.6461 -0.5374
  168MOL0     C22597   3.366   7.042  10.089  0.2337 -0.4143 -0.9604
  168MOL0     C22598   3.228   7.059  10.052 -0.7067 -0.0576  1.0019
  168MOL0     C22599   2.783   7.104  10.132  0.4693  0.6295 -0.3620
  168MOL0     C22600   2.723   7.177  10.235  0.2876 -0.1764  0.3253
  168MOL0     C22601   2.580   7.169  10.267 -0.6420  0.2816  0.3362
  168MOL0     C22602   2.500   7.090  10.186 -0.2778 -0.6256  0.4916
  168MOL0     O22603   2.362   7.095  10.201 -0.6427 -1.1923 -0.0936
  168MOL0     C22604   2.314   6.996  10.299  0.1096  0.1534  0.3853
  168MOL0     C22605   2.229   6.883  10.239  0.0440  1.0405  0.8066
  168MOL0     C22606   2.167   6.774  10.332 -0.7908  0.9539 -0.3932
  168MOL0     C22607   2.040   6.813  10.405 -0.1051 -0.6100 -0.6543
  168MOL0     C22608   1.983   6.705  10.476 -0.1535  1.0734 -1.0546
  168MOL0     C22609   1.927   6.616  10.533 -0.0713  0.4747 -0.0134
  168MOL0     C22610   2.560   7.007  10.088  0.1289 -0.7204 -0.8296
  168MOL0     C22611   2.701   7.009  10.066  0.1684  0.2675  0.3675
  168MOL0     C22612   2.741   6.915   9.957  0.7652  0.4496 -0.5864
  168MOL0     H22613   3.107   6.845  10.299  1.0457  0.2625  0.7832
  168MOL0     H22614   3.330   6.825  10.346  1.5190 -0.5770  0.2891
  168MOL0     H22615   3.585   6.938  10.017  1.3727 -0.9284 -0.5183
  168MOL0     H22616   3.643   7.064  10.131  1.9962 -0.2235 -0.1208
  168MOL0     H22617   3.802   6.950  10.230 -0.1178  1.7998 -1.0839
  168MOL0     H22618   3.809   6.913  10.055 -1.9513  2.9131 -0.6173
  168MOL0     H22619   3.740   6.692  10.086  1.4541 -0.4389 -0.3872
  168MOL0     H22620   3.685   6.710  10.251  0.3274 -0.9068  0.9361
  168MOL0     H22621   3.976   6.716  10.130 -1.3169 -1.3059 -0.6101
  168MOL0     H22622   3.927   6.768  10.301  1.3285  0.3333  0.3319
  168MOL0     H22623   3.924   6.513  10.122 -2.0802 -1.2045  1.6684
  168MOL0     H22624   4.021   6.525  10.270  2.1412  1.7313 -0.9821
  168MOL0     H22625   3.723   6.471  10.221  0.3068 -0.9687 -0.2706
  168MOL0     H22626   3.863   6.379  10.296  3.0340  1.7620  0.4462
  168MOL0     H22627   3.796   6.627  10.453 -4.5416  1.0482 -1.8904
  168MOL0     H22628   3.846   6.464  10.500  0.9942  1.0609 -0.5487
  168MOL0     H22629   3.608   6.560  10.560 -0.4160  2.4840 -1.8505
  168MOL0     H22630   3.577   6.545  10.396  1.3927 -0.3338 -2.1566
  168MOL0     H22631   3.547   6.293  10.288 -1.1226 -2.4857  1.1250
  168MOL0     H22632   3.476   5.949  10.456  0.2942 -0.9539 -1.2340
  168MOL0     H22633   3.397   6.068  10.352 -0.6580  1.5144 -0.5103
  168MOL0     H22634   3.532   5.892  10.233 -0.2961 -0.1743  0.2892
  168MOL0     H22635   3.599   6.057  10.206 -2.8671 -1.1189 -1.2967
  168MOL0     H22636   3.739   5.830  10.265  0.3142  0.8272  0.1313
  168MOL0     H22637   3.698   5.889  10.430 -0.3212  2.3364  1.5769
  168MOL0     H22638   3.871   6.066  10.377  0.9640 -0.9897 -0.1491
  168MOL0     H22639   3.831   6.056  10.204  3.0444  2.1699  0.5798
  168MOL0     H22640   4.040   6.181  10.325  4.4320  4.2314 -1.7204
  168MOL0     H22641   4.259   6.252  10.358 -2.1204  0.1350  0.1585
  168MOL0     H22642   4.732   6.272  10.399 -0.1021  0.1525 -0.0077
  168MOL0     H22643   4.956   6.308  10.396 -2.7894  2.3918  0.8656
  168MOL0     H22644   5.255   5.988  10.378 -2.9558 -2.2303 -0.3952
  168MOL0     H22645   5.217   6.007  10.206  0.7467 -0.4263  0.1908
  168MOL0     H22646   5.366   6.232  10.222  0.3702 -1.2118 -2.5551
  168MOL0     H22647   5.403   6.171  10.384 -2.2443  0.8138  0.5461
  168MOL0     H22648   5.509   5.969  10.252  0.4729 -0.1755  0.5462
  168MOL0     H22649   5.426   6.033  10.116 -0.5526  0.4675 -0.0563
  168MOL0     H22650   5.670   6.151  10.258 -0.4173  1.2690 -0.2634
  168MOL0     H22651   5.589   6.238  10.131  0.6521 -0.7671 -1.6260
  168MOL0     H22652   5.625   5.984  10.015 -3.5543  0.8283  2.1959
  168MOL0     H22653   5.742   5.975  10.142 -1.1012 -0.2235  0.2880
  168MOL0     H22654   5.756   6.190   9.927 -0.7452 -0.4507 -0.0182
  168MOL0     H22655   5.829   6.207  10.086 -0.2044  2.6262 -3.0196
  168MOL0     H22656   5.895   5.982   9.893  2.7600 -0.7395 -0.5065
  168MOL0     H22657   5.973   6.021  10.048  1.8877 -2.0625 -2.1588
  168MOL0     H22658   6.093   6.095   9.871 -0.0707  1.5091 -0.3159
  168MOL0     H22659   5.964   6.201   9.799 -0.0036 -1.0606 -1.4509
  168MOL0     H22660   5.029   5.922  10.244 -0.3947  0.5263 -1.2284
  168MOL0     H22661   4.808   5.869  10.226 -0.0172 -0.0812  0.2983
  168MOL0     H22662   4.406   5.872  10.247  1.4263  1.2829  1.0690
  168MOL0     H22663   4.169   5.783  10.244 -1.1515 -0.0476  2.7962
  168MOL0     H22664   3.439   7.109  10.045 -0.8982  3.4837  2.4781
  168MOL0     H22665   3.208   7.130   9.972 -1.4098  2.4013  3.2014
  168MOL0     H22666   2.787   7.245  10.290 -1.4688  3.5287 -1.7826
  168MOL0     H22667   2.549   7.244  10.338  0.6378  2.0379 -0.8615
  168MOL0     H22668   2.247   7.050  10.366 -0.8716  1.2812 -1.4358
  168MOL0     H22669   2.395   6.955  10.360  0.2557  1.3885  1.0630
  168MOL0     H22670   2.296   6.825  10.175 -0.9500  1.0926 -0.3011
  168MOL0     H22671   2.153   6.924  10.173  1.0371  0.5161 -0.7114
  168MOL0     H22672   2.246   6.746  10.403  0.6792  0.2482 -2.2260
  168MOL0     H22673   2.149   6.682  10.275 -0.7985  1.1433 -0.6982
  168MOL0     H22674   2.083   6.879  10.481  2.8922 -0.8941 -1.9421
  168MOL0     H22675   1.962   6.847  10.338 -0.1955 -2.0183 -1.3030
  168MOL0     H22676   1.874   6.526  10.559 -0.8267  0.7184 -0.6925
  168MOL0     H22677   2.497   6.949  10.021 -0.6514 -0.4397 -0.3505
  168MOL0     H22678   2.807   6.835   9.990  1.6597  2.3541  2.7780
  168MOL0     H22679   2.659   6.883   9.892  1.1079  2.3405 -2.0508
  168MOL0     H22680   2.794   6.974   9.881  0.8884  2.7457  1.1615
  169MOL0     O22681   9.678   0.715   0.808 -0.4921  0.1209  0.7847
  169MOL0     C22682   9.761   0.800   0.782 -0.2238 -0.2477 -0.1256
  169MOL0     O22683   9.725   0.933   0.746  0.4152 -0.0244 -0.6199
  169MOL0     C22684   9.621   0.962   0.663 -1.1009 -0.1764 -0.5408
  169MOL0     C22685   9.642   1.089   0.609  0.0606 -0.1371 -0.4074
  169MOL0     C22686   9.555   1.141   0.508 -0.2290 -0.9662 -0.8439
  169MOL0     C22687   9.444   1.069   0.472  0.2587 -0.0635 -0.8484
  169MOL0     O22688   9.367   1.129   0.383 -0.3510  0.0514 -0.5319
  169MOL0     C22689   9.359   1.052   0.264  0.1147  0.7990 -0.3081
  169MOL0     C22690   9.329   1.148   0.138 -0.2210  0.1396 -0.0106
  169MOL0     C22691   9.206   1.235   0.136 -0.0122 -0.4762 -0.1530
  169MOL0     C22692   9.187   1.294  -0.003  0.4675  0.2183 -0.0482
  169MOL0     C22693   9.105   1.426  -0.007  0.5767 -0.1285  0.4391
  169MOL0     C22694   8.956   1.403   0.045 -0.4171  0.2671  0.3160
  169MOL0     C22695   8.872   1.529   0.047  0.0593 -0.5262  0.8259
  169MOL0     C22696   8.719   1.511   0.089 -0.3733 -0.9018  0.2642
  169MOL0     N22697   8.663   1.637   0.143 -0.7521  0.1381  0.4481
  169MOL0     C22698   8.624   1.752   0.068  0.1172 -1.2550  0.2356
  169MOL0     C22699   8.584   1.833   0.167 -0.3013 -0.9343  0.6433
  169MOL0     C22700   8.519   1.966   0.144 -0.3810  0.2090  0.6222
  169MOL0     C22701   8.613   2.079   0.174 -0.9262 -0.2032  0.1347
  169MOL0     C22702   8.538   2.214   0.145 -0.4467  0.2280  0.3704
  169MOL0     C22703   8.616   2.349   0.162  0.1063  0.9711  0.2016
  169MOL0     O22704   8.738   2.332   0.105 -0.0337  0.3470  0.5613
  169MOL0     C22705   8.827   2.433   0.092  0.5589  1.1402  0.3776
  169MOL0     C22706   8.949   2.394   0.045 -0.5326  0.2972  0.1043
  169MOL0     C22707   9.063   2.474   0.040  0.0360  0.3613 -0.1255
  169MOL0     C22708   9.064   2.611   0.082  1.0049 -0.1189 -0.8766
  169MOL0     C22709   9.174   2.703   0.075 -0.5387 -0.0754  0.2995
  169MOL0     O22710   9.284   2.668  -0.001 -0.1939  0.0298 -0.4779
  169MOL0     C22711   9.379   2.766  -0.020 -0.5602  0.4708 -0.4665
  169MOL0     C22712   9.366   2.846  -0.139  0.3446  0.1025  0.5611
  169MOL0     C22713   9.461   2.944  -0.168 -0.3229 -0.5542  0.6535
  169MOL0     C22714   9.566   2.979  -0.078 -0.5825 -0.2712 -0.3382
  169MOL0     O22715   9.664   3.068  -0.114 -0.1347  0.0074  0.1722
  169MOL0     C22716   9.663   3.190  -0.035  0.0570 -0.0471  0.5347
  169MOL0     C22717   9.553   3.288  -0.059  0.7734 -0.7911  0.3452
  169MOL0     C22718   9.535   3.346  -0.200  0.3255 -0.1414  1.1183
  169MOL0     C22719   9.392   3.394  -0.217  0.2634 -0.4440 -1.0803
  169MOL0     C22720   9.381   3.484  -0.344 -0.0509 -0.5381 -0.6086
  169MOL0     C22721   9.237   3.462  -0.412 -0.5877  0.2628  0.5696
  169MOL0     C22722   9.209   3.553  -0.536 -0.4153 -0.5916 -0.9893
  169MOL0     C22723   9.098   3.499  -0.623  0.1010 -0.7189 -0.5043
  169MOL0    Cl22724   8.945   3.492  -0.544  0.3193  0.3159  0.1280
  169MOL0     C22725   9.570   2.905   0.042  0.0877 -0.0545 -0.1271
  169MOL0     C22726   9.490   2.795   0.067 -0.5120  0.3677 -0.0600
  169MOL0     O22727   9.158   2.812   0.138 -0.5118  0.6704  0.2745
  169MOL0     C22728   8.932   2.656   0.132  0.3347  0.7534  0.5729
  169MOL0     C22729   8.820   2.565   0.135 -1.0306 -0.6976 -0.0900
  169MOL0     N22730   8.608   1.773   0.292  0.5620  0.6333  0.7264
  169MOL0     N22731   8.650   1.654   0.277  0.9046  0.3683  0.3030
  169MOL0     C22732   9.422   0.947   0.532  0.0803  0.4733 -1.0759
  169MOL0     C22733   9.507   0.890   0.630  0.0667 -0.3196 -0.5467
  169MOL0     C22734   9.904   0.773   0.809 -0.7458  0.4922  0.0394
  169MOL0     C22735  10.000   0.878   0.807 -0.3089  0.4207  1.0104
  169MOL0     C22736  10.130   0.869   0.852  0.8094 -0.3333  0.6490
  169MOL0     C22737  10.174   0.752   0.900 -0.2968  0.5630  0.2051
  169MOL0     O22738  10.297   0.727   0.954 -0.2138 -0.2674 -0.0895
  169MOL0     C22739  10.382   0.840   0.976 -0.8781 -0.4235  0.1684
  169MOL0     C22740  10.516   0.810   1.045 -1.4478  0.7156  0.5714
  169MOL0     C22741  10.507   0.785   1.184 -0.6023 -0.1856  0.0122
  169MOL0     C22742  10.645   0.804   1.266  0.3102  0.8795  0.8296
  169MOL0     C22743  10.748   0.721   1.208 -0.2079 -0.6773  0.3884
  169MOL0     C22744  10.832   0.643   1.165  1.2722  0.2803  0.3261
  169MOL0     C22745  10.085   0.649   0.901  0.0454 -0.2373 -0.7100
  169MOL0     C22746   9.954   0.644   0.856  0.5040 -0.4339  0.5977
  169MOL0     C22747   9.884   0.512   0.852 -0.3072  0.0238  0.3343
  169MOL0     H22748   9.725   1.153   0.634  1.0892 -1.7462  0.4484
  169MOL0     H22749   9.577   1.240   0.468  1.7955 -0.5855  0.9805
  169MOL0     H22750   9.453   1.002   0.237  1.0089  1.0949  2.0683
  169MOL0     H22751   9.276   0.983   0.278 -0.0117  1.6314  4.6973
  169MOL0     H22752   9.333   1.088   0.047  0.0349  1.6700 -1.0309
  169MOL0     H22753   9.409   1.222   0.132  1.1078 -1.1797  0.5743
  169MOL0     H22754   9.237   1.314   0.205  1.4434 -0.8396 -0.3731
  169MOL0     H22755   9.121   1.182   0.180  0.5710 -1.4196 -0.1487
  169MOL0     H22756   9.289   1.314  -0.037  0.0414 -0.1787 -1.6571
  169MOL0     H22757   9.153   1.214  -0.070 -1.5906 -0.0362  1.1857
  169MOL0     H22758   9.155   1.493   0.064  0.6327 -0.5374  0.7921
  169MOL0     H22759   9.104   1.468  -0.108 -1.4685  0.0204  0.4698
  169MOL0     H22760   8.910   1.343  -0.034  0.5640  1.2544 -1.0517
  169MOL0     H22761   8.944   1.356   0.143 -2.0360  2.0940  1.0416
  169MOL0     H22762   8.882   1.585  -0.046 -2.0190 -1.3007  0.0978
  169MOL0     H22763   8.911   1.587   0.132 -0.2149  0.8403  0.0444
  169MOL0     H22764   8.652   1.459   0.020 -1.8066  0.8961  0.2355
  169MOL0     H22765   8.720   1.435   0.168 -0.6603 -0.3310  0.8276
  169MOL0     H22766   8.611   1.762  -0.040 -0.3491  2.0816  0.5001
  169MOL0     H22767   8.493   1.976   0.039  2.0342  4.5474  0.1785
  169MOL0     H22768   8.428   1.963   0.204 -0.6262  1.9624  0.4132
  169MOL0     H22769   8.637   2.079   0.281  2.2383 -1.5385 -0.4758
  169MOL0     H22770   8.706   2.064   0.118 -2.7177 -0.7782 -2.9221
  169MOL0     H22771   8.448   2.226   0.206 -0.7821  2.6521 -0.4848
  169MOL0     H22772   8.502   2.215   0.042  2.4949  3.6407 -0.8048
  169MOL0     H22773   8.626   2.369   0.269  2.5736  0.9139  0.0502
  169MOL0     H22774   8.558   2.429   0.116  1.1187  0.3136 -2.3962
  169MOL0     H22775   8.958   2.294   0.002 -1.0612  1.1544 -2.1790
  169MOL0     H22776   9.158   2.435   0.004  0.1242 -1.5807  1.9415
  169MOL0     H22777   9.283   2.824  -0.206  2.9130 -0.7406 -2.5871
  169MOL0     H22778   9.448   2.997  -0.262  1.2986 -2.4609 -0.7084
  169MOL0     H22779   9.661   3.149   0.066 -1.2249  0.5351  0.7652
  169MOL0     H22780   9.759   3.239  -0.052  1.5978 -3.4575 -1.7029
  169MOL0     H22781   9.460   3.239  -0.027  0.1682 -0.4791 -0.8746
  169MOL0     H22782   9.579   3.375   0.002 -0.8020 -1.3522  1.8909
  169MOL0     H22783   9.613   3.421  -0.222 -0.9895  0.8860 -0.2212
  169MOL0     H22784   9.533   3.261  -0.269 -1.5951 -1.3278  2.5529
  169MOL0     H22785   9.374   3.463  -0.133 -0.4210  0.0457 -1.6172
  169MOL0     H22786   9.329   3.305  -0.203  0.5781 -0.5917 -0.5748
  169MOL0     H22787   9.465   3.459  -0.409 -0.2521  0.8119 -1.4378
  169MOL0     H22788   9.389   3.592  -0.327 -0.3959 -0.7105  0.7501
  169MOL0     H22789   9.238   3.356  -0.438  2.7803  0.3818 -0.2342
  169MOL0     H22790   9.157   3.489  -0.343 -1.0743  1.4831 -0.4186
  169MOL0     H22791   9.293   3.586  -0.598 -0.5400  1.2335 -0.2563
  169MOL0     H22792   9.171   3.648  -0.497  1.5902  0.6702 -1.9340
  169MOL0     H22793   9.079   3.565  -0.707  0.9189  1.0811  0.6625
  169MOL0     H22794   9.122   3.397  -0.657  0.2035 -1.0712  0.5653
  169MOL0     H22795   9.624   2.935   0.131 -0.8607 -2.5569  1.3996
  169MOL0     H22796   9.512   2.726   0.149 -1.9033 -0.8715 -0.6790
  169MOL0     H22797   8.923   2.752   0.183  1.5006  1.0848  0.1939
  169MOL0     H22798   8.737   2.610   0.189 -0.2469  1.6902 -0.7478
  169MOL0     H22799   9.329   0.894   0.510 -0.3151  0.8320 -0.2864
  169MOL0     H22800   9.489   0.796   0.682  1.7318  0.7062  2.1036
  169MOL0     H22801   9.977   0.979   0.774 -0.3669  0.0880  0.0022
  169MOL0     H22802  10.187   0.960   0.865  1.4255 -0.9055  2.2475
  169MOL0     H22803  10.319   0.903   1.038  0.4450  0.1211  1.0172
  169MOL0     H22804  10.413   0.886   0.882 -0.9935 -0.6638  0.0119
  169MOL0     H22805  10.576   0.900   1.025 -1.5297 -0.0942 -4.5807
  169MOL0     H22806  10.574   0.734   0.992  0.7315  1.9453  1.0262
  169MOL0     H22807  10.472   0.682   1.197 -2.5417  0.5852  1.2903
  169MOL0     H22808  10.438   0.858   1.226 -1.5570  0.4475 -2.5093
  169MOL0     H22809  10.691   0.903   1.263  2.8624 -0.2487 -0.3667
  169MOL0     H22810  10.624   0.779   1.371 -1.1505 -1.7738  0.0110
  169MOL0     H22811  10.910   0.587   1.117  0.7479  0.3638 -0.6421
  169MOL0     H22812  10.133   0.560   0.939 -1.2092  0.2115  2.2367
  169MOL0     H22813   9.856   0.464   0.946  0.6312 -2.1721 -0.4341
  169MOL0     H22814   9.805   0.499   0.777  0.5805  0.3898 -0.6914
  169MOL0     H22815   9.968   0.455   0.812  0.9216  2.9439 -1.5634
  170MOL0     O22816   9.000   7.788   7.127  0.5007 -1.1009  0.1892
  170MOL0     C22817   9.111   7.783   7.189 -0.9762 -0.0071 -0.1684
  170MOL0     O22818   9.155   7.688   7.268 -0.6779  0.3712  0.1651
  170MOL0     C22819   9.097   7.565   7.245  0.3101  0.3127 -0.3007
  170MOL0     C22820   9.094   7.509   7.122  1.1065 -0.5136 -0.7334
  170MOL0     C22821   9.050   7.373   7.122 -0.8245 -0.0005  0.3400
  170MOL0     C22822   9.006   7.305   7.236  0.8378 -0.8451 -0.8871
  170MOL0     O22823   8.957   7.179   7.248  0.4472 -0.3463  0.2570
  170MOL0     C22824   8.948   7.101   7.125 -0.0656  0.1975  0.5497
  170MOL0     C22825   8.881   6.969   7.158  0.3753  0.4972 -0.1675
  170MOL0     C22826   8.810   6.908   7.032  0.2964 -1.1887 -0.5180
  170MOL0     C22827   8.677   6.975   6.999 -0.5551  0.2895  0.9091
  170MOL0     C22828   8.617   6.894   6.883 -0.0526  0.0344  0.2148
  170MOL0     C22829   8.474   6.962   6.849  0.5245  0.3767  0.2201
  170MOL0     C22830   8.392   6.901   6.737 -0.6769  1.0340  0.2124
  170MOL0     C22831   8.372   6.745   6.758 -0.3512  0.0498 -0.8379
  170MOL0     N22832   8.280   6.684   6.658 -0.3941  0.5863 -0.7253
  170MOL0     C22833   8.298   6.697   6.521 -0.3087  0.3349 -0.2719
  170MOL0     C22834   8.222   6.600   6.471  0.0786  0.6984 -0.2527
  170MOL0     C22835   8.193   6.571   6.328  0.0288  0.0198  0.1866
  170MOL0     C22836   8.262   6.444   6.285  0.1315 -0.5388 -0.3914
  170MOL0     C22837   8.215   6.393   6.142 -0.2396 -1.1201  0.6781
  170MOL0     C22838   8.216   6.489   6.029  0.5772 -0.9299  0.1093
  170MOL0     O22839   8.158   6.434   5.905 -0.3672 -0.7222  0.4706
  170MOL0     C22840   8.024   6.452   5.867  0.0386  0.1472  0.3019
  170MOL0     C22841   7.922   6.511   5.947  0.1358  0.8488  1.2230
  170MOL0     C22842   7.791   6.511   5.893  0.9504  0.1741  0.2792
  170MOL0     C22843   7.762   6.453   5.759 -0.5350 -0.1768 -0.8445
  170MOL0     C22844   7.626   6.471   5.711  0.2957 -1.1136  0.7315
  170MOL0     O22845   7.523   6.493   5.800 -0.5439 -0.3766  0.1653
  170MOL0     C22846   7.397   6.516   5.757  0.1440 -0.5411  0.3980
  170MOL0     C22847   7.324   6.613   5.825  0.1358 -0.0028  1.1000
  170MOL0     C22848   7.193   6.650   5.801 -0.6892 -0.0871 -0.3509
  170MOL0     C22849   7.122   6.587   5.695  0.1367 -0.1535 -0.4043
  170MOL0     O22850   6.989   6.604   5.690 -0.9772  0.1439  0.4516
  170MOL0     C22851   6.904   6.586   5.567 -0.0956  0.1394 -0.6384
  170MOL0     C22852   6.767   6.543   5.612 -0.0243  0.1869 -0.0483
  170MOL0     C22853   6.663   6.555   5.499  0.0157 -0.3814 -0.0792
  170MOL0     C22854   6.618   6.701   5.479  0.1294 -0.6165  0.1809
  170MOL0     C22855   6.497   6.700   5.380  0.1055  0.8494 -0.2370
  170MOL0     C22856   6.479   6.847   5.364 -0.3991 -0.5429  0.6051
  170MOL0     C22857   6.342   6.862   5.285  1.0468  0.2989 -0.4759
  170MOL0     C22858   6.341   6.812   5.142 -0.2773  1.2853 -0.3700
  170MOL0    Cl22859   6.172   6.802   5.086 -0.1219 -0.2518 -0.1642
  170MOL0     C22860   7.184   6.485   5.627 -0.2300 -0.4712 -0.3529
  170MOL0     C22861   7.319   6.450   5.657 -0.0387  0.0694 -0.0634
  170MOL0     O22862   7.612   6.482   5.586 -0.8738  0.2775 -0.0957
  170MOL0     C22863   7.865   6.387   5.695  0.0030  0.7076  1.3718
  170MOL0     C22864   7.990   6.387   5.741 -0.7688  0.0682  0.9039
  170MOL0     N22865   8.158   6.533   6.577  0.6454  1.0748 -0.2430
  170MOL0     N22866   8.189   6.586   6.688 -0.2427 -0.6156 -0.1590
  170MOL0     C22867   9.020   7.362   7.360 -0.2328 -0.5323  0.2352
  170MOL0     C22868   9.063   7.499   7.365 -0.1426 -0.0132  0.2415
  170MOL0     C22869   9.210   7.886   7.159  0.2537  0.2379  0.4268
  170MOL0     C22870   9.334   7.872   7.224  0.5199  0.3736 -0.0296
  170MOL0     C22871   9.433   7.961   7.221  0.3494 -1.1865 -0.1294
  170MOL0     C22872   9.425   8.078   7.143  0.5229  0.5417  0.3659
  170MOL0     O22873   9.538   8.164   7.140  0.5764 -0.3418  0.4302
  170MOL0     C22874   9.535   8.292   7.078 -0.3200  0.5429  0.8054
  170MOL0     C22875   9.662   8.373   7.112 -0.8169 -0.1165 -0.3979
  170MOL0     C22876   9.686   8.379   7.261  0.6534 -0.3074  0.6359
  170MOL0     C22877   9.771   8.507   7.300  0.3604  1.5981  1.2313
  170MOL0     C22878   9.764   8.512   7.432 -0.5215 -0.1690  0.3677
  170MOL0     C22879   9.753   8.506   7.553 -0.4380  0.2782 -0.8422
  170MOL0     C22880   9.316   8.078   7.054  0.1675  0.2324  0.2374
  170MOL0     C22881   9.204   7.992   7.071 -0.4345 -1.2839  0.0301
  170MOL0     C22882   9.102   8.010   6.956  0.1189 -0.4503  0.0901
  170MOL0     H22883   9.139   7.553   7.034  3.9406 -2.2493 -0.2791
  170MOL0     H22884   9.055   7.322   7.026 -0.8326 -3.1943  1.9241
  170MOL0     H22885   8.882   7.160   7.060  1.6931 -0.0021 -1.5369
  170MOL0     H22886   9.045   7.083   7.077 -1.2710 -0.1288 -1.8949
  170MOL0     H22887   8.806   6.977   7.237 -1.1223 -0.6597 -1.4017
  170MOL0     H22888   8.941   6.893   7.208  1.4254  1.8858  0.7378
  170MOL0     H22889   8.787   6.802   7.048  0.3363 -1.3098 -1.2338
  170MOL0     H22890   8.879   6.917   6.948 -0.2885 -0.2544 -0.9057
  170MOL0     H22891   8.607   6.970   7.083 -0.9351 -1.1367  0.5184
  170MOL0     H22892   8.683   7.082   6.975  1.6476  0.1108  0.4198
  170MOL0     H22893   8.677   6.877   6.794 -2.0415 -3.4997 -0.6239
  170MOL0     H22894   8.603   6.792   6.920 -0.6398  0.7315  2.0571
  170MOL0     H22895   8.408   6.970   6.936 -1.3078 -0.0855 -1.0615
  170MOL0     H22896   8.488   7.062   6.807 -2.0355  0.4048 -0.7627
  170MOL0     H22897   8.448   6.919   6.645  0.2758  3.2473  1.1563
  170MOL0     H22898   8.300   6.959   6.727  0.7870  3.3814 -0.3247
  170MOL0     H22899   8.468   6.697   6.736 -1.2050 -1.9917 -0.2723
  170MOL0     H22900   8.339   6.722   6.859 -1.2364 -1.8941 -1.5154
  170MOL0     H22901   8.356   6.765   6.460  1.7764 -0.8107  0.3455
  170MOL0     H22902   8.085   6.572   6.308  0.1445  3.2938 -0.8757
  170MOL0     H22903   8.237   6.654   6.271  0.9001 -1.0250 -0.7153
  170MOL0     H22904   8.369   6.464   6.287  0.3473 -1.4047 -1.7491
  170MOL0     H22905   8.247   6.364   6.358  1.1666  0.7623  1.3327
  170MOL0     H22906   8.113   6.353   6.149  0.2865 -2.2855  2.3564
  170MOL0     H22907   8.282   6.318   6.099  0.2894  0.7382 -2.0193
  170MOL0     H22908   8.320   6.521   6.015  0.8050 -1.3167  0.8788
  170MOL0     H22909   8.171   6.585   6.056  0.3006 -0.2754 -2.3931
  170MOL0     H22910   7.951   6.540   6.048  1.8827 -2.1368  1.6888
  170MOL0     H22911   7.708   6.544   5.954 -0.5198  0.5120 -1.7890
  170MOL0     H22912   7.366   6.664   5.912 -2.8086  1.7582  1.6017
  170MOL0     H22913   7.152   6.724   5.869 -2.4673 -3.7376  2.9455
  170MOL0     H22914   6.886   6.681   5.516  2.5470 -1.1923 -4.4562
  170MOL0     H22915   6.942   6.520   5.488 -2.0409  0.0148 -1.5403
  170MOL0     H22916   6.762   6.440   5.648  1.2809  0.3415  0.6413
  170MOL0     H22917   6.737   6.602   5.699  1.3153  0.1107  0.4833
  170MOL0     H22918   6.711   6.516   5.409  0.0153  0.6491 -0.5481
  170MOL0     H22919   6.575   6.494   5.518 -0.4151  0.4018  0.4892
  170MOL0     H22920   6.691   6.765   5.429 -1.5602  2.1260  0.9987
  170MOL0     H22921   6.586   6.747   5.573 -0.4695  1.9337 -1.1897
  170MOL0     H22922   6.422   6.644   5.437  1.0915  2.1439  2.4966
  170MOL0     H22923   6.517   6.644   5.288 -3.4580  0.2573 -0.8126
  170MOL0     H22924   6.475   6.902   5.459  3.4915  0.1585  0.5450
  170MOL0     H22925   6.564   6.886   5.307  1.0753 -2.5246  1.3192
  170MOL0     H22926   6.323   6.969   5.276 -1.1607 -0.1183 -1.3644
  170MOL0     H22927   6.253   6.817   5.331  1.9839 -1.9230 -0.7138
  170MOL0     H22928   6.402   6.873   5.074  0.9992 -0.4021 -0.8085
  170MOL0     H22929   6.379   6.710   5.141 -1.9585  0.4523  3.2840
  170MOL0     H22930   7.148   6.426   5.543  1.4380 -2.6465  0.3469
  170MOL0     H22931   7.378   6.377   5.601  3.4748  2.0997  0.6766
  170MOL0     H22932   7.842   6.342   5.599  2.4904  0.8216  0.6527
  170MOL0     H22933   8.072   6.346   5.682 -0.0660  0.5276  1.5482
  170MOL0     H22934   8.989   7.300   7.444 -1.4376 -0.5056 -0.1634
  170MOL0     H22935   9.043   7.547   7.460 -8.0558 -0.7114 -0.3528
  170MOL0     H22936   9.356   7.776   7.272 -0.5579 -1.0397 -2.1965
  170MOL0     H22937   9.528   7.949   7.272 -0.8159  0.0275  2.5101
  170MOL0     H22938   9.439   8.339   7.104 -1.5450 -2.1976  1.6376
  170MOL0     H22939   9.543   8.282   6.970  7.1376  3.2580  0.5529
  170MOL0     H22940   9.669   8.476   7.075  0.7495 -0.9464 -2.6367
  170MOL0     H22941   9.757   8.329   7.081  2.3494  2.1970  4.5646
  170MOL0     H22942   9.741   8.288   7.286 -1.4434 -1.5389  0.9569
  170MOL0     H22943   9.595   8.382   7.321 -0.4156  4.0615 -0.8139
  170MOL0     H22944   9.871   8.513   7.255  0.3824 -2.2109  0.4343
  170MOL0     H22945   9.707   8.586   7.260 -2.0801 -1.0818 -0.5890
  170MOL0     H22946   9.751   8.477   7.656 -1.5581  0.1683 -0.8782
  170MOL0     H22947   9.319   8.138   6.964  0.6444 -2.3264 -1.5933
  170MOL0     H22948   9.071   7.916   6.909 -0.7103 -0.9553  1.5655
  170MOL0     H22949   9.010   8.055   6.993 -0.0393  2.5420 -3.3859
  170MOL0     H22950   9.131   8.078   6.876 -0.6664  0.8650  0.8832
  171MOL0     O22951   2.331   3.688   0.558 -0.1145 -0.3784 -0.3748
  171MOL0     C22952   2.409   3.667   0.646 -0.3583 -0.2359  0.0699
  171MOL0     O22953   2.423   3.539   0.698 -1.1800 -0.0209 -0.3378
  171MOL0     C22954   2.359   3.432   0.634  0.0083 -0.4776 -0.1086
  171MOL0     C22955   2.342   3.427   0.494 -0.3226  0.6635  0.4051
  171MOL0     C22956   2.270   3.321   0.435  0.0316 -0.1314  0.0463
  171MOL0     C22957   2.209   3.218   0.512 -0.0086  0.5413  0.9501
  171MOL0     O22958   2.143   3.113   0.453  0.2363 -0.3760 -0.8288
  171MOL0     C22959   2.199   2.980   0.483  0.2849 -0.1312 -1.0270
  171MOL0     C22960   2.171   2.880   0.379 -0.9186 -0.0035 -0.8993
  171MOL0     C22961   2.256   2.900   0.249 -0.8502 -0.4452 -0.6524
  171MOL0     C22962   2.407   2.913   0.258  0.3611 -0.2172  0.0636
  171MOL0     C22963   2.464   2.919   0.113  0.5607 -1.3974  0.3206
  171MOL0     C22964   2.475   3.071   0.070  0.6757  0.3395 -0.0388
  171MOL0     C22965   2.533   3.059  -0.075  0.3338  0.2966 -0.1468
  171MOL0     C22966   2.525   3.179  -0.157  0.1859 -0.0798  0.4187
  171MOL0     N22967   2.636   3.269  -0.120  0.3131 -0.0911  0.0661
  171MOL0     C22968   2.773   3.233  -0.107 -0.0846  0.7374 -0.4170
  171MOL0     C22969   2.835   3.353  -0.082 -0.2923  0.3327 -0.6237
  171MOL0     C22970   2.987   3.347  -0.078 -0.2132  1.2135 -1.0172
  171MOL0     C22971   3.055   3.494  -0.091 -0.1371  0.9315 -0.4055
  171MOL0     C22972   3.049   3.582   0.036 -0.7339 -0.3112 -0.0074
  171MOL0     C22973   3.124   3.720   0.036 -0.4024  0.0015 -0.1194
  171MOL0     O22974   3.095   3.804  -0.080  1.1043 -0.2790 -0.1941
  171MOL0     C22975   3.188   3.897  -0.126 -0.6955 -0.4571 -0.8296
  171MOL0     C22976   3.158   3.974  -0.237  0.4778 -0.9254  0.2662
  171MOL0     C22977   3.237   4.071  -0.290  0.4878  0.5146 -0.2625
  171MOL0     C22978   3.360   4.094  -0.225  0.4081  0.9458  0.1405
  171MOL0     C22979   3.447   4.193  -0.279  0.2005  0.4993 -0.7329
  171MOL0     O22980   3.442   4.213  -0.419 -0.5407  0.2667  0.5007
  171MOL0     C22981   3.536   4.297  -0.465 -0.1244 -0.0259  0.5788
  171MOL0     C22982   3.678   4.285  -0.441 -0.3287 -0.3574  0.0097
  171MOL0     C22983   3.771   4.392  -0.474  0.3685  0.2903  0.2358
  171MOL0     C22984   3.723   4.504  -0.529  0.9155 -0.6057 -0.3669
  171MOL0     O22985   3.814   4.609  -0.549 -0.4380 -0.3778  0.1413
  171MOL0     C22986   3.756   4.743  -0.589  0.1698  0.1095  0.5807
  171MOL0     C22987   3.864   4.845  -0.572  0.0488 -0.0502 -0.0549
  171MOL0     C22988   3.801   4.986  -0.555  0.3828  0.6049  0.1476
  171MOL0     C22989   3.723   5.014  -0.685  0.8583 -0.1555 -0.7196
  171MOL0     C22990   3.639   5.144  -0.672 -0.3421 -0.7339  0.5864
  171MOL0     C22991   3.557   5.166  -0.800 -0.5463 -0.4143 -0.8677
  171MOL0     C22992   3.487   5.297  -0.809 -0.7231  0.5086  0.2788
  171MOL0     C22993   3.372   5.300  -0.911  0.2843 -0.3282  0.1776
  171MOL0    Cl22994   3.237   5.183  -0.862  0.2699  0.1228 -0.3325
  171MOL0     C22995   3.587   4.515  -0.557  0.5024  0.0058  0.0919
  171MOL0     C22996   3.490   4.413  -0.526 -0.4260  0.5252 -0.0113
  171MOL0     O22997   3.521   4.255  -0.198 -0.6635  0.0043  0.4438
  171MOL0     C22998   3.386   4.034  -0.101 -0.4765 -0.6567 -0.0118
  171MOL0     C22999   3.305   3.928  -0.060 -0.3332  0.4127 -0.6703
  171MOL0     N23000   2.742   3.456  -0.069  0.1648 -0.1997  0.4802
  171MOL0     N23001   2.622   3.407  -0.092 -0.1473  0.0633  1.3228
  171MOL0     C23002   2.221   3.234   0.649 -0.9834  0.4481 -0.2491
  171MOL0     C23003   2.295   3.339   0.708  0.6589  0.1483  0.0210
  171MOL0     C23004   2.491   3.776   0.696 -0.9021  0.1595 -0.1209
  171MOL0     C23005   2.536   3.754   0.835  0.4197  0.3470  0.7109
  171MOL0     C23006   2.612   3.842   0.906  0.4200  0.2264 -0.0256
  171MOL0     C23007   2.641   3.959   0.842 -0.0493 -0.1352  0.5126
  171MOL0     O23008   2.718   4.063   0.897 -0.1990  0.2068  0.0974
  171MOL0     C23009   2.636   4.146   0.983  0.3680  0.2058 -0.2922
  171MOL0     C23010   2.582   4.088   1.125 -0.2930  0.4193  0.0037
  171MOL0     C23011   2.693   4.034   1.215 -0.5305  0.8671 -0.3430
  171MOL0     C23012   2.644   3.959   1.336  0.5587 -0.3807  0.0053
  171MOL0     C23013   2.562   4.052   1.418  0.1175  0.2644 -0.0163
  171MOL0     C23014   2.483   4.116   1.491  0.0211 -0.5624  0.7304
  171MOL0     C23015   2.606   3.979   0.703 -0.9251 -0.4394 -0.0083
  171MOL0     C23016   2.533   3.887   0.626  0.6315  0.9836 -0.2554
  171MOL0     C23017   2.502   3.921   0.482  0.4605 -0.2660  0.5542
  171MOL0     H23018   2.387   3.502   0.430 -0.4063 -0.0384 -0.5160
  171MOL0     H23019   2.271   3.334   0.328  2.9675 -0.7868 -0.0794
  171MOL0     H23020   2.306   2.997   0.494  0.2289  0.6743 -1.5968
  171MOL0     H23021   2.157   2.942   0.577  0.9092 -0.3863 -0.8458
  171MOL0     H23022   2.064   2.878   0.357 -1.7126 -1.3287  2.3879
  171MOL0     H23023   2.196   2.777   0.406  1.8678  0.0951 -2.6537
  171MOL0     H23024   2.221   2.980   0.183  0.4872  0.7008 -0.0236
  171MOL0     H23025   2.236   2.806   0.197  0.4213 -1.8834  1.3385
  171MOL0     H23026   2.441   2.997   0.319  0.1551 -0.6200  0.7414
  171MOL0     H23027   2.451   2.825   0.306 -1.5275 -0.2997  1.7828
  171MOL0     H23028   2.563   2.872   0.115  2.2188  1.7888  1.4161
  171MOL0     H23029   2.410   2.863   0.037 -2.1578  1.6417 -0.1931
  171MOL0     H23030   2.374   3.113   0.068 -0.4318 -2.1632 -1.4249
  171MOL0     H23031   2.537   3.118   0.147  2.3122  0.6189 -1.4770
  171MOL0     H23032   2.468   2.992  -0.133  1.4710 -1.6233  0.7337
  171MOL0     H23033   2.630   3.009  -0.081  1.5671  2.5111  0.3792
  171MOL0     H23034   2.532   3.144  -0.261 -0.5331 -0.5079  0.5054
  171MOL0     H23035   2.430   3.232  -0.146  0.6666  1.2804 -1.4211
  171MOL0     H23036   2.823   3.137  -0.118  1.3373  1.0086  2.5889
  171MOL0     H23037   3.010   3.296   0.016 -0.5614 -1.9297 -2.5142
  171MOL0     H23038   3.026   3.276  -0.152 -0.2042 -1.3268  1.2651
  171MOL0     H23039   3.162   3.484  -0.112 -0.0452  0.6978  0.1559
  171MOL0     H23040   3.014   3.548  -0.177  0.1479 -2.4156 -2.8236
  171MOL0     H23041   3.086   3.512   0.111  0.0467 -0.6903 -0.7367
  171MOL0     H23042   2.946   3.603   0.068 -0.5090 -0.0681  0.5701
  171MOL0     H23043   3.230   3.695   0.047  0.3738  2.7426 -0.6049
  171MOL0     H23044   3.102   3.782   0.123  0.7985 -0.2018  0.3444
  171MOL0     H23045   3.062   3.940  -0.275  0.4556 -3.4440  2.2547
  171MOL0     H23046   3.209   4.130  -0.377 -1.0238 -0.2947 -0.3606
  171MOL0     H23047   3.723   4.201  -0.389 -2.0805 -1.2150  0.1942
  171MOL0     H23048   3.878   4.371  -0.473  0.6117  1.4262  0.0226
  171MOL0     H23049   3.709   4.734  -0.688 -1.5599 -0.2412  1.3797
  171MOL0     H23050   3.674   4.766  -0.520 -1.5222  0.3735 -1.3971
  171MOL0     H23051   3.920   4.820  -0.482 -2.1041 -0.3123  1.2858
  171MOL0     H23052   3.920   4.847  -0.666 -0.1562  4.9736 -0.3063
  171MOL0     H23053   3.743   4.992  -0.463 -0.7099  0.5360 -0.5212
  171MOL0     H23054   3.885   5.057  -0.557 -0.8715  2.1148 -1.0516
  171MOL0     H23055   3.648   4.937  -0.709 -0.4993  0.5673  0.9610
  171MOL0     H23056   3.789   5.018  -0.772 -0.2454  0.8482 -1.5330
  171MOL0     H23057   3.701   5.232  -0.653 -0.9206 -0.0995 -0.3268
  171MOL0     H23058   3.579   5.146  -0.581 -0.4387  1.7838  0.5441
  171MOL0     H23059   3.616   5.161  -0.892  1.4662 -0.3198  0.3501
  171MOL0     H23060   3.479   5.090  -0.804 -0.6133 -0.3040 -2.5897
  171MOL0     H23061   3.555   5.379  -0.835  0.7536 -0.4520  1.0198
  171MOL0     H23062   3.441   5.322  -0.713 -2.2879  0.3474 -0.4058
  171MOL0     H23063   3.335   5.403  -0.899  0.9129 -0.1359  0.5260
  171MOL0     H23064   3.405   5.280  -1.014 -0.1884 -1.3874  0.2224
  171MOL0     H23065   3.530   4.596  -0.600  1.5781  0.2911 -0.8523
  171MOL0     H23066   3.383   4.420  -0.543 -0.5418 -0.6598  0.1175
  171MOL0     H23067   3.475   4.067  -0.048  1.8127 -1.9721 -2.7903
  171MOL0     H23068   3.327   3.877   0.034 -0.3804  1.9086  0.1767
  171MOL0     H23069   2.170   3.165   0.715 -0.6401 -2.4464 -2.8158
  171MOL0     H23070   2.311   3.361   0.813 -1.1103  2.4291 -0.1174
  171MOL0     H23071   2.518   3.656   0.878 -0.3666 -0.6338 -1.7128
  171MOL0     H23072   2.645   3.813   1.006  0.8542  2.7502  0.6217
  171MOL0     H23073   2.556   4.186   0.919  1.9596 -0.1172 -2.6039
  171MOL0     H23074   2.694   4.236   1.008 -1.1186  1.3206 -0.7042
  171MOL0     H23075   2.508   4.011   1.104  0.7775 -1.4281  2.4186
  171MOL0     H23076   2.524   4.158   1.185 -1.3870  1.2453 -1.9444
  171MOL0     H23077   2.766   4.108   1.247 -1.5861  1.4227  0.8749
  171MOL0     H23078   2.758   3.965   1.160  1.0581  0.7361  1.5895
  171MOL0     H23079   2.584   3.871   1.309 -0.6797  1.3465 -3.5775
  171MOL0     H23080   2.722   3.947   1.412  2.0358  2.1541 -0.9847
  171MOL0     H23081   2.394   4.149   1.542  0.0530  0.6544  0.0364
  171MOL0     H23082   2.649   4.074   0.672  3.1187 -1.6974  1.1017
  171MOL0     H23083   2.593   3.905   0.422  0.4590  3.1994 -0.5849
  171MOL0     H23084   2.411   3.875   0.443 -0.5774  1.2291  1.1507
  171MOL0     H23085   2.471   4.025   0.474 -1.5492 -0.8476  0.2787
  172MOL0     O23086   4.696   8.512   9.403  0.3033  0.0267 -0.6962
  172MOL0     C23087   4.709   8.405   9.462  0.2314  0.3023  0.4372
  172MOL0     O23088   4.610   8.347   9.536 -0.5715  1.6333 -0.4665
  172MOL0     C23089   4.477   8.388   9.550 -0.1687 -0.9519  0.6141
  172MOL0     C23090   4.400   8.369   9.670 -0.9254  0.1461 -0.3983
  172MOL0     C23091   4.270   8.425   9.676  0.0518 -0.4699  0.4603
  172MOL0     C23092   4.221   8.498   9.572  1.0304 -0.7320 -0.4004
  172MOL0     O23093   4.094   8.552   9.575  0.0964  0.5005 -0.0567
  172MOL0     C23094   3.991   8.466   9.641 -0.3502 -0.0554  1.1926
  172MOL0     C23095   3.856   8.489   9.582 -0.2207 -0.1313 -0.4533
  172MOL0     C23096   3.819   8.641   9.554  0.2151  0.1087 -0.4150
  172MOL0     C23097   3.691   8.654   9.470  0.4085 -0.2230 -0.5551
  172MOL0     C23098   3.669   8.791   9.394 -0.3889 -0.2816  0.9060
  172MOL0     C23099   3.672   8.912   9.487 -0.1474  0.2087  0.3851
  172MOL0     C23100   3.672   9.057   9.406 -0.6335 -0.2813 -0.8220
  172MOL0     C23101   3.529   9.094   9.357  1.0552 -0.1797  0.5570
  172MOL0     N23102   3.531   9.234   9.312  0.0619 -0.7755  0.9945
  172MOL0     C23103   3.576   9.279   9.183 -0.6790 -0.2012  0.0551
  172MOL0     C23104   3.546   9.405   9.177  0.4970  0.0776 -0.9131
  172MOL0     C23105   3.588   9.501   9.067 -0.5022  0.4435  0.1888
  172MOL0     C23106   3.476   9.513   8.964  0.8197  0.3674  0.3892
  172MOL0     C23107   3.522   9.594   8.844 -0.5688 -0.3656  0.6896
  172MOL0     C23108   3.607   9.517   8.749 -0.1996 -0.3962  0.4676
  172MOL0     O23109   3.631   9.588   8.630 -0.0856  0.1621  0.1484
  172MOL0     C23110   3.699   9.529   8.522  0.6938 -0.2318  0.2984
  172MOL0     C23111   3.663   9.562   8.388  0.8343  0.7313 -0.6869
  172MOL0     C23112   3.741   9.520   8.279  0.7892  0.3535 -0.1804
  172MOL0     C23113   3.845   9.428   8.301 -0.3766  0.1082  0.3174
  172MOL0     C23114   3.928   9.386   8.189  0.0659 -0.5419 -1.2725
  172MOL0     O23115   4.027   9.297   8.221 -0.3243 -0.6407  0.6993
  172MOL0     C23116   4.121   9.247   8.131  0.5302 -0.1264 -0.2818
  172MOL0     C23117   4.231   9.175   8.186 -0.8808  0.4983 -0.3717
  172MOL0     C23118   4.337   9.138   8.104 -0.3362 -0.0398 -0.0057
  172MOL0     C23119   4.321   9.128   7.968 -0.2710 -0.1548  0.7089
  172MOL0     O23120   4.404   9.047   7.890  0.7572 -0.1101 -0.3264
  172MOL0     C23121   4.474   9.114   7.776  0.3400  0.2461  0.4528
  172MOL0     C23122   4.608   9.171   7.805 -0.2505  0.6634  0.3420
  172MOL0     C23123   4.706   9.073   7.866  0.5457 -0.3733  0.0545
  172MOL0     C23124   4.842   9.136   7.830 -0.6075  0.0783 -0.3237
  172MOL0     C23125   4.966   9.076   7.911 -0.2952  1.1183 -0.5641
  172MOL0     C23126   4.957   8.922   7.902  0.0262  0.6190 -0.3131
  172MOL0     C23127   5.089   8.856   7.946  0.7262  0.1222  0.4446
  172MOL0     C23128   5.213   8.881   7.854 -0.0054  0.9692 -0.1366
  172MOL0    Cl23129   5.196   8.791   7.705  0.4078 -0.0077 -0.3618
  172MOL0     C23130   4.205   9.173   7.911  0.2551 -0.0818 -0.1145
  172MOL0     C23131   4.108   9.249   7.990 -0.3076 -0.3994 -0.0293
  172MOL0     O23132   3.914   9.450   8.087 -0.0106  0.5049  0.3633
  172MOL0     C23133   3.870   9.386   8.428  0.0141  0.7108  0.0707
  172MOL0     C23134   3.800   9.435   8.536 -0.1579 -0.4811  0.4367
  172MOL0     N23135   3.498   9.443   9.303  0.7199 -0.0130 -0.4355
  172MOL0     N23136   3.491   9.339   9.380 -0.4711 -0.1595 -1.0325
  172MOL0     C23137   4.284   8.511   9.459 -0.6645  0.3413  0.1824
  172MOL0     C23138   4.412   8.460   9.440  0.9420 -0.0349  1.0424
  172MOL0     C23139   4.841   8.345   9.464  0.3146 -0.4186 -0.4824
  172MOL0     C23140   4.944   8.414   9.390  0.2733  0.9385  0.4679
  172MOL0     C23141   5.070   8.361   9.387 -0.2224  0.4269 -0.6563
  172MOL0     C23142   5.107   8.251   9.461  0.1287  0.1018 -0.1048
  172MOL0     O23143   5.241   8.223   9.458  0.0162 -0.3694  1.0845
  172MOL0     C23144   5.290   8.147   9.569 -0.4049 -0.3050 -0.5271
  172MOL0     C23145   5.435   8.165   9.580 -0.0349  0.3788 -0.0014
  172MOL0     C23146   5.507   8.082   9.463  1.0727 -0.1486  0.4845
  172MOL0     C23147   5.517   8.155   9.327  0.4311  0.2087 -0.7597
  172MOL0     C23148   5.568   8.293   9.330  0.0311 -0.5410  0.0684
  172MOL0     C23149   5.603   8.409   9.334  0.7413  0.2894 -0.8520
  172MOL0     C23150   5.008   8.173   9.521  0.1104 -0.0227  0.4397
  172MOL0     C23151   4.876   8.218   9.524  0.9007  0.0604  0.2880
  172MOL0     C23152   4.782   8.137   9.610  0.0704 -0.5143  0.1050
  172MOL0     H23153   4.439   8.298   9.742 -0.0360 -1.9816 -2.8339
  172MOL0     H23154   4.206   8.409   9.762 -1.1638 -0.1417 -0.3474
  172MOL0     H23155   4.015   8.360   9.632 -0.8259 -0.1440  0.9540
  172MOL0     H23156   3.991   8.505   9.743 -0.1310  0.3536  1.0419
  172MOL0     H23157   3.787   8.432   9.645 -0.9314 -1.3966 -2.2956
  172MOL0     H23158   3.858   8.435   9.487 -0.5228  0.6771 -0.9280
  172MOL0     H23159   3.895   8.690   9.492 -0.8524  0.3556 -1.5642
  172MOL0     H23160   3.819   8.704   9.644  2.7136  0.7580 -0.7739
  172MOL0     H23161   3.666   8.577   9.396  1.7545 -0.5952 -0.6438
  172MOL0     H23162   3.606   8.642   9.539 -0.4107  0.2946 -1.4460
  172MOL0     H23163   3.756   8.793   9.328 -0.2136 -0.3069  1.1360
  172MOL0     H23164   3.576   8.782   9.336 -0.4614  0.6845  0.8518
  172MOL0     H23165   3.584   8.915   9.551 -0.1745  0.1248  0.3524
  172MOL0     H23166   3.765   8.918   9.544 -0.2569  0.2451  0.5595
  172MOL0     H23167   3.740   9.063   9.321  1.4578  1.9491  0.8640
  172MOL0     H23168   3.713   9.134   9.472  2.6635 -2.1771 -0.4767
  172MOL0     H23169   3.497   9.026   9.277 -0.6063 -0.7051  1.6404
  172MOL0     H23170   3.455   9.101   9.436  0.5289  2.5185 -0.0972
  172MOL0     H23171   3.614   9.208   9.110  0.0800  0.1177  0.1312
  172MOL0     H23172   3.623   9.598   9.105 -0.4710  1.1130 -1.4448
  172MOL0     H23173   3.678   9.461   9.019 -1.3453  1.4560 -2.3826
  172MOL0     H23174   3.433   9.416   8.940 -0.9620  1.3964 -0.8147
  172MOL0     H23175   3.387   9.564   9.001  0.1031  0.6039 -1.5330
  172MOL0     H23176   3.572   9.687   8.872 -0.0568  0.2051 -1.8911
  172MOL0     H23177   3.435   9.631   8.789 -2.8029 -0.7150  3.7115
  172MOL0     H23178   3.564   9.422   8.719 -0.7747  0.0134 -0.0296
  172MOL0     H23179   3.704   9.501   8.797 -1.1654 -0.7700  2.3986
  172MOL0     H23180   3.575   9.625   8.385 -0.4441 -0.7041  2.2802
  172MOL0     H23181   3.710   9.553   8.181 -2.1357  1.3184  0.9517
  172MOL0     H23182   4.244   9.164   8.293 -2.4429  0.1530 -0.1980
  172MOL0     H23183   4.426   9.097   8.151 -0.5790  0.0709  0.5613
  172MOL0     H23184   4.492   9.035   7.703  0.0768 -0.4642  1.1455
  172MOL0     H23185   4.413   9.189   7.723  1.1825  1.0382  0.5852
  172MOL0     H23186   4.638   9.212   7.708  3.5640 -3.2260 -0.4357
  172MOL0     H23187   4.599   9.248   7.883  0.3425 -0.6968  1.8144
  172MOL0     H23188   4.671   9.058   7.968  1.5331  0.7796  0.5899
  172MOL0     H23189   4.706   8.976   7.815 -3.2290 -0.2033 -0.5497
  172MOL0     H23190   4.848   9.245   7.843  1.9007  0.2309 -1.9631
  172MOL0     H23191   4.861   9.130   7.722  0.1982  1.6214 -0.3020
  172MOL0     H23192   4.951   9.114   8.013 -0.7001 -2.1872  0.7319
  172MOL0     H23193   5.068   9.109   7.892 -0.1902  0.3617 -1.3474
  172MOL0     H23194   4.879   8.870   7.959 -1.0517  0.5716 -1.7908
  172MOL0     H23195   4.942   8.894   7.798  3.0415 -0.6079 -0.5386
  172MOL0     H23196   5.066   8.749   7.948 -1.4235  0.5239 -0.0204
  172MOL0     H23197   5.116   8.877   8.050 -1.4839  1.3964  0.8217
  172MOL0     H23198   5.237   8.985   7.832  0.8223  1.2559  1.8801
  172MOL0     H23199   5.300   8.848   7.911 -0.3046 -2.5624 -1.4635
  172MOL0     H23200   4.178   9.155   7.808 -1.4508  2.8578 -0.2997
  172MOL0     H23201   4.019   9.290   7.944  0.8079  2.4701  0.1888
  172MOL0     H23202   3.924   9.298   8.460 -3.0908 -0.2296  3.4742
  172MOL0     H23203   3.828   9.401   8.635 -2.6032 -0.4722  1.1945
  172MOL0     H23204   4.226   8.562   9.383 -0.8043 -1.1635 -0.7726
  172MOL0     H23205   4.460   8.463   9.342  0.4366  3.2247  0.7888
  172MOL0     H23206   4.932   8.511   9.343 -2.1356  0.8775  0.8407
  172MOL0     H23207   5.147   8.413   9.331 -0.2188 -0.0196 -1.0736
  172MOL0     H23208   5.244   8.050   9.552 -2.3598  0.5495 -0.3477
  172MOL0     H23209   5.237   8.189   9.655 -0.1987 -1.6787  0.2966
  172MOL0     H23210   5.462   8.132   9.680 -1.7207  0.3515  0.4733
  172MOL0     H23211   5.466   8.270   9.580 -3.0461  1.3583  0.1020
  172MOL0     H23212   5.461   7.987   9.436  0.8537  0.1745 -0.3046
  172MOL0     H23213   5.608   8.053   9.494  0.8728 -1.3911  0.0511
  172MOL0     H23214   5.569   8.090   9.256 -3.9113 -2.2995 -2.0253
  172MOL0     H23215   5.417   8.143   9.286 -0.3481 -0.9873  1.3498
  172MOL0     H23216   5.639   8.509   9.317 -2.5393  1.3218 -2.5982
  172MOL0     H23217   5.032   8.073   9.556  2.0731 -0.0216 -0.7661
  172MOL0     H23218   4.720   8.198   9.676  0.4327  0.7140 -0.6443
  172MOL0     H23219   4.714   8.070   9.556  0.2133 -0.1026 -0.6041
  172MOL0     H23220   4.848   8.077   9.672  0.0753 -1.0067 -0.3687
  173MOL0     O23221   9.556   6.893   5.348 -0.1757 -0.8557  0.3135
  173MOL0     C23222   9.584   6.791   5.400  0.1357  0.2245 -0.3670
  173MOL0     O23223   9.490   6.690   5.425  0.0054 -1.5634  0.3159
  173MOL0     C23224   9.367   6.681   5.363  1.4201 -0.2772  0.2879
  173MOL0     C23225   9.295   6.562   5.400 -0.0545  0.0076  0.4321
  173MOL0     C23226   9.173   6.536   5.348  0.8986 -0.1747 -0.1415
  173MOL0     C23227   9.108   6.631   5.267 -0.2499  0.3932 -0.1961
  173MOL0     O23228   8.982   6.609   5.196 -0.3910 -0.5522 -0.4959
  173MOL0     C23229   8.906   6.485   5.214  0.3679  0.7099 -0.1494
  173MOL0     C23230   8.771   6.511   5.142  0.0981 -0.0663 -0.0569
  173MOL0     C23231   8.662   6.473   5.242  0.4308  1.0904  0.0103
  173MOL0     C23232   8.531   6.444   5.174  0.9299 -0.1291  0.6884
  173MOL0     C23233   8.419   6.411   5.276 -0.8556 -0.4960 -0.3860
  173MOL0     C23234   8.283   6.393   5.202 -0.5269 -0.2693  0.2116
  173MOL0     C23235   8.185   6.319   5.298 -0.4610 -0.0955  0.5501
  173MOL0     C23236   8.171   6.374   5.433  0.8402 -0.9445 -0.2550
  173MOL0     N23237   8.270   6.308   5.521 -0.4792  0.4666  0.3322
  173MOL0     C23238   8.331   6.375   5.629  0.9615  1.0469 -1.3191
  173MOL0     C23239   8.407   6.277   5.687 -0.0146  0.6439  0.7183
  173MOL0     C23240   8.497   6.316   5.797  0.1565 -0.6737  0.3246
  173MOL0     C23241   8.647   6.266   5.776 -0.1726 -0.6339 -0.9714
  173MOL0     C23242   8.751   6.335   5.856  0.1175 -0.1356  0.6301
  173MOL0     C23243   8.826   6.236   5.944  0.2405  0.4187  0.1225
  173MOL0     O23244   8.764   6.165   6.052  0.4682  0.1730  0.1945
  173MOL0     C23245   8.737   6.228   6.180  0.0428  0.2574 -1.0295
  173MOL0     C23246   8.688   6.135   6.276  0.5140 -0.5864  0.0716
  173MOL0     C23247   8.636   6.181   6.400  0.0195 -0.2981 -0.0168
  173MOL0     C23248   8.639   6.317   6.434  0.6392 -0.4387 -0.2918
  173MOL0     C23249   8.591   6.372   6.568 -0.9547 -0.7612  0.7577
  173MOL0     O23250   8.560   6.268   6.659 -0.1945 -0.0152  0.0625
  173MOL0     C23251   8.550   6.312   6.789 -0.0759 -0.3632 -1.4132
  173MOL0     C23252   8.648   6.272   6.877 -0.5496  0.2567 -0.3542
  173MOL0     C23253   8.630   6.298   7.017  0.2422 -0.1899  0.9866
  173MOL0     C23254   8.510   6.359   7.062 -0.1010  0.4152 -0.2410
  173MOL0     O23255   8.482   6.369   7.200 -0.5927 -0.4002  0.8209
  173MOL0     C23256   8.575   6.319   7.303 -0.5814 -0.1249 -0.1208
  173MOL0     C23257   8.498   6.248   7.422  0.1973 -0.3573 -0.0023
  173MOL0     C23258   8.378   6.337   7.466 -0.1878  0.4995  0.0684
  173MOL0     C23259   8.338   6.310   7.616  0.3345 -0.3824 -0.2025
  173MOL0     C23260   8.252   6.427   7.658 -1.0477  0.7319  0.3432
  173MOL0     C23261   8.203   6.430   7.804 -0.1424 -0.3963 -0.0741
  173MOL0     C23262   8.141   6.296   7.845  0.5927  0.3619  0.1561
  173MOL0     C23263   8.088   6.294   7.983  0.3443 -0.6466  0.2184
  173MOL0    Cl23264   8.219   6.305   8.100  0.1250  0.1399 -0.3220
  173MOL0     C23265   8.412   6.402   6.967  0.0048  0.4772  0.4796
  173MOL0     C23266   8.430   6.362   6.831 -0.4746 -0.6906 -0.4527
  173MOL0     O23267   8.598   6.497   6.589  0.3979 -0.3360 -0.0893
  173MOL0     C23268   8.715   6.397   6.341 -0.3291  0.0970 -0.8018
  173MOL0     C23269   8.758   6.354   6.220 -0.8965 -0.0710 -0.1863
  173MOL0     N23270   8.407   6.161   5.609 -0.5332  0.3726 -0.3520
  173MOL0     N23271   8.323   6.184   5.513 -1.1336 -0.1126 -0.6008
  173MOL0     C23272   9.168   6.751   5.247  0.0088 -0.1192 -0.7036
  173MOL0     C23273   9.296   6.782   5.292  0.2614 -0.4024  0.8009
  173MOL0     C23274   9.714   6.752   5.460 -0.1682 -0.6222 -0.2862
  173MOL0     C23275   9.736   6.618   5.481  0.4171 -0.3672 -0.4662
  173MOL0     C23276   9.861   6.565   5.494  0.7488  0.8322 -1.0705
  173MOL0     C23277   9.969   6.646   5.520 -0.2810  0.7795  0.5253
  173MOL0     O23278  10.088   6.574   5.539 -0.3325  0.4270 -0.0904
  173MOL0     C23279  10.215   6.641   5.564  0.4147 -0.1692 -0.3058
  173MOL0     C23280  10.310   6.537   5.590 -0.0486  1.1486  0.4602
  173MOL0     C23281  10.455   6.585   5.610  0.0707  0.2937 -0.4542
  173MOL0     C23282  10.463   6.663   5.743 -0.5827 -0.0414 -0.7918
  173MOL0     C23283  10.595   6.734   5.745  0.1071 -0.4998  0.0084
  173MOL0     C23284  10.695   6.801   5.738 -0.9836  0.2771 -0.5016
  173MOL0     C23285   9.949   6.785   5.519  0.1881  0.1090  0.0900
  173MOL0     C23286   9.826   6.839   5.480  0.0509  0.7766 -0.1845
  173MOL0     C23287   9.812   6.989   5.481 -0.5122  0.1360 -0.2954
  173MOL0     H23288   9.343   6.490   5.465  0.2591  1.3325  1.7198
  173MOL0     H23289   9.116   6.449   5.379  1.0042  0.5387  2.2785
  173MOL0     H23290   8.963   6.396   5.185  1.6005  0.6049  2.3902
  173MOL0     H23291   8.893   6.486   5.323 -2.2644  4.5049 -0.2977
  173MOL0     H23292   8.764   6.443   5.057 -1.3117 -1.9577  1.5033
  173MOL0     H23293   8.759   6.616   5.113 -0.6102  0.1381  0.9290
  173MOL0     H23294   8.644   6.568   5.293  0.6077  0.9280  0.3732
  173MOL0     H23295   8.691   6.392   5.309  0.5252  1.7366  0.7671
  173MOL0     H23296   8.483   6.532   5.131 -0.0860 -0.2006  1.6434
  173MOL0     H23297   8.539   6.355   5.110  0.4737  0.0443  0.3890
  173MOL0     H23298   8.445   6.331   5.345  1.9243  0.8367  0.2617
  173MOL0     H23299   8.413   6.497   5.343  0.6888 -1.1621  0.6754
  173MOL0     H23300   8.245   6.490   5.172 -1.2515  0.7538  3.8803
  173MOL0     H23301   8.294   6.328   5.115 -0.3186  2.5988 -2.0490
  173MOL0     H23302   8.208   6.213   5.294  0.3115  0.0844  0.1391
  173MOL0     H23303   8.087   6.325   5.248 -0.3279  0.2518  0.3230
  173MOL0     H23304   8.183   6.483   5.432 -1.1505 -0.6842 -0.0419
  173MOL0     H23305   8.070   6.370   5.475  0.1123 -0.1136 -1.8578
  173MOL0     H23306   8.318   6.480   5.653  0.4590  1.0136 -1.4236
  173MOL0     H23307   8.508   6.424   5.810  1.0831 -1.0424  3.4612
  173MOL0     H23308   8.449   6.288   5.891 -2.3407  0.1993 -0.6184
  173MOL0     H23309   8.654   6.157   5.787  0.1451 -0.5979 -0.7904
  173MOL0     H23310   8.671   6.278   5.670  0.9247 -1.5705 -0.8457
  173MOL0     H23311   8.706   6.412   5.919 -2.9196 -1.1216 -0.1664
  173MOL0     H23312   8.810   6.390   5.782  0.9583 -1.3820  0.3516
  173MOL0     H23313   8.909   6.285   5.994  2.0294 -0.5126 -1.7925
  173MOL0     H23314   8.866   6.157   5.880 -2.3170  0.4796 -1.7303
  173MOL0     H23315   8.692   6.028   6.260 -0.1675 -0.6390  0.2554
  173MOL0     H23316   8.612   6.111   6.479  4.3483 -0.1430  1.7162
  173MOL0     H23317   8.740   6.229   6.836  0.1149 -1.5414  2.7282
  173MOL0     H23318   8.706   6.256   7.083  1.3324  0.4757  0.1908
  173MOL0     H23319   8.643   6.241   7.268 -2.7497 -2.0097 -0.3809
  173MOL0     H23320   8.637   6.402   7.337 -0.2275  1.2025 -3.6506
  173MOL0     H23321   8.464   6.147   7.395  3.0954 -1.2142 -0.7966
  173MOL0     H23322   8.573   6.233   7.499 -2.2128  0.7490  2.7345
  173MOL0     H23323   8.407   6.442   7.464  2.0931  0.0294  2.4892
  173MOL0     H23324   8.293   6.310   7.404 -1.1360 -1.6665  2.1393
  173MOL0     H23325   8.426   6.305   7.681 -1.8091 -2.5866  2.8165
  173MOL0     H23326   8.277   6.220   7.626 -0.2558  0.1262  0.8439
  173MOL0     H23327   8.161   6.424   7.597 -2.4111  1.5487  2.2291
  173MOL0     H23328   8.310   6.518   7.642 -1.2573  1.0394  1.2821
  173MOL0     H23329   8.284   6.455   7.873  0.0169 -2.8551  0.7065
  173MOL0     H23330   8.128   6.509   7.797  0.0610 -0.3473 -3.2109
  173MOL0     H23331   8.214   6.215   7.837 -1.1422 -1.1043 -1.7323
  173MOL0     H23332   8.063   6.266   7.774  2.0275 -3.6017  0.0033
  173MOL0     H23333   8.011   6.370   7.998 -0.2110 -0.9569 -0.9284
  173MOL0     H23334   8.026   6.206   8.007 -0.1118  0.4142  3.4039
  173MOL0     H23335   8.317   6.446   6.994 -1.1411 -1.1804 -0.6536
  173MOL0     H23336   8.356   6.390   6.757  1.2148  0.1075 -1.9248
  173MOL0     H23337   8.733   6.499   6.374 -1.0663  1.2186 -3.5840
  173MOL0     H23338   8.799   6.420   6.144  0.6818 -0.0438  0.6302
  173MOL0     H23339   9.120   6.819   5.177  0.3566  0.6334 -0.2268
  173MOL0     H23340   9.350   6.875   5.273 -1.1210  0.4035  0.7034
  173MOL0     H23341   9.658   6.543   5.477  1.5083 -1.5081 -2.8219
  173MOL0     H23342   9.869   6.458   5.508 -1.7153  0.8256  0.9402
  173MOL0     H23343  10.195   6.690   5.660 -1.9355 -2.6952  0.6212
  173MOL0     H23344  10.252   6.711   5.489  0.3556  0.0153 -0.1648
  173MOL0     H23345  10.297   6.467   5.507 -1.1003  3.7508 -1.7136
  173MOL0     H23346  10.271   6.483   5.676 -2.6038 -0.3897 -1.5259
  173MOL0     H23347  10.493   6.636   5.521 -0.9657  0.1811 -0.9744
  173MOL0     H23348  10.523   6.500   5.614 -0.8896 -0.4801 -0.1309
  173MOL0     H23349  10.395   6.748   5.757  3.2106  2.8344  2.8193
  173MOL0     H23350  10.458   6.600   5.832  0.8845  0.2115 -0.5017
  173MOL0     H23351  10.793   6.843   5.728 -1.2415  0.3728 -3.4396
  173MOL0     H23352  10.032   6.855   5.519  2.5466 -2.4014 -2.0797
  173MOL0     H23353   9.727   7.023   5.541  1.0554  2.4017  0.7986
  173MOL0     H23354   9.904   7.046   5.498 -0.9370  1.1283 -1.1902
  173MOL0     H23355   9.787   7.021   5.379 -0.8821 -0.5384 -0.4253
  174MOL0     O23356   2.201   9.860   0.560  0.6878  0.4009  0.4215
  174MOL0     C23357   2.189   9.742   0.530  0.6111  0.2414  0.4301
  174MOL0     O23358   2.290   9.650   0.530  0.0592 -0.5280 -0.6475
  174MOL0     C23359   2.418   9.694   0.512 -0.0597  0.0649 -0.0791
  174MOL0     C23360   2.521   9.651   0.594  0.2063  0.3804  0.6230
  174MOL0     C23361   2.654   9.687   0.565 -0.1510  0.7592 -0.0835
  174MOL0     C23362   2.683   9.757   0.452  0.5094 -0.0148  0.1765
  174MOL0     O23363   2.806   9.791   0.412 -0.0596  0.5037 -0.4027
  174MOL0     C23364   2.930   9.721   0.446  0.3425  0.1598  0.8663
  174MOL0     C23365   2.913   9.586   0.359 -0.3301  0.5685  0.7732
  174MOL0     C23366   3.009   9.476   0.411  0.0277 -0.4231 -0.2640
  174MOL0     C23367   2.963   9.332   0.366 -0.6019  0.4348 -0.4115
  174MOL0     C23368   3.055   9.217   0.401  0.0858  0.2059  0.2264
  174MOL0     C23369   3.079   9.186   0.553 -0.0462  0.6536 -0.5589
  174MOL0     C23370   3.201   9.089   0.571  0.0482  0.1978 -0.0071
  174MOL0     C23371   3.328   9.156   0.602  0.3220 -0.2868 -0.7637
  174MOL0     N23372   3.325   9.236   0.734  0.1897 -0.1902 -0.5752
  174MOL0     C23373   3.334   9.369   0.742 -0.3387 -0.1001 -0.5819
  174MOL0     C23374   3.278   9.400   0.864 -0.4843  0.4404 -0.0823
  174MOL0     C23375   3.253   9.532   0.916 -0.0541  0.4064  0.4874
  174MOL0     C23376   3.392   9.587   0.965  0.2277  0.8217 -0.7928
  174MOL0     C23377   3.395   9.735   0.987  0.0065  0.0491  0.2738
  174MOL0     C23378   3.524   9.782   1.062  1.5286  0.2327 -0.2214
  174MOL0     O23379   3.645   9.745   0.996 -0.2006 -0.1806  0.5972
  174MOL0     C23380   3.682   9.806   0.878 -0.1645  1.0522  0.3935
  174MOL0     C23381   3.758   9.740   0.788 -0.4637  0.0865  0.1405
  174MOL0     C23382   3.798   9.789   0.663  0.7268 -0.2077  0.3151
  174MOL0     C23383   3.752   9.911   0.619  0.8316 -0.1559  0.1999
  174MOL0     C23384   3.782   9.967   0.488 -0.0717  0.2734  0.4610
  174MOL0     O23385   3.893   9.919   0.420  0.3789  0.0547 -0.3689
  174MOL0     C23386   3.888   9.915   0.283  0.2980 -0.5210 -0.6667
  174MOL0     C23387   3.997   9.961   0.213 -0.0338 -0.4649 -0.1061
  174MOL0     C23388   4.001   9.961   0.075  0.9539  0.7971  1.0085
  174MOL0     C23389   3.894   9.919  -0.000  0.8708 -0.6306  0.6384
  174MOL0     O23390   3.892   9.936  -0.140  0.0614  0.2264 -0.3131
  174MOL0     C23391   3.864   9.815  -0.213  0.0085  0.5561 -0.3944
  174MOL0     C23392   3.842   9.851  -0.359 -0.0302  0.0530 -0.2725
  174MOL0     C23393   3.845   9.721  -0.439  0.0230 -0.5189  0.3499
  174MOL0     C23394   3.807   9.746  -0.586 -0.6587 -0.2149  0.4135
  174MOL0     C23395   3.834   9.623  -0.689 -0.0486 -0.5503 -0.0219
  174MOL0     C23396   3.975   9.594  -0.722 -0.3821  0.9405 -0.1854
  174MOL0     C23397   4.048   9.696  -0.817 -0.0493 -0.4776  0.1901
  174MOL0     C23398   4.195   9.720  -0.763  0.9418 -0.6777  0.2878
  174MOL0    Cl23399   4.289   9.571  -0.759  0.2927 -0.4055 -0.1361
  174MOL0     C23400   3.778   9.873   0.067  0.3487 -0.1145  0.6657
  174MOL0     C23401   3.780   9.872   0.209 -0.4436 -0.7461  1.0170
  174MOL0     O23402   3.681  10.020   0.435  0.4440 -1.0855 -0.8795
  174MOL0     C23403   3.677   9.986   0.709  0.3104 -0.4297 -0.2447
  174MOL0     C23404   3.636   9.926   0.833  0.3548  0.3546 -0.3645
  174MOL0     N23405   3.250   9.286   0.931  0.5994  0.3127 -0.5667
  174MOL0     N23406   3.273   9.181   0.859 -0.0027 -0.1586  0.2816
  174MOL0     C23407   2.582   9.808   0.372 -0.6419  0.0199  0.1218
  174MOL0     C23408   2.449   9.781   0.402 -0.4357 -0.8617 -0.7061
  174MOL0     C23409   2.057   9.685   0.497 -0.3555 -0.2495  0.4515
  174MOL0     C23410   1.938   9.754   0.535  0.2117  0.6853 -0.0093
  174MOL0     C23411   1.815   9.695   0.519  0.4540  0.0127 -0.0263
  174MOL0     C23412   1.804   9.567   0.441 -1.2135  0.0252 -0.2650
  174MOL0     O23413   1.682   9.523   0.410 -0.3358  0.7435  0.1728
  174MOL0     C23414   1.627   9.519   0.279  0.3616  0.3718  0.5153
  174MOL0     C23415   1.557   9.648   0.237 -0.7609  1.0625 -0.5126
  174MOL0     C23416   1.426   9.666   0.304  0.7898  0.2905 -0.3117
  174MOL0     C23417   1.383   9.814   0.315 -0.6778 -0.7348  0.0057
  174MOL0     C23418   1.286   9.815   0.425  0.3029 -0.2825  0.2961
  174MOL0     C23419   1.190   9.824   0.501 -0.4730 -0.5653  0.0300
  174MOL0     C23420   1.916   9.505   0.396  0.9488  0.3186  0.3214
  174MOL0     C23421   2.041   9.562   0.426 -0.4324 -0.6263  0.3807
  174MOL0     C23422   2.163   9.489   0.358 -0.0277  0.6291  0.0587
  174MOL0     H23423   2.497   9.592   0.681 -3.5666  0.5973 -0.0894
  174MOL0     H23424   2.734   9.642   0.623 -0.8054  0.6712  0.7579
  174MOL0     H23425   3.018   9.768   0.401  2.5578 -1.9880  2.7256
  174MOL0     H23426   2.949   9.719   0.553 -0.6474  6.1541  1.4870
  174MOL0     H23427   2.930   9.604   0.253 -1.1703  1.7588  0.8276
  174MOL0     H23428   2.810   9.550   0.374 -0.6325  0.5544 -1.1140
  174MOL0     H23429   3.028   9.506   0.514 -2.4323  1.0042 -0.1471
  174MOL0     H23430   3.110   9.479   0.368 -0.1779 -2.5974 -1.0315
  174MOL0     H23431   2.872   9.307   0.421  0.1048 -0.7367  0.2829
  174MOL0     H23432   2.935   9.321   0.261 -2.6950 -2.8124  0.3387
  174MOL0     H23433   3.006   9.133   0.350  0.3826 -0.0045  0.2804
  174MOL0     H23434   3.154   9.224   0.354  0.0583 -1.6189 -0.1759
  174MOL0     H23435   3.091   9.283   0.602  0.6428  2.0477 -3.2427
  174MOL0     H23436   2.993   9.136   0.598  1.5732 -0.5008  1.3634
  174MOL0     H23437   3.212   9.031   0.479  0.3942  0.2757 -0.0190
  174MOL0     H23438   3.176   9.019   0.651  2.9134 -0.3146  0.5718
  174MOL0     H23439   3.398   9.072   0.610  0.3645 -0.2778 -1.0304
  174MOL0     H23440   3.367   9.227   0.528  1.5931  3.4635  3.0954
  174MOL0     H23441   3.356   9.446   0.668 -1.7742  0.1693 -0.7556
  174MOL0     H23442   3.206   9.605   0.849 -2.0424 -0.9183  0.3707
  174MOL0     H23443   3.178   9.531   0.996 -2.3233 -1.9191 -1.4949
  174MOL0     H23444   3.413   9.537   1.060 -2.4522  0.6251 -0.2168
  174MOL0     H23445   3.466   9.569   0.887 -0.8072  1.7762 -2.0570
  174MOL0     H23446   3.308   9.767   1.045 -1.6071 -0.6548 -1.6611
  174MOL0     H23447   3.402   9.791   0.893  0.8168 -0.0589  0.2644
  174MOL0     H23448   3.523   9.740   1.163 -1.3761  1.6335  0.4483
  174MOL0     H23449   3.510   9.889   1.083  0.3465 -0.0430  0.5138
  174MOL0     H23450   3.791   9.640   0.814  1.0998  0.5772  0.1087
  174MOL0     H23451   3.863   9.727   0.602 -0.1606  0.6902 -1.6335
  174MOL0     H23452   4.075  10.004   0.274 -0.7196 -0.7676  1.0144
  174MOL0     H23453   4.088  10.003   0.025  0.4554 -2.8880 -3.6923
  174MOL0     H23454   3.946   9.745  -0.193 -1.5396 -1.0522  0.6065
  174MOL0     H23455   3.775   9.762  -0.177  2.6064 -3.6813  0.4964
  174MOL0     H23456   3.743   9.889  -0.386  0.0613 -2.0529 -4.3902
  174MOL0     H23457   3.911   9.927  -0.398 -2.3919  0.9105 -3.1237
  174MOL0     H23458   3.950   9.690  -0.429  2.0456  4.9601 -0.3378
  174MOL0     H23459   3.777   9.644  -0.401 -1.0019 -1.1565 -2.5074
  174MOL0     H23460   3.852   9.841  -0.618  1.7471 -0.9140  1.4701
  174MOL0     H23461   3.700   9.772  -0.583 -0.6227  0.6512 -2.6225
  174MOL0     H23462   3.791   9.652  -0.785  2.5635 -1.8848 -1.7381
  174MOL0     H23463   3.780   9.535  -0.652 -1.6632 -0.2248 -1.4759
  174MOL0     H23464   4.041   9.580  -0.636  2.6578 -0.4438 -2.5120
  174MOL0     H23465   3.978   9.498  -0.775 -1.0476  1.3533 -0.9988
  174MOL0     H23466   3.989   9.789  -0.817 -0.9546 -0.9767 -2.3663
  174MOL0     H23467   4.048   9.664  -0.922  0.5925  0.5182 -0.1395
  174MOL0     H23468   4.258   9.801  -0.803  2.6277 -1.9621  0.2358
  174MOL0     H23469   4.159   9.745  -0.662  1.1855  0.2098  0.1636
  174MOL0     H23470   3.682   9.848   0.022  1.0317 -0.4785 -0.6372
  174MOL0     H23471   3.688   9.838   0.254 -0.0560  0.6147  2.9975
  174MOL0     H23472   3.638  10.086   0.692  0.0896 -0.1905  1.4727
  174MOL0     H23473   3.563   9.963   0.904 -0.6509 -3.2297  0.6522
  174MOL0     H23474   2.610   9.878   0.294  3.1011 -0.0374  1.2230
  174MOL0     H23475   2.371   9.824   0.340 -1.6981 -0.0565  1.3066
  174MOL0     H23476   1.942   9.851   0.584 -0.2801  0.4295  0.5317
  174MOL0     H23477   1.735   9.753   0.564  0.4122  0.5293 -0.7468
  174MOL0     H23478   1.550   9.443   0.293  0.9502 -0.3114  0.0812
  174MOL0     H23479   1.703   9.481   0.210 -3.6262 -3.6479 -2.1923
  174MOL0     H23480   1.547   9.655   0.128  0.5825  0.4404 -0.6891
  174MOL0     H23481   1.620   9.729   0.277  1.6321 -0.6094 -0.6612
  174MOL0     H23482   1.445   9.620   0.402 -1.6281 -0.1995 -0.0222
  174MOL0     H23483   1.351   9.605   0.254  2.0641 -2.2350  0.6167
  174MOL0     H23484   1.469   9.876   0.342 -0.8705  0.4707 -1.9213
  174MOL0     H23485   1.339   9.841   0.218 -0.8598 -0.9480  0.0276
  174MOL0     H23486   1.103   9.830   0.564 -1.0695 -0.4477 -0.7961
  174MOL0     H23487   1.918   9.409   0.345 -1.6650  0.6659 -0.6123
  174MOL0     H23488   2.216   9.436   0.438  0.4280  0.5359 -0.3020
  174MOL0     H23489   2.126   9.429   0.274 -2.9383  1.9452  0.2704
  174MOL0     H23490   2.223   9.568   0.313 -1.2795  0.3869 -2.2163
  175MOL0     O23491   4.948   8.783   6.553 -0.0959  0.5338 -0.2758
  175MOL0     C23492   4.947   8.903   6.537 -0.1936  0.5977  0.2441
  175MOL0     O23493   5.007   8.991   6.627 -0.2586 -0.3291  0.0246
  175MOL0     C23494   5.090   8.940   6.727  0.2405 -0.6095 -0.2605
  175MOL0     C23495   5.055   8.974   6.858  0.2384 -0.0641  1.0654
  175MOL0     C23496   5.147   8.966   6.960  1.0752  0.3443  0.2978
  175MOL0     C23497   5.264   8.894   6.940 -0.0659  1.2726  0.3121
  175MOL0     O23498   5.373   8.880   7.026 -0.7235  0.8199 -0.5177
  175MOL0     C23499   5.327   8.838   7.150 -0.7699  1.2104  0.6428
  175MOL0     C23500   5.426   8.866   7.266 -0.3039 -0.7252  0.8087
  175MOL0     C23501   5.409   9.008   7.315 -0.1317 -0.3576  0.1598
  175MOL0     C23502   5.507   9.101   7.234  0.0430 -0.0879 -0.4200
  175MOL0     C23503   5.489   9.244   7.283  0.6159  0.6101  0.0395
  175MOL0     C23504   5.367   9.313   7.225  0.3605  0.3775 -0.5314
  175MOL0     C23505   5.364   9.306   7.072  0.1221 -0.3543  0.4810
  175MOL0     C23506   5.281   9.425   7.016 -0.5479 -0.0855 -0.2560
  175MOL0     N23507   5.153   9.457   7.083  0.7512  0.0322  0.3835
  175MOL0     C23508   5.120   9.546   7.178 -0.5890  0.5738 -0.4713
  175MOL0     C23509   4.989   9.542   7.201  0.3685 -0.9229 -0.0496
  175MOL0     C23510   4.927   9.632   7.302 -0.9818 -0.1501  0.5499
  175MOL0     C23511   4.913   9.553   7.436  0.9923  0.0794  0.0092
  175MOL0     C23512   4.804   9.619   7.530 -0.0690  0.6979  0.5172
  175MOL0     C23513   4.763   9.532   7.653 -0.7183  0.1685  0.4151
  175MOL0     O23514   4.882   9.488   7.711 -0.1528 -0.3352  0.5911
  175MOL0     C23515   4.961   9.565   7.792  0.5459  0.0408 -0.7895
  175MOL0     C23516   4.927   9.691   7.838  0.3459  0.3547  0.2352
  175MOL0     C23517   5.015   9.756   7.922 -0.9681  0.1909  0.5341
  175MOL0     C23518   5.132   9.696   7.965  0.6810  0.1147 -0.5390
  175MOL0     C23519   5.233   9.772   8.051  0.2478  0.1016 -0.1286
  175MOL0     O23520   5.187   9.884   8.123 -0.0137 -0.2173  0.1481
  175MOL0     C23521   5.272   9.924   8.220  0.0285 -0.6986 -0.0490
  175MOL0     C23522   5.357  10.028   8.194  0.6430 -0.5194  0.6113
  175MOL0     C23523   5.463  10.053   8.282  0.1322  0.0073 -1.2058
  175MOL0     C23524   5.477   9.974   8.402 -0.5757 -0.2861  0.7703
  175MOL0     O23525   5.577   9.994   8.497  0.6615  0.0403  0.3121
  175MOL0     C23526   5.682  10.091   8.474  0.1386  0.1680  0.1410
  175MOL0     C23527   5.800  10.061   8.373  0.0226  0.0514 -0.2264
  175MOL0     C23528   5.902  10.165   8.348 -0.4792 -0.1322 -0.1548
  175MOL0     C23529   5.848  10.307   8.339 -0.0301 -1.4600  0.3984
  175MOL0     C23530   5.974  10.399   8.307 -0.3722 -0.0263 -0.2109
  175MOL0     C23531   5.954  10.550   8.309  0.7067 -0.4552 -0.7746
  175MOL0     C23532   5.931  10.620   8.444 -0.3849  0.7310  0.3675
  175MOL0     C23533   5.894  10.769   8.439  0.8865  0.0625 -0.2139
  175MOL0    Cl23534   6.032  10.840   8.359 -0.2630 -0.0908  0.0748
  175MOL0     C23535   5.383   9.880   8.437  0.7212 -0.2860 -0.1641
  175MOL0     C23536   5.286   9.857   8.345 -0.1350 -0.7220  0.1744
  175MOL0     O23537   5.345   9.734   8.058  0.6225  0.3843 -0.2690
  175MOL0     C23538   5.171   9.569   7.926  0.2016 -0.2347 -0.4638
  175MOL0     C23539   5.078   9.499   7.840 -0.1175 -0.1070 -0.0503
  175MOL0     N23540   4.940   9.460   7.105  0.4225 -0.3199  0.6220
  175MOL0     N23541   5.040   9.407   7.033 -0.0289  0.2232  0.5152
  175MOL0     C23542   5.299   8.857   6.812 -0.5219  0.2660 -0.0077
  175MOL0     C23543   5.214   8.887   6.707  0.3918  0.4433  0.5007
  175MOL0     C23544   4.850   8.975   6.442 -0.2969  0.1120 -0.9950
  175MOL0     C23545   4.786   9.094   6.486 -0.2330  0.2345  0.5219
  175MOL0     C23546   4.695   9.161   6.400 -1.0128  0.0591 -0.5839
  175MOL0     C23547   4.673   9.116   6.272  0.8231 -0.4331  0.5611
  175MOL0     O23548   4.591   9.170   6.177 -0.0389  1.4308  0.0496
  175MOL0     C23549   4.630   9.295   6.129 -0.2254 -0.6014  0.4247
  175MOL0     C23550   4.544   9.320   5.995  0.2454 -0.3406 -0.4948
  175MOL0     C23551   4.385   9.356   6.007  0.9059 -0.0321  0.1365
  175MOL0     C23552   4.366   9.493   5.931  0.5795  0.1727  0.6036
  175MOL0     C23553   4.223   9.507   5.921  0.2979  0.0696  0.0878
  175MOL0     C23554   4.102   9.518   5.894 -0.1759 -0.4528  0.3434
  175MOL0     C23555   4.723   9.000   6.234  0.3908  0.0642 -0.6903
  175MOL0     C23556   4.818   8.929   6.311 -0.1714  0.8722 -0.0214
  175MOL0     C23557   4.867   8.790   6.248 -0.4240 -0.4347  0.7249
  175MOL0     H23558   4.956   9.011   6.882  0.0637 -1.4833  2.7196
  175MOL0     H23559   5.117   9.008   7.056  1.2308 -0.4209  0.6901
  175MOL0     H23560   5.223   8.858   7.178 -1.0404 -2.1075  2.4185
  175MOL0     H23561   5.325   8.731   7.131  2.5254  1.0339  0.7201
  175MOL0     H23562   5.528   8.864   7.229 -0.7835  2.2484 -0.9847
  175MOL0     H23563   5.409   8.802   7.354  0.1983  0.0683  1.4964
  175MOL0     H23564   5.425   9.017   7.423 -1.0878 -0.6614  0.3372
  175MOL0     H23565   5.306   9.037   7.293 -0.5413 -0.8264  1.3326
  175MOL0     H23566   5.612   9.072   7.243  0.1348  0.9763  3.2520
  175MOL0     H23567   5.493   9.098   7.125 -0.5389  1.8046 -0.4260
  175MOL0     H23568   5.495   9.237   7.392 -0.7185 -0.5825  0.0717
  175MOL0     H23569   5.570   9.307   7.245  2.8217  0.4780  3.9906
  175MOL0     H23570   5.272   9.280   7.269  0.2674 -0.7175 -1.4812
  175MOL0     H23571   5.367   9.419   7.248  0.9817  0.3195 -0.2480
  175MOL0     H23572   5.321   9.211   7.038  1.7036 -0.7580 -0.5032
  175MOL0     H23573   5.464   9.308   7.029 -0.4574  1.8378 -0.9150
  175MOL0     H23574   5.344   9.515   7.014 -2.0284  0.9968 -2.0099
  175MOL0     H23575   5.263   9.410   6.909 -0.6764 -1.2934 -0.0771
  175MOL0     H23576   5.186   9.603   7.244 -3.3158  0.5508  2.5180
  175MOL0     H23577   4.993   9.717   7.321  1.2601 -1.8000  0.6181
  175MOL0     H23578   4.834   9.675   7.265  0.8743  4.1534  0.2318
  175MOL0     H23579   4.859   9.459   7.420 -2.0967  1.8220 -0.4698
  175MOL0     H23580   5.013   9.549   7.481  0.3389  0.8217  1.5808
  175MOL0     H23581   4.712   9.644   7.477 -1.8846 -2.8319  1.6333
  175MOL0     H23582   4.857   9.710   7.559  0.5671  0.7754 -0.8206
  175MOL0     H23583   4.722   9.439   7.614  3.4451 -1.1351 -1.4279
  175MOL0     H23584   4.695   9.573   7.728 -0.0557  2.1674 -0.0144
  175MOL0     H23585   4.836   9.741   7.805 -1.0671 -3.0046 -1.4425
  175MOL0     H23586   4.985   9.858   7.945 -2.6668  0.6875 -3.0792
  175MOL0     H23587   5.342  10.098   8.113 -1.1372  1.7232  2.7333
  175MOL0     H23588   5.532  10.135   8.266 -0.3045  0.2315 -2.0275
  175MOL0     H23589   5.633  10.184   8.443  0.4995  0.2083 -0.3136
  175MOL0     H23590   5.736  10.118   8.565  0.5283 -0.8167  0.2165
  175MOL0     H23591   5.849   9.971   8.411 -0.1337 -0.7938 -1.9130
  175MOL0     H23592   5.754  10.032   8.278  0.1507 -2.8554  0.5009
  175MOL0     H23593   5.966  10.167   8.436  0.4941 -2.7574 -0.7253
  175MOL0     H23594   5.971  10.146   8.266 -0.7232 -2.0580  0.0402
  175MOL0     H23595   5.800  10.338   8.432  2.3296  0.3450  1.1288
  175MOL0     H23596   5.778  10.321   8.256  0.6174 -0.4669 -0.0088
  175MOL0     H23597   6.004  10.362   8.209 -0.7697 -2.5904  0.5600
  175MOL0     H23598   6.041  10.377   8.391  0.6954 -0.7826 -1.2384
  175MOL0     H23599   6.039  10.590   8.251  0.8732  0.6643  0.2142
  175MOL0     H23600   5.867  10.565   8.244  0.6156  0.5401 -0.4387
  175MOL0     H23601   6.021  10.611   8.506  1.4806  1.4061 -2.0455
  175MOL0     H23602   5.850  10.577   8.503  0.4693  1.5049  2.1737
  175MOL0     H23603   5.806  10.797   8.381  0.8277  0.3037 -0.0060
  175MOL0     H23604   5.882  10.786   8.546 -3.1978 -2.9355  0.0376
  175MOL0     H23605   5.390   9.808   8.518  1.5873  0.2182  0.2190
  175MOL0     H23606   5.225   9.770   8.367  0.7180 -0.9397  1.8191
  175MOL0     H23607   5.251   9.516   7.977  0.9826  1.4536  0.1254
  175MOL0     H23608   5.090   9.393   7.819 -0.2637  0.1602 -1.5822
  175MOL0     H23609   5.401   8.819   6.805 -1.2473 -1.9965  0.8938
  175MOL0     H23610   5.240   8.886   6.602 -1.6634 -0.0348 -0.0550
  175MOL0     H23611   4.804   9.141   6.582 -1.0579  3.2727 -0.6955
  175MOL0     H23612   4.646   9.256   6.419 -4.6140 -0.8583 -3.8481
  175MOL0     H23613   4.736   9.293   6.105 -1.0504 -0.7444 -4.0437
  175MOL0     H23614   4.606   9.376   6.199  0.5801  1.9118 -2.0283
  175MOL0     H23615   4.549   9.223   5.944 -0.5683 -0.3474 -0.5771
  175MOL0     H23616   4.596   9.399   5.940  1.0551 -0.6919 -0.2396
  175MOL0     H23617   4.351   9.351   6.111  1.0080 -0.2558  0.1604
  175MOL0     H23618   4.327   9.281   5.952  1.1178  0.6589 -1.0729
  175MOL0     H23619   4.413   9.575   5.987  0.4873 -0.0037  0.9449
  175MOL0     H23620   4.405   9.509   5.830  0.1072  1.0571  0.5514
  175MOL0     H23621   4.000   9.547   5.880  0.4027  0.8340 -1.5672
  175MOL0     H23622   4.680   8.955   6.145  1.5954 -0.3791 -1.0727
  175MOL0     H23623   4.919   8.724   6.318 -0.6137 -2.7148 -1.1468
  175MOL0     H23624   4.777   8.744   6.207 -0.0405  0.7203 -1.5551
  175MOL0     H23625   4.950   8.812   6.180  1.8341  0.1426  3.4682
  176MOL0     O23626   0.858   6.476   8.578  0.0515 -0.3044 -0.3713
  176MOL0     C23627   0.936   6.380   8.591 -0.7041 -0.7373 -0.2919
  176MOL0     O23628   0.905   6.271   8.668  0.6368  0.0798 -0.7128
  176MOL0     C23629   0.782   6.264   8.727  0.3286  0.1861 -0.4834
  176MOL0     C23630   0.702   6.159   8.699  0.9367  0.0332 -0.3175
  176MOL0     C23631   0.562   6.158   8.745 -0.3929  0.4687  0.2982
  176MOL0     C23632   0.524   6.257   8.838  0.4233 -0.7584 -0.0320
  176MOL0     O23633   0.391   6.267   8.870 -0.0551  0.0291 -0.2843
  176MOL0     C23634   0.286   6.271   8.774  0.0856 -0.2137  0.0630
  176MOL0     C23635   0.157   6.282   8.853 -0.5129  0.1208 -0.5996
  176MOL0     C23636   0.137   6.151   8.942 -1.1340 -0.2919  0.2138
  176MOL0     C23637   0.006   6.167   9.009  0.0976 -0.0124  0.0089
  176MOL0     C23638   0.001   6.078   9.135  0.9555 -0.3707  0.1632
  176MOL0     C23639   0.002   5.920   9.108 -0.7585 -0.5223 -0.1519
  176MOL0     C23640  -0.134   5.871   9.062  0.7908 -0.1828  1.1511
  176MOL0     C23641  -0.129   5.721   9.018  0.1764  0.4986 -0.0128
  176MOL0     N23642  -0.261   5.656   8.985 -0.1800  0.0676  0.0912
  176MOL0     C23643  -0.357   5.625   9.082  0.0403  0.5297 -0.6748
  176MOL0     C23644  -0.448   5.558   9.018  0.3986 -0.3361  1.0000
  176MOL0     C23645  -0.576   5.500   9.070  0.0323 -0.6004 -0.3969
  176MOL0     C23646  -0.677   5.611   9.121  0.3241  0.1805 -0.7421
  176MOL0     C23647  -0.812   5.545   9.148 -0.0044 -0.0799 -0.0688
  176MOL0     C23648  -0.903   5.642   9.225  0.1396 -0.3366 -0.3208
  176MOL0     O23649  -1.022   5.575   9.264  0.4992 -0.1186 -0.0580
  176MOL0     C23650  -1.141   5.616   9.203 -0.2906  0.0072  1.4508
  176MOL0     C23651  -1.252   5.558   9.259  0.5886 -0.0904  0.0621
  176MOL0     C23652  -1.382   5.610   9.219 -0.4126  0.1617  0.5438
  176MOL0     C23653  -1.388   5.710   9.112  0.3261  0.6967  0.0262
  176MOL0     C23654  -1.516   5.775   9.074 -0.2910 -0.9256 -0.3069
  176MOL0     O23655  -1.633   5.715   9.122  0.0535  0.1665  0.9563
  176MOL0     C23656  -1.759   5.763   9.101 -0.2065 -0.9062 -0.3387
  176MOL0     C23657  -1.777   5.902   9.107  0.0895 -0.0275  0.6852
  176MOL0     C23658  -1.911   5.945   9.083 -0.1775 -0.1972  0.0977
  176MOL0     C23659  -2.013   5.854   9.041 -0.2626  0.3172 -0.6446
  176MOL0     O23660  -2.145   5.890   9.040 -0.0962  0.0439  0.0570
  176MOL0     C23661  -2.190   5.977   8.938  0.6475 -0.3533 -0.1285
  176MOL0     C23662  -2.315   5.923   8.870 -0.7563  0.4531 -0.2497
  176MOL0     C23663  -2.351   6.032   8.763 -0.1565  0.7435 -0.1556
  176MOL0     C23664  -2.482   6.000   8.688 -0.8802  0.4165  0.8315
  176MOL0     C23665  -2.523   6.120   8.604  0.6370 -0.0177  0.3485
  176MOL0     C23666  -2.660   6.094   8.532 -1.1421  0.0656  0.3115
  176MOL0     C23667  -2.652   5.957   8.462 -0.1883 -0.6310  0.1332
  176MOL0     C23668  -2.760   5.961   8.345  0.4497 -0.1331  0.2981
  176MOL0    Cl23669  -2.731   6.068   8.202 -0.4036 -0.2395  0.2736
  176MOL0     C23670  -1.989   5.715   9.022  0.0054  0.4119 -0.0249
  176MOL0     C23671  -1.860   5.675   9.053  0.6671  0.3422 -0.8034
  176MOL0     O23672  -1.516   5.868   8.993 -0.3983  0.4854 -0.7476
  176MOL0     C23673  -1.270   5.746   9.047 -0.4259 -0.8626 -0.2480
  176MOL0     C23674  -1.145   5.703   9.094 -0.6572  0.2782 -0.4743
  176MOL0     N23675  -0.415   5.549   8.878  0.1814  0.2468 -0.0426
  176MOL0     N23676  -0.300   5.609   8.866  0.1849  0.6703  0.0239
  176MOL0     C23677   0.617   6.354   8.886 -0.0633  0.4032  0.1089
  176MOL0     C23678   0.743   6.356   8.822 -0.2775  0.0376 -0.5950
  176MOL0     C23679   1.077   6.409   8.538  0.8089  0.0970  1.0104
  176MOL0     C23680   1.097   6.506   8.444  0.9571 -0.1838 -0.2577
  176MOL0     C23681   1.227   6.542   8.407  0.1624  0.1485 -0.0833
  176MOL0     C23682   1.347   6.482   8.451  0.3039  0.4372 -0.8577
  176MOL0     O23683   1.468   6.532   8.409  0.8935 -0.1651 -0.0638
  176MOL0     C23684   1.587   6.487   8.470  0.4523  0.6533 -0.0864
  176MOL0     C23685   1.698   6.540   8.373  0.4752 -0.6555 -0.1991
  176MOL0     C23686   1.721   6.449   8.254 -0.6731  0.3326 -0.0106
  176MOL0     C23687   1.809   6.512   8.151 -0.5931  0.1507  1.2118
  176MOL0     C23688   1.835   6.421   8.043 -0.2936 -0.8377  0.1091
  176MOL0     C23689   1.859   6.349   7.954 -1.3306  0.4712 -0.0292
  176MOL0     C23690   1.314   6.374   8.534  0.0016  0.3780  1.5290
  176MOL0     C23691   1.187   6.328   8.578 -0.4535 -1.1680 -0.6247
  176MOL0     C23692   1.193   6.204   8.666 -0.0451  0.4696 -0.7124
  176MOL0     H23693   0.734   6.076   8.638  1.4246  0.3885 -0.5463
  176MOL0     H23694   0.491   6.079   8.724  1.4053 -2.3116  3.6375
  176MOL0     H23695   0.290   6.356   8.706 -2.9819 -0.1424 -0.1926
  176MOL0     H23696   0.292   6.177   8.718  1.4541 -0.3918  0.4792
  176MOL0     H23697   0.068   6.290   8.789 -1.7839 -1.2555  0.9084
  176MOL0     H23698   0.169   6.363   8.925 -1.3847 -0.4225  0.1688
  176MOL0     H23699   0.210   6.129   9.020 -1.9153 -1.0877  0.7317
  176MOL0     H23700   0.138   6.065   8.874  0.0556 -1.2638  1.4008
  176MOL0     H23701  -0.008   6.269   9.046  2.4747 -0.4382  2.3333
  176MOL0     H23702  -0.064   6.146   8.927 -1.6339  1.7048  0.9837
  176MOL0     H23703   0.086   6.102   9.200  2.3119 -1.3968 -1.1687
  176MOL0     H23704  -0.089   6.115   9.187  1.6924  0.8786  0.6145
  176MOL0     H23705   0.091   5.891   9.051  2.2156 -2.6071  4.8713
  176MOL0     H23706   0.028   5.869   9.202 -1.3829 -1.3583 -0.4177
  176MOL0     H23707  -0.186   5.933   8.988 -0.4985 -0.2688  1.9561
  176MOL0     H23708  -0.206   5.872   9.145 -2.9274 -1.2716 -1.7801
  176MOL0     H23709  -0.055   5.711   8.938 -1.2755  1.9712 -1.6106
  176MOL0     H23710  -0.082   5.665   9.100 -1.8707 -0.5887  0.4721
  176MOL0     H23711  -0.342   5.645   9.188  1.1578 -0.7102 -0.5679
  176MOL0     H23712  -0.620   5.444   8.987 -0.5463 -1.4965  0.4927
  176MOL0     H23713  -0.567   5.428   9.152  2.7404 -0.5767 -0.6019
  176MOL0     H23714  -0.636   5.664   9.207  1.1180  0.0471 -1.0239
  176MOL0     H23715  -0.699   5.678   9.038  0.9361 -2.5191 -3.2750
  176MOL0     H23716  -0.790   5.463   9.217 -0.6285 -0.0180  0.2079
  176MOL0     H23717  -0.864   5.497   9.065  0.0908  0.6405 -0.5514
  176MOL0     H23718  -0.915   5.741   9.180  1.7191 -0.1438 -0.3455
  176MOL0     H23719  -0.851   5.671   9.316  0.2484  3.0812 -1.3075
  176MOL0     H23720  -1.252   5.486   9.340 -0.3696 -0.1226  0.0431
  176MOL0     H23721  -1.476   5.566   9.250 -0.8487  0.2324 -0.6292
  176MOL0     H23722  -1.708   5.973   9.153  2.0719 -0.2341 -1.7564
  176MOL0     H23723  -1.947   6.047   9.093 -1.9395 -0.7841  0.1079
  176MOL0     H23724  -2.223   6.069   8.986  0.1812  1.5398 -3.7330
  176MOL0     H23725  -2.119   6.012   8.863  2.3616 -0.3792  1.4056
  176MOL0     H23726  -2.284   5.828   8.826  0.7832  1.1995 -0.8481
  176MOL0     H23727  -2.391   5.900   8.945  0.6610  0.4725  1.2443
  176MOL0     H23728  -2.370   6.123   8.821  3.4931  1.1601  0.6426
  176MOL0     H23729  -2.275   6.051   8.686 -1.5962  1.0108 -1.5753
  176MOL0     H23730  -2.560   5.976   8.761  0.6484 -1.0829  2.0672
  176MOL0     H23731  -2.463   5.914   8.624 -0.2178 -0.0170  1.5866
  176MOL0     H23732  -2.445   6.134   8.528 -0.1130 -0.6042 -0.5465
  176MOL0     H23733  -2.529   6.207   8.671 -2.8393 -2.3783  3.5096
  176MOL0     H23734  -2.747   6.116   8.595 -1.0199 -1.2532  0.9601
  176MOL0     H23735  -2.668   6.165   8.449 -2.3519 -1.1623 -0.6517
  176MOL0     H23736  -2.661   5.881   8.541 -0.4206  3.3352  4.3485
  176MOL0     H23737  -2.560   5.947   8.404 -0.5157 -1.1243 -0.3083
  176MOL0     H23738  -2.774   5.865   8.295 -2.1151  0.6166 -0.6142
  176MOL0     H23739  -2.861   5.985   8.381  1.2412  1.5190  1.5116
  176MOL0     H23740  -2.062   5.641   8.989 -1.1273  1.3396  0.3342
  176MOL0     H23741  -1.837   5.569   9.052  2.8092  0.7688 -2.2115
  176MOL0     H23742  -1.281   5.806   8.957 -3.6183 -0.9066  0.0045
  176MOL0     H23743  -1.056   5.749   9.052  0.0218 -1.3147 -0.8488
  176MOL0     H23744   0.591   6.423   8.966 -3.3325 -0.1563 -0.3608
  176MOL0     H23745   0.816   6.429   8.856 -1.6910  0.3805  2.0186
  176MOL0     H23746   1.010   6.562   8.409  1.7191  0.8690 -0.5089
  176MOL0     H23747   1.233   6.641   8.363  3.7766  0.0556 -0.0932
  176MOL0     H23748   1.611   6.381   8.481  0.0033  0.8448  4.6102
  176MOL0     H23749   1.601   6.538   8.566 -0.5598  1.4807 -0.3597
  176MOL0     H23750   1.795   6.558   8.420 -0.4444  1.0629  1.1135
  176MOL0     H23751   1.665   6.639   8.341 -0.4570 -0.1165  2.2187
  176MOL0     H23752   1.628   6.421   8.203 -1.4350 -0.6979  1.8575
  176MOL0     H23753   1.774   6.359   8.288  0.4122  1.1081  0.4154
  176MOL0     H23754   1.765   6.602   8.107  1.3674  1.0928  1.0733
  176MOL0     H23755   1.905   6.540   8.195 -0.2190  0.8818  0.0033
  176MOL0     H23756   1.874   6.263   7.891 -1.8401  0.3557  0.0050
  176MOL0     H23757   1.400   6.315   8.564  0.1219  0.2829  0.9922
  176MOL0     H23758   1.130   6.136   8.608  1.5482 -0.5973 -1.2461
  176MOL0     H23759   1.288   6.151   8.676 -1.6193 -2.0329  3.2026
  176MOL0     H23760   1.150   6.234   8.762  0.6772  0.9827 -0.5417
  177MOL0     O23761   2.246   1.887   0.455 -0.2428 -0.2551  0.0363
  177MOL0     C23762   2.202   1.882   0.567 -0.8970  0.1412 -0.4508
  177MOL0     O23763   2.167   1.761   0.635 -1.1948 -0.1065  0.0065
  177MOL0     C23764   2.191   1.642   0.582 -0.3449 -0.2011  0.1762
  177MOL0     C23765   2.235   1.543   0.668  0.3505  0.2597  0.1243
  177MOL0     C23766   2.245   1.403   0.624 -0.0135 -0.7385 -0.1653
  177MOL0     C23767   2.208   1.368   0.497 -0.6783 -0.0552  0.0974
  177MOL0     O23768   2.222   1.243   0.446  0.0873  0.0149 -0.2842
  177MOL0     C23769   2.224   1.136   0.541 -0.0978 -0.6853 -0.2487
  177MOL0     C23770   2.181   1.007   0.475  0.1173 -0.8409 -0.3832
  177MOL0     C23771   2.052   1.024   0.394 -1.1048  0.4046 -0.3462
  177MOL0     C23772   1.996   0.882   0.362  0.6668  0.8371  0.2595
  177MOL0     C23773   1.872   0.891   0.274  0.0330  0.1390 -0.5937
  177MOL0     C23774   1.753   0.958   0.355 -0.6090 -0.1405 -0.3803
  177MOL0     C23775   1.619   0.943   0.295  0.6399 -0.1559  1.1250
  177MOL0     C23776   1.613   0.989   0.148 -0.2248  0.4682  0.0939
  177MOL0     N23777   1.639   1.128   0.141  0.3662 -0.4250  0.6187
  177MOL0     C23778   1.564   1.230   0.193  0.7348  0.2826  0.1407
  177MOL0     C23779   1.626   1.349   0.164  0.4372 -0.0475  0.6520
  177MOL0     C23780   1.589   1.481   0.219  0.3546 -0.4724 -0.7322
  177MOL0     C23781   1.718   1.559   0.253 -0.1316 -0.9372  0.3291
  177MOL0     C23782   1.692   1.703   0.307  0.8766 -0.0745  0.7374
  177MOL0     C23783   1.826   1.791   0.304 -0.6388 -0.1558 -0.9494
  177MOL0     O23784   1.803   1.912   0.381  0.5033  0.1874 -0.0753
  177MOL0     C23785   1.818   1.913   0.515  0.1034 -0.3365 -0.0617
  177MOL0     C23786   1.794   2.036   0.575  0.2064 -0.8857  0.3928
  177MOL0     C23787   1.813   2.065   0.708  0.8237  0.8828  0.1984
  177MOL0     C23788   1.858   1.959   0.796 -0.2866  0.3660  0.4303
  177MOL0     C23789   1.863   1.978   0.941 -0.7073  0.0744 -0.9533
  177MOL0     O23790   1.811   2.084   0.991  0.2858  0.2208 -0.0140
  177MOL0     C23791   1.806   2.088   1.130 -0.1554  1.2315 -0.1111
  177MOL0     C23792   1.683   2.083   1.200  0.3540 -1.0422 -0.3035
  177MOL0     C23793   1.682   2.080   1.343 -0.5736 -0.1989  0.7164
  177MOL0     C23794   1.807   2.097   1.412  0.7369 -0.1121  0.1483
  177MOL0     O23795   1.811   2.115   1.543 -1.0489 -0.3554 -0.3433
  177MOL0     C23796   1.781   2.249   1.588 -0.1533 -0.3604 -0.0418
  177MOL0     C23797   1.910   2.334   1.562  0.7612 -0.0016  1.1598
  177MOL0     C23798   2.026   2.296   1.647 -0.9551 -0.3042 -0.2809
  177MOL0     C23799   2.137   2.414   1.623 -0.4132  0.3123 -0.0081
  177MOL0     C23800   2.272   2.370   1.685 -1.1369  0.4093 -0.1081
  177MOL0     C23801   2.384   2.465   1.650  0.3444 -0.2840  0.6699
  177MOL0     C23802   2.360   2.616   1.669  0.7164  0.0677  0.5277
  177MOL0     C23803   2.485   2.693   1.708  0.9503 -0.1263  0.0589
  177MOL0    Cl23804   2.580   2.685   1.557  0.3490 -0.2419 -0.1004
  177MOL0     C23805   1.925   2.099   1.342  0.8328  0.3706 -0.5611
  177MOL0     C23806   1.924   2.092   1.202  0.0384 -0.3020 -0.6602
  177MOL0     O23807   1.910   1.881   1.006  0.1259  0.2467  0.4429
  177MOL0     C23808   1.885   1.830   0.735  0.7721 -0.9510 -0.5259
  177MOL0     C23809   1.871   1.811   0.597 -0.0727  0.7107 -0.4145
  177MOL0     N23810   1.730   1.323   0.077  0.3885  0.3535  0.0456
  177MOL0     N23811   1.739   1.191   0.078 -0.2855 -0.1389 -0.4526
  177MOL0     C23812   2.173   1.461   0.409  0.5774  0.5899  0.7969
  177MOL0     C23813   2.156   1.597   0.448  0.7986  0.3702 -0.5948
  177MOL0     C23814   2.171   2.011   0.634 -0.5142  0.1512  0.8637
  177MOL0     C23815   2.162   2.009   0.779  0.3144  0.7701  0.8923
  177MOL0     C23816   2.150   2.138   0.846  0.3255 -0.1374  0.2154
  177MOL0     C23817   2.146   2.259   0.773  0.3817 -0.1391  0.6815
  177MOL0     O23818   2.132   2.378   0.847 -0.2894 -0.2598  0.2626
  177MOL0     C23819   2.144   2.515   0.784 -1.2118  0.6896  0.7101
  177MOL0     C23820   2.008   2.588   0.794 -0.1653 -0.1639  0.9374
  177MOL0     C23821   2.043   2.733   0.796 -0.3911  0.1820 -0.8479
  177MOL0     C23822   1.929   2.827   0.813  0.4882 -0.2645  0.4497
  177MOL0     C23823   1.805   2.795   0.736 -0.0756 -0.5965  0.5643
  177MOL0     C23824   1.718   2.771   0.658 -0.3443 -0.5111 -0.0620
  177MOL0     C23825   2.151   2.257   0.633 -0.8766 -0.0969 -0.0829
  177MOL0     C23826   2.169   2.137   0.566  0.2530 -0.3284  0.0192
  177MOL0     C23827   2.162   2.135   0.412  0.1542 -0.1496 -0.2362
  177MOL0     H23828   2.265   1.564   0.770  0.1329 -0.3920  0.3281
  177MOL0     H23829   2.270   1.325   0.694  0.3235 -1.4707 -1.0788
  177MOL0     H23830   2.324   1.121   0.583  0.5781  2.0599 -0.6734
  177MOL0     H23831   2.151   1.169   0.615 -0.5397  1.7042 -1.6358
  177MOL0     H23832   2.174   0.930   0.552 -1.4620 -1.0215 -0.6769
  177MOL0     H23833   2.263   0.997   0.403 -0.4674 -1.0852 -1.0218
  177MOL0     H23834   2.055   1.091   0.307  1.0392  2.7612  1.4010
  177MOL0     H23835   1.983   1.076   0.461  1.0712  2.4453  0.4338
  177MOL0     H23836   2.073   0.827   0.307 -0.5267  0.2935 -0.9172
  177MOL0     H23837   1.972   0.822   0.450 -2.5657  0.0892 -0.9739
  177MOL0     H23838   1.898   0.951   0.187 -0.5355  1.5412  0.1768
  177MOL0     H23839   1.838   0.796   0.232 -0.6878  0.6130 -1.1139
  177MOL0     H23840   1.747   0.911   0.453 -0.6922  1.0444  0.1911
  177MOL0     H23841   1.776   1.062   0.377  1.7693 -0.4372 -1.1252
  177MOL0     H23842   1.540   1.000   0.344 -3.2589 -1.2631 -3.1607
  177MOL0     H23843   1.599   0.836   0.301  0.9395 -0.3330 -0.5079
  177MOL0     H23844   1.679   0.927   0.086 -0.9077 -0.7723  0.5675
  177MOL0     H23845   1.513   0.964   0.111 -0.1207  0.3011 -0.0804
  177MOL0     H23846   1.480   1.208   0.258  0.5862 -2.8120 -0.8935
  177MOL0     H23847   1.528   1.543   0.153  3.4471 -0.4300 -3.8432
  177MOL0     H23848   1.544   1.464   0.317  1.1863 -1.3087 -0.4859
  177MOL0     H23849   1.787   1.516   0.326  2.2394 -3.6571 -3.1960
  177MOL0     H23850   1.777   1.574   0.162  0.4998  0.4901  0.9313
  177MOL0     H23851   1.655   1.693   0.410  0.5228 -0.7797  0.5492
  177MOL0     H23852   1.616   1.762   0.256 -0.7293 -1.1333  1.7876
  177MOL0     H23853   1.839   1.824   0.201 -0.2885 -0.7781 -1.1095
  177MOL0     H23854   1.916   1.739   0.337 -1.4581 -1.3264 -0.4535
  177MOL0     H23855   1.761   2.120   0.514 -0.5250 -0.5264  1.2540
  177MOL0     H23856   1.785   2.159   0.754 -1.3509 -0.1648  1.1572
  177MOL0     H23857   1.597   2.087   1.134  1.4632  2.4619 -1.7006
  177MOL0     H23858   1.583   2.066   1.387 -1.6270  0.7416 -1.2153
  177MOL0     H23859   1.694   2.290   1.535 -0.6087 -3.1749 -1.6442
  177MOL0     H23860   1.756   2.243   1.694  0.7914  1.2929  0.3188
  177MOL0     H23861   1.943   2.324   1.459 -0.6269  0.5418  0.6388
  177MOL0     H23862   1.878   2.437   1.576 -1.4899 -0.1675 -1.8466
  177MOL0     H23863   2.006   2.306   1.754 -2.8044  3.1219 -0.8178
  177MOL0     H23864   2.057   2.192   1.633 -0.4917 -0.2089 -0.0145
  177MOL0     H23865   2.091   2.499   1.673 -1.7831 -1.2571  1.5488
  177MOL0     H23866   2.146   2.436   1.516 -2.1885 -0.4609 -0.3551
  177MOL0     H23867   2.296   2.270   1.648 -0.0047  0.3985  0.5765
  177MOL0     H23868   2.271   2.349   1.793  6.8834  1.9575  0.9276
  177MOL0     H23869   2.461   2.434   1.722 -0.6459  0.2685  2.0008
  177MOL0     H23870   2.425   2.450   1.550  0.1668  2.7485  0.0556
  177MOL0     H23871   2.295   2.626   1.756  1.8191  0.3910  1.3401
  177MOL0     H23872   2.310   2.651   1.578  0.5969 -3.3653 -0.8887
  177MOL0     H23873   2.450   2.795   1.728  1.6767 -0.0777  1.1451
  177MOL0     H23874   2.539   2.655   1.795  1.6044 -0.1870 -0.3668
  177MOL0     H23875   2.019   2.086   1.396  0.0276  0.1495  0.8177
  177MOL0     H23876   2.011   2.117   1.140 -0.5735  0.6184 -1.1763
  177MOL0     H23877   1.923   1.747   0.793  2.2685 -0.4141 -0.6946
  177MOL0     H23878   1.896   1.711   0.563 -2.5879 -0.7500  1.6432
  177MOL0     H23879   2.153   1.428   0.307  0.9858  3.1688 -0.1824
  177MOL0     H23880   2.122   1.667   0.372 -0.8006  0.1519 -0.1150
  177MOL0     H23881   2.165   1.916   0.834  1.5616  0.0544 -0.3344
  177MOL0     H23882   2.155   2.157   0.953  1.0736  4.0814 -0.3978
  177MOL0     H23883   2.173   2.520   0.679  0.1870  1.6804  1.1034
  177MOL0     H23884   2.230   2.569   0.825 -0.2195 -1.2766  1.3989
  177MOL0     H23885   1.953   2.553   0.883 -0.4000 -0.0189  0.8516
  177MOL0     H23886   1.956   2.562   0.701  0.8250  1.2069 -0.0284
  177MOL0     H23887   2.103   2.761   0.709 -0.6914  2.8703 -0.2943
  177MOL0     H23888   2.089   2.754   0.893 -0.7069 -0.0551 -0.6443
  177MOL0     H23889   1.903   2.829   0.919  3.3580  1.8998  1.2376
  177MOL0     H23890   1.961   2.926   0.777  2.5886 -1.1502 -0.2776
  177MOL0     H23891   1.651   2.745   0.578 -0.0398 -0.0084 -0.4827
  177MOL0     H23892   2.140   2.347   0.574  0.2501  0.0674 -0.0642
  177MOL0     H23893   2.081   2.068   0.382  1.4518 -2.2170  0.6591
  177MOL0     H23894   2.147   2.232   0.364 -4.7505 -1.2459 -1.5154
  177MOL0     H23895   2.262   2.104   0.379  0.9101  0.3576  1.4627
  178MOL0     O23896   2.420  10.050   9.945  0.2753  0.7455 -0.2027
  178MOL0     C23897   2.539  10.056   9.959 -0.5980 -1.1538 -0.7984
  178MOL0     O23898   2.612   9.992  10.052 -0.1295  0.2882 -0.1607
  178MOL0     C23899   2.545   9.893  10.127 -0.0632 -0.1918  0.6142
  178MOL0     C23900   2.584   9.761  10.127 -0.4865  0.4519 -0.2386
  178MOL0     C23901   2.526   9.673  10.222  0.2098  0.0383  0.7705
  178MOL0     C23902   2.423   9.706  10.312 -0.4494  0.1586 -0.6074
  178MOL0     O23903   2.377   9.621  10.413 -0.4567  0.0464 -0.7030
  178MOL0     C23904   2.353   9.488  10.384  0.7970 -0.1113 -0.8985
  178MOL0     C23905   2.209   9.441  10.428 -0.5016 -0.1086 -0.1817
  178MOL0     C23906   2.193   9.289  10.415 -0.2946 -0.1589  0.2951
  178MOL0     C23907   2.048   9.252  10.430 -0.1734 -0.3069 -0.8281
  178MOL0     C23908   1.956   9.329  10.330  0.4520 -0.5867 -0.1028
  178MOL0     C23909   1.821   9.276  10.308  0.7319 -0.2807  1.1803
  178MOL0     C23910   1.745   9.252  10.439 -0.4552  0.7058  0.1311
  178MOL0     C23911   1.587   9.275  10.414  0.5091 -0.2942  0.0975
  178MOL0     N23912   1.513   9.275  10.544 -0.5189  0.9377  0.1723
  178MOL0     C23913   1.382   9.298  10.566  0.4945  0.7309  0.0878
  178MOL0     C23914   1.359   9.285  10.695 -0.0340  0.0492 -0.0568
  178MOL0     C23915   1.230   9.295  10.777  0.0679 -0.0751  0.1837
  178MOL0     C23916   1.124   9.189  10.729 -0.0869 -0.6860  0.0845
  178MOL0     C23917   1.168   9.041  10.748  0.7135 -0.1621  0.1450
  178MOL0     C23918   1.102   8.953  10.638 -0.7525 -0.6262  0.2061
  178MOL0     O23919   1.107   8.811  10.664 -0.5259  0.0220 -0.2172
  178MOL0     C23920   1.060   8.731  10.570 -0.1385 -0.3919 -0.4838
  178MOL0     C23921   1.114   8.613  10.537 -0.0723  0.5560  0.7133
  178MOL0     C23922   1.062   8.517  10.449  1.3771 -0.7408 -0.1049
  178MOL0     C23923   0.932   8.541  10.393 -0.0411 -0.4145  0.7872
  178MOL0     C23924   0.879   8.439  10.303 -0.1837 -0.5482  0.5289
  178MOL0     O23925   0.741   8.413  10.316 -0.0352  1.1985  0.1283
  178MOL0     C23926   0.681   8.326  10.226 -0.4000  0.5087 -0.2065
  178MOL0     C23927   0.604   8.391  10.124 -0.0956 -0.4214  0.3680
  178MOL0     C23928   0.517   8.314  10.043  0.2543 -0.5963  0.3581
  178MOL0     C23929   0.517   8.178  10.058  0.4247 -0.0983 -0.4049
  178MOL0     O23930   0.428   8.094   9.988  0.3258 -0.8401  0.9571
  178MOL0     C23931   0.381   8.126   9.855  0.6480 -0.5388  0.0197
  178MOL0     C23932   0.336   7.989   9.792 -0.9952  0.8307 -0.1278
  178MOL0     C23933   0.447   7.940   9.685 -0.2029 -0.4684  2.2462
  178MOL0     C23934   0.577   7.913   9.762  0.5620 -0.4640  0.7773
  178MOL0     C23935   0.578   7.785   9.847  0.2084 -0.1819 -0.3293
  178MOL0     C23936   0.706   7.760   9.899  0.1177  0.7024 -0.9088
  178MOL0     C23937   0.694   7.630   9.985  0.3914  0.5122 -0.8959
  178MOL0     C23938   0.827   7.604  10.052 -0.0343 -1.4788  0.0227
  178MOL0    Cl23939   0.958   7.545   9.945  0.5327 -0.3263 -0.5121
  178MOL0     C23940   0.590   8.120  10.169 -0.0103 -0.4941 -0.1270
  178MOL0     C23941   0.677   8.190  10.243 -0.5364 -0.4812 -0.1759
  178MOL0     O23942   0.954   8.399  10.221  0.4218  0.7780  0.2691
  178MOL0     C23943   0.866   8.653  10.435  0.3618 -0.7053  0.2673
  178MOL0     C23944   0.929   8.750  10.519 -0.2542  0.3782 -0.1597
  178MOL0     N23945   1.486   9.254  10.756  0.4836  0.9026 -0.5529
  178MOL0     N23946   1.574   9.247  10.670 -0.1325 -0.0155  1.5329
  178MOL0     C23947   2.382   9.840  10.298  0.3712  0.3529 -0.5532
  178MOL0     C23948   2.439   9.931  10.205 -0.2080 -0.3674 -0.4291
  178MOL0     C23949   2.616  10.154   9.869 -0.4118 -0.1424 -0.1327
  178MOL0     C23950   2.749  10.167   9.907 -0.7242 -0.7139  0.0101
  178MOL0     C23951   2.831  10.254   9.835  0.0271  0.7810 -0.5259
  178MOL0     C23952   2.782  10.340   9.744  0.2088  0.7633  0.0403
  178MOL0     O23953   2.883  10.411   9.687 -0.4297 -0.6691  0.1693
  178MOL0     C23954   2.846  10.531   9.609 -0.0870  0.3412  0.4910
  178MOL0     C23955   2.969  10.620   9.569  0.8289  0.1995 -1.3066
  178MOL0     C23956   2.946  10.700   9.438  1.0523  0.9543 -0.3416
  178MOL0     C23957   3.062  10.789   9.407 -0.2678 -0.2852 -0.4470
  178MOL0     C23958   3.049  10.855   9.277 -0.1983  0.0545 -0.6426
  178MOL0     C23959   3.042  10.918   9.175  0.6155 -0.6142 -0.2327
  178MOL0     C23960   2.651  10.332   9.707 -0.1151 -0.2610 -0.4048
  178MOL0     C23961   2.564  10.237   9.761  0.5578 -0.8170 -0.4714
  178MOL0     C23962   2.419  10.229   9.724  0.2479 -0.2604 -0.2821
  178MOL0     H23963   2.665   9.711  10.076 -0.9446 -3.7459  2.6601
  178MOL0     H23964   2.561   9.572  10.244 -0.5376 -0.8681 -1.8166
  178MOL0     H23965   2.351   9.469  10.276  0.9627 -0.8570 -0.7759
  178MOL0     H23966   2.422   9.424  10.439 -0.5490 -1.3979 -0.6178
  178MOL0     H23967   2.142   9.493  10.360  1.7266  0.8507 -1.7839
  178MOL0     H23968   2.187   9.471  10.531 -0.1174 -2.7273  0.7402
  178MOL0     H23969   2.252   9.236  10.491 -0.2826  0.7791  0.9498
  178MOL0     H23970   2.228   9.247  10.320  0.0885  0.9498 -0.0726
  178MOL0     H23971   2.047   9.145  10.410  1.8523 -0.3460 -0.9487
  178MOL0     H23972   2.012   9.280  10.530  0.2575  2.6002 -1.3754
  178MOL0     H23973   1.936   9.428  10.371  4.9797  0.6377 -0.3379
  178MOL0     H23974   2.000   9.343  10.231  1.1201 -2.3204 -0.0835
  178MOL0     H23975   1.775   9.364  10.262  1.4421  0.0369  1.0662
  178MOL0     H23976   1.811   9.196  10.233 -0.0212  1.6763 -0.9394
  178MOL0     H23977   1.785   9.308  10.525  0.0548  0.1396  0.2704
  178MOL0     H23978   1.747   9.150  10.478 -0.3828  0.8335  0.4744
  178MOL0     H23979   1.572   9.372  10.367 -0.9093 -0.4932  0.1076
  178MOL0     H23980   1.547   9.198  10.348 -0.7148 -0.7520  1.3302
  178MOL0     H23981   1.295   9.320  10.504  1.2512  0.7846 -0.9777
  178MOL0     H23982   1.247   9.283  10.884  0.9598 -1.7316 -0.1062
  178MOL0     H23983   1.192   9.396  10.763 -0.7758 -0.6981 -2.8759
  178MOL0     H23984   1.027   9.207  10.777  0.5401 -0.2561  1.2228
  178MOL0     H23985   1.107   9.209  10.622 -0.7270  0.6597  0.4079
  178MOL0     H23986   1.119   9.017  10.842 -0.8077  0.5636 -0.4305
  178MOL0     H23987   1.276   9.033  10.734  0.6627 -1.4937  0.4435
  178MOL0     H23988   1.148   8.973  10.541  0.8137 -1.1771  0.7972
  178MOL0     H23989   0.996   8.978  10.635 -1.1228 -1.3186  3.6846
  178MOL0     H23990   1.217   8.607  10.571  0.2799  1.0820 -0.2128
  178MOL0     H23991   1.099   8.416  10.433 -2.3973 -2.7510  2.2470
  178MOL0     H23992   0.590   8.499  10.117  0.7719 -0.1781  1.9868
  178MOL0     H23993   0.451   8.350   9.964  0.1637 -1.4965  0.0187
  178MOL0     H23994   0.301   8.198   9.874  1.2244  0.1147  0.0607
  178MOL0     H23995   0.456   8.182   9.798 -0.2690  0.4823 -0.2179
  178MOL0     H23996   0.320   7.926   9.880 -1.2606  0.8944 -0.1304
  178MOL0     H23997   0.239   8.008   9.747 -0.9912  1.7053  0.1987
  178MOL0     H23998   0.416   7.850   9.630 -0.5619  2.7678 -3.6455
  178MOL0     H23999   0.460   8.015   9.607  1.6408 -0.9950  1.9988
  178MOL0     H24000   0.612   8.002   9.814 -1.2525  1.3116 -0.8785
  178MOL0     H24001   0.654   7.895   9.685 -0.5199  2.2147 -1.0529
  178MOL0     H24002   0.541   7.703   9.785 -0.6168  0.2895 -0.4666
  178MOL0     H24003   0.507   7.799   9.929  0.9807 -0.4961  0.4171
  178MOL0     H24004   0.778   7.742   9.819 -0.4324 -3.1625 -0.7333
  178MOL0     H24005   0.736   7.845   9.961 -1.8165 -0.7200  2.2325
  178MOL0     H24006   0.650   7.550   9.925  1.3855 -1.9776  1.4297
  178MOL0     H24007   0.624   7.637  10.069  0.9168 -2.4432 -0.0923
  178MOL0     H24008   0.874   7.689  10.104  0.1186 -2.5411  1.7075
  178MOL0     H24009   0.815   7.542  10.141  0.0088 -1.2247  0.2101
  178MOL0     H24010   0.578   8.016  10.196 -0.4412 -0.0935  1.3136
  178MOL0     H24011   0.726   8.154  10.333 -2.5796  0.2042  1.2622
  178MOL0     H24012   0.766   8.679  10.400 -0.5956 -1.4275  2.3399
  178MOL0     H24013   0.864   8.835  10.535 -1.2147 -0.0420 -1.6564
  178MOL0     H24014   2.304   9.880  10.362  0.5297 -1.6707  0.9739
  178MOL0     H24015   2.418  10.037  10.217 -0.1291 -0.6409  3.3734
  178MOL0     H24016   2.796  10.098   9.977  0.6541  0.1371 -0.0339
  178MOL0     H24017   2.929  10.262   9.880 -0.8140 -0.6812  1.7025
  178MOL0     H24018   2.786  10.599   9.670  0.7085  3.1047 -1.5999
  178MOL0     H24019   2.786  10.499   9.523 -1.0989  1.1498  0.8708
  178MOL0     H24020   3.049  10.549   9.544  1.7990  0.8056 -0.0141
  178MOL0     H24021   2.999  10.693   9.644 -0.6201  1.5453 -1.9907
  178MOL0     H24022   2.852  10.754   9.429  1.3730  1.4139 -1.0203
  178MOL0     H24023   2.944  10.619   9.365 -1.4942 -0.0005  0.6613
  178MOL0     H24024   3.064  10.866   9.485 -0.7409  1.7048 -2.3003
  178MOL0     H24025   3.159  10.739   9.412 -0.6837 -1.4091 -2.4771
  178MOL0     H24026   3.023  10.978   9.088  2.1353  1.0224  0.4827
  178MOL0     H24027   2.609  10.411   9.645 -2.4098  0.0359  1.4046
  178MOL0     H24028   2.354  10.255   9.808 -0.0247 -0.6385 -0.3752
  178MOL0     H24029   2.400  10.300   9.642 -0.9035  2.1301  1.9004
  178MOL0     H24030   2.401  10.128   9.688  1.0713  0.1704 -2.0290
  179MOL0     O24031   4.265   7.296   3.220 -0.2260 -0.8885 -0.1307
  179MOL0     C24032   4.307   7.347   3.324  0.2521 -0.0998  0.1310
  179MOL0     O24033   4.235   7.420   3.413  0.7826  0.2318 -0.3062
  179MOL0     C24034   4.109   7.455   3.395  0.8584 -0.5730  0.8592
  179MOL0     C24035   4.013   7.420   3.494 -0.0992  0.7898  0.3243
  179MOL0     C24036   3.881   7.464   3.477 -0.3106  0.0425 -0.9813
  179MOL0     C24037   3.835   7.516   3.355  0.2567  0.0032 -0.3386
  179MOL0     O24038   3.701   7.550   3.329  0.4241  0.5710  0.2630
  179MOL0     C24039   3.612   7.534   3.438 -0.1487 -0.5042 -0.2836
  179MOL0     C24040   3.470   7.564   3.382  0.6506 -0.2043 -0.4088
  179MOL0     C24041   3.360   7.574   3.496 -0.0014  0.5133  0.0445
  179MOL0     C24042   3.388   7.675   3.602 -0.3971 -0.5508 -0.2760
  179MOL0     C24043   3.276   7.667   3.706 -0.9677 -0.7356  0.1945
  179MOL0     C24044   3.256   7.804   3.774  0.4584 -0.5599  0.0429
  179MOL0     C24045   3.151   7.788   3.877  0.0283 -0.4911  0.0913
  179MOL0     C24046   3.110   7.922   3.950 -0.5201  0.4682  0.7906
  179MOL0     N24047   3.231   8.013   3.976  0.0032  1.1074  0.3186
  179MOL0     C24048   3.328   7.999   4.064  0.5434 -0.3863  0.7364
  179MOL0     C24049   3.417   8.090   4.021 -0.2494  0.4589  0.1136
  179MOL0     C24050   3.559   8.110   4.069 -0.9631  0.1967 -0.2296
  179MOL0     C24051   3.666   8.026   3.992  0.6668 -1.2288 -0.4058
  179MOL0     C24052   3.801   8.100   3.978 -0.8926  0.3595 -0.3909
  179MOL0     C24053   3.912   8.014   3.909 -0.1290  1.1419  0.3073
  179MOL0     O24054   4.023   8.097   3.868  0.3705  0.1652 -0.0213
  179MOL0     C24055   4.147   8.057   3.839 -0.3782 -0.3566  0.3795
  179MOL0     C24056   4.258   8.153   3.830  0.1221 -0.1864  0.0990
  179MOL0     C24057   4.389   8.114   3.808  0.4566  0.2514 -0.2540
  179MOL0     C24058   4.416   7.978   3.787 -0.4252  0.5132  0.0850
  179MOL0     C24059   4.559   7.931   3.763 -0.2804 -0.3827  0.2843
  179MOL0     O24060   4.578   7.804   3.728  0.5535  1.4329  0.0330
  179MOL0     C24061   4.698   7.743   3.743 -1.1839  0.3693  0.3269
  179MOL0     C24062   4.793   7.774   3.843  0.2296  0.4821 -0.3890
  179MOL0     C24063   4.928   7.735   3.837 -0.2933  0.2640  0.3495
  179MOL0     C24064   4.967   7.650   3.735  0.2931 -0.0494  0.4196
  179MOL0     O24065   5.092   7.594   3.726 -0.2810 -0.6674  0.6016
  179MOL0     C24066   5.128   7.518   3.840 -0.5704 -0.0193 -0.0536
  179MOL0     C24067   5.281   7.514   3.861  0.6297 -0.2680 -0.0944
  179MOL0     C24068   5.337   7.656   3.863 -0.1961 -0.4644  0.6751
  179MOL0     C24069   5.478   7.658   3.917 -0.7251  0.1699 -0.1679
  179MOL0     C24070   5.573   7.555   3.844  0.1558 -0.2506 -0.5677
  179MOL0     C24071   5.719   7.574   3.869 -0.7399 -0.9178  0.0119
  179MOL0     C24072   5.771   7.574   4.014  0.9331 -0.0755  0.0674
  179MOL0     C24073   5.923   7.602   4.029 -0.3397 -0.3872 -0.3998
  179MOL0    Cl24074   5.962   7.677   4.189  0.0962  0.1747 -0.2232
  179MOL0     C24075   4.883   7.620   3.639 -0.6963  0.1764 -0.1117
  179MOL0     C24076   4.751   7.668   3.636  0.5966  0.3595 -0.0180
  179MOL0     O24077   4.641   8.018   3.773  0.6305 -0.4696  0.3987
  179MOL0     C24078   4.311   7.882   3.801  0.1541  0.1353  0.3729
  179MOL0     C24079   4.176   7.922   3.823  0.0861  0.1678  0.5871
  179MOL0     N24080   3.378   8.158   3.909  0.2366  0.2323 -0.3439
  179MOL0     N24081   3.258   8.114   3.887  0.3052 -0.7529 -0.0122
  179MOL0     C24082   3.926   7.546   3.255  0.0692 -0.2168  0.3283
  179MOL0     C24083   4.065   7.514   3.275  0.2599  0.4836  1.5596
  179MOL0     C24084   4.456   7.339   3.356 -0.1829  0.4321 -0.7135
  179MOL0     C24085   4.508   7.400   3.473 -0.5688 -0.2545  0.2496
  179MOL0     C24086   4.637   7.373   3.522  1.0578 -0.1453 -0.8661
  179MOL0     C24087   4.735   7.318   3.435  0.4884 -0.9853 -0.7556
  179MOL0     O24088   4.869   7.329   3.462 -0.0966 -0.0953  0.2717
  179MOL0     C24089   4.972   7.367   3.361  0.4669  0.5185  1.0384
  179MOL0     C24090   5.116   7.342   3.390 -0.0787  0.2137  0.1143
  179MOL0     C24091   5.207   7.457   3.319  0.6637  0.1154  0.7935
  179MOL0     C24092   5.344   7.466   3.394 -0.1788  0.7437  0.6263
  179MOL0     C24093   5.432   7.352   3.353 -0.3302 -0.8134 -0.4703
  179MOL0     C24094   5.495   7.259   3.307  0.3039 -1.4486 -0.3469
  179MOL0     C24095   4.693   7.262   3.314  0.2190  0.9478  0.2977
  179MOL0     C24096   4.558   7.270   3.280 -0.1635  0.9106  0.8108
  179MOL0     C24097   4.531   7.176   3.159  0.8018 -0.4219 -0.0478
  179MOL0     H24098   4.045   7.371   3.585 -0.9287  1.0941  0.7847
  179MOL0     H24099   3.810   7.452   3.558 -0.2037  4.0839 -0.0485
  179MOL0     H24100   3.606   7.435   3.484 -2.1604 -0.8366 -1.1343
  179MOL0     H24101   3.638   7.610   3.512  0.2777  0.2220 -1.1657
  179MOL0     H24102   3.456   7.480   3.314  1.6536 -0.8927  0.2120
  179MOL0     H24103   3.474   7.660   3.328  0.7385  1.0270  1.6894
  179MOL0     H24104   3.350   7.484   3.558 -2.1111 -0.8722 -2.1451
  179MOL0     H24105   3.265   7.601   3.449  1.1002  2.7851 -1.0421
  179MOL0     H24106   3.487   7.667   3.646  0.0005  0.1510 -1.0142
  179MOL0     H24107   3.386   7.775   3.557  0.1877 -0.6648 -0.5563
  179MOL0     H24108   3.181   7.637   3.661 -2.0191  0.8807  1.2069
  179MOL0     H24109   3.294   7.587   3.779 -0.0850 -0.5324  0.2033
  179MOL0     H24110   3.344   7.824   3.835 -0.0443  0.5482  0.4220
  179MOL0     H24111   3.238   7.886   3.704 -0.8423 -0.3093  0.6436
  179MOL0     H24112   3.180   7.716   3.954  0.2894  0.7613  1.2030
  179MOL0     H24113   3.058   7.753   3.830 -2.0217  4.4958 -0.2505
  179MOL0     H24114   3.040   7.978   3.887 -0.9039  0.5179  1.2559
  179MOL0     H24115   3.062   7.897   4.045  1.1258 -0.9251  1.2945
  179MOL0     H24116   3.349   7.920   4.135 -0.7039  0.4631  2.1265
  179MOL0     H24117   3.583   8.216   4.068 -0.2241  0.0602  1.0582
  179MOL0     H24118   3.568   8.070   4.170  0.7104 -1.1037 -0.8438
  179MOL0     H24119   3.673   7.922   4.027  1.1768 -0.9088  0.4633
  179MOL0     H24120   3.634   8.018   3.888 -0.5139 -0.4584 -0.1174
  179MOL0     H24121   3.833   8.129   4.079 -3.7094 -1.1709  1.0668
  179MOL0     H24122   3.792   8.194   3.924 -0.2152  1.7139  1.7139
  179MOL0     H24123   3.873   7.970   3.817  1.8756  0.8720 -0.4573
  179MOL0     H24124   3.946   7.938   3.980  0.9776  1.9350  0.6553
  179MOL0     H24125   4.242   8.257   3.857  1.3552 -0.6920  3.1952
  179MOL0     H24126   4.462   8.194   3.813 -1.5237  2.1126  0.5026
  179MOL0     H24127   4.760   7.837   3.925  0.8613 -0.1950  0.4148
  179MOL0     H24128   4.998   7.776   3.908 -0.7577  0.1189  0.8960
  179MOL0     H24129   5.074   7.559   3.926  0.8177  1.1114  0.3349
  179MOL0     H24130   5.104   7.411   3.837  3.2951 -1.1899  2.4363
  179MOL0     H24131   5.309   7.459   3.951  0.4833  0.5306  0.4512
  179MOL0     H24132   5.330   7.457   3.782  0.2299 -0.5234 -0.1565
  179MOL0     H24133   5.338   7.688   3.758 -0.5789  0.6615  1.0098
  179MOL0     H24134   5.267   7.726   3.909 -0.5604 -1.6682  2.0118
  179MOL0     H24135   5.488   7.637   4.024  0.8141  0.4063 -0.2375
  179MOL0     H24136   5.522   7.757   3.898 -1.2321  0.3388 -0.4829
  179MOL0     H24137   5.555   7.562   3.736 -2.1330  2.4421 -0.1267
  179MOL0     H24138   5.546   7.455   3.878 -2.8555  0.8316  0.5683
  179MOL0     H24139   5.777   7.497   3.818 -0.2492  0.5882 -1.8071
  179MOL0     H24140   5.743   7.672   3.827 -1.0050 -0.3982  1.0209
  179MOL0     H24141   5.747   7.483   4.068  1.4399  0.9000  2.0099
  179MOL0     H24142   5.716   7.653   4.066  0.7136 -0.5161  0.5145
  179MOL0     H24143   5.991   7.520   4.005  1.0457  0.2577  1.1008
  179MOL0     H24144   5.946   7.674   3.950 -1.7255  1.0108  0.4065
  179MOL0     H24145   4.926   7.573   3.551 -1.4351  2.4755 -1.7980
  179MOL0     H24146   4.682   7.640   3.557  0.1164  1.6090 -0.0513
  179MOL0     H24147   4.315   7.775   3.788 -2.9887 -0.6264  3.9026
  179MOL0     H24148   4.094   7.852   3.813 -0.1685  0.7588 -2.5194
  179MOL0     H24149   3.883   7.587   3.165 -0.2645 -3.4464 -1.1403
  179MOL0     H24150   4.129   7.529   3.188 -2.6269 -1.7862 -1.1775
  179MOL0     H24151   4.438   7.456   3.536 -1.3566 -0.3277 -0.5341
  179MOL0     H24152   4.663   7.407   3.621  0.8043 -1.0278 -0.4916
  179MOL0     H24153   4.960   7.476   3.353  0.9824  0.4173 -2.5550
  179MOL0     H24154   4.956   7.330   3.260  1.1010 -3.0659  2.1355
  179MOL0     H24155   5.147   7.250   3.339 -0.7733  2.0012 -3.8607
  179MOL0     H24156   5.138   7.344   3.497 -1.1167  1.3623  0.3255
  179MOL0     H24157   5.158   7.553   3.339  2.3084  0.9135  1.1240
  179MOL0     H24158   5.208   7.451   3.210 -1.4519  2.5939  0.5404
  179MOL0     H24159   5.399   7.559   3.379  2.0643 -0.7477 -0.9331
  179MOL0     H24160   5.324   7.460   3.502  2.6003  0.1566  1.1716
  179MOL0     H24161   5.552   7.176   3.270 -0.0549 -2.1981  0.7316
  179MOL0     H24162   4.760   7.205   3.251 -0.5952 -1.9670  1.9007
  179MOL0     H24163   4.618   7.147   3.100 -0.1670 -2.7441 -0.4263
  179MOL0     H24164   4.485   7.084   3.194 -1.5308  0.6238 -0.1328
  179MOL0     H24165   4.465   7.228   3.089  2.4348 -0.8718 -2.0120
  180MOL0     O24166  10.451   9.891   8.751  0.8490  0.3386  0.0370
  180MOL0     C24167  10.513   9.829   8.667 -0.5246  0.4278 -1.1442
  180MOL0     O24168  10.648   9.860   8.634 -0.7547 -0.0228 -0.0488
  180MOL0     C24169  10.707   9.944   8.730  0.0455 -0.9461  0.7477
  180MOL0     C24170  10.694  10.083   8.715 -0.6276  0.2385  0.2755
  180MOL0     C24171  10.733  10.170   8.813  0.8740 -0.5288  0.1051
  180MOL0     C24172  10.795  10.118   8.930 -0.3653 -0.9026  0.0570
  180MOL0     O24173  10.853  10.199   9.026 -0.2025  0.6815  0.6824
  180MOL0     C24174  10.775  10.305   9.076 -0.0804 -0.0094 -1.3285
  180MOL0     C24175  10.861  10.382   9.183  0.0990  0.9888  0.6109
  180MOL0     C24176  10.785  10.498   9.248  0.1446  0.1435  0.4040
  180MOL0     C24177  10.779  10.475   9.400  0.8593 -0.4303  0.6957
  180MOL0     C24178  10.734  10.603   9.474  0.2461  1.0732 -0.6090
  180MOL0     C24179  10.731  10.558   9.625  0.1805 -0.8168 -0.5387
  180MOL0     C24180  10.661  10.667   9.714 -0.5433  0.2069  0.1088
  180MOL0     C24181  10.509  10.694   9.688 -0.3708  0.4991 -0.0106
  180MOL0     N24182  10.422  10.574   9.708 -1.3146  0.2731 -1.4244
  180MOL0     C24183  10.348  10.514   9.614 -0.4455 -0.7662  0.8313
  180MOL0     C24184  10.292  10.408   9.676 -0.1201 -0.6031  0.0894
  180MOL0     C24185  10.214  10.298   9.625 -0.2081  1.3979  0.6425
  180MOL0     C24186  10.065  10.321   9.620  0.1703  0.0761 -0.3551
  180MOL0     C24187   9.991  10.341   9.756 -0.9906 -0.3304  0.0576
  180MOL0     C24188   9.855  10.401   9.747 -0.1228  0.0883  0.0833
  180MOL0     O24189   9.763  10.299   9.706 -0.1795  0.0861 -0.3040
  180MOL0     C24190   9.629  10.336   9.703  0.1781  0.7742  0.4306
  180MOL0     C24191   9.567  10.453   9.757  0.0150  0.5853 -0.1681
  180MOL0     C24192   9.431  10.463   9.739  0.4938 -0.1526  0.1148
  180MOL0     C24193   9.352  10.367   9.679  0.2464  0.2824 -0.5493
  180MOL0     C24194   9.200  10.384   9.663  0.5221  0.7203  0.3299
  180MOL0     O24195   9.141  10.501   9.687  0.4813  0.7114  0.3358
  180MOL0     C24196   9.003  10.524   9.681  0.3379 -0.0178 -0.4813
  180MOL0     C24197   8.948  10.646   9.631 -0.1962  0.0809 -0.1766
  180MOL0     C24198   8.818  10.670   9.642  0.3019 -0.4521  0.1836
  180MOL0     C24199   8.725  10.572   9.692 -0.1784  0.1922 -0.7116
  180MOL0     O24200   8.592  10.612   9.695  0.3343 -0.0975  0.5511
  180MOL0     C24201   8.496  10.505   9.718 -0.6800  0.0113  0.0642
  180MOL0     C24202   8.361  10.540   9.658  0.4723  0.6915 -0.0476
  180MOL0     C24203   8.349  10.535   9.499 -0.0405  0.3218  0.2930
  180MOL0     C24204   8.445  10.632   9.426 -0.4232 -0.6833 -0.2518
  180MOL0     C24205   8.392  10.698   9.294  0.1353 -0.4127  0.1481
  180MOL0     C24206   8.313  10.606   9.197 -0.7151  1.0270  0.9606
  180MOL0     C24207   8.384  10.472   9.147 -0.3141  0.3430 -0.4270
  180MOL0     C24208   8.286  10.363   9.125  0.0194  0.3479  0.2623
  180MOL0    Cl24209   8.213  10.304   9.272  0.6253 -0.2932  0.3532
  180MOL0     C24210   8.773  10.450   9.730 -0.5624 -0.3678 -0.6276
  180MOL0     C24211   8.912  10.427   9.731 -0.0692  0.4183  0.0720
  180MOL0     O24212   9.141  10.275   9.646  0.5060 -1.1635 -0.8934
  180MOL0     C24213   9.413  10.250   9.644  0.9369  0.1359  0.5144
  180MOL0     C24214   9.552  10.235   9.654 -0.3134  0.0532 -0.0633
  180MOL0     N24215  10.353  10.394   9.799 -0.1917  0.4673  0.3420
  180MOL0     N24216  10.423  10.498   9.823 -0.2406  0.1120  0.2879
  180MOL0     C24217  10.805   9.984   8.947  0.4584  0.1829 -0.0007
  180MOL0     C24218  10.768   9.897   8.847 -0.6237  0.0338 -0.1318
  180MOL0     C24219  10.450   9.724   8.574 -0.6597 -0.1475 -0.3067
  180MOL0     C24220  10.522   9.677   8.454 -0.3976 -0.9003 -0.1086
  180MOL0     C24221  10.468   9.592   8.374  0.5342  0.8852 -0.9292
  180MOL0     C24222  10.344   9.535   8.396 -0.1564 -0.1755 -0.1186
  180MOL0     O24223  10.298   9.435   8.312 -0.0329  0.0148  0.0659
  180MOL0     C24224  10.174   9.368   8.336 -0.1356  0.7293 -0.8581
  180MOL0     C24225  10.121   9.292   8.212  0.9243 -0.1818  0.1492
  180MOL0     C24226   9.996   9.205   8.260  0.6639  0.2574  0.1526
  180MOL0     C24227   9.901   9.178   8.146 -0.5053  0.2093  0.2280
  180MOL0     C24228   9.842   9.040   8.140 -0.0602 -0.1466  0.6737
  180MOL0     C24229   9.778   8.940   8.137 -0.5685  0.0648 -0.1920
  180MOL0     C24230  10.271   9.580   8.502  0.3333  0.5627  0.1926
  180MOL0     C24231  10.324   9.669   8.595 -0.0466 -0.4754 -0.0071
  180MOL0     C24232  10.243   9.695   8.713  0.0391 -0.3441 -0.6746
  180MOL0     H24233  10.635  10.117   8.630 -0.1175  2.5742  0.7788
  180MOL0     H24234  10.711  10.276   8.803  1.5870 -0.3908 -0.0469
  180MOL0     H24235  10.739  10.381   9.006  2.8649  1.5250 -1.3383
  180MOL0     H24236  10.685  10.273   9.129 -1.0867  1.7433 -1.8950
  180MOL0     H24237  10.952  10.419   9.135  0.4201 -0.8441 -0.2710
  180MOL0     H24238  10.901  10.311   9.256  0.5789 -1.5061 -1.9303
  180MOL0     H24239  10.689  10.506   9.196  0.4399 -0.4045 -0.2358
  180MOL0     H24240  10.833  10.595   9.239  0.3516  0.1006  0.9890
  180MOL0     H24241  10.710  10.393   9.421 -3.3409  2.2749 -1.2519
  180MOL0     H24242  10.880  10.446   9.430  1.1486 -1.4051 -1.0857
  180MOL0     H24243  10.804  10.687   9.466  2.9514 -1.1106 -1.3450
  180MOL0     H24244  10.632  10.623   9.441 -1.9793 -2.8697  2.9237
  180MOL0     H24245  10.668  10.470   9.638 -1.0186  0.0060 -0.5597
  180MOL0     H24246  10.829  10.537   9.667 -0.3847 -1.4649  0.4883
  180MOL0     H24247  10.710  10.762   9.693  2.6118 -1.2194  0.4305
  180MOL0     H24248  10.690  10.643   9.817 -1.7335  0.4821  0.5261
  180MOL0     H24249  10.481  10.788   9.737  2.5883  2.2064 -1.2851
  180MOL0     H24250  10.492  10.706   9.581  1.3261  0.6891 -0.2896
  180MOL0     H24251  10.324  10.553   9.516  0.4816 -2.8246 -0.2874
  180MOL0     H24252  10.255  10.276   9.526 -0.4211  0.4522  0.7552
  180MOL0     H24253  10.237  10.206   9.680 -0.1272  1.3029  0.4552
  180MOL0     H24254  10.054  10.420   9.574  3.0548  0.6619  0.0472
  180MOL0     H24255  10.023  10.240   9.559  2.0844 -1.2630  0.0171
  180MOL0     H24256  10.052  10.405   9.821 -0.7166 -2.6417  2.2606
  180MOL0     H24257   9.991  10.247   9.813 -0.2213  0.7440  1.9268
  180MOL0     H24258   9.858  10.490   9.683  2.1278 -1.8903 -2.8686
  180MOL0     H24259   9.828  10.430   9.849 -2.4845 -1.4736 -0.0072
  180MOL0     H24260   9.628  10.534   9.797 -1.2258  0.9512  1.0673
  180MOL0     H24261   9.372  10.549   9.769  0.0332  0.6726 -2.8577
  180MOL0     H24262   9.023  10.712   9.589  1.5063 -1.7825 -0.2122
  180MOL0     H24263   8.782  10.770   9.618  1.9834 -0.4017 -2.4850
  180MOL0     H24264   8.532  10.409   9.680  0.3993  0.1646  0.6740
  180MOL0     H24265   8.477  10.499   9.825 -0.1327 -0.1628  0.1521
  180MOL0     H24266   8.288  10.472   9.704 -0.6184 -0.0163 -2.6537
  180MOL0     H24267   8.344  10.642   9.694  1.6825  0.1261  2.3876
  180MOL0     H24268   8.369  10.432   9.468 -2.7142 -0.4666  0.8810
  180MOL0     H24269   8.248  10.567   9.471 -0.2625 -0.9576 -0.4246
  180MOL0     H24270   8.544  10.594   9.399  0.3950  2.2533 -1.8054
  180MOL0     H24271   8.476  10.711   9.495 -3.2314  1.0886 -0.8786
  180MOL0     H24272   8.479  10.744   9.247  0.8132  2.2220  3.6248
  180MOL0     H24273   8.321  10.778   9.318  0.3879  0.6008 -2.2507
  180MOL0     H24274   8.217  10.573   9.237 -0.6366  0.5610  0.7643
  180MOL0     H24275   8.280  10.664   9.110 -2.0645 -0.0615  0.7257
  180MOL0     H24276   8.454  10.437   9.223  0.6915  1.6310 -0.7243
  180MOL0     H24277   8.435  10.485   9.052 -0.0012 -2.0467 -0.6456
  180MOL0     H24278   8.212  10.387   9.048  1.4273  0.0256 -1.2543
  180MOL0     H24279   8.355  10.285   9.092  2.3522  2.4627 -0.0707
  180MOL0     H24280   8.708  10.366   9.754 -1.1976  1.0755  3.3057
  180MOL0     H24281   8.941  10.335   9.781 -0.9676 -1.0715 -1.9786
  180MOL0     H24282   9.366  10.168   9.591  1.6575 -0.8579  1.3709
  180MOL0     H24283   9.598  10.138   9.634 -0.2019 -0.1000  0.9012
  180MOL0     H24284  10.861   9.950   9.033  1.9619  1.1680 -0.5443
  180MOL0     H24285  10.787   9.791   8.863  1.0576  0.4417  0.7864
  180MOL0     H24286  10.628   9.688   8.432 -0.5469 -0.7797 -0.7745
  180MOL0     H24287  10.530   9.561   8.291  2.3093 -0.3128  0.7574
  180MOL0     H24288  10.090   9.430   8.369  0.3681  0.2929  1.4267
  180MOL0     H24289  10.184   9.295   8.417  1.1312  1.0188 -0.7356
  180MOL0     H24290  10.197   9.227   8.169 -1.5073 -2.4180 -1.0794
  180MOL0     H24291  10.092   9.368   8.139  0.1241 -0.4388  0.1899
  180MOL0     H24292   9.935   9.267   8.325 -1.5820 -0.8933 -0.7405
  180MOL0     H24293  10.025   9.113   8.313  0.5915  0.3635  0.3765
  180MOL0     H24294   9.820   9.251   8.143 -1.8384 -0.9272  3.6428
  180MOL0     H24295   9.959   9.189   8.054  2.6822 -0.0362  2.0661
  180MOL0     H24296   9.722   8.850   8.153 -0.2935 -0.1213 -0.2629
  180MOL0     H24297  10.172   9.545   8.530  0.9972  1.6274  4.7314
  180MOL0     H24298  10.184   9.606   8.736 -0.7656  0.7808  2.0514
  180MOL0     H24299  10.302   9.699   8.806 -2.2423  2.9151  0.8165
  180MOL0     H24300  10.179   9.783   8.705  0.3302 -0.0988 -0.3499
  181MOL0     O24301   1.656   1.299   3.444 -0.7067  0.2025 -0.2192
  181MOL0     C24302   1.639   1.418   3.445  0.5647 -0.3027  0.1984
  181MOL0     O24303   1.717   1.512   3.406  0.5156  0.8368  0.1225
  181MOL0     C24304   1.847   1.479   3.430 -0.1317  0.3866  1.5458
  181MOL0     C24305   1.923   1.396   3.333  0.6841 -0.8495  0.7686
  181MOL0     C24306   2.051   1.364   3.356 -0.4317 -0.0990 -0.1408
  181MOL0     C24307   2.116   1.422   3.463 -0.4730  0.5464  0.1320
  181MOL0     O24308   2.246   1.388   3.462 -0.4575 -0.4734 -0.2945
  181MOL0     C24309   2.299   1.366   3.598  0.3404 -0.6895 -0.0527
  181MOL0     C24310   2.430   1.300   3.608 -0.3454  0.4742  0.1242
  181MOL0     C24311   2.431   1.159   3.551  0.1160  0.4729  0.6739
  181MOL0     C24312   2.358   1.048   3.635 -0.4334  0.6643  0.2267
  181MOL0     C24313   2.338   0.916   3.565 -0.8345  0.1990 -0.0421
  181MOL0     C24314   2.289   0.812   3.666 -0.8175 -0.5822 -0.0777
  181MOL0     C24315   2.256   0.685   3.593  0.1941 -0.2745 -0.9026
  181MOL0     C24316   2.153   0.606   3.672 -1.1146 -0.6133  0.3264
  181MOL0     N24317   2.126   0.474   3.612  0.1493  0.5717  0.0547
  181MOL0     C24318   2.180   0.355   3.644 -0.3521 -0.3101 -0.6909
  181MOL0     C24319   2.113   0.264   3.568 -0.3431  1.0387 -0.3062
  181MOL0     C24320   2.131   0.120   3.592 -0.0394 -0.4869  0.4298
  181MOL0     C24321   2.016   0.072   3.682  0.4084  0.4353 -0.8640
  181MOL0     C24322   2.037  -0.054   3.759 -0.0935 -0.3256  0.4584
  181MOL0     C24323   1.930  -0.079   3.858 -0.3478 -0.1537 -0.5782
  181MOL0     O24324   1.978  -0.137   3.978 -0.5816  0.5398  0.2504
  181MOL0     C24325   1.871  -0.171   4.056 -0.0992  0.4300 -0.3411
  181MOL0     C24326   1.922  -0.233   4.170  0.0595 -0.1063 -0.3768
  181MOL0     C24327   1.833  -0.289   4.264  0.6497  1.1650  0.2291
  181MOL0     C24328   1.696  -0.275   4.243 -0.0008 -0.1770 -1.1902
  181MOL0     C24329   1.596  -0.332   4.339  0.3778  0.5427 -0.1929
  181MOL0     O24330   1.460  -0.327   4.285  0.1840  0.4346 -0.7511
  181MOL0     C24331   1.372  -0.399   4.353  0.0206 -0.2996 -0.7916
  181MOL0     C24332   1.278  -0.326   4.432  0.4756  1.1213 -0.4931
  181MOL0     C24333   1.167  -0.394   4.488 -0.2948 -0.3388 -0.1724
  181MOL0     C24334   1.154  -0.541   4.472 -0.1055 -0.1183 -0.0791
  181MOL0     O24335   1.051  -0.621   4.519  0.0919  0.2464  0.1298
  181MOL0     C24336   0.937  -0.552   4.574  0.2092  0.4780 -0.4905
  181MOL0     C24337   0.821  -0.650   4.616 -0.1684 -0.2381  0.6262
  181MOL0     C24338   0.895  -0.757   4.697 -0.1539 -0.2375  0.6642
  181MOL0     C24339   0.799  -0.858   4.762 -0.2992 -0.4057  0.5573
  181MOL0     C24340   0.870  -0.947   4.866  0.1701  0.2255  0.4561
  181MOL0     C24341   0.782  -1.045   4.933 -0.5970  0.4900  0.1824
  181MOL0     C24342   0.865  -1.123   5.037  0.3331 -0.2790 -0.1944
  181MOL0     C24343   0.769  -1.203   5.130  0.3555  0.4375  0.8285
  181MOL0    Cl24344   0.704  -1.092   5.260 -0.5225  0.2901  0.4291
  181MOL0     C24345   1.252  -0.605   4.388  0.7421 -0.5650 -0.0579
  181MOL0     C24346   1.355  -0.533   4.330  0.4362  0.5599 -0.4217
  181MOL0     O24347   1.625  -0.397   4.441 -0.6434  0.4710 -0.0770
  181MOL0     C24348   1.640  -0.208   4.132 -0.2287  0.1493 -0.8822
  181MOL0     C24349   1.729  -0.147   4.049  0.2088  0.1532 -0.7000
  181MOL0     N24350   2.032   0.326   3.486  0.6248  0.7383  1.0427
  181MOL0     N24351   2.048   0.450   3.505  0.5455 -0.2535 -1.0729
  181MOL0     C24352   2.050   1.494   3.558  0.3097 -0.4204  0.3441
  181MOL0     C24353   1.911   1.510   3.543  0.0667 -0.9586  0.0555
  181MOL0     C24354   1.499   1.460   3.486 -0.6441 -0.1000  0.6771
  181MOL0     C24355   1.405   1.356   3.523  0.0785 -0.9600  0.4422
  181MOL0     C24356   1.276   1.391   3.554  0.8879  0.1700  0.0854
  181MOL0     C24357   1.218   1.514   3.531  0.2111 -0.2042  0.5615
  181MOL0     O24358   1.083   1.546   3.561  0.6308 -0.1978 -0.1082
  181MOL0     C24359   0.988   1.478   3.490 -0.4634 -0.1375 -1.0983
  181MOL0     C24360   0.854   1.546   3.503 -0.5686  0.3049  0.3840
  181MOL0     C24361   0.827   1.627   3.627  0.0993  0.0965 -0.4186
  181MOL0     C24362   0.679   1.643   3.652 -0.2834 -0.4544  0.1791
  181MOL0     C24363   0.654   1.744   3.761 -0.1521 -0.1680 -0.4554
  181MOL0     C24364   0.637   1.830   3.839 -1.0260  0.2160 -0.1607
  181MOL0     C24365   1.307   1.610   3.496  0.5354 -0.6658  0.4835
  181MOL0     C24366   1.449   1.592   3.471  0.8582  0.1298  0.3377
  181MOL0     C24367   1.519   1.720   3.430 -0.8395 -0.8914 -0.4543
  181MOL0     H24368   1.863   1.370   3.247  0.3233  4.9516 -1.1719
  181MOL0     H24369   2.114   1.307   3.289 -0.8388 -0.9251  0.1640
  181MOL0     H24370   2.309   1.465   3.642 -3.0462  1.6112 -3.7458
  181MOL0     H24371   2.219   1.316   3.654  0.0174  1.0524  1.0939
  181MOL0     H24372   2.468   1.293   3.710  0.5124  4.2018  0.2044
  181MOL0     H24373   2.504   1.362   3.557 -1.7675  0.2760 -2.3766
  181MOL0     H24374   2.530   1.125   3.521 -0.1589  1.0988 -1.0438
  181MOL0     H24375   2.384   1.169   3.453  2.4832  3.2141 -0.3390
  181MOL0     H24376   2.428   1.034   3.718 -1.8483  2.8034  1.8730
  181MOL0     H24377   2.265   1.092   3.670 -0.9594  1.4176 -1.9458
  181MOL0     H24378   2.273   0.917   3.477 -0.4321 -2.9576 -0.4873
  181MOL0     H24379   2.434   0.881   3.525  1.8139  5.7865  0.4871
  181MOL0     H24380   2.365   0.791   3.743 -1.2041 -1.9445 -0.0291
  181MOL0     H24381   2.204   0.853   3.720  0.9261  2.1345  0.7923
  181MOL0     H24382   2.351   0.631   3.603  0.6334  0.4006 -1.3176
  181MOL0     H24383   2.226   0.688   3.488  0.5027 -3.1347 -1.1597
  181MOL0     H24384   2.185   0.595   3.776  0.1743 -0.6943 -0.0647
  181MOL0     H24385   2.059   0.662   3.677 -1.4938 -1.3396  2.0434
  181MOL0     H24386   2.262   0.340   3.714  0.0269  0.4625 -0.9520
  181MOL0     H24387   2.143   0.068   3.496  0.7807  0.1237  0.1834
  181MOL0     H24388   2.229   0.111   3.641  0.2475 -0.7749 -0.1849
  181MOL0     H24389   2.007   0.159   3.748  1.3402  0.6095 -0.9540
  181MOL0     H24390   1.925   0.046   3.626 -1.2349 -2.5962  2.8277
  181MOL0     H24391   2.134  -0.057   3.808  1.2832 -0.2644 -2.0951
  181MOL0     H24392   2.049  -0.137   3.689  2.5192  1.0845 -0.8969
  181MOL0     H24393   1.849  -0.136   3.812  0.6994 -1.7813 -0.4686
  181MOL0     H24394   1.877   0.014   3.880  1.7595  1.2257 -1.0526
  181MOL0     H24395   2.026  -0.257   4.187 -0.7451 -2.5327  1.7840
  181MOL0     H24396   1.877  -0.367   4.326 -0.8990  0.0732 -0.0034
  181MOL0     H24397   1.272  -0.217   4.433 -7.1160  1.2877  1.2230
  181MOL0     H24398   1.094  -0.333   4.539 -0.0704  1.9847 -2.4029
  181MOL0     H24399   0.945  -0.498   4.668  0.2804  0.3511 -0.4230
  181MOL0     H24400   0.902  -0.486   4.494  1.6907 -0.0619 -1.6486
  181MOL0     H24401   0.743  -0.604   4.677  0.6529 -0.7181  2.0712
  181MOL0     H24402   0.776  -0.688   4.523  0.7952 -0.5169  0.2653
  181MOL0     H24403   0.968  -0.811   4.636 -1.9878 -1.3933 -0.6065
  181MOL0     H24404   0.945  -0.705   4.779 -0.3399 -0.2500  0.7875
  181MOL0     H24405   0.752  -0.907   4.676 -0.3712  0.0073  0.3590
  181MOL0     H24406   0.723  -0.807   4.821  0.7939  0.2181  1.4634
  181MOL0     H24407   0.929  -0.884   4.933  2.5322  1.2814 -2.4088
  181MOL0     H24408   0.951  -1.003   4.818 -0.3374 -0.4092  0.3332
  181MOL0     H24409   0.689  -0.996   4.964  0.2485  1.6502  0.9816
  181MOL0     H24410   0.748  -1.106   4.849  1.5252 -1.6434  0.7613
  181MOL0     H24411   0.919  -1.056   5.104  0.6120 -0.1057 -0.5894
  181MOL0     H24412   0.926  -1.197   4.984  0.1587  0.3927 -1.3658
  181MOL0     H24413   0.698  -1.254   5.065  0.7758 -0.1166  0.7922
  181MOL0     H24414   0.819  -1.270   5.200 -1.9502  0.0117  2.1600
  181MOL0     H24415   1.245  -0.708   4.357 -0.2817 -1.0337  1.6113
  181MOL0     H24416   1.428  -0.569   4.258 -0.7944  2.2351 -2.6452
  181MOL0     H24417   1.534  -0.189   4.118  0.0100  1.6664 -0.8461
  181MOL0     H24418   1.686  -0.111   3.956  1.8416 -3.7623 -3.2271
  181MOL0     H24419   2.100   1.537   3.644 -0.5454  2.4513 -0.4893
  181MOL0     H24420   1.847   1.561   3.614 -2.3994 -1.5041 -1.6416
  181MOL0     H24421   1.432   1.253   3.544  0.4647 -0.2917  3.6744
  181MOL0     H24422   1.205   1.316   3.589  2.1092 -1.2223 -0.3069
  181MOL0     H24423   0.984   1.374   3.523  0.3455  0.0862 -0.2273
  181MOL0     H24424   1.018   1.481   3.385  0.8299 -0.0642 -0.7489
  181MOL0     H24425   0.773   1.472   3.501  0.9634 -1.4303 -0.8029
  181MOL0     H24426   0.849   1.618   3.421 -1.4933  1.0056  1.0407
  181MOL0     H24427   0.858   1.730   3.607 -1.0735  0.3454 -1.0393
  181MOL0     H24428   0.873   1.592   3.720 -0.4514  3.7613  1.4213
  181MOL0     H24429   0.623   1.679   3.565 -0.6546  0.0232  0.6147
  181MOL0     H24430   0.628   1.550   3.679 -5.2601  2.1052  0.7125
  181MOL0     H24431   0.626   1.889   3.927  1.0245  0.0976  0.2204
  181MOL0     H24432   1.265   1.710   3.489  1.9838  0.1688  2.4697
  181MOL0     H24433   1.522   1.731   3.321 -0.1652 -1.7871 -0.5463
  181MOL0     H24434   1.465   1.805   3.471 -0.0115 -1.0291  1.0064
  181MOL0     H24435   1.623   1.725   3.462 -0.7453 -0.7790 -0.7732
  182MOL0     O24436   3.438   1.644   7.018  0.6223 -0.5958 -0.1461
  182MOL0     C24437   3.350   1.710   6.966  0.1714  0.2014  0.7610
  182MOL0     O24438   3.216   1.671   6.955 -0.7598 -0.8960  0.1538
  182MOL0     C24439   3.172   1.556   7.008  0.7359  0.2936  0.1609
  182MOL0     C24440   3.204   1.437   6.951  0.1149 -0.1423  0.6065
  182MOL0     C24441   3.180   1.327   7.023 -0.2654  0.6600 -0.2312
  182MOL0     C24442   3.118   1.327   7.146 -0.1102  0.3017  0.7521
  182MOL0     O24443   3.084   1.216   7.214 -0.0499  0.2071 -0.3339
  182MOL0     C24444   2.994   1.123   7.147  0.5908 -1.2520  0.0251
  182MOL0     C24445   2.891   1.077   7.244  0.3418  0.4056  0.1453
  182MOL0     C24446   2.794   0.963   7.200  0.5100 -0.0772 -0.5745
  182MOL0     C24447   2.734   0.900   7.330 -0.5948  0.7357 -0.0439
  182MOL0     C24448   2.602   0.816   7.304 -0.0537  0.0571  0.3818
  182MOL0     C24449   2.483   0.907   7.248 -0.6324 -0.7069  0.4783
  182MOL0     C24450   2.368   0.815   7.208  0.1276 -0.3600 -0.3901
  182MOL0     C24451   2.242   0.892   7.170  0.1959  0.3020  0.0481
  182MOL0     N24452   2.255   0.943   7.036  0.1869  0.6083 -0.2191
  182MOL0     C24453   2.318   1.060   7.010  0.3924 -0.3199  0.3142
  182MOL0     C24454   2.288   1.075   6.874  0.1559 -0.5294 -0.1172
  182MOL0     C24455   2.317   1.198   6.789 -0.1637  0.6753 -0.4734
  182MOL0     C24456   2.409   1.171   6.679 -0.5673 -0.4613  0.9611
  182MOL0     C24457   2.546   1.095   6.705  1.0563 -0.2834 -0.3681
  182MOL0     C24458   2.602   1.150   6.843 -0.7672 -0.2781  0.2628
  182MOL0     O24459   2.609   1.289   6.843 -0.3797 -0.9856 -0.4030
  182MOL0     C24460   2.638   1.371   6.954  0.4746  0.2783  1.3311
  182MOL0     C24461   2.631   1.509   6.928 -0.3387 -0.5747 -0.1133
  182MOL0     C24462   2.657   1.598   7.026 -0.4102  0.9081  0.6149
  182MOL0     C24463   2.687   1.557   7.155  0.4706 -0.1601  0.2899
  182MOL0     C24464   2.705   1.661   7.269  0.2151  0.3491 -0.5056
  182MOL0     O24465   2.808   1.624   7.355  1.1179  0.2953 -0.1036
  182MOL0     C24466   2.846   1.722   7.446 -0.3670 -0.3277 -0.1731
  182MOL0     C24467   2.867   1.856   7.416  0.5001  0.7514  0.3392
  182MOL0     C24468   2.921   1.939   7.513  0.2500  0.2933 -0.5798
  182MOL0     C24469   2.954   1.904   7.645  0.3498  0.0968 -0.0218
  182MOL0     O24470   3.004   2.007   7.719 -0.4336  0.1126  0.0686
  182MOL0     C24471   3.050   1.964   7.852  0.0549  0.0531  0.1545
  182MOL0     C24472   3.118   2.083   7.929  0.3810 -0.5290 -0.7715
  182MOL0     C24473   3.244   2.132   7.868 -0.2946 -0.2409  0.8483
  182MOL0     C24474   3.358   2.022   7.866 -0.1328 -0.2894  0.7811
  182MOL0     C24475   3.507   2.065   7.836  0.7708 -0.1500  1.3648
  182MOL0     C24476   3.578   2.143   7.944 -0.1422  0.2926 -0.0075
  182MOL0     C24477   3.724   2.184   7.916  0.3280 -0.0406  0.6012
  182MOL0     C24478   3.818   2.179   8.032  0.7085  0.7073 -0.3747
  182MOL0    Cl24479   3.942   2.299   8.008 -0.5408  0.4995 -0.4152
  182MOL0     C24480   2.930   1.766   7.679 -0.9235 -0.5751 -0.4807
  182MOL0     C24481   2.879   1.679   7.582  0.5909 -0.0757 -0.0786
  182MOL0     O24482   2.634   1.759   7.277 -0.5877  0.1138 -0.2654
  182MOL0     C24483   2.695   1.425   7.185 -0.1669  0.7304  0.0718
  182MOL0     C24484   2.665   1.322   7.085  1.0395  0.2135  0.4022
  182MOL0     N24485   2.204   0.974   6.839 -0.3591  0.2436 -0.6679
  182MOL0     N24486   2.180   0.897   6.934 -0.1236 -0.0584  0.3459
  182MOL0     C24487   3.073   1.451   7.192 -0.5681 -0.2189 -0.8223
  182MOL0     C24488   3.103   1.568   7.129 -0.8439 -0.1730  0.0610
  182MOL0     C24489   3.398   1.834   6.896  0.0219  0.2279 -0.4865
  182MOL0     C24490   3.310   1.905   6.810 -0.6087  0.4643  1.1059
  182MOL0     C24491   3.356   2.029   6.752  1.0541  0.4868 -0.1147
  182MOL0     C24492   3.490   2.077   6.770  0.2943  1.0631 -0.1562
  182MOL0     O24493   3.514   2.193   6.705  0.3650 -0.5066  0.4574
  182MOL0     C24494   3.644   2.246   6.713  1.0008 -0.1548  0.6973
  182MOL0     C24495   3.631   2.383   6.635 -0.1992  0.5403 -0.0444
  182MOL0     C24496   3.758   2.461   6.643 -0.1229 -0.7939 -0.6768
  182MOL0     C24497   3.744   2.607   6.599 -0.0147 -0.9376 -0.2134
  182MOL0     C24498   3.871   2.682   6.594  0.1980  0.2331 -0.2916
  182MOL0     C24499   3.984   2.730   6.591  0.1846  0.1669  0.0619
  182MOL0     C24500   3.574   1.997   6.847 -0.5336 -1.2479  0.5048
  182MOL0     C24501   3.531   1.880   6.912  0.6213 -0.8500 -0.0030
  182MOL0     C24502   3.637   1.814   6.996  0.3255  0.3936 -0.7176
  182MOL0     H24503   3.278   1.427   6.873  1.7989  4.0784  1.3910
  182MOL0     H24504   3.213   1.235   6.975  4.4518  2.3383 -0.7940
  182MOL0     H24505   2.947   1.158   7.054 -2.1155  0.5714  1.9147
  182MOL0     H24506   3.051   1.036   7.113 -1.4453 -2.4675 -0.4468
  182MOL0     H24507   2.839   1.164   7.285  0.5645  0.1603  0.9899
  182MOL0     H24508   2.953   1.047   7.329 -0.4971  0.4064  0.7700
  182MOL0     H24509   2.841   0.882   7.144 -0.8274 -1.1352 -0.2085
  182MOL0     H24510   2.719   1.000   7.129  0.2459 -0.4098 -0.4686
  182MOL0     H24511   2.809   0.837   7.378 -0.6484 -0.3624 -1.3468
  182MOL0     H24512   2.716   0.981   7.402  1.6927  0.4134  1.0002
  182MOL0     H24513   2.620   0.741   7.226  1.1683 -0.3604  1.0432
  182MOL0     H24514   2.560   0.758   7.386 -1.4673 -2.8918 -2.2023
  182MOL0     H24515   2.452   0.972   7.330  4.0019  2.3626  0.1386
  182MOL0     H24516   2.525   0.972   7.170  4.6527 -0.6684  2.9245
  182MOL0     H24517   2.332   0.768   7.300  0.2517  3.0556  1.5630
  182MOL0     H24518   2.404   0.745   7.132 -1.3199 -0.0782 -1.3741
  182MOL0     H24519   2.148   0.837   7.179 -0.6605  1.9463  1.7156
  182MOL0     H24520   2.223   0.971   7.243 -2.4938  3.3632 -3.5851
  182MOL0     H24521   2.377   1.126   7.072 -0.9888 -0.3331  1.7154
  182MOL0     H24522   2.220   1.237   6.757  0.0983  0.1300 -2.0311
  182MOL0     H24523   2.362   1.274   6.853 -2.4137  1.8426 -0.1648
  182MOL0     H24524   2.352   1.116   6.603 -1.5836  2.1641 -0.3158
  182MOL0     H24525   2.444   1.267   6.640 -0.9494 -0.2536  1.1229
  182MOL0     H24526   2.606   1.114   6.615 -0.7481 -0.1770 -1.6138
  182MOL0     H24527   2.535   0.987   6.720  3.5354 -0.6524 -0.7514
  182MOL0     H24528   2.702   1.107   6.858 -0.4056 -0.1125 -1.4972
  182MOL0     H24529   2.540   1.118   6.927 -2.0885  4.4959  1.4144
  182MOL0     H24530   2.613   1.546   6.828 -1.0893  0.0632  0.2493
  182MOL0     H24531   2.649   1.705   7.008  1.6035  1.2105  1.2848
  182MOL0     H24532   2.841   1.902   7.322  0.0730 -1.0725 -0.4680
  182MOL0     H24533   2.935   2.043   7.485  0.9561  1.0457  2.2351
  182MOL0     H24534   2.966   1.929   7.913 -0.5682  1.1041 -0.0837
  182MOL0     H24535   3.126   1.885   7.851  0.9432  0.8981 -0.8482
  182MOL0     H24536   3.044   2.163   7.939  0.6199 -0.5373  1.6070
  182MOL0     H24537   3.128   2.036   8.027  0.4982  1.1720  0.0667
  182MOL0     H24538   3.228   2.164   7.765  0.9033  1.5067  1.1505
  182MOL0     H24539   3.281   2.218   7.926 -2.4989  0.1977  1.7106
  182MOL0     H24540   3.345   1.953   7.782  0.7916  0.3033  0.1307
  182MOL0     H24541   3.350   1.980   7.966  0.5956 -0.6438  0.7009
  182MOL0     H24542   3.516   2.145   7.762  2.0126 -0.4627  1.1648
  182MOL0     H24543   3.567   1.982   7.800  1.0142 -0.6328  2.8036
  182MOL0     H24544   3.525   2.233   7.976  2.0059  0.8481  2.4033
  182MOL0     H24545   3.597   2.074   8.027  0.1748  0.5739  0.1559
  182MOL0     H24546   3.731   2.279   7.861  1.2499 -1.0729 -1.1573
  182MOL0     H24547   3.768   2.126   7.835 -1.8702 -1.7052  0.4880
  182MOL0     H24548   3.766   2.197   8.126  1.0640 -3.7580  0.9318
  182MOL0     H24549   3.869   2.082   8.034 -1.3158 -0.3923 -0.2868
  182MOL0     H24550   2.949   1.726   7.778 -1.5456 -3.4348 -1.4385
  182MOL0     H24551   2.874   1.577   7.617  1.7426  0.7945  2.9344
  182MOL0     H24552   2.706   1.380   7.283  1.6219 -0.2967 -0.5488
  182MOL0     H24553   2.665   1.217   7.110  1.7003 -0.3352 -1.7097
  182MOL0     H24554   3.030   1.439   7.291 -0.5797 -3.0103 -1.0781
  182MOL0     H24555   3.107   1.659   7.187 -0.9794  0.1259 -0.3889
  182MOL0     H24556   3.207   1.879   6.787 -0.8885  3.5523 -1.8770
  182MOL0     H24557   3.294   2.084   6.682 -3.1287 -1.0137  2.0439
  182MOL0     H24558   3.724   2.182   6.673 -0.3694 -1.2399 -0.4389
  182MOL0     H24559   3.662   2.271   6.818  1.1709  1.2071  0.3565
  182MOL0     H24560   3.548   2.426   6.691  0.4053  1.9968 -0.2298
  182MOL0     H24561   3.610   2.365   6.528  2.1750  1.1412 -0.6607
  182MOL0     H24562   3.831   2.413   6.577 -0.0158 -0.5211 -0.7578
  182MOL0     H24563   3.796   2.449   6.746 -1.6467 -1.5470 -0.1753
  182MOL0     H24564   3.685   2.609   6.507  0.8910  0.8016 -0.8108
  182MOL0     H24565   3.668   2.646   6.667 -1.5849 -3.1768 -0.5581
  182MOL0     H24566   4.077   2.762   6.632  0.2276 -0.3849  0.4111
  182MOL0     H24567   3.672   2.036   6.870  0.0432 -2.4651  0.2108
  182MOL0     H24568   3.603   1.799   7.099  2.7552 -4.1819 -0.3253
  182MOL0     H24569   3.666   1.715   6.958 -1.2195 -0.1354 -0.5946
  182MOL0     H24570   3.719   1.886   6.996 -0.1902  0.9972 -1.4095
  183MOL0     O24571   5.934   6.629   1.657  0.1763  0.0823  0.4788
  183MOL0     C24572   5.843   6.584   1.718  0.3931  0.5909 -0.4478
  183MOL0     O24573   5.839   6.572   1.857  0.1830  0.0594 -0.1588
  183MOL0     C24574   5.958   6.595   1.928 -0.3720  0.1254  0.8887
  183MOL0     C24575   6.007   6.731   1.947  0.0860  0.1170  0.3152
  183MOL0     C24576   6.139   6.746   1.994  0.1409  0.1629  0.0379
  183MOL0     C24577   6.216   6.638   2.040  0.0044  1.1197 -0.3907
  183MOL0     O24578   6.343   6.654   2.088 -0.2035 -0.7743  0.3094
  183MOL0     C24579   6.388   6.603   2.214 -0.4927  0.2411 -0.0630
  183MOL0     C24580   6.324   6.669   2.338 -0.6218  0.2461 -0.9637
  183MOL0     C24581   6.185   6.629   2.360  0.3021  0.9034  0.3416
  183MOL0     C24582   6.142   6.657   2.506  0.3043 -0.4227  0.0645
  183MOL0     C24583   5.995   6.654   2.502 -0.5082  0.4669 -0.7450
  183MOL0     C24584   5.932   6.657   2.634  0.0785 -0.5256  0.9665
  183MOL0     C24585   5.962   6.526   2.720 -0.5524 -0.1212 -0.0220
  183MOL0     C24586   5.906   6.528   2.856  1.1737  0.0344 -0.2262
  183MOL0     N24587   5.762   6.561   2.860 -0.6888 -0.0357 -0.0268
  183MOL0     C24588   5.659   6.474   2.825  0.7663 -0.3074  0.0891
  183MOL0     C24589   5.550   6.525   2.896  0.5337  0.7851  0.3189
  183MOL0     C24590   5.411   6.462   2.896  0.7167 -0.2155 -0.0454
  183MOL0     C24591   5.401   6.336   2.991 -0.1617 -0.3503  0.2478
  183MOL0     C24592   5.436   6.380   3.131  0.1886 -0.0556 -0.6030
  183MOL0     C24593   5.416   6.279   3.246 -0.0653 -1.1531 -0.1505
  183MOL0     O24594   5.275   6.241   3.242 -0.4428  0.0621 -0.2878
  183MOL0     C24595   5.168   6.291   3.317 -0.2618  0.0535 -0.0226
  183MOL0     C24596   5.174   6.418   3.378  0.8178  0.2556  0.8095
  183MOL0     C24597   5.054   6.467   3.436 -0.0582 -0.9115 -0.9352
  183MOL0     C24598   4.933   6.395   3.424 -0.8228  0.1158  0.3422
  183MOL0     C24599   4.802   6.444   3.470 -0.7741 -0.7445  0.0990
  183MOL0     O24600   4.685   6.371   3.456 -0.7934  0.0024  0.6117
  183MOL0     C24601   4.565   6.419   3.480 -0.7505  0.5008 -0.1391
  183MOL0     C24602   4.467   6.367   3.387  0.7572 -0.3895 -0.8687
  183MOL0     C24603   4.327   6.403   3.403 -1.8429  1.1297  0.1404
  183MOL0     C24604   4.290   6.493   3.507  0.5594 -0.0610  0.2911
  183MOL0     O24605   4.162   6.542   3.517 -0.2336  0.9007  0.0171
  183MOL0     C24606   4.070   6.516   3.400  0.7483 -0.8503  0.6026
  183MOL0     C24607   3.962   6.624   3.396  0.7924 -0.4724  0.4087
  183MOL0     C24608   3.833   6.591   3.308  1.3592  0.2444 -0.3896
  183MOL0     C24609   3.718   6.520   3.380 -0.0186  0.4789  0.3758
  183MOL0     C24610   3.645   6.414   3.300  0.3298 -0.1203 -0.4318
  183MOL0     C24611   3.575   6.470   3.179  0.0790  0.8821  0.4364
  183MOL0     C24612   3.461   6.568   3.221  0.8484 -0.2586 -0.0578
  183MOL0     C24613   3.393   6.632   3.091 -0.4903 -0.5732  0.3892
  183MOL0    Cl24614   3.494   6.774   3.030 -0.3175  0.5314 -0.1792
  183MOL0     C24615   4.388   6.541   3.590 -0.2733  0.1784 -1.3731
  183MOL0     C24616   4.528   6.505   3.584 -1.7235  0.2284  0.4052
  183MOL0     O24617   4.807   6.544   3.540  0.0980  0.5083 -0.7915
  183MOL0     C24618   4.926   6.274   3.356  0.0317  0.0284  0.7123
  183MOL0     C24619   5.042   6.229   3.302 -0.1031 -0.9931  0.1976
  183MOL0     N24620   5.584   6.636   2.967  0.3457 -0.0626 -0.3346
  183MOL0     N24621   5.703   6.666   2.928  0.2024 -0.7711 -0.1868
  183MOL0     C24622   6.164   6.504   2.013 -0.1836 -0.2799 -1.0559
  183MOL0     C24623   6.032   6.486   1.968 -0.6870  0.4811 -0.4571
  183MOL0     C24624   5.722   6.529   1.654 -0.5236 -0.8053 -0.0794
  183MOL0     C24625   5.617   6.512   1.742 -0.6932 -0.2627 -0.0258
  183MOL0     C24626   5.504   6.450   1.700 -0.5411 -0.2118  0.2719
  183MOL0     C24627   5.493   6.410   1.565  0.3051 -1.5035  0.8049
  183MOL0     O24628   5.378   6.365   1.506 -0.6301 -0.0397  0.0921
  183MOL0     C24629   5.248   6.354   1.581  0.0658 -0.2018 -0.1125
  183MOL0     C24630   5.126   6.354   1.491 -0.7977 -0.1504 -0.5965
  183MOL0     C24631   5.035   6.233   1.510  0.1073  0.6820  0.2538
  183MOL0     C24632   5.086   6.121   1.408  0.4039  0.0219  0.1745
  183MOL0     C24633   5.008   5.994   1.456  0.1585 -0.8411 -0.8295
  183MOL0     C24634   4.945   5.891   1.486 -0.2201  0.0942 -0.9778
  183MOL0     C24635   5.594   6.438   1.473 -0.0317  0.3974  0.6731
  183MOL0     C24636   5.713   6.496   1.516 -0.0280  0.8747  0.0625
  183MOL0     C24637   5.834   6.512   1.420  0.2115 -0.1649  0.5439
  183MOL0     H24638   5.949   6.817   1.913 -1.0552  0.2820  2.4917
  183MOL0     H24639   6.187   6.843   1.997  0.1955  0.1578 -0.6454
  183MOL0     H24640   6.375   6.494   2.217  1.7291 -0.0491  0.6894
  183MOL0     H24641   6.495   6.617   2.234 -0.7040 -0.9533  2.3564
  183MOL0     H24642   6.326   6.777   2.327 -1.4150  0.5597  1.3733
  183MOL0     H24643   6.377   6.642   2.429 -1.1408  0.6455 -0.5359
  183MOL0     H24644   6.181   6.521   2.347 -0.3255  1.2012 -2.6098
  183MOL0     H24645   6.122   6.683   2.289  1.2441  3.1939  1.1327
  183MOL0     H24646   6.185   6.597   2.586  0.2310  1.7581  1.8474
  183MOL0     H24647   6.174   6.758   2.535 -0.7609 -0.2451  0.6575
  183MOL0     H24648   5.955   6.737   2.443  0.9555  1.9338  0.2431
  183MOL0     H24649   5.954   6.564   2.455 -1.3866 -0.4123  1.5861
  183MOL0     H24650   5.975   6.742   2.687 -1.1294  0.4669  0.4187
  183MOL0     H24651   5.824   6.669   2.619  0.5581  1.2570 -1.6504
  183MOL0     H24652   6.067   6.497   2.728 -1.5744 -3.9024  3.2235
  183MOL0     H24653   5.926   6.438   2.666 -0.4409 -0.2959  0.1873
  183MOL0     H24654   5.917   6.432   2.907 -0.4859 -0.4163 -0.6710
  183MOL0     H24655   5.962   6.597   2.921 -0.9740 -0.2907  2.1330
  183MOL0     H24656   5.658   6.379   2.771  0.9499 -0.8027  0.9502
  183MOL0     H24657   5.334   6.535   2.923  1.9253  1.3284 -0.6277
  183MOL0     H24658   5.390   6.436   2.792  0.5013  0.8031 -0.2633
  183MOL0     H24659   5.303   6.287   2.982 -1.1053  1.1967  1.6116
  183MOL0     H24660   5.476   6.261   2.963 -0.9674 -0.0143 -3.2349
  183MOL0     H24661   5.370   6.468   3.138 -0.4811 -0.6369  0.7405
  183MOL0     H24662   5.538   6.419   3.132  0.0576  0.8514 -4.6191
  183MOL0     H24663   5.452   6.311   3.345 -1.5471  1.2934 -0.3173
  183MOL0     H24664   5.469   6.186   3.222 -1.1749 -2.0958  0.9183
  183MOL0     H24665   5.262   6.482   3.380  0.0062  1.4153  0.4886
  183MOL0     H24666   5.054   6.560   3.492  0.2984 -2.7220  2.3530
  183MOL0     H24667   4.491   6.290   3.315  0.9508  0.9109 -2.2433
  183MOL0     H24668   4.260   6.354   3.333 -0.6500 -0.6851  0.1877
  183MOL0     H24669   4.126   6.528   3.307  2.9186  2.4191  2.1446
  183MOL0     H24670   4.021   6.418   3.404 -3.1869  0.9565  1.1941
  183MOL0     H24671   3.905   6.644   3.487 -3.3553  0.1440 -2.0704
  183MOL0     H24672   4.011   6.716   3.363  2.1432 -0.8717  1.2459
  183MOL0     H24673   3.812   6.692   3.274  1.2661 -1.0522 -4.7129
  183MOL0     H24674   3.868   6.530   3.224  0.9849  2.3208 -2.1289
  183MOL0     H24675   3.656   6.600   3.420 -0.9446  0.9627 -1.8530
  183MOL0     H24676   3.770   6.462   3.456 -0.5409  2.3796  2.2553
  183MOL0     H24677   3.566   6.376   3.366 -1.0822  3.3499  0.0766
  183MOL0     H24678   3.702   6.330   3.258 -3.4808 -0.1603 -6.8872
  183MOL0     H24679   3.642   6.528   3.114 -0.4129  1.2291  0.2382
  183MOL0     H24680   3.525   6.391   3.122  2.3403 -1.4533  1.4325
  183MOL0     H24681   3.490   6.654   3.282  1.5743 -0.1637 -0.5197
  183MOL0     H24682   3.382   6.513   3.274  0.8304 -0.5442 -0.3762
  183MOL0     H24683   3.380   6.570   3.002 -0.8575 -1.2165  0.8879
  183MOL0     H24684   3.297   6.683   3.108  0.0469  0.4299  0.5251
  183MOL0     H24685   4.348   6.603   3.670 -1.7614 -0.3133 -1.7079
  183MOL0     H24686   4.597   6.526   3.665  1.0159 -2.6172 -0.9727
  183MOL0     H24687   4.846   6.205   3.332 -1.0488  1.5509 -0.2717
  183MOL0     H24688   5.041   6.130   3.258  0.9549 -0.4436 -1.1384
  183MOL0     H24689   6.230   6.420   2.032 -2.5931 -2.1871 -0.6582
  183MOL0     H24690   5.993   6.389   1.939 -2.3671  0.8789  0.3486
  183MOL0     H24691   5.608   6.548   1.844 -1.2096  0.6177 -0.3673
  183MOL0     H24692   5.423   6.433   1.770  1.9914  0.7682  3.7586
  183MOL0     H24693   5.232   6.433   1.655 -1.8122  0.7868 -1.4949
  183MOL0     H24694   5.257   6.260   1.637 -0.8095 -0.0804  0.2506
  183MOL0     H24695   5.153   6.376   1.387 -0.1510  0.1238 -0.3778
  183MOL0     H24696   5.061   6.436   1.520  1.6959  0.7160  3.2748
  183MOL0     H24697   4.931   6.258   1.486  1.0569  2.1344 -2.9887
  183MOL0     H24698   5.034   6.203   1.615 -4.1726 -0.4051  0.0930
  183MOL0     H24699   5.068   6.148   1.303  1.7719  1.7379  0.3196
  183MOL0     H24700   5.195   6.109   1.403  0.4361  0.2480  0.2888
  183MOL0     H24701   4.900   5.798   1.515 -0.5478  0.7534  0.7461
  183MOL0     H24702   5.577   6.414   1.369  0.2910  2.0358  0.2165
  183MOL0     H24703   5.841   6.609   1.370 -0.7750  1.0848  2.7104
  183MOL0     H24704   5.930   6.482   1.462  0.9825 -0.4416 -1.3034
  183MOL0     H24705   5.817   6.438   1.341 -0.4393  1.5063 -0.9656
  184MOL0     O24706   7.186   7.361   7.122  0.0570 -0.2629 -0.6535
  184MOL0     C24707   7.227   7.313   7.014  0.2070 -0.2724 -0.8779
  184MOL0     O24708   7.361   7.289   6.992 -0.8354 -0.9703  0.4524
  184MOL0     C24709   7.460   7.332   7.090 -0.0898 -0.6113  0.3097
  184MOL0     C24710   7.577   7.259   7.093 -0.3359  0.6683 -0.6890
  184MOL0     C24711   7.695   7.307   7.163  0.0864 -0.7206 -0.4822
  184MOL0     C24712   7.685   7.435   7.226  1.1760 -0.0660 -0.1129
  184MOL0     O24713   7.803   7.475   7.272 -0.7122 -0.1041 -0.3742
  184MOL0     C24714   7.825   7.594   7.343 -0.3466  0.6214 -0.1033
  184MOL0     C24715   7.791   7.584   7.496 -0.7487 -0.1311  0.6129
  184MOL0     C24716   7.765   7.711   7.576  0.2121  0.0725  0.2790
  184MOL0     C24717   7.906   7.786   7.591  0.1660  0.2799 -0.4476
  184MOL0     C24718   7.984   7.744   7.715  0.6310 -0.1531  0.0011
  184MOL0     C24719   8.119   7.817   7.736  0.4629 -0.4619  0.3358
  184MOL0     C24720   8.191   7.837   7.609 -0.0003  1.2511  0.4460
  184MOL0     C24721   8.243   7.706   7.530 -0.5150  0.1278  0.0158
  184MOL0     N24722   8.304   7.608   7.619 -0.2079  0.4869  0.0127
  184MOL0     C24723   8.420   7.623   7.699  0.0082 -0.1002  0.2798
  184MOL0     C24724   8.435   7.507   7.757 -0.0379  0.7247 -0.1646
  184MOL0     C24725   8.549   7.464   7.851 -0.3730 -1.2674  0.7038
  184MOL0     C24726   8.683   7.472   7.769 -0.2367 -0.5185  0.0108
  184MOL0     C24727   8.801   7.416   7.848  0.4818 -1.1225 -0.4741
  184MOL0     C24728   8.936   7.441   7.756 -0.0317 -0.8117 -0.1879
  184MOL0     O24729   8.963   7.581   7.778  0.6201  0.2145  0.5859
  184MOL0     C24730   9.091   7.621   7.746 -0.7590 -0.6653  0.3530
  184MOL0     C24731   9.116   7.760   7.758 -0.7558  0.0755  0.6010
  184MOL0     C24732   9.240   7.817   7.701 -0.2135 -0.4703  0.0409
  184MOL0     C24733   9.343   7.731   7.658 -0.9045 -0.6425  0.9646
  184MOL0     C24734   9.483   7.780   7.628 -0.3885  0.3140  0.2765
  184MOL0     O24735   9.514   7.920   7.644  1.0021  0.6020 -1.3336
  184MOL0     C24736   9.645   7.961   7.654 -0.1588  0.0161  0.9079
  184MOL0     C24737   9.681   8.057   7.559  0.2275 -0.2756 -0.7298
  184MOL0     C24738   9.819   8.095   7.549 -0.2401  0.6062  0.5318
  184MOL0     C24739   9.918   8.023   7.619  0.3155 -0.5649 -0.1088
  184MOL0     O24740  10.048   8.054   7.589  0.2162 -0.0790 -0.4718
  184MOL0     C24741  10.156   7.991   7.657 -0.2581 -0.0277  0.3405
  184MOL0     C24742  10.292   8.025   7.580  0.4785 -0.2640  0.1791
  184MOL0     C24743  10.292   7.975   7.429  0.0428  0.1719 -0.0993
  184MOL0     C24744  10.440   7.955   7.387  0.4694 -0.1742 -0.5973
  184MOL0     C24745  10.445   7.897   7.250  0.0102  0.6874 -0.1255
  184MOL0     C24746  10.586   7.873   7.204 -0.2222 -0.1599 -0.4203
  184MOL0     C24747  10.678   7.998   7.222  0.0557  0.5407 -0.1141
  184MOL0     C24748  10.810   7.970   7.151  0.2497  0.9393  1.1276
  184MOL0    Cl24749  10.904   7.854   7.252  0.7896 -0.3388  0.1721
  184MOL0     C24750   9.874   7.947   7.730  0.7111 -0.1252 -0.6985
  184MOL0     C24751   9.743   7.908   7.744  0.1879 -0.6588  0.8096
  184MOL0     O24752   9.571   7.695   7.608  0.5952  0.5265 -0.2563
  184MOL0     C24753   9.313   7.596   7.648  0.1675 -0.1881 -0.2444
  184MOL0     C24754   9.192   7.542   7.694 -0.3711 -0.0786 -0.2678
  184MOL0     N24755   8.328   7.422   7.734 -0.0496  0.6113 -0.0645
  184MOL0     N24756   8.249   7.489   7.658  0.0756 -0.6060  0.3221
  184MOL0     C24757   7.570   7.515   7.219  0.4401  0.8182 -0.5314
  184MOL0     C24758   7.454   7.461   7.152 -0.0569  0.8011 -0.1246
  184MOL0     C24759   7.128   7.294   6.910 -0.8622 -0.5063 -0.3304
  184MOL0     C24760   7.180   7.239   6.789  0.0023  0.6178  0.4746
  184MOL0     C24761   7.096   7.231   6.671  0.0256  0.0354 -0.1025
  184MOL0     C24762   6.961   7.263   6.679 -0.0889  0.4037  0.4439
  184MOL0     O24763   6.869   7.261   6.573  0.0168  0.1447 -0.6784
  184MOL0     C24764   6.906   7.218   6.445 -0.5351 -0.2138  0.8682
  184MOL0     C24765   6.798   7.209   6.343 -0.8130  0.2409 -0.5348
  184MOL0     C24766   6.692   7.093   6.372 -1.4898 -0.4031 -0.1206
  184MOL0     C24767   6.622   7.065   6.246  0.4234 -0.5702  0.7269
  184MOL0     C24768   6.539   7.187   6.224  0.1495  0.2074 -0.2113
  184MOL0     C24769   6.471   7.276   6.190  0.7635 -0.0175 -0.5421
  184MOL0     C24770   6.909   7.303   6.797  0.6955  0.4774  0.2589
  184MOL0     C24771   6.988   7.315   6.913 -0.6198  0.1800 -0.0330
  184MOL0     C24772   6.900   7.352   7.034 -0.1048  0.1256  0.9844
  184MOL0     H24773   7.586   7.164   7.040  1.2722 -0.5491  1.5613
  184MOL0     H24774   7.789   7.254   7.173  0.5095  0.3667  2.5421
  184MOL0     H24775   7.927   7.633   7.337  0.0629 -0.1076  1.4783
  184MOL0     H24776   7.769   7.674   7.295 -1.8379 -0.7208 -0.6788
  184MOL0     H24777   7.870   7.522   7.540 -0.8813  0.6252  1.9645
  184MOL0     H24778   7.700   7.524   7.493 -2.6551  2.6347 -1.9770
  184MOL0     H24779   7.736   7.685   7.678  0.2880  1.0606  0.5711
  184MOL0     H24780   7.695   7.777   7.524  1.4231  1.0030 -0.2338
  184MOL0     H24781   7.947   7.779   7.490 -2.0677 -0.5196 -1.3792
  184MOL0     H24782   7.883   7.892   7.609 -1.9044 -0.5167  2.3140
  184MOL0     H24783   7.920   7.746   7.804 -0.4475  2.3831 -0.7485
  184MOL0     H24784   8.006   7.637   7.709  2.7963  0.0765  2.3369
  184MOL0     H24785   8.107   7.914   7.785  0.8472 -0.9974  1.5388
  184MOL0     H24786   8.187   7.766   7.806 -0.0887 -0.6735  0.7334
  184MOL0     H24787   8.279   7.896   7.634  0.8001  0.4379 -0.3651
  184MOL0     H24788   8.136   7.888   7.530 -0.4539  0.3823  0.1814
  184MOL0     H24789   8.159   7.654   7.484 -0.5933 -0.8780  1.2208
  184MOL0     H24790   8.309   7.757   7.460  1.2347 -0.0874  1.4529
  184MOL0     H24791   8.498   7.699   7.707  1.1480 -1.4059  2.3168
  184MOL0     H24792   8.562   7.531   7.936  3.3459  0.6892 -1.1728
  184MOL0     H24793   8.532   7.361   7.884 -2.2271 -0.5682  2.1664
  184MOL0     H24794   8.679   7.407   7.680 -0.0597 -0.3594 -0.1122
  184MOL0     H24795   8.700   7.578   7.750 -0.8296 -0.5534 -0.8168
  184MOL0     H24796   8.790   7.308   7.864 -0.0686 -0.5920  3.7065
  184MOL0     H24797   8.817   7.465   7.944  2.4180 -2.4634 -0.0493
  184MOL0     H24798   8.924   7.409   7.652 -0.2762 -0.1251 -0.3743
  184MOL0     H24799   9.008   7.371   7.800 -0.7951 -2.3366 -1.2570
  184MOL0     H24800   9.041   7.821   7.807 -0.2764  0.1778  1.2160
  184MOL0     H24801   9.251   7.923   7.721  0.2508 -1.1173  4.1183
  184MOL0     H24802   9.602   8.098   7.497  1.7086  2.3895 -1.0321
  184MOL0     H24803   9.837   8.171   7.474 -3.7727 -0.5684 -1.7842
  184MOL0     H24804  10.166   8.013   7.764 -1.7744  1.9155  0.1264
  184MOL0     H24805  10.137   7.883   7.659 -0.1373 -0.1262 -1.5092
  184MOL0     H24806  10.311   8.132   7.587  4.1593 -0.8240  0.5432
  184MOL0     H24807  10.369   7.972   7.636 -0.2426 -1.0054  0.4977
  184MOL0     H24808  10.225   7.889   7.433 -1.3960  1.3143  1.4670
  184MOL0     H24809  10.240   8.040   7.358 -3.9900 -1.6741  0.8713
  184MOL0     H24810  10.487   7.889   7.461  0.7050  1.1329  0.4591
  184MOL0     H24811  10.488   8.053   7.385  2.3132 -1.0081  0.3076
  184MOL0     H24812  10.398   7.956   7.171  0.8827 -1.4178 -2.3549
  184MOL0     H24813  10.411   7.793   7.252 -0.4950  0.8482  1.7581
  184MOL0     H24814  10.625   7.781   7.249  2.5942 -0.6073 -3.3982
  184MOL0     H24815  10.590   7.854   7.097  0.3695 -3.1025  0.0319
  184MOL0     H24816  10.701   8.030   7.324 -0.3090 -0.5187  0.3123
  184MOL0     H24817  10.630   8.087   7.180  0.5425 -0.2725 -2.5603
  184MOL0     H24818  10.790   7.930   7.052 -2.2368  1.6669  1.2852
  184MOL0     H24819  10.861   8.066   7.135  1.8225  0.0204  0.3224
  184MOL0     H24820   9.946   7.904   7.799 -2.2926 -1.3249  1.9217
  184MOL0     H24821   9.711   7.829   7.811 -2.5843 -0.6777 -0.4194
  184MOL0     H24822   9.386   7.527   7.607  0.1913  0.3006 -1.0480
  184MOL0     H24823   9.179   7.436   7.674 -0.5196  0.5870 -4.7160
  184MOL0     H24824   7.571   7.606   7.277 -1.1538  1.3116 -1.2381
  184MOL0     H24825   7.368   7.527   7.147  1.8070  3.5746  1.6974
  184MOL0     H24826   7.282   7.203   6.779 -1.0810 -2.4165 -0.7839
  184MOL0     H24827   7.145   7.191   6.583 -0.9878 -2.1084  0.2423
  184MOL0     H24828   6.961   7.124   6.440 -2.4769 -1.3200 -1.3498
  184MOL0     H24829   6.988   7.281   6.411 -1.0839  0.2111  0.2942
  184MOL0     H24830   6.855   7.188   6.253  1.2759 -1.5160  1.0904
  184MOL0     H24831   6.744   7.304   6.334  0.4717  0.8324 -2.5828
  184MOL0     H24832   6.637   7.131   6.458  2.3309  2.5040  1.3274
  184MOL0     H24833   6.754   7.012   6.412 -0.5703  0.5513  0.4300
  184MOL0     H24834   6.682   7.055   6.155 -1.4101  1.0417 -0.7370
  184MOL0     H24835   6.556   6.980   6.264 -0.8240  0.7072  2.5866
  184MOL0     H24836   6.401   7.355   6.169 -0.8549 -0.5309  2.3889
  184MOL0     H24837   6.802   7.317   6.810  0.9228  3.1304 -0.0407
  184MOL0     H24838   6.937   7.439   7.090  1.3135  0.3922 -0.3051
  184MOL0     H24839   6.802   7.383   6.997  0.4192  0.7237  0.0476
  184MOL0     H24840   6.885   7.268   7.103 -0.2122 -0.6913 -0.0142
  185MOL0     O24841   2.428   2.932   6.724 -0.6795  0.5808 -0.1928
  185MOL0     C24842   2.498   2.956   6.626 -0.4126  0.4231  0.8060
  185MOL0     O24843   2.454   3.034   6.519  0.2583  0.0059 -0.5780
  185MOL0     C24844   2.331   3.107   6.536 -0.1299  0.1431 -0.1018
  185MOL0     C24845   2.303   3.195   6.646 -0.0993  0.0851 -0.6417
  185MOL0     C24846   2.179   3.259   6.651 -0.3536  0.0621  0.3744
  185MOL0     C24847   2.082   3.245   6.549 -0.6208 -0.7449  0.5921
  185MOL0     O24848   1.961   3.309   6.565 -0.2197 -0.5892  0.8159
  185MOL0     C24849   1.877   3.261   6.666 -0.3673 -0.1051 -0.4515
  185MOL0     C24850   1.724   3.265   6.631 -0.2515  0.0655 -0.4178
  185MOL0     C24851   1.647   3.215   6.746  0.3120 -0.8123 -0.8620
  185MOL0     C24852   1.640   3.319   6.866 -0.3687  1.2636  0.4789
  185MOL0     C24853   1.528   3.319   6.965  0.3049  0.9447 -0.2388
  185MOL0     C24854   1.550   3.395   7.091 -0.3290  0.9113  0.2067
  185MOL0     C24855   1.417   3.433   7.145  0.5853 -0.4726 -0.2165
  185MOL0     C24856   1.418   3.490   7.293  0.4586  0.5223  0.3478
  185MOL0     N24857   1.498   3.397   7.379 -0.3103  0.2815  0.0886
  185MOL0     C24858   1.450   3.286   7.457 -0.9926  0.1786  0.6453
  185MOL0     C24859   1.551   3.265   7.550 -1.1813  0.8475  0.0739
  185MOL0     C24860   1.548   3.155   7.661 -0.1753  0.2365  1.2625
  185MOL0     C24861   1.688   3.122   7.701 -0.4953  0.2523  1.7550
  185MOL0     C24862   1.693   3.014   7.804 -0.2336  0.1635  0.6371
  185MOL0     C24863   1.843   2.965   7.834 -0.4715 -0.2039 -0.1556
  185MOL0     O24864   1.892   2.904   7.717  0.2177  0.2303  0.7483
  185MOL0     C24865   2.027   2.924   7.691  0.3565  1.0976 -0.6866
  185MOL0     C24866   2.123   2.951   7.793  0.4402 -0.1801 -0.1150
  185MOL0     C24867   2.252   2.961   7.759 -0.5578 -0.5711  0.9015
  185MOL0     C24868   2.301   2.953   7.627 -1.2070 -0.7944  0.1859
  185MOL0     C24869   2.444   2.976   7.598  0.0676  0.4199  0.6135
  185MOL0     O24870   2.492   2.970   7.470 -0.0760 -0.4019  0.2808
  185MOL0     C24871   2.625   3.009   7.452  0.1335 -0.0681  0.2729
  185MOL0     C24872   2.637   3.109   7.353 -1.9247  0.5115 -0.5068
  185MOL0     C24873   2.762   3.159   7.313 -0.4334 -0.2027  0.4135
  185MOL0     C24874   2.883   3.124   7.380  0.7680  0.3644 -0.6370
  185MOL0     O24875   3.005   3.187   7.366  0.4756  0.0685  0.0425
  185MOL0     C24876   3.012   3.283   7.249 -0.6785  0.3690 -1.7254
  185MOL0     C24877   3.144   3.364   7.248  1.1564  0.1849 -0.4884
  185MOL0     C24878   3.263   3.268   7.239 -0.5647 -0.5881 -0.7078
  185MOL0     C24879   3.388   3.340   7.202 -0.1194  0.2928  0.2921
  185MOL0     C24880   3.501   3.237   7.235  0.4318  1.1337 -0.0433
  185MOL0     C24881   3.626   3.249   7.133  0.0763  0.1498 -0.3501
  185MOL0     C24882   3.722   3.147   7.159 -0.6211 -0.9038  0.8143
  185MOL0     C24883   3.828   3.140   7.048  0.8608  0.5043 -0.5096
  185MOL0    Cl24884   3.900   3.305   6.999  0.0479  0.3111  0.1822
  185MOL0     C24885   2.865   3.043   7.491  1.2240  0.5630 -0.0587
  185MOL0     C24886   2.739   2.973   7.521 -0.2957 -0.4664 -0.2132
  185MOL0     O24887   2.512   3.020   7.692 -0.4299  1.4087  0.1070
  185MOL0     C24888   2.206   2.923   7.526  0.3145 -0.2877  0.1250
  185MOL0     C24889   2.072   2.905   7.563 -0.4718  0.6270 -0.1261
  185MOL0     N24890   1.665   3.345   7.516 -0.2001  0.5145 -0.6728
  185MOL0     N24891   1.624   3.425   7.417  0.2493  0.0527  0.3918
  185MOL0     C24892   2.110   3.156   6.440  1.1437  0.9747  0.1177
  185MOL0     C24893   2.240   3.101   6.436  0.4245  0.3782  0.7625
  185MOL0     C24894   2.646   2.920   6.634 -0.0538 -0.6619  0.2522
  185MOL0     C24895   2.686   2.812   6.723  0.6071 -0.2538  0.2260
  185MOL0     C24896   2.819   2.807   6.755  0.2076  0.2648  0.5607
  185MOL0     C24897   2.918   2.895   6.701  0.1212 -0.0634  0.3580
  185MOL0     O24898   3.056   2.901   6.729  0.1534 -0.9914  0.5628
  185MOL0     C24899   3.088   2.860   6.858 -0.4906 -0.1776 -0.3331
  185MOL0     C24900   3.214   2.933   6.899  0.1429 -0.0653  0.0654
  185MOL0     C24901   3.332   2.914   6.796  0.2248 -0.2875 -0.4859
  185MOL0     C24902   3.459   2.971   6.869  1.0494  1.0347  0.1858
  185MOL0     C24903   3.575   2.948   6.794 -0.4313  0.0866  0.3168
  185MOL0     C24904   3.672   2.925   6.727  0.0731  0.0558  0.5152
  185MOL0     C24905   2.880   2.975   6.590 -0.3702  0.7349  0.2762
  185MOL0     C24906   2.747   3.008   6.566 -0.5628  0.0422  0.5932
  185MOL0     C24907   2.721   3.126   6.475  0.1680  0.6492 -0.3337
  185MOL0     H24908   2.373   3.223   6.725 -1.1861 -0.7004  0.6496
  185MOL0     H24909   2.163   3.332   6.730  0.4445  2.0595 -1.2289
  185MOL0     H24910   1.910   3.162   6.701 -1.0984  0.1627  1.0841
  185MOL0     H24911   1.896   3.333   6.746 -0.9028  0.3880 -0.7641
  185MOL0     H24912   1.714   3.205   6.541  2.7009  0.3797 -1.0536
  185MOL0     H24913   1.696   3.365   6.596  3.3389  1.5871  0.5256
  185MOL0     H24914   1.686   3.116   6.771  1.1703 -0.3809 -0.4556
  185MOL0     H24915   1.545   3.193   6.714 -0.8016  1.5547  0.7227
  185MOL0     H24916   1.728   3.311   6.930  0.2192 -0.2853 -0.4779
  185MOL0     H24917   1.641   3.422   6.828 -1.0779  0.5462 -1.6180
  185MOL0     H24918   1.444   3.361   6.909  0.2423  0.8610 -0.2075
  185MOL0     H24919   1.492   3.218   6.987  1.2715  0.9382  1.5321
  185MOL0     H24920   1.619   3.337   7.154  0.2158  1.7439  0.3895
  185MOL0     H24921   1.612   3.482   7.065 -1.1491  0.6209 -3.1622
  185MOL0     H24922   1.349   3.348   7.136 -0.2556  0.3353 -1.8947
  185MOL0     H24923   1.380   3.509   7.076  0.5354 -1.5536 -1.4139
  185MOL0     H24924   1.444   3.596   7.293  3.1765 -0.0510 -0.2659
  185MOL0     H24925   1.314   3.474   7.321 -0.4409  0.6067 -2.5674
  185MOL0     H24926   1.349   3.246   7.456 -1.3389  1.0377 -1.0689
  185MOL0     H24927   1.486   3.197   7.740 -1.5170  0.8367 -0.0615
  185MOL0     H24928   1.504   3.069   7.608 -0.8303  0.1592  1.9183
  185MOL0     H24929   1.753   3.101   7.616 -1.7938  0.2996  0.7207
  185MOL0     H24930   1.730   3.213   7.744  0.4730  0.4092  0.5343
  185MOL0     H24931   1.640   2.931   7.758  1.0923 -0.1800 -0.3059
  185MOL0     H24932   1.636   3.025   7.897 -0.1489 -0.6950  0.8021
  185MOL0     H24933   1.846   2.898   7.920  0.4687  0.8769  0.6776
  185MOL0     H24934   1.896   3.058   7.855  2.3526 -1.3763 -1.5795
  185MOL0     H24935   2.095   2.963   7.897 -4.4787 -1.0269 -1.1167
  185MOL0     H24936   2.328   2.984   7.833  0.9440 -1.3047 -0.3630
  185MOL0     H24937   2.546   3.152   7.313 -1.5146 -0.3282 -2.4865
  185MOL0     H24938   2.752   3.226   7.228  2.9024  0.2831  0.2472
  185MOL0     H24939   3.018   3.221   7.159 -0.5152  0.8993 -2.0830
  185MOL0     H24940   2.931   3.356   7.253 -1.2918 -0.1674  3.4283
  185MOL0     H24941   3.146   3.429   7.160  1.1302  1.1804  0.2178
  185MOL0     H24942   3.159   3.421   7.340  2.5699 -1.8692  0.6256
  185MOL0     H24943   3.277   3.237   7.343 -0.8748  3.1588  0.6001
  185MOL0     H24944   3.241   3.187   7.169 -0.0365 -0.7095 -0.7380
  185MOL0     H24945   3.402   3.438   7.249  2.2691 -0.0694  0.4547
  185MOL0     H24946   3.381   3.351   7.093  0.0426 -1.6058  0.0448
  185MOL0     H24947   3.456   3.138   7.234  0.2810  1.0140  3.8548
  185MOL0     H24948   3.531   3.258   7.338 -0.3510 -1.7190  0.8439
  185MOL0     H24949   3.587   3.241   7.032 -0.5236  0.7339 -0.1661
  185MOL0     H24950   3.674   3.346   7.151 -3.1326  1.4626  2.0719
  185MOL0     H24951   3.661   3.056   7.158  0.4524 -1.6450  0.5325
  185MOL0     H24952   3.774   3.143   7.255  0.0822  2.2212  0.6622
  185MOL0     H24953   3.911   3.072   7.068  0.8265  0.4240 -0.6377
  185MOL0     H24954   3.775   3.100   6.961 -1.2938  0.9580  0.5219
  185MOL0     H24955   2.949   3.027   7.558 -0.0828  0.6267  1.6613
  185MOL0     H24956   2.731   2.910   7.609  3.1038 -1.0751 -0.2093
  185MOL0     H24957   2.254   2.920   7.428 -0.4131 -1.5765 -0.2216
  185MOL0     H24958   2.002   2.880   7.484 -0.8602 -2.3000  1.0252
  185MOL0     H24959   2.047   3.132   6.355  0.7243  2.9536 -0.1797
  185MOL0     H24960   2.265   3.047   6.345  0.7490  3.0148 -0.8060
  185MOL0     H24961   2.612   2.758   6.781 -0.1524  2.5477  2.1070
  185MOL0     H24962   2.846   2.743   6.839  0.0348 -0.0413  0.3850
  185MOL0     H24963   3.100   2.751   6.865  1.3318  0.0923  2.2743
  185MOL0     H24964   3.018   2.900   6.931  0.3274  2.0531 -0.6791
  185MOL0     H24965   3.239   2.894   6.999  0.1074  0.0009  0.1010
  185MOL0     H24966   3.187   3.039   6.907 -1.1952 -0.5143  2.8994
  185MOL0     H24967   3.304   2.976   6.710  0.6282 -2.9785 -2.6942
  185MOL0     H24968   3.350   2.811   6.764  2.4015 -0.1269  0.0452
  185MOL0     H24969   3.432   3.073   6.898 -0.0708  0.5744  0.8378
  185MOL0     H24970   3.474   2.911   6.959  1.9220 -2.6970 -2.2453
  185MOL0     H24971   3.756   2.896   6.667  0.1322 -3.6364  2.1267
  185MOL0     H24972   2.957   3.032   6.538  0.3303  0.7609  1.3197
  185MOL0     H24973   2.660   3.087   6.393 -2.4403 -0.3500  1.9173
  185MOL0     H24974   2.664   3.208   6.518 -0.1861  0.5407 -0.5961
  185MOL0     H24975   2.815   3.163   6.434  0.6964  1.4463  1.4836
  186MOL0     O24976   8.463   2.000   8.049 -0.5218  0.0880 -0.9548
  186MOL0     C24977   8.513   1.931   7.957  0.2287  0.0762 -0.5471
  186MOL0     O24978   8.451   1.855   7.873  0.5482 -0.0867  0.1418
  186MOL0     C24979   8.317   1.843   7.857  0.5219 -0.1735  0.7212
  186MOL0     C24980   8.219   1.936   7.883  1.1049  0.2343 -0.3726
  186MOL0     C24981   8.083   1.918   7.856  0.2069  1.2335  0.3483
  186MOL0     C24982   8.039   1.803   7.786 -1.2718  0.1832 -0.3037
  186MOL0     O24983   7.908   1.784   7.760 -0.8738 -0.0037 -0.3767
  186MOL0     C24984   7.862   1.667   7.693 -0.3527  0.2798 -0.2864
  186MOL0     C24985   7.714   1.652   7.675  0.4509 -0.3663 -0.1296
  186MOL0     C24986   7.640   1.638   7.811 -0.1299  0.7609  0.6446
  186MOL0     C24987   7.639   1.771   7.885 -0.1807 -0.5597  0.2178
  186MOL0     C24988   7.525   1.799   7.982  0.8278  0.5206  0.2566
  186MOL0     C24989   7.540   1.939   8.048 -0.2893  1.1618  0.3671
  186MOL0     C24990   7.432   1.968   8.141 -0.2044  0.3096  0.4407
  186MOL0     C24991   7.438   2.105   8.186 -0.2762 -0.4501  0.7458
  186MOL0     N24992   7.327   2.136   8.274  0.4375 -0.1657  0.2701
  186MOL0     C24993   7.224   2.217   8.244  0.1963  0.3957  0.4945
  186MOL0     C24994   7.140   2.204   8.345 -0.5417 -0.8537 -0.2297
  186MOL0     C24995   7.005   2.271   8.362 -0.0911  1.0176  0.5356
  186MOL0     C24996   7.008   2.374   8.471 -0.7519  0.4041  0.1769
  186MOL0     C24997   6.869   2.445   8.484 -0.7142 -0.9825 -0.7801
  186MOL0     C24998   6.765   2.350   8.547  0.4515 -1.1844  0.8910
  186MOL0     O24999   6.644   2.431   8.574 -0.5904 -0.1222  0.4522
  186MOL0     C25000   6.539   2.354   8.629  0.5870 -0.0682  0.9294
  186MOL0     C25001   6.417   2.415   8.615  1.0341 -0.1002 -0.0346
  186MOL0     C25002   6.299   2.349   8.654 -0.0892 -0.0375  0.2129
  186MOL0     C25003   6.303   2.218   8.715  0.4556  0.5327  1.4068
  186MOL0     C25004   6.186   2.134   8.757 -0.6861 -0.2600  0.1094
  186MOL0     O25005   6.065   2.187   8.710 -0.2988 -0.3424 -0.0671
  186MOL0     C25006   5.953   2.124   8.750  0.6466 -0.3187 -0.0756
  186MOL0     C25007   5.933   2.073   8.880 -0.0891  0.6202 -0.3420
  186MOL0     C25008   5.803   2.026   8.917 -0.3760  0.2356  0.7088
  186MOL0     C25009   5.702   2.009   8.824 -1.0437 -0.2104  0.0052
  186MOL0     O25010   5.583   1.958   8.862  0.4883  0.6408  0.1639
  186MOL0     C25011   5.481   2.051   8.885  0.6350 -0.1773  0.1094
  186MOL0     C25012   5.372   2.042   8.785  0.2742  0.1650  0.3272
  186MOL0     C25013   5.256   2.121   8.840  0.8869 -0.3777  0.5523
  186MOL0     C25014   5.118   2.084   8.775  0.4925 -0.3606  1.1734
  186MOL0     C25015   5.121   2.108   8.621  0.4536 -0.0062 -0.0491
  186MOL0     C25016   4.972   2.123   8.572 -0.0072  0.3538 -1.0391
  186MOL0     C25017   4.960   2.139   8.420  0.1267 -0.7150 -0.9879
  186MOL0     C25018   4.814   2.192   8.384 -0.5448 -0.1721 -0.2249
  186MOL0    Cl25019   4.676   2.083   8.415 -0.1741 -0.4656  0.0870
  186MOL0     C25020   5.724   2.068   8.704  0.6066  0.4969 -0.4896
  186MOL0     C25021   5.839   2.119   8.664 -0.2869 -0.9287  0.0787
  186MOL0     O25022   6.206   2.039   8.835 -0.1778  0.2028 -0.3265
  186MOL0     C25023   6.432   2.167   8.730  0.5970  0.4866 -1.2560
  186MOL0     C25024   6.549   2.236   8.695 -0.0835 -0.5565  0.0961
  186MOL0     N25025   7.191   2.127   8.444  0.4035  0.2127 -0.8518
  186MOL0     N25026   7.301   2.082   8.398 -0.7530 -0.4329 -0.2112
  186MOL0     C25027   8.140   1.711   7.761 -0.2210  1.2711 -0.2703
  186MOL0     C25028   8.272   1.726   7.790 -0.1731  0.3895 -0.6981
  186MOL0     C25029   8.657   1.946   7.930 -0.5739  0.3070  0.0018
  186MOL0     C25030   8.714   1.897   7.804 -0.4714 -0.1879 -0.2194
  186MOL0     C25031   8.849   1.897   7.774  0.6513 -0.5460 -0.8416
  186MOL0     C25032   8.940   1.919   7.877  0.0613  0.3978 -0.7083
  186MOL0     O25033   9.072   1.915   7.856 -1.2781  0.1457 -0.0664
  186MOL0     C25034   9.163   1.935   7.968  0.1397  0.5891 -0.5499
  186MOL0     C25035   9.297   1.888   7.911  0.6154 -0.0214 -0.2644
  186MOL0     C25036   9.406   1.856   8.024 -0.1042  0.2498  0.2456
  186MOL0     C25037   9.542   1.913   7.993  0.5576 -1.3761  0.2832
  186MOL0     C25038   9.549   2.056   8.040 -0.1740 -0.1137  1.0116
  186MOL0     C25039   9.536   2.174   8.065 -0.5734 -0.1340 -0.4919
  186MOL0     C25040   8.888   1.949   8.005 -0.1664 -0.4772  0.4425
  186MOL0     C25041   8.757   1.965   8.038  0.2824  0.6537  0.9682
  186MOL0     C25042   8.714   2.001   8.174 -0.3792 -0.6012 -0.1549
  186MOL0     H25043   8.233   2.022   7.947  0.5350  0.0074  0.0781
  186MOL0     H25044   8.004   1.982   7.893  1.3356  1.8785  1.7680
  186MOL0     H25045   7.912   1.644   7.598  0.9920 -0.3899  0.5541
  186MOL0     H25046   7.880   1.575   7.748  0.9214  0.5596 -0.2212
  186MOL0     H25047   7.698   1.555   7.628 -1.1042  0.2253 -0.8880
  186MOL0     H25048   7.662   1.729   7.617 -0.8280 -0.9836  0.1612
  186MOL0     H25049   7.687   1.556   7.866 -2.3996 -1.8640 -1.0095
  186MOL0     H25050   7.540   1.594   7.800  0.9331 -1.5555 -0.4270
  186MOL0     H25051   7.732   1.782   7.941  1.4785 -0.6572 -2.3235
  186MOL0     H25052   7.626   1.852   7.813 -1.0411 -1.1374 -0.2936
  186MOL0     H25053   7.435   1.799   7.920  0.2407 -0.3251  1.0748
  186MOL0     H25054   7.523   1.726   8.064  5.2050 -1.6344 -1.2667
  186MOL0     H25055   7.627   1.943   8.114  0.1659 -3.3951  0.3377
  186MOL0     H25056   7.544   2.014   7.968  2.0228  2.4559  1.5683
  186MOL0     H25057   7.419   1.902   8.227 -0.8025 -0.5031 -0.2622
  186MOL0     H25058   7.341   1.945   8.086  1.6045 -2.7063 -1.6444
  186MOL0     H25059   7.528   2.127   8.243 -1.2504  1.3415  1.7083
  186MOL0     H25060   7.439   2.172   8.100 -1.2571 -0.1073  0.9847
  186MOL0     H25061   7.210   2.286   8.161  3.5901 -1.0344 -1.4805
  186MOL0     H25062   6.960   2.316   8.273 -2.0111  2.2164  2.0149
  186MOL0     H25063   6.948   2.183   8.395  3.3570 -1.0043  1.5608
  186MOL0     H25064   7.040   2.324   8.563 -2.4362 -2.4840 -0.6481
  186MOL0     H25065   7.078   2.452   8.443  0.3834 -0.1326  1.4456
  186MOL0     H25066   6.842   2.498   8.392  0.5703  0.9101 -0.1237
  186MOL0     H25067   6.881   2.530   8.551  4.0001 -1.7139 -0.3968
  186MOL0     H25068   6.800   2.310   8.643  1.3842 -0.3065  0.9310
  186MOL0     H25069   6.742   2.268   8.477  0.5076 -1.4546  1.1869
  186MOL0     H25070   6.413   2.508   8.559  0.1802  0.4281  0.8615
  186MOL0     H25071   6.209   2.394   8.614  1.2834  0.7470 -2.1775
  186MOL0     H25072   6.003   2.075   8.964 -1.4374  1.1926  0.7998
  186MOL0     H25073   5.776   1.998   9.018  2.6056 -2.6362  0.8587
  186MOL0     H25074   5.456   2.043   8.991  1.4271  2.0064  0.5206
  186MOL0     H25075   5.521   2.152   8.871  1.6336 -0.2936  1.8268
  186MOL0     H25076   5.411   2.078   8.690  0.6684  1.2635  0.8769
  186MOL0     H25077   5.338   1.938   8.786 -2.0839  0.8658  0.9133
  186MOL0     H25078   5.238   2.103   8.947 -3.1359 -1.5043 -0.1551
  186MOL0     H25079   5.271   2.227   8.821  0.9492 -0.3652  0.6717
  186MOL0     H25080   5.042   2.157   8.804  2.4804  2.8437 -0.9125
  186MOL0     H25081   5.081   1.985   8.803 -1.3050 -0.2449 -0.5477
  186MOL0     H25082   5.166   2.018   8.578  1.0141  0.9438 -1.5196
  186MOL0     H25083   5.184   2.196   8.604 -1.4702  2.2313  3.1545
  186MOL0     H25084   4.910   2.040   8.607  1.4397 -0.7243 -0.9934
  186MOL0     H25085   4.936   2.213   8.624  2.3982  0.2189  1.0775
  186MOL0     H25086   4.983   2.040   8.378  2.1707 -1.7879  2.2246
  186MOL0     H25087   5.032   2.212   8.381 -0.7394  0.5901 -0.2272
  186MOL0     H25088   4.813   2.291   8.431  2.6306 -0.4689  0.7264
  186MOL0     H25089   4.809   2.224   8.279 -2.5090  2.7663  0.6458
  186MOL0     H25090   5.645   2.071   8.629 -0.9090  1.3831  1.0797
  186MOL0     H25091   5.849   2.171   8.570  1.0844  2.5748  1.9618
  186MOL0     H25092   6.438   2.069   8.777  0.2877  1.6865  1.4092
  186MOL0     H25093   6.637   2.176   8.716  0.5313  0.1886 -0.3240
  186MOL0     H25094   8.110   1.620   7.711  2.9788  0.5463 -1.0686
  186MOL0     H25095   8.352   1.655   7.769 -0.3203 -0.5501  1.6204
  186MOL0     H25096   8.640   1.868   7.730 -3.4334  1.9216  1.6331
  186MOL0     H25097   8.894   1.885   7.677  0.2355 -1.4904 -0.9253
  186MOL0     H25098   9.146   1.866   8.051 -0.3781  1.8528  0.4319
  186MOL0     H25099   9.168   2.033   8.016 -3.3634  1.4829 -1.6886
  186MOL0     H25100   9.330   1.956   7.832 -1.4271  0.5317 -0.7052
  186MOL0     H25101   9.270   1.792   7.867 -0.5471 -0.5018  1.3890
  186MOL0     H25102   9.423   1.748   8.026  0.1548  0.2975  1.1660
  186MOL0     H25103   9.361   1.891   8.118 -3.1402  2.4173 -1.8148
  186MOL0     H25104   9.619   1.858   8.047 -1.9795 -1.1012  4.6906
  186MOL0     H25105   9.568   1.910   7.886  2.8380  4.1475  0.3397
  186MOL0     H25106   9.537   2.279   8.085 -0.8523 -0.1304 -0.4883
  186MOL0     H25107   8.958   1.965   8.086  1.8086 -0.2966 -1.2413
  186MOL0     H25108   8.638   1.934   8.217 -0.2722 -0.6790 -0.0862
  186MOL0     H25109   8.807   2.002   8.231  0.5608 -1.7228 -1.6093
  186MOL0     H25110   8.674   2.102   8.174  1.7929  0.3237  0.6658
  187MOL0     O25111   7.543   2.689   9.386  0.5207  0.4149  0.0839
  187MOL0     C25112   7.525   2.765   9.482 -0.5518  0.0399  0.2890
  187MOL0     O25113   7.624   2.847   9.536 -0.4533 -0.1553  0.3756
  187MOL0     C25114   7.725   2.874   9.449  0.2627  0.3304 -0.1209
  187MOL0     C25115   7.827   2.791   9.427 -0.5355  0.3890  0.4716
  187MOL0     C25116   7.927   2.824   9.336  0.0732  0.3691 -0.3454
  187MOL0     C25117   7.934   2.946   9.270  0.0698 -0.8105 -0.6117
  187MOL0     O25118   8.029   2.973   9.172  0.4930  0.4803 -0.3561
  187MOL0     C25119   7.989   3.058   9.055  0.9207  0.7789 -0.6210
  187MOL0     C25120   8.113   3.068   8.966  0.2295  0.1640 -0.1586
  187MOL0     C25121   8.172   2.929   8.921 -0.0692  0.0865  0.0207
  187MOL0     C25122   8.322   2.949   8.873  0.6327 -0.2840 -1.4082
  187MOL0     C25123   8.382   2.823   8.821 -0.1465 -0.2180 -0.2414
  187MOL0     C25124   8.313   2.772   8.692 -0.3149 -0.2544  0.0971
  187MOL0     C25125   8.402   2.668   8.622  0.4364 -0.4109 -0.3047
  187MOL0     C25126   8.327   2.606   8.499  0.6152  0.5647 -0.3812
  187MOL0     N25127   8.297   2.687   8.385 -0.2411 -0.0282 -0.0173
  187MOL0     C25128   8.387   2.771   8.324 -0.2869 -0.5928  0.9889
  187MOL0     C25129   8.318   2.828   8.214 -0.3912  0.3385 -0.2099
  187MOL0     C25130   8.370   2.916   8.104 -0.1389 -0.4058 -1.0942
  187MOL0     C25131   8.484   2.841   8.036  0.1308 -0.2827  0.7168
  187MOL0     C25132   8.495   2.920   7.896  1.3224 -0.3998  0.1362
  187MOL0     C25133   8.609   2.846   7.822  0.6744 -0.9965 -0.0996
  187MOL0     O25134   8.723   2.878   7.903 -0.4855 -0.4991  0.1514
  187MOL0     C25135   8.840   2.812   7.884 -0.2751  0.1770 -0.5658
  187MOL0     C25136   8.874   2.755   7.768 -0.0585  0.1721  0.1512
  187MOL0     C25137   9.004   2.691   7.755  0.0350 -0.2584 -0.8859
  187MOL0     C25138   9.097   2.693   7.855 -0.7164 -0.1117  0.7683
  187MOL0     C25139   9.236   2.639   7.834 -0.5734  0.2863 -0.3612
  187MOL0     O25140   9.315   2.632   7.943  1.0467 -0.3710 -0.5998
  187MOL0     C25141   9.447   2.593   7.961 -0.7961 -0.0019  0.0585
  187MOL0     C25142   9.505   2.631   8.082 -0.5031 -0.2610 -0.2620
  187MOL0     C25143   9.648   2.621   8.099 -0.1398  0.4190 -0.0179
  187MOL0     C25144   9.731   2.582   7.989 -0.0413  1.0912  0.2170
  187MOL0     O25145   9.867   2.593   8.007 -0.6853 -0.0832  0.1520
  187MOL0     C25146   9.936   2.465   7.975  0.5338 -0.2589  0.1898
  187MOL0     C25147  10.078   2.476   8.039 -0.3626 -1.0759  0.2828
  187MOL0     C25148  10.126   2.333   8.072 -0.5407  0.4593  0.0694
  187MOL0     C25149  10.279   2.325   8.078  0.3503 -0.6603 -0.4205
  187MOL0     C25150  10.318   2.181   8.104 -0.1541 -0.4629 -1.1509
  187MOL0     C25151  10.466   2.185   8.149 -0.3435  0.0496 -0.9598
  187MOL0     C25152  10.513   2.045   8.188 -0.0128 -0.1949 -0.8609
  187MOL0     C25153  10.589   1.977   8.083  0.1474  0.3485  1.5911
  187MOL0    Cl25154  10.647   1.826   8.145 -0.0609 -0.9572  0.4360
  187MOL0     C25155   9.672   2.536   7.868  0.5020 -0.0358 -0.0810
  187MOL0     C25156   9.528   2.540   7.854 -0.0807 -0.7939  0.6986
  187MOL0     O25157   9.278   2.611   7.726  0.4478  0.1260  0.1854
  187MOL0     C25158   9.055   2.749   7.974 -0.4127  0.5298 -0.1050
  187MOL0     C25159   8.932   2.811   7.983 -0.2603 -0.1365 -0.5567
  187MOL0     N25160   8.195   2.755   8.213  0.4874  0.3712  0.4698
  187MOL0     N25161   8.189   2.668   8.316 -0.2345  0.1022 -0.0775
  187MOL0     C25162   7.817   3.022   9.287 -0.0090  0.0208  0.8710
  187MOL0     C25163   7.713   2.991   9.373 -0.4125 -0.2419  0.3583
  187MOL0     C25164   7.390   2.763   9.553 -0.4004  0.0968  0.9781
  187MOL0     C25165   7.314   2.888   9.562  0.9727  0.1564  0.3270
  187MOL0     C25166   7.177   2.871   9.611  0.2845 -0.0245  0.3308
  187MOL0     C25167   7.125   2.743   9.654  0.3637  0.1896  0.1378
  187MOL0     O25168   7.001   2.713   9.705  0.2797 -0.2293 -0.8216
  187MOL0     C25169   6.907   2.820   9.716 -0.9345  0.0968 -0.3222
  187MOL0     C25170   6.768   2.770   9.771  0.4842 -0.8821  0.4245
  187MOL0     C25171   6.762   2.645   9.857 -0.2107  0.5011 -0.0848
  187MOL0     C25172   6.618   2.603   9.893 -0.4118  0.2751 -0.3928
  187MOL0     C25173   6.529   2.582   9.780 -1.0343 -0.6566 -0.4493
  187MOL0     C25174   6.456   2.549   9.692 -0.1310  0.3384 -0.1274
  187MOL0     C25175   7.216   2.639   9.659  0.4853  0.1130  0.7951
  187MOL0     C25176   7.343   2.642   9.605  0.1067  0.2041  0.3799
  187MOL0     C25177   7.418   2.513   9.589 -0.0593 -0.0969  0.1817
  187MOL0     H25178   7.824   2.699   9.484  1.0834  1.1786  1.9268
  187MOL0     H25179   8.007   2.755   9.310  1.2117  1.6927 -0.4157
  187MOL0     H25180   7.899   3.018   9.007  1.5638 -2.7271  0.7660
  187MOL0     H25181   7.970   3.162   9.085  0.3088  0.4939  0.0257
  187MOL0     H25182   8.186   3.119   9.029  0.4448 -0.4031  0.0660
  187MOL0     H25183   8.095   3.123   8.874  1.0512  1.5217  0.4613
  187MOL0     H25184   8.107   2.879   8.849  1.3181 -1.6506 -0.1140
  187MOL0     H25185   8.178   2.860   9.006 -1.7995  2.6158  2.3621
  187MOL0     H25186   8.313   3.020   8.790  0.8506  2.5450  0.7953
  187MOL0     H25187   8.385   3.003   8.945 -2.8591  1.9549  0.2747
  187MOL0     H25188   8.486   2.853   8.804 -0.1221  0.1162  0.4497
  187MOL0     H25189   8.370   2.755   8.906 -2.5797 -1.0747 -1.1633
  187MOL0     H25190   8.219   2.727   8.727 -0.8776  1.2590  0.5800
  187MOL0     H25191   8.293   2.860   8.631  2.8112  1.4708  1.3437
  187MOL0     H25192   8.434   2.582   8.683  0.1984 -0.8734 -0.8256
  187MOL0     H25193   8.490   2.719   8.583 -0.6874 -0.9674 -3.9076
  187MOL0     H25194   8.390   2.522   8.469 -0.4272 -0.7049  0.8759
  187MOL0     H25195   8.234   2.569   8.542  0.7195 -0.7215 -1.2290
  187MOL0     H25196   8.487   2.794   8.359 -0.0558 -0.2355  0.1123
  187MOL0     H25197   8.287   2.934   8.035 -1.3695 -0.1458  0.3968
  187MOL0     H25198   8.413   3.006   8.148  0.9737 -1.9371  1.1742
  187MOL0     H25199   8.567   2.835   8.107  0.4514  0.2760  0.3989
  187MOL0     H25200   8.456   2.735   8.032  3.0469 -1.2626  2.7649
  187MOL0     H25201   8.526   3.023   7.915  3.4875 -0.5320 -2.1669
  187MOL0     H25202   8.405   2.918   7.833  1.1229 -2.4677  0.4034
  187MOL0     H25203   8.615   2.880   7.718 -1.5555  0.3404  0.1470
  187MOL0     H25204   8.588   2.739   7.828 -0.9502 -0.6778  0.1859
  187MOL0     H25205   8.810   2.749   7.681  2.0479 -0.3181 -1.4151
  187MOL0     H25206   9.036   2.640   7.664  1.6264 -0.5909 -0.1776
  187MOL0     H25207   9.451   2.665   8.170 -0.0157 -0.6562  0.1984
  187MOL0     H25208   9.694   2.656   8.190  0.6402 -3.1815  1.1081
  187MOL0     H25209   9.876   2.387   8.022  0.1691 -0.4566 -0.5981
  187MOL0     H25210   9.944   2.445   7.868  3.1820 -1.4148  0.5322
  187MOL0     H25211  10.150   2.513   7.965 -1.1198 -4.0154 -2.1216
  187MOL0     H25212  10.076   2.531   8.133 -3.1800  0.0968 -0.3784
  187MOL0     H25213  10.079   2.296   8.164  0.9545 -1.4430  0.1249
  187MOL0     H25214  10.095   2.265   7.992  0.7362 -2.7336  2.0731
  187MOL0     H25215  10.309   2.386   8.163 -1.1576  1.6459 -1.4497
  187MOL0     H25216  10.347   2.346   7.994 -0.2098 -0.3136 -0.7937
  187MOL0     H25217  10.304   2.124   8.011  1.3388 -3.4170  0.2927
  187MOL0     H25218  10.264   2.130   8.184 -0.1799 -1.3574 -1.7175
  187MOL0     H25219  10.536   2.237   8.083  1.6890 -1.2561  0.0577
  187MOL0     H25220  10.469   2.239   8.245 -2.3563 -0.7540 -0.3965
  187MOL0     H25221  10.420   1.990   8.210 -0.4341  0.2311 -1.5662
  187MOL0     H25222  10.575   2.051   8.278 -2.3337  3.6360  0.7347
  187MOL0     H25223  10.523   1.953   7.999  2.8561 -1.6629 -0.1594
  187MOL0     H25224  10.674   2.022   8.032  0.6586 -0.7595  1.4170
  187MOL0     H25225   9.736   2.515   7.783  1.9116  0.3198  0.8560
  187MOL0     H25226   9.497   2.500   7.758  1.4632 -0.0611 -0.1355
  187MOL0     H25227   9.120   2.748   8.061  1.4838  1.8817 -1.4102
  187MOL0     H25228   8.923   2.878   8.068  2.0531  1.1964 -1.2634
  187MOL0     H25229   7.804   3.113   9.230  0.9930 -1.4066 -1.8175
  187MOL0     H25230   7.630   3.061   9.375 -1.2264 -1.1832  0.5123
  187MOL0     H25231   7.353   2.980   9.521  1.6649 -1.1073 -2.0498
  187MOL0     H25232   7.107   2.953   9.620  0.8936  0.4285  1.0987
  187MOL0     H25233   6.888   2.862   9.616  3.3878 -1.6281 -2.1255
  187MOL0     H25234   6.934   2.906   9.778 -1.6199  1.2999 -1.6160
  187MOL0     H25235   6.715   2.751   9.678  1.2830  1.0174 -0.4581
  187MOL0     H25236   6.723   2.859   9.817  0.5844  2.1033 -4.5494
  187MOL0     H25237   6.832   2.656   9.940  1.0125 -0.2313 -0.9838
  187MOL0     H25238   6.799   2.562   9.796 -3.7197 -1.0408 -0.3719
  187MOL0     H25239   6.618   2.521   9.966  1.0520  1.7461  1.3552
  187MOL0     H25240   6.584   2.692   9.947  4.3390  2.2472 -0.1503
  187MOL0     H25241   6.382   2.512   9.625 -1.1403  1.8466  0.1013
  187MOL0     H25242   7.179   2.545   9.699 -1.0384  0.8265  1.1200
  187MOL0     H25243   7.527   2.511   9.577 -0.2356 -0.1622 -1.7353
  187MOL0     H25244   7.392   2.438   9.664  2.4729 -2.8211 -1.4534
  187MOL0     H25245   7.388   2.472   9.492  1.8570 -0.2795 -0.3705
  188MOL0     O25246   9.401   6.064   0.413 -0.2608  0.0927  0.4608
  188MOL0     C25247   9.442   5.986   0.492  0.4104 -0.5062 -0.4807
  188MOL0     O25248   9.367   5.891   0.558 -0.0799 -0.1454  0.8858
  188MOL0     C25249   9.231   5.883   0.552 -0.0912 -0.1613 -0.1575
  188MOL0     C25250   9.173   5.754   0.588 -0.1752 -0.4596 -0.6171
  188MOL0     C25251   9.039   5.739   0.583 -0.4037  0.0516 -0.4601
  188MOL0     C25252   8.953   5.839   0.533  0.7492  0.1977 -0.5238
  188MOL0     O25253   8.820   5.814   0.529  0.6128  0.0805 -0.1822
  188MOL0     C25254   8.746   5.857   0.645  0.0733  0.1464  0.7451
  188MOL0     C25255   8.591   5.846   0.640 -0.7206 -0.3221 -0.0956
  188MOL0     C25256   8.535   5.901   0.502 -0.3474  0.2013  0.6426
  188MOL0     C25257   8.396   5.852   0.477 -0.2482  0.5358  0.8733
  188MOL0     C25258   8.338   5.874   0.329 -0.0572  0.8868  0.4614
  188MOL0     C25259   8.352   6.015   0.277  0.6111 -0.4933 -0.5653
  188MOL0     C25260   8.280   6.031   0.143  0.2985  0.0182 -0.2242
  188MOL0     C25261   8.292   6.184   0.093  0.0371 -0.5030 -0.3708
  188MOL0     N25262   8.417   6.193   0.026 -0.0779 -0.1209  1.3061
  188MOL0     C25263   8.455   6.143  -0.094 -0.1771  0.5863 -0.1093
  188MOL0     C25264   8.581   6.180  -0.095 -0.0763 -0.4179  0.2154
  188MOL0     C25265   8.696   6.154  -0.192  0.1469 -0.9399  0.2172
  188MOL0     C25266   8.640   6.155  -0.339  0.0453 -0.3058 -0.2057
  188MOL0     C25267   8.757   6.169  -0.438 -0.1707  0.0143 -0.6202
  188MOL0     C25268   8.879   6.076  -0.416  0.3356  0.5318 -0.0400
  188MOL0     O25269   8.995   6.134  -0.467  0.1122 -0.0525 -0.0747
  188MOL0     C25270   9.124   6.083  -0.445  0.1113 -0.7391  0.5905
  188MOL0     C25271   9.233   6.166  -0.462  0.3154 -0.1158 -0.3682
  188MOL0     C25272   9.364   6.108  -0.455  0.7170  0.0587  0.6686
  188MOL0     C25273   9.388   5.967  -0.416 -0.9952 -0.0764 -0.6740
  188MOL0     C25274   9.522   5.915  -0.368  0.1826 -0.6377 -0.0595
  188MOL0     O25275   9.613   6.015  -0.362 -0.5858 -0.8844  0.5770
  188MOL0     C25276   9.725   5.987  -0.287 -0.3713  0.5101 -0.3654
  188MOL0     C25277   9.733   6.027  -0.157  0.0528  0.1642 -0.8968
  188MOL0     C25278   9.850   6.011  -0.083 -0.5651  0.0671  0.0347
  188MOL0     C25279   9.968   5.950  -0.144 -0.4769 -0.6063  0.6125
  188MOL0     O25280  10.083   5.944  -0.075  0.2693  0.0666 -0.9750
  188MOL0     C25281  10.138   6.056  -0.002  0.2094 -0.3556  0.5254
  188MOL0     C25282  10.237   6.125  -0.094 -0.3327  0.6594 -0.0420
  188MOL0     C25283  10.369   6.049  -0.115  0.4762 -0.3925 -0.3348
  188MOL0     C25284  10.474   6.067  -0.015 -0.0763 -1.3259 -0.1426
  188MOL0     C25285  10.607   6.017  -0.075  0.1370  0.2551  1.1161
  188MOL0     C25286  10.731   6.040   0.009 -0.1860  0.5148 -0.0781
  188MOL0     C25287  10.864   6.026  -0.074 -0.6996  0.0902  0.8425
  188MOL0     C25288  11.000   6.043  -0.001 -0.2482  0.8394 -0.6099
  188MOL0    Cl25289  11.145   6.020  -0.106 -0.0074 -0.3062  0.1723
  188MOL0     C25290   9.950   5.895  -0.275 -0.0682  0.5145  0.2760
  188MOL0     C25291   9.836   5.919  -0.345  1.1606 -0.2583  0.6055
  188MOL0     O25292   9.533   5.801  -0.322 -0.1982  0.4434  0.5305
  188MOL0     C25293   9.267   5.895  -0.389 -1.1569 -0.2992  0.0927
  188MOL0     C25294   9.141   5.946  -0.409 -0.2600 -0.3093 -0.5587
  188MOL0     N25295   8.616   6.247   0.014  0.4294 -0.3813 -1.0032
  188MOL0     N25296   8.516   6.264   0.083  0.4299  0.3820 -0.1644
  188MOL0     C25297   9.003   5.962   0.498 -0.1702  0.7881 -0.7027
  188MOL0     C25298   9.143   5.986   0.514 -0.4951 -0.4685 -0.4408
  188MOL0     C25299   9.590   5.970   0.511 -0.1977  0.5786 -0.5489
  188MOL0     C25300   9.635   5.898   0.626 -0.4539 -0.4548  0.9542
  188MOL0     C25301   9.772   5.896   0.659 -0.0767 -0.3286  0.1374
  188MOL0     C25302   9.866   5.958   0.585 -0.3267 -0.2217 -0.0974
  188MOL0     O25303   9.993   5.932   0.622 -0.2440  0.4173  0.3339
  188MOL0     C25304  10.109   5.971   0.546 -0.6640  0.5707  0.4841
  188MOL0     C25305  10.153   5.851   0.468 -0.2195  0.5741  0.1809
  188MOL0     C25306  10.286   5.853   0.401  0.1103 -0.5295 -0.0739
  188MOL0     C25307  10.332   5.726   0.330 -0.0521  0.3528 -0.1758
  188MOL0     C25308  10.489   5.712   0.337  0.5538  0.1306  0.2807
  188MOL0     C25309  10.601   5.700   0.362 -0.5553 -0.1949 -0.2864
  188MOL0     C25310   9.825   6.037   0.472  0.4732 -0.3601 -1.4086
  188MOL0     C25311   9.690   6.051   0.437 -0.3301 -1.0791  0.3776
  188MOL0     C25312   9.680   6.135   0.315 -0.2309 -0.0738  0.2731
  188MOL0     H25313   9.242   5.679   0.622  2.3658  0.9483 -2.3172
  188MOL0     H25314   9.007   5.639   0.611  1.4064  0.1041  2.0954
  188MOL0     H25315   8.789   5.802   0.729  1.6687 -0.5503 -0.4731
  188MOL0     H25316   8.763   5.963   0.663  1.8163  0.3798 -1.8430
  188MOL0     H25317   8.538   5.893   0.723  0.6098 -0.3182  0.7658
  188MOL0     H25318   8.576   5.738   0.640  1.1604 -0.6221 -1.0555
  188MOL0     H25319   8.594   5.864   0.418 -1.2144 -0.5973  0.3714
  188MOL0     H25320   8.527   6.010   0.500  0.1443  0.2315 -0.5734
  188MOL0     H25321   8.397   5.743   0.488 -0.2967  0.3235 -0.8808
  188MOL0     H25322   8.326   5.897   0.547  0.2251  3.2414 -0.2536
  188MOL0     H25323   8.392   5.808   0.260 -4.6091 -0.8195 -1.8858
  188MOL0     H25324   8.231   5.852   0.336  0.0479  0.3945  0.6060
  188MOL0     H25325   8.311   6.085   0.351 -1.2999  0.9284 -2.8238
  188MOL0     H25326   8.458   6.035   0.262  0.4343 -0.6077 -2.1500
  188MOL0     H25327   8.174   6.006   0.153  0.2765 -0.2624 -1.0494
  188MOL0     H25328   8.322   5.963   0.068 -4.1429 -2.3508 -0.9292
  188MOL0     H25329   8.211   6.196   0.021  1.4387  0.7421 -1.8352
  188MOL0     H25330   8.272   6.255   0.173  0.6009  0.6764 -1.2366
  188MOL0     H25331   8.404   6.083  -0.169  0.2947 -1.8596  1.4230
  188MOL0     H25332   8.781   6.223  -0.186 -2.4870  2.7290 -1.1542
  188MOL0     H25333   8.729   6.053  -0.167 -0.9532 -0.7567  2.7597
  188MOL0     H25334   8.591   6.061  -0.365 -2.1682  0.8242 -0.3010
  188MOL0     H25335   8.577   6.244  -0.349  0.3957  0.4210  2.9320
  188MOL0     H25336   8.788   6.273  -0.426 -0.2832  0.2674 -2.2209
  188MOL0     H25337   8.726   6.155  -0.543  0.4316  1.8363 -1.0662
  188MOL0     H25338   8.876   5.982  -0.472  2.8914  0.3432  0.0060
  188MOL0     H25339   8.890   6.042  -0.313  0.8289  0.7382 -0.0219
  188MOL0     H25340   9.223   6.272  -0.484  4.3630  1.4405  3.5997
  188MOL0     H25341   9.442   6.176  -0.487  2.4966 -2.0741  0.2328
  188MOL0     H25342   9.650   6.070  -0.103  0.2650 -0.4975 -0.0313
  188MOL0     H25343   9.860   6.026   0.024 -0.3230  0.0777  0.0122
  188MOL0     H25344  10.066   6.126   0.043  1.2861  0.5330  0.8991
  188MOL0     H25345  10.191   6.008   0.080 -0.1540  0.7116  1.4077
  188MOL0     H25346  10.193   6.135  -0.194  0.1004 -0.3884 -0.3418
  188MOL0     H25347  10.254   6.219  -0.041  0.6495 -0.7773  2.3216
  188MOL0     H25348  10.340   5.944  -0.116 -0.3098 -0.2643  2.2451
  188MOL0     H25349  10.412   6.075  -0.212 -0.2658  2.3566 -0.0256
  188MOL0     H25350  10.459   6.011   0.078  2.1451  1.0301  1.7888
  188MOL0     H25351  10.470   6.174   0.005 -1.4615 -1.2348 -0.8090
  188MOL0     H25352  10.628   6.077  -0.164  0.0571  0.7529  1.4305
  188MOL0     H25353  10.588   5.915  -0.108 -2.0617  1.3125 -1.2838
  188MOL0     H25354  10.737   6.143   0.045  0.0157  0.1298  1.0118
  188MOL0     H25355  10.723   5.969   0.092 -0.8061  1.2453  0.4891
  188MOL0     H25356  10.873   6.113  -0.139  2.1404 -0.7878 -0.0754
  188MOL0     H25357  10.874   5.937  -0.137 -0.5485  1.5441 -1.2981
  188MOL0     H25358  11.003   6.142   0.044  0.1795  0.0015  1.3022
  188MOL0     H25359  11.004   5.980   0.089 -0.5448 -0.2503 -1.3307
  188MOL0     H25360  10.031   5.841  -0.320 -0.9032 -3.9092  3.4507
  188MOL0     H25361   9.818   5.881  -0.445 -0.5491 -4.2707  2.2173
  188MOL0     H25362   9.271   5.791  -0.358  0.4731 -1.6023 -3.8527
  188MOL0     H25363   9.061   5.882  -0.374  0.7513 -0.4232  1.7256
  188MOL0     H25364   8.939   6.046   0.472  0.6861  1.1118 -1.8571
  188MOL0     H25365   9.171   6.090   0.497  3.2242 -1.3324 -0.3085
  188MOL0     H25366   9.573   5.850   0.701  0.0172  1.6224  2.7878
  188MOL0     H25367   9.819   5.833   0.734  1.0073  0.4989  0.1757
  188MOL0     H25368  10.185   6.004   0.617 -1.3610  2.8869  0.2275
  188MOL0     H25369  10.101   6.062   0.486  1.7509 -0.6839 -2.0030
  188MOL0     H25370  10.074   5.841   0.393 -0.0380  1.4082 -0.1250
  188MOL0     H25371  10.153   5.774   0.546  1.0966 -0.2597 -0.5967
  188MOL0     H25372  10.357   5.877   0.481  0.1207 -3.1359  0.7698
  188MOL0     H25373  10.282   5.943   0.338  0.8329 -0.1913  0.3627
  188MOL0     H25374  10.294   5.633   0.374  2.5533 -1.0290 -0.6485
  188MOL0     H25375  10.296   5.732   0.227 -0.0620 -0.9237 -0.2604
  188MOL0     H25376  10.702   5.692   0.396  0.0355  1.8234 -1.4209
  188MOL0     H25377   9.900   6.088   0.413  0.9083 -1.7282 -2.0703
  188MOL0     H25378   9.761   6.209   0.317  0.8311 -1.2127  2.0537
  188MOL0     H25379   9.685   6.078   0.222 -1.8301 -0.1973  0.2326
  188MOL0     H25380   9.582   6.183   0.316  0.0768  0.6176  2.2786
  189MOL0     O25381   6.372   9.858  10.446 -0.2872  0.1137 -0.3954
  189MOL0     C25382   6.289   9.771  10.487  0.5237 -0.6023  0.4806
  189MOL0     O25383   6.148   9.782  10.481  0.1738 -0.7809 -0.5039
  189MOL0     C25384   6.101   9.911  10.445 -0.0893 -0.3145  0.4593
  189MOL0     C25385   6.055   9.998  10.544 -0.3443  0.3377 -0.1056
  189MOL0     C25386   6.034  10.139  10.523 -0.2881  0.4040  0.4842
  189MOL0     C25387   6.069  10.191  10.398  0.7370  0.5566  0.7272
  189MOL0     O25388   6.064  10.324  10.367  0.1017  0.3386 -0.6975
  189MOL0     C25389   6.020  10.425  10.463  0.2053 -0.3514  0.7629
  189MOL0     C25390   6.031  10.564  10.401 -0.0609 -0.6588 -0.3995
  189MOL0     C25391   6.174  10.592  10.356  0.1136 -0.2234 -0.1780
  189MOL0     C25392   6.204  10.752  10.327 -0.2435 -0.4299  0.4216
  189MOL0     C25393   6.359  10.772  10.289 -0.3697 -0.3711  0.4827
  189MOL0     C25394   6.434  10.802  10.414  0.2285 -0.1040 -0.3696
  189MOL0     C25395   6.414  10.940  10.482  0.3159 -0.2223  0.0664
  189MOL0     C25396   6.542  10.989  10.556 -0.0053 -0.1518  0.2454
  189MOL0     N25397   6.529  11.110  10.632  0.3774 -0.2758 -0.1738
  189MOL0     C25398   6.599  11.126  10.752  0.0326 -0.1706 -0.2549
  189MOL0     C25399   6.551  11.240  10.810  0.1241  0.0792  0.1551
  189MOL0     C25400   6.591  11.269  10.949 -0.6691 -0.1952  0.7279
  189MOL0     C25401   6.507  11.187  11.045  0.5718  0.3224 -0.0418
  189MOL0     C25402   6.561  11.189  11.196  0.4906 -0.1194 -0.5962
  189MOL0     C25403   6.448  11.150  11.285  0.5367  0.0912  0.4306
  189MOL0     O25404   6.482  11.151  11.421  0.6884  0.5226 -0.4649
  189MOL0     C25405   6.376  11.167  11.505  0.4731  0.2666  0.2580
  189MOL0     C25406   6.300  11.049  11.550 -0.3688  0.2914  0.9016
  189MOL0     C25407   6.180  11.057  11.623  0.2444 -0.1588  0.1858
  189MOL0     C25408   6.140  11.187  11.657 -0.5477  0.8953  0.4974
  189MOL0     C25409   6.017  11.206  11.734  0.6311  0.0212  0.5658
  189MOL0     O25410   5.968  11.103  11.806  0.2226 -0.1685 -0.3723
  189MOL0     C25411   5.833  11.081  11.835  1.2104 -0.2851 -0.0602
  189MOL0     C25412   5.737  11.098  11.727  0.2782  0.0976  0.6548
  189MOL0     C25413   5.598  11.081  11.754 -0.2842  1.0392  0.2928
  189MOL0     C25414   5.556  11.030  11.876  0.7896  0.1457  0.2413
  189MOL0     O25415   5.424  10.997  11.904  0.4494  0.0980 -0.2296
  189MOL0     C25416   5.318  11.040  11.819 -0.1417  0.4307  0.2506
  189MOL0     C25417   5.194  11.075  11.896 -0.0373 -0.0936  0.2543
  189MOL0     C25418   5.112  10.948  11.934 -0.6907 -0.3105  0.8706
  189MOL0     C25419   4.961  10.979  11.979 -0.3864  0.1476  0.1611
  189MOL0     C25420   4.859  10.863  11.964 -0.5734 -0.2295 -0.1431
  189MOL0     C25421   4.905  10.725  12.014 -0.5131  0.2315  0.9120
  189MOL0     C25422   4.848  10.698  12.155  0.2768 -0.4649  0.2745
  189MOL0     C25423   4.887  10.568  12.222  0.3153 -0.0054 -0.0933
  189MOL0    Cl25424   4.807  10.441  12.136  0.4005 -0.3640  0.5872
  189MOL0     C25425   5.647  11.009  11.977 -0.3643  0.0770 -0.0349
  189MOL0     C25426   5.781  11.036  11.959  0.3348  0.7082 -0.4291
  189MOL0     O25427   5.958  11.314  11.719 -0.5958  0.3662 -0.3101
  189MOL0     C25428   6.209  11.306  11.602 -0.0499  0.2002  0.2210
  189MOL0     C25429   6.336  11.293  11.530 -0.1877  0.2176 -0.5359
  189MOL0     N25430   6.467  11.296  10.715  0.1091  0.5309 -0.0861
  189MOL0     N25431   6.459  11.222  10.606 -0.3964 -0.0775 -0.6835
  189MOL0     C25432   6.093  10.101  10.291  0.9466  0.3724 -0.7570
  189MOL0     C25433   6.113   9.963  10.320 -0.2710 -0.0333  0.2110
  189MOL0     C25434   6.354   9.644  10.533 -0.5204  0.7922 -1.1305
  189MOL0     C25435   6.279   9.531  10.505  0.5367  0.5749  1.3528
  189MOL0     C25436   6.315   9.413  10.540 -0.2341  0.0180 -0.9372
  189MOL0     C25437   6.433   9.393  10.612 -0.8749 -0.3902  0.6810
  189MOL0     O25438   6.451   9.262  10.657 -0.0015 -0.5266 -0.2895
  189MOL0     C25439   6.582   9.214  10.707  0.3721 -0.9995  0.5828
  189MOL0     C25440   6.582   9.064  10.728  0.8041  0.5080 -0.6200
  189MOL0     C25441   6.507   9.001  10.842  0.4202 -0.8542  0.3475
  189MOL0     C25442   6.606   9.012  10.968  0.4427  0.2384 -0.1703
  189MOL0     C25443   6.618   9.141  11.020  0.4657 -1.5815 -0.0387
  189MOL0     C25444   6.629   9.260  11.047  0.1358  0.0706 -0.6185
  189MOL0     C25445   6.519   9.497  10.641  0.1285 -0.1344 -0.2293
  189MOL0     C25446   6.483   9.627  10.599  0.6938 -0.2854  0.5846
  189MOL0     C25447   6.580   9.736  10.629  0.5710 -0.4263  0.4176
  189MOL0     H25448   6.030   9.969  10.645  0.9816  1.4014  0.5766
  189MOL0     H25449   6.000  10.197  10.608 -0.9312  0.8825 -0.0859
  189MOL0     H25450   5.920  10.409  10.503 -1.0250 -1.2575 -2.3878
  189MOL0     H25451   6.095  10.429  10.542  0.4813  3.4799  0.5113
  189MOL0     H25452   6.000  10.628  10.484  0.0961 -1.5912  0.3929
  189MOL0     H25453   5.958  10.574  10.321 -1.3806 -3.3934  0.3484
  189MOL0     H25454   6.200  10.523  10.276  0.2462  1.1318 -1.3488
  189MOL0     H25455   6.237  10.561  10.440 -2.0771  0.4578  1.8210
  189MOL0     H25456   6.138  10.794  10.251 -0.6288 -2.4244 -0.4101
  189MOL0     H25457   6.181  10.823  10.407 -3.0071 -0.7098 -0.0175
  189MOL0     H25458   6.400  10.683  10.239  0.2561 -0.8333  1.7788
  189MOL0     H25459   6.378  10.855  10.220 -0.8188 -3.2628 -3.4934
  189MOL0     H25460   6.404  10.719  10.479 -1.0407 -0.1661 -1.0127
  189MOL0     H25461   6.540  10.788  10.389  0.6931  0.2983  1.2496
  189MOL0     H25462   6.331  10.934  10.554 -0.3742  1.4399 -0.5329
  189MOL0     H25463   6.396  11.018  10.407  1.8318 -1.1520 -1.3470
  189MOL0     H25464   6.579  10.917  10.629  2.1530  1.9498  1.3910
  189MOL0     H25465   6.624  11.006  10.487  1.0420 -1.1804  1.2012
  189MOL0     H25466   6.665  11.058  10.804 -1.5593 -2.0839 -0.6169
  189MOL0     H25467   6.698  11.249  10.961 -0.4972  0.5127  0.3909
  189MOL0     H25468   6.583  11.377  10.957  0.5420 -0.1283  1.1662
  189MOL0     H25469   6.405  11.224  11.057  0.8982  0.8656  1.2175
  189MOL0     H25470   6.499  11.083  11.015 -0.0856  0.8802 -1.9408
  189MOL0     H25471   6.621  11.276  11.224 -2.0997  0.9117  2.1673
  189MOL0     H25472   6.638  11.113  11.215  2.5244  2.0869  0.4693
  189MOL0     H25473   6.415  11.050  11.254  1.1992  0.2681 -0.9197
  189MOL0     H25474   6.357  11.209  11.278  0.5887  0.1846  0.5296
  189MOL0     H25475   6.333  10.948  11.524  0.2095  0.4807  0.9032
  189MOL0     H25476   6.134  10.962  11.649  1.0611 -0.9102 -1.0044
  189MOL0     H25477   5.782  11.149  11.641  1.1064  1.4765  1.8540
  189MOL0     H25478   5.529  11.109  11.675  2.3489 -0.2233 -2.6642
  189MOL0     H25479   5.347  11.131  11.765 -2.1235  0.6195 -0.5629
  189MOL0     H25480   5.310  10.960  11.745  2.1692 -1.6231  2.0701
  189MOL0     H25481   5.222  11.126  11.989  0.8516  2.6876 -1.4207
  189MOL0     H25482   5.130  11.142  11.839  0.0434 -0.1759  0.0670
  189MOL0     H25483   5.115  10.876  11.852 -2.4274 -0.0844  0.5646
  189MOL0     H25484   5.167  10.907  12.019  0.2598 -0.5726  0.1507
  189MOL0     H25485   4.912  11.060  11.924 -1.7328  0.2761  1.5038
  189MOL0     H25486   4.959  11.006  12.085 -2.2728  0.7302  0.0078
  189MOL0     H25487   4.850  10.856  11.855  0.6014 -2.6164 -0.1672
  189MOL0     H25488   4.761  10.878  12.010 -1.1741 -4.2594  0.2624
  189MOL0     H25489   4.883  10.634  11.956  0.6133  0.0115  0.8061
  189MOL0     H25490   5.014  10.737  12.024 -0.9104  3.5147  2.6692
  189MOL0     H25491   4.740  10.699  12.145  0.0898  1.4063  1.8489
  189MOL0     H25492   4.876  10.771  12.232  0.2134 -0.2499  0.0935
  189MOL0     H25493   4.994  10.546  12.215 -0.2668 -5.0785  2.1702
  189MOL0     H25494   4.841  10.569  12.321 -4.8470 -0.8391 -2.1659
  189MOL0     H25495   5.622  10.953  12.066  2.7641 -2.2424 -0.4476
  189MOL0     H25496   5.862  11.024  12.030  1.0917 -3.1349 -1.7098
  189MOL0     H25497   6.185  11.411  11.612  3.6609  1.3236 -1.1863
  189MOL0     H25498   6.399  11.381  11.523 -0.9093  0.9066  1.1167
  189MOL0     H25499   6.097  10.143  10.191  1.0181 -3.2083 -2.4093
  189MOL0     H25500   6.151   9.892  10.248 -1.5196 -0.1992 -0.3036
  189MOL0     H25501   6.191   9.538  10.442  0.5958  0.8650  1.2993
  189MOL0     H25502   6.252   9.327  10.519  0.4525 -0.3985 -1.3080
  189MOL0     H25503   6.632   9.265  10.790  2.7605  1.4419 -2.1197
  189MOL0     H25504   6.655   9.232  10.627 -0.5552  0.1167 -0.0449
  189MOL0     H25505   6.685   9.027  10.728  1.0209  0.8614  2.3498
  189MOL0     H25506   6.531   9.023  10.640 -1.9793  3.9738 -0.8333
  189MOL0     H25507   6.507   8.897  10.809  1.8384 -0.0128 -2.5987
  189MOL0     H25508   6.405   9.040  10.849  0.1132 -0.4016 -3.9843
  189MOL0     H25509   6.569   8.950  11.051 -0.6128  0.1064 -0.7340
  189MOL0     H25510   6.707   8.978  10.945  1.0395  0.9299  1.2479
  189MOL0     H25511   6.644   9.365  11.062 -0.8678 -0.0629  1.8928
  189MOL0     H25512   6.609   9.498  10.702  0.8077  0.6604 -1.1970
  189MOL0     H25513   6.531   9.823  10.673  0.8436 -0.5677  1.0197
  189MOL0     H25514   6.666   9.694  10.683 -0.8177 -2.2862  1.2874
  189MOL0     H25515   6.615   9.763  10.529 -0.8479  1.4735  0.3874
  190MOL0     O25516   3.609   2.524   7.865 -0.6066 -0.7602  0.0622
  190MOL0     C25517   3.491   2.493   7.851  0.1014 -0.3077  0.1859
  190MOL0     O25518   3.397   2.502   7.952  0.6157  0.2566 -0.4986
  190MOL0     C25519   3.418   2.508   8.091  0.1949 -0.3411 -0.6475
  190MOL0     C25520   3.311   2.537   8.174  1.1061  0.6016 -0.1573
  190MOL0     C25521   3.328   2.528   8.316  0.3363  0.9391  0.1505
  190MOL0     C25522   3.458   2.528   8.376  0.6378 -0.5894  0.6380
  190MOL0     O25523   3.468   2.537   8.513  0.5777 -0.1507  0.0400
  190MOL0     C25524   3.592   2.588   8.567 -0.1857 -0.6907  0.3220
  190MOL0     C25525   3.561   2.669   8.697 -0.5158  0.0548 -0.2013
  190MOL0     C25526   3.502   2.808   8.668  0.7673 -0.1691 -0.5129
  190MOL0     C25527   3.476   2.880   8.792  0.8249  0.2813  0.0778
  190MOL0     C25528   3.397   2.998   8.750 -0.9193  0.1573 -0.3743
  190MOL0     C25529   3.345   3.076   8.873 -0.5089  0.2809  0.9380
  190MOL0     C25530   3.207   3.014   8.911  0.1824 -0.4605 -0.5943
  190MOL0     C25531   3.152   3.089   9.030  1.6362  0.8143  0.4171
  190MOL0     N25532   3.006   3.106   9.011  0.7385  0.3706  0.3225
  190MOL0     C25533   2.932   3.190   9.094  0.2890 -0.6433 -0.7733
  190MOL0     C25534   2.804   3.178   9.053  0.6632 -0.3177 -0.6489
  190MOL0     C25535   2.687   3.249   9.117 -0.5556 -0.5236  0.3449
  190MOL0     C25536   2.622   3.163   9.239  0.2860  0.1077  0.5594
  190MOL0     C25537   2.559   3.034   9.205  0.5405 -0.9114  0.3419
  190MOL0     C25538   2.417   3.040   9.150 -0.2025 -0.5690 -0.0537
  190MOL0     O25539   2.384   2.905   9.102  0.0353 -0.0679  0.9611
  190MOL0     C25540   2.270   2.863   9.154  0.1741  1.3358  0.0384
  190MOL0     C25541   2.200   2.773   9.074  0.6378  0.2167  0.6492
  190MOL0     C25542   2.068   2.716   9.111 -0.6953 -0.1047 -0.0951
  190MOL0     C25543   2.031   2.726   9.246 -0.3857  1.2432  0.1420
  190MOL0     C25544   1.906   2.661   9.291 -0.3563 -1.1627  0.1623
  190MOL0     O25545   1.866   2.571   9.199  0.2229 -0.0717  0.1170
  190MOL0     C25546   1.765   2.488   9.228  0.1606  0.4310  0.4407
  190MOL0     C25547   1.792   2.354   9.262 -0.7649 -0.1509  0.1714
  190MOL0     C25548   1.682   2.273   9.286 -0.7148  0.3652  0.3579
  190MOL0     C25549   1.550   2.320   9.288 -0.5730 -0.0435  0.0393
  190MOL0     O25550   1.448   2.226   9.311 -0.0471  0.7683 -0.0481
  190MOL0     C25551   1.310   2.252   9.277  0.1100 -0.4576 -0.1818
  190MOL0     C25552   1.259   2.188   9.150 -0.4246 -0.8243  0.2371
  190MOL0     C25553   1.114   2.187   9.123 -0.0721  0.5528  1.0967
  190MOL0     C25554   1.084   2.166   8.971  0.0014  0.1142 -0.4193
  190MOL0     C25555   0.946   2.197   8.919  0.8297 -0.4803  0.3461
  190MOL0     C25556   0.817   2.139   8.984  0.0859  0.3393 -0.5779
  190MOL0     C25557   0.693   2.144   8.894  0.0978  0.2434 -0.3661
  190MOL0     C25558   0.568   2.104   8.950  0.1195  0.0168  0.1919
  190MOL0    Cl25559   0.512   2.228   9.052 -0.1898 -0.3973 -0.1824
  190MOL0     C25560   1.523   2.454   9.268 -0.6143  0.6111 -0.7901
  190MOL0     C25561   1.633   2.529   9.226  0.8390 -0.6546 -0.0980
  190MOL0     O25562   1.861   2.679   9.410 -0.2951 -0.2516 -0.1699
  190MOL0     C25563   2.106   2.811   9.337 -0.5286  0.3553  0.2862
  190MOL0     C25564   2.225   2.878   9.286 -0.3583  0.9494 -0.4789
  190MOL0     N25565   2.805   3.093   8.945  0.5095 -0.2876  1.3075
  190MOL0     N25566   2.922   3.054   8.908 -0.4193  0.1695  0.6836
  190MOL0     C25567   3.567   2.503   8.291  0.0883 -0.2651 -0.1964
  190MOL0     C25568   3.548   2.479   8.155  0.9506 -1.2802  0.6910
  190MOL0     C25569   3.438   2.454   7.714 -1.0929  0.0016 -0.8980
  190MOL0     C25570   3.304   2.423   7.707 -0.9561 -0.8152 -0.5149
  190MOL0     C25571   3.240   2.403   7.591 -0.3489 -0.4618  0.0466
  190MOL0     C25572   3.303   2.402   7.468 -0.5791 -1.3299 -0.0305
  190MOL0     O25573   3.254   2.377   7.348  0.3653  0.3562 -0.0350
  190MOL0     C25574   3.120   2.321   7.356 -0.4496 -1.3593 -0.6589
  190MOL0     C25575   3.079   2.255   7.227  0.7212 -0.3185  0.3616
  190MOL0     C25576   3.138   2.107   7.224 -0.3214  0.1558  0.5615
  190MOL0     C25577   3.135   2.037   7.085 -0.3780 -0.4304  0.3146
  190MOL0     C25578   3.003   1.994   7.051  0.5152  1.1174 -0.3204
  190MOL0     C25579   2.890   1.954   7.029 -0.1550 -0.9808 -0.6967
  190MOL0     C25580   3.436   2.433   7.476  0.1044 -0.1719 -0.2656
  190MOL0     C25581   3.507   2.455   7.589 -0.7054 -0.4823 -0.6205
  190MOL0     C25582   3.642   2.524   7.571 -0.5608  0.6580 -0.1158
  190MOL0     H25583   3.208   2.547   8.140  0.3527  1.2431  2.1454
  190MOL0     H25584   3.244   2.537   8.384 -0.4162  1.0134 -0.7774
  190MOL0     H25585   3.658   2.504   8.590 -0.7120 -0.7068  1.8490
  190MOL0     H25586   3.659   2.639   8.497 -0.8551  0.4056  0.4626
  190MOL0     H25587   3.648   2.687   8.762 -0.1989  0.3642 -0.7047
  190MOL0     H25588   3.504   2.598   8.758  1.4117 -2.8025 -1.5237
  190MOL0     H25589   3.405   2.794   8.619 -0.6208 -1.5933  2.3964
  190MOL0     H25590   3.561   2.872   8.602  0.5962  0.4505 -0.0795
  190MOL0     H25591   3.421   2.813   8.860  0.5056  1.0929  0.6381
  190MOL0     H25592   3.563   2.910   8.851  0.4442  3.7771 -0.9287
  190MOL0     H25593   3.463   3.065   8.694 -0.1058  1.0199  1.5480
  190MOL0     H25594   3.319   2.962   8.682 -0.5486 -0.7714 -0.3160
  190MOL0     H25595   3.422   3.079   8.951  0.8010 -3.2378 -0.0406
  190MOL0     H25596   3.329   3.176   8.832 -0.9649 -1.1019 -2.5396
  190MOL0     H25597   3.211   2.908   8.939 -3.3290 -0.1127  1.9213
  190MOL0     H25598   3.152   3.032   8.819 -2.3825 -1.9074  0.5410
  190MOL0     H25599   3.171   3.023   9.115 -0.0410 -1.3148 -0.7799
  190MOL0     H25600   3.196   3.188   9.045  1.0288  1.2096 -0.3336
  190MOL0     H25601   2.954   3.232   9.192 -2.6274  0.4805 -0.5157
  190MOL0     H25602   2.717   3.347   9.157  2.9497  0.1805 -3.3758
  190MOL0     H25603   2.612   3.268   9.040  0.0671 -0.0962 -0.1710
  190MOL0     H25604   2.691   3.143   9.321  0.9606 -2.6996 -0.5807
  190MOL0     H25605   2.543   3.227   9.279  0.5557 -0.7067  2.4763
  190MOL0     H25606   2.544   2.982   9.300 -2.0504 -0.1167  0.4699
  190MOL0     H25607   2.612   2.966   9.139 -2.2907 -0.8697 -2.2326
  190MOL0     H25608   2.415   3.109   9.065  3.5248  2.2147  1.8375
  190MOL0     H25609   2.347   3.080   9.224  0.7215 -0.7140  0.9295
  190MOL0     H25610   2.232   2.768   8.971  0.5051  3.9199  0.2674
  190MOL0     H25611   2.008   2.664   9.038 -1.7824  0.2063  0.5609
  190MOL0     H25612   1.891   2.310   9.270 -1.1692 -0.9357  1.0947
  190MOL0     H25613   1.699   2.166   9.297  0.5990 -0.0142 -3.6297
  190MOL0     H25614   1.243   2.222   9.358 -2.2289  0.3581 -1.6825
  190MOL0     H25615   1.287   2.358   9.266  2.7068  0.3212  1.2094
  190MOL0     H25616   1.308   2.253   9.078  1.3578 -1.7639  0.5504
  190MOL0     H25617   1.306   2.089   9.147  1.2645 -0.0784  0.9492
  190MOL0     H25618   1.063   2.112   9.184  1.1504 -0.3725  1.0178
  190MOL0     H25619   1.076   2.285   9.153 -1.8477  0.1026  0.4757
  190MOL0     H25620   1.116   2.064   8.947 -1.0238 -0.5898  1.0005
  190MOL0     H25621   1.142   2.240   8.915 -0.0196  0.6067  0.1970
  190MOL0     H25622   0.937   2.181   8.811 -3.1357  1.4406  0.1952
  190MOL0     H25623   0.937   2.306   8.920  0.1718 -0.4786 -1.4209
  190MOL0     H25624   0.847   2.036   9.004 -2.1623 -0.1602  0.5054
  190MOL0     H25625   0.792   2.190   9.077 -1.9145 -3.6540  1.3234
  190MOL0     H25626   0.709   2.078   8.808  0.7604 -0.6143  0.4083
  190MOL0     H25627   0.688   2.250   8.865  1.1245  0.3677 -0.1185
  190MOL0     H25628   0.498   2.077   8.871 -1.9439  0.8878  1.6116
  190MOL0     H25629   0.588   2.010   9.003  1.9233  0.2598 -0.0238
  190MOL0     H25630   1.427   2.501   9.287  0.0618  1.3185  1.1362
  190MOL0     H25631   1.622   2.635   9.202  0.9241 -0.2659  1.4684
  190MOL0     H25632   2.073   2.831   9.439  3.2081 -0.1268  1.7569
  190MOL0     H25633   2.290   2.937   9.351 -1.0213  0.1614  0.9404
  190MOL0     H25634   3.669   2.521   8.323 -0.5564  2.2628  0.6518
  190MOL0     H25635   3.638   2.440   8.109  1.2275 -3.3572  2.8011
  190MOL0     H25636   3.243   2.423   7.797  0.6519  3.1411  0.7972
  190MOL0     H25637   3.132   2.394   7.600 -0.5338 -0.0245 -1.4590
  190MOL0     H25638   3.051   2.406   7.361  1.7652  0.6017 -1.5839
  190MOL0     H25639   3.100   2.251   7.438 -1.3695 -1.1543 -0.7007
  190MOL0     H25640   3.110   2.320   7.145  0.8334  0.4115  0.9680
  190MOL0     H25641   2.973   2.232   7.224  0.8153 -0.9792 -3.9802
  190MOL0     H25642   3.088   2.052   7.304 -1.1767  2.2272  1.5346
  190MOL0     H25643   3.243   2.125   7.251  0.7102 -1.1319 -2.1945
  190MOL0     H25644   3.176   2.107   7.011 -0.6247 -1.8287 -1.1919
  190MOL0     H25645   3.198   1.950   7.104 -0.2659 -0.3167  0.4658
  190MOL0     H25646   2.791   1.912   7.028 -0.3133 -0.6484  0.1542
  190MOL0     H25647   3.488   2.439   7.381  0.3451 -0.5702 -0.1612
  190MOL0     H25648   3.650   2.548   7.464 -2.0445 -0.5043 -0.5199
  190MOL0     H25649   3.648   2.619   7.625 -2.1022  1.8971 -1.9705
  190MOL0     H25650   3.722   2.455   7.597 -0.2039 -0.0105 -2.6826
  191MOL0     O25651  11.385   3.726   2.128 -0.0638 -0.5434 -0.1984
  191MOL0     C25652  11.440   3.742   2.026  0.1387  0.9944  0.8477
  191MOL0     O25653  11.478   3.642   1.944  0.2324  1.1549  0.2580
  191MOL0     C25654  11.432   3.516   1.979 -0.2325  0.3686 -0.7504
  191MOL0     C25655  11.519   3.409   2.012  0.1896 -0.0904  0.0988
  191MOL0     C25656  11.471   3.278   2.040 -0.4177  0.2610 -0.1886
  191MOL0     C25657  11.331   3.249   2.026  0.0859 -0.4813  0.4445
  191MOL0     O25658  11.284   3.118   2.046  0.5800 -0.5237  0.1599
  191MOL0     C25659  11.139   3.107   2.077  1.2419  0.1246  0.8283
  191MOL0     C25660  11.074   3.024   1.962  0.5442 -0.0171 -1.1964
  191MOL0     C25661  10.931   3.001   1.980 -0.0818  0.3583 -0.0208
  191MOL0     C25662  10.847   3.122   1.930 -0.3020 -0.8865  0.4942
  191MOL0     C25663  10.692   3.118   1.940  0.4949  0.6291 -0.6003
  191MOL0     C25664  10.641   3.085   2.077 -0.4672  0.7529 -0.8711
  191MOL0     C25665  10.513   3.156   2.127 -0.3259 -0.9181 -1.1920
  191MOL0     C25666  10.396   3.136   2.038 -0.0003  0.3859  0.4632
  191MOL0     N25667  10.273   3.191   2.095  0.4381 -0.2465 -1.0050
  191MOL0     C25668  10.266   3.293   2.198 -0.0877  1.5199  0.8826
  191MOL0     C25669  10.136   3.308   2.235  0.8956  0.0544  0.0305
  191MOL0     C25670  10.075   3.408   2.333 -0.6706  0.1599  0.6825
  191MOL0     C25671  10.004   3.366   2.468 -0.0219 -0.5757  0.7063
  191MOL0     C25672   9.924   3.487   2.521  0.8095  0.3023 -0.3055
  191MOL0     C25673   9.889   3.468   2.673  0.4366 -0.1049 -0.0162
  191MOL0     O25674   9.987   3.516   2.768  0.4215 -0.6998  0.6522
  191MOL0     C25675   9.986   3.649   2.807  0.3328  0.0546  0.0281
  191MOL0     C25676   9.929   3.751   2.731  0.3858  0.5708 -0.4575
  191MOL0     C25677   9.940   3.883   2.781 -0.2284  0.2895  0.1066
  191MOL0     C25678  10.018   3.913   2.890 -0.9245  0.0313  0.0074
  191MOL0     C25679  10.055   4.051   2.920  0.4937 -0.6151 -0.3136
  191MOL0     O25680  10.143   4.068   3.029  0.0893 -0.3213  0.1962
  191MOL0     C25681  10.193   4.196   3.036 -0.5567  0.5903  0.3758
  191MOL0     C25682  10.138   4.289   3.124 -0.7821 -0.6397 -0.5631
  191MOL0     C25683  10.191   4.423   3.125  0.0497 -0.2903 -0.3969
  191MOL0     C25684  10.300   4.452   3.048  0.0662  0.2590  0.3966
  191MOL0     O25685  10.335   4.580   3.048 -0.1593 -0.2092 -0.1686
  191MOL0     C25686  10.467   4.621   3.003  0.8198 -0.4523  0.8849
  191MOL0     C25687  10.493   4.758   3.067  0.5140 -0.3091  0.3867
  191MOL0     C25688  10.644   4.784   3.065  0.6036 -1.0947 -0.1077
  191MOL0     C25689  10.665   4.904   3.147 -0.8767 -0.0180  0.3571
  191MOL0     C25690  10.813   4.967   3.125  0.3549  0.9653 -0.5258
  191MOL0     C25691  10.924   4.872   3.151 -0.0860 -0.6636 -0.3238
  191MOL0     C25692  10.910   4.798   3.286 -0.7183 -0.2849 -0.6250
  191MOL0     C25693  11.033   4.718   3.337 -0.8035  0.6253  1.0109
  191MOL0    Cl25694  11.068   4.599   3.220 -0.4983  0.1089 -0.4196
  191MOL0     C25695  10.350   4.357   2.960  0.5076 -0.1324  0.5477
  191MOL0     C25696  10.297   4.234   2.948  0.5682  0.5735  0.4155
  191MOL0     O25697  10.005   4.145   2.856  0.4919 -0.1538  0.0262
  191MOL0     C25698  10.075   3.813   2.961 -0.1893 -0.3067 -1.5116
  191MOL0     C25699  10.066   3.686   2.921  0.1482 -0.7597 -0.5105
  191MOL0     N25700  10.062   3.222   2.153  0.0952  0.9896 -0.1003
  191MOL0     N25701  10.147   3.157   2.067 -0.4369 -0.0804  0.3255
  191MOL0     C25702  11.251   3.358   1.980 -0.4364 -0.1156  0.5801
  191MOL0     C25703  11.298   3.489   1.953 -0.3172  0.3626 -0.4916
  191MOL0     C25704  11.486   3.877   1.990  0.5429 -0.2117 -0.2755
  191MOL0     C25705  11.544   3.958   2.082  0.3701  0.3862  0.1813
  191MOL0     C25706  11.580   4.087   2.052  0.5092  0.0789  0.0459
  191MOL0     C25707  11.535   4.139   1.934 -0.0721 -0.1428  0.3649
  191MOL0     O25708  11.554   4.274   1.916 -0.8572  0.7297  0.5458
  191MOL0     C25709  11.687   4.313   1.864  1.2865  0.4801 -0.4803
  191MOL0     C25710  11.786   4.336   1.976 -0.0721 -0.2186 -1.2029
  191MOL0     C25711  11.740   4.456   2.070  0.3349 -0.1258 -0.2328
  191MOL0     C25712  11.857   4.519   2.141 -0.0525 -0.1347  0.4810
  191MOL0     C25713  11.811   4.632   2.222 -0.8644  0.0750 -0.6353
  191MOL0     C25714  11.780   4.731   2.283 -0.7906  0.1898  0.0155
  191MOL0     C25715  11.451   4.071   1.850  1.1233  0.6069 -0.4412
  191MOL0     C25716  11.432   3.936   1.871  0.0801 -0.2536 -1.1122
  191MOL0     C25717  11.342   3.851   1.779  0.1551 -0.2899 -0.5633
  191MOL0     H25718  11.625   3.432   2.014 -0.3865  3.0888 -0.4253
  191MOL0     H25719  11.546   3.212   2.083 -0.8179  0.9182  1.6109
  191MOL0     H25720  11.124   3.056   2.173 -1.8631  1.1518  1.0043
  191MOL0     H25721  11.085   3.201   2.087 -0.9795 -1.1038  0.9655
  191MOL0     H25722  11.124   2.927   1.965  0.2773 -0.1473  0.9921
  191MOL0     H25723  11.084   3.078   1.868 -1.4435 -0.5390 -1.7581
  191MOL0     H25724  10.921   2.971   2.085 -2.1759 -4.0710 -1.2585
  191MOL0     H25725  10.911   2.909   1.925  3.8067  1.1953 -3.3313
  191MOL0     H25726  10.881   3.213   1.981 -0.0177 -0.0221 -1.1627
  191MOL0     H25727  10.870   3.128   1.823  2.4538  1.7191  1.0799
  191MOL0     H25728  10.649   3.211   1.902  0.1579  0.0753 -1.6070
  191MOL0     H25729  10.652   3.041   1.873 -0.0638  0.8075 -0.4828
  191MOL0     H25730  10.619   2.978   2.080  3.7399 -0.3632 -2.2904
  191MOL0     H25731  10.720   3.109   2.149 -1.9529 -0.8670  1.4024
  191MOL0     H25732  10.537   3.263   2.129 -0.4214 -0.8839 -1.7373
  191MOL0     H25733  10.490   3.132   2.231 -1.3775  1.3624 -0.8461
  191MOL0     H25734  10.407   3.186   1.941  1.1770 -1.6392 -0.5038
  191MOL0     H25735  10.382   3.029   2.020 -1.4209  0.2621  2.0192
  191MOL0     H25736  10.351   3.348   2.238  0.7832  0.6584  0.2691
  191MOL0     H25737  10.150   3.483   2.359  0.1136 -0.6177  0.6750
  191MOL0     H25738  10.013   3.483   2.282 -0.9390  0.6770  1.7331
  191MOL0     H25739   9.948   3.273   2.455 -0.1803 -0.4967  0.8103
  191MOL0     H25740  10.086   3.346   2.537  0.3314  0.2620  0.5416
  191MOL0     H25741   9.827   3.484   2.471  0.1998 -1.1828  0.9040
  191MOL0     H25742   9.978   3.582   2.510  2.5681 -0.6478 -0.2129
  191MOL0     H25743   9.868   3.362   2.683 -1.3688 -0.0445 -2.3804
  191MOL0     H25744   9.793   3.513   2.702  0.0493  0.7978 -2.4916
  191MOL0     H25745   9.865   3.737   2.644 -2.7769  0.9456  1.6429
  191MOL0     H25746   9.878   3.959   2.734 -3.4437 -1.1543  1.7294
  191MOL0     H25747  10.061   4.270   3.198 -2.7056  0.1275 -2.2665
  191MOL0     H25748  10.142   4.495   3.190  1.8703 -1.5566  2.5843
  191MOL0     H25749  10.531   4.541   3.042 -1.1613 -2.3693  0.4693
  191MOL0     H25750  10.474   4.618   2.894 -1.9460  0.9919  0.5562
  191MOL0     H25751  10.429   4.829   3.014  2.2682 -0.2011 -1.7197
  191MOL0     H25752  10.458   4.756   3.170  1.0905  1.4502  0.6429
  191MOL0     H25753  10.710   4.707   3.106  1.8251  0.9551  2.0522
  191MOL0     H25754  10.678   4.807   2.963 -0.5067  1.4736  0.0034
  191MOL0     H25755  10.661   4.881   3.254  2.3135  0.0981  0.6121
  191MOL0     H25756  10.586   4.979   3.139  1.4890  2.6983  0.4975
  191MOL0     H25757  10.837   5.045   3.198 -0.8166 -0.6730  1.7145
  191MOL0     H25758  10.815   5.002   3.022  0.2367 -1.0394 -1.2482
  191MOL0     H25759  10.914   4.789   3.081  0.9560 -1.5031  0.4880
  191MOL0     H25760  11.026   4.912   3.148  0.3865 -1.7679  0.3083
  191MOL0     H25761  10.824   4.732   3.291 -0.4357 -0.5808  0.6026
  191MOL0     H25762  10.904   4.871   3.367  1.0317 -0.8811  0.1000
  191MOL0     H25763  11.124   4.778   3.338  2.6371 -3.9386 -0.6768
  191MOL0     H25764  11.010   4.677   3.436  1.0679  0.1980  1.3068
  191MOL0     H25765  10.430   4.385   2.893 -0.1211 -0.3191 -0.3110
  191MOL0     H25766  10.333   4.160   2.878 -2.1314 -2.8603  2.3493
  191MOL0     H25767  10.124   3.835   3.056 -1.0845  0.5544 -1.2266
  191MOL0     H25768  10.107   3.609   2.986 -0.6045  1.3730  2.7140
  191MOL0     H25769  11.147   3.337   1.958  0.0985 -0.8613 -1.4659
  191MOL0     H25770  11.225   3.564   1.923 -2.7360 -1.5862  0.1357
  191MOL0     H25771  11.572   3.936   2.184  0.3008  2.1904  0.6249
  191MOL0     H25772  11.614   4.165   2.120  0.4895 -0.0379  0.1910
  191MOL0     H25773  11.685   4.403   1.803  3.4972  0.7157 -0.2703
  191MOL0     H25774  11.729   4.239   1.795  0.9676  0.3465 -0.5352
  191MOL0     H25775  11.884   4.357   1.933  0.4192 -0.2483 -0.1421
  191MOL0     H25776  11.792   4.249   2.043  1.5165  1.0594  0.3919
  191MOL0     H25777  11.667   4.445   2.151 -1.9010  3.0548 -1.6146
  191MOL0     H25778  11.700   4.533   2.003  0.3945  1.8054  1.8205
  191MOL0     H25779  11.878   4.443   2.217 -1.7880  0.7028  1.8862
  191MOL0     H25780  11.936   4.549   2.072 -1.5280  2.5264 -0.2056
  191MOL0     H25781  11.769   4.822   2.339  3.0719  0.6480  0.2940
  191MOL0     H25782  11.400   4.117   1.766 -0.2449 -4.0464 -2.5009
  191MOL0     H25783  11.294   3.910   1.699 -0.1748 -3.0334 -2.5219
  191MOL0     H25784  11.399   3.770   1.733 -1.5964 -1.4882 -0.7137
  191MOL0     H25785  11.250   3.815   1.826 -0.2711  1.2642 -0.1425
  192MOL0     O25786   0.753   0.079   8.587 -0.0656 -0.6604 -0.2378
  192MOL0     C25787   0.743   0.171   8.674 -0.8140  0.9434  0.2155
  192MOL0     O25788   0.835   0.207   8.763 -0.5122 -0.0206  0.2525
  192MOL0     C25789   0.970   0.184   8.766  0.2589  1.1036  0.9601
  192MOL0     C25790   1.055   0.200   8.877 -0.3739 -0.2216 -0.0420
  192MOL0     C25791   1.193   0.169   8.862 -1.1097 -0.0038  0.0838
  192MOL0     C25792   1.252   0.131   8.739  0.3456  0.0927  0.0967
  192MOL0     O25793   1.390   0.113   8.715 -0.0695 -0.2966  0.4002
  192MOL0     C25794   1.487   0.138   8.820 -0.3348  0.6627 -0.0549
  192MOL0     C25795   1.464   0.028   8.926 -0.7331 -0.9543  0.7675
  192MOL0     C25796   1.605  -0.033   8.963  0.0152  0.1878  0.9188
  192MOL0     C25797   1.599  -0.151   9.065 -0.1852 -0.8586  0.0756
  192MOL0     C25798   1.739  -0.204   9.102  0.4526  0.1336  0.0392
  192MOL0     C25799   1.831  -0.100   9.154  0.0604  0.4010  0.7489
  192MOL0     C25800   1.961  -0.160   9.203  0.0119  0.5469 -0.6329
  192MOL0     C25801   2.031  -0.245   9.092 -0.2479  0.6510  0.1236
  192MOL0     N25802   2.156  -0.293   9.131 -0.4667  0.1969  0.5751
  192MOL0     C25803   2.274  -0.243   9.095  0.2851 -0.2475  0.0255
  192MOL0     C25804   2.365  -0.321   9.156  0.1563 -1.0223 -1.7205
  192MOL0     C25805   2.521  -0.310   9.167 -0.4681 -0.4069  0.0372
  192MOL0     C25806   2.575  -0.193   9.255  0.4600 -0.7491  0.1047
  192MOL0     C25807   2.722  -0.154   9.231 -0.4679 -0.1636 -0.4552
  192MOL0     C25808   2.781  -0.051   9.331 -0.8493  0.1705  0.2177
  192MOL0     O25809   2.856   0.044   9.260 -0.0716 -0.8753 -0.4898
  192MOL0     C25810   2.989   0.027   9.232 -0.1197 -0.2844 -0.0986
  192MOL0     C25811   3.052  -0.099   9.213 -0.6171  0.7218 -0.8432
  192MOL0     C25812   3.182  -0.120   9.167 -0.6148 -0.0791 -0.1276
  192MOL0     C25813   3.255  -0.000   9.144  0.0416  0.0474 -0.2408
  192MOL0     C25814   3.395  -0.015   9.100 -0.7129 -0.6132 -0.4000
  192MOL0     O25815   3.455  -0.131   9.132  0.2064 -0.1890  0.1972
  192MOL0     C25816   3.590  -0.149   9.109 -0.3586  0.5026 -0.0542
  192MOL0     C25817   3.684  -0.081   9.186  0.0819  1.0570 -0.3578
  192MOL0     C25818   3.824  -0.095   9.161  0.0879 -1.0235 -0.3504
  192MOL0     C25819   3.875  -0.186   9.065 -0.2507  0.0641 -0.0700
  192MOL0     O25820   4.007  -0.202   9.060 -0.1318  0.3751 -1.0131
  192MOL0     C25821   4.072  -0.305   8.977  0.0124  0.0398 -0.2861
  192MOL0     C25822   4.220  -0.291   9.020  0.0632 -0.6433  0.3099
  192MOL0     C25823   4.279  -0.150   9.015 -0.0698  0.1469 -0.4063
  192MOL0     C25824   4.438  -0.132   9.029 -0.8360 -0.3544  1.0647
  192MOL0     C25825   4.477   0.005   8.973  0.0756 -0.6187 -0.1261
  192MOL0     C25826   4.461   0.110   9.091 -0.5666  0.3133  0.0668
  192MOL0     C25827   4.487   0.252   9.033  0.7617  0.7450  0.8834
  192MOL0     C25828   4.637   0.286   9.048  0.3631  0.2547 -0.4874
  192MOL0    Cl25829   4.663   0.355   9.215  0.0839 -0.1393 -0.5155
  192MOL0     C25830   3.772  -0.263   8.995  0.6092  0.8258  0.0496
  192MOL0     C25831   3.639  -0.235   9.017 -1.2536 -0.1307 -0.2617
  192MOL0     O25832   3.444   0.079   9.040  0.1029  0.2392 -0.9052
  192MOL0     C25833   3.201   0.126   9.171  0.8459 -0.4519 -1.2310
  192MOL0     C25834   3.063   0.140   9.209 -0.5111 -0.2938  0.2869
  192MOL0     N25835   2.295  -0.409   9.233  0.1739  0.5534 -0.0854
  192MOL0     N25836   2.167  -0.405   9.214 -0.9913  0.0525  0.9831
  192MOL0     C25837   1.167   0.123   8.631 -0.3861  0.4102  0.1324
  192MOL0     C25838   1.034   0.153   8.641 -0.1099 -0.0549  0.8798
  192MOL0     C25839   0.625   0.249   8.687  0.0051  0.4878  0.3551
  192MOL0     C25840   0.632   0.381   8.720 -0.5025 -0.2752  0.3688
  192MOL0     C25841   0.519   0.461   8.737  0.1673  1.2175 -0.1994
  192MOL0     C25842   0.392   0.406   8.728  0.3936  1.0277 -0.0687
  192MOL0     O25843   0.282   0.482   8.760 -1.1874  0.2038  0.7742
  192MOL0     C25844   0.148   0.419   8.749 -0.1396  0.3752 -0.6031
  192MOL0     C25845   0.044   0.489   8.833  0.2797 -0.0842  0.7253
  192MOL0     C25846  -0.085   0.410   8.824 -0.1913 -1.1045 -0.4219
  192MOL0     C25847  -0.167   0.439   8.695  0.0721  0.4724 -0.2940
  192MOL0     C25848  -0.224   0.577   8.697  0.8944  0.8529 -0.4067
  192MOL0     C25849  -0.269   0.689   8.673 -0.2236  0.4755  0.3705
  192MOL0     C25850   0.386   0.265   8.703 -0.6613 -0.5552 -1.6517
  192MOL0     C25851   0.499   0.187   8.687  0.7285  0.3625 -0.9764
  192MOL0     C25852   0.475   0.034   8.673  0.4906  1.0655 -0.1153
  192MOL0     H25853   1.011   0.238   8.969 -0.9367 -0.2888 -0.2737
  192MOL0     H25854   1.240   0.182   8.958  0.1396  0.9287 -0.6224
  192MOL0     H25855   1.585   0.113   8.779 -0.1564 -0.4794  1.0072
  192MOL0     H25856   1.487   0.242   8.855 -0.7280  1.2506 -1.7193
  192MOL0     H25857   1.399  -0.048   8.882 -3.0323 -0.4534  3.0714
  192MOL0     H25858   1.409   0.060   9.015 -0.6890 -1.0982  0.8474
  192MOL0     H25859   1.670   0.050   8.993  0.6538 -0.8546  2.5430
  192MOL0     H25860   1.644  -0.080   8.872 -2.3886  1.2046 -0.7240
  192MOL0     H25861   1.556  -0.114   9.158  1.3154 -1.0893  0.8950
  192MOL0     H25862   1.541  -0.235   9.025 -2.1718  1.2260 -1.7950
  192MOL0     H25863   1.720  -0.282   9.176  0.8958  0.0866  0.1076
  192MOL0     H25864   1.781  -0.246   9.010 -0.8062  0.6884 -0.8077
  192MOL0     H25865   1.847  -0.037   9.067  1.5999  0.2677  0.9222
  192MOL0     H25866   1.795  -0.039   9.237  0.3383 -1.4897  2.3341
  192MOL0     H25867   1.945  -0.226   9.289  0.6353  3.0232  1.4986
  192MOL0     H25868   2.035  -0.085   9.233  2.4849 -1.5725 -1.0953
  192MOL0     H25869   1.967  -0.330   9.065  0.2817 -0.3908  1.9923
  192MOL0     H25870   2.056  -0.187   9.002  0.5445 -0.6621 -0.5294
  192MOL0     H25871   2.295  -0.163   9.025  1.4982 -1.6802 -1.3359
  192MOL0     H25872   2.541  -0.400   9.226  2.0069  0.7960  1.1776
  192MOL0     H25873   2.580  -0.322   9.076 -0.2778 -0.0757  0.1118
  192MOL0     H25874   2.519  -0.102   9.231  0.2531 -0.8749  0.1033
  192MOL0     H25875   2.560  -0.197   9.363  0.8639  0.8725  0.2384
  192MOL0     H25876   2.725  -0.096   9.139  0.6118 -0.5117 -0.6507
  192MOL0     H25877   2.775  -0.250   9.225  1.2426  0.7796 -1.0034
  192MOL0     H25878   2.835  -0.106   9.409 -0.7895  0.5868  0.4719
  192MOL0     H25879   2.705  -0.000   9.391  0.7713  1.4744  1.2563
  192MOL0     H25880   2.984  -0.181   9.232 -0.4582  0.7844  0.0138
  192MOL0     H25881   3.222  -0.221   9.164 -0.7024 -0.1120 -0.2202
  192MOL0     H25882   3.635  -0.013   9.254 -0.7505  1.1520 -1.0285
  192MOL0     H25883   3.891  -0.042   9.228  0.6611 -0.5602 -1.2625
  192MOL0     H25884   4.048  -0.409   9.002  3.1205 -1.0553 -1.3871
  192MOL0     H25885   4.076  -0.294   8.869  0.9004  1.5481 -0.1234
  192MOL0     H25886   4.243  -0.339   9.116  0.1547 -0.4240  0.3967
  192MOL0     H25887   4.280  -0.345   8.945  0.7437  1.7005 -0.9259
  192MOL0     H25888   4.253  -0.120   8.914 -0.7573 -1.2837 -0.6826
  192MOL0     H25889   4.223  -0.089   9.086 -0.6568 -0.5275 -0.2818
  192MOL0     H25890   4.488  -0.211   8.971 -2.5516  0.1812 -1.2995
  192MOL0     H25891   4.465  -0.155   9.132 -0.5011 -0.9706  0.8495
  192MOL0     H25892   4.430   0.027   8.876  0.8725 -2.6748 -1.0373
  192MOL0     H25893   4.585  -0.002   8.953 -0.1323 -0.8623 -1.2287
  192MOL0     H25894   4.353   0.107   9.109 -0.6021  1.9004  0.2695
  192MOL0     H25895   4.523   0.092   9.179 -0.0699  0.9133 -0.1512
  192MOL0     H25896   4.434   0.333   9.084  0.9635  2.3889 -1.3885
  192MOL0     H25897   4.454   0.255   8.929 -0.4582 -3.6494  0.9443
  192MOL0     H25898   4.702   0.201   9.027  0.6215  1.2025 -4.1927
  192MOL0     H25899   4.665   0.354   8.967 -0.5769 -2.7267 -3.5095
  192MOL0     H25900   3.802  -0.341   8.926  0.6466  0.0822  0.8856
  192MOL0     H25901   3.568  -0.290   8.957 -0.9099  0.2600 -1.0364
  192MOL0     H25902   3.267   0.212   9.160 -0.9831  1.2962  0.4137
  192MOL0     H25903   3.019   0.236   9.232  0.3592  0.7992 -2.2563
  192MOL0     H25904   1.219   0.090   8.541 -0.9565  1.0682 -0.4433
  192MOL0     H25905   0.980   0.166   8.547 -0.2798 -0.8628  0.8534
  192MOL0     H25906   0.724   0.440   8.721 -0.1581 -0.7924  1.5806
  192MOL0     H25907   0.532   0.568   8.750  1.7323  1.1316 -0.8617
  192MOL0     H25908   0.156   0.321   8.796 -0.1160  0.3763 -0.6050
  192MOL0     H25909   0.108   0.417   8.647 -0.5738  1.5877 -0.4758
  192MOL0     H25910   0.030   0.587   8.788 -1.5486 -0.3555  0.6308
  192MOL0     H25911   0.076   0.496   8.938  0.8894 -0.0199  0.5388
  192MOL0     H25912  -0.154   0.423   8.908  0.5914 -2.1974  0.4246
  192MOL0     H25913  -0.068   0.301   8.829  1.9954 -0.9280 -2.3502
  192MOL0     H25914  -0.117   0.418   8.600 -3.5283 -0.8221 -2.0829
  192MOL0     H25915  -0.247   0.364   8.693 -0.0556  0.5913  0.2785
  192MOL0     H25916  -0.293   0.793   8.663 -0.1781  0.2606 -3.1370
  192MOL0     H25917   0.299   0.201   8.705  2.7686 -5.9783  2.1693
  192MOL0     H25918   0.475   0.009   8.567  0.3571  0.0392  0.1220
  192MOL0     H25919   0.558  -0.020   8.718  1.1202  1.3677 -0.9050
  192MOL0     H25920   0.383   0.004   8.725  0.5578  0.4738 -0.3394
  193MOL0     O25921   3.232   8.937   5.698 -0.4262 -0.7434 -0.9741
  193MOL0     C25922   3.280   8.826   5.691  0.4817  0.7646  0.1046
  193MOL0     O25923   3.388   8.775   5.757 -0.9392  0.1069  0.0264
  193MOL0     C25924   3.452   8.875   5.828 -0.2548 -0.2861 -0.4028
  193MOL0     C25925   3.505   9.000   5.770 -0.1431  1.7794  0.1994
  193MOL0     C25926   3.566   9.092   5.854 -0.4356  0.4850  0.0068
  193MOL0     C25927   3.577   9.068   5.989  0.3966 -0.8581 -0.6242
  193MOL0     O25928   3.646   9.152   6.077  0.0543 -0.0145  0.6537
  193MOL0     C25929   3.598   9.286   6.088 -1.1250  0.3117  0.2521
  193MOL0     C25930   3.452   9.326   6.078  0.4058 -0.3869  0.2436
  193MOL0     C25931   3.371   9.283   6.205  0.4038  0.0274 -0.9446
  193MOL0     C25932   3.230   9.331   6.193 -0.2499 -0.1419  0.8160
  193MOL0     C25933   3.136   9.230   6.260  0.7294  0.0328 -0.3910
  193MOL0     C25934   2.988   9.250   6.233  0.2635 -0.0021  0.0491
  193MOL0     C25935   2.900   9.146   6.292 -0.2188  0.3168 -0.4999
  193MOL0     C25936   2.750   9.190   6.308 -0.1909 -1.1405  0.6289
  193MOL0     N25937   2.707   9.186   6.442  0.1172 -1.0282 -0.3558
  193MOL0     C25938   2.686   9.298   6.519 -0.1814 -0.0065  0.5538
  193MOL0     C25939   2.633   9.250   6.631 -0.7755 -0.1014  0.6369
  193MOL0     C25940   2.602   9.341   6.745 -0.6806 -0.3943  0.6654
  193MOL0     C25941   2.475   9.424   6.714 -0.6104 -0.6006  0.1662
  193MOL0     C25942   2.342   9.353   6.709  0.3481  0.7514  0.1731
  193MOL0     C25943   2.322   9.267   6.841  0.1422 -0.7770  0.4709
  193MOL0     O25944   2.188   9.237   6.881  0.3531 -0.4656  0.4822
  193MOL0     C25945   2.124   9.163   6.770 -1.0966 -0.2845 -0.2828
  193MOL0     C25946   2.161   9.033   6.732 -1.0028 -0.7017 -0.0022
  193MOL0     C25947   2.095   8.962   6.632 -0.7544  0.0355 -0.1672
  193MOL0     C25948   1.995   9.032   6.565 -0.3675  0.0863  0.1304
  193MOL0     C25949   1.924   8.955   6.469  0.4679 -0.3336 -0.5885
  193MOL0     O25950   1.991   8.857   6.401  0.4761  0.0740 -0.2980
  193MOL0     C25951   1.958   8.791   6.283  0.6075 -0.5376 -0.4307
  193MOL0     C25952   1.994   8.654   6.280  0.0795  0.5302  0.3985
  193MOL0     C25953   1.961   8.581   6.167 -0.0896  0.6030  0.5178
  193MOL0     C25954   1.912   8.638   6.047 -0.7075 -0.1533  0.3680
  193MOL0     O25955   1.882   8.572   5.927 -0.6191  0.3609  0.5699
  193MOL0     C25956   1.954   8.455   5.884  1.3114 -0.2804 -0.2731
  193MOL0     C25957   2.022   8.478   5.736  0.3332 -0.6040  0.0831
  193MOL0     C25958   2.121   8.368   5.718  0.2873 -0.9086  0.1956
  193MOL0     C25959   2.182   8.355   5.582  0.2175  0.2665  1.0267
  193MOL0     C25960   2.276   8.239   5.551  0.9980 -0.3840 -0.5575
  193MOL0     C25961   2.417   8.274   5.594  0.6587  1.0441  0.9293
  193MOL0     C25962   2.514   8.154   5.589 -0.1251 -0.1417  0.2229
  193MOL0     C25963   2.548   8.109   5.732 -0.1714  0.1560  0.5552
  193MOL0    Cl25964   2.668   7.967   5.700  0.4256  0.3322 -0.4871
  193MOL0     C25965   1.883   8.767   6.053 -0.4206  0.6407  0.7310
  193MOL0     C25966   1.909   8.852   6.168 -0.8959 -0.8997  0.4912
  193MOL0     O25967   1.808   8.986   6.462  0.7588 -0.1111  0.2225
  193MOL0     C25968   1.976   9.169   6.591 -0.0887 -0.7463  0.5186
  193MOL0     C25969   2.031   9.231   6.701 -0.7371  0.1931 -0.4824
  193MOL0     N25970   2.625   9.112   6.625  0.2241  0.3356  0.5107
  193MOL0     N25971   2.694   9.071   6.523 -0.0315 -0.2613  0.0866
  193MOL0     C25972   3.532   8.952   6.042  0.4046 -0.5639 -0.4057
  193MOL0     C25973   3.460   8.859   5.963 -0.1524 -0.1204 -0.4567
  193MOL0     C25974   3.204   8.736   5.589 -0.6205 -1.1513  0.6981
  193MOL0     C25975   3.113   8.793   5.504  0.3653 -0.4108 -0.4713
  193MOL0     C25976   3.069   8.726   5.395 -0.4882  0.6892  0.0626
  193MOL0     C25977   3.096   8.596   5.367  0.3928  0.0224 -0.5117
  193MOL0     O25978   3.053   8.518   5.268 -0.1653  0.3607 -0.3943
  193MOL0     C25979   2.945   8.564   5.178 -0.3307  0.9986 -0.0739
  193MOL0     C25980   2.816   8.543   5.246 -0.2066 -0.6203  0.2445
  193MOL0     C25981   2.712   8.577   5.135  0.6299 -1.1705  0.7123
  193MOL0     C25982   2.702   8.474   5.018 -0.6132 -0.3584 -0.5330
  193MOL0     C25983   2.597   8.380   5.028  0.3200 -0.0547 -0.6780
  193MOL0     C25984   2.505   8.302   5.037  0.3059 -0.2547 -0.3340
  193MOL0     C25985   3.189   8.535   5.456  0.4156 -0.3346 -0.5640
  193MOL0     C25986   3.234   8.604   5.569 -0.2362  1.1827 -0.4956
  193MOL0     C25987   3.316   8.524   5.672  0.8487  0.0991  0.4738
  193MOL0     H25988   3.487   9.003   5.663  1.0013 -1.1172 -0.1665
  193MOL0     H25989   3.609   9.181   5.808 -2.0471  2.2878  1.7732
  193MOL0     H25990   3.647   9.323   6.179 -0.0006  0.2188 -0.3034
  193MOL0     H25991   3.654   9.344   6.015 -1.5523 -0.8555 -1.0352
  193MOL0     H25992   3.398   9.273   5.999  0.6872 -1.7119  0.9072
  193MOL0     H25993   3.449   9.434   6.059  0.8593 -0.5535 -0.8405
  193MOL0     H25994   3.411   9.340   6.289  1.6086  0.8399 -2.0513
  193MOL0     H25995   3.391   9.185   6.250  0.4560  0.4299 -0.0739
  193MOL0     H25996   3.223   9.431   6.237  0.0432  0.1612  0.1979
  193MOL0     H25997   3.203   9.338   6.087  2.2600  0.9331  0.1704
  193MOL0     H25998   3.167   9.134   6.219 -0.2576 -1.8927  3.0053
  193MOL0     H25999   3.154   9.230   6.368  1.4582 -0.1793 -0.5078
  193MOL0     H26000   2.950   9.340   6.283  0.0399 -0.6638  1.0792
  193MOL0     H26001   2.970   9.256   6.125  1.8397  0.6385 -0.2134
  193MOL0     H26002   2.939   9.116   6.389  0.0966  0.3797 -0.6044
  193MOL0     H26003   2.895   9.055   6.232  1.3079  0.0566 -0.2872
  193MOL0     H26004   2.729   9.289   6.264  0.1115 -1.2921  0.1387
  193MOL0     H26005   2.695   9.119   6.245 -0.1751  0.6373 -1.5148
  193MOL0     H26006   2.720   9.399   6.498 -0.7337 -0.1257 -0.9924
  193MOL0     H26007   2.587   9.286   6.839 -1.6122  1.7181  1.8166
  193MOL0     H26008   2.689   9.407   6.757 -0.5456 -0.5623  0.6025
  193MOL0     H26009   2.464   9.504   6.788 -3.8146  1.4775 -2.2824
  193MOL0     H26010   2.495   9.476   6.620 -0.6467 -1.7003 -0.4661
  193MOL0     H26011   2.324   9.299   6.616  1.5239 -0.1669  0.4527
  193MOL0     H26012   2.263   9.428   6.711 -2.3035 -1.8711  1.3994
  193MOL0     H26013   2.365   9.324   6.924 -0.9562  2.9977 -1.3400
  193MOL0     H26014   2.372   9.172   6.819  0.7963 -1.0189  2.7456
  193MOL0     H26015   2.243   8.992   6.791 -0.9413 -0.2951  0.1952
  193MOL0     H26016   2.128   8.861   6.611 -0.1264 -0.0307  1.0665
  193MOL0     H26017   2.030   8.608   6.372 -1.1894 -0.1647  0.5713
  193MOL0     H26018   1.973   8.473   6.170  2.7974  0.8913  1.6459
  193MOL0     H26019   2.023   8.415   5.959 -0.1922 -2.8231 -0.1215
  193MOL0     H26020   1.880   8.375   5.884  1.0588 -0.0491 -0.2679
  193MOL0     H26021   1.946   8.469   5.658  1.1871 -2.6849 -0.5846
  193MOL0     H26022   2.073   8.574   5.726  2.4071 -1.4831  1.5814
  193MOL0     H26023   2.192   8.379   5.801  2.0303 -2.7445 -0.9533
  193MOL0     H26024   2.073   8.272   5.741  2.0720 -1.0203  4.3198
  193MOL0     H26025   2.241   8.445   5.565 -0.4451  0.1119 -2.9101
  193MOL0     H26026   2.098   8.357   5.512 -0.8985  0.5995  2.3280
  193MOL0     H26027   2.277   8.218   5.444 -1.0520  1.5606 -1.0369
  193MOL0     H26028   2.240   8.151   5.606 -6.8700  1.2840 -1.8005
  193MOL0     H26029   2.458   8.338   5.516 -1.4546 -3.1889 -4.2601
  193MOL0     H26030   2.412   8.316   5.695 -1.6085 -0.8996  1.7265
  193MOL0     H26031   2.606   8.178   5.534 -0.2016  0.7646  0.4853
  193MOL0     H26032   2.477   8.063   5.540 -0.8244 -0.0406  0.5529
  193MOL0     H26033   2.592   8.188   5.794  0.4205  0.2897 -0.0234
  193MOL0     H26034   2.455   8.072   5.776  0.4533  0.4102  2.1351
  193MOL0     H26035   1.845   8.814   5.963 -0.7619  2.3692  1.7348
  193MOL0     H26036   1.905   8.960   6.161  1.5458 -0.6932  1.5589
  193MOL0     H26037   1.913   9.230   6.527  4.2254  3.3952 -0.3153
  193MOL0     H26038   2.011   9.332   6.735 -4.4206 -0.7704  0.7097
  193MOL0     H26039   3.538   8.947   6.151 -3.0288  0.3471 -0.0628
  193MOL0     H26040   3.418   8.772   6.013  0.4890 -0.6249 -0.7815
  193MOL0     H26041   3.069   8.890   5.527 -0.5021 -0.8558 -0.2390
  193MOL0     H26042   3.005   8.775   5.322  0.3914  0.8832 -0.6023
  193MOL0     H26043   2.946   8.507   5.085 -2.4803  2.8733 -1.3388
  193MOL0     H26044   2.951   8.668   5.147  2.8510  0.3376 -2.1685
  193MOL0     H26045   2.798   8.614   5.327 -0.7232 -0.5712  0.0915
  193MOL0     H26046   2.784   8.443   5.279 -0.7444 -0.2426  0.9071
  193MOL0     H26047   2.736   8.675   5.095  0.2774 -0.7062  1.6042
  193MOL0     H26048   2.612   8.598   5.176  1.1241  0.2016  1.2655
  193MOL0     H26049   2.695   8.513   4.916 -0.2721 -2.9443 -1.6202
  193MOL0     H26050   2.795   8.417   5.009  0.7665  1.8182 -0.8748
  193MOL0     H26051   2.420   8.242   5.063  0.7937  0.0049  2.0856
  193MOL0     H26052   3.210   8.430   5.439 -1.4027 -0.9989  0.9748
  193MOL0     H26053   3.319   8.543   5.779  1.4103 -1.3409  0.7384
  193MOL0     H26054   3.289   8.419   5.681 -0.1805  0.1262 -1.6796
  193MOL0     H26055   3.422   8.529   5.644  1.1145 -0.0570  1.4241
  194MOL0     O26056   6.030   1.856   4.877 -0.2365 -0.4744 -0.4946
  194MOL0     C26057   6.080   1.929   4.961 -0.6543 -1.0074  0.8066
  194MOL0     O26058   6.208   1.978   4.959 -0.1548 -0.8476  0.0212
  194MOL0     C26059   6.289   1.935   4.858 -0.5772  0.7652  0.3599
  194MOL0     C26060   6.389   1.837   4.878  0.0433  0.8681 -0.6210
  194MOL0     C26061   6.461   1.781   4.770 -0.2533  0.0495 -0.6040
  194MOL0     C26062   6.431   1.821   4.642  0.0144 -0.0389 -0.7836
  194MOL0     O26063   6.483   1.740   4.554 -0.1623  0.2959  0.0269
  194MOL0     C26064   6.463   1.789   4.418 -0.0732  0.1071 -1.1171
  194MOL0     C26065   6.538   1.691   4.330  1.2027  0.6978 -0.2070
  194MOL0     C26066   6.696   1.686   4.350  0.4468  0.5000  0.6055
  194MOL0     C26067   6.750   1.735   4.489  0.3709 -0.2212 -0.1764
  194MOL0     C26068   6.895   1.788   4.464  0.6979  0.2531 -0.0851
  194MOL0     C26069   6.965   1.817   4.600  0.6310 -0.2114  0.2263
  194MOL0     C26070   7.107   1.876   4.583 -0.1997  0.5038  0.5026
  194MOL0     C26071   7.126   2.000   4.489  0.6570  0.4091  0.6957
  194MOL0     N26072   7.266   2.045   4.482  0.8742 -0.2548  0.7303
  194MOL0     C26073   7.349   1.976   4.399  0.1238 -0.3837  0.1842
  194MOL0     C26074   7.471   2.014   4.449  0.6186  0.5951 -0.0299
  194MOL0     C26075   7.602   1.951   4.412  0.1543 -0.1461 -0.5990
  194MOL0     C26076   7.677   2.023   4.300 -0.1912 -0.5945  0.9805
  194MOL0     C26077   7.827   1.993   4.310 -0.0279 -0.8962  0.8670
  194MOL0     C26078   7.911   2.056   4.197  0.2758 -0.9823 -0.7873
  194MOL0     O26079   7.894   2.002   4.068 -0.4696 -0.7719  0.6057
  194MOL0     C26080   7.776   2.020   3.994 -0.2980 -0.6515 -0.1466
  194MOL0     C26081   7.695   2.137   3.986 -0.1520 -0.2580  0.0491
  194MOL0     C26082   7.583   2.148   3.905  0.8873 -0.7779  0.7404
  194MOL0     C26083   7.548   2.030   3.833  0.1636  0.1832 -0.4490
  194MOL0     C26084   7.423   2.036   3.757 -0.1191  1.2111 -0.4146
  194MOL0     O26085   7.389   1.921   3.691 -0.0727 -0.4615  0.2605
  194MOL0     C26086   7.263   1.920   3.642 -0.6749 -0.3407 -0.4286
  194MOL0     C26087   7.167   1.864   3.717  0.8932 -0.0175 -0.7494
  194MOL0     C26088   7.035   1.865   3.679 -0.0145 -0.1718 -0.3806
  194MOL0     C26089   6.999   1.924   3.556 -0.3143 -0.9115  0.0460
  194MOL0     O26090   6.871   1.938   3.514 -0.5646  0.5644 -0.0482
  194MOL0     C26091   6.774   1.858   3.577  0.4982 -0.8163  0.6538
  194MOL0     C26092   6.650   1.866   3.478 -0.6356  0.4027 -0.3141
  194MOL0     C26093   6.529   1.800   3.519 -0.8282 -0.3787  0.4177
  194MOL0     C26094   6.450   1.867   3.633 -0.0751 -0.3711  0.0362
  194MOL0     C26095   6.306   1.801   3.652 -0.4617  0.4986 -0.1158
  194MOL0     C26096   6.236   1.860   3.772  0.8196  0.0593  0.2894
  194MOL0     C26097   6.087   1.801   3.774 -0.5334  0.0394  0.1162
  194MOL0     C26098   6.016   1.813   3.904 -0.4481  0.1694 -0.0242
  194MOL0    Cl26099   6.036   1.982   3.966 -0.2594 -0.9239 -0.2383
  194MOL0     C26100   7.100   1.955   3.463  0.1544 -0.0152 -0.4706
  194MOL0     C26101   7.230   1.954   3.510 -0.4368  0.7141 -0.0624
  194MOL0     O26102   7.350   2.136   3.762 -0.1818  0.6386 -0.1843
  194MOL0     C26103   7.621   1.915   3.846 -0.3608  0.3575 -0.5032
  194MOL0     C26104   7.728   1.912   3.932  0.4470 -0.5225  0.4650
  194MOL0     N26105   7.450   2.087   4.566  1.2271  0.3635  0.5024
  194MOL0     N26106   7.325   2.105   4.587  1.1772 -0.2894 -0.1499
  194MOL0     C26107   6.339   1.923   4.627 -0.6725 -0.6170  0.4888
  194MOL0     C26108   6.263   1.972   4.733  0.3834 -0.3096  0.1974
  194MOL0     C26109   6.005   1.967   5.086  0.3270  1.0908 -0.2858
  194MOL0     C26110   5.894   2.047   5.079  0.0928  0.5847  0.5575
  194MOL0     C26111   5.806   2.066   5.189 -0.3361  0.2345  0.2040
  194MOL0     C26112   5.836   1.999   5.310  0.3285  0.2632  0.9847
  194MOL0     O26113   5.758   2.017   5.422 -0.5988 -0.0932  0.3413
  194MOL0     C26114   5.686   1.898   5.465 -0.4911  0.2553  0.2138
  194MOL0     C26115   5.616   1.807   5.361 -0.5098 -0.7025 -0.0161
  194MOL0     C26116   5.549   1.688   5.415  0.2645  0.0940  0.1742
  194MOL0     C26117   5.420   1.653   5.326 -0.4125  0.1593  0.4550
  194MOL0     C26118   5.390   1.509   5.325  0.2710  0.3618  0.2755
  194MOL0     C26119   5.390   1.390   5.319 -0.3315  0.9418 -0.5095
  194MOL0     C26120   5.953   1.917   5.312  0.6906  0.3071 -0.8682
  194MOL0     C26121   6.039   1.895   5.205  0.1919 -0.8447  1.0530
  194MOL0     C26122   6.172   1.826   5.212 -0.4655  0.6059  0.8940
  194MOL0     H26123   6.419   1.804   4.977  1.8461  0.2533 -1.3238
  194MOL0     H26124   6.533   1.702   4.788 -2.6550 -1.7223  2.0292
  194MOL0     H26125   6.357   1.785   4.393 -1.2475  1.4526  2.9041
  194MOL0     H26126   6.491   1.894   4.407 -2.2838  0.9540  0.6128
  194MOL0     H26127   6.521   1.719   4.226  0.9640 -0.9150 -0.6210
  194MOL0     H26128   6.502   1.589   4.342 -0.1093  0.8553 -2.2513
  194MOL0     H26129   6.740   1.743   4.267 -2.1954  0.6850 -0.7799
  194MOL0     H26130   6.719   1.582   4.327 -4.2286 -0.7959  0.6412
  194MOL0     H26131   6.701   1.820   4.537  0.9659 -0.2357  0.4751
  194MOL0     H26132   6.739   1.652   4.560  1.2633 -2.5084 -2.5021
  194MOL0     H26133   6.948   1.703   4.419  0.9634 -0.2164  1.0684
  194MOL0     H26134   6.899   1.875   4.399  0.6637  0.4548  0.1822
  194MOL0     H26135   6.902   1.893   4.646  1.0864 -1.1731  2.5732
  194MOL0     H26136   6.956   1.731   4.666 -0.2687 -1.1059 -1.0198
  194MOL0     H26137   7.171   1.797   4.541  3.7064  3.6415 -0.0978
  194MOL0     H26138   7.148   1.905   4.680 -1.1594 -3.1776  2.1856
  194MOL0     H26139   7.095   1.979   4.386  0.7040  1.5455  0.4456
  194MOL0     H26140   7.057   2.079   4.518 -1.7440 -0.2815 -2.5921
  194MOL0     H26141   7.325   1.893   4.333 -0.7677 -0.6728  0.8453
  194MOL0     H26142   7.669   1.939   4.498  2.0898  1.9412 -1.7246
  194MOL0     H26143   7.585   1.850   4.374  1.4078 -0.3035 -0.7880
  194MOL0     H26144   7.631   1.983   4.209  0.6502 -0.6040  0.5440
  194MOL0     H26145   7.663   2.132   4.300 -2.3691 -0.8350  1.1081
  194MOL0     H26146   7.849   1.886   4.308  0.6550 -0.8100 -2.4953
  194MOL0     H26147   7.870   2.034   4.401  0.1796  1.3859 -0.2016
  194MOL0     H26148   8.014   2.035   4.224  0.4718 -0.0712 -0.8140
  194MOL0     H26149   7.895   2.164   4.200  1.1228 -0.8783  2.1555
  194MOL0     H26150   7.722   2.230   4.035  1.0438  0.0448 -1.1405
  194MOL0     H26151   7.524   2.239   3.901  0.0564 -1.3450 -2.8121
  194MOL0     H26152   7.195   1.791   3.792  0.7884 -0.9606 -1.6005
  194MOL0     H26153   6.957   1.825   3.743  0.6440 -0.2603  0.3776
  194MOL0     H26154   6.811   1.755   3.569  0.6223 -0.7554  0.4377
  194MOL0     H26155   6.735   1.892   3.673 -0.5013  3.0634 -0.9134
  194MOL0     H26156   6.622   1.971   3.466 -3.7964 -0.5709 -2.8281
  194MOL0     H26157   6.678   1.831   3.378  0.7175 -1.6346  0.7080
  194MOL0     H26158   6.460   1.796   3.434 -0.9409 -0.5076  0.5149
  194MOL0     H26159   6.548   1.699   3.557 -0.0891 -0.5833 -0.4647
  194MOL0     H26160   6.437   1.972   3.604 -0.9831 -0.3873  0.3496
  194MOL0     H26161   6.507   1.872   3.726 -1.5729  2.5628  0.9333
  194MOL0     H26162   6.315   1.693   3.665  1.4814  0.7565  1.2123
  194MOL0     H26163   6.255   1.812   3.556  1.2056 -2.6327 -1.4999
  194MOL0     H26164   6.285   1.832   3.865  1.1249 -5.3943 -1.1752
  194MOL0     H26165   6.234   1.968   3.754  6.2914  0.9261  2.8873
  194MOL0     H26166   6.087   1.696   3.744 -0.1267  0.1877 -0.4352
  194MOL0     H26167   6.022   1.861   3.709 -1.7407 -1.5336 -0.1950
  194MOL0     H26168   5.911   1.790   3.887 -0.4941  1.5327 -1.8357
  194MOL0     H26169   6.062   1.743   3.975  1.5183  0.4824 -0.9385
  194MOL0     H26170   7.082   2.003   3.368  0.7786 -1.0685 -1.1369
  194MOL0     H26171   7.311   1.974   3.440 -1.6073 -1.5267 -2.2006
  194MOL0     H26172   7.598   1.831   3.781  0.1660 -1.2925  1.3526
  194MOL0     H26173   7.775   1.816   3.949 -1.3271 -1.8520 -1.5693
  194MOL0     H26174   6.306   1.954   4.528 -1.3712  2.0328  1.4713
  194MOL0     H26175   6.181   2.039   4.711 -2.3484 -2.5010  2.9113
  194MOL0     H26176   5.865   2.077   4.978  1.5830 -1.6435 -0.6124
  194MOL0     H26177   5.716   2.124   5.174  0.5686  1.3594 -0.9952
  194MOL0     H26178   5.605   1.927   5.533 -1.6354 -1.7317 -0.2414
  194MOL0     H26179   5.762   1.847   5.524  0.8100  2.5546  0.6595
  194MOL0     H26180   5.697   1.778   5.293 -0.5081  1.5486 -1.0655
  194MOL0     H26181   5.546   1.882   5.324 -0.8064  0.8325  3.2714
  194MOL0     H26182   5.510   1.704   5.516  0.8201  2.3213  0.0876
  194MOL0     H26183   5.619   1.605   5.416  1.0022  0.6571 -1.2768
  194MOL0     H26184   5.333   1.698   5.374 -0.1063 -0.2179  1.3793
  194MOL0     H26185   5.436   1.690   5.224  0.9717 -1.0568  0.1980
  194MOL0     H26186   5.386   1.283   5.310 -0.1012  0.7827  0.9943
  194MOL0     H26187   5.986   1.877   5.408 -1.3701  0.2473 -0.1541
  194MOL0     H26188   6.182   1.775   5.308 -1.5926 -1.6597 -0.1120
  194MOL0     H26189   6.189   1.758   5.128 -0.9291  1.9934 -0.3706
  194MOL0     H26190   6.253   1.899   5.206 -0.4809  0.7059  1.8085
  195MOL0     O26191   9.562   2.631   5.719  0.2220  0.0906 -0.2692
  195MOL0     C26192   9.449   2.634   5.682 -0.8058 -0.0531  0.0444
  195MOL0     O26193   9.389   2.546   5.593  0.5694 -0.1379  0.0166
  195MOL0     C26194   9.455   2.465   5.501 -0.5532 -0.1372 -0.7221
  195MOL0     C26195   9.383   2.372   5.427 -0.3932 -0.7491 -0.7295
  195MOL0     C26196   9.444   2.292   5.327  0.3572 -0.3691  0.4524
  195MOL0     C26197   9.574   2.306   5.303  0.1002 -0.7438 -0.3828
  195MOL0     O26198   9.640   2.268   5.189 -0.1487  0.4112 -0.5430
  195MOL0     C26199   9.589   2.184   5.082 -0.0344 -0.1222 -0.8511
  195MOL0     C26200   9.619   2.035   5.106 -0.8545 -1.2035 -0.4640
  195MOL0     C26201   9.770   2.009   5.081  0.3198 -0.2035  1.0648
  195MOL0     C26202   9.817   1.973   4.939 -0.3500 -0.9344  0.3595
  195MOL0     C26203   9.968   1.982   4.936  0.6313 -0.4365  1.1669
  195MOL0     C26204  10.055   1.884   5.021  0.1803 -0.0139  0.5066
  195MOL0     C26205  10.203   1.913   4.996 -0.3845 -1.2719  0.1926
  195MOL0     C26206  10.285   1.980   5.095  0.2429 -0.0026  0.2165
  195MOL0     N26207  10.416   1.954   5.060 -0.1457  0.3971 -0.7550
  195MOL0     C26208  10.512   1.879   5.130  0.0226 -0.0705 -0.0662
  195MOL0     C26209  10.622   1.904   5.056 -0.5500 -0.4444 -0.7627
  195MOL0     C26210  10.763   1.858   5.088 -0.0481  0.3402  0.1304
  195MOL0     C26211  10.785   1.705   5.096  0.4312 -0.0093 -0.5584
  195MOL0     C26212  10.730   1.620   4.978  0.4629  0.5705  0.1416
  195MOL0     C26213  10.581   1.597   4.966 -0.2200  0.0516  0.3527
  195MOL0     O26214  10.524   1.534   5.078 -0.2790  0.2661 -0.3931
  195MOL0     C26215  10.386   1.524   5.086 -0.1961 -0.3864 -0.4658
  195MOL0     C26216  10.301   1.550   4.980  0.3276 -0.1001  0.0063
  195MOL0     C26217  10.161   1.528   4.989 -0.3418 -0.0067 -0.6874
  195MOL0     C26218  10.102   1.473   5.102 -0.5968 -0.0714  0.0572
  195MOL0     C26219   9.955   1.455   5.113 -0.0486 -0.4115 -0.2840
  195MOL0     O26220   9.883   1.528   5.024  0.2209  0.6185 -0.3440
  195MOL0     C26221   9.744   1.548   5.028 -0.7096 -0.5390  0.4627
  195MOL0     C26222   9.681   1.546   5.150  0.0767  1.4224 -0.3144
  195MOL0     C26223   9.550   1.587   5.158 -0.1815 -0.6150  0.1402
  195MOL0     C26224   9.484   1.643   5.049 -0.6390 -0.4378  0.0890
  195MOL0     O26225   9.356   1.689   5.087  0.5136 -0.7008 -0.5647
  195MOL0     C26226   9.310   1.799   5.016  0.3334  0.4762 -0.9826
  195MOL0     C26227   9.191   1.850   5.101 -0.7353 -1.0138 -0.2004
  195MOL0     C26228   9.116   1.967   5.043  0.2415 -0.1608  0.0615
  195MOL0     C26229   9.028   2.040   5.141 -0.2846  0.5015  0.5166
  195MOL0     C26230   9.005   2.183   5.082  0.2492 -0.2440 -0.1577
  195MOL0     C26231   8.928   2.175   4.957 -0.7062 -0.0885  0.9360
  195MOL0     C26232   8.863   2.309   4.919 -0.0894 -0.3037  0.8470
  195MOL0     C26233   8.957   2.406   4.853 -0.3923 -0.1567  0.7699
  195MOL0    Cl26234   8.871   2.567   4.840  0.0439  0.5683  0.0515
  195MOL0     C26235   9.545   1.641   4.923 -0.7491 -0.9523  0.0019
  195MOL0     C26236   9.675   1.591   4.914  0.8645  0.2925  0.2903
  195MOL0     O26237   9.908   1.393   5.209 -0.9148  0.2850 -0.0882
  195MOL0     C26238  10.189   1.445   5.213 -0.6986  0.4097 -0.8039
  195MOL0     C26239  10.329   1.465   5.199  0.3928  0.5706  0.5095
  195MOL0     N26240  10.604   1.986   4.951  0.1602 -0.7615  0.6181
  195MOL0     N26241  10.473   2.014   4.955  0.3511  0.3542 -0.7560
  195MOL0     C26242   9.658   2.390   5.381 -0.2793 -0.3324  0.3018
  195MOL0     C26243   9.599   2.481   5.482  0.3723  0.2709  0.1941
  195MOL0     C26244   9.351   2.735   5.736  0.1053  0.2850 -0.4470
  195MOL0     C26245   9.217   2.723   5.712 -0.7240  0.3148 -0.1498
  195MOL0     C26246   9.118   2.820   5.753 -0.1660 -0.4525  0.1877
  195MOL0     C26247   9.159   2.929   5.815  0.5838 -0.0359  0.0793
  195MOL0     O26248   9.076   3.035   5.854 -0.3985 -0.7903 -0.5885
  195MOL0     C26249   8.930   3.022   5.852  0.6739  0.1742 -0.4449
  195MOL0     C26250   8.858   3.079   5.976  0.8725  0.2459  0.4333
  195MOL0     C26251   8.711   3.124   5.941 -0.0691 -0.3347 -0.1461
  195MOL0     C26252   8.658   3.210   6.052 -0.2756  0.0221  0.3559
  195MOL0     C26253   8.532   3.265   6.003 -0.7626 -0.5432 -0.8366
  195MOL0     C26254   8.423   3.310   5.964 -0.5472 -0.1218  0.1088
  195MOL0     C26255   9.294   2.942   5.844 -1.3115 -0.0561 -0.5233
  195MOL0     C26256   9.392   2.850   5.810  0.5290 -0.0507  0.1664
  195MOL0     C26257   9.529   2.879   5.859  0.2826  0.5587  0.6082
  195MOL0     H26258   9.278   2.361   5.452  0.3605 -2.4548  2.1454
  195MOL0     H26259   9.382   2.225   5.268 -1.0367 -1.2084  2.7043
  195MOL0     H26260   9.480   2.191   5.083 -0.1691 -1.8799 -1.1265
  195MOL0     H26261   9.632   2.212   4.986  2.8172  0.1841  0.4296
  195MOL0     H26262   9.558   1.985   5.030 -0.6959  0.3668 -1.6637
  195MOL0     H26263   9.581   2.010   5.205 -2.3650 -1.1317 -0.9972
  195MOL0     H26264   9.800   1.919   5.135  0.5100  0.9729  3.0126
  195MOL0     H26265   9.816   2.096   5.130 -2.1442  0.5659  2.1670
  195MOL0     H26266   9.798   1.868   4.915  1.7266 -1.7074  1.8977
  195MOL0     H26267   9.784   2.038   4.857  1.2514 -1.9821 -1.1946
  195MOL0     H26268   9.997   1.969   4.831 -0.5122  6.1520 -0.4710
  195MOL0     H26269  10.004   2.084   4.956  1.2257 -0.4757  0.3547
  195MOL0     H26270  10.036   1.901   5.127 -0.4709 -1.4400  0.6407
  195MOL0     H26271  10.032   1.781   4.991 -3.3021  0.6767  0.3888
  195MOL0     H26272  10.219   1.958   4.897  0.5716 -0.2818  0.7778
  195MOL0     H26273  10.254   1.819   4.970  3.6287  0.4303  1.1590
  195MOL0     H26274  10.266   2.087   5.085 -1.4843 -0.4903 -2.9371
  195MOL0     H26275  10.257   1.947   5.196 -0.7321 -1.3809 -0.4724
  195MOL0     H26276  10.510   1.827   5.225 -2.3674  0.2564  0.1374
  195MOL0     H26277  10.822   1.896   5.004 -0.3868  0.5835  0.0017
  195MOL0     H26278  10.801   1.899   5.182  0.5231  2.4660 -0.9638
  195MOL0     H26279  10.892   1.682   5.099  0.4724  0.1279 -0.8899
  195MOL0     H26280  10.735   1.672   5.187 -0.9180  3.7756  0.2568
  195MOL0     H26281  10.781   1.523   4.988 -3.4409 -1.4042  5.2192
  195MOL0     H26282  10.754   1.673   4.886 -2.2677  0.3036 -0.7965
  195MOL0     H26283  10.562   1.528   4.883 -0.7689  2.1271 -1.3307
  195MOL0     H26284  10.524   1.685   4.935 -1.9717 -1.3270 -0.5712
  195MOL0     H26285  10.338   1.592   4.886 -2.2311 -1.7228 -1.8527
  195MOL0     H26286  10.100   1.545   4.901 -0.4457  0.1458 -0.5855
  195MOL0     H26287   9.722   1.520   5.248 -0.3161 -1.8224 -0.8905
  195MOL0     H26288   9.498   1.573   5.252  2.6849 -0.4114  1.9053
  195MOL0     H26289   9.389   1.874   5.021 -0.1473  0.9435  0.2800
  195MOL0     H26290   9.272   1.773   4.917 -3.7549 -0.8102  0.7070
  195MOL0     H26291   9.118   1.771   5.120 -2.3008  0.4724  0.1935
  195MOL0     H26292   9.228   1.875   5.201 -0.3090 -1.7737 -0.1532
  195MOL0     H26293   9.188   2.036   4.999  3.1551 -2.9231  0.1217
  195MOL0     H26294   9.064   1.909   4.967  1.7916 -0.6752 -0.6458
  195MOL0     H26295   9.084   2.038   5.235 -0.0720 -1.0400  0.3697
  195MOL0     H26296   8.933   1.987   5.152  0.3898 -1.1567 -1.1225
  195MOL0     H26297   9.104   2.229   5.089  0.3827 -0.6096  0.3687
  195MOL0     H26298   8.939   2.237   5.151  0.7197  1.3962 -0.9329
  195MOL0     H26299   8.996   2.160   4.872 -0.4063  0.0206  1.1568
  195MOL0     H26300   8.850   2.098   4.961 -0.8214  0.0628  1.6943
  195MOL0     H26301   8.804   2.335   5.008 -1.4691 -2.2744  0.5735
  195MOL0     H26302   8.792   2.300   4.836  2.1786  0.1995 -1.2596
  195MOL0     H26303   9.055   2.414   4.901  0.3459  0.1261 -0.7348
  195MOL0     H26304   8.981   2.374   4.751  0.7440 -1.1402  1.3171
  195MOL0     H26305   9.490   1.692   4.846  1.9341  1.4178 -0.5068
  195MOL0     H26306   9.737   1.605   4.826 -2.9971  0.4772 -2.6200
  195MOL0     H26307  10.144   1.403   5.302 -0.6404 -0.1095 -1.0148
  195MOL0     H26308  10.399   1.429   5.273  0.3318 -3.1391 -1.0016
  195MOL0     H26309   9.754   2.396   5.332 -1.3866 -1.9099 -2.2483
  195MOL0     H26310   9.652   2.567   5.521 -0.9022  2.0763 -1.7745
  195MOL0     H26311   9.197   2.629   5.662  0.5710 -0.4805  0.7688
  195MOL0     H26312   9.013   2.795   5.737 -0.4390  0.3196  0.6944
  195MOL0     H26313   8.885   2.923   5.845  1.4008 -0.3401  1.3895
  195MOL0     H26314   8.884   3.073   5.767 -2.0868  0.0318  0.8631
  195MOL0     H26315   8.909   3.170   6.007 -0.7210  0.7642  1.6716
  195MOL0     H26316   8.862   3.002   6.054 -0.9817 -1.1912 -0.7960
  195MOL0     H26317   8.642   3.039   5.933 -4.1558  2.4377  1.8742
  195MOL0     H26318   8.719   3.183   5.849  0.9876 -0.4337 -0.1230
  195MOL0     H26319   8.640   3.157   6.146 -1.0938  1.1437  0.8578
  195MOL0     H26320   8.726   3.295   6.064 -0.3357 -0.0077  0.9307
  195MOL0     H26321   8.322   3.329   5.934  0.2966  1.5286 -1.9456
  195MOL0     H26322   9.322   3.030   5.901  0.5683 -1.6272  1.1403
  195MOL0     H26323   9.592   2.878   5.769 -0.2175 -2.0133  0.1980
  195MOL0     H26324   9.542   2.978   5.904  1.0918  0.3322  0.8800
  195MOL0     H26325   9.554   2.796   5.926 -0.7129 -1.4719 -1.3775
  196MOL0     O26326   4.473   9.534  11.165  0.3465 -0.2361 -0.0821
  196MOL0     C26327   4.386   9.487  11.101 -0.4305 -0.0594  0.0997
  196MOL0     O26328   4.295   9.566  11.033  0.4382  0.7129  0.1662
  196MOL0     C26329   4.315   9.698  11.043  0.0776  0.2235  0.1829
  196MOL0     C26330   4.434   9.761  11.003  0.0714 -0.0478 -0.1690
  196MOL0     C26331   4.447   9.900  11.009  0.4613 -0.5410  0.7404
  196MOL0     C26332   4.340   9.971  11.054  0.2515 -0.4222  0.1345
  196MOL0     O26333   4.363  10.103  11.086 -0.6167  0.0208  0.0353
  196MOL0     C26334   4.457  10.132  11.191  1.0255 -0.1071  0.3579
  196MOL0     C26335   4.567  10.228  11.151 -0.7997  0.3730 -0.3526
  196MOL0     C26336   4.663  10.254  11.267  0.3699 -0.3064 -0.1610
  196MOL0     C26337   4.766  10.145  11.296 -0.2311  0.5925 -0.1544
  196MOL0     C26338   4.889  10.203  11.371 -0.6425  0.0896  0.0170
  196MOL0     C26339   5.004  10.104  11.380 -1.4386  0.4166  1.1163
  196MOL0     C26340   5.138  10.174  11.426 -0.3505  0.1112  0.8163
  196MOL0     C26341   5.247  10.058  11.418  0.1545 -0.6437 -0.4549
  196MOL0     N26342   5.363  10.065  11.504 -0.6751 -0.3308  0.4478
  196MOL0     C26343   5.495  10.052  11.464 -0.9309  0.4766 -0.0618
  196MOL0     C26344   5.563  10.029  11.575  0.0680  0.9706  0.9217
  196MOL0     C26345   5.710  10.020  11.593  1.0645  0.1706  0.1278
  196MOL0     C26346   5.783  10.150  11.569 -0.7458  0.4576  0.5158
  196MOL0     C26347   5.922  10.131  11.617  0.0702 -0.5600 -0.0049
  196MOL0     C26348   5.944  10.157  11.770 -0.1327 -0.4641  0.3101
  196MOL0     O26349   6.086  10.162  11.809 -0.4750 -0.4529  0.3472
  196MOL0     C26350   6.156  10.047  11.814 -0.2516  0.2669 -0.4421
  196MOL0     C26351   6.270  10.047  11.738  0.0723 -0.9114 -0.5272
  196MOL0     C26352   6.355   9.935  11.737  1.0311  0.3518 -0.5282
  196MOL0     C26353   6.317   9.819  11.810  0.1444  0.1326  0.1473
  196MOL0     C26354   6.406   9.701  11.801 -0.1223 -0.3344  0.7028
  196MOL0     O26355   6.514   9.700  11.709 -0.1391  0.8162  1.0382
  196MOL0     C26356   6.604   9.597  11.715 -0.3018  0.0680  0.5710
  196MOL0     C26357   6.634   9.532  11.597  0.8812  1.1748 -0.8164
  196MOL0     C26358   6.730   9.437  11.586  0.2037 -0.1717  0.1031
  196MOL0     C26359   6.815   9.396  11.698 -0.4033 -0.6701 -0.0632
  196MOL0     O26360   6.922   9.310  11.671 -0.1662 -0.0117 -0.1950
  196MOL0     C26361   6.879   9.170  11.678 -0.0641  0.8199  0.5569
  196MOL0     C26362   6.788   9.117  11.569 -0.7220  0.6503  0.7130
  196MOL0     C26363   6.735   8.973  11.602 -0.6109 -0.5903  0.1284
  196MOL0     C26364   6.581   8.955  11.596 -0.0534 -0.4495  0.2315
  196MOL0     C26365   6.542   8.808  11.601 -0.2615  0.5244  0.3562
  196MOL0     C26366   6.395   8.787  11.633  0.4263  0.1191  0.5421
  196MOL0     C26367   6.347   8.638  11.623  0.6521 -0.4582  0.1816
  196MOL0     C26368   6.408   8.546  11.733  0.0653 -0.2930 -0.2151
  196MOL0    Cl26369   6.375   8.615  11.887 -0.1027  0.0043  0.0579
  196MOL0     C26370   6.800   9.470  11.816 -0.4266  0.1254 -0.1474
  196MOL0     C26371   6.687   9.559  11.823 -0.5295 -0.0947 -0.2932
  196MOL0     O26372   6.388   9.617  11.883  0.2451 -0.2085 -0.9628
  196MOL0     C26373   6.194   9.816  11.887  0.3471 -0.0013  0.9482
  196MOL0     C26374   6.120   9.933  11.891  0.0193 -0.1326  0.0660
  196MOL0     N26375   5.481  10.043  11.683  0.1293  0.5092 -0.7438
  196MOL0     N26376   5.359  10.065  11.642  0.1150  0.1551  0.1998
  196MOL0     C26377   4.217   9.912  11.092 -1.2884  0.3314 -0.3913
  196MOL0     C26378   4.209   9.773  11.082 -0.2238  1.0508  0.0564
  196MOL0     C26379   4.371   9.337  11.098  0.1354  0.3398  0.4663
  196MOL0     C26380   4.280   9.282  11.006 -0.0193 -0.2236 -0.5823
  196MOL0     C26381   4.255   9.152  10.996  0.6662  0.1290  0.0231
  196MOL0     C26382   4.321   9.055  11.080 -0.2711 -1.2152  0.4581
  196MOL0     O26383   4.319   8.917  11.067 -0.0156  0.3573 -0.1876
  196MOL0     C26384   4.261   8.852  10.951  0.0924  0.1359 -0.9439
  196MOL0     C26385   4.106   8.838  10.943  0.2627 -0.0639 -0.0662
  196MOL0     C26386   4.051   8.750  11.051  0.4667  0.8363 -0.0825
  196MOL0     C26387   3.909   8.707  11.028  0.3976 -0.1550 -0.4115
  196MOL0     C26388   3.821   8.832  11.023 -0.2521  0.5456  0.4806
  196MOL0     C26389   3.761   8.933  11.002  0.4108 -1.0418 -0.3957
  196MOL0     C26390   4.393   9.113  11.186 -0.1280 -0.0307 -1.5833
  196MOL0     C26391   4.439   9.252  11.191  0.1846  0.8438 -0.5919
  196MOL0     C26392   4.531   9.296  11.303 -0.0417 -1.1169 -0.3230
  196MOL0     H26393   4.529   9.723  10.967  2.6142  3.2406  2.4225
  196MOL0     H26394   4.548   9.938  10.994  0.7819 -0.8021  2.1369
  196MOL0     H26395   4.404  10.169  11.279 -0.5445  3.8967 -1.9972
  196MOL0     H26396   4.506  10.039  11.219 -0.2479 -0.7013  0.7058
  196MOL0     H26397   4.520  10.320  11.116  0.4212  0.0598 -3.0651
  196MOL0     H26398   4.623  10.184  11.067  0.6643  0.6033  0.4640
  196MOL0     H26399   4.601  10.272  11.356  0.9976  0.7150  0.0892
  196MOL0     H26400   4.705  10.350  11.234  2.8246 -1.2002  0.1405
  196MOL0     H26401   4.717  10.065  11.351 -1.6341  1.4555 -0.1109
  196MOL0     H26402   4.795  10.094  11.204 -0.5039 -2.5353  1.3816
  196MOL0     H26403   4.919  10.292  11.315 -0.9476  0.9239  1.1242
  196MOL0     H26404   4.871  10.234  11.475 -1.1574  1.0535 -0.3440
  196MOL0     H26405   4.976  10.021  11.446 -0.5009  0.7190  1.9200
  196MOL0     H26406   5.029  10.062  11.283  1.8785 -0.1268  2.0793
  196MOL0     H26407   5.123  10.205  11.530  1.4177 -1.0110  1.4544
  196MOL0     H26408   5.169  10.257  11.362  0.5590  0.2052  1.3562
  196MOL0     H26409   5.204   9.959  11.434  0.2690 -0.6793 -0.3601
  196MOL0     H26410   5.274  10.069  11.313  0.5260  0.9704 -0.2174
  196MOL0     H26411   5.533  10.059  11.362  0.0040  0.9207  0.3033
  196MOL0     H26412   5.724   9.992  11.697  0.6885  1.6076  0.5866
  196MOL0     H26413   5.746   9.931  11.541 -0.5088 -0.5632  0.2446
  196MOL0     H26414   5.794  10.187  11.466  4.2732  1.1021  1.0646
  196MOL0     H26415   5.736  10.237  11.616 -3.9504 -0.0088 -1.4984
  196MOL0     H26416   5.975  10.208  11.561  4.5648 -2.8474  0.6630
  196MOL0     H26417   5.968  10.041  11.577  2.0202  0.7328 -0.8224
  196MOL0     H26418   5.886  10.086  11.831 -0.7023  2.1213  3.0314
  196MOL0     H26419   5.911  10.256  11.803 -0.5432 -0.6776  0.5624
  196MOL0     H26420   6.296  10.130  11.672 -1.9287  0.9907  0.9151
  196MOL0     H26421   6.427   9.921  11.657  1.1768 -1.9520 -0.0755
  196MOL0     H26422   6.579   9.567  11.511 -2.9279  1.3339  1.4734
  196MOL0     H26423   6.728   9.385  11.490  0.7420  0.5992 -0.3372
  196MOL0     H26424   6.973   9.115  11.683 -0.1264  0.8117  2.4377
  196MOL0     H26425   6.843   9.146  11.779 -0.4223  1.5374  0.6061
  196MOL0     H26426   6.704   9.184  11.545 -3.1022 -1.0132  3.6926
  196MOL0     H26427   6.840   9.103  11.474  0.8190 -2.3419  1.8821
  196MOL0     H26428   6.777   8.888  11.548  1.9177 -1.2830  2.8887
  196MOL0     H26429   6.766   8.955  11.706  2.8349  0.1204 -0.6335
  196MOL0     H26430   6.536   9.000  11.507  0.5599  0.1705  0.2281
  196MOL0     H26431   6.541   9.012  11.680  0.4247 -1.6783  1.3394
  196MOL0     H26432   6.589   8.777  11.695 -2.1538 -2.1784  0.5366
  196MOL0     H26433   6.585   8.754  11.516  3.1067  1.7738  1.1071
  196MOL0     H26434   6.360   8.843  11.719  1.9541  0.3553  1.0489
  196MOL0     H26435   6.334   8.833  11.554 -1.1871  0.0466  1.7146
  196MOL0     H26436   6.367   8.591  11.526 -0.6049 -0.6672  0.0115
  196MOL0     H26437   6.239   8.626  11.621  0.7116 -0.9684 -0.7049
  196MOL0     H26438   6.360   8.451  11.712  1.4491 -1.1011  0.1849
  196MOL0     H26439   6.515   8.533  11.718  0.1915  1.8391 -1.5504
  196MOL0     H26440   6.861   9.447  11.903  2.2212  0.4239 -1.8288
  196MOL0     H26441   6.670   9.604  11.920 -1.8794 -0.8517 -0.1414
  196MOL0     H26442   6.160   9.725  11.936  0.1616 -0.8123 -0.6113
  196MOL0     H26443   6.024   9.938  11.942  1.3816  1.9189  2.7087
  196MOL0     H26444   4.133   9.962  11.138 -0.3311 -0.3455  2.2826
  196MOL0     H26445   4.121   9.718  11.116  1.0484 -0.8981  0.3753
  196MOL0     H26446   4.220   9.350  10.946 -0.8315  1.5977  2.0921
  196MOL0     H26447   4.177   9.104  10.938 -3.6554  1.8081  3.8126
  196MOL0     H26448   4.299   8.751  10.933  1.7028  1.1677 -4.2162
  196MOL0     H26449   4.301   8.906  10.865 -1.5663  0.0587 -1.8012
  196MOL0     H26450   4.081   8.801  10.843  0.4747 -0.6526  0.0975
  196MOL0     H26451   4.057   8.936  10.937 -0.1187 -0.2939 -0.9684
  196MOL0     H26452   4.066   8.798  11.148  5.0907 -2.0399  0.9544
  196MOL0     H26453   4.110   8.659  11.035  0.0474  0.5100  0.2400
  196MOL0     H26454   3.894   8.648  10.937  1.9725 -2.4326  0.7052
  196MOL0     H26455   3.870   8.650  11.113  0.6124  0.8268  0.3694
  196MOL0     H26456   3.709   9.024  10.982  1.8985  0.0869  0.6630
  196MOL0     H26457   4.427   9.040  11.260 -2.9813  1.3780  1.3906
  196MOL0     H26458   4.546   9.212  11.372 -2.1749 -1.4951 -0.2426
  196MOL0     H26459   4.621   9.334  11.254 -2.1313  0.1673 -3.4410
  196MOL0     H26460   4.496   9.374  11.370  1.0497 -0.4792 -0.4717
  197MOL0     O26461  10.934  11.101   6.487  0.6316  0.1341 -0.2619
  197MOL0     C26462  11.039  11.041   6.463 -0.7789  0.0502 -0.7293
  197MOL0     O26463  11.093  10.956   6.550 -0.7022 -0.2382  0.5149
  197MOL0     C26464  11.047  10.939   6.678 -1.2250  0.5057  0.0090
  197MOL0     C26465  11.146  10.944   6.778 -0.6447  0.4769  0.5715
  197MOL0     C26466  11.105  10.897   6.906  0.0742 -0.3685  0.4725
  197MOL0     C26467  10.984  10.830   6.935 -0.8823  1.1085 -0.2238
  197MOL0     O26468  10.974  10.802   7.071 -0.3551 -0.1379  0.1881
  197MOL0     C26469  10.854  10.740   7.123 -0.6925 -0.5372 -0.5702
  197MOL0     C26470  10.871  10.708   7.270 -1.4810 -0.9930  0.6187
  197MOL0     C26471  10.737  10.683   7.340  0.3600  0.7799 -0.5977
  197MOL0     C26472  10.754  10.650   7.493  0.5026  0.2593 -1.1247
  197MOL0     C26473  10.830  10.528   7.538 -0.0744  0.5868 -0.2960
  197MOL0     C26474  10.976  10.576   7.578 -0.4892  0.5501  0.3970
  197MOL0     C26475  11.077  10.466   7.537 -0.1944  0.0317  0.1963
  197MOL0     C26476  11.212  10.501   7.605 -0.3755  0.8194 -0.6077
  197MOL0     N26477  11.283  10.619   7.539  0.0378  0.0817 -0.3051
  197MOL0     C26478  11.317  10.614   7.404  0.2146 -0.3416 -0.6815
  197MOL0     C26479  11.389  10.729   7.394 -0.5767  0.1979 -0.0694
  197MOL0     C26480  11.456  10.769   7.268 -0.2463 -0.4299 -0.3603
  197MOL0     C26481  11.603  10.809   7.290  0.7773  0.5570 -0.5842
  197MOL0     C26482  11.687  10.679   7.307  1.0551 -0.3209  0.6169
  197MOL0     C26483  11.817  10.690   7.393 -0.0152  0.1436 -0.7388
  197MOL0     O26484  11.853  10.566   7.450  0.4081  0.1176  0.4214
  197MOL0     C26485  11.980  10.562   7.506  0.1519  0.2575 -0.2398
  197MOL0     C26486  12.021  10.610   7.627 -0.2656 -0.5923 -0.4235
  197MOL0     C26487  12.153  10.600   7.666 -0.4615  0.1635 -0.1727
  197MOL0     C26488  12.249  10.531   7.590 -0.1071  0.0656  0.8005
  197MOL0     C26489  12.384  10.506   7.638  0.5957  0.0089  0.2351
  197MOL0     O26490  12.403  10.557   7.765 -0.1062 -0.2780  0.8518
  197MOL0     C26491  12.516  10.532   7.839  0.2868  0.2297  0.0212
  197MOL0     C26492  12.644  10.511   7.790 -1.2466 -0.3843 -0.0196
  197MOL0     C26493  12.750  10.500   7.885  0.3170  0.4061  0.0030
  197MOL0     C26494  12.729  10.500   8.025  0.5214 -0.5790  0.3033
  197MOL0     O26495  12.823  10.516   8.125 -0.2160  0.0708  0.3234
  197MOL0     C26496  12.962  10.541   8.098 -0.0948  0.6368 -0.5749
  197MOL0     C26497  13.018  10.396   8.104 -0.2408  0.6720 -0.6244
  197MOL0     C26498  13.174  10.396   8.080 -0.0884 -0.0542 -0.7714
  197MOL0     C26499  13.207  10.344   7.941  0.5654  0.2279 -0.7896
  197MOL0     C26500  13.354  10.350   7.912 -0.6710  0.0071  0.4441
  197MOL0     C26501  13.431  10.241   7.994 -0.0777 -0.0399  0.3969
  197MOL0     C26502  13.575  10.225   7.955  0.2900 -0.1561  0.0344
  197MOL0     C26503  13.659  10.351   7.998  0.1187  0.1936  0.4097
  197MOL0    Cl26504  13.654  10.461   7.855  0.1703 -0.2135  0.1738
  197MOL0     C26505  12.604  10.512   8.062  0.4107  0.1574 -0.5365
  197MOL0     C26506  12.493  10.530   7.974  0.5362  0.6519 -0.5519
  197MOL0     O26507  12.460  10.438   7.577 -0.3851 -0.0043  0.4628
  197MOL0     C26508  12.209  10.485   7.465  0.3894 -0.3103 -0.6178
  197MOL0     C26509  12.078  10.500   7.426 -0.4934  0.0001  0.5259
  197MOL0     N26510  11.397  10.793   7.518 -0.0058  0.8525 -0.3364
  197MOL0     N26511  11.338  10.720   7.608 -0.0572  0.0498  0.4078
  197MOL0     C26512  10.885  10.829   6.832 -0.6180 -0.0269 -0.3925
  197MOL0     C26513  10.917  10.881   6.702 -0.3617 -0.7174  1.0839
  197MOL0     C26514  11.086  11.043   6.321 -0.5580  0.1023 -0.4717
  197MOL0     C26515  11.028  11.134   6.233 -0.4174  0.5061 -0.0512
  197MOL0     C26516  11.071  11.141   6.104 -0.9233  0.1995  0.1007
  197MOL0     C26517  11.180  11.069   6.048  0.4843 -0.8038  0.7021
  197MOL0     O26518  11.202  11.071   5.915  0.7781  0.1617 -0.0206
  197MOL0     C26519  11.329  11.094   5.867 -0.0134  0.0284  0.0006
  197MOL0     C26520  11.360  11.245   5.856 -0.0277 -0.2179  0.2763
  197MOL0     C26521  11.250  11.317   5.779  0.1448 -1.2064  0.2660
  197MOL0     C26522  11.271  11.471   5.779  0.3737 -0.4776  0.5754
  197MOL0     C26523  11.296  11.513   5.642 -0.8522  0.2961 -1.1511
  197MOL0     C26524  11.319  11.565   5.542 -1.5563  1.4382  0.8807
  197MOL0     C26525  11.253  10.998   6.143  0.0786  0.7557 -0.0581
  197MOL0     C26526  11.202  10.975   6.271 -0.7902 -0.0712 -0.3164
  197MOL0     C26527  11.290  10.888   6.365 -0.3272  0.0849 -0.2435
  197MOL0     H26528  11.249  10.974   6.761 -0.3426 -1.5348 -1.6086
  197MOL0     H26529  11.182  10.904   6.983 -0.3983  0.6081  0.8650
  197MOL0     H26530  10.776  10.816   7.115  0.6857  0.7487 -4.0965
  197MOL0     H26531  10.821  10.653   7.066 -0.7500 -0.9660  0.1175
  197MOL0     H26532  10.915  10.795   7.319 -1.0813 -0.7524 -0.1425
  197MOL0     H26533  10.950  10.633   7.274 -0.9911 -0.7548 -2.3881
  197MOL0     H26534  10.682  10.607   7.284 -1.4725  2.0398 -0.5756
  197MOL0     H26535  10.677  10.774   7.333  1.4233  1.5163 -0.4737
  197MOL0     H26536  10.804  10.727   7.552 -2.1080  0.1106  1.5170
  197MOL0     H26537  10.658  10.630   7.541  0.3419 -1.6153 -2.1356
  197MOL0     H26538  10.799  10.474   7.628 -2.0697  0.1153 -1.2190
  197MOL0     H26539  10.837  10.460   7.452  2.8642 -0.1283  0.3757
  197MOL0     H26540  11.004  10.669   7.529 -1.3314  0.7080  0.2007
  197MOL0     H26541  10.980  10.601   7.684  0.9463 -0.7042  0.6758
  197MOL0     H26542  11.090  10.467   7.429 -1.6975  0.8408  0.0066
  197MOL0     H26543  11.039  10.368   7.567 -0.9448 -0.3550 -1.9076
  197MOL0     H26544  11.194  10.522   7.711 -1.9337  0.1843 -0.7194
  197MOL0     H26545  11.279  10.416   7.589 -0.3456  0.4830  1.0311
  197MOL0     H26546  11.289  10.540   7.330 -1.2344 -3.7283  2.8850
  197MOL0     H26547  11.456  10.686   7.197  0.9981  2.3971 -4.0363
  197MOL0     H26548  11.399  10.850   7.220  0.2101 -0.4398 -0.9289
  197MOL0     H26549  11.649  10.873   7.214 -1.4906  2.7439 -0.2717
  197MOL0     H26550  11.599  10.865   7.383 -2.4345 -1.7672  0.8673
  197MOL0     H26551  11.706  10.636   7.208 -1.3257  0.1068 -0.0821
  197MOL0     H26552  11.621  10.606   7.355  0.2079 -0.3260 -0.5165
  197MOL0     H26553  11.796  10.768   7.467  0.6524 -1.1775  0.9132
  197MOL0     H26554  11.898  10.722   7.329  2.0215 -0.4545  1.3959
  197MOL0     H26555  11.936  10.649   7.683  1.0961  1.5968  0.2583
  197MOL0     H26556  12.169  10.651   7.760 -0.3751  0.7654 -0.5049
  197MOL0     H26557  12.677  10.495   7.687  2.8222 -1.4362  1.2531
  197MOL0     H26558  12.851  10.491   7.846  0.6997  2.7329  0.3158
  197MOL0     H26559  12.959  10.590   8.000 -5.1465 -0.3721 -1.1660
  197MOL0     H26560  13.009  10.610   8.170 -2.2650  0.0049  1.5516
  197MOL0     H26561  13.004  10.352   8.203  1.6787 -2.5956 -1.6173
  197MOL0     H26562  12.970  10.329   8.032 -0.6178 -0.0243  0.2516
  197MOL0     H26563  13.217  10.496   8.084  0.3821 -0.1856 -2.0166
  197MOL0     H26564  13.230  10.343   8.158  2.2486 -0.5825 -2.6721
  197MOL0     H26565  13.154  10.407   7.870  1.4007  1.7636 -0.1050
  197MOL0     H26566  13.169  10.242   7.932  0.1568  0.3143 -0.0568
  197MOL0     H26567  13.398  10.449   7.922  2.0014 -0.4319 -3.9678
  197MOL0     H26568  13.361  10.307   7.811 -0.3480  1.2210 -0.0629
  197MOL0     H26569  13.417  10.264   8.100  0.4366 -0.0411  0.4648
  197MOL0     H26570  13.382  10.145   7.977  0.1230  0.0768 -0.9530
  197MOL0     H26571  13.586  10.207   7.848  0.1469 -0.2272  0.0322
  197MOL0     H26572  13.600  10.137   8.016 -2.2673 -1.0975 -0.1332
  197MOL0     H26573  13.626  10.401   8.089 -4.3104  2.9531 -2.2914
  197MOL0     H26574  13.765  10.324   8.004 -0.6228 -3.1874  0.0941
  197MOL0     H26575  12.586  10.537   8.166 -2.6241 -0.9007 -0.7020
  197MOL0     H26576  12.391  10.530   8.011 -0.1916 -1.3831 -2.3044
  197MOL0     H26577  12.280  10.446   7.393  0.2583 -1.2227 -0.2706
  197MOL0     H26578  12.041  10.465   7.330 -1.8793 -4.8370  2.5237
  197MOL0     H26579  10.785  10.790   6.847 -0.9394  1.1069  0.6063
  197MOL0     H26580  10.836  10.872   6.631  0.2257 -0.1457  0.3207
  197MOL0     H26581  10.940  11.190   6.263 -0.8558  1.2354 -2.4897
  197MOL0     H26582  11.011  11.211   6.046 -1.3330  2.5472  3.0863
  197MOL0     H26583  11.325  11.052   5.767  0.6721  0.6618 -0.2998
  197MOL0     H26584  11.412  11.053   5.926  2.1203  0.2395 -2.6387
  197MOL0     H26585  11.450  11.265   5.796  0.3447 -2.3947  0.0124
  197MOL0     H26586  11.362  11.291   5.955 -1.0222  1.1551 -0.3194
  197MOL0     H26587  11.151  11.301   5.822 -0.1806 -1.2662 -0.5013
  197MOL0     H26588  11.247  11.281   5.676  1.1543 -1.5277  0.3400
  197MOL0     H26589  11.184  11.509   5.834 -0.5956 -0.3435 -1.0095
  197MOL0     H26590  11.362  11.498   5.834  2.3176  1.7551 -3.3136
  197MOL0     H26591  11.332  11.603   5.442 -1.8273 -0.2168  0.1899
  197MOL0     H26592  11.346  10.950   6.115 -0.4935 -1.0301  0.9095
  197MOL0     H26593  11.317  10.948   6.453 -2.8773 -0.2448  0.8506
  197MOL0     H26594  11.244  10.795   6.400 -0.8709  0.7359  0.8014
  197MOL0     H26595  11.373  10.850   6.305 -0.5671 -3.1901  1.2915
  198MOL0     O26596   1.711   4.565   8.995 -0.0765 -0.1691 -0.3029
  198MOL0     C26597   1.666   4.481   8.917  0.6788 -0.4251  0.5411
  198MOL0     O26598   1.739   4.386   8.843 -0.1274  0.9125 -0.2689
  198MOL0     C26599   1.873   4.393   8.836  0.2777 -0.0559  0.7407
  198MOL0     C26600   1.932   4.492   8.747  1.0453  0.3894 -0.6042
  198MOL0     C26601   2.069   4.492   8.724 -0.2519  0.8285  0.4871
  198MOL0     C26602   2.147   4.395   8.773 -0.0957  0.2453 -0.2581
  198MOL0     O26603   2.276   4.380   8.745 -0.4599 -1.1106 -0.1055
  198MOL0     C26604   2.364   4.487   8.716  0.6009  0.6542 -0.0680
  198MOL0     C26605   2.502   4.439   8.751 -0.3670  0.3458  0.7197
  198MOL0     C26606   2.605   4.548   8.717  0.6368  0.0310  0.1110
  198MOL0     C26607   2.742   4.495   8.674 -0.2164  0.0717  0.3267
  198MOL0     C26608   2.823   4.611   8.637 -0.1343 -0.5815  0.4721
  198MOL0     C26609   2.945   4.575   8.553  0.0662 -0.0469 -0.3744
  198MOL0     C26610   3.075   4.624   8.616 -0.5155  0.8000  0.1978
  198MOL0     C26611   3.194   4.552   8.549 -0.2186 -0.7549 -0.7460
  198MOL0     N26612   3.198   4.585   8.413  0.4508 -0.3607  1.2655
  198MOL0     C26613   3.214   4.706   8.360  0.3458  0.2125 -0.0393
  198MOL0     C26614   3.237   4.670   8.227  0.4563 -0.1484  1.0761
  198MOL0     C26615   3.263   4.772   8.123 -0.5936 -0.3083 -0.2282
  198MOL0     C26616   3.405   4.836   8.125 -0.5396  0.2853 -0.0921
  198MOL0     C26617   3.421   4.948   8.020 -0.2463 -0.8727  1.1681
  198MOL0     C26618   3.545   5.033   8.050  0.3264 -0.8922  0.5942
  198MOL0     O26619   3.662   4.956   8.063  0.5230 -0.0956  0.0507
  198MOL0     C26620   3.766   4.977   7.971  0.0490  0.2722 -0.1587
  198MOL0     C26621   3.756   5.034   7.848  0.6449 -0.6143  0.6004
  198MOL0     C26622   3.876   5.058   7.775 -0.6346  0.0801 -0.0803
  198MOL0     C26623   4.001   5.019   7.826  0.7839  0.0900  0.6427
  198MOL0     C26624   4.122   5.057   7.752  0.6127 -0.4416 -0.8924
  198MOL0     O26625   4.244   5.052   7.815 -0.0226 -0.0416 -0.6999
  198MOL0     C26626   4.350   5.124   7.768 -0.0068 -0.0827  0.4446
  198MOL0     C26627   4.476   5.079   7.818  0.3019  1.0795 -0.7429
  198MOL0     C26628   4.589   5.151   7.784  0.6158 -0.0862  0.1244
  198MOL0     C26629   4.587   5.249   7.687  0.2715 -1.0345  0.2486
  198MOL0     O26630   4.710   5.313   7.652 -0.2702 -1.1545  0.0012
  198MOL0     C26631   4.835   5.245   7.675 -0.3609 -0.3827 -0.3578
  198MOL0     C26632   4.943   5.329   7.625  0.3683  0.8150 -0.2080
  198MOL0     C26633   5.074   5.270   7.659 -0.1939  0.4823  0.5446
  198MOL0     C26634   5.180   5.342   7.573 -0.0479  0.6047  0.0234
  198MOL0     C26635   5.303   5.256   7.536  0.1636 -0.9758  0.1424
  198MOL0     C26636   5.409   5.334   7.478 -0.5686  0.2033  0.3425
  198MOL0     C26637   5.484   5.242   7.371  0.6707 -0.1631 -0.3015
  198MOL0     C26638   5.599   5.314   7.285 -0.9082  0.4102  0.1408
  198MOL0    Cl26639   5.746   5.348   7.368  0.1608  0.1174 -0.3715
  198MOL0     C26640   4.464   5.295   7.637 -0.2985 -0.1606 -0.8007
  198MOL0     C26641   4.350   5.234   7.679 -0.4011  0.4097  0.4916
  198MOL0     O26642   4.109   5.091   7.632  0.1487 -0.4670  0.3641
  198MOL0     C26643   4.002   4.954   7.935 -0.3638  1.1315 -1.2087
  198MOL0     C26644   3.891   4.939   8.025  0.1833 -0.2035 -0.4615
  198MOL0     N26645   3.204   4.538   8.197  0.3143  0.5629 -0.3781
  198MOL0     N26646   3.191   4.489   8.313  1.1834  0.5647 -0.5060
  198MOL0     C26647   2.093   4.305   8.868 -0.4940  0.1023 -0.0655
  198MOL0     C26648   1.955   4.295   8.888  0.0537  0.8726 -0.3186
  198MOL0     C26649   1.520   4.471   8.909  0.2954  0.4663  0.2907
  198MOL0     C26650   1.441   4.441   9.022 -0.1770  0.1988 -0.1282
  198MOL0     C26651   1.303   4.428   9.008  0.4427 -0.1673 -0.6392
  198MOL0     C26652   1.243   4.441   8.888  0.2776 -0.0683  1.0873
  198MOL0     O26653   1.108   4.415   8.889  0.3864  0.1895  0.2349
  198MOL0     C26654   1.067   4.297   8.826 -0.2576  0.1598 -0.2681
  198MOL0     C26655   0.998   4.219   8.938 -1.0300  0.3072  0.1298
  198MOL0     C26656   1.010   4.072   8.921 -0.8627 -0.1191 -0.4942
  198MOL0     C26657   0.949   4.002   9.043  0.5667  0.3589 -0.1070
  198MOL0     C26658   0.802   4.000   9.032 -0.3671  0.5504 -0.9951
  198MOL0     C26659   0.684   3.968   9.022  0.6187  0.3862 -0.8732
  198MOL0     C26660   1.318   4.472   8.772  0.0899 -0.0339  0.7904
  198MOL0     C26661   1.450   4.496   8.778  0.4883  0.7719 -0.2169
  198MOL0     C26662   1.532   4.538   8.656  0.7768 -0.6776 -0.3504
  198MOL0     H26663   1.861   4.559   8.699 -1.3394 -0.4793  1.4885
  198MOL0     H26664   2.103   4.559   8.645 -2.0723  0.1631 -0.9455
  198MOL0     H26665   2.344   4.513   8.612 -2.8881 -0.9566  0.0532
  198MOL0     H26666   2.332   4.573   8.776  1.9215  1.1500 -0.0263
  198MOL0     H26667   2.533   4.341   8.711 -0.1607  0.1599  1.3256
  198MOL0     H26668   2.510   4.429   8.860  0.0794  1.8743  0.8485
  198MOL0     H26669   2.616   4.625   8.794 -3.5381  2.4337 -1.3639
  198MOL0     H26670   2.564   4.606   8.634  0.2561  0.1402  0.3707
  198MOL0     H26671   2.800   4.451   8.756  4.1701 -0.0870 -2.5508
  198MOL0     H26672   2.731   4.415   8.600  1.9163  0.4025 -0.3881
  198MOL0     H26673   2.756   4.669   8.573 -3.4416 -2.2344  2.1894
  198MOL0     H26674   2.849   4.669   8.726  1.7900  1.2270 -1.1673
  198MOL0     H26675   2.959   4.467   8.545 -1.3790 -0.2815  0.0624
  198MOL0     H26676   2.946   4.614   8.450 -1.3412  0.6956 -0.1271
  198MOL0     H26677   3.064   4.602   8.723  0.5555  1.4383  0.4516
  198MOL0     H26678   3.084   4.731   8.595 -4.1568  0.6197 -3.4053
  198MOL0     H26679   3.286   4.592   8.593 -0.4391  1.1097 -1.8244
  198MOL0     H26680   3.178   4.447   8.571 -2.2196  0.1196  2.6521
  198MOL0     H26681   3.226   4.797   8.419 -2.1619  0.1231  0.7099
  198MOL0     H26682   3.256   4.732   8.022  2.1088  0.9783 -1.0196
  198MOL0     H26683   3.192   4.855   8.123 -1.5076 -0.9633 -3.5058
  198MOL0     H26684   3.416   4.885   8.222 -0.8753  0.1843  0.0008
  198MOL0     H26685   3.479   4.756   8.115 -0.5244  0.2764  0.0733
  198MOL0     H26686   3.329   5.006   8.018  0.2593 -0.0824  0.3006
  198MOL0     H26687   3.431   4.900   7.922 -1.0879 -0.7488  1.0194
  198MOL0     H26688   3.534   5.075   8.150  0.7193 -0.6408  0.5317
  198MOL0     H26689   3.551   5.117   7.980 -6.4287 -1.5750 -1.5736
  198MOL0     H26690   3.663   5.080   7.815 -0.8019  0.0329  5.0020
  198MOL0     H26691   3.886   5.119   7.686 -1.9437  2.8716  1.5471
  198MOL0     H26692   4.481   4.984   7.870 -0.8490 -0.5472 -3.4141
  198MOL0     H26693   4.682   5.116   7.826  1.1369 -0.0033 -0.9123
  198MOL0     H26694   4.849   5.228   7.783 -2.4940  0.9131  0.1812
  198MOL0     H26695   4.839   5.144   7.633 -1.6046  0.1247 -1.7638
  198MOL0     H26696   4.932   5.331   7.516 -2.1636 -1.0511 -0.0923
  198MOL0     H26697   4.934   5.433   7.656  0.0881  1.5537 -2.5237
  198MOL0     H26698   5.093   5.278   7.766  1.2195 -3.3575  0.7064
  198MOL0     H26699   5.053   5.167   7.628 -2.0159  0.4772  1.6645
  198MOL0     H26700   5.211   5.429   7.631 -1.4676  1.9503 -1.1048
  198MOL0     H26701   5.143   5.374   7.475 -0.8735 -1.4323 -0.3793
  198MOL0     H26702   5.271   5.175   7.471 -1.8479  0.3433 -0.5935
  198MOL0     H26703   5.345   5.196   7.618  1.8678 -0.9404 -0.6694
  198MOL0     H26704   5.374   5.414   7.412  0.0826 -2.8701 -4.2127
  198MOL0     H26705   5.485   5.374   7.546  0.0157  0.4173 -0.4199
  198MOL0     H26706   5.407   5.229   7.295  0.3407  0.9180 -0.1648
  198MOL0     H26707   5.525   5.151   7.417  7.0204  1.9413 -0.7605
  198MOL0     H26708   5.620   5.246   7.201  2.8924  2.8473 -1.1266
  198MOL0     H26709   5.551   5.407   7.253 -1.7767  0.7404  2.2389
  198MOL0     H26710   4.468   5.384   7.575  0.2024  0.7153  0.4585
  198MOL0     H26711   4.259   5.267   7.631 -1.3224 -0.8125  1.3353
  198MOL0     H26712   4.095   4.925   7.982 -0.9719 -0.2968 -0.8249
  198MOL0     H26713   3.897   4.896   8.125  2.0492 -0.7781 -0.7736
  198MOL0     H26714   2.154   4.230   8.917 -0.0072 -0.2730 -1.2054
  198MOL0     H26715   1.919   4.213   8.950 -1.7576  0.0766 -2.3278
  198MOL0     H26716   1.474   4.420   9.123 -1.5015  2.0585  0.7387
  198MOL0     H26717   1.245   4.419   9.099  0.2431  0.9860 -0.6308
  198MOL0     H26718   1.151   4.242   8.783 -1.5344 -2.1764  0.0525
  198MOL0     H26719   0.993   4.344   8.760 -0.1766  0.9536  0.1910
  198MOL0     H26720   0.895   4.252   8.922 -0.3094  1.9670 -1.3831
  198MOL0     H26721   1.037   4.236   9.039 -0.7802 -0.5309  0.1776
  198MOL0     H26722   1.118   4.058   8.929 -0.9460 -0.7843 -0.4524
  198MOL0     H26723   0.963   4.041   8.827 -5.0152  1.3520  0.8580
  198MOL0     H26724   1.003   3.907   9.049  0.5970  0.2987 -1.1648
  198MOL0     H26725   0.973   4.061   9.132 -3.4318 -0.2337  1.5633
  198MOL0     H26726   0.584   3.938   8.996 -0.1201  1.1347  0.8629
  198MOL0     H26727   1.268   4.488   8.677  0.5300  3.2570  1.0184
  198MOL0     H26728   1.475   4.548   8.563 -0.8994  0.0223  0.7226
  198MOL0     H26729   1.588   4.630   8.672 -0.2732  0.0216 -0.6617
  198MOL0     H26730   1.606   4.457   8.645  1.4906  0.0470 -1.1185
  199MOL0     O26731  11.081   9.860  11.011 -0.4723  0.0445  0.6001
  199MOL0     C26732  11.051   9.737  10.996 -0.2648 -0.1398  0.2609
  199MOL0     O26733  10.923   9.686  11.012 -0.2968  0.1333 -0.4298
  199MOL0     C26734  10.824   9.758  11.067 -0.5930 -0.8765  1.2728
  199MOL0     C26735  10.833   9.841  11.178 -0.0806 -0.3661 -0.6697
  199MOL0     C26736  10.724   9.894  11.240  0.2084 -0.0735 -0.4573
  199MOL0     C26737  10.598   9.880  11.180  1.1359 -0.4795  0.0482
  199MOL0     O26738  10.489   9.954  11.227  0.5662  0.3068 -0.5067
  199MOL0     C26739  10.477   9.970  11.369 -0.3896  0.6763 -0.7995
  199MOL0     C26740  10.332   9.932  11.409  0.6699 -1.1141 -0.7146
  199MOL0     C26741  10.243  10.049  11.369  0.4744  0.5413  0.1277
  199MOL0     C26742  10.105  10.028  11.441  0.4915 -0.9305  0.0562
  199MOL0     C26743  10.004  10.148  11.418  0.3644  0.3924 -0.6066
  199MOL0     C26744   9.967  10.157  11.270 -0.9749  0.1095 -0.0801
  199MOL0     C26745   9.853  10.251  11.254  0.7708  0.0644 -0.0470
  199MOL0     C26746   9.718  10.180  11.268  0.4178 -0.2486 -0.0997
  199MOL0     N26747   9.596  10.258  11.290 -0.1349  0.1920 -0.0281
  199MOL0     C26748   9.513  10.307  11.199  0.2527  0.1414  0.3892
  199MOL0     C26749   9.407  10.369  11.260 -0.1469 -0.5279 -1.2370
  199MOL0     C26750   9.296  10.438  11.197 -0.0094  0.5910 -0.5096
  199MOL0     C26751   9.183  10.451  11.306 -0.6754  0.0375  0.7788
  199MOL0     C26752   9.074  10.538  11.252 -1.1435 -0.0948  0.8080
  199MOL0     C26753   8.959  10.535  11.350  0.4973 -0.3768  0.0750
  199MOL0     O26754   8.855  10.610  11.288  0.0837 -0.1782  0.4407
  199MOL0     C26755   8.740  10.635  11.358  0.0310  0.4676 -0.1111
  199MOL0     C26756   8.623  10.654  11.292  0.4612 -0.8779  0.8454
  199MOL0     C26757   8.499  10.650  11.346  1.2508  0.3677 -0.9961
  199MOL0     C26758   8.479  10.614  11.489 -1.0404 -0.1620  0.8037
  199MOL0     C26759   8.343  10.623  11.553  0.3414 -0.7618 -0.0292
  199MOL0     O26760   8.344  10.586  11.689  0.3826  0.2557 -0.1896
  199MOL0     C26761   8.228  10.592  11.755  0.2931  0.1038  0.1990
  199MOL0     C26762   8.182  10.708  11.808 -0.0686 -0.4366  0.4377
  199MOL0     C26763   8.057  10.729  11.859  0.1708 -0.0288 -1.2239
  199MOL0     C26764   7.979  10.618  11.889  1.1098  0.0855  0.4105
  199MOL0     O26765   7.859  10.659  11.949 -0.1942  0.4887 -0.0208
  199MOL0     C26766   7.776  10.551  11.996  0.2718 -0.5502 -0.4480
  199MOL0     C26767   7.628  10.587  12.021 -0.1386 -0.6760  0.4789
  199MOL0     C26768   7.538  10.463  12.054  0.9230 -0.2920 -0.4794
  199MOL0     C26769   7.383  10.500  12.090  0.2736 -0.3476  0.5772
  199MOL0     C26770   7.319  10.384  12.168 -0.1396  0.5508 -0.0818
  199MOL0     C26771   7.168  10.384  12.197  1.0228 -0.2911 -0.4396
  199MOL0     C26772   7.136  10.503  12.288 -1.1197 -0.2326 -0.2481
  199MOL0     C26773   7.002  10.467  12.351  0.7940 -0.4519  0.2085
  199MOL0    Cl26774   7.025  10.356  12.482  0.2344  0.2328  0.0438
  199MOL0     C26775   8.036  10.487  11.875  0.4664 -0.1044 -0.1952
  199MOL0     C26776   8.154  10.478  11.803  0.6919 -0.0676 -0.2705
  199MOL0     O26777   8.245  10.651  11.481  0.4734  0.0347  1.1410
  199MOL0     C26778   8.593  10.608  11.563  0.0426  0.8713  0.3685
  199MOL0     C26779   8.722  10.607  11.502 -0.0659 -0.7971  0.0843
  199MOL0     N26780   9.444  10.371  11.396 -0.3259 -0.0206  0.3116
  199MOL0     N26781   9.548  10.299  11.411 -0.3552  0.1422 -0.7293
  199MOL0     C26782  10.583   9.805  11.059  0.4942  0.1258  0.7931
  199MOL0     C26783  10.699   9.740  11.009  0.5979  1.0634  0.2011
  199MOL0     C26784  11.159   9.652  10.935  0.8494  0.2561  0.6258
  199MOL0     C26785  11.297   9.672  10.972  0.3465  0.0828  0.5452
  199MOL0     C26786  11.395   9.591  10.908  0.2657 -0.5763 -0.1557
  199MOL0     C26787  11.366   9.503  10.807  0.0265 -0.4201  0.2633
  199MOL0     O26788  11.459   9.428  10.747  0.2862 -0.2135 -0.3191
  199MOL0     C26789  11.588   9.483  10.720 -0.5886 -0.1670 -0.6555
  199MOL0     C26790  11.624   9.431  10.581 -0.5616  0.0855  0.1887
  199MOL0     C26791  11.752   9.502  10.524  1.2646  0.6834  0.4602
  199MOL0     C26792  11.786   9.454  10.377 -0.0523  0.2983  1.4333
  199MOL0     C26793  11.780   9.307  10.365 -0.1050 -0.0117  0.1529
  199MOL0     C26794  11.786   9.183  10.354  0.3871  0.8709  0.1977
  199MOL0     C26795  11.233   9.479  10.768 -0.6052 -0.7893 -0.4556
  199MOL0     C26796  11.125   9.551  10.833 -0.6644  0.8811 -0.0688
  199MOL0     C26797  10.984   9.514  10.786 -0.3470  0.0495  0.4364
  199MOL0     H26798  10.921   9.842  11.241  0.5081 -1.2508 -1.4559
  199MOL0     H26799  10.736   9.945  11.335 -0.0364 -1.6255  0.4263
  199MOL0     H26800  10.547   9.900  11.415  0.5369  1.7286 -0.5849
  199MOL0     H26801  10.509  10.070  11.400  0.4590 -0.5231  2.6619
  199MOL0     H26802  10.334   9.920  11.518 -1.5981  1.7695 -0.2361
  199MOL0     H26803  10.305   9.837  11.363 -1.3281  0.0519 -2.0887
  199MOL0     H26804  10.227  10.064  11.262  1.2253  1.5352  0.1461
  199MOL0     H26805  10.290  10.141  11.403 -2.4597  1.2749  2.6997
  199MOL0     H26806  10.049   9.943  11.400  2.4446 -0.7431 -3.4055
  199MOL0     H26807  10.128  10.013  11.547  1.6652 -5.3294 -0.6025
  199MOL0     H26808   9.915  10.129  11.478 -0.5775  0.6751 -1.8935
  199MOL0     H26809  10.062  10.236  11.448  0.9298  0.1172 -0.8798
  199MOL0     H26810  10.047  10.193  11.205 -0.7920  1.5245  0.8708
  199MOL0     H26811   9.943  10.054  11.241 -3.4108 -0.3545  3.0407
  199MOL0     H26812   9.843  10.283  11.150 -0.0594  1.9121  0.5563
  199MOL0     H26813   9.861  10.338  11.320 -0.7875 -0.8156  1.4000
  199MOL0     H26814   9.706  10.130  11.171 -0.4580  0.6479 -0.4708
  199MOL0     H26815   9.724  10.111  11.353  2.0760  3.6923  3.3296
  199MOL0     H26816   9.524  10.304  11.091 -0.0380  2.1371  0.2590
  199MOL0     H26817   9.335  10.533  11.157  2.6633 -0.5370 -0.8255
  199MOL0     H26818   9.268  10.382  11.107  2.2604 -0.6477 -0.5108
  199MOL0     H26819   9.150  10.348  11.319 -3.5511  0.7537 -0.2703
  199MOL0     H26820   9.215  10.501  11.398 -4.2998  0.3182  2.0222
  199MOL0     H26821   9.037  10.513  11.152 -2.5962 -1.3766  1.6265
  199MOL0     H26822   9.112  10.641  11.250 -0.6615 -0.2664 -1.2131
  199MOL0     H26823   8.982  10.586  11.444 -2.9588 -0.0777  0.8915
  199MOL0     H26824   8.918  10.435  11.364 -1.8272  0.2628 -1.5908
  199MOL0     H26825   8.616  10.679  11.186 -2.5810 -2.7107  0.4783
  199MOL0     H26826   8.416  10.680  11.282  1.6856  3.0256 -0.4335
  199MOL0     H26827   8.243  10.797  11.794 -0.0786 -0.1973  1.8165
  199MOL0     H26828   8.013  10.826  11.878 -2.0743 -1.3570  0.8990
  199MOL0     H26829   7.787  10.464  11.930  0.4925 -0.5451 -0.4171
  199MOL0     H26830   7.804  10.518  12.097 -1.4505 -1.1266 -0.1191
  199MOL0     H26831   7.617  10.654  12.108  1.9349  0.0051  0.2788
  199MOL0     H26832   7.601  10.644  11.932  3.1320 -0.2120 -0.3431
  199MOL0     H26833   7.538  10.405  11.961  3.0217 -2.2189  0.6065
  199MOL0     H26834   7.592  10.408  12.132  1.7023  0.2236 -0.6456
  199MOL0     H26835   7.325  10.532  12.003  0.3607  0.9837  0.9845
  199MOL0     H26836   7.392  10.589  12.154 -0.7868 -0.5231  0.9857
  199MOL0     H26837   7.378  10.357  12.255  1.0405  1.1766 -0.6629
  199MOL0     H26838   7.335  10.295  12.107  0.9365  0.3437  0.4850
  199MOL0     H26839   7.113  10.402  12.104  1.2034 -1.1790 -0.7338
  199MOL0     H26840   7.145  10.286  12.238  0.9298 -0.3659 -0.6657
  199MOL0     H26841   7.133  10.594  12.227 -1.7914  0.0995  0.2623
  199MOL0     H26842   7.207  10.508  12.372  2.1563 -0.3835 -2.7904
  199MOL0     H26843   6.968  10.562  12.393 -0.2631 -0.4725 -0.5712
  199MOL0     H26844   6.926  10.436  12.279 -1.6490  3.8098  0.5704
  199MOL0     H26845   7.996  10.395  11.914 -3.7345  3.2714  4.6714
  199MOL0     H26846   8.195  10.380  11.781  0.4232 -0.8126  2.2529
  199MOL0     H26847   8.584  10.589  11.670 -3.2786  2.7218  0.5569
  199MOL0     H26848   8.812  10.611  11.564  1.0047  0.9387 -1.4714
  199MOL0     H26849  10.495   9.812  10.995  2.9537 -0.3541 -3.0009
  199MOL0     H26850  10.691   9.663  10.933 -0.9015  0.8251  0.5768
  199MOL0     H26851  11.319   9.738  11.055  1.5049 -0.5231  0.7426
  199MOL0     H26852  11.491   9.613  10.955 -0.5362 -0.6046  1.5847
  199MOL0     H26853  11.647   9.455  10.808 -0.4839  3.2508  0.5213
  199MOL0     H26854  11.592   9.592  10.716  0.9345 -0.1201  0.8347
  199MOL0     H26855  11.537   9.447  10.516  0.3159 -1.2389 -1.4042
  199MOL0     H26856  11.638   9.323  10.598  0.7042 -0.1813 -2.0841
  199MOL0     H26857  11.843   9.476  10.580  3.1564 -3.2514 -3.8184
  199MOL0     H26858  11.731   9.609  10.513 -1.8339  0.3226  1.7588
  199MOL0     H26859  11.725   9.508  10.304  0.6675  1.6887  1.8227
  199MOL0     H26860  11.889   9.487  10.362  0.2568 -1.9383 -2.8541
  199MOL0     H26861  11.791   9.083  10.318  1.8093  1.0845 -0.2323
  199MOL0     H26862  11.202   9.410  10.689 -0.2869  0.0427 -1.3345
  199MOL0     H26863  11.006   9.461  10.693  2.5663  0.3020  0.8648
  199MOL0     H26864  10.928   9.443  10.847 -1.0123 -0.4402 -0.7170
  199MOL0     H26865  10.913   9.595  10.767  0.2663  0.9774  1.9147
  200MOL0     O26866   8.453   0.572   0.165  0.9085 -0.1124 -0.6178
  200MOL0     C26867   8.376   0.584   0.253 -0.1342  0.3405 -1.1299
  200MOL0     O26868   8.399   0.615   0.381  0.5066  0.3831  0.1239
  200MOL0     C26869   8.525   0.634   0.412 -0.7041  0.2505 -0.5550
  200MOL0     C26870   8.604   0.744   0.374 -0.3408 -0.9099  0.8746
  200MOL0     C26871   8.736   0.760   0.436  0.7686 -0.2297  0.3108
  200MOL0     C26872   8.777   0.665   0.533  0.7226 -1.4298 -0.3319
  200MOL0     O26873   8.888   0.666   0.602 -0.2050  1.0478 -0.1507
  200MOL0     C26874   9.003   0.746   0.557 -0.4038 -1.1326  1.2272
  200MOL0     C26875   9.121   0.704   0.649  0.3454  0.1229  0.1461
  200MOL0     C26876   9.098   0.731   0.800  0.7776 -1.0201 -0.4374
  200MOL0     C26877   9.100   0.877   0.840  0.2589 -0.4136 -0.4312
  200MOL0     C26878   9.041   0.904   0.988  0.2062 -1.3424  0.8982
  200MOL0     C26879   8.916   0.994   0.995 -1.1879  0.4663  0.0166
  200MOL0     C26880   8.874   1.030   1.135 -1.1067  0.7185  0.3810
  200MOL0     C26881   8.794   1.157   1.125  0.5367 -0.0798 -0.0242
  200MOL0     N26882   8.855   1.290   1.138 -0.7338  0.4499 -0.3355
  200MOL0     C26883   8.885   1.347   1.263  0.0004  0.0653  0.5766
  200MOL0     C26884   8.966   1.447   1.228  0.1919 -1.0618  0.3555
  200MOL0     C26885   9.032   1.536   1.332  0.6067 -1.5096  0.3194
  200MOL0     C26886   9.107   1.649   1.262 -0.1182 -0.6673  0.9315
  200MOL0     C26887   9.160   1.746   1.360  0.0152 -0.1294  0.3001
  200MOL0     C26888   9.184   1.870   1.281  0.5290 -0.6756 -0.2287
  200MOL0     O26889   9.246   1.974   1.358  0.3721 -0.2363 -0.5048
  200MOL0     C26890   9.204   2.108   1.349 -0.1031 -0.0178  0.2670
  200MOL0     C26891   9.265   2.190   1.441 -0.6121 -0.3951  0.7204
  200MOL0     C26892   9.232   2.320   1.448 -0.0080  0.2189 -0.5559
  200MOL0     C26893   9.133   2.375   1.360  0.4790  0.2136  0.0690
  200MOL0     C26894   9.086   2.518   1.370  0.1675 -0.6050  0.1742
  200MOL0     O26895   9.178   2.609   1.421 -0.4150 -0.1164  0.0086
  200MOL0     C26896   9.150   2.737   1.453 -0.3158  0.0743 -0.0295
  200MOL0     C26897   9.027   2.809   1.439  0.0966 -0.4461 -0.7453
  200MOL0     C26898   9.023   2.943   1.481  0.4206  0.2816  0.6614
  200MOL0     C26899   9.122   3.002   1.558  0.2099 -0.2509 -0.2860
  200MOL0     O26900   9.119   3.124   1.618  0.4375 -0.5387 -0.1316
  200MOL0     C26901   8.994   3.172   1.646  0.6238 -0.1673 -0.4698
  200MOL0     C26902   9.008   3.273   1.766  0.0761 -0.5635  0.1310
  200MOL0     C26903   8.986   3.220   1.896  0.4055  0.2003  0.1460
  200MOL0     C26904   8.958   3.334   2.004  0.0663  0.0118 -0.1602
  200MOL0     C26905   8.955   3.300   2.151 -0.9334 -0.4700 -0.3271
  200MOL0     C26906   9.046   3.390   2.242 -0.6963 -0.6282  0.2798
  200MOL0     C26907   9.011   3.391   2.383  0.6805  0.2581 -0.8704
  200MOL0     C26908   9.087   3.494   2.460  0.7661  0.0831  0.3286
  200MOL0    Cl26909   9.051   3.457   2.632 -0.1599  0.0859 -0.3502
  200MOL0     C26910   9.234   2.930   1.579 -0.5058  0.2753  0.4569
  200MOL0     C26911   9.249   2.806   1.526 -0.2683  0.3107  0.3921
  200MOL0     O26912   8.965   2.539   1.354 -0.1440  0.2886 -0.4286
  200MOL0     C26913   9.091   2.294   1.254 -0.0480 -0.0285  0.9606
  200MOL0     C26914   9.122   2.160   1.244 -0.1996  0.3501 -0.6769
  200MOL0     N26915   8.982   1.450   1.093  0.4851  0.3965 -0.1473
  200MOL0     N26916   8.913   1.351   1.035 -0.4707  0.3528 -0.2675
  200MOL0     C26917   8.689   0.564   0.573  0.1784 -0.3483 -0.0996
  200MOL0     C26918   8.573   0.547   0.506  0.0080  0.7937  0.4859
  200MOL0     C26919   8.237   0.546   0.225  0.6668  0.7389  0.5259
  200MOL0     C26920   8.164   0.461   0.316  0.4483  0.2114  0.0218
  200MOL0     C26921   8.038   0.410   0.284 -0.8349 -0.1676  0.0447
  200MOL0     C26922   7.983   0.436   0.158  0.4963  0.3447 -0.0937
  200MOL0     O26923   7.857   0.409   0.114 -0.0636  0.1025 -0.2094
  200MOL0     C26924   7.770   0.324   0.194  0.3031  0.0321  0.1662
  200MOL0     C26925   7.825   0.184   0.171 -0.8068  1.1208  0.2282
  200MOL0     C26926   7.730   0.077   0.224 -0.4531  0.2119 -0.1154
  200MOL0     C26927   7.724   0.072   0.374  0.0673 -0.5034  0.3234
  200MOL0     C26928   7.618  -0.019   0.420  0.0048  0.0283  0.3206
  200MOL0     C26929   7.528  -0.082   0.477  0.2584  0.3547 -0.2357
  200MOL0     C26930   8.043   0.531   0.079 -0.6553 -0.5385  1.4275
  200MOL0     C26931   8.170   0.588   0.108  0.1180 -0.2214 -0.2605
  200MOL0     C26932   8.236   0.685   0.017  0.5326 -0.3881 -0.8633
  200MOL0     H26933   8.565   0.817   0.304  3.4816  2.5395  1.9713
  200MOL0     H26934   8.799   0.838   0.395 -3.6238  3.2669 -0.6118
  200MOL0     H26935   9.039   0.727   0.456 -3.8360  1.0636 -0.6199
  200MOL0     H26936   8.987   0.854   0.551 -1.1858 -1.3188 -0.9344
  200MOL0     H26937   9.223   0.742   0.635  1.3543 -1.4427  2.5404
  200MOL0     H26938   9.119   0.595   0.636 -1.8613  0.0979  0.3194
  200MOL0     H26939   9.177   0.675   0.851  0.9081 -2.0646 -1.7500
  200MOL0     H26940   9.002   0.686   0.830 -0.1095  1.6616  1.0504
  200MOL0     H26941   9.203   0.912   0.833 -0.6065  2.0400 -2.3434
  200MOL0     H26942   9.041   0.933   0.767  1.5600 -0.2474 -1.3856
  200MOL0     H26943   9.025   0.808   1.037  0.4898 -1.2694  1.1370
  200MOL0     H26944   9.121   0.957   1.041 -1.0047  2.9135 -1.0594
  200MOL0     H26945   8.952   1.084   0.944 -0.8891  2.0632  2.8613
  200MOL0     H26946   8.831   0.959   0.935 -0.9183 -2.0955  1.0115
  200MOL0     H26947   8.961   1.041   1.201  0.8528  0.4727 -2.0326
  200MOL0     H26948   8.816   0.951   1.184  0.9598 -0.6455  0.7761
  200MOL0     H26949   8.730   1.162   1.037  2.4960 -0.0083 -1.5354
  200MOL0     H26950   8.717   1.149   1.202 -0.2983  0.9575 -0.7253
  200MOL0     H26951   8.845   1.319   1.360 -3.2327  0.1665 -0.6107
  200MOL0     H26952   8.955   1.566   1.404 -1.0306 -1.5033 -1.3638
  200MOL0     H26953   9.099   1.471   1.388  0.7667 -0.0262  1.9241
  200MOL0     H26954   9.187   1.622   1.192  1.4070  0.5590  2.1459
  200MOL0     H26955   9.031   1.700   1.202  1.0966  0.4323  0.2749
  200MOL0     H26956   9.247   1.717   1.421  0.5748 -0.0536 -0.4432
  200MOL0     H26957   9.079   1.773   1.428 -0.3256 -0.1917 -0.0827
  200MOL0     H26958   9.084   1.902   1.249  0.7003  1.4819  1.1695
  200MOL0     H26959   9.249   1.846   1.196  0.1082 -0.8130 -0.5157
  200MOL0     H26960   9.330   2.144   1.514 -0.8725 -0.5797  0.8380
  200MOL0     H26961   9.269   2.382   1.529 -1.9647 -0.8858  1.2799
  200MOL0     H26962   8.937   2.770   1.393 -0.8249  2.0733 -1.2447
  200MOL0     H26963   8.926   2.988   1.462  1.2427  1.5266 -0.8551
  200MOL0     H26964   8.941   3.222   1.564  0.4354 -0.5858 -0.6074
  200MOL0     H26965   8.927   3.094   1.684  0.9522 -0.6947 -0.9653
  200MOL0     H26966   9.106   3.321   1.766 -0.5032  0.6953 -0.7081
  200MOL0     H26967   8.923   3.338   1.740 -1.1387 -1.3338  1.9831
  200MOL0     H26968   8.902   3.150   1.883 -0.0998  1.0418 -1.3367
  200MOL0     H26969   9.079   3.169   1.923  0.0855 -0.4204  0.1119
  200MOL0     H26970   8.868   3.395   1.993  0.0733  0.8118  3.1081
  200MOL0     H26971   9.026   3.419   1.987 -1.1028  1.3650  1.5695
  200MOL0     H26972   8.995   3.198   2.149  0.6378  0.1198 -1.4884
  200MOL0     H26973   8.853   3.293   2.189  0.2005  0.1361  3.2369
  200MOL0     H26974   9.150   3.367   2.216 -0.5164  1.4059 -1.0614
  200MOL0     H26975   9.033   3.494   2.212  0.8214 -0.7590 -1.0009
  200MOL0     H26976   9.032   3.289   2.419 -0.5946 -0.6842 -2.6285
  200MOL0     H26977   8.909   3.421   2.409  1.6587  2.0049  1.3530
  200MOL0     H26978   9.192   3.478   2.434  0.1580 -2.7486 -0.7512
  200MOL0     H26979   9.058   3.595   2.428 -0.8000 -0.6305 -0.6030
  200MOL0     H26980   9.323   2.956   1.636 -1.8326  2.0790  1.8122
  200MOL0     H26981   9.338   2.753   1.557 -1.0815  0.8623  4.2802
  200MOL0     H26982   9.031   2.325   1.169  0.5829 -2.3794 -0.4567
  200MOL0     H26983   9.078   2.105   1.161 -2.1610 -4.0153  2.7955
  200MOL0     H26984   8.722   0.492   0.647 -1.6803 -2.3452 -1.0853
  200MOL0     H26985   8.508   0.461   0.518 -0.7384  1.6536  3.1463
  200MOL0     H26986   8.213   0.427   0.407  0.8044 -0.0648 -0.2739
  200MOL0     H26987   7.978   0.352   0.353  0.5193 -1.8565 -0.1063
  200MOL0     H26988   7.666   0.337   0.163 -0.5615  1.2201  3.2113
  200MOL0     H26989   7.777   0.357   0.298  3.2153  0.8100 -0.1695
  200MOL0     H26990   7.923   0.171   0.220 -0.7979  1.8430  0.4130
  200MOL0     H26991   7.844   0.166   0.065 -4.2567  1.7118 -0.5903
  200MOL0     H26992   7.756  -0.020   0.182 -0.4879  0.5757 -0.9886
  200MOL0     H26993   7.630   0.111   0.196 -1.1762 -0.2627  1.7249
  200MOL0     H26994   7.817   0.036   0.417  0.2707  0.6062  0.8516
  200MOL0     H26995   7.704   0.171   0.416  3.9725 -0.0722  1.5719
  200MOL0     H26996   7.444  -0.141   0.508  0.4213  0.7049  0.8934
  200MOL0     H26997   7.993   0.563  -0.013  1.2261 -0.7181  0.2888
  200MOL0     H26998   8.291   0.768   0.063  3.3738 -1.2307 -2.5000
  200MOL0     H26999   8.305   0.636  -0.052  1.3071 -0.4601 -0.0543
  200MOL0     H27000   8.152   0.725  -0.039  0.0610 -2.2731 -1.5794
  201MOL0     O27001   6.918   2.706   6.197  0.6622 -0.1695 -0.0279
  201MOL0     C27002   6.868   2.615   6.138  0.5355 -0.1733  0.5333
  201MOL0     O27003   6.753   2.565   6.161  0.2297 -0.2617 -0.3177
  201MOL0     C27004   6.677   2.586   6.273  0.0064  0.6125 -0.4117
  201MOL0     C27005   6.722   2.628   6.403 -0.4176 -0.6256  0.0815
  201MOL0     C27006   6.626   2.677   6.488  0.5624  0.0481  0.0055
  201MOL0     C27007   6.485   2.656   6.460 -0.1375  0.0124 -0.4415
  201MOL0     O27008   6.394   2.702   6.558  0.0075  1.0644 -0.4745
  201MOL0     C27009   6.262   2.646   6.572  0.3729 -0.5179  0.2747
  201MOL0     C27010   6.158   2.683   6.468  0.7662 -0.3992  0.9714
  201MOL0     C27011   6.025   2.728   6.527 -0.3199  0.1238 -0.1484
  201MOL0     C27012   5.934   2.747   6.411  0.7450  0.8248  0.9146
  201MOL0     C27013   5.810   2.820   6.468 -0.1792  0.3332 -0.6327
  201MOL0     C27014   5.686   2.801   6.377  0.8188  0.0519  0.6639
  201MOL0     C27015   5.547   2.780   6.447 -0.7170  0.4063  0.1967
  201MOL0     C27016   5.534   2.642   6.515  0.7674 -0.8899  0.0643
  201MOL0     N27017   5.556   2.536   6.421  0.1129 -0.1271 -0.4669
  201MOL0     C27018   5.474   2.505   6.317 -0.0442 -0.5248  0.7265
  201MOL0     C27019   5.501   2.377   6.279 -0.5168  0.1085  0.8805
  201MOL0     C27020   5.437   2.294   6.167 -0.0485  0.3407 -0.1947
  201MOL0     C27021   5.291   2.290   6.207 -0.5857  0.0665  0.1651
  201MOL0     C27022   5.214   2.259   6.074  0.2035  0.3388 -0.2987
  201MOL0     C27023   5.067   2.253   6.098  0.8788 -0.2531 -0.5310
  201MOL0     O27024   5.000   2.210   5.977  0.3798 -0.7661 -0.7702
  201MOL0     C27025   4.955   2.079   5.977  0.4762  0.9181  0.0222
  201MOL0     C27026   4.835   2.056   5.909  0.1860  0.2887 -0.0008
  201MOL0     C27027   4.783   1.926   5.884  0.1517 -0.1787  0.2562
  201MOL0     C27028   4.837   1.818   5.959  0.6453 -0.1731 -0.2239
  201MOL0     C27029   4.774   1.683   5.939  0.5264 -0.6320  0.4852
  201MOL0     O27030   4.829   1.591   6.012  0.2123  0.1548  0.3217
  201MOL0     C27031   4.752   1.483   6.038 -0.1537  0.4086  0.3809
  201MOL0     C27032   4.630   1.475   6.111  0.8264  0.4315 -0.2416
  201MOL0     C27033   4.564   1.352   6.129 -0.2065 -0.2801  0.2864
  201MOL0     C27034   4.631   1.237   6.103  0.5496  0.9586  0.4506
  201MOL0     O27035   4.582   1.111   6.131  0.3835  0.9239  0.2538
  201MOL0     C27036   4.494   1.092   6.237  0.6570 -0.0192 -0.1406
  201MOL0     C27037   4.359   1.086   6.184 -0.2676  0.4749 -0.5070
  201MOL0     C27038   4.260   1.053   6.291 -0.4940  0.1218 -0.2413
  201MOL0     C27039   4.223   1.174   6.375 -0.3654  0.1153  0.0834
  201MOL0     C27040   4.104   1.144   6.474  0.3239 -0.0053 -0.7202
  201MOL0     C27041   4.145   1.053   6.587 -1.1939 -0.2155 -0.0941
  201MOL0     C27042   4.053   0.923   6.585  0.2898 -0.3383 -0.0605
  201MOL0     C27043   4.065   0.845   6.716  0.0656  0.2261 -0.6024
  201MOL0    Cl27044   3.966   0.694   6.686  0.4338  0.0237 -0.5086
  201MOL0     C27045   4.760   1.242   6.042  0.6652  0.2843  0.8138
  201MOL0     C27046   4.813   1.365   6.010 -0.1650  1.2797  0.3735
  201MOL0     O27047   4.669   1.667   5.873 -0.3385  0.2387  0.0318
  201MOL0     C27048   4.953   1.837   6.033 -0.2463  0.3103  0.7559
  201MOL0     C27049   5.010   1.969   6.049 -0.0352  0.1964  0.3684
  201MOL0     N27050   5.599   2.332   6.365  0.0009 -0.5423 -0.9679
  201MOL0     N27051   5.633   2.426   6.442 -0.1442  0.4749  0.3353
  201MOL0     C27052   6.448   2.589   6.343 -0.1787  0.6985 -0.6224
  201MOL0     C27053   6.549   2.548   6.257  0.8250 -0.5717 -0.0893
  201MOL0     C27054   6.943   2.570   6.011 -0.5830 -0.2654  0.0607
  201MOL0     C27055   6.877   2.548   5.887  1.0106 -0.3055 -0.2260
  201MOL0     C27056   6.930   2.507   5.765 -0.4003  0.1009 -0.1500
  201MOL0     C27057   7.070   2.485   5.759  0.7858 -0.2483 -0.6776
  201MOL0     O27058   7.141   2.448   5.652  0.2427 -0.2215 -0.4169
  201MOL0     C27059   7.077   2.429   5.525 -0.2967  1.1619  0.2387
  201MOL0     C27060   7.194   2.376   5.435  0.0750  0.4426 -0.4029
  201MOL0     C27061   7.272   2.490   5.369  0.7143 -0.0788 -0.3529
  201MOL0     C27062   7.343   2.437   5.247 -0.8629 -0.1433  0.4220
  201MOL0     C27063   7.408   2.559   5.197  0.2858  0.1243 -0.7009
  201MOL0     C27064   7.438   2.667   5.148 -0.7006  0.4769  0.2819
  201MOL0     C27065   7.148   2.508   5.878 -0.1031 -0.0479 -0.1417
  201MOL0     C27066   7.091   2.553   5.997  0.7680  0.1177  0.1298
  201MOL0     C27067   7.186   2.570   6.114  0.0282 -0.2067  0.0836
  201MOL0     H27068   6.824   2.662   6.420 -0.5677  0.4068 -0.9206
  201MOL0     H27069   6.651   2.733   6.578 -2.7151  3.7522 -1.0960
  201MOL0     H27070   6.272   2.537   6.568  0.6120 -0.4891  0.0442
  201MOL0     H27071   6.237   2.674   6.675  3.3959  0.3817  0.8701
  201MOL0     H27072   6.132   2.599   6.402 -3.7154  1.6783 -0.2793
  201MOL0     H27073   6.206   2.764   6.411  0.1131  0.5262  1.7030
  201MOL0     H27074   6.045   2.821   6.580 -1.3332  0.8360 -0.9672
  201MOL0     H27075   5.986   2.651   6.594 -0.5248 -0.6394 -1.1129
  201MOL0     H27076   5.972   2.788   6.318  1.1491 -1.1870  0.1483
  201MOL0     H27077   5.894   2.653   6.371 -0.4513  2.4626 -2.0509
  201MOL0     H27078   5.777   2.770   6.560 -2.2082  0.6470 -1.1527
  201MOL0     H27079   5.825   2.927   6.486 -1.6963  0.5639 -0.6625
  201MOL0     H27080   5.685   2.891   6.315 -0.6967 -1.6715 -2.0298
  201MOL0     H27081   5.699   2.720   6.304 -0.5525  2.2501 -2.2502
  201MOL0     H27082   5.460   2.793   6.382 -0.1703  1.2454 -0.3776
  201MOL0     H27083   5.546   2.855   6.527  0.5953  0.3720  0.2546
  201MOL0     H27084   5.621   2.637   6.580  2.6019  1.1365 -2.0702
  201MOL0     H27085   5.442   2.626   6.573 -0.2797  3.1549 -0.1940
  201MOL0     H27086   5.388   2.558   6.277 -0.2953 -1.8921 -0.6378
  201MOL0     H27087   5.455   2.342   6.071 -0.1065  2.5682  0.8532
  201MOL0     H27088   5.483   2.195   6.177 -0.8649  0.2072  3.5228
  201MOL0     H27089   5.280   2.204   6.274  3.2952 -2.3264 -1.9135
  201MOL0     H27090   5.255   2.386   6.246 -0.4020  0.4297 -0.5492
  201MOL0     H27091   5.256   2.165   6.037  0.4674 -0.0051  0.8446
  201MOL0     H27092   5.244   2.335   6.000 -0.8750 -0.3752 -1.4996
  201MOL0     H27093   5.033   2.352   6.131  0.6069  0.2094 -2.1389
  201MOL0     H27094   5.042   2.180   6.175  1.6975 -2.7659 -2.5246
  201MOL0     H27095   4.803   2.152   5.871  1.1612 -0.5962 -3.4240
  201MOL0     H27096   4.714   1.898   5.806  1.3488  0.3035 -1.0328
  201MOL0     H27097   4.584   1.571   6.129  0.8686 -0.0250  2.7704
  201MOL0     H27098   4.467   1.351   6.177 -0.9762  0.5406 -1.1887
  201MOL0     H27099   4.500   0.996   6.291 -1.6040  0.6662  1.4970
  201MOL0     H27100   4.505   1.174   6.308  0.8419  1.4070 -1.7650
  201MOL0     H27101   4.324   1.179   6.139 -1.4659 -1.2506 -3.4235
  201MOL0     H27102   4.364   1.009   6.106  0.0500 -0.0774  0.0490
  201MOL0     H27103   4.177   1.004   6.239 -2.1204  2.3673  0.0554
  201MOL0     H27104   4.294   0.970   6.353  1.3822 -0.8451 -2.4323
  201MOL0     H27105   4.180   1.248   6.307 -1.0827 -0.2820  0.0940
  201MOL0     H27106   4.311   1.207   6.431 -2.4809  2.7413  2.1113
  201MOL0     H27107   4.018   1.114   6.414 -1.3185  1.8493  0.5862
  201MOL0     H27108   4.070   1.237   6.520  0.9751  0.8274 -1.8597
  201MOL0     H27109   4.251   1.032   6.570 -1.7870 -2.3777 -1.4993
  201MOL0     H27110   4.125   1.106   6.680 -0.6995 -2.3563  1.3220
  201MOL0     H27111   4.084   0.859   6.502  2.6060 -0.3222  0.7212
  201MOL0     H27112   3.950   0.952   6.563  0.5547  0.4497 -0.3083
  201MOL0     H27113   4.170   0.826   6.736 -0.6215 -0.1900  3.3565
  201MOL0     H27114   4.024   0.904   6.799  0.1025  1.9346 -1.7420
  201MOL0     H27115   4.821   1.155   6.026  1.5253  0.9095  0.6340
  201MOL0     H27116   4.912   1.357   5.967  0.0497 -2.0453  1.1640
  201MOL0     H27117   4.998   1.756   6.089  0.2394  0.3124  0.3812
  201MOL0     H27118   5.098   1.982   6.111 -2.1412 -1.3643  4.0303
  201MOL0     H27119   6.347   2.553   6.328 -0.7097  1.0182  1.7209
  201MOL0     H27120   6.525   2.487   6.170 -1.4748 -1.3377  1.0055
  201MOL0     H27121   6.769   2.557   5.893  0.7336 -2.6131 -0.5218
  201MOL0     H27122   6.865   2.490   5.679 -0.9441  0.6841  0.1462
  201MOL0     H27123   7.048   2.530   5.493  1.9649  2.0531  0.8108
  201MOL0     H27124   6.992   2.360   5.522 -0.8066  1.6878  1.6704
  201MOL0     H27125   7.152   2.304   5.364  0.8612  0.4215 -0.8535
  201MOL0     H27126   7.265   2.328   5.502 -1.8899 -0.8837  0.8172
  201MOL0     H27127   7.345   2.516   5.446  0.6691 -0.3005 -0.2355
  201MOL0     H27128   7.208   2.578   5.355  0.2994 -0.4727 -1.0410
  201MOL0     H27129   7.429   2.376   5.273 -0.4446  1.3078  2.7719
  201MOL0     H27130   7.280   2.401   5.166 -2.4550  2.4477  0.3939
  201MOL0     H27131   7.454   2.761   5.098  0.5313 -0.7441 -1.7901
  201MOL0     H27132   7.257   2.504   5.872 -0.0619 -0.3453  0.6058
  201MOL0     H27133   7.289   2.547   6.089  1.2816  1.5354  3.0803
  201MOL0     H27134   7.198   2.671   6.155  0.5311 -0.4435  0.5193
  201MOL0     H27135   7.150   2.511   6.199  0.1427  1.6945  1.5268
  202MOL0     O27136   9.921  11.177   7.481  0.0219 -0.6830 -0.0727
  202MOL0     C27137   9.899  11.103   7.579 -0.4319  0.0888 -0.0410
  202MOL0     O27138   9.963  11.111   7.694 -0.0951 -0.4204  0.2608
  202MOL0     C27139  10.045  11.212   7.725 -0.4789  0.2215  0.2210
  202MOL0     C27140  10.026  11.267   7.852 -0.6678 -0.3355 -0.2513
  202MOL0     C27141  10.124  11.352   7.910  0.2469 -0.3264  0.5746
  202MOL0     C27142  10.242  11.379   7.840 -0.5549 -0.7444  0.0917
  202MOL0     O27143  10.336  11.469   7.881  0.2742 -0.1346 -0.0686
  202MOL0     C27144  10.383  11.452   8.015  0.5273  0.0361 -0.4572
  202MOL0     C27145  10.475  11.339   8.023 -0.2391  0.5459  0.1598
  202MOL0     C27146  10.571  11.353   8.149 -0.2524 -0.2276  0.3374
  202MOL0     C27147  10.691  11.269   8.121  0.3909  0.1837 -0.4768
  202MOL0     C27148  10.785  11.226   8.233 -0.1941  0.1502 -1.0234
  202MOL0     C27149  10.917  11.153   8.184  0.1652  0.0217  0.3024
  202MOL0     C27150  11.026  11.148   8.287 -0.9003  0.5823  0.5205
  202MOL0     C27151  11.151  11.096   8.216  0.0702 -0.0759 -0.0072
  202MOL0     N27152  11.262  11.047   8.303  0.0252  0.8319 -0.3068
  202MOL0     C27153  11.271  10.918   8.343 -0.4604 -0.1102 -0.1510
  202MOL0     C27154  11.413  10.905   8.360 -0.3508  0.2622  0.8522
  202MOL0     C27155  11.472  10.771   8.390  0.4904 -0.5569  0.0455
  202MOL0     C27156  11.632  10.770   8.405 -0.3800  0.6615  0.3398
  202MOL0     C27157  11.707  10.786   8.274 -0.0065 -0.4603 -0.5254
  202MOL0     C27158  11.690  10.664   8.180  0.3014 -0.8533 -0.3307
  202MOL0     O27159  11.774  10.675   8.064  0.2293 -0.7001 -0.2518
  202MOL0     C27160  11.740  10.597   7.961  0.4750 -0.3402  0.0536
  202MOL0     C27161  11.685  10.657   7.847  0.9291  0.1817  0.2092
  202MOL0     C27162  11.647  10.570   7.741  0.4214  0.0248  0.7618
  202MOL0     C27163  11.677  10.434   7.745 -0.3602  0.4051 -0.6663
  202MOL0     C27164  11.649  10.346   7.633  0.4725  0.1494  0.3150
  202MOL0     O27165  11.571  10.394   7.538 -0.7989 -0.5417  0.1918
  202MOL0     C27166  11.532  10.308   7.441  0.0657  0.3806 -0.7342
  202MOL0     C27167  11.428  10.220   7.465  0.4777  0.4413 -0.2635
  202MOL0     C27168  11.393  10.122   7.373 -0.0329  0.5689 -1.4165
  202MOL0     C27169  11.474  10.101   7.256  0.3037 -0.5209 -0.5986
  202MOL0     O27170  11.447  10.006   7.162  0.2032 -0.5156  0.6992
  202MOL0     C27171  11.353   9.910   7.180  0.0293 -0.0595  0.2468
  202MOL0     C27172  11.260   9.895   7.051 -1.2072 -0.0673 -0.1301
  202MOL0     C27173  11.162   9.781   7.070  0.2165 -0.1546  0.1786
  202MOL0     C27174  11.061   9.781   6.949  0.4739 -0.5959  0.4075
  202MOL0     C27175  10.953   9.671   6.980 -0.7368  0.6804 -0.5998
  202MOL0     C27176  10.996   9.529   6.933 -0.6831  0.2387 -0.2493
  202MOL0     C27177  10.899   9.409   6.947 -0.0473 -0.7124 -0.2483
  202MOL0     C27178  10.961   9.277   6.884 -0.2814 -0.7140  0.4192
  202MOL0    Cl27179  11.078   9.230   7.014  0.1242 -0.1256  0.0982
  202MOL0     C27180  11.580  10.189   7.236 -0.2409 -0.4715  1.1622
  202MOL0     C27181  11.607  10.295   7.330 -0.6674 -0.9414 -0.1397
  202MOL0     O27182  11.701  10.234   7.632 -0.2252  0.0809 -0.3852
  202MOL0     C27183  11.737  10.383   7.858  0.2162  1.2676  0.2672
  202MOL0     C27184  11.761  10.459   7.968 -0.6077  0.5268 -0.2110
  202MOL0     N27185  11.478  11.020   8.337 -0.4156 -0.6099  0.5862
  202MOL0     N27186  11.388  11.106   8.317 -0.4340  0.5265  0.0235
  202MOL0     C27187  10.261  11.333   7.705 -0.0583 -0.2661 -0.0246
  202MOL0     C27188  10.161  11.246   7.654  0.1030 -0.1054  0.4196
  202MOL0     C27189   9.822  10.982   7.540 -0.4553 -1.1545 -0.5549
  202MOL0     C27190   9.812  10.952   7.401  0.4624 -0.6391  0.1766
  202MOL0     C27191   9.754  10.839   7.355  1.2749 -0.5910  0.5642
  202MOL0     C27192   9.687  10.758   7.453 -0.3351 -0.7145  0.6546
  202MOL0     O27193   9.626  10.637   7.424 -0.1156  0.6333 -0.1227
  202MOL0     C27194   9.594  10.578   7.290 -0.2003  0.1398  0.3025
  202MOL0     C27195   9.476  10.654   7.244  0.4256 -0.3226  0.7577
  202MOL0     C27196   9.352  10.566   7.262  0.3890  0.0503 -0.3542
  202MOL0     C27197   9.226  10.643   7.211  0.4775 -0.8379 -0.3972
  202MOL0     C27198   9.114  10.552   7.215  0.0546  0.4766  0.7234
  202MOL0     C27199   9.013  10.501   7.182 -0.4007 -0.2181  0.2478
  202MOL0     C27200   9.684  10.795   7.585 -0.5645 -0.0024  0.2148
  202MOL0     C27201   9.758  10.904   7.635  0.3584 -0.2849  0.8063
  202MOL0     C27202   9.760  10.917   7.786 -0.6276  0.8043 -0.4200
  202MOL0     H27203   9.936  11.254   7.912 -0.0507  2.0672  1.3040
  202MOL0     H27204  10.095  11.383   8.010  0.6259  0.1609  0.5317
  202MOL0     H27205  10.443  11.540   8.040  1.2415 -0.9768  1.5540
  202MOL0     H27206  10.298  11.449   8.083  0.5227  0.1170 -0.4596
  202MOL0     H27207  10.534  11.343   7.931  1.4830  0.7550  1.2224
  202MOL0     H27208  10.420  11.245   8.032  2.0458 -0.6648  3.6649
  202MOL0     H27209  10.531  11.321   8.246 -0.8073 -2.7293 -0.6213
  202MOL0     H27210  10.592  11.460   8.151 -4.4728  0.7667  1.2268
  202MOL0     H27211  10.660  11.188   8.054 -0.1894  1.4937 -1.8470
  202MOL0     H27212  10.756  11.332   8.059 -1.0535  0.5247 -1.6995
  202MOL0     H27213  10.806  11.313   8.296  2.0486 -1.0623  0.0327
  202MOL0     H27214  10.742  11.167   8.314  0.0650  0.8938 -0.3201
  202MOL0     H27215  10.896  11.051   8.148 -0.9698 -0.0229  1.0759
  202MOL0     H27216  10.951  11.201   8.091  0.0007 -0.6047 -0.0932
  202MOL0     H27217  10.988  11.091   8.373 -1.9075 -1.5019 -1.1826
  202MOL0     H27218  11.055  11.241   8.336  2.0227  1.0602 -1.7935
  202MOL0     H27219  11.123  11.023   8.139 -0.9274 -1.5945  1.7283
  202MOL0     H27220  11.194  11.181   8.163 -1.0218 -0.2029 -1.1662
  202MOL0     H27221  11.197  10.839   8.336 -1.2036  0.6694 -1.5007
  202MOL0     H27222  11.440  10.735   8.488  2.3099 -1.8000  0.2338
  202MOL0     H27223  11.454  10.696   8.313 -0.9868 -2.5558  2.2365
  202MOL0     H27224  11.661  10.859   8.461 -0.3419  1.3298 -0.7122
  202MOL0     H27225  11.659  10.679   8.460  0.7424  0.8611  0.1322
  202MOL0     H27226  11.812  10.809   8.291  0.3599  0.7033 -3.7977
  202MOL0     H27227  11.671  10.877   8.224 -0.0985  0.8909  1.8251
  202MOL0     H27228  11.586  10.652   8.147 -0.0685  0.8137  0.1405
  202MOL0     H27229  11.732  10.576   8.230  0.6697 -0.4945 -0.0064
  202MOL0     H27230  11.661  10.762   7.832  2.6222  0.4769 -0.5903
  202MOL0     H27231  11.591  10.604   7.655  1.8534 -1.6739 -0.9227
  202MOL0     H27232  11.375  10.231   7.559  0.0390  2.9902 -0.7409
  202MOL0     H27233  11.299  10.071   7.393  1.9605 -3.6769 -1.6652
  202MOL0     H27234  11.405   9.815   7.178  0.1704  0.0309 -0.7692
  202MOL0     H27235  11.279   9.912   7.260 -2.5809  2.8231 -1.9865
  202MOL0     H27236  11.216   9.994   7.037  0.3980  0.8407  1.0004
  202MOL0     H27237  11.316   9.864   6.962  1.7575  1.9972  0.8550
  202MOL0     H27238  11.228   9.693   7.065  1.5156  0.8609 -3.1476
  202MOL0     H27239  11.113   9.787   7.168 -1.1619 -1.5764 -0.3818
  202MOL0     H27240  11.112   9.766   6.853 -1.8060 -1.0729 -0.7997
  202MOL0     H27241  11.004   9.874   6.951 -0.6823 -1.2852  0.9908
  202MOL0     H27242  10.860   9.696   6.929 -0.4058 -1.4580 -2.4281
  202MOL0     H27243  10.933   9.661   7.088 -0.4553 -2.1823 -0.7373
  202MOL0     H27244  11.030   9.536   6.829 -0.5094  0.4491 -0.1789
  202MOL0     H27245  11.079   9.505   7.000 -0.5855  3.5840  1.0364
  202MOL0     H27246  10.809   9.424   6.887 -0.5526 -0.2390  0.5982
  202MOL0     H27247  10.866   9.402   7.051  2.2514  0.6002  0.6561
  202MOL0     H27248  10.880   9.204   6.892 -1.5344  0.8118  2.7839
  202MOL0     H27249  10.997   9.283   6.780 -0.3124  1.6051  0.5090
  202MOL0     H27250  11.651  10.181   7.154 -0.3248 -0.2431  1.0670
  202MOL0     H27251  11.695  10.358   7.324 -1.0111 -0.1514  2.0318
  202MOL0     H27252  11.765  10.278   7.852 -1.3830  0.8711 -0.9969
  202MOL0     H27253  11.794  10.412   8.060 -0.2182  1.6533  0.2501
  202MOL0     H27254  10.359  11.347   7.660  0.1688 -2.0492 -0.1680
  202MOL0     H27255  10.180  11.193   7.561 -0.1844  1.6567 -0.7003
  202MOL0     H27256   9.860  11.007   7.321  1.9811  0.4763  1.7848
  202MOL0     H27257   9.751  10.821   7.248  1.9899 -2.7574  0.8676
  202MOL0     H27258   9.577  10.470   7.295 -0.3550  0.2191  1.8141
  202MOL0     H27259   9.677  10.600   7.222  2.3549 -0.3185  3.0956
  202MOL0     H27260   9.480  10.677   7.137  2.0022 -2.2041  0.3608
  202MOL0     H27261   9.464  10.756   7.280  0.4284  0.4850 -1.3536
  202MOL0     H27262   9.336  10.551   7.369 -0.9532  1.7168 -0.2766
  202MOL0     H27263   9.368  10.472   7.207 -2.5654  2.0010 -5.3077
  202MOL0     H27264   9.204  10.730   7.273  1.4281 -1.7475  1.3176
  202MOL0     H27265   9.244  10.683   7.111  2.5861 -1.0603 -0.1635
  202MOL0     H27266   8.924  10.444   7.161  0.6738 -1.3692 -1.5073
  202MOL0     H27267   9.630  10.725   7.647 -1.3853  0.6131  0.2226
  202MOL0     H27268   9.824  10.997   7.823 -1.7099  1.3871  0.2516
  202MOL0     H27269   9.659  10.948   7.816  1.2155  6.0919  1.4637
  202MOL0     H27270   9.782  10.822   7.837  1.4004  0.5513 -1.6469
  203MOL0     O27271   1.577   3.140   9.472 -0.3316  0.8015 -0.0958
  203MOL0     C27272   1.596   3.025   9.425 -0.0858 -1.1928  0.3289
  203MOL0     O27273   1.711   2.951   9.399  0.3673 -1.1309  0.3525
  203MOL0     C27274   1.827   3.010   9.433  0.7671  0.7067 -0.1831
  203MOL0     C27275   1.881   2.992   9.559  0.7484  0.3574 -0.5539
  203MOL0     C27276   1.999   3.053   9.595 -0.3314 -0.2630 -0.0635
  203MOL0     C27277   2.074   3.138   9.503  0.4342 -0.2883  0.0276
  203MOL0     O27278   2.196   3.193   9.538 -0.0520 -0.1882  0.4080
  203MOL0     C27279   2.186   3.285   9.647  0.2360  0.2687 -0.2119
  203MOL0     C27280   2.300   3.391   9.659  0.3494  0.6114 -0.4336
  203MOL0     C27281   2.322   3.480   9.527  0.0352 -1.0631  0.0557
  203MOL0     C27282   2.472   3.502   9.505  0.5197  0.4020  0.3129
  203MOL0     C27283   2.498   3.624   9.418 -0.1938  0.3807 -0.3946
  203MOL0     C27284   2.456   3.755   9.484  1.0932  0.7898 -0.0363
  203MOL0     C27285   2.524   3.861   9.405 -0.0787 -0.2445  1.4295
  203MOL0     C27286   2.511   4.006   9.461 -0.6080  0.5076 -0.3171
  203MOL0     N27287   2.600   4.107   9.404  0.6575 -0.0583  0.4240
  203MOL0     C27288   2.605   4.130   9.261  0.5755 -0.0818 -1.1999
  203MOL0     C27289   2.685   4.245   9.249 -0.6687 -0.3315  0.1608
  203MOL0     C27290   2.718   4.317   9.125  0.3945  0.0638 -0.4447
  203MOL0     C27291   2.835   4.249   9.058 -0.1983 -0.4063 -0.7872
  203MOL0     C27292   2.971   4.274   9.127  0.3572  0.0659  0.0117
  203MOL0     C27293   3.039   4.396   9.065  0.3230 -1.8238 -0.0192
  203MOL0     O27294   3.130   4.454   9.169 -0.0090  0.4075 -0.2507
  203MOL0     C27295   3.236   4.384   9.212 -0.2961  0.2968  0.6511
  203MOL0     C27296   3.291   4.265   9.151 -0.1356  0.7147  0.2305
  203MOL0     C27297   3.407   4.205   9.220  0.0158 -0.0463  0.3549
  203MOL0     C27298   3.457   4.267   9.339 -0.3954 -0.1647  1.0710
  203MOL0     C27299   3.573   4.209   9.401 -0.3855  0.6962 -0.6788
  203MOL0     O27300   3.607   4.073   9.376  0.0396 -0.3932  0.0204
  203MOL0     C27301   3.708   4.019   9.460 -0.5419 -1.2435  0.4148
  203MOL0     C27302   3.835   3.972   9.410  0.3002  0.4636  0.5630
  203MOL0     C27303   3.934   3.934   9.506  0.3166 -0.7970 -0.4770
  203MOL0     C27304   3.897   3.903   9.638  0.2474 -0.4150  0.7524
  203MOL0     O27305   3.992   3.835   9.705 -0.4864 -0.2628 -0.6455
  203MOL0     C27306   3.975   3.805   9.837  0.4468 -0.8450 -0.6791
  203MOL0     C27307   4.092   3.724   9.896  0.4532 -0.2890  0.0393
  203MOL0     C27308   4.143   3.611   9.812  0.4959 -0.1700 -0.1210
  203MOL0     C27309   4.056   3.495   9.832  0.5750 -0.4124 -0.4421
  203MOL0     C27310   4.116   3.376   9.744 -0.0128 -0.3650  0.5925
  203MOL0     C27311   4.012   3.260   9.746 -0.1589 -0.0639 -0.4629
  203MOL0     C27312   3.995   3.173   9.629  0.0078  0.1983  0.6394
  203MOL0     C27313   4.117   3.088   9.608  0.0019 -0.1006 -0.2544
  203MOL0    Cl27314   4.101   2.972   9.484 -0.4270  0.1481 -0.4944
  203MOL0     C27315   3.768   3.926   9.677  0.2815 -0.3110 -0.3669
  203MOL0     C27316   3.673   3.990   9.597  0.1839  0.3618  0.6419
  203MOL0     O27317   3.651   4.285   9.468  0.1193  0.1112 -0.0265
  203MOL0     C27318   3.411   4.386   9.383 -0.0780 -0.6287  0.3735
  203MOL0     C27319   3.299   4.445   9.325  0.9649 -0.8969 -0.0221
  203MOL0     N27320   2.720   4.286   9.379 -1.2281  0.5229  0.2639
  203MOL0     N27321   2.670   4.203   9.470  1.4247  0.7965  0.0415
  203MOL0     C27322   2.016   3.161   9.376  0.0696  0.1861 -0.1730
  203MOL0     C27323   1.900   3.098   9.345 -0.3877  0.0551 -0.2998
  203MOL0     C27324   1.473   2.934   9.393 -0.3282 -0.2414  0.0109
  203MOL0     C27325   1.481   2.798   9.419  0.3187 -0.2441 -0.1776
  203MOL0     C27326   1.363   2.718   9.431  0.5063  0.6563 -0.4069
  203MOL0     C27327   1.239   2.770   9.394  0.2784 -0.0696  0.7504
  203MOL0     O27328   1.115   2.704   9.390  0.0141 -0.2351  0.2048
  203MOL0     C27329   1.115   2.566   9.378  0.4927 -0.4586 -0.3545
  203MOL0     C27330   0.979   2.515   9.353  0.9503  0.2175  0.7622
  203MOL0     C27331   0.914   2.569   9.229  0.6342 -0.4222  0.8712
  203MOL0     C27332   0.767   2.529   9.225  0.1803  0.5986  0.4439
  203MOL0     C27333   0.689   2.587   9.343 -0.1065  0.3596 -0.3465
  203MOL0     C27334   0.657   2.607   9.458 -1.4380  0.5945 -0.2125
  203MOL0     C27335   1.234   2.900   9.347 -0.1355 -0.1049  0.2811
  203MOL0     C27336   1.343   2.987   9.350 -0.5960 -0.4673  0.5890
  203MOL0     C27337   1.312   3.129   9.314 -0.6817  0.3433  0.1728
  203MOL0     H27338   1.817   2.943   9.632  2.7655 -0.3736  0.7840
  203MOL0     H27339   2.040   3.051   9.695 -2.8131  0.3973  1.0670
  203MOL0     H27340   2.088   3.333   9.648  0.6338  1.1341 -0.9945
  203MOL0     H27341   2.185   3.222   9.736  0.9949 -1.8528 -1.6107
  203MOL0     H27342   2.390   3.329   9.667 -1.3189 -2.0900 -1.3182
  203MOL0     H27343   2.287   3.454   9.748  0.6687  0.8638 -0.5656
  203MOL0     H27344   2.269   3.571   9.559 -4.4017 -3.4268  0.1855
  203MOL0     H27345   2.280   3.447   9.432 -0.2916  6.1646 -2.9903
  203MOL0     H27346   2.523   3.507   9.601 -1.2492 -1.2105  1.4083
  203MOL0     H27347   2.499   3.410   9.452 -3.3060 -0.0705 -1.1409
  203MOL0     H27348   2.604   3.636   9.396  0.0836  0.4222  0.9185
  203MOL0     H27349   2.439   3.607   9.327 -1.9307 -0.8074  0.8964
  203MOL0     H27350   2.347   3.766   9.488  0.9530  0.1351 -1.4150
  203MOL0     H27351   2.486   3.766   9.588  0.4237 -1.3615  0.4230
  203MOL0     H27352   2.486   3.861   9.303  2.7992  0.1945  0.2692
  203MOL0     H27353   2.629   3.833   9.404  0.6284  2.0732 -0.8830
  203MOL0     H27354   2.407   4.038   9.445 -1.2379 -1.3920 -0.2067
  203MOL0     H27355   2.535   3.998   9.567  0.8885 -1.8130 -0.7509
  203MOL0     H27356   2.553   4.075   9.183 -5.4053 -1.2254  2.8653
  203MOL0     H27357   2.636   4.309   9.053 -0.8716 -0.0365  0.9636
  203MOL0     H27358   2.732   4.423   9.148 -3.4664  0.4685  0.8321
  203MOL0     H27359   2.814   4.141   9.060 -1.2854 -0.2039  1.4221
  203MOL0     H27360   2.845   4.269   8.951  0.5952  3.4776 -0.1385
  203MOL0     H27361   3.037   4.188   9.117 -0.3440 -0.1797 -4.2072
  203MOL0     H27362   2.956   4.298   9.233  0.7146 -1.0204  0.3205
  203MOL0     H27363   2.950   4.451   9.034  0.1746 -3.0745 -2.0544
  203MOL0     H27364   3.093   4.373   8.972  2.0267  1.4219  0.0223
  203MOL0     H27365   3.259   4.205   9.066 -1.5955 -0.0619  1.2751
  203MOL0     H27366   3.448   4.116   9.173 -2.0032 -0.5574 -0.5739
  203MOL0     H27367   3.857   3.985   9.305 -0.1061 -1.7584  0.1600
  203MOL0     H27368   4.035   3.917   9.469  1.2373  1.5940  0.7437
  203MOL0     H27369   3.957   3.893   9.898 -3.1956  0.5870 -3.4422
  203MOL0     H27370   3.880   3.750   9.843 -0.6296  0.9738 -0.4950
  203MOL0     H27371   4.170   3.797   9.915  0.3510  0.7222 -2.9723
  203MOL0     H27372   4.047   3.691   9.990 -2.9614 -0.1123 -1.3798
  203MOL0     H27373   4.176   3.637   9.712 -2.8313 -0.9057 -1.5638
  203MOL0     H27374   4.236   3.591   9.866  0.7192 -0.2333 -0.5263
  203MOL0     H27375   3.955   3.519   9.796 -1.1202 -2.4690  2.4637
  203MOL0     H27376   4.037   3.466   9.936  1.7670  1.3744  0.3333
  203MOL0     H27377   4.212   3.348   9.788  1.2059 -1.4597 -2.4730
  203MOL0     H27378   4.124   3.414   9.641  2.1115 -0.9856  0.4879
  203MOL0     H27379   4.023   3.197   9.835  0.3288 -2.1262 -1.9431
  203MOL0     H27380   3.909   3.298   9.747 -1.0161 -2.2686  0.6106
  203MOL0     H27381   3.968   3.230   9.541  2.7116  0.0966 -0.3622
  203MOL0     H27382   3.920   3.097   9.655  2.3896 -1.6316  2.7402
  203MOL0     H27383   4.195   3.160   9.582 -2.8426  3.2083 -0.3209
  203MOL0     H27384   4.155   3.042   9.699  0.1491 -0.8489 -0.6822
  203MOL0     H27385   3.736   3.900   9.777  0.5944 -1.0239 -0.4459
  203MOL0     H27386   3.579   4.019   9.642  1.7228  0.0468  4.4885
  203MOL0     H27387   3.452   4.432   9.472 -2.2028  1.3941  0.4009
  203MOL0     H27388   3.255   4.531   9.374  0.3687 -2.2480  1.9088
  203MOL0     H27389   2.076   3.224   9.312  0.7757  0.0437  0.3316
  203MOL0     H27390   1.855   3.108   9.247 -0.2131 -1.8738 -0.6208
  203MOL0     H27391   1.573   2.764   9.464 -1.2813 -0.9888  2.7987
  203MOL0     H27392   1.365   2.615   9.465  0.3154  0.0049 -2.2698
  203MOL0     H27393   1.164   2.518   9.464  1.5822 -2.3056 -1.9317
  203MOL0     H27394   1.172   2.532   9.291  1.4398 -3.1369  1.1804
  203MOL0     H27395   0.923   2.538   9.445  0.3026  0.4996  0.3011
  203MOL0     H27396   0.987   2.406   9.344 -0.5229 -0.1233  2.7995
  203MOL0     H27397   0.965   2.527   9.141  0.6216 -0.9466  1.1112
  203MOL0     H27398   0.922   2.678   9.221  0.8241 -0.4205  1.0737
  203MOL0     H27399   0.719   2.565   9.134 -1.6213 -2.7529 -0.0723
  203MOL0     H27400   0.754   2.421   9.226 -0.5129  0.5289 -3.0511
  203MOL0     H27401   0.615   2.628   9.555  0.5426 -3.1463  1.6942
  203MOL0     H27402   1.142   2.950   9.317 -0.8675  1.0618  3.8819
  203MOL0     H27403   1.253   3.133   9.222 -0.0088 -0.6254 -0.3159
  203MOL0     H27404   1.264   3.184   9.395  2.3038  2.9487  0.3660
  203MOL0     H27405   1.412   3.170   9.294  0.4378 -2.1945  0.1776
  204MOL0     O27406   6.115  10.797  10.013  0.7204 -0.3205 -0.3257
  204MOL0     C27407   6.078  10.790   9.894 -0.5603  0.8121 -0.4973
  204MOL0     O27408   6.054  10.903   9.814 -0.1519  0.2496  0.4705
  204MOL0     C27409   6.067  11.031   9.844  0.0343 -0.1183 -0.7030
  204MOL0     C27410   6.156  11.078   9.938 -0.4866  0.2177  0.2738
  204MOL0     C27411   6.154  11.214   9.965  0.4965 -0.3335 -0.3077
  204MOL0     C27412   6.072  11.309   9.901 -1.2624 -0.0999  1.0280
  204MOL0     O27413   6.083  11.445   9.923 -0.2739 -0.4180 -0.2006
  204MOL0     C27414   6.209  11.513   9.927 -0.0018  0.4218 -0.3800
  204MOL0     C27415   6.196  11.649   9.860 -0.7427 -0.0594  0.5772
  204MOL0     C27416   6.159  11.651   9.701  0.3057 -0.1197  0.1909
  204MOL0     C27417   6.279  11.607   9.614 -0.6497  0.2073  0.0965
  204MOL0     C27418   6.398  11.704   9.588 -0.8363 -0.2784 -0.8955
  204MOL0     C27419   6.497  11.660   9.477 -0.8254 -0.5690  0.2122
  204MOL0     C27420   6.591  11.783   9.443  0.3458 -0.4139  0.4261
  204MOL0     C27421   6.665  11.759   9.312  0.1152  0.6011  0.2762
  204MOL0     N27422   6.778  11.670   9.328 -0.6753  0.0556  0.7346
  204MOL0     C27423   6.778  11.540   9.355 -0.5211 -0.0383  0.3135
  204MOL0     C27424   6.906  11.513   9.414  0.8032  0.8545 -0.8659
  204MOL0     C27425   6.960  11.398   9.492 -0.3199  0.2169 -0.2627
  204MOL0     C27426   7.100  11.372   9.465 -0.9864  0.2522  0.1060
  204MOL0     C27427   7.152  11.281   9.577  0.3365  0.4893 -0.8649
  204MOL0     C27428   7.274  11.208   9.545 -0.2048  0.2381 -0.6552
  204MOL0     O27429   7.371  11.283   9.472  0.1295 -0.3499  0.4466
  204MOL0     C27430   7.499  11.253   9.445  0.2172  0.5435 -0.6475
  204MOL0     C27431   7.573  11.158   9.514 -0.1170 -0.7657  0.8699
  204MOL0     C27432   7.708  11.131   9.478  0.3009 -0.2656 -0.1038
  204MOL0     C27433   7.765  11.196   9.365 -1.0674 -0.0107 -0.5934
  204MOL0     C27434   7.909  11.178   9.337 -1.1340  0.7862 -0.2248
  204MOL0     O27435   7.988  11.139   9.450 -0.1882 -0.9496  0.4985
  204MOL0     C27436   8.124  11.114   9.437 -0.2751  0.1738  1.0332
  204MOL0     C27437   8.187  11.043   9.537  0.2680 -0.0096 -0.5060
  204MOL0     C27438   8.328  11.028   9.544 -0.2006  0.4179 -0.1786
  204MOL0     C27439   8.411  11.066   9.448 -0.0547  0.1560  0.4970
  204MOL0     O27440   8.543  11.054   9.463 -0.2698 -0.1592 -0.6791
  204MOL0     C27441   8.636  11.028   9.352  0.4209  0.1097  0.1995
  204MOL0     C27442   8.765  10.959   9.396 -0.4326 -0.0569 -0.3474
  204MOL0     C27443   8.834  11.006   9.521 -0.5577 -0.7063 -0.1457
  204MOL0     C27444   8.856  11.160   9.510  0.6133  0.1196 -0.3887
  204MOL0     C27445   8.924  11.244   9.613 -0.6824 -0.2834 -0.0166
  204MOL0     C27446   8.841  11.301   9.731 -0.0459  0.1709  0.0878
  204MOL0     C27447   8.941  11.352   9.848  0.2331 -0.3927 -0.5718
  204MOL0     C27448   8.866  11.426   9.949  0.0378  0.2752  0.2579
  204MOL0    Cl27449   8.767  11.327  10.054 -0.0765  0.4127 -0.1217
  204MOL0     C27450   8.352  11.141   9.341  0.0416 -0.9494 -0.2131
  204MOL0     C27451   8.213  11.171   9.345  0.3169 -0.1706  0.9734
  204MOL0     O27452   7.950  11.191   9.217  0.4586 -0.0336 -0.0318
  204MOL0     C27453   7.691  11.298   9.298 -0.4836  0.2260 -0.2427
  204MOL0     C27454   7.553  11.324   9.343 -0.4210  0.3630 -0.4490
  204MOL0     N27455   6.982  11.624   9.401  0.1695  0.0902  0.1359
  204MOL0     N27456   6.899  11.715   9.364  0.5689 -0.3629  0.4282
  204MOL0     C27457   5.986  11.258   9.805  0.6734  0.5495  0.4478
  204MOL0     C27458   5.980  11.120   9.778  0.5464  0.3016  0.1634
  204MOL0     C27459   6.048  10.658   9.820  0.0140  0.6738 -0.6524
  204MOL0     C27460   5.997  10.659   9.688  0.2066 -0.6166 -0.0641
  204MOL0     C27461   5.976  10.549   9.615  0.4183 -0.4840  0.4249
  204MOL0     C27462   5.997  10.419   9.658 -1.0366  0.2231 -0.6409
  204MOL0     O27463   5.968  10.304   9.586 -0.0416  0.6925 -0.3925
  204MOL0     C27464   6.039  10.299   9.465  0.0241 -0.4646 -0.3641
  204MOL0     C27465   5.987  10.184   9.387  0.0359 -0.4229 -0.2876
  204MOL0     C27466   6.085  10.120   9.290 -0.1535  0.1762  0.6881
  204MOL0     C27467   6.107  10.203   9.171 -0.2013  0.8482 -0.1699
  204MOL0     C27468   6.201  10.314   9.171  1.0208 -0.4990 -0.1582
  204MOL0     C27469   6.264  10.416   9.159 -0.6788 -0.1258  0.4255
  204MOL0     C27470   6.041  10.408   9.790 -0.3575 -0.8352  0.7151
  204MOL0     C27471   6.080  10.522   9.861  0.6921  0.3999  0.3475
  204MOL0     C27472   6.132  10.507   9.997  1.0363  0.9486  0.1727
  204MOL0     H27473   6.227  11.013   9.989 -0.7514  2.5949  4.0127
  204MOL0     H27474   6.210  11.255  10.048 -2.7048 -0.0642  1.9171
  204MOL0     H27475   6.235  11.528  10.032  1.2515  2.5487 -0.9184
  204MOL0     H27476   6.292  11.469   9.871  1.6128  1.6696  0.9272
  204MOL0     H27477   6.292  11.698   9.880  0.0309 -2.0992  2.1548
  204MOL0     H27478   6.121  11.715   9.905  0.6757  3.1194 -1.3478
  204MOL0     H27479   6.136  11.757   9.688 -0.3823 -0.2449  0.3763
  204MOL0     H27480   6.066  11.597   9.681  0.5570 -0.0580 -1.2108
  204MOL0     H27481   6.319  11.509   9.639  1.3205  0.1202 -2.9016
  204MOL0     H27482   6.232  11.588   9.517  1.6961  3.2659 -1.8586
  204MOL0     H27483   6.359  11.805   9.574  3.1172  2.0175  2.3645
  204MOL0     H27484   6.451  11.702   9.684 -1.5712 -2.2856 -0.4791
  204MOL0     H27485   6.553  11.572   9.508 -0.1004 -0.1990 -0.0058
  204MOL0     H27486   6.433  11.632   9.393 -1.8373  0.5542  0.5839
  204MOL0     H27487   6.671  11.793   9.517  2.7521 -1.0236 -1.9182
  204MOL0     H27488   6.533  11.876   9.440 -1.3626 -1.4088  0.9267
  204MOL0     H27489   6.612  11.695   9.240  3.2168 -2.5722  0.5517
  204MOL0     H27490   6.698  11.846   9.255  1.2181 -0.6801 -1.1479
  204MOL0     H27491   6.700  11.464   9.356  1.0722 -1.7400 -0.1966
  204MOL0     H27492   6.948  11.427   9.597  4.8030  1.9445  0.0865
  204MOL0     H27493   6.896  11.311   9.474 -1.2328  0.4593  1.5396
  204MOL0     H27494   7.109  11.337   9.362 -0.0020  1.5566 -0.2737
  204MOL0     H27495   7.156  11.465   9.475  0.8448 -1.0535  3.2568
  204MOL0     H27496   7.083  11.204   9.612  1.2372  0.1359  0.1687
  204MOL0     H27497   7.171  11.349   9.661  1.2705 -0.7552 -0.0476
  204MOL0     H27498   7.245  11.127   9.478 -0.0657 -1.6101  1.4002
  204MOL0     H27499   7.317  11.160   9.633 -2.2562  0.2836  0.4198
  204MOL0     H27500   7.535  11.100   9.598  0.4539  1.0760  2.4548
  204MOL0     H27501   7.779  11.070   9.532 -0.2515 -0.4546  0.4156
  204MOL0     H27502   8.124  10.993   9.611 -1.8719  0.7870 -1.7015
  204MOL0     H27503   8.376  10.974   9.625  1.6561  3.8300  1.2166
  204MOL0     H27504   8.586  10.959   9.283  1.4278  0.1124 -0.5680
  204MOL0     H27505   8.656  11.119   9.294  1.3853  1.5869  2.6939
  204MOL0     H27506   8.738  10.854   9.410 -0.7624 -0.1486 -1.5859
  204MOL0     H27507   8.831  10.979   9.312 -1.4444 -2.0568 -1.6928
  204MOL0     H27508   8.775  10.988   9.611  3.2735 -0.8044  2.6185
  204MOL0     H27509   8.931  10.959   9.541  0.0502  0.2072 -0.8820
  204MOL0     H27510   8.770  11.218   9.477 -0.0285 -1.3352 -1.4138
  204MOL0     H27511   8.915  11.178   9.420  0.3245  2.4927 -0.1508
  204MOL0     H27512   8.955  11.336   9.562  1.0543 -0.6722  0.2941
  204MOL0     H27513   9.019  11.208   9.653 -0.9266  1.6119  2.4902
  204MOL0     H27514   8.777  11.383   9.697 -1.9803 -0.6458  1.5997
  204MOL0     H27515   8.771  11.225   9.767  2.1185 -1.8721  0.2867
  204MOL0     H27516   9.019  11.411   9.800 -0.0841 -0.3266 -1.0216
  204MOL0     H27517   8.994  11.270   9.898  0.0938  1.8237  3.5952
  204MOL0     H27518   8.948  11.474  10.004  2.1970  1.2761 -3.5304
  204MOL0     H27519   8.808  11.508   9.908  0.9746  1.6792  1.5901
  204MOL0     H27520   8.407  11.192   9.263 -3.2036  3.3597 -0.0449
  204MOL0     H27521   8.192  11.245   9.268  3.0718 -0.4062 -0.1224
  204MOL0     H27522   7.732  11.353   9.214 -1.3504  0.9087 -0.2304
  204MOL0     H27523   7.498  11.394   9.281  1.5357  1.6537 -0.8164
  204MOL0     H27524   5.924  11.326   9.748  1.6850  0.6134 -0.6120
  204MOL0     H27525   5.902  11.083   9.711  0.3936  1.0581 -0.0897
  204MOL0     H27526   5.949  10.750   9.656  3.6343  1.3886  0.0577
  204MOL0     H27527   5.931  10.562   9.517 -1.8995 -1.3513  1.2942
  204MOL0     H27528   6.143  10.280   9.493 -0.1572  0.9215  1.4577
  204MOL0     H27529   6.028  10.389   9.403 -1.1722 -0.9031 -0.8349
  204MOL0     H27530   5.896  10.218   9.337 -2.2335 -1.9400  2.5184
  204MOL0     H27531   5.961  10.104   9.457  0.9271  0.8597  1.6188
  204MOL0     H27532   6.051  10.019   9.263 -0.1047  0.5085 -0.6827
  204MOL0     H27533   6.184  10.119   9.336  2.2570  1.1098 -3.8992
  204MOL0     H27534   6.148  10.129   9.101  1.2068  0.9313  0.5384
  204MOL0     H27535   6.009  10.245   9.149 -0.4664  1.5197  2.0862
  204MOL0     H27536   6.316  10.509   9.167  0.1316 -0.4286 -0.9719
  204MOL0     H27537   6.065  10.313   9.837 -1.5179 -1.1569  0.6995
  204MOL0     H27538   6.042  10.513  10.059  0.7125 -0.9481 -0.0389
  204MOL0     H27539   6.176  10.407  10.008  1.1320  1.0032  0.2752
  204MOL0     H27540   6.209  10.578  10.027  2.1023  0.4249 -1.2209
  205MOL0     O27541   4.395  10.494   3.029 -0.7305  0.6115  0.1125
  205MOL0     C27542   4.278  10.489   3.000  0.2829  0.7987 -0.1238
  205MOL0     O27543   4.223  10.512   2.872 -0.3201 -0.2334  0.0710
  205MOL0     C27544   4.303  10.554   2.769  0.2024  0.2224  0.5997
  205MOL0     C27545   4.369  10.466   2.682  0.3596  0.6721  0.6004
  205MOL0     C27546   4.425  10.496   2.559 -0.2140  1.4152 -0.4118
  205MOL0     C27547   4.442  10.630   2.527 -0.2342 -0.2968  0.7119
  205MOL0     O27548   4.511  10.664   2.413 -0.9087  0.0259  0.5157
  205MOL0     C27549   4.523  10.799   2.369 -0.5900  0.2460 -0.0150
  205MOL0     C27550   4.611  10.808   2.244 -0.0188 -0.2542 -0.5237
  205MOL0     C27551   4.583  10.927   2.159  0.1385 -0.3528  1.1332
  205MOL0     C27552   4.660  10.922   2.021  0.5080  0.9166 -0.1714
  205MOL0     C27553   4.667  11.051   1.932 -0.1996 -0.4389 -0.8052
  205MOL0     C27554   4.683  11.013   1.781 -1.1929 -0.2999  0.8623
  205MOL0     C27555   4.823  10.970   1.734  0.1357 -0.0125  0.4398
  205MOL0     C27556   4.864  11.014   1.593  1.0393 -0.4962 -0.5004
  205MOL0     N27557   5.005  10.982   1.563  0.1418  0.0224  1.0463
  205MOL0     C27558   5.114  11.064   1.558 -1.2147 -0.8365 -0.5555
  205MOL0     C27559   5.217  10.998   1.488 -0.1151 -0.3183  0.1632
  205MOL0     C27560   5.349  11.049   1.439  0.9226 -0.8026  0.3212
  205MOL0     C27561   5.423  11.152   1.530 -0.2300  0.6697  0.6821
  205MOL0     C27562   5.526  11.235   1.454 -0.4603  0.5144 -0.1094
  205MOL0     C27563   5.651  11.145   1.430  0.1065 -0.0900  0.3923
  205MOL0     O27564   5.742  11.215   1.345 -0.1502 -0.0860  0.4775
  205MOL0     C27565   5.857  11.159   1.308 -0.7129  0.4570 -0.2849
  205MOL0     C27566   5.932  11.225   1.216 -0.8597 -0.7499 -0.6906
  205MOL0     C27567   6.059  11.172   1.185  0.0055  0.0390  0.0470
  205MOL0     C27568   6.105  11.045   1.224  0.6764  1.0153 -0.9732
  205MOL0     C27569   6.233  10.980   1.187 -0.4647  0.0781  0.7752
  205MOL0     O27570   6.333  11.056   1.132  0.6556  0.8654  0.2536
  205MOL0     C27571   6.430  10.974   1.077 -0.1122 -0.8268  0.4120
  205MOL0     C27572   6.424  10.950   0.937 -0.6247  0.1766 -0.5596
  205MOL0     C27573   6.517  10.863   0.883 -0.5010 -0.0149  0.0227
  205MOL0     C27574   6.629  10.819   0.962  0.3828 -0.9326  0.6119
  205MOL0     O27575   6.728  10.737   0.910 -0.3140  0.2727  0.7876
  205MOL0     C27576   6.704  10.644   0.804 -0.4873  0.5951  0.4248
  205MOL0     C27577   6.744  10.693   0.664 -0.2517 -0.1510  0.3020
  205MOL0     C27578   6.897  10.692   0.647 -0.7912 -0.4321 -1.2126
  205MOL0     C27579   6.967  10.762   0.526  0.3608 -0.0844 -0.3073
  205MOL0     C27580   7.128  10.767   0.523 -0.8462  0.3680 -0.1865
  205MOL0     C27581   7.182  10.843   0.402 -0.2276 -0.6291 -0.5292
  205MOL0     C27582   7.338  10.852   0.420 -0.1128  0.1015  0.0710
  205MOL0     C27583   7.383  10.956   0.317 -0.6477  0.2773 -0.0693
  205MOL0    Cl27584   7.569  10.972   0.324  0.2293 -0.0298 -0.0206
  205MOL0     C27585   6.641  10.859   1.095 -0.2518  0.5646 -0.2361
  205MOL0     C27586   6.543  10.938   1.153  0.4838  0.6809  0.0589
  205MOL0     O27587   6.241  10.864   1.203  0.7499  0.4756 -0.4856
  205MOL0     C27588   6.022  10.982   1.317  0.1569  0.3696 -0.4850
  205MOL0     C27589   5.902  11.033   1.356  0.4823  0.7659 -0.1865
  205MOL0     N27590   5.169  10.874   1.475  0.8986  0.0020  0.4093
  205MOL0     N27591   5.052  10.863   1.513  1.4817 -0.9867 -0.1962
  205MOL0     C27592   4.385  10.724   2.613 -0.5534 -0.8201  0.3379
  205MOL0     C27593   4.308  10.685   2.725 -0.3909 -0.7162  0.6115
  205MOL0     C27594   4.180  10.442   3.101 -1.6155 -0.3180 -0.2032
  205MOL0     C27595   4.059  10.388   3.054  0.4333 -0.2681  0.6204
  205MOL0     C27596   3.966  10.334   3.144 -0.0837 -0.9782 -0.4300
  205MOL0     C27597   3.998  10.323   3.277  0.1393 -0.0155 -0.2661
  205MOL0     O27598   3.906  10.270   3.359  0.9000 -0.4144 -0.3541
  205MOL0     C27599   3.811  10.365   3.402  0.2634  0.0891  0.3275
  205MOL0     C27600   3.684  10.300   3.461 -0.0991 -0.5254 -0.0439
  205MOL0     C27601   3.602  10.242   3.340  0.7674  0.8164  0.1944
  205MOL0     C27602   3.455  10.199   3.384 -1.2270 -0.8790 -0.5255
  205MOL0     C27603   3.459  10.121   3.514 -0.1186  0.3640  0.0114
  205MOL0     C27604   3.466  10.067   3.629 -0.0939 -0.1696 -0.1697
  205MOL0     C27605   4.125  10.364   3.328  0.9676 -0.4197  0.2897
  205MOL0     C27606   4.215  10.432   3.243  0.0579  0.4567  0.3862
  205MOL0     C27607   4.346  10.474   3.306  0.1034 -0.1404 -0.1564
  205MOL0     H27608   4.342  10.361   2.687  1.6130  0.3290  0.5626
  205MOL0     H27609   4.462  10.427   2.484 -2.6663 -0.1220 -0.3253
  205MOL0     H27610   4.421  10.836   2.352 -1.6908 -1.7314  1.8003
  205MOL0     H27611   4.564  10.860   2.450  0.5707 -0.3811 -0.1088
  205MOL0     H27612   4.600  10.717   2.184 -2.0469 -2.2720  2.6405
  205MOL0     H27613   4.714  10.793   2.278 -0.8543 -2.2467  1.2974
  205MOL0     H27614   4.623  11.011   2.216 -1.6015  1.1753  0.2110
  205MOL0     H27615   4.476  10.947   2.149  0.0599 -0.6722  1.3121
  205MOL0     H27616   4.768  10.904   2.030  1.0175  2.5710 -2.2600
  205MOL0     H27617   4.627  10.837   1.961  2.1927  0.6973 -0.8725
  205MOL0     H27618   4.574  11.109   1.934  1.2362  2.0089  1.7761
  205MOL0     H27619   4.741  11.122   1.970 -0.5231 -0.8020  0.5596
  205MOL0     H27620   4.614  10.929   1.766  0.2044 -1.3896  0.3136
  205MOL0     H27621   4.661  11.102   1.721 -0.1869  2.0470  3.7542
  205MOL0     H27622   4.814  10.861   1.729  2.5784 -0.2361 -0.8203
  205MOL0     H27623   4.894  11.008   1.808 -0.1765 -1.0831  1.3144
  205MOL0     H27624   4.796  10.963   1.525  2.6531  1.0644 -3.4871
  205MOL0     H27625   4.856  11.123   1.584  1.1445 -0.3914  0.5515
  205MOL0     H27626   5.105  11.167   1.588  2.8402 -1.4349  3.7097
  205MOL0     H27627   5.407  10.957   1.427  0.7059 -0.7207 -1.5714
  205MOL0     H27628   5.337  11.096   1.341  2.1940 -0.3844  0.3411
  205MOL0     H27629   5.354  11.220   1.582  2.1500  1.9256  2.3813
  205MOL0     H27630   5.482  11.094   1.601 -1.7090 -0.8365  0.7561
  205MOL0     H27631   5.555  11.315   1.522  2.1527 -2.2757  2.3334
  205MOL0     H27632   5.479  11.273   1.363  1.1398 -3.2758 -2.8166
  205MOL0     H27633   5.622  11.057   1.373  1.0268 -0.0320 -0.1820
  205MOL0     H27634   5.697  11.119   1.526  3.4053  2.9777 -0.1683
  205MOL0     H27635   5.896  11.324   1.190 -1.9298 -0.5559  1.3575
  205MOL0     H27636   6.131  11.222   1.121  2.7714  0.0669  2.9024
  205MOL0     H27637   6.350  11.003   0.878 -1.9178 -1.7393 -0.7355
  205MOL0     H27638   6.520  10.836   0.777 -0.4208 -1.2010  0.3115
  205MOL0     H27639   6.762  10.555   0.831 -0.6400  0.2400 -0.3745
  205MOL0     H27640   6.600  10.611   0.805 -0.2826 -0.6335 -3.2098
  205MOL0     H27641   6.708  10.622   0.589 -1.3435  0.4401  0.2461
  205MOL0     H27642   6.717  10.796   0.638 -1.2077 -0.3325  0.5335
  205MOL0     H27643   6.930  10.741   0.739 -2.5368  0.4361 -0.9951
  205MOL0     H27644   6.926  10.587   0.655  1.2660  0.2367  3.1534
  205MOL0     H27645   6.933  10.865   0.518 -0.9023 -0.5699 -1.5861
  205MOL0     H27646   6.931  10.700   0.443 -1.9073  0.9305 -0.1533
  205MOL0     H27647   7.174  10.668   0.518  0.9133  0.8131  3.6513
  205MOL0     H27648   7.159  10.801   0.623  0.8639  1.5871 -1.0925
  205MOL0     H27649   7.158  10.785   0.313 -5.2878 -1.8424  1.2376
  205MOL0     H27650   7.143  10.945   0.392 -2.2577 -1.1722  1.0929
  205MOL0     H27651   7.389  10.757   0.405 -1.9544 -0.6244 -2.2108
  205MOL0     H27652   7.364  10.879   0.523  1.8559 -3.6525  0.7213
  205MOL0     H27653   7.348  10.933   0.216  0.8107  0.9802 -0.7472
  205MOL0     H27654   7.358  11.054   0.359  2.4264  0.9074  0.4768
  205MOL0     H27655   6.729  10.824   1.147  0.1592 -2.0793 -2.4720
  205MOL0     H27656   6.552  10.965   1.258  1.9817  2.4658 -0.4891
  205MOL0     H27657   6.070  10.896   1.362  4.5330  3.5091  1.5579
  205MOL0     H27658   5.867  10.970   1.437  4.3025 -2.8645 -1.0299
  205MOL0     H27659   4.401  10.830   2.595 -1.3661 -0.6021  0.8497
  205MOL0     H27660   4.273  10.764   2.790  0.4397 -0.4395  0.7424
  205MOL0     H27661   4.039  10.380   2.947  3.7951  0.1883 -0.1700
  205MOL0     H27662   3.871  10.289   3.118 -0.9855 -0.3084  1.4844
  205MOL0     H27663   3.775  10.418   3.314  0.6950 -0.4674 -0.1964
  205MOL0     H27664   3.864  10.440   3.461  1.8494  0.8615 -1.9828
  205MOL0     H27665   3.631  10.381   3.513  3.3922  0.6787  1.9954
  205MOL0     H27666   3.711  10.226   3.537  3.7267  0.5410 -0.1540
  205MOL0     H27667   3.654  10.166   3.281  0.3937 -0.8882  1.9731
  205MOL0     H27668   3.581  10.327   3.275 -2.2559  0.3225  0.3822
  205MOL0     H27669   3.397  10.290   3.406 -1.5715 -1.1186 -0.4368
  205MOL0     H27670   3.400  10.144   3.307 -1.3575 -0.0725 -1.0137
  205MOL0     H27671   3.477  10.020   3.725  5.3015  2.3555  0.7923
  205MOL0     H27672   4.157  10.376   3.431  3.1768  3.3793 -0.6211
  205MOL0     H27673   4.408  10.385   3.294 -1.3228 -1.2498  0.4615
  205MOL0     H27674   4.403  10.559   3.266  2.1367  0.7090  4.0082
  205MOL0     H27675   4.339  10.485   3.415  1.2378 -0.3120 -0.0507
  206MOL0     O27676   8.489   1.986   6.643 -0.7226  0.3114  0.0972
  206MOL0     C27677   8.510   2.018   6.523 -0.0007 -0.3100 -0.0020
  206MOL0     O27678   8.615   2.100   6.487  0.0566 -0.1492  0.7010
  206MOL0     C27679   8.688   2.140   6.597 -0.9719 -0.7962 -0.2549
  206MOL0     C27680   8.797   2.072   6.650  0.0355 -0.5408  0.1519
  206MOL0     C27681   8.875   2.130   6.760  1.5839 -0.1639  0.1293
  206MOL0     C27682   8.841   2.258   6.811  1.9414  0.4591  0.5375
  206MOL0     O27683   8.902   2.321   6.920 -0.3168 -0.3346  0.3765
  206MOL0     C27684   9.011   2.252   6.983 -0.3456 -0.8551  0.1050
  206MOL0     C27685   9.141   2.297   6.922  0.2332  0.3089 -0.1432
  206MOL0     C27686   9.252   2.326   7.023  0.7390 -0.2592 -0.0197
  206MOL0     C27687   9.393   2.313   6.971  0.2656  0.3482  0.3444
  206MOL0     C27688   9.497   2.376   7.064  0.1963 -0.8496 -0.1170
  206MOL0     C27689   9.638   2.389   7.008 -0.2324 -0.4531 -0.1658
  206MOL0     C27690   9.743   2.293   7.073 -0.7042 -0.4367 -0.5577
  206MOL0     C27691   9.738   2.150   7.012 -0.3515 -0.5822  0.7439
  206MOL0     N27692   9.816   2.125   6.883  0.2345 -0.4333 -0.6134
  206MOL0     C27693   9.905   2.222   6.836  1.0770  0.9545  0.1990
  206MOL0     C27694   9.917   2.197   6.703  0.7992 -0.5009  0.7059
  206MOL0     C27695  10.000   2.260   6.603  0.6474 -0.7750  0.4685
  206MOL0     C27696  10.115   2.170   6.546  0.2765  0.3787 -0.0790
  206MOL0     C27697  10.234   2.165   6.636 -0.8732 -0.2863  0.0977
  206MOL0     C27698  10.346   2.083   6.575 -1.1156 -0.4512  0.4533
  206MOL0     O27699  10.309   1.940   6.569  0.3699 -0.0652  0.5429
  206MOL0     C27700  10.404   1.849   6.549  0.1458 -0.0666  0.2609
  206MOL0     C27701  10.539   1.876   6.536 -0.5603 -0.1218 -0.1639
  206MOL0     C27702  10.630   1.779   6.507 -0.6138 -0.8647  0.2154
  206MOL0     C27703  10.583   1.642   6.502 -1.1479 -0.3190  0.2657
  206MOL0     C27704  10.679   1.535   6.476 -0.0416  0.6583 -0.6084
  206MOL0     O27705  10.802   1.569   6.420  0.0497  0.1064 -0.4064
  206MOL0     C27706  10.896   1.472   6.421  0.0488 -0.3314  1.2882
  206MOL0     C27707  10.961   1.456   6.298  0.9286  0.7098  0.9789
  206MOL0     C27708  11.032   1.338   6.278 -0.6942 -0.1664  0.3320
  206MOL0     C27709  11.060   1.252   6.376 -0.6733  0.7751 -0.3058
  206MOL0     O27710  11.131   1.144   6.340  0.4403  0.6205  0.1186
  206MOL0     C27711  11.067   1.019   6.356  0.1023 -0.1411 -0.0952
  206MOL0     C27712  11.105   0.916   6.253 -0.3367  0.2631  0.0858
  206MOL0     C27713  11.250   0.866   6.259 -0.8215  0.5389  0.4600
  206MOL0     C27714  11.264   0.727   6.181  0.7477  0.2427 -0.7283
  206MOL0     C27715  11.397   0.663   6.197 -0.0955  0.7815 -0.2803
  206MOL0     C27716  11.410   0.583   6.325 -1.2487  0.5060 -0.7250
  206MOL0     C27717  11.559   0.548   6.353  0.8944  0.1346  0.8350
  206MOL0     C27718  11.574   0.402   6.417  0.1094 -0.3355  0.8459
  206MOL0    Cl27719  11.740   0.351   6.390 -0.3254  0.1769 -0.1409
  206MOL0     C27720  11.012   1.279   6.509  0.2200 -0.4159 -0.1243
  206MOL0     C27721  10.926   1.388   6.530 -1.1132 -0.2340  0.1658
  206MOL0     O27722  10.645   1.422   6.522  0.5346 -0.1272 -1.2932
  206MOL0     C27723  10.451   1.617   6.523 -0.3486 -0.8408 -0.1181
  206MOL0     C27724  10.359   1.722   6.547 -0.5754  0.3646 -1.0211
  206MOL0     N27725   9.840   2.081   6.678 -0.0607  0.2100  0.1872
  206MOL0     N27726   9.777   2.048   6.786  0.0281  0.5336  0.7154
  206MOL0     C27727   8.730   2.323   6.752  0.1480 -0.6368  0.1756
  206MOL0     C27728   8.659   2.264   6.645  0.8263 -0.8460 -0.4014
  206MOL0     C27729   8.407   1.984   6.427 -0.0791 -0.0847  0.0336
  206MOL0     C27730   8.344   1.860   6.437 -0.4169 -0.2126 -0.2261
  206MOL0     C27731   8.251   1.825   6.341  0.4090 -0.0607  0.8729
  206MOL0     C27732   8.213   1.909   6.237  0.3941  0.7392  0.1747
  206MOL0     O27733   8.129   1.854   6.135 -0.4413  0.0269  0.0056
  206MOL0     C27734   8.076   1.931   6.030  0.1038  0.0011 -0.1453
  206MOL0     C27735   7.977   2.034   6.086 -0.3313  1.1346  0.2522
  206MOL0     C27736   7.841   1.983   6.146 -0.4055  0.3117  0.4487
  206MOL0     C27737   7.733   1.951   6.041  0.3572  0.0265  0.2797
  206MOL0     C27738   7.610   1.913   6.120  1.0624 -0.1040 -0.9476
  206MOL0     C27739   7.509   1.889   6.174 -0.4170 -0.4172 -0.3291
  206MOL0     C27740   8.275   2.036   6.224 -0.1587 -0.1976 -0.9997
  206MOL0     C27741   8.373   2.073   6.321  0.2337 -0.3592 -0.0863
  206MOL0     C27742   8.435   2.209   6.317 -0.3713 -0.1596 -0.2072
  206MOL0     H27743   8.814   1.971   6.615 -1.6885 -1.0563  0.7029
  206MOL0     H27744   8.963   2.082   6.803  1.1216  0.0249  1.3118
  206MOL0     H27745   9.020   2.293   7.085  1.6506  1.4575 -0.8990
  206MOL0     H27746   9.001   2.144   6.999 -2.2810 -1.3152 -3.3676
  206MOL0     H27747   9.133   2.378   6.849  0.9001 -1.0796 -1.8350
  206MOL0     H27748   9.178   2.218   6.856 -1.0573 -0.0432 -0.4835
  206MOL0     H27749   9.237   2.268   7.114 -2.1375  1.5147  0.7838
  206MOL0     H27750   9.243   2.429   7.060  2.9470 -0.5641  1.5189
  206MOL0     H27751   9.413   2.206   6.960 -3.5533 -0.5120  0.3519
  206MOL0     H27752   9.416   2.363   6.876  0.9089 -0.9412 -0.1888
  206MOL0     H27753   9.468   2.479   7.088  1.7907 -1.1832  4.0463
  206MOL0     H27754   9.487   2.321   7.158 -1.7408 -0.9216 -0.3245
  206MOL0     H27755   9.648   2.392   6.899  0.8441 -0.9565 -0.0951
  206MOL0     H27756   9.671   2.486   7.047  0.5327 -0.9930  0.5734
  206MOL0     H27757   9.730   2.299   7.182  3.4283  0.0136  0.0955
  206MOL0     H27758   9.843   2.337   7.065 -1.0902  0.4525 -0.6387
  206MOL0     H27759   9.789   2.094   7.091  2.7814  0.4108 -0.4115
  206MOL0     H27760   9.635   2.118   6.995 -0.5495 -0.6247  1.9276
  206MOL0     H27761   9.942   2.310   6.887  0.6389  1.5987 -0.5781
  206MOL0     H27762   9.946   2.302   6.517  3.0507  2.6235  0.4232
  206MOL0     H27763  10.036   2.355   6.643 -2.3867  1.5231 -1.6772
  206MOL0     H27764  10.068   2.071   6.535 -0.6767  0.2619  3.6508
  206MOL0     H27765  10.141   2.203   6.445  2.7363  2.7468  1.1994
  206MOL0     H27766  10.203   2.119   6.730 -1.5606 -0.2026 -0.0858
  206MOL0     H27767  10.271   2.265   6.661  1.1300 -1.0419  0.3467
  206MOL0     H27768  10.427   2.104   6.646 -1.0295 -0.0175  0.2351
  206MOL0     H27769  10.379   2.136   6.485  1.8141  0.9753  2.2346
  206MOL0     H27770  10.570   1.980   6.532 -0.5811 -0.0154  1.5222
  206MOL0     H27771  10.735   1.804   6.517 -0.7426 -1.0140  2.7594
  206MOL0     H27772  10.934   1.526   6.219 -0.3162 -1.0144 -0.1963
  206MOL0     H27773  11.068   1.324   6.177 -0.0035  2.9558  0.0361
  206MOL0     H27774  11.092   0.975   6.453  1.5759 -0.8571 -0.7865
  206MOL0     H27775  10.958   1.026   6.345  0.1555 -1.9246 -2.2539
  206MOL0     H27776  11.036   0.832   6.266 -2.2172  1.9251  1.3753
  206MOL0     H27777  11.097   0.958   6.153 -2.6021  0.6074  0.3477
  206MOL0     H27778  11.332   0.926   6.218  1.8450 -3.7766 -1.1765
  206MOL0     H27779  11.275   0.839   6.362  2.3924  3.3084  0.5678
  206MOL0     H27780  11.251   0.735   6.073 -1.8398  0.6038 -0.4540
  206MOL0     H27781  11.184   0.661   6.214  0.5214 -0.9281 -3.4444
  206MOL0     H27782  11.474   0.732   6.163 -0.4704  2.4352  1.9939
  206MOL0     H27783  11.407   0.576   6.131 -0.6500 -1.3198  2.2261
  206MOL0     H27784  11.393   0.654   6.407 -3.7936 -1.8691  0.9619
  206MOL0     H27785  11.341   0.499   6.338  0.1149 -1.3132 -3.9698
  206MOL0     H27786  11.618   0.627   6.401  1.7378  0.0574 -0.0407
  206MOL0     H27787  11.605   0.554   6.254  0.3787  1.8766  0.6650
  206MOL0     H27788  11.549   0.402   6.523 -1.3602 -1.7363  0.5481
  206MOL0     H27789  11.519   0.327   6.359 -0.5954  0.7242  0.0939
  206MOL0     H27790  11.015   1.199   6.581  0.4135 -1.6148 -1.4240
  206MOL0     H27791  10.874   1.395   6.625  0.6780 -2.2338  1.3741
  206MOL0     H27792  10.415   1.515   6.520 -1.1486 -0.5474 -2.0721
  206MOL0     H27793  10.252   1.704   6.554 -0.5075 -0.3441 -1.7155
  206MOL0     H27794   8.692   2.414   6.795 -0.6902 -2.0447  2.6104
  206MOL0     H27795   8.575   2.317   6.600  0.7245 -0.2019  0.5173
  206MOL0     H27796   8.365   1.778   6.505 -3.4813 -1.6795 -0.8714
  206MOL0     H27797   8.192   1.735   6.352 -0.2583  0.5486  2.8027
  206MOL0     H27798   8.024   1.864   5.960 -1.3555  0.2461  0.6583
  206MOL0     H27799   8.155   1.977   5.971  1.0977  1.7378  2.3864
  206MOL0     H27800   7.947   2.098   6.002 -1.5939  3.6371  2.4739
  206MOL0     H27801   8.028   2.095   6.161 -1.1902  1.3979  0.6308
  206MOL0     H27802   7.807   2.063   6.212  3.3712  1.2464  1.4671
  206MOL0     H27803   7.863   1.900   6.214  3.3625  0.3724 -0.4847
  206MOL0     H27804   7.719   2.035   5.972 -1.4845 -1.1146 -0.8226
  206MOL0     H27805   7.763   1.868   5.977 -3.3212  0.5183 -2.3956
  206MOL0     H27806   7.433   1.878   6.249 -0.9695 -0.3486 -0.8658
  206MOL0     H27807   8.258   2.090   6.132 -1.2773  0.6163 -0.3358
  206MOL0     H27808   8.533   2.205   6.267 -0.4257  0.3878 -0.3647
  206MOL0     H27809   8.379   2.269   6.245 -2.2491 -2.7932 -1.0956
  206MOL0     H27810   8.423   2.246   6.419 -1.6466 -0.0759 -0.3669
  207MOL0     O27811   4.805   0.047   9.521  0.0512 -0.1351  0.5347
  207MOL0     C27812   4.768  -0.015   9.423  0.2339  0.6546 -0.0929
  207MOL0     O27813   4.645  -0.076   9.415  0.6019 -0.4284 -0.2962
  207MOL0     C27814   4.573  -0.096   9.531  0.1783  0.7541  0.3621
  207MOL0     C27815   4.445  -0.049   9.538 -0.7023 -0.1079 -0.6509
  207MOL0     C27816   4.363  -0.080   9.645 -0.3628 -0.4909  0.3585
  207MOL0     C27817   4.420  -0.169   9.746  0.0912  0.1850  0.8502
  207MOL0     O27818   4.328  -0.214   9.833  0.5335 -0.6264 -1.2979
  207MOL0     C27819   4.369  -0.309   9.932  0.4736 -0.3410 -0.1539
  207MOL0     C27820   4.279  -0.283  10.051  0.0159  0.9451  0.4547
  207MOL0     C27821   4.290  -0.415  10.140  0.0383  0.1809 -0.2974
  207MOL0     C27822   4.418  -0.403  10.233  0.4011  0.1991 -0.4028
  207MOL0     C27823   4.431  -0.522  10.333  0.0483 -0.4251  0.1982
  207MOL0     C27824   4.535  -0.505  10.447  0.3695  0.0339  0.3744
  207MOL0     C27825   4.663  -0.587  10.409  0.8499  0.2087  0.2887
  207MOL0     C27826   4.765  -0.592  10.528 -0.0233  0.6401 -0.1915
  207MOL0     N27827   4.862  -0.477  10.529 -0.7388  0.6836  0.4031
  207MOL0     C27828   4.954  -0.454  10.434  0.5258 -0.1563 -0.6167
  207MOL0     C27829   5.017  -0.342  10.482  0.3962 -0.3109  0.7608
  207MOL0     C27830   5.139  -0.278  10.414 -0.2019  0.6066 -0.7469
  207MOL0     C27831   5.268  -0.355  10.443 -0.1963 -0.8160  0.4124
  207MOL0     C27832   5.312  -0.344  10.594 -0.0311 -0.6881  0.0411
  207MOL0     C27833   5.355  -0.199  10.627 -0.1758 -0.2524  0.2532
  207MOL0     O27834   5.457  -0.159  10.528 -1.3132  0.9657 -0.5100
  207MOL0     C27835   5.513  -0.035  10.542  0.8654 -0.0972  0.8638
  207MOL0     C27836   5.484   0.063  10.639 -0.0282 -0.0801 -0.0173
  207MOL0     C27837   5.533   0.199  10.627 -0.0841 -0.0793 -0.4067
  207MOL0     C27838   5.618   0.233  10.520 -0.2616  0.2289 -0.0294
  207MOL0     C27839   5.671   0.372  10.515 -0.7870  0.4728  0.4245
  207MOL0     O27840   5.632   0.457  10.605 -0.4225 -0.6803  0.7539
  207MOL0     C27841   5.690   0.582  10.605  0.4829  0.8538 -0.5047
  207MOL0     C27842   5.806   0.596  10.684 -0.7261 -0.8260  0.3703
  207MOL0     C27843   5.868   0.719  10.693 -0.1236  0.0212 -0.3936
  207MOL0     C27844   5.810   0.829  10.632 -0.7240  0.2403 -0.7644
  207MOL0     O27845   5.848   0.960  10.654  0.3024 -0.3814  0.3884
  207MOL0     C27846   5.984   0.981  10.677  0.0344 -0.5269  0.9001
  207MOL0     C27847   6.012   1.126  10.654  0.5753  0.6433  0.1462
  207MOL0     C27848   5.924   1.218  10.745 -0.6266  0.1680  0.1175
  207MOL0     C27849   5.983   1.360  10.759  0.3138 -0.4732 -0.2760
  207MOL0     C27850   5.911   1.446  10.861  0.3755  0.6372  0.6022
  207MOL0     C27851   5.768   1.476  10.816  0.1243  1.0316 -0.3186
  207MOL0     C27852   5.696   1.603  10.874  0.5650  0.0024 -0.0428
  207MOL0     C27853   5.780   1.727  10.870 -0.6432 -0.0529  1.1701
  207MOL0    Cl27854   5.680   1.862  10.920 -0.0668  0.4168  0.4219
  207MOL0     C27855   5.715   0.815  10.543  0.8713  1.0944  0.2161
  207MOL0     C27856   5.644   0.696  10.536 -0.9584  0.3072 -0.3738
  207MOL0     O27857   5.756   0.393  10.430 -0.1806  0.1018 -0.3057
  207MOL0     C27858   5.648   0.134  10.422 -0.3383 -0.7213 -0.9967
  207MOL0     C27859   5.585   0.010  10.430  0.0480 -0.3824  0.2337
  207MOL0     N27860   4.969  -0.305  10.605  1.2634  0.6319 -0.7077
  207MOL0     N27861   4.874  -0.388  10.634 -0.5339 -0.3488  0.5400
  207MOL0     C27862   4.556  -0.216   9.740  0.1976  0.0697 -0.0124
  207MOL0     C27863   4.630  -0.175   9.632 -0.1520 -0.1343  0.3432
  207MOL0     C27864   4.852  -0.015   9.293  0.4417  0.7484 -0.3190
  207MOL0     C27865   4.775  -0.050   9.178 -0.1960  0.1678 -0.8137
  207MOL0     C27866   4.834  -0.036   9.053 -0.8000  0.4361 -0.4199
  207MOL0     C27867   4.961   0.013   9.040 -1.3774  0.8958  0.0768
  207MOL0     O27868   5.001   0.062   8.917  0.3356 -0.0887 -0.3223
  207MOL0     C27869   5.067   0.188   8.905 -0.1530  0.4390  0.8913
  207MOL0     C27870   4.990   0.307   8.948  0.9404 -0.5850  0.5490
  207MOL0     C27871   5.030   0.447   8.908  0.6192 -0.0575  0.6831
  207MOL0     C27872   4.903   0.522   8.847 -0.5099  0.0520  0.0151
  207MOL0     C27873   4.889   0.458   8.713  0.4738  0.3653  1.3159
  207MOL0     C27874   4.857   0.385   8.624 -0.2380 -0.5623  1.3742
  207MOL0     C27875   5.041   0.035   9.150  0.7947  0.3424 -0.9924
  207MOL0     C27876   4.984   0.022   9.278 -0.0653 -0.6826 -0.3936
  207MOL0     C27877   5.073   0.036   9.398  0.1980  1.0700 -0.2935
  207MOL0     H27878   4.408   0.016   9.459  2.8840  3.0662 -0.0077
  207MOL0     H27879   4.262  -0.041   9.651 -0.4764 -0.8634  0.9069
  207MOL0     H27880   4.370  -0.413   9.897 -0.1900 -0.8988  1.3855
  207MOL0     H27881   4.467  -0.276   9.966  0.6795 -2.5305  1.5464
  207MOL0     H27882   4.175  -0.279  10.019 -0.5990 -3.9479  1.1006
  207MOL0     H27883   4.305  -0.196  10.112 -2.1996 -0.5277  3.7857
  207MOL0     H27884   4.294  -0.507  10.081  0.4150 -0.2857  0.4406
  207MOL0     H27885   4.197  -0.425  10.196  0.3699 -0.8406  0.0892
  207MOL0     H27886   4.512  -0.383  10.182  1.0390  0.1203  0.7173
  207MOL0     H27887   4.392  -0.320  10.300 -1.6655 -1.1599  0.5905
  207MOL0     H27888   4.331  -0.510  10.375 -0.5688  1.6946 -1.7037
  207MOL0     H27889   4.438  -0.618  10.280 -0.2602  0.8104 -2.1916
  207MOL0     H27890   4.559  -0.399  10.461  0.4266  0.1505 -0.5773
  207MOL0     H27891   4.497  -0.549  10.540 -0.4722  1.5798  0.7922
  207MOL0     H27892   4.709  -0.537  10.323  1.2857  0.1039  0.4565
  207MOL0     H27893   4.629  -0.688  10.384  0.5532  0.6306 -1.0956
  207MOL0     H27894   4.714  -0.601  10.624 -1.3434 -0.8299 -0.9852
  207MOL0     H27895   4.823  -0.683  10.510  0.1369  0.6096  0.4829
  207MOL0     H27896   4.984  -0.514  10.349  1.2954  0.5057 -0.8191
  207MOL0     H27897   5.122  -0.269  10.307  2.6789  2.3752 -1.1617
  207MOL0     H27898   5.148  -0.177  10.454 -0.7454 -0.0402  1.1030
  207MOL0     H27899   5.238  -0.458  10.418 -1.0386 -0.3021 -0.7515
  207MOL0     H27900   5.344  -0.322  10.372 -0.5472 -0.9550 -0.0338
  207MOL0     H27901   5.396  -0.412  10.610  0.1204 -0.5240 -0.0486
  207MOL0     H27902   5.240  -0.380  10.668  0.2665  0.2679  0.8172
  207MOL0     H27903   5.395  -0.211  10.728 -1.3873  0.4864  0.8506
  207MOL0     H27904   5.285  -0.117  10.648  0.8173  0.1767  2.1666
  207MOL0     H27905   5.425   0.028  10.722 -0.7861 -4.1579 -2.0369
  207MOL0     H27906   5.512   0.263  10.712 -2.2433 -3.3219  1.7490
  207MOL0     H27907   5.845   0.514  10.742  0.8204 -0.5952 -0.2866
  207MOL0     H27908   5.960   0.737  10.747 -0.9705  0.4657  0.9442
  207MOL0     H27909   6.005   0.965  10.783 -0.4788  1.0053  1.2487
  207MOL0     H27910   6.055   0.922  10.618  0.2563  1.3414 -0.7987
  207MOL0     H27911   6.116   1.148  10.679  0.7816  1.3893 -1.2493
  207MOL0     H27912   6.003   1.147  10.547 -1.3933  0.1004  0.1786
  207MOL0     H27913   5.829   1.235  10.694  0.0567 -0.5495 -1.4884
  207MOL0     H27914   5.910   1.174  10.844  2.2399 -3.3853 -0.8157
  207MOL0     H27915   5.983   1.401  10.658  2.2762  3.1586  0.9810
  207MOL0     H27916   6.091   1.347  10.776  0.7817  1.9248 -1.0911
  207MOL0     H27917   5.967   1.540  10.865  0.9427  0.2705  4.2113
  207MOL0     H27918   5.910   1.406  10.963 -0.2133 -2.0359 -0.3810
  207MOL0     H27919   5.767   1.480  10.707 -0.3038 -0.0810 -0.3602
  207MOL0     H27920   5.705   1.393  10.850  1.8265  0.0713  0.5959
  207MOL0     H27921   5.666   1.570  10.974 -1.3841 -2.0445 -1.2069
  207MOL0     H27922   5.609   1.634  10.816  0.1312 -0.2689  0.4547
  207MOL0     H27923   5.857   1.726  10.947  0.4801  2.2424  0.1644
  207MOL0     H27924   5.830   1.741  10.774 -0.8655  2.4133  1.3707
  207MOL0     H27925   5.678   0.903  10.492  0.8324 -0.1581 -2.0781
  207MOL0     H27926   5.546   0.693  10.490 -1.2415  2.2219  0.0298
  207MOL0     H27927   5.718   0.162  10.344  2.1329 -3.4861  0.0767
  207MOL0     H27928   5.611  -0.058  10.349 -0.4638  1.2386 -1.3559
  207MOL0     H27929   4.596  -0.285   9.814 -1.2657  1.5759  2.2973
  207MOL0     H27930   4.732  -0.210   9.625 -0.1043  0.3269 -2.1813
  207MOL0     H27931   4.675  -0.092   9.183 -1.5730  3.3045  0.4929
  207MOL0     H27932   4.791  -0.058   8.956  1.7081 -1.0888 -1.2688
  207MOL0     H27933   5.104   0.191   8.802  0.1040  0.7898  0.9909
  207MOL0     H27934   5.162   0.192   8.958 -0.1244 -1.1584  0.9876
  207MOL0     H27935   4.988   0.303   9.057  0.5244  0.3961  0.5838
  207MOL0     H27936   4.887   0.283   8.922  0.5597 -0.4382  1.8409
  207MOL0     H27937   5.115   0.436   8.840 -0.5762 -1.0734 -0.7248
  207MOL0     H27938   5.064   0.495   9.001  3.4844 -2.8390  1.2640
  207MOL0     H27939   4.812   0.499   8.904  1.2065 -3.3795  1.6118
  207MOL0     H27940   4.917   0.630   8.835 -2.5168  0.0875 -3.4894
  207MOL0     H27941   4.815   0.313   8.556 -1.0831  0.4850  0.7645
  207MOL0     H27942   5.144   0.068   9.147  1.4793 -1.3102  1.2326
  207MOL0     H27943   5.176   0.023   9.364 -0.4409  0.9030 -2.2544
  207MOL0     H27944   5.049   0.129   9.449  1.6000  2.0097 -1.2891
  207MOL0     H27945   5.054  -0.046   9.468 -1.1566  1.3696 -0.2905
  208MOL0     O27946   0.307   3.474   1.244  0.5102 -0.1046 -0.1738
  208MOL0     C27947   0.369   3.558   1.306  0.2457 -0.5381 -0.4961
  208MOL0     O27948   0.326   3.630   1.414  0.9229  0.1281 -0.2533
  208MOL0     C27949   0.190   3.609   1.456 -0.3779  0.2218 -0.5323
  208MOL0     C27950   0.087   3.647   1.375  1.1490 -0.8484 -0.4728
  208MOL0     C27951  -0.048   3.637   1.413  0.5710  0.4178 -1.3179
  208MOL0     C27952  -0.075   3.585   1.543  0.6738  0.3144 -0.0112
  208MOL0     O27953  -0.207   3.565   1.583  1.0384  0.6865  0.2164
  208MOL0     C27954  -0.277   3.461   1.500 -0.6941  0.2774 -0.1859
  208MOL0     C27955  -0.218   3.321   1.503 -0.4364 -0.5801  0.3189
  208MOL0     C27956  -0.323   3.221   1.443 -0.4627  0.1807 -0.5903
  208MOL0     C27957  -0.409   3.159   1.559  0.2160 -1.0115  0.3622
  208MOL0     C27958  -0.516   3.061   1.500 -0.0670 -0.2412  0.2899
  208MOL0     C27959  -0.645   3.130   1.454  0.1226 -0.1052 -0.6232
  208MOL0     C27960  -0.715   3.046   1.348 -0.2886  0.1111  0.6209
  208MOL0     C27961  -0.751   2.907   1.406  1.0748  0.8856  0.3503
  208MOL0     N27962  -0.857   2.918   1.511 -0.0023  0.2378 -0.0909
  208MOL0     C27963  -0.987   2.949   1.484  0.2328 -0.0441  0.2759
  208MOL0     C27964  -1.042   2.969   1.604  0.1201  0.1673 -0.5635
  208MOL0     C27965  -1.183   2.998   1.628  0.4639 -0.1421  0.3307
  208MOL0     C27966  -1.214   3.136   1.592  0.5850 -0.5041  0.7988
  208MOL0     C27967  -1.366   3.176   1.596  0.8472  0.2938  0.9354
  208MOL0     C27968  -1.414   3.238   1.733  0.5140 -0.2115  0.8095
  208MOL0     O27969  -1.557   3.255   1.710 -0.4724  0.3218 -0.2585
  208MOL0     C27970  -1.627   3.326   1.802  0.5933 -0.4809  0.0165
  208MOL0     C27971  -1.754   3.373   1.762 -0.5854  0.5467 -0.9128
  208MOL0     C27972  -1.827   3.460   1.838  0.3791  0.0352  0.6594
  208MOL0     C27973  -1.783   3.502   1.963 -0.9421  0.4015 -0.3449
  208MOL0     C27974  -1.859   3.592   2.044  0.1795 -1.1325 -0.7714
  208MOL0     O27975  -1.991   3.599   1.998 -0.2333  0.4660 -0.8337
  208MOL0     C27976  -2.100   3.661   2.063 -0.6485 -0.4339 -0.7850
  208MOL0     C27977  -2.094   3.723   2.186  0.2708  0.3164 -0.5899
  208MOL0     C27978  -2.218   3.770   2.244 -0.1196  0.5183  1.0610
  208MOL0     C27979  -2.337   3.777   2.163 -0.8549  0.3970  0.0373
  208MOL0     O27980  -2.452   3.844   2.189  0.4927  1.1776  0.1251
  208MOL0     C27981  -2.505   3.822   2.331 -0.8005  0.6463  0.2407
  208MOL0     C27982  -2.624   3.906   2.362 -0.9459  0.0132  0.5845
  208MOL0     C27983  -2.673   3.882   2.501  0.0431  0.3839 -0.3265
  208MOL0     C27984  -2.768   3.994   2.559 -0.4344  0.4056  0.4950
  208MOL0     C27985  -2.835   3.949   2.687  0.5239 -0.3406  0.6649
  208MOL0     C27986  -2.945   3.850   2.647  0.5258 -0.7132 -0.3248
  208MOL0     C27987  -3.027   3.792   2.764  0.1079 -0.5693 -0.1860
  208MOL0     C27988  -3.149   3.722   2.703 -1.3457 -1.0415 -0.1293
  208MOL0    Cl27989  -3.248   3.630   2.834 -0.4919  0.1780  0.3482
  208MOL0     C27990  -2.333   3.703   2.038 -0.2782 -0.7252 -0.0489
  208MOL0     C27991  -2.216   3.654   1.987  0.6088 -0.6028  0.0830
  208MOL0     O27992  -1.817   3.654   2.138  0.3267  0.9419  0.1506
  208MOL0     C27993  -1.653   3.449   2.009  0.1305  0.0602 -0.5382
  208MOL0     C27994  -1.582   3.367   1.926 -0.4795 -0.0888 -0.8960
  208MOL0     N27995  -0.943   2.986   1.698 -0.1688  0.8047  0.2303
  208MOL0     N27996  -0.829   2.938   1.645  0.0062 -0.6179  0.2879
  208MOL0     C27997   0.028   3.546   1.624 -0.0690  0.0672  0.2363
  208MOL0     C27998   0.157   3.569   1.589  0.1297  0.2857  0.3211
  208MOL0     C27999   0.515   3.552   1.281 -0.3575  0.2952 -0.5692
  208MOL0     C28000   0.597   3.561   1.392  0.4402 -0.2802  0.7078
  208MOL0     C28001   0.733   3.545   1.384  0.0048  0.4308  0.5209
  208MOL0     C28002   0.788   3.519   1.253  0.5988 -0.1704 -0.1060
  208MOL0     O28003   0.922   3.513   1.233  0.6665  0.1127  0.0980
  208MOL0     C28004   0.952   3.376   1.206 -0.3970 -0.2593 -0.5159
  208MOL0     C28005   1.035   3.330   1.331  0.8489  0.9208 -0.2608
  208MOL0     C28006   1.165   3.413   1.342  0.2901 -0.5802 -0.1647
  208MOL0     C28007   1.189   3.446   1.487 -0.7528  0.6148 -0.7668
  208MOL0     C28008   1.309   3.529   1.493  0.8007 -0.9610  0.4029
  208MOL0     C28009   1.401   3.594   1.494  0.5481 -0.4779  0.1516
  208MOL0     C28010   0.708   3.512   1.139 -0.0681 -0.1248 -0.5087
  208MOL0     C28011   0.570   3.530   1.146 -0.2026  0.3513  0.2361
  208MOL0     C28012   0.485   3.526   1.022 -0.2903 -0.5933 -0.7973
  208MOL0     H28013   0.122   3.665   1.273  2.2766  1.5013  0.2590
  208MOL0     H28014  -0.127   3.654   1.340 -0.9046 -1.3116 -0.2042
  208MOL0     H28015  -0.380   3.462   1.537 -0.8977  0.3715 -0.7459
  208MOL0     H28016  -0.291   3.501   1.399  0.7916 -0.8912 -0.8952
  208MOL0     H28017  -0.178   3.296   1.602  0.8199  1.4584  0.4027
  208MOL0     H28018  -0.132   3.344   1.439 -1.7213 -0.2989 -1.3759
  208MOL0     H28019  -0.274   3.138   1.392 -1.7784 -3.0012  2.9021
  208MOL0     H28020  -0.390   3.273   1.374 -0.6665  0.2567 -0.3336
  208MOL0     H28021  -0.325   3.119   1.617  1.9512  3.3501  1.2622
  208MOL0     H28022  -0.469   3.232   1.615 -1.4748  0.2632 -2.8331
  208MOL0     H28023  -0.478   3.006   1.413 -3.3315  1.5612 -2.5494
  208MOL0     H28024  -0.538   2.981   1.572  0.5881 -1.3714 -0.7285
  208MOL0     H28025  -0.714   3.166   1.531 -1.7099 -1.5456 -1.5000
  208MOL0     H28026  -0.607   3.214   1.396  0.0903  0.3277 -0.0241
  208MOL0     H28027  -0.646   3.037   1.263 -2.9088  0.9277 -1.7431
  208MOL0     H28028  -0.805   3.103   1.325  0.0244  0.5792  0.5473
  208MOL0     H28029  -0.796   2.847   1.327  0.1865  2.0406 -0.0632
  208MOL0     H28030  -0.662   2.857   1.443 -0.0052  0.8642  3.2176
  208MOL0     H28031  -1.030   2.949   1.385  2.1137  0.5316 -0.5733
  208MOL0     H28032  -1.250   2.935   1.570 -0.4426  1.5598 -0.5475
  208MOL0     H28033  -1.212   2.970   1.730 -0.2670 -2.2208 -0.4025
  208MOL0     H28034  -1.159   3.198   1.663  1.2045  2.0377 -1.7077
  208MOL0     H28035  -1.182   3.153   1.489 -1.4223 -0.3236  0.1625
  208MOL0     H28036  -1.427   3.088   1.571  2.2233 -0.5461  0.4529
  208MOL0     H28037  -1.378   3.249   1.516  0.0437 -4.0906 -3.4812
  208MOL0     H28038  -1.367   3.336   1.742 -1.0811  0.5368  1.3790
  208MOL0     H28039  -1.399   3.173   1.820  1.5848 -0.6830  0.2843
  208MOL0     H28040  -1.786   3.334   1.666  1.9240 -0.4146 -1.4328
  208MOL0     H28041  -1.919   3.490   1.790  1.1516 -0.8822 -1.5007
  208MOL0     H28042  -2.010   3.741   2.252 -0.2209 -4.6480  1.9362
  208MOL0     H28043  -2.212   3.817   2.342 -0.1764  1.8929  0.4189
  208MOL0     H28044  -2.529   3.716   2.343  0.8543  0.1453 -0.6357
  208MOL0     H28045  -2.424   3.849   2.400  1.5769  1.4992 -2.6838
  208MOL0     H28046  -2.599   4.010   2.341  0.9430 -0.8770 -2.1170
  208MOL0     H28047  -2.708   3.883   2.296 -0.2974 -2.5038  0.5104
  208MOL0     H28048  -2.722   3.784   2.497 -1.6874  1.2379 -2.7463
  208MOL0     H28049  -2.593   3.870   2.574  0.8601 -5.0662 -1.7356
  208MOL0     H28050  -2.840   4.020   2.481  1.5222 -1.5455 -2.1428
  208MOL0     H28051  -2.711   4.086   2.577 -2.6557  2.0035 -0.2830
  208MOL0     H28052  -2.877   4.033   2.744  3.1171 -0.4673  2.9711
  208MOL0     H28053  -2.753   3.898   2.739  1.8859  1.2412  0.1601
  208MOL0     H28054  -3.017   3.900   2.582 -1.7366 -3.7197 -0.3574
  208MOL0     H28055  -2.894   3.767   2.597 -0.0714  0.6047 -3.3298
  208MOL0     H28056  -3.068   3.866   2.834  0.1154 -0.4152 -0.3423
  208MOL0     H28057  -2.968   3.723   2.825 -0.5720  0.0031  1.1623
  208MOL0     H28058  -3.210   3.806   2.667  0.0177 -0.0532 -0.2028
  208MOL0     H28059  -3.138   3.655   2.617 -4.8157 -2.2735  0.2238
  208MOL0     H28060  -2.421   3.696   1.974  1.3321  0.1062 -2.5192
  208MOL0     H28061  -2.213   3.623   1.883 -0.5751  0.4392 -0.2854
  208MOL0     H28062  -1.612   3.482   2.104  0.8688 -2.3287  0.0506
  208MOL0     H28063  -1.488   3.332   1.970  0.8144  0.3965 -3.1466
  208MOL0     H28064  -0.008   3.503   1.717 -3.6432  2.3796  0.0870
  208MOL0     H28065   0.229   3.536   1.663  0.2437 -1.4070 -0.4919
  208MOL0     H28066   0.558   3.582   1.491 -0.4727  0.5956  0.1778
  208MOL0     H28067   0.804   3.569   1.462 -0.1406  1.2933  0.3944
  208MOL0     H28068   1.025   3.363   1.126 -0.0565 -3.2111  0.1451
  208MOL0     H28069   0.868   3.310   1.184 -0.3701 -0.5413  0.1952
  208MOL0     H28070   1.085   3.233   1.325  1.4168  1.2427 -0.9191
  208MOL0     H28071   0.975   3.325   1.422  0.2456 -0.0260 -0.6929
  208MOL0     H28072   1.157   3.506   1.286  0.0570 -0.4054  0.1575
  208MOL0     H28073   1.246   3.350   1.302  0.1640 -3.4485  3.5602
  208MOL0     H28074   1.111   3.508   1.534  0.3695  1.1194  0.4941
  208MOL0     H28075   1.194   3.356   1.549  0.4352  0.8972 -0.4197
  208MOL0     H28076   1.489   3.655   1.491  0.4310 -0.2809  0.6441
  208MOL0     H28077   0.766   3.511   1.048  0.1835 -1.4208 -0.3576
  208MOL0     H28078   0.459   3.424   0.992  0.8632 -2.2366  3.1328
  208MOL0     H28079   0.395   3.585   1.042  1.6207  1.8143  1.3290
  208MOL0     H28080   0.541   3.568   0.938  1.0999  2.4980  1.4924
  209MOL0     O28081   4.683   2.425   1.780  0.3547  0.3142 -0.3182
  209MOL0     C28082   4.637   2.323   1.733 -0.1829 -0.1158 -0.2673
  209MOL0     O28083   4.718   2.210   1.687 -0.2006 -0.1055  0.0447
  209MOL0     C28084   4.843   2.214   1.746 -0.0072  0.6073 -0.2123
  209MOL0     C28085   4.949   2.278   1.677  0.4058 -0.7099 -0.8539
  209MOL0     C28086   5.077   2.273   1.723 -0.0901  0.1660 -0.2841
  209MOL0     C28087   5.114   2.205   1.840  0.6530  0.1590 -0.1554
  209MOL0     O28088   5.247   2.191   1.869 -0.1216 -0.5508 -0.3477
  209MOL0     C28089   5.284   2.205   2.008 -0.0834 -0.3375 -0.1431
  209MOL0     C28090   5.429   2.250   2.043  1.3652  0.3406 -0.2353
  209MOL0     C28091   5.535   2.141   2.015  0.6855  0.2344  0.1176
  209MOL0     C28092   5.664   2.207   1.998 -0.1020 -0.1712  0.7972
  209MOL0     C28093   5.781   2.115   1.966 -0.1085  0.2485  0.1465
  209MOL0     C28094   5.906   2.211   1.936  0.8502  0.0460 -0.9139
  209MOL0     C28095   6.043   2.158   1.915 -0.2555 -0.5431  0.5046
  209MOL0     C28096   6.102   2.090   2.042  0.4383  0.2886 -0.9339
  209MOL0     N28097   6.232   2.035   2.001 -0.9151  0.2282  0.4756
  209MOL0     C28098   6.352   2.098   2.007 -0.0609 -1.4587 -0.6699
  209MOL0     C28099   6.434   2.029   1.935 -0.8326 -0.1223  0.2030
  209MOL0     C28100   6.558   2.091   1.871 -0.4975 -0.4692 -0.0581
  209MOL0     C28101   6.677   2.052   1.961  0.1996 -0.2558  0.9548
  209MOL0     C28102   6.694   1.905   1.956  0.1583  0.7459  0.0644
  209MOL0     C28103   6.803   1.853   2.042 -0.0530 -1.4074  0.2825
  209MOL0     O28104   6.791   1.714   2.067  0.0210  0.0006  0.8196
  209MOL0     C28105   6.899   1.632   2.091  0.8913  0.1364  0.1894
  209MOL0     C28106   7.025   1.675   2.120 -0.2921  0.2519  0.5959
  209MOL0     C28107   7.123   1.590   2.154 -0.0573 -0.0021 -0.7121
  209MOL0     C28108   7.110   1.446   2.129 -0.2682  0.1272  0.7364
  209MOL0     C28109   7.228   1.355   2.135 -0.3017 -0.0793 -0.9743
  209MOL0     O28110   7.226   1.226   2.099  0.1097 -1.0914 -0.8998
  209MOL0     C28111   7.333   1.142   2.133 -0.4881  0.0461  0.1866
  209MOL0     C28112   7.460   1.160   2.074  0.0100 -0.6485 -0.4610
  209MOL0     C28113   7.558   1.061   2.088 -0.3741 -1.3274 -0.6137
  209MOL0     C28114   7.534   0.950   2.171  0.5258  0.1722 -0.3194
  209MOL0     O28115   7.631   0.852   2.203 -0.2339 -0.9623 -0.5856
  209MOL0     C28116   7.741   0.819   2.118  0.2312  0.6033 -0.3764
  209MOL0     C28117   7.858   0.760   2.204  0.3307  0.2870  0.3536
  209MOL0     C28118   7.985   0.730   2.118 -0.4063  0.2536 -0.1555
  209MOL0     C28119   8.107   0.665   2.193 -0.2595 -0.7184  0.7162
  209MOL0     C28120   8.240   0.690   2.124  0.4410 -0.3040  0.1723
  209MOL0     C28121   8.352   0.622   2.193 -1.0814 -1.1823  0.0405
  209MOL0     C28122   8.364   0.464   2.189 -0.0154  0.8358 -0.2598
  209MOL0     C28123   8.431   0.416   2.318  0.4284  0.1636  0.2181
  209MOL0    Cl28124   8.610   0.420   2.295 -0.5687  0.2703  0.4208
  209MOL0     C28125   7.406   0.944   2.230 -0.6254  0.5639 -0.7324
  209MOL0     C28126   7.308   1.035   2.215  0.2020  0.2000  0.7326
  209MOL0     O28127   7.334   1.408   2.182 -0.2876 -0.0893  0.0597
  209MOL0     C28128   6.976   1.405   2.104 -0.6649 -0.1239 -0.4133
  209MOL0     C28129   6.872   1.498   2.081 -0.1944  0.1120  0.5598
  209MOL0     N28130   6.365   1.915   1.887  0.3543  0.3693  0.1188
  209MOL0     N28131   6.246   1.923   1.931  0.2706  0.0991 -0.1875
  209MOL0     C28132   5.010   2.144   1.914  0.2851 -0.9468  0.1247
  209MOL0     C28133   4.870   2.155   1.878 -0.5193  0.8330  0.2286
  209MOL0     C28134   4.493   2.312   1.700  0.5349  0.3157  0.3491
  209MOL0     C28135   4.447   2.188   1.642  0.6831 -0.2078  0.0196
  209MOL0     C28136   4.315   2.162   1.636  0.5123 -0.1993 -0.2170
  209MOL0     C28137   4.223   2.262   1.670  0.6640  0.5380  0.6876
  209MOL0     O28138   4.098   2.224   1.621  0.5217  0.1897 -0.0926
  209MOL0     C28139   4.018   2.310   1.536 -0.4529 -0.3430 -0.2520
  209MOL0     C28140   3.915   2.220   1.458 -0.2449  0.3121 -0.3922
  209MOL0     C28141   3.811   2.149   1.546  0.0480  0.2903 -0.1486
  209MOL0     C28142   3.698   2.081   1.460 -0.1214  0.3185  0.2718
  209MOL0     C28143   3.595   2.018   1.553 -1.0185 -1.1492  0.9098
  209MOL0     C28144   3.521   1.953   1.620 -0.1991  1.0183  0.4807
  209MOL0     C28145   4.257   2.385   1.722 -0.2843  0.5946 -0.0440
  209MOL0     C28146   4.390   2.404   1.750 -0.2875 -0.0156 -0.0544
  209MOL0     C28147   4.417   2.539   1.820 -0.5948 -0.9946  0.4244
  209MOL0     H28148   4.937   2.337   1.587 -1.3696  1.0409  0.4661
  209MOL0     H28149   5.152   2.311   1.655  0.3989 -0.2598  0.0156
  209MOL0     H28150   5.209   2.270   2.054  1.7882  0.8095  1.4498
  209MOL0     H28151   5.267   2.111   2.061 -0.6120  0.8406  1.9069
  209MOL0     H28152   5.431   2.281   2.148  0.4731  1.4255 -0.5224
  209MOL0     H28153   5.445   2.345   1.991 -0.0634  1.2569  0.9026
  209MOL0     H28154   5.509   2.086   1.925  1.1735 -1.4009  0.9338
  209MOL0     H28155   5.539   2.064   2.093 -2.6754  3.0081  3.4351
  209MOL0     H28156   5.655   2.273   1.911 -2.9941 -1.2284  0.1818
  209MOL0     H28157   5.689   2.267   2.086 -0.7228  4.4134 -1.8067
  209MOL0     H28158   5.808   2.048   2.048 -1.2428 -2.5648 -1.6650
  209MOL0     H28159   5.755   2.061   1.875 -0.5535  3.0286 -1.4869
  209MOL0     H28160   5.882   2.260   1.841 -0.0393 -0.5133 -0.9833
  209MOL0     H28161   5.909   2.289   2.013 -3.0244  0.3983 -0.9400
  209MOL0     H28162   6.113   2.239   1.891 -1.1301  0.1912  0.3581
  209MOL0     H28163   6.037   2.089   1.830 -2.9812  0.9081 -0.6102
  209MOL0     H28164   6.118   2.165   2.119 -3.0457  0.6710 -0.4347
  209MOL0     H28165   6.033   2.016   2.083  1.5919 -0.5054 -0.3516
  209MOL0     H28166   6.375   2.202   2.030  1.6444 -1.0176 -3.8486
  209MOL0     H28167   6.576   2.047   1.772 -0.0621  0.4450 -0.3886
  209MOL0     H28168   6.554   2.199   1.861 -0.5105 -0.5632 -1.2841
  209MOL0     H28169   6.767   2.096   1.918 -0.5680  1.6710  1.1988
  209MOL0     H28170   6.660   2.087   2.063  0.1450  2.1984  0.1632
  209MOL0     H28171   6.712   1.859   1.859  2.2823 -1.3399  1.3278
  209MOL0     H28172   6.607   1.863   2.007 -0.3435  2.5720  0.8141
  209MOL0     H28173   6.812   1.908   2.137  1.2340 -0.0806 -0.5739
  209MOL0     H28174   6.890   1.861   1.977 -0.4490 -4.0338 -0.6811
  209MOL0     H28175   7.044   1.782   2.128  2.0513 -0.0659 -0.0818
  209MOL0     H28176   7.214   1.635   2.192 -2.3862  5.1431 -0.4274
  209MOL0     H28177   7.462   1.247   2.010 -1.8784 -0.3043 -0.1127
  209MOL0     H28178   7.655   1.082   2.043  0.3511 -1.7032  0.7243
  209MOL0     H28179   7.701   0.741   2.053 -1.0685 -1.7183  2.9262
  209MOL0     H28180   7.770   0.895   2.046 -2.3371  0.6561 -1.4825
  209MOL0     H28181   7.876   0.828   2.288  2.1129  0.2962 -0.0069
  209MOL0     H28182   7.810   0.670   2.245 -2.2417  2.2763  2.0759
  209MOL0     H28183   7.953   0.663   2.037 -0.9585  1.5737 -1.0506
  209MOL0     H28184   8.020   0.825   2.076  1.3821 -0.9410 -1.5423
  209MOL0     H28185   8.102   0.555   2.196 -0.3576 -0.8256 -1.4066
  209MOL0     H28186   8.106   0.706   2.294  0.8137 -1.7142  1.1553
  209MOL0     H28187   8.257   0.796   2.100 -0.5639 -0.5330 -1.7550
  209MOL0     H28188   8.226   0.641   2.027 -0.2554  1.7386 -0.8150
  209MOL0     H28189   8.445   0.646   2.141 -0.8872 -4.2501 -1.2552
  209MOL0     H28190   8.353   0.662   2.295 -0.7077  1.7300 -1.0050
  209MOL0     H28191   8.401   0.432   2.091 -0.9681  0.6897 -0.5811
  209MOL0     H28192   8.261   0.428   2.181  0.2750  0.1307 -1.0204
  209MOL0     H28193   8.402   0.470   2.408  2.3734 -1.5137  1.9632
  209MOL0     H28194   8.397   0.316   2.344 -2.6228  1.3047  1.1308
  209MOL0     H28195   7.387   0.857   2.293 -0.3368  1.6323  0.8894
  209MOL0     H28196   7.214   1.019   2.267 -2.2132  0.7084 -3.1259
  209MOL0     H28197   6.953   1.298   2.105 -2.0035  0.1056 -1.9069
  209MOL0     H28198   6.773   1.459   2.061  0.1965  0.2056 -1.7501
  209MOL0     H28199   5.040   2.099   2.007 -1.2997  1.2359  1.7989
  209MOL0     H28200   4.786   2.120   1.937 -1.4689  0.0661 -1.5051
  209MOL0     H28201   4.512   2.110   1.604 -1.2658 -2.1270  0.4454
  209MOL0     H28202   4.286   2.062   1.604 -0.8279 -0.4088  1.4723
  209MOL0     H28203   4.076   2.367   1.462 -0.3408 -0.6634 -0.4111
  209MOL0     H28204   3.975   2.394   1.592  0.8690  0.0647  0.2153
  209MOL0     H28205   3.977   2.149   1.403 -0.7330  0.8863 -1.7021
  209MOL0     H28206   3.857   2.290   1.398  0.8474  1.4995 -0.0983
  209MOL0     H28207   3.759   2.215   1.616  0.1578  0.7638 -0.5121
  209MOL0     H28208   3.856   2.068   1.605 -0.5022 -0.8718 -1.2556
  209MOL0     H28209   3.654   2.165   1.405 -1.3380 -0.2302  0.3627
  209MOL0     H28210   3.737   1.999   1.398 -0.7905 -0.1893  0.5123
  209MOL0     H28211   3.452   1.894   1.676 -0.4642 -0.8532 -1.6898
  209MOL0     H28212   4.175   2.454   1.740 -0.5177 -0.1246  1.9403
  209MOL0     H28213   4.326   2.578   1.866  0.5322  0.9260  1.1313
  209MOL0     H28214   4.483   2.535   1.907 -0.0314  1.3148  0.1527
  209MOL0     H28215   4.461   2.608   1.748 -0.0237 -0.7485  1.0021
  210MOL0     O28216   4.037   3.254   2.305 -0.2546 -0.3123 -0.5457
  210MOL0     C28217   4.010   3.141   2.334  0.2555  0.0616  0.4017
  210MOL0     O28218   4.053   3.032   2.260 -0.2076 -0.8347 -0.5617
  210MOL0     C28219   4.181   3.026   2.200 -0.1447 -0.9022 -0.3067
  210MOL0     C28220   4.291   3.109   2.223  0.4015 -0.2852  0.1029
  210MOL0     C28221   4.425   3.083   2.168  0.2958 -0.2080  0.3097
  210MOL0     C28222   4.432   2.968   2.078 -1.0402 -0.8094  0.6783
  210MOL0     O28223   4.543   2.931   2.007 -0.0911  0.0916 -0.3649
  210MOL0     C28224   4.680   2.966   2.050  0.1700 -0.4615  0.0209
  210MOL0     C28225   4.771   2.956   1.920 -0.4106  0.2695 -0.3354
  210MOL0     C28226   4.843   2.822   1.889 -0.2173  0.6924 -0.6411
  210MOL0     C28227   4.948   2.840   1.777  0.1294 -0.0567  0.5348
  210MOL0     C28228   4.980   2.700   1.720 -0.5314  0.1482  0.0909
  210MOL0     C28229   5.072   2.605   1.805  0.3297  1.0008  0.3376
  210MOL0     C28230   5.194   2.670   1.866  0.6685 -0.5298 -0.0782
  210MOL0     C28231   5.286   2.575   1.955  0.2145 -0.3455  0.5101
  210MOL0     N28232   5.260   2.596   2.100 -0.7841  0.1062 -0.0151
  210MOL0     C28233   5.139   2.586   2.162 -0.2037 -0.8136 -0.6944
  210MOL0     C28234   5.158   2.650   2.280 -0.5425 -0.7823 -0.1165
  210MOL0     C28235   5.072   2.672   2.398 -0.3534 -0.5926  0.2330
  210MOL0     C28236   5.098   2.790   2.484 -0.1148 -0.1530 -0.9507
  210MOL0     C28237   4.987   2.806   2.604  0.8203  0.0898  0.0485
  210MOL0     C28238   4.986   2.689   2.706  0.0100  0.3387  0.7617
  210MOL0     O28239   5.090   2.698   2.803  1.0832 -0.4903 -0.0276
  210MOL0     C28240   5.178   2.600   2.821  0.1223 -0.0372 -0.4104
  210MOL0     C28241   5.197   2.485   2.744  0.2846 -0.3611  0.6437
  210MOL0     C28242   5.281   2.388   2.790  0.5510  0.9364  0.0302
  210MOL0     C28243   5.376   2.411   2.889 -0.1189 -0.6325 -0.5912
  210MOL0     C28244   5.482   2.320   2.927 -0.2194 -0.0756  0.3138
  210MOL0     O28245   5.516   2.234   2.825  0.3409 -0.0845  0.2046
  210MOL0     C28246   5.617   2.145   2.843 -0.1557 -0.4407  0.1371
  210MOL0     C28247   5.623   2.059   2.947  0.3546 -0.1105 -0.2052
  210MOL0     C28248   5.727   1.966   2.963  0.1279 -0.2308 -0.2092
  210MOL0     C28249   5.826   1.964   2.859 -0.4115 -0.6371 -0.5317
  210MOL0     O28250   5.932   1.880   2.856  0.4808 -0.0602  0.9411
  210MOL0     C28251   6.011   1.885   2.973  0.0082 -0.2703 -1.1229
  210MOL0     C28252   5.988   1.760   3.063  0.4413  0.9092 -0.1212
  210MOL0     C28253   6.094   1.730   3.173 -0.3754  0.0630 -0.2095
  210MOL0     C28254   6.080   1.593   3.241 -0.6376 -0.5174  0.7679
  210MOL0     C28255   6.214   1.539   3.275 -1.3487  0.7896 -0.0227
  210MOL0     C28256   6.202   1.387   3.333  0.9216 -0.4521  0.0028
  210MOL0     C28257   6.329   1.306   3.378 -0.9137  0.4628 -0.0328
  210MOL0     C28258   6.413   1.358   3.498 -0.1774  0.5626  0.0263
  210MOL0    Cl28259   6.551   1.246   3.510 -0.0378  0.0714  0.1211
  210MOL0     C28260   5.812   2.045   2.748  0.4710  0.1216  0.0022
  210MOL0     C28261   5.702   2.129   2.738 -0.0439  0.3210 -0.3802
  210MOL0     O28262   5.518   2.309   3.045  0.2080 -0.0583  0.3644
  210MOL0     C28263   5.366   2.536   2.959  0.0566 -0.2214  0.4161
  210MOL0     C28264   5.264   2.623   2.933 -0.0959  0.6234 -0.6091
  210MOL0     N28265   5.281   2.695   2.280 -0.3341 -0.7797  0.1164
  210MOL0     N28266   5.346   2.674   2.169 -0.6376  0.2767  0.1007
  210MOL0     C28267   4.328   2.880   2.064  0.6683 -0.1996  1.1734
  210MOL0     C28268   4.203   2.908   2.113  0.1644 -0.8207  0.4697
  210MOL0     C28269   3.904   3.104   2.441 -0.6742 -0.4076  0.4743
  210MOL0     C28270   3.855   2.962   2.454  0.3294  1.2150 -0.1260
  210MOL0     C28271   3.745   2.929   2.535  0.1573 -0.5538  0.7779
  210MOL0     C28272   3.659   3.030   2.582 -0.5336  0.2961 -0.6426
  210MOL0     O28273   3.540   3.003   2.640  0.9136 -0.1014 -0.2783
  210MOL0     C28274   3.489   2.864   2.665  0.6661 -0.4300  0.1389
  210MOL0     C28275   3.336   2.871   2.708  0.7304 -0.0171  1.2039
  210MOL0     C28276   3.262   2.912   2.582  0.5288 -0.5029 -0.3260
  210MOL0     C28277   3.107   2.898   2.603 -0.5803  0.3166  0.6084
  210MOL0     C28278   3.044   2.935   2.482 -0.4499 -0.7989  0.9658
  210MOL0     C28279   3.003   2.971   2.376 -0.4864 -0.0820 -0.4265
  210MOL0     C28280   3.704   3.165   2.573  0.3606  0.5214 -0.4658
  210MOL0     C28281   3.831   3.198   2.517  0.8530 -0.8469 -0.3398
  210MOL0     C28282   3.870   3.337   2.522  0.3760  0.7368 -0.3952
  210MOL0     H28283   4.284   3.195   2.289  0.5537  0.3184 -0.6504
  210MOL0     H28284   4.511   3.143   2.195  0.1619 -0.8424  2.3580
  210MOL0     H28285   4.693   3.069   2.084  3.3515 -0.6517 -0.3246
  210MOL0     H28286   4.714   2.898   2.128  3.7606  0.6342 -0.4129
  210MOL0     H28287   4.856   3.022   1.938  0.3021 -0.7680  0.1717
  210MOL0     H28288   4.710   2.986   1.835 -0.9036 -4.3801 -1.8733
  210MOL0     H28289   4.767   2.747   1.866 -0.2400  0.5105  0.0206
  210MOL0     H28290   4.890   2.793   1.983  0.3374  1.0597 -0.7955
  210MOL0     H28291   4.900   2.899   1.698 -2.0326  2.0688  3.2309
  210MOL0     H28292   5.040   2.892   1.803  1.8313 -2.4309 -0.3419
  210MOL0     H28293   4.891   2.639   1.700  0.3201 -2.7137  3.9504
  210MOL0     H28294   5.042   2.711   1.631  1.9131  0.4558  1.7383
  210MOL0     H28295   5.025   2.577   1.900 -1.5746  2.0639 -0.2377
  210MOL0     H28296   5.111   2.523   1.743  1.1235 -0.5031  2.6799
  210MOL0     H28297   5.169   2.756   1.928  1.7290 -0.5118  0.3514
  210MOL0     H28298   5.255   2.710   1.784 -0.3137  1.0040 -0.0988
  210MOL0     H28299   5.261   2.471   1.930 -1.9102  0.0811  0.6956
  210MOL0     H28300   5.393   2.592   1.941 -0.3036  1.2245 -2.2863
  210MOL0     H28301   5.049   2.537   2.127 -3.1751  1.3016  3.2436
  210MOL0     H28302   4.972   2.700   2.362 -1.7859 -0.4968  3.8749
  210MOL0     H28303   5.071   2.574   2.446 -2.6338 -1.6305 -1.7187
  210MOL0     H28304   5.189   2.770   2.541 -1.4155  1.8109  2.1300
  210MOL0     H28305   5.103   2.885   2.430  1.1799 -0.0884 -0.7540
  210MOL0     H28306   4.890   2.812   2.553  0.1625  0.1517  1.2617
  210MOL0     H28307   5.004   2.894   2.666 -0.5163  0.4588 -0.0706
  210MOL0     H28308   4.974   2.592   2.658 -1.6936 -1.2187  4.0312
  210MOL0     H28309   4.894   2.697   2.764 -1.8094 -4.4624 -1.0235
  210MOL0     H28310   5.135   2.465   2.658  0.7052  3.6037 -0.7988
  210MOL0     H28311   5.296   2.293   2.740  2.9398  0.8648  0.7518
  210MOL0     H28312   5.545   2.076   3.021  0.0870  1.1615 -0.7475
  210MOL0     H28313   5.735   1.891   3.041  0.1530 -1.9158 -1.7581
  210MOL0     H28314   6.117   1.879   2.947  1.2481  0.7114  2.9385
  210MOL0     H28315   5.999   1.978   3.030  2.2935  0.9479 -2.4850
  210MOL0     H28316   5.886   1.758   3.103 -0.1628 -0.8037 -1.5807
  210MOL0     H28317   5.991   1.673   2.996 -1.3017 -1.8664  3.0594
  210MOL0     H28318   6.193   1.742   3.128 -0.6432  0.7521 -0.6244
  210MOL0     H28319   6.089   1.810   3.248 -0.6492 -1.6087  1.6507
  210MOL0     H28320   6.035   1.523   3.170 -1.5724  0.6077  0.2186
  210MOL0     H28321   6.011   1.594   3.326 -2.8600  0.9674 -0.9197
  210MOL0     H28322   6.263   1.595   3.355 -0.2795 -2.3692  1.6854
  210MOL0     H28323   6.282   1.532   3.189 -0.9143  1.4283  0.2590
  210MOL0     H28324   6.124   1.389   3.410  2.3547 -0.4181  1.5207
  210MOL0     H28325   6.166   1.322   3.253 -3.6618 -0.4091  1.7029
  210MOL0     H28326   6.402   1.301   3.297 -0.8119 -3.7717  0.0867
  210MOL0     H28327   6.305   1.201   3.396  1.3518 -0.4311 -1.6572
  210MOL0     H28328   6.455   1.458   3.487 -2.1617  1.4709  0.3833
  210MOL0     H28329   6.355   1.355   3.591 -1.1633  0.9277 -0.5704
  210MOL0     H28330   5.882   2.049   2.665  0.2606  4.2874 -0.1423
  210MOL0     H28331   5.692   2.197   2.654  1.2088 -0.9133 -1.5749
  210MOL0     H28332   5.435   2.569   3.037 -0.8066  2.1761  0.2530
  210MOL0     H28333   5.255   2.708   3.000  3.5991  0.9655 -0.3534
  210MOL0     H28334   4.357   2.795   2.003 -1.5124 -1.5980  1.9646
  210MOL0     H28335   4.135   2.831   2.078 -0.6345 -0.2321  0.7001
  210MOL0     H28336   3.899   2.880   2.399  1.6151  1.2615  0.7815
  210MOL0     H28337   3.704   2.829   2.535 -1.9963  0.2475 -0.4256
  210MOL0     H28338   3.539   2.821   2.752 -1.3440  1.7672  2.5387
  210MOL0     H28339   3.495   2.793   2.582 -2.9004 -0.0408 -0.6192
  210MOL0     H28340   3.333   2.941   2.792  3.5756 -0.8890  2.1263
  210MOL0     H28341   3.312   2.769   2.738  1.7526 -0.2500  1.2488
  210MOL0     H28342   3.291   2.853   2.494 -1.0675  0.0870 -1.2799
  210MOL0     H28343   3.292   3.017   2.570  1.3958 -0.3562  2.4805
  210MOL0     H28344   3.091   2.791   2.620  2.2328 -0.6686 -2.0489
  210MOL0     H28345   3.062   2.954   2.686 -1.3942 -0.8897  1.0101
  210MOL0     H28346   2.960   3.001   2.283 -0.1797 -0.4945 -0.7081
  210MOL0     H28347   3.641   3.242   2.617  0.5202 -0.8361  2.3597
  210MOL0     H28348   3.979   3.340   2.522  0.4234 -0.5904 -0.1230
  210MOL0     H28349   3.836   3.389   2.432  2.3723  0.7996 -1.1661
  210MOL0     H28350   3.829   3.391   2.608 -0.9103  2.9207 -2.2435
  211MOL0     O28351   6.044   7.656   6.749 -0.8104  1.2308 -0.3369
  211MOL0     C28352   5.931   7.609   6.765  0.2421  0.8375 -0.6415
  211MOL0     O28353   5.878   7.505   6.703  0.0916  0.2561 -0.0924
  211MOL0     C28354   5.934   7.467   6.587 -0.4935  0.6549 -0.1090
  211MOL0     C28355   6.047   7.384   6.576 -0.3509 -0.4888 -1.0526
  211MOL0     C28356   6.088   7.339   6.446  0.1301  0.4622  0.1154
  211MOL0     C28357   6.015   7.357   6.331 -0.0055 -0.2869  0.2244
  211MOL0     O28358   6.055   7.294   6.217  0.1356 -0.4389 -0.0793
  211MOL0     C28359   5.998   7.340   6.092  0.8806 -0.8294  0.0173
  211MOL0     C28360   6.044   7.491   6.051 -0.0298 -0.4950  0.4459
  211MOL0     C28361   6.195   7.500   6.042 -0.6842 -0.3323 -0.7761
  211MOL0     C28362   6.237   7.639   6.006  0.0228  0.0413 -1.0359
  211MOL0     C28363   6.368   7.654   5.954 -0.2579 -0.3338  0.4093
  211MOL0     C28364   6.467   7.663   6.071 -0.8006 -0.1409  0.0176
  211MOL0     C28365   6.604   7.642   6.032  0.0198 -0.1296 -0.4233
  211MOL0     C28366   6.692   7.603   6.161  0.5276  0.0360  0.5362
  211MOL0     N28367   6.830   7.633   6.118 -0.2477  0.0973 -0.3907
  211MOL0     C28368   6.891   7.750   6.124 -0.2299  0.7707  0.2749
  211MOL0     C28369   7.014   7.725   6.063 -0.1852 -0.7271  0.0998
  211MOL0     C28370   7.128   7.822   6.051  1.0659 -0.8126  0.2472
  211MOL0     C28371   7.174   7.838   5.912 -0.5387  0.7118 -0.7733
  211MOL0     C28372   7.276   7.955   5.902  0.2205 -0.4568  0.4166
  211MOL0     C28373   7.378   7.909   5.797  1.3233 -0.4993  0.0227
  211MOL0     O28374   7.482   8.015   5.793  0.8642  0.7684 -0.0417
  211MOL0     C28375   7.605   7.969   5.751 -0.2279  0.0150  0.0374
  211MOL0     C28376   7.681   7.890   5.836 -0.4823  0.1972  0.2424
  211MOL0     C28377   7.806   7.835   5.798 -0.5726 -0.4338  1.1345
  211MOL0     C28378   7.868   7.897   5.682  1.0670 -0.5784 -0.7530
  211MOL0     C28379   8.012   7.875   5.664 -0.1841 -0.0200 -1.2796
  211MOL0     O28380   8.083   7.982   5.627 -0.4463 -0.0141 -0.1306
  211MOL0     C28381   8.222   7.979   5.617 -0.3513  1.2223 -0.0817
  211MOL0     C28382   8.309   7.887   5.683 -0.5675 -0.1517  1.2739
  211MOL0     C28383   8.448   7.904   5.675 -1.3477 -0.5075 -0.0455
  211MOL0     C28384   8.506   8.015   5.619 -0.3766  0.1863  0.1971
  211MOL0     O28385   8.641   8.028   5.631  0.9476  0.0607 -0.0116
  211MOL0     C28386   8.711   8.145   5.570  0.0929  0.7998 -0.3571
  211MOL0     C28387   8.859   8.108   5.581 -0.2702 -0.3269  0.4491
  211MOL0     C28388   8.939   8.234   5.534 -0.0734  0.0624 -0.2360
  211MOL0     C28389   8.905   8.359   5.620 -0.0615 -0.1041  0.3427
  211MOL0     C28390   9.003   8.487   5.625 -0.8288 -1.0594  1.0769
  211MOL0     C28391   9.142   8.446   5.664  0.1279  0.2599 -0.2619
  211MOL0     C28392   9.177   8.434   5.816 -0.6392  0.0587  0.3153
  211MOL0     C28393   9.173   8.557   5.904 -0.4251 -0.3441  0.3793
  211MOL0    Cl28394   9.273   8.679   5.814 -0.2076 -0.5177 -0.6748
  211MOL0     C28395   8.423   8.112   5.546  0.4645 -0.1685 -0.3732
  211MOL0     C28396   8.280   8.083   5.547 -0.2055 -0.2395  0.5595
  211MOL0     O28397   8.057   7.764   5.685 -0.0228  0.3664  0.6319
  211MOL0     C28398   7.793   7.991   5.601  0.4413 -0.1630 -0.1524
  211MOL0     C28399   7.658   8.011   5.632 -0.0160  0.1824  0.3382
  211MOL0     N28400   7.018   7.591   6.032 -0.1979  0.6578  0.0068
  211MOL0     N28401   6.910   7.535   6.074  0.6215 -0.0660  0.2168
  211MOL0     C28402   5.897   7.433   6.353  0.3348  0.2998  0.3744
  211MOL0     C28403   5.859   7.489   6.474  0.8026 -0.2828 -0.5483
  211MOL0     C28404   5.854   7.670   6.871  0.6435  0.0267  0.5163
  211MOL0     C28405   5.768   7.582   6.941 -0.0180 -0.5040 -0.3921
  211MOL0     C28406   5.709   7.629   7.060 -0.0037 -0.6990 -0.4255
  211MOL0     C28407   5.708   7.761   7.102  0.1529  0.5675  0.4697
  211MOL0     O28408   5.651   7.796   7.219  0.1383 -0.1212 -0.3057
  211MOL0     C28409   5.644   7.932   7.262 -0.0113  0.4188  0.2979
  211MOL0     C28410   5.751   7.982   7.365 -0.0316  0.0579 -0.8190
  211MOL0     C28411   5.721   7.921   7.504 -0.6591 -0.7560 -0.0694
  211MOL0     C28412   5.708   7.767   7.501 -0.5674  0.8701 -0.9566
  211MOL0     C28413   5.715   7.725   7.641 -0.7951  0.9981 -0.5282
  211MOL0     C28414   5.753   7.686   7.754  0.9393  0.1382 -0.1879
  211MOL0     C28415   5.782   7.849   7.022 -0.4126 -0.0030  0.3316
  211MOL0     C28416   5.860   7.807   6.902  0.5562 -0.0652 -0.4042
  211MOL0     C28417   5.950   7.906   6.831  0.0670  0.4669  0.2727
  211MOL0     H28418   6.103   7.361   6.666  0.8488  2.7489 -0.8524
  211MOL0     H28419   6.181   7.284   6.433 -0.3573 -0.4021  0.2209
  211MOL0     H28420   6.030   7.279   6.006 -1.1378 -0.2961 -1.1613
  211MOL0     H28421   5.889   7.335   6.100  0.7877  2.4503  2.8670
  211MOL0     H28422   6.003   7.556   6.129  0.2321 -1.2859  1.2504
  211MOL0     H28423   5.994   7.518   5.957  1.3444 -2.9215 -1.0741
  211MOL0     H28424   6.246   7.425   5.981  0.6339 -0.9646  0.9907
  211MOL0     H28425   6.219   7.478   6.147 -2.5024  0.5850 -0.1234
  211MOL0     H28426   6.158   7.679   5.942 -0.1474  0.3916 -0.6160
  211MOL0     H28427   6.221   7.699   6.096 -1.4620 -1.1889 -0.4394
  211MOL0     H28428   6.396   7.571   5.889 -1.9765 -0.5691 -0.0947
  211MOL0     H28429   6.371   7.734   5.879 -0.9817  0.8650  1.6178
  211MOL0     H28430   6.452   7.758   6.123 -1.6830 -1.0688  1.5628
  211MOL0     H28431   6.454   7.575   6.136  0.3922  0.1752  0.7256
  211MOL0     H28432   6.632   7.737   5.985 -2.2255  0.9812  0.3083
  211MOL0     H28433   6.604   7.574   5.947 -1.8354 -0.1033 -0.4774
  211MOL0     H28434   6.653   7.655   6.249 -1.3179 -0.8355  0.2870
  211MOL0     H28435   6.676   7.497   6.184  2.2177  0.2836  3.3339
  211MOL0     H28436   6.847   7.841   6.164 -2.7066  0.3049 -1.2060
  211MOL0     H28437   7.091   7.918   6.086 -1.9023 -1.1481 -1.6619
  211MOL0     H28438   7.209   7.788   6.117 -0.9295 -2.0780  2.1724
  211MOL0     H28439   7.208   7.742   5.873  2.9476  2.5322 -2.6243
  211MOL0     H28440   7.090   7.862   5.846 -0.7045 -0.0344 -0.8461
  211MOL0     H28441   7.337   7.980   5.990 -0.4810 -0.1303  0.8229
  211MOL0     H28442   7.220   8.046   5.877  0.1987 -1.0427 -1.8722
  211MOL0     H28443   7.333   7.902   5.697 -0.0735 -1.4562  0.7018
  211MOL0     H28444   7.413   7.810   5.827 -3.3870 -2.1024  1.1165
  211MOL0     H28445   7.647   7.873   5.937  0.6071 -0.1363  0.5661
  211MOL0     H28446   7.873   7.769   5.852  2.7700  1.8887  0.1509
  211MOL0     H28447   8.276   7.801   5.740 -1.2089 -1.0186 -0.3622
  211MOL0     H28448   8.518   7.834   5.720 -0.2249  0.8962  0.4903
  211MOL0     H28449   8.690   8.177   5.468  1.5003  2.7241 -0.1185
  211MOL0     H28450   8.693   8.232   5.634  0.7984  1.1277 -0.5967
  211MOL0     H28451   8.881   8.077   5.684  3.0169 -0.1056 -0.0730
  211MOL0     H28452   8.883   8.022   5.519 -0.1879 -0.5084  0.7305
  211MOL0     H28453   9.046   8.211   5.539 -0.4670 -2.1251 -0.7147
  211MOL0     H28454   8.905   8.237   5.430 -1.8722 -2.5848  0.1720
  211MOL0     H28455   8.888   8.334   5.725 -1.8519  0.8316  0.3061
  211MOL0     H28456   8.808   8.393   5.581 -0.7517 -1.5460  0.7317
  211MOL0     H28457   8.971   8.570   5.688 -1.2264 -0.2441 -0.1537
  211MOL0     H28458   9.006   8.536   5.527 -1.0578 -0.2009  1.4897
  211MOL0     H28459   9.171   8.349   5.622  2.4044  0.9003 -0.3006
  211MOL0     H28460   9.204   8.525   5.620 -2.1752  0.8591 -2.6953
  211MOL0     H28461   9.278   8.392   5.818 -1.1346 -1.1907  2.6976
  211MOL0     H28462   9.108   8.357   5.852  0.7067 -1.4314 -0.1949
  211MOL0     H28463   9.067   8.579   5.910 -0.2752  1.2531 -1.5185
  211MOL0     H28464   9.216   8.544   6.004  1.2801 -1.0627 -0.3882
  211MOL0     H28465   8.455   8.203   5.497 -1.1063  1.1568  0.9483
  211MOL0     H28466   8.210   8.158   5.512 -0.3103 -0.2445  0.7599
  211MOL0     H28467   7.838   8.039   5.515  0.3354 -1.5072 -0.9965
  211MOL0     H28468   7.589   8.061   5.565 -1.3457 -1.5109  0.3928
  211MOL0     H28469   5.828   7.437   6.270 -1.5368 -1.0567  1.7695
  211MOL0     H28470   5.764   7.542   6.470 -0.7807 -2.6449  1.9054
  211MOL0     H28471   5.765   7.477   6.912 -3.6732 -0.5979 -0.1495
  211MOL0     H28472   5.661   7.552   7.120  0.9365  1.1652  3.0016
  211MOL0     H28473   5.542   7.944   7.299 -0.5415 -3.8448  0.6772
  211MOL0     H28474   5.636   7.995   7.172 -3.9436  0.1021  0.2526
  211MOL0     H28475   5.765   8.089   7.380  2.5846  0.0087 -2.2997
  211MOL0     H28476   5.848   7.941   7.333  0.0917 -2.3779  2.2301
  211MOL0     H28477   5.624   7.966   7.529 -0.6471 -1.2416  0.8752
  211MOL0     H28478   5.795   7.954   7.577 -1.2798  3.1907 -0.9674
  211MOL0     H28479   5.617   7.715   7.469 -0.1218 -0.0578 -0.7454
  211MOL0     H28480   5.798   7.728   7.453  0.9694 -2.7160  4.0602
  211MOL0     H28481   5.768   7.634   7.847  2.2025  1.5604  0.4300
  211MOL0     H28482   5.802   7.950   7.057 -0.3569  1.0128 -2.3538
  211MOL0     H28483   5.948   7.902   6.722  3.4082 -0.1988  0.1523
  211MOL0     H28484   5.928   8.009   6.863  0.9188  0.8574 -0.3593
  211MOL0     H28485   6.055   7.886   6.853  0.6662  1.2034 -1.7157
  212MOL0     O28486   7.704   3.956   5.635  0.0491 -0.0341 -0.1279
  212MOL0     C28487   7.664   3.970   5.751 -0.5840 -0.2206  0.5474
  212MOL0     O28488   7.740   3.940   5.851  0.3454  0.1580  0.1410
  212MOL0     C28489   7.883   3.945   5.864 -0.0025 -0.4752  0.1755
  212MOL0     C28490   7.934   3.931   5.996  0.2999 -0.0564  0.2358
  212MOL0     C28491   8.064   3.959   6.015 -0.2083 -0.0227 -0.2671
  212MOL0     C28492   8.154   3.981   5.908  0.8696  0.4028 -0.4853
  212MOL0     O28493   8.284   4.022   5.908 -0.1665  0.2397  0.7487
  212MOL0     C28494   8.366   3.958   6.017 -0.1905  0.4892  0.2722
  212MOL0     C28495   8.367   3.801   5.998 -0.6086 -0.3628  0.0150
  212MOL0     C28496   8.462   3.766   5.885  0.5701 -0.2613  0.5997
  212MOL0     C28497   8.408   3.787   5.743 -0.2807 -0.0173 -0.0721
  212MOL0     C28498   8.491   3.707   5.640  0.7403 -0.5472  0.0103
  212MOL0     C28499   8.471   3.732   5.486 -0.9713 -0.4111 -0.3598
  212MOL0     C28500   8.583   3.655   5.410  0.3262  0.8124 -0.1993
  212MOL0     C28501   8.603   3.674   5.263 -0.2579  0.3507  0.2990
  212MOL0     N28502   8.481   3.670   5.177 -0.9245 -0.4776  0.1931
  212MOL0     C28503   8.418   3.783   5.127  0.9545  0.4686 -0.0170
  212MOL0     C28504   8.313   3.739   5.048 -0.8887  1.4502  0.6499
  212MOL0     C28505   8.222   3.827   4.968  0.5000  0.4053 -0.1429
  212MOL0     C28506   8.092   3.845   5.035 -0.1582  0.0411  0.2784
  212MOL0     C28507   8.093   3.966   5.130 -0.4799  0.4070 -0.1913
  212MOL0     C28508   7.953   3.998   5.195 -0.7739  0.7921 -0.7403
  212MOL0     O28509   7.852   4.005   5.103  0.9213  0.1065  0.0649
  212MOL0     C28510   7.720   4.021   5.130 -1.0145  0.0149  0.7395
  212MOL0     C28511   7.664   4.015   5.255  0.4159 -0.6235 -0.1999
  212MOL0     C28512   7.530   4.050   5.274 -0.1321 -0.1837  0.2754
  212MOL0     C28513   7.439   4.067   5.172 -0.1383  0.0956  0.0956
  212MOL0     C28514   7.296   4.076   5.191  0.1245 -0.8388 -0.3606
  212MOL0     O28515   7.250   4.083   5.318 -0.4159 -0.2946  0.2367
  212MOL0     C28516   7.116   4.113   5.338  0.1202 -0.2057 -0.8240
  212MOL0     C28517   7.071   4.249   5.333 -0.8106  0.3782  0.2977
  212MOL0     C28518   6.936   4.279   5.337 -0.3694  0.4449 -0.1811
  212MOL0     C28519   6.837   4.181   5.371 -0.8051  1.1419 -0.1214
  212MOL0     O28520   6.714   4.215   5.402  0.7787  0.4277  0.1495
  212MOL0     C28521   6.616   4.163   5.312  0.4470  0.5345  0.2424
  212MOL0     C28522   6.569   4.273   5.213 -0.4113 -0.1698 -0.6641
  212MOL0     C28523   6.542   4.410   5.280 -0.1698  0.8738  0.2723
  212MOL0     C28524   6.469   4.502   5.173  0.2020  1.4244  0.1292
  212MOL0     C28525   6.466   4.640   5.219 -0.4662 -0.3456 -0.7662
  212MOL0     C28526   6.605   4.698   5.241  0.1506 -0.6158  0.3424
  212MOL0     C28527   6.619   4.855   5.213 -0.0166  0.1399  0.3775
  212MOL0     C28528   6.512   4.934   5.301  0.2552  0.5735 -0.3288
  212MOL0    Cl28529   6.512   4.895   5.477 -0.2320  0.2312  0.3432
  212MOL0     C28530   6.889   4.049   5.387  1.0074  0.5596  0.2906
  212MOL0     C28531   7.021   4.015   5.366 -0.8425  0.6236  0.0539
  212MOL0     O28532   7.230   4.083   5.085  0.0079  0.5494  0.2329
  212MOL0     C28533   7.498   4.073   5.045  0.5782  0.2308 -0.4284
  212MOL0     C28534   7.634   4.046   5.022 -0.4780  0.1019  0.1916
  212MOL0     N28535   8.316   3.599   5.059  0.3046 -0.1896 -0.1838
  212MOL0     N28536   8.421   3.556   5.131  1.0166 -1.0141 -0.4328
  212MOL0     C28537   8.102   3.984   5.779  0.1523 -0.0962 -0.1701
  212MOL0     C28538   7.970   3.962   5.762  0.5284  0.1401 -0.4848
  212MOL0     C28539   7.521   4.015   5.764  0.0556  0.3948 -0.5652
  212MOL0     C28540   7.463   4.105   5.663 -0.4965  0.1137 -0.3621
  212MOL0     C28541   7.333   4.152   5.670 -0.0353  0.7205  0.2481
  212MOL0     C28542   7.261   4.117   5.785  0.3768  0.3932  0.1304
  212MOL0     O28543   7.137   4.180   5.788  0.1974  0.2074 -0.4631
  212MOL0     C28544   7.032   4.104   5.732 -0.3380 -1.0057 -0.8745
  212MOL0     C28545   6.899   4.177   5.745 -0.3445 -0.2077 -1.7936
  212MOL0     C28546   6.845   4.185   5.892 -0.1012  1.3457 -0.3122
  212MOL0     C28547   6.807   4.049   5.951  0.1591  0.3608 -0.4728
  212MOL0     C28548   6.749   4.080   6.084 -0.2893  0.0241 -0.4894
  212MOL0     C28549   6.688   4.082   6.193  0.4939  0.2974 -0.1523
  212MOL0     C28550   7.301   4.019   5.875 -0.2111  1.0305 -0.4864
  212MOL0     C28551   7.441   3.976   5.874 -0.2306  0.6037  0.5494
  212MOL0     C28552   7.489   3.889   5.995  0.8042 -0.5193  0.3875
  212MOL0     H28553   7.874   3.915   6.085  1.3357  0.8236  1.1151
  212MOL0     H28554   8.103   3.945   6.116 -0.1661  2.8433  0.1951
  212MOL0     H28555   8.473   3.979   6.022 -0.0615  0.4609 -1.5477
  212MOL0     H28556   8.329   3.997   6.112 -0.5165  4.2662 -1.2152
  212MOL0     H28557   8.265   3.766   5.982 -1.3881  2.3391 -1.4690
  212MOL0     H28558   8.417   3.765   6.088  1.7175 -1.1760 -1.5108
  212MOL0     H28559   8.481   3.658   5.889  2.4934  0.0632  1.3487
  212MOL0     H28560   8.559   3.815   5.895  1.3035 -1.9162  2.2236
  212MOL0     H28561   8.303   3.757   5.736 -0.3472 -1.0986  3.5548
  212MOL0     H28562   8.420   3.891   5.711  0.7437 -0.5058 -1.3394
  212MOL0     H28563   8.597   3.720   5.659  1.3434 -2.6537 -1.5076
  212MOL0     H28564   8.465   3.602   5.655 -1.9752  0.2335  1.5409
  212MOL0     H28565   8.374   3.705   5.445  0.2320 -3.0559 -1.6793
  212MOL0     H28566   8.492   3.837   5.463 -0.5158 -0.7059 -1.3650
  212MOL0     H28567   8.544   3.555   5.434 -0.4531  0.4261 -2.7479
  212MOL0     H28568   8.674   3.693   5.457 -0.2522  1.3571  0.4958
  212MOL0     H28569   8.643   3.776   5.259  1.4990 -0.3067  0.0670
  212MOL0     H28570   8.682   3.612   5.219 -0.2311 -1.3257  2.5489
  212MOL0     H28571   8.433   3.889   5.143 -0.7463  0.8764 -0.8372
  212MOL0     H28572   8.269   3.925   4.952 -0.7246  1.1169  0.4370
  212MOL0     H28573   8.202   3.788   4.868 -0.0066  2.9337 -1.1041
  212MOL0     H28574   8.023   3.850   4.951  2.0250  0.6765 -1.5573
  212MOL0     H28575   8.062   3.761   5.099  1.0296  0.8234  1.9280
  212MOL0     H28576   8.117   4.051   5.066  2.8200  1.9695  2.7674
  212MOL0     H28577   8.173   3.954   5.203  0.1026 -0.0818 -0.8961
  212MOL0     H28578   7.962   4.096   5.243  0.4432  0.5421 -0.4119
  212MOL0     H28579   7.929   3.922   5.270 -0.7627  3.5783  2.3107
  212MOL0     H28580   7.724   3.996   5.344 -1.1222 -1.6206  0.6596
  212MOL0     H28581   7.482   4.050   5.371 -4.1329 -0.9542 -1.5204
  212MOL0     H28582   7.143   4.322   5.297 -0.0615 -1.7695 -2.9811
  212MOL0     H28583   6.898   4.380   5.339 -0.7110  0.3132  1.5684
  212MOL0     H28584   6.633   4.071   5.257 -1.1485  0.2777  0.1365
  212MOL0     H28585   6.525   4.132   5.363  2.1377 -1.8712  2.0086
  212MOL0     H28586   6.651   4.273   5.141  1.9579 -1.4567  1.8163
  212MOL0     H28587   6.478   4.230   5.171 -1.4379  0.2184  1.0245
  212MOL0     H28588   6.486   4.397   5.373  1.3055  0.0683  1.0876
  212MOL0     H28589   6.637   4.453   5.313 -0.0578  0.8494 -0.0122
  212MOL0     H28590   6.370   4.457   5.163  0.1541  1.9392 -2.1432
  212MOL0     H28591   6.524   4.493   5.079 -3.4372 -0.1683 -2.0789
  212MOL0     H28592   6.413   4.639   5.314 -1.3860 -2.4248 -1.2314
  212MOL0     H28593   6.405   4.707   5.158  0.4251  3.4369  2.1768
  212MOL0     H28594   6.628   4.672   5.345 -1.3079  0.9693  1.1176
  212MOL0     H28595   6.674   4.643   5.177 -0.3634 -0.3763 -0.4242
  212MOL0     H28596   6.583   4.877   5.112 -0.9043 -0.6336  0.5121
  212MOL0     H28597   6.723   4.887   5.225 -0.4126  1.7042 -0.0333
  212MOL0     H28598   6.531   5.041   5.294  0.5327  0.5005 -0.6914
  212MOL0     H28599   6.412   4.923   5.258  0.3398 -1.4805 -0.0883
  212MOL0     H28600   6.817   3.971   5.410 -0.2161  1.4374 -0.4554
  212MOL0     H28601   7.051   3.911   5.357  2.7672  1.2246  2.8699
  212MOL0     H28602   7.430   4.088   4.961  0.0937  0.1605 -0.0518
  212MOL0     H28603   7.676   4.045   4.922 -3.2097 -0.9516 -1.0539
  212MOL0     H28604   8.163   4.003   5.691  1.3773 -0.9105  0.4732
  212MOL0     H28605   7.940   3.958   5.658  1.6565  2.4493 -0.9495
  212MOL0     H28606   7.522   4.124   5.574 -1.8577  0.6722 -1.1714
  212MOL0     H28607   7.306   4.222   5.592  2.2133  0.5457 -0.7520
  212MOL0     H28608   7.028   4.009   5.786 -6.3921 -1.3532 -1.2316
  212MOL0     H28609   7.054   4.085   5.626 -0.3020 -0.1923 -1.0238
  212MOL0     H28610   6.827   4.135   5.675  0.7679 -2.0989 -1.8953
  212MOL0     H28611   6.904   4.279   5.707 -2.5995 -0.7818 -3.9186
  212MOL0     H28612   6.762   4.256   5.886 -1.7642 -0.2944  1.6497
  212MOL0     H28613   6.914   4.235   5.959 -3.0025  1.3927  2.8975
  212MOL0     H28614   6.733   4.004   5.885  0.1103  0.7504 -0.6850
  212MOL0     H28615   6.888   3.976   5.964 -2.6907 -3.0797 -0.4638
  212MOL0     H28616   6.655   4.079   6.295 -0.0030  1.3496 -0.2737
  212MOL0     H28617   7.226   3.999   5.950  1.2656  1.8718  1.2782
  212MOL0     H28618   7.406   3.823   6.023  0.3849 -0.7764 -1.3496
  212MOL0     H28619   7.568   3.822   5.960  1.7232 -0.4461  2.2426
  212MOL0     H28620   7.515   3.954   6.079 -2.4934  0.1837  1.0277
  213MOL0     O28621   7.660   2.378   4.970 -0.5158  0.7048 -0.3689
  213MOL0     C28622   7.751   2.373   4.891 -0.4207  1.5434 -0.0129
  213MOL0     O28623   7.844   2.273   4.889  0.0899  0.4340 -1.2050
  213MOL0     C28624   7.829   2.181   4.992  0.0439 -0.0024  0.1770
  213MOL0     C28625   7.824   2.208   5.127  1.0639  0.3177 -0.8254
  213MOL0     C28626   7.801   2.118   5.223  0.8593  0.8689  0.1331
  213MOL0     C28627   7.786   1.983   5.187  0.2008  0.2569 -0.3184
  213MOL0     O28628   7.765   1.872   5.273  0.1754 -0.4905 -0.6871
  213MOL0     C28629   7.802   1.897   5.411  0.3975 -0.8350  0.3134
  213MOL0     C28630   7.793   1.760   5.478 -0.7596  0.0261 -0.3195
  213MOL0     C28631   7.845   1.755   5.622  0.8925  0.6468 -0.4683
  213MOL0     C28632   7.826   1.616   5.683  0.2138  0.0096 -0.3341
  213MOL0     C28633   7.684   1.605   5.741  0.2078 -1.0302  0.5032
  213MOL0     C28634   7.665   1.479   5.824 -0.2613  0.3703 -0.5021
  213MOL0     C28635   7.514   1.452   5.843  0.1428 -0.3266  0.4074
  213MOL0     C28636   7.494   1.324   5.929 -0.1734 -1.3352  0.2107
  213MOL0     N28637   7.557   1.328   6.054 -1.2223  0.4528 -0.6481
  213MOL0     C28638   7.541   1.427   6.141  0.1292  0.0053 -1.0465
  213MOL0     C28639   7.634   1.398   6.242  0.3853 -0.0365  1.0676
  213MOL0     C28640   7.661   1.491   6.357 -0.0712  0.1136  0.4222
  213MOL0     C28641   7.789   1.569   6.314  0.5993 -0.0975  0.1277
  213MOL0     C28642   7.869   1.654   6.406  0.3733 -0.5717  0.3436
  213MOL0     C28643   7.987   1.591   6.486  0.5227  0.0837 -0.1777
  213MOL0     O28644   8.070   1.496   6.418  0.3063  0.0114 -0.4399
  213MOL0     C28645   8.039   1.373   6.388 -0.1081  1.1622 -0.0183
  213MOL0     C28646   8.113   1.320   6.284 -0.0225 -0.2664  0.0163
  213MOL0     C28647   8.105   1.182   6.248  0.9291 -0.8546 -1.2297
  213MOL0     C28648   8.012   1.103   6.319 -0.1503 -0.8084 -0.7242
  213MOL0     C28649   7.992   0.956   6.283 -0.5678 -0.3598  0.7851
  213MOL0     O28650   7.886   0.890   6.341 -0.0079  1.1696 -0.4378
  213MOL0     C28651   7.890   0.758   6.345  0.2938  0.1186 -0.3933
  213MOL0     C28652   8.003   0.683   6.370  0.3886  0.4065 -0.6287
  213MOL0     C28653   7.992   0.546   6.393  0.6073 -0.4022  0.3627
  213MOL0     C28654   7.871   0.483   6.373  1.0651  1.2141 -0.3004
  213MOL0     O28655   7.870   0.345   6.388  0.0214 -0.6919 -0.9867
  213MOL0     C28656   7.789   0.296   6.496 -0.5798  0.2189  0.2636
  213MOL0     C28657   7.711   0.186   6.432  0.4303  0.6152 -0.5921
  213MOL0     C28658   7.795   0.058   6.427 -0.1082 -1.1722 -0.2023
  213MOL0     C28659   7.730  -0.051   6.336  0.3725 -0.1198  0.8382
  213MOL0     C28660   7.587  -0.098   6.397 -0.6308 -0.5006  0.7878
  213MOL0     C28661   7.533  -0.191   6.293  0.0219  0.4958 -0.3237
  213MOL0     C28662   7.381  -0.216   6.303  0.1234 -0.1776 -0.3721
  213MOL0     C28663   7.327  -0.290   6.416  0.0273 -0.4196 -0.3995
  213MOL0    Cl28664   7.157  -0.337   6.371 -0.0031  0.4514  0.0450
  213MOL0     C28665   7.753   0.552   6.347  0.4864  0.5522 -0.6666
  213MOL0     C28666   7.770   0.686   6.325  0.5132  0.5201 -0.4077
  213MOL0     O28667   8.088   0.910   6.216  0.4355 -0.2622 -0.0592
  213MOL0     C28668   7.937   1.159   6.426 -0.5264 -0.5274  0.1756
  213MOL0     C28669   7.953   1.302   6.450 -0.1775 -0.7412 -0.1270
  213MOL0     N28670   7.694   1.282   6.207  1.0563 -0.3254 -0.0770
  213MOL0     N28671   7.659   1.246   6.094 -0.1249  0.8495 -0.1264
  213MOL0     C28672   7.799   1.955   5.050  0.2859  0.1937  0.3778
  213MOL0     C28673   7.810   2.051   4.957  0.3797 -0.8542 -0.4345
  213MOL0     C28674   7.777   2.487   4.809 -0.4430  0.3813  0.3894
  213MOL0     C28675   7.917   2.519   4.787 -0.4563  0.4742  0.1605
  213MOL0     C28676   7.956   2.626   4.707  0.0047  0.3133  0.9424
  213MOL0     C28677   7.856   2.709   4.656 -0.9427 -0.0740 -0.3804
  213MOL0     O28678   7.885   2.819   4.577 -0.6511 -0.0410 -0.1169
  213MOL0     C28679   8.021   2.842   4.522 -0.0797 -0.2088  0.4763
  213MOL0     C28680   8.016   2.980   4.458 -0.2168 -0.2505  0.0828
  213MOL0     C28681   8.138   2.987   4.367 -0.1213  0.0685 -1.2094
  213MOL0     C28682   8.191   3.128   4.354 -0.6569  0.3667  0.2820
  213MOL0     C28683   8.247   3.155   4.228 -0.0754  0.2668 -0.1776
  213MOL0     C28684   8.298   3.176   4.116  1.2266  0.9190  0.0225
  213MOL0     C28685   7.722   2.679   4.671 -0.0474 -0.4898 -0.1326
  213MOL0     C28686   7.676   2.566   4.746  0.6530 -0.5795  1.6013
  213MOL0     C28687   7.526   2.528   4.745  0.1946  0.7363  1.5012
  213MOL0     H28688   7.842   2.310   5.161 -2.3437 -0.5757  5.0436
  213MOL0     H28689   7.817   2.141   5.328  1.1148 -2.9792  1.0746
  213MOL0     H28690   7.903   1.940   5.418  0.8231 -1.6452 -0.5683
  213MOL0     H28691   7.728   1.970   5.444 -1.9513 -2.9326 -0.0092
  213MOL0     H28692   7.842   1.684   5.417  3.2587  2.7214 -0.8645
  213MOL0     H28693   7.686   1.739   5.481 -0.7412 -0.2121 -1.2167
  213MOL0     H28694   7.801   1.835   5.683  1.1911  0.2275  0.3048
  213MOL0     H28695   7.950   1.785   5.619  1.5964 -1.0694  2.7679
  213MOL0     H28696   7.837   1.541   5.605 -2.0825 -1.3810  0.5720
  213MOL0     H28697   7.906   1.588   5.752  0.3086 -2.3170 -1.3176
  213MOL0     H28698   7.667   1.694   5.803  1.4231  0.2756 -0.9577
  213MOL0     H28699   7.623   1.607   5.651  0.8411  0.6370  0.0665
  213MOL0     H28700   7.705   1.392   5.771  0.1323  0.8407 -0.9785
  213MOL0     H28701   7.718   1.490   5.919 -2.4849 -1.2589  1.0288
  213MOL0     H28702   7.459   1.442   5.749  1.5760 -1.4179 -0.3772
  213MOL0     H28703   7.470   1.543   5.884 -0.2227 -0.0042 -0.6668
  213MOL0     H28704   7.388   1.297   5.934 -0.6632 -0.4007 -2.7980
  213MOL0     H28705   7.534   1.244   5.865 -0.6440  0.4809 -2.5236
  213MOL0     H28706   7.484   1.518   6.128  1.0144  0.6756 -0.3254
  213MOL0     H28707   7.574   1.557   6.369 -0.8424 -0.1389 -2.7813
  213MOL0     H28708   7.681   1.440   6.452  2.4013  3.6890  2.0374
  213MOL0     H28709   7.857   1.503   6.260  0.5148  0.4662 -0.6807
  213MOL0     H28710   7.746   1.644   6.247  0.1922  2.8301  3.3715
  213MOL0     H28711   7.794   1.691   6.477 -0.0073 -0.0026 -0.3318
  213MOL0     H28712   7.914   1.737   6.350 -1.2449  0.8128  0.9749
  213MOL0     H28713   7.956   1.553   6.584 -0.7581  2.5051  0.4126
  213MOL0     H28714   8.054   1.676   6.500  0.2781  0.1953  0.3703
  213MOL0     H28715   8.170   1.393   6.228 -0.2514  0.5463  0.8145
  213MOL0     H28716   8.170   1.128   6.181  0.5813 -0.9836 -1.4669
  213MOL0     H28717   8.104   0.722   6.386  2.0052 -1.8753 -4.0719
  213MOL0     H28718   8.079   0.487   6.422 -0.0115 -1.4795  0.0925
  213MOL0     H28719   7.854   0.262   6.577  0.7371  4.0298  1.0297
  213MOL0     H28720   7.721   0.371   6.537 -3.3919 -0.2490 -3.0570
  213MOL0     H28721   7.618   0.168   6.486 -0.0019 -0.0878 -1.5507
  213MOL0     H28722   7.686   0.222   6.332  0.6312  1.8858 -0.2066
  213MOL0     H28723   7.899   0.069   6.395 -0.7643  0.2667 -2.0301
  213MOL0     H28724   7.790  -0.003   6.517 -2.9772 -1.5012 -0.5030
  213MOL0     H28725   7.790  -0.141   6.321 -3.3711 -2.4343 -2.0848
  213MOL0     H28726   7.715  -0.006   6.238  0.5745 -2.1185 -0.1558
  213MOL0     H28727   7.530  -0.004   6.393  0.9040  0.4147 -0.6275
  213MOL0     H28728   7.587  -0.140   6.499 -0.5949 -2.6915 -0.0623
  213MOL0     H28729   7.548  -0.142   6.197 -0.1436 -1.6411 -1.4884
  213MOL0     H28730   7.585  -0.287   6.285  0.5424  0.6403  1.0083
  213MOL0     H28731   7.347  -0.268   6.213  0.5034  0.0797 -0.6702
  213MOL0     H28732   7.332  -0.119   6.305  2.8124  1.2925  2.4606
  213MOL0     H28733   7.383  -0.384   6.426  1.0573  0.2342  0.1169
  213MOL0     H28734   7.325  -0.238   6.512  2.1730 -2.2274  0.7212
  213MOL0     H28735   7.653   0.511   6.331  0.2932 -1.0430  3.3544
  213MOL0     H28736   7.681   0.743   6.298 -0.9483 -0.7264  1.4801
  213MOL0     H28737   7.866   1.110   6.492 -0.8884  1.1644  1.1222
  213MOL0     H28738   7.890   1.347   6.526 -0.0158  1.0750 -1.0160
  213MOL0     H28739   7.802   1.850   5.023 -1.9016  0.1730  0.0365
  213MOL0     H28740   7.790   2.026   4.854 -2.6201  0.6368 -0.3305
  213MOL0     H28741   7.993   2.459   4.836 -0.6389  1.9163  2.3871
  213MOL0     H28742   8.061   2.648   4.693 -0.0084 -0.6720 -0.9555
  213MOL0     H28743   8.044   2.763   4.450 -1.6838  0.6954 -1.1014
  213MOL0     H28744   8.090   2.842   4.607 -3.6376  0.3116  3.6300
  213MOL0     H28745   8.025   3.049   4.543 -0.9275  1.8386 -1.4411
  213MOL0     H28746   7.924   3.003   4.404  0.6666  2.3751 -0.4778
  213MOL0     H28747   8.096   2.952   4.272 -2.9113 -0.4806  0.1473
  213MOL0     H28748   8.224   2.936   4.412  0.2136  1.4321 -0.2335
  213MOL0     H28749   8.111   3.202   4.358  0.9599  2.3759 -2.0509
  213MOL0     H28750   8.261   3.160   4.431 -0.2105  0.6528 -0.2382
  213MOL0     H28751   8.362   3.196   4.033  1.4909  0.0701  0.0098
  213MOL0     H28752   7.648   2.750   4.635  0.0560 -0.2733  0.0792
  213MOL0     H28753   7.488   2.540   4.847 -0.9802  1.8147  0.9580
  213MOL0     H28754   7.463   2.587   4.679  1.3029  1.6245  1.2139
  213MOL0     H28755   7.515   2.428   4.702 -1.4681  0.4905  2.4119
  214MOL0     O28756   5.864  10.643   9.236  0.2930  0.1572  0.1675
  214MOL0     C28757   5.760  10.585   9.208 -0.5990 -0.3908  0.3404
  214MOL0     O28758   5.668  10.549   9.289  0.1228  0.4365  0.5016
  214MOL0     C28759   5.663  10.594   9.416  0.2196  0.2328  0.1084
  214MOL0     C28760   5.644  10.501   9.509 -0.8226  0.5099 -0.8446
  214MOL0     C28761   5.631  10.540   9.643  0.1606  1.3757  0.6884
  214MOL0     C28762   5.634  10.680   9.682 -0.1474  0.2478 -0.9500
  214MOL0     O28763   5.609  10.732   9.807  0.3937 -0.3665 -0.7485
  214MOL0     C28764   5.591  10.637   9.918 -0.4565 -0.2711 -0.6758
  214MOL0     C28765   5.729  10.589   9.972  0.4546 -0.6109  0.6717
  214MOL0     C28766   5.725  10.477  10.076  0.0165  0.6729  0.4119
  214MOL0     C28767   5.691  10.535  10.206 -0.6629  1.1372  0.3042
  214MOL0     C28768   5.674  10.424  10.311  0.1005 -0.0199 -0.4361
  214MOL0     C28769   5.552  10.333  10.298 -1.2250  0.9856  0.1392
  214MOL0     C28770   5.560  10.231  10.401  0.1405 -0.1519  0.3434
  214MOL0     C28771   5.616  10.095  10.358 -0.6703 -0.4931 -1.0511
  214MOL0     N28772   5.520  10.025  10.267  0.0667 -0.2438  0.0259
  214MOL0     C28773   5.383  10.006  10.284  0.0470  0.0821  0.3789
  214MOL0     C28774   5.330   9.999  10.156 -0.3725  0.7883 -0.6536
  214MOL0     C28775   5.181   9.994  10.125  0.2439  0.0441 -0.6271
  214MOL0     C28776   5.129   9.869  10.051 -1.2827 -0.7699  0.0380
  214MOL0     C28777   5.107   9.754  10.135 -0.3345  0.3172 -1.0041
  214MOL0     C28778   4.986   9.746  10.240 -0.9966 -0.8961 -0.1772
  214MOL0     O28779   4.978   9.851  10.348 -0.1529  0.2006 -0.4311
  214MOL0     C28780   5.076   9.852  10.451 -0.3652 -0.2720  0.0050
  214MOL0     C28781   5.183   9.761  10.459 -0.0260  0.5119 -0.9191
  214MOL0     C28782   5.280   9.781  10.553 -0.1452 -1.4920  0.9564
  214MOL0     C28783   5.288   9.905  10.627 -0.8503  0.9686 -0.3391
  214MOL0     C28784   5.397   9.919  10.717 -0.9312  0.2027 -1.0421
  214MOL0     O28785   5.383  10.024  10.808 -0.1228  0.1643 -0.4746
  214MOL0     C28786   5.494  10.063  10.863  0.6957 -0.1514  0.4616
  214MOL0     C28787   5.526  10.016  10.991 -0.1251 -0.3534 -0.1208
  214MOL0     C28788   5.643  10.066  11.055 -0.3306 -0.3314  0.3932
  214MOL0     C28789   5.727  10.149  10.988 -1.1229  0.7124  0.3182
  214MOL0     O28790   5.846  10.209  11.030  0.4619 -0.1174  0.3952
  214MOL0     C28791   5.913  10.167  11.152 -0.0099  0.5137 -1.0531
  214MOL0     C28792   5.996  10.039  11.133 -0.1885 -0.1005  0.6759
  214MOL0     C28793   6.068  10.027  11.008  0.3259  0.2773  0.2076
  214MOL0     C28794   6.133   9.889  11.015 -0.3850  0.0296 -0.5244
  214MOL0     C28795   6.218   9.870  10.898 -0.8140 -0.3674  0.1521
  214MOL0     C28796   6.318   9.753  10.914  0.4370  0.3261  1.3542
  214MOL0     C28797   6.445   9.823  10.965  0.0803  0.5915 -0.0483
  214MOL0     C28798   6.559   9.723  10.989 -0.1580  0.0545  0.6966
  214MOL0    Cl28799   6.509   9.580  11.097  0.3810 -0.2831 -0.3146
  214MOL0     C28800   5.698  10.188  10.861 -0.6264 -0.3059 -0.3179
  214MOL0     C28801   5.577  10.154  10.800 -0.4467 -0.7699 -0.2314
  214MOL0     O28802   5.501   9.861  10.695 -0.2888  0.0808 -0.0098
  214MOL0     C28803   5.182  10.004  10.612  1.0093 -0.7470 -0.4295
  214MOL0     C28804   5.077   9.977  10.517 -0.1137  0.4137 -0.8589
  214MOL0     N28805   5.433  10.013  10.063 -1.0379  0.2613  0.0607
  214MOL0     N28806   5.545  10.023  10.135  0.1350  0.1327 -0.0162
  214MOL0     C28807   5.640  10.774   9.582 -1.0988 -0.4216 -0.0732
  214MOL0     C28808   5.663  10.726   9.448 -0.8874 -0.8679  0.1167
  214MOL0     C28809   5.728  10.553   9.065 -0.0359  0.5076  0.1125
  214MOL0     C28810   5.595  10.567   9.013 -0.2846  0.2720 -0.7884
  214MOL0     C28811   5.576  10.572   8.875  0.2011  0.7235  0.0259
  214MOL0     C28812   5.678  10.541   8.786 -0.2998 -0.8507  0.0169
  214MOL0     O28813   5.654  10.514   8.648  0.0596 -0.5788  0.6800
  214MOL0     C28814   5.528  10.508   8.574 -0.0264  0.1775  0.1619
  214MOL0     C28815   5.446  10.378   8.607 -0.6495 -0.3819  0.6276
  214MOL0     C28816   5.325  10.372   8.522 -0.1602  0.2782  0.8134
  214MOL0     C28817   5.240  10.253   8.542  0.6122  0.1895 -0.0083
  214MOL0     C28818   5.132  10.241   8.443  0.1193  0.4931  0.5177
  214MOL0     C28819   5.045  10.256   8.364  0.1595 -0.4400  0.5090
  214MOL0     C28820   5.804  10.533   8.836  0.4188  0.8617  0.4339
  214MOL0     C28821   5.838  10.538   8.975 -0.7253  0.0421  0.6633
  214MOL0     C28822   5.972  10.504   9.025 -0.7978  0.2496 -0.1254
  214MOL0     H28823   5.661  10.395   9.493  0.6035  0.3777  1.1307
  214MOL0     H28824   5.615  10.464   9.718 -0.7461 -2.7172 -3.2513
  214MOL0     H28825   5.546  10.691  10.002  0.0233 -0.3518 -0.3548
  214MOL0     H28826   5.524  10.555   9.892 -1.2244  0.0861  0.1350
  214MOL0     H28827   5.803  10.664   9.998  2.6179 -3.0903  2.1698
  214MOL0     H28828   5.767  10.544   9.880  1.0386 -0.1606  0.6902
  214MOL0     H28829   5.819  10.422  10.084  0.0492  0.9294  2.0063
  214MOL0     H28830   5.645  10.405  10.054  0.4219  0.2588  0.2813
  214MOL0     H28831   5.766  10.608  10.239  1.8804  0.0442 -2.5867
  214MOL0     H28832   5.598  10.594  10.200 -1.4231 -0.0484  0.0600
  214MOL0     H28833   5.760  10.358  10.299  1.0327  0.9953  0.4967
  214MOL0     H28834   5.664  10.470  10.410 -1.1209 -1.3617  0.1057
  214MOL0     H28835   5.458  10.386  10.314 -2.9987 -2.1459  1.1439
  214MOL0     H28836   5.543  10.278  10.204  2.1594  2.1573 -1.0378
  214MOL0     H28837   5.455  10.219  10.428  0.0091 -1.0559 -0.4951
  214MOL0     H28838   5.609  10.272  10.490  0.9193  0.4582 -0.3524
  214MOL0     H28839   5.705  10.106  10.296  0.9366  2.2693  1.5407
  214MOL0     H28840   5.652  10.029  10.438  3.5226  1.3852 -1.1286
  214MOL0     H28841   5.329  10.008  10.378  2.8339 -0.0713  2.1099
  214MOL0     H28842   5.119   9.993  10.215  0.7180 -0.0274 -0.2950
  214MOL0     H28843   5.156  10.086  10.071  0.2788  0.4497  0.0385
  214MOL0     H28844   5.032   9.890  10.003 -1.1347  2.3199  0.8677
  214MOL0     H28845   5.199   9.830   9.977 -1.1473 -1.6370  0.6089
  214MOL0     H28846   5.206   9.743  10.179  0.3944  1.7405 -2.2088
  214MOL0     H28847   5.107   9.663  10.075 -1.8035  0.9828 -2.0808
  214MOL0     H28848   4.997   9.651  10.293 -2.7801 -0.7826  0.4601
  214MOL0     H28849   4.896   9.745  10.179  2.4568  1.1371 -6.1251
  214MOL0     H28850   5.184   9.669  10.402  0.4792 -1.0347  1.4434
  214MOL0     H28851   5.349   9.701  10.579  0.7973 -1.2135 -0.5693
  214MOL0     H28852   5.457   9.945  11.034 -0.9875 -1.0055 -2.4611
  214MOL0     H28853   5.672  10.042  11.157  0.7120  1.0555  0.4513
  214MOL0     H28854   5.976  10.247  11.192  2.0583 -1.1120 -0.9272
  214MOL0     H28855   5.833  10.141  11.222  0.8150 -1.7157 -0.8621
  214MOL0     H28856   6.063  10.033  11.219 -0.6331 -2.7926  0.9309
  214MOL0     H28857   5.926   9.955  11.133  0.8639 -1.0023  0.1548
  214MOL0     H28858   6.009  10.019  10.916  0.6980  0.3473 -0.0436
  214MOL0     H28859   6.143  10.106  10.997  0.6141  0.0006  0.1516
  214MOL0     H28860   6.054   9.814  11.015 -1.2877  0.7272  4.0393
  214MOL0     H28861   6.176   9.869  11.113 -0.3207  5.4791  0.8835
  214MOL0     H28862   6.279   9.961  10.894  1.3709 -1.6903  1.7283
  214MOL0     H28863   6.164   9.859  10.803  1.3018 -1.5200 -1.0100
  214MOL0     H28864   6.278   9.687  10.992  2.0028  0.3963  2.2587
  214MOL0     H28865   6.337   9.705  10.818  1.6523  1.1382  1.1696
  214MOL0     H28866   6.421   9.869  11.061 -1.1474 -2.0554  1.0164
  214MOL0     H28867   6.479   9.904  10.900  2.7315 -0.7288 -0.4805
  214MOL0     H28868   6.616   9.698  10.899 -0.3637 -0.4397  0.7015
  214MOL0     H28869   6.637   9.768  11.050  2.7031 -2.7604 -0.6247
  214MOL0     H28870   5.762  10.266  10.821  0.4256 -0.3579  1.1913
  214MOL0     H28871   5.562  10.209  10.707  1.0386 -0.2067 -0.1613
  214MOL0     H28872   5.179  10.093  10.674 -0.3216 -1.3859  0.4543
  214MOL0     H28873   4.997  10.043  10.486 -2.5711 -2.0212 -0.1578
  214MOL0     H28874   5.647  10.880   9.601  0.4774 -0.0276 -2.4258
  214MOL0     H28875   5.675  10.791   9.362 -0.0904 -2.5428 -1.0952
  214MOL0     H28876   5.508  10.589   9.074  1.0226  0.6542  1.0028
  214MOL0     H28877   5.473  10.578   8.844  0.1640 -2.7359 -0.9619
  214MOL0     H28878   5.562  10.498   8.471  0.2278 -1.6259  0.3809
  214MOL0     H28879   5.474  10.602   8.588 -2.0574 -0.8328 -0.5617
  214MOL0     H28880   5.416  10.371   8.712  1.3305 -1.0846  1.1755
  214MOL0     H28881   5.518  10.296   8.592  0.7986  1.1769 -1.4876
  214MOL0     H28882   5.357  10.376   8.418 -1.4713  0.5363  0.4042
  214MOL0     H28883   5.270  10.465   8.537 -1.6551 -0.4750  0.2700
  214MOL0     H28884   5.298  10.160   8.543  0.2364 -0.0548 -0.4964
  214MOL0     H28885   5.188  10.266   8.637  1.0526 -1.7279  0.5412
  214MOL0     H28886   4.969  10.256   8.289  1.0544 -0.2083 -0.4291
  214MOL0     H28887   5.877  10.483   8.773  0.6393  1.4039  0.2574
  214MOL0     H28888   6.027  10.450   8.947 -0.0186  1.9775 -0.8346
  214MOL0     H28889   6.032  10.587   9.063  0.2441 -1.4539  2.2448
  214MOL0     H28890   5.949  10.431   9.103 -4.2297 -0.6839 -1.8060
  215MOL0     O28891   6.919   2.504   0.990  0.0240 -1.2252 -0.0659
  215MOL0     C28892   6.915   2.586   1.080  0.8094 -0.0649  0.2871
  215MOL0     O28893   6.798   2.621   1.141  0.1693 -0.1742  0.4383
  215MOL0     C28894   6.677   2.586   1.092 -0.0407  0.0342  0.2193
  215MOL0     C28895   6.597   2.669   1.015  0.9656  0.1921  0.3370
  215MOL0     C28896   6.458   2.629   0.983 -0.1865 -0.2280 -0.5424
  215MOL0     C28897   6.408   2.501   1.022  0.3455  0.2456 -0.3998
  215MOL0     O28898   6.271   2.491   0.998  0.1914  0.4393 -0.0165
  215MOL0     C28899   6.223   2.355   1.009 -1.2761  0.0929  0.1465
  215MOL0     C28900   6.072   2.335   0.979  0.8796  0.1674  0.3949
  215MOL0     C28901   6.036   2.360   0.826 -0.3362 -0.0220 -0.5711
  215MOL0     C28902   5.882   2.325   0.799 -0.2255  0.7366  0.2434
  215MOL0     C28903   5.843   2.392   0.673 -0.4875  0.7417  1.1448
  215MOL0     C28904   5.700   2.379   0.617 -0.0988 -0.0799  0.6486
  215MOL0     C28905   5.688   2.249   0.537  0.1009 -0.7471 -0.5374
  215MOL0     C28906   5.594   2.270   0.416 -0.8528 -0.2392  0.3026
  215MOL0     N28907   5.562   2.138   0.353 -0.2964  0.9210  0.0607
  215MOL0     C28908   5.442   2.076   0.379 -0.0142 -0.1820  0.2689
  215MOL0     C28909   5.460   1.948   0.341  0.0623  0.4782  0.3918
  215MOL0     C28910   5.354   1.842   0.335  0.3178 -0.3938 -0.3398
  215MOL0     C28911   5.417   1.710   0.395 -0.2541 -0.4855 -0.9050
  215MOL0     C28912   5.307   1.611   0.444 -0.0077  1.0920  0.2576
  215MOL0     C28913   5.224   1.539   0.340 -0.2949 -0.1009  0.0581
  215MOL0     O28914   5.145   1.622   0.250 -0.4291 -0.0142  0.2751
  215MOL0     C28915   5.043   1.556   0.187  0.4049  0.7389  0.4862
  215MOL0     C28916   4.991   1.431   0.208 -0.5292 -0.2051 -0.5957
  215MOL0     C28917   4.890   1.375   0.131  0.4376  0.8767  0.5774
  215MOL0     C28918   4.840   1.440   0.019 -0.0660  1.0728 -0.4632
  215MOL0     C28919   4.722   1.384  -0.059  0.6336  0.7029  0.6411
  215MOL0     O28920   4.648   1.279  -0.005 -0.4978 -0.8249 -0.3358
  215MOL0     C28921   4.544   1.227  -0.069 -0.0947 -0.3938  0.3759
  215MOL0     C28922   4.481   1.258  -0.190 -0.0352  0.5431  0.1939
  215MOL0     C28923   4.367   1.186  -0.224 -0.1825 -0.1094 -0.3828
  215MOL0     C28924   4.308   1.086  -0.142 -0.0500 -1.9885 -0.3565
  215MOL0     O28925   4.198   1.012  -0.166 -0.0283  0.1149  0.3989
  215MOL0     C28926   4.090   1.087  -0.224  0.2294 -0.0731 -0.1272
  215MOL0     C28927   3.955   1.011  -0.218  0.4240  0.8222  0.3944
  215MOL0     C28928   3.961   0.881  -0.286 -1.1740  0.2717  0.6828
  215MOL0     C28929   3.843   0.775  -0.272 -0.1112 -0.1098  0.4313
  215MOL0     C28930   3.723   0.809  -0.370  0.2645 -0.1364 -1.1390
  215MOL0     C28931   3.624   0.708  -0.382 -0.3773  0.8597  0.2086
  215MOL0     C28932   3.495   0.746  -0.438  0.1332  0.2113  1.0430
  215MOL0     C28933   3.396   0.631  -0.458  0.0668  0.4213  0.8876
  215MOL0    Cl28934   3.433   0.560  -0.619 -0.3776  0.3597 -0.4409
  215MOL0     C28935   4.366   1.065  -0.020  0.3496  0.8451  0.0427
  215MOL0     C28936   4.486   1.130   0.014  0.6121  0.3969 -0.5020
  215MOL0     O28937   4.701   1.445  -0.165 -0.2127 -0.2515  0.5713
  215MOL0     C28938   4.899   1.564  -0.015  0.3399 -0.3695  0.5476
  215MOL0     C28939   4.995   1.620   0.068 -0.5617  0.7261  0.4030
  215MOL0     N28940   5.583   1.935   0.277 -0.4609 -0.0721 -0.2471
  215MOL0     N28941   5.640   2.050   0.283 -0.1123 -0.5267  0.3372
  215MOL0     C28942   6.493   2.427   1.097 -0.0060  0.5774 -1.2663
  215MOL0     C28943   6.625   2.467   1.133  0.9245 -0.2198 -0.3476
  215MOL0     C28944   7.040   2.644   1.131  0.3059  0.3697  0.4961
  215MOL0     C28945   7.148   2.570   1.194  0.0426 -0.5109  0.0480
  215MOL0     C28946   7.273   2.624   1.240  0.0530 -0.1062 -0.0569
  215MOL0     C28947   7.292   2.761   1.241 -0.1319  0.3000 -0.1062
  215MOL0     O28948   7.403   2.827   1.289 -0.9045  0.1710  0.0541
  215MOL0     C28949   7.503   2.755   1.365  0.2966  0.0781  1.3256
  215MOL0     C28950   7.472   2.759   1.509 -0.0833 -0.5318 -0.8062
  215MOL0     C28951   7.603   2.734   1.589  0.3208 -0.3038 -0.3427
  215MOL0     C28952   7.578   2.767   1.740 -0.5201 -0.0609  0.0477
  215MOL0     C28953   7.495   2.662   1.802  0.8189 -0.5306 -0.2170
  215MOL0     C28954   7.412   2.585   1.841  0.0476  0.6710  0.3818
  215MOL0     C28955   7.186   2.841   1.187 -0.0724 -0.2171 -0.2783
  215MOL0     C28956   7.061   2.783   1.145  0.4729  0.3865  0.4696
  215MOL0     C28957   6.958   2.871   1.074  1.2565 -0.5075  0.5379
  215MOL0     H28958   6.642   2.765   0.994 -2.6097  1.8690 -0.3197
  215MOL0     H28959   6.395   2.703   0.935 -0.6983 -0.6297 -0.5095
  215MOL0     H28960   6.269   2.292   0.932 -0.6210  1.6733 -0.8105
  215MOL0     H28961   6.230   2.315   1.111 -1.9742 -0.9012 -0.1807
  215MOL0     H28962   6.025   2.407   1.048  1.1936 -1.3235  2.2467
  215MOL0     H28963   6.037   2.232   0.990 -0.8761  0.8918  2.3030
  215MOL0     H28964   6.096   2.296   0.759  2.1588 -1.0313  2.3821
  215MOL0     H28965   6.048   2.463   0.793  0.7924 -0.3957 -1.4141
  215MOL0     H28966   5.875   2.216   0.791  0.3887  0.6047  1.2675
  215MOL0     H28967   5.819   2.361   0.881  0.0359  1.6199  0.0657
  215MOL0     H28968   5.863   2.500   0.676  0.6662  0.5841 -0.0944
  215MOL0     H28969   5.914   2.359   0.598 -1.4170  0.6506  0.2901
  215MOL0     H28970   5.625   2.398   0.694  1.1385  1.1551  1.6164
  215MOL0     H28971   5.693   2.458   0.542  1.2037 -0.4782  0.0711
  215MOL0     H28972   5.648   2.172   0.604  0.8702 -0.9994 -0.3563
  215MOL0     H28973   5.791   2.222   0.511  0.7246 -1.1782  2.1309
  215MOL0     H28974   5.506   2.310   0.468 -1.5450 -2.7121  1.1676
  215MOL0     H28975   5.649   2.336   0.348 -0.5262  1.3342  2.0336
  215MOL0     H28976   5.360   2.125   0.432  0.2292 -0.9697  1.4021
  215MOL0     H28977   5.267   1.866   0.396  0.2841 -0.5077 -0.3411
  215MOL0     H28978   5.306   1.832   0.237  0.5260 -1.8437 -0.3207
  215MOL0     H28979   5.480   1.663   0.319  2.7997  1.0653  0.5003
  215MOL0     H28980   5.492   1.736   0.471 -0.3452  0.0082 -0.9855
  215MOL0     H28981   5.236   1.664   0.509  1.8733  2.9328  0.9042
  215MOL0     H28982   5.342   1.529   0.508 -2.2790 -1.2129 -1.2065
  215MOL0     H28983   5.165   1.469   0.400 -0.1189  1.8220  2.6593
  215MOL0     H28984   5.303   1.483   0.289  1.7184  0.6732  2.1598
  215MOL0     H28985   5.037   1.366   0.283 -1.9575  0.1323  0.6264
  215MOL0     H28986   4.850   1.283   0.172  0.9066  1.4559  2.4669
  215MOL0     H28987   4.520   1.327  -0.264  0.9712 -1.4161 -1.1733
  215MOL0     H28988   4.333   1.203  -0.326 -0.1040  0.8414 -0.2557
  215MOL0     H28989   4.082   1.184  -0.174  0.1526 -0.8108  1.3587
  215MOL0     H28990   4.121   1.097  -0.328 -0.1709  0.2824 -0.2160
  215MOL0     H28991   3.928   0.980  -0.116 -1.7622 -2.1883 -0.9584
  215MOL0     H28992   3.879   1.075  -0.264  1.1024 -0.2603 -2.4307
  215MOL0     H28993   3.981   0.909  -0.390  2.3559  3.5857  2.0278
  215MOL0     H28994   4.046   0.829  -0.242 -1.7444 -0.5025  0.8898
  215MOL0     H28995   3.796   0.779  -0.173 -1.8275 -1.6420 -0.2564
  215MOL0     H28996   3.870   0.669  -0.276  0.2841 -0.0911  2.0836
  215MOL0     H28997   3.778   0.813  -0.464  0.2880  0.3944 -1.1051
  215MOL0     H28998   3.684   0.909  -0.350  0.0448 -0.4004 -0.2126
  215MOL0     H28999   3.659   0.618  -0.433 -2.2727  0.1976 -0.0318
  215MOL0     H29000   3.606   0.673  -0.280 -3.3631  3.0330  0.5700
  215MOL0     H29001   3.511   0.801  -0.532  1.4791  0.1273  1.2007
  215MOL0     H29002   3.440   0.810  -0.369 -1.4803 -0.3003  0.2678
  215MOL0     H29003   3.410   0.545  -0.391 -1.6150  0.3019  1.1387
  215MOL0     H29004   3.288   0.650  -0.452 -0.5481 -1.0934 -2.8854
  215MOL0     H29005   4.317   0.995   0.046 -0.2276  0.8251 -0.3918
  215MOL0     H29006   4.552   1.085   0.088  3.4083  3.3549 -0.9287
  215MOL0     H29007   4.870   1.636  -0.092  1.1360  0.8031  1.3208
  215MOL0     H29008   5.036   1.714   0.034  1.0132  0.1592  0.6835
  215MOL0     H29009   6.460   2.326   1.122  2.5615  0.1711  0.9700
  215MOL0     H29010   6.685   2.412   1.205  0.0391  1.7845  2.0688
  215MOL0     H29011   7.149   2.462   1.204 -0.7704 -0.5065  0.2958
  215MOL0     H29012   7.342   2.550   1.278 -0.1367 -0.2471  0.0133
  215MOL0     H29013   7.600   2.803   1.349  0.5377 -0.9019 -0.4876
  215MOL0     H29014   7.523   2.653   1.330  0.6171  0.5972 -0.0785
  215MOL0     H29015   7.409   2.670   1.523 -0.9235  0.4669  2.8428
  215MOL0     H29016   7.419   2.848   1.544  3.1394 -0.2226  4.3070
  215MOL0     H29017   7.692   2.786   1.552  1.1437 -0.8994  0.7409
  215MOL0     H29018   7.632   2.630   1.570 -0.0468 -0.8962  1.9405
  215MOL0     H29019   7.672   2.755   1.795 -2.3364  0.3477  3.5311
  215MOL0     H29020   7.541   2.869   1.753 -3.9450 -0.9714 -1.3860
  215MOL0     H29021   7.342   2.514   1.879 -0.7771 -0.6922 -3.2467
  215MOL0     H29022   7.192   2.948   1.204 -2.5955  0.1027 -1.0206
  215MOL0     H29023   6.947   2.841   0.970  0.0335 -1.6747  0.9762
  215MOL0     H29024   6.857   2.871   1.116  2.5663  1.1192  4.0947
  215MOL0     H29025   6.996   2.973   1.062  1.6073 -0.4595  1.8923
  216MOL0     O29026   0.668   1.681   5.847 -0.3508 -0.4533 -0.4723
  216MOL0     C29027   0.566   1.732   5.819 -0.0375  0.8436  1.7325
  216MOL0     O29028   0.460   1.653   5.773  0.3756  0.1373 -0.1345
  216MOL0     C29029   0.483   1.520   5.766 -0.0247 -0.1365  0.2132
  216MOL0     C29030   0.568   1.459   5.668  0.1676 -0.3234 -0.3072
  216MOL0     C29031   0.596   1.320   5.676  0.5331  0.3408  0.6004
  216MOL0     C29032   0.532   1.241   5.768  0.7774  0.0440  0.3132
  216MOL0     O29033   0.540   1.100   5.775 -0.2558 -0.6798 -0.4058
  216MOL0     C29034   0.663   1.032   5.749 -0.8797 -0.3155 -0.3163
  216MOL0     C29035   0.785   1.085   5.819 -0.5827  0.5549  0.2058
  216MOL0     C29036   0.883   0.980   5.858 -0.6130 -0.3548  1.2577
  216MOL0     C29037   0.959   0.908   5.730  0.0729  0.3533 -0.2932
  216MOL0     C29038   1.069   1.010   5.675 -0.3818 -0.3739  0.4920
  216MOL0     C29039   1.146   0.939   5.562 -0.1705 -0.4404 -0.1751
  216MOL0     C29040   1.239   1.031   5.488  0.3032  0.0039  0.1910
  216MOL0     C29041   1.372   0.966   5.431  0.2749 -0.2245  0.3259
  216MOL0     N29042   1.476   1.074   5.404  0.5275 -0.0057 -0.1618
  216MOL0     C29043   1.474   1.155   5.298 -0.4870 -0.6974 -0.1664
  216MOL0     C29044   1.593   1.224   5.298 -0.6082 -0.3477 -0.0407
  216MOL0     C29045   1.631   1.318   5.194 -0.9256  0.1337  1.0899
  216MOL0     C29046   1.685   1.244   5.064  0.2456 -0.0587  0.0870
  216MOL0     C29047   1.716   1.338   4.942  0.3922  0.4530  0.5831
  216MOL0     C29048   1.829   1.439   4.985  0.9467  0.1360  0.3419
  216MOL0     O29049   1.915   1.483   4.877  0.4244 -0.6283  0.4365
  216MOL0     C29050   2.019   1.570   4.902 -0.5964  0.3107 -0.2340
  216MOL0     C29051   2.133   1.562   4.827 -0.3951 -0.2243  0.3399
  216MOL0     C29052   2.239   1.651   4.839  0.1444  0.5537 -0.4175
  216MOL0     C29053   2.242   1.734   4.952  0.0283 -0.9588  0.6213
  216MOL0     C29054   2.357   1.822   4.975  0.5113  0.0241 -0.4790
  216MOL0     O29055   2.473   1.795   4.910  0.6290 -0.1862 -0.0002
  216MOL0     C29056   2.559   1.893   4.892  0.1381  0.4323 -0.4973
  216MOL0     C29057   2.616   1.969   5.004 -0.3795  1.1785 -0.2941
  216MOL0     C29058   2.726   2.055   4.962  0.2770  0.1430 -0.0099
  216MOL0     C29059   2.766   2.064   4.833  0.3773 -0.3898  0.4984
  216MOL0     O29060   2.876   2.140   4.805 -0.6662  0.7111 -0.5825
  216MOL0     C29061   2.931   2.167   4.669  0.9353 -0.2714  0.1075
  216MOL0     C29062   3.043   2.271   4.675  0.3212 -0.9116 -0.3219
  216MOL0     C29063   3.068   2.322   4.535  0.0089 -0.5352  0.0312
  216MOL0     C29064   3.188   2.420   4.525 -0.1587 -0.1837  0.0921
  216MOL0     C29065   3.225   2.468   4.384  0.2803  0.9552 -0.2538
  216MOL0     C29066   3.324   2.376   4.310  0.5026  0.2628  0.2513
  216MOL0     C29067   3.350   2.413   4.170 -1.2449  0.0031  1.4362
  216MOL0     C29068   3.449   2.312   4.108 -0.0409 -0.3803 -0.7127
  216MOL0    Cl29069   3.604   2.347   4.195 -0.2158  1.0663  0.1159
  216MOL0     C29070   2.711   1.986   4.731  0.1174  0.8169 -0.5830
  216MOL0     C29071   2.600   1.902   4.763 -0.1453 -0.2772  0.0739
  216MOL0     O29072   2.334   1.920   5.050 -0.6077 -0.0472 -0.9610
  216MOL0     C29073   2.129   1.744   5.034  0.5043 -0.0842  0.1177
  216MOL0     C29074   2.013   1.672   4.999 -0.3321  0.3191 -0.3624
  216MOL0     N29075   1.665   1.179   5.408 -0.4806 -0.1946  0.2117
  216MOL0     N29076   1.590   1.096   5.477 -0.3577 -0.1323  0.0284
  216MOL0     C29077   0.446   1.300   5.862 -0.4800  0.4267  0.1904
  216MOL0     C29078   0.434   1.439   5.872  0.1532  0.0395  0.1626
  216MOL0     C29079   0.545   1.875   5.841 -0.2878  1.0856  0.1049
  216MOL0     C29080   0.420   1.920   5.881 -0.7206 -0.2616 -0.0889
  216MOL0     C29081   0.397   2.054   5.919 -0.0464 -0.4926  0.6301
  216MOL0     C29082   0.500   2.155   5.895  0.2617 -0.2548 -0.0905
  216MOL0     O29083   0.463   2.287   5.924 -0.0427  0.6981  0.9693
  216MOL0     C29084   0.563   2.384   5.943  0.2889 -0.4102 -0.4267
  216MOL0     C29085   0.586   2.409   6.095  0.2311  0.0591 -0.0417
  216MOL0     C29086   0.470   2.499   6.149  0.6762  0.3855 -0.0703
  216MOL0     C29087   0.351   2.406   6.194 -0.5029 -0.0419  0.0754
  216MOL0     C29088   0.247   2.474   6.268 -0.0000 -0.2655  0.0303
  216MOL0     C29089   0.156   2.529   6.328 -0.0029 -0.0743  0.0383
  216MOL0     C29090   0.619   2.106   5.841 -0.5470 -0.2045 -0.1459
  216MOL0     C29091   0.644   1.970   5.820  0.1622  0.6250 -0.2738
  216MOL0     C29092   0.790   1.941   5.774  0.6248 -0.7991  0.4432
  216MOL0     H29093   0.597   1.522   5.584 -1.8441  0.6061 -0.3716
  216MOL0     H29094   0.645   1.265   5.596 -3.1807 -0.1201 -1.6475
  216MOL0     H29095   0.656   0.927   5.779  0.5010  0.3816  2.9256
  216MOL0     H29096   0.697   1.036   5.645  1.9662  0.4012  0.5401
  216MOL0     H29097   0.749   1.127   5.913  1.5711 -1.1746  1.9118
  216MOL0     H29098   0.837   1.167   5.769  1.2806 -0.6850 -0.0100
  216MOL0     H29099   0.835   0.897   5.909 -3.8464  0.4622 -0.1827
  216MOL0     H29100   0.956   1.030   5.922 -0.7674  2.6593 -0.7092
  216MOL0     H29101   1.002   0.816   5.770  0.1721  1.1715  1.6228
  216MOL0     H29102   0.885   0.888   5.652  0.3997  3.3353 -1.4863
  216MOL0     H29103   1.017   1.099   5.637 -0.6996 -1.7635 -2.6965
  216MOL0     H29104   1.133   1.043   5.757 -0.4828  2.4069 -0.4158
  216MOL0     H29105   1.208   0.869   5.618  0.8249  0.8047  0.3188
  216MOL0     H29106   1.084   0.869   5.504 -1.9270  0.3961  0.6287
  216MOL0     H29107   1.266   1.118   5.548  0.5154 -0.5846  0.9576
  216MOL0     H29108   1.183   1.077   5.406 -0.8673  2.1442  2.0779
  216MOL0     H29109   1.414   0.896   5.504  0.2535 -2.8797 -2.0494
  216MOL0     H29110   1.355   0.906   5.341 -1.5309 -0.5011  0.8110
  216MOL0     H29111   1.401   1.167   5.219 -2.4181 -0.7409  1.5256
  216MOL0     H29112   1.555   1.390   5.163 -3.3367 -3.6693 -3.0798
  216MOL0     H29113   1.723   1.365   5.230 -0.4593 -1.5784  2.2589
  216MOL0     H29114   1.777   1.193   5.095 -1.9547 -3.1037  2.2456
  216MOL0     H29115   1.618   1.164   5.032  0.9848 -1.7894  2.4937
  216MOL0     H29116   1.620   1.367   4.898 -0.9387 -2.6653  1.1686
  216MOL0     H29117   1.751   1.272   4.862 -0.4844  0.2421  0.3597
  216MOL0     H29118   1.897   1.397   5.060 -0.1893  2.2966  2.7108
  216MOL0     H29119   1.784   1.526   5.034 -1.7016 -1.2101  0.4523
  216MOL0     H29120   2.131   1.487   4.749  2.8017  1.6347 -1.7738
  216MOL0     H29121   2.316   1.655   4.763  2.6076  0.4254  1.9446
  216MOL0     H29122   2.562   1.976   5.097 -1.7643 -0.1493 -0.9687
  216MOL0     H29123   2.781   2.103   5.042 -0.5714  1.4139 -0.1674
  216MOL0     H29124   2.972   2.078   4.621  0.7057  1.2392 -3.2049
  216MOL0     H29125   2.859   2.213   4.601  1.6907  2.4659  1.0018
  216MOL0     H29126   3.014   2.354   4.740 -2.7405  1.7840 -4.6177
  216MOL0     H29127   3.135   2.220   4.705  1.2300 -0.8331 -2.7567
  216MOL0     H29128   3.091   2.242   4.463 -0.4922  0.2422 -1.0276
  216MOL0     H29129   2.974   2.362   4.496  0.9602 -0.3944 -2.2751
  216MOL0     H29130   3.278   2.384   4.575  0.0331 -0.7180 -0.6276
  216MOL0     H29131   3.158   2.503   4.589 -1.3199  1.5629 -2.5209
  216MOL0     H29132   3.279   2.562   4.398  2.1119 -0.1231  0.2147
  216MOL0     H29133   3.128   2.474   4.333 -0.7663 -1.8592  1.2355
  216MOL0     H29134   3.417   2.368   4.368  1.5034  1.4491 -1.1308
  216MOL0     H29135   3.268   2.282   4.316  1.8656 -0.7789 -2.0565
  216MOL0     H29136   3.381   2.518   4.157  1.3822 -1.0793 -4.0267
  216MOL0     H29137   3.252   2.411   4.122 -2.4911  1.7671  3.7020
  216MOL0     H29138   3.410   2.210   4.115  1.1751 -0.8691 -0.8392
  216MOL0     H29139   3.468   2.339   4.004 -1.9175  6.0788  0.1710
  216MOL0     H29140   2.735   1.998   4.625 -1.8336 -0.2832 -1.1974
  216MOL0     H29141   2.550   1.855   4.680 -0.5856  0.7813 -0.2793
  216MOL0     H29142   2.137   1.806   5.123  2.0864  1.1786 -0.8556
  216MOL0     H29143   1.926   1.703   5.057 -1.8795 -0.2964 -2.2580
  216MOL0     H29144   0.415   1.241   5.948  0.9045  1.3920  1.4004
  216MOL0     H29145   0.370   1.470   5.954  1.3906 -1.6060  1.8168
  216MOL0     H29146   0.351   1.841   5.907  0.1323 -1.2639 -0.7659
  216MOL0     H29147   0.312   2.087   5.978  1.3256  1.8365  1.4520
  216MOL0     H29148   0.542   2.480   5.896  1.6590 -0.4517 -1.1975
  216MOL0     H29149   0.659   2.344   5.908  1.4314  1.4820  0.4294
  216MOL0     H29150   0.671   2.477   6.105 -0.0689  0.1770  2.0413
  216MOL0     H29151   0.613   2.313   6.138 -3.8045 -1.5291 -0.5762
  216MOL0     H29152   0.438   2.582   6.085 -4.3929 -0.5211  0.8282
  216MOL0     H29153   0.506   2.546   6.242 -0.5810 -1.7766  1.6159
  216MOL0     H29154   0.310   2.340   6.118  1.5198 -2.6240  1.0928
  216MOL0     H29155   0.398   2.348   6.274  1.0352  1.9534  0.7139
  216MOL0     H29156   0.066   2.564   6.375  1.2653  0.1218  2.4728
  216MOL0     H29157   0.698   2.172   5.807 -2.5935  2.5935  0.1625
  216MOL0     H29158   0.779   1.935   5.666 -0.8280 -0.0645  0.5285
  216MOL0     H29159   0.856   2.026   5.796  2.1367 -1.3838 -1.5778
  216MOL0     H29160   0.830   1.848   5.816 -0.4821 -0.5250  2.2081
  217MOL0     O29161   2.126   4.161   2.070 -0.2391 -0.1731 -0.1534
  217MOL0     C29162   2.038   4.253   2.077 -0.3744  0.3594 -0.0544
  217MOL0     O29163   2.051   4.384   2.041 -0.3581  0.0055 -0.9175
  217MOL0     C29164   2.173   4.410   1.979  0.6939 -0.3268  0.4008
  217MOL0     C29165   2.172   4.402   1.838 -0.1968  0.3883 -0.2065
  217MOL0     C29166   2.293   4.413   1.771  1.2231 -0.3047  0.7204
  217MOL0     C29167   2.406   4.453   1.845  0.5899 -0.3807  0.4477
  217MOL0     O29168   2.537   4.474   1.801  0.5216 -0.2885  0.9235
  217MOL0     C29169   2.558   4.468   1.664 -0.7345 -0.7099  0.0436
  217MOL0     C29170   2.710   4.482   1.633  0.1125  0.4468  1.0747
  217MOL0     C29171   2.766   4.618   1.671 -0.3351  0.5424  0.0215
  217MOL0     C29172   2.921   4.620   1.651 -0.4344  0.7610 -0.2991
  217MOL0     C29173   2.989   4.564   1.775 -0.6897 -0.3806  0.4855
  217MOL0     C29174   3.001   4.663   1.891 -0.9602 -0.0776 -0.9680
  217MOL0     C29175   3.124   4.665   1.974 -0.5703  0.2723 -0.1154
  217MOL0     C29176   3.089   4.692   2.120  0.1746  0.7184  0.3360
  217MOL0     N29177   3.208   4.660   2.202  0.6047  0.0769 -0.4326
  217MOL0     C29178   3.295   4.750   2.258 -0.3883  0.3821  1.2099
  217MOL0     C29179   3.383   4.684   2.332 -0.3213  0.5476 -0.0548
  217MOL0     C29180   3.497   4.755   2.391 -0.0768 -0.5759  0.1286
  217MOL0     C29181   3.562   4.675   2.509 -1.3616  0.4963 -0.5364
  217MOL0     C29182   3.635   4.552   2.444 -0.1235  0.1638 -0.1282
  217MOL0     C29183   3.766   4.522   2.520  0.2525 -0.2213  0.1613
  217MOL0     O29184   3.860   4.632   2.509  0.1288  0.1186 -0.1802
  217MOL0     C29185   3.979   4.606   2.578  0.5339  0.2523  0.5389
  217MOL0     C29186   4.031   4.492   2.645 -0.3689  0.0868  0.4119
  217MOL0     C29187   4.166   4.487   2.681 -0.3596 -0.2446 -0.2123
  217MOL0     C29188   4.249   4.599   2.655 -0.5548  0.2762 -0.1383
  217MOL0     C29189   4.394   4.597   2.694 -0.3192 -0.2707  1.0632
  217MOL0     O29190   4.443   4.488   2.767 -0.0072 -0.6730 -0.1761
  217MOL0     C29191   4.561   4.484   2.833 -0.3167 -0.4688  0.5684
  217MOL0     C29192   4.612   4.598   2.898  0.2068  0.9321 -0.4557
  217MOL0     C29193   4.739   4.584   2.963 -0.8566 -0.4885 -0.2141
  217MOL0     C29194   4.818   4.466   2.949  0.7556  0.0213  0.4291
  217MOL0     O29195   4.953   4.453   2.995  0.3884 -0.1422  0.2407
  217MOL0     C29196   5.016   4.572   3.046  0.7076 -0.0141  0.0809
  217MOL0     C29197   5.149   4.542   3.096 -0.4619  0.8925 -0.8923
  217MOL0     C29198   5.194   4.655   3.195  0.3887 -0.0956  0.7908
  217MOL0     C29199   5.341   4.680   3.178  0.3120  0.8795  0.0832
  217MOL0     C29200   5.404   4.749   3.293  0.6224  0.2452  0.0697
  217MOL0     C29201   5.353   4.894   3.302  0.3357  0.5689 -0.7848
  217MOL0     C29202   5.415   4.967   3.194  0.4707 -0.2904  0.4119
  217MOL0     C29203   5.397   5.122   3.197  1.0819  0.4718 -0.0066
  217MOL0    Cl29204   5.218   5.165   3.208 -0.1884  0.1041  0.3090
  217MOL0     C29205   4.743   4.357   2.893  0.0769  0.1480  0.9148
  217MOL0     C29206   4.620   4.360   2.835  0.1782 -0.2320 -0.6903
  217MOL0     O29207   4.463   4.687   2.656  0.8099 -0.1261 -0.1532
  217MOL0     C29208   4.200   4.711   2.591  0.5013  0.5609 -0.0036
  217MOL0     C29209   4.066   4.715   2.549  0.1273 -0.8520  0.5447
  217MOL0     N29210   3.356   4.546   2.319  0.6438  1.0597 -0.0718
  217MOL0     N29211   3.251   4.539   2.247  0.3328 -0.9912 -0.0174
  217MOL0     C29212   2.403   4.459   1.985  1.1236 -0.7243 -0.0375
  217MOL0     C29213   2.286   4.429   2.043 -0.3437  0.9428 -0.9494
  217MOL0     C29214   1.908   4.214   2.143 -0.2893 -0.4395 -0.7951
  217MOL0     C29215   1.915   4.099   2.226 -0.1258  0.0399 -0.8273
  217MOL0     C29216   1.804   4.042   2.281  0.1369  0.7550 -0.2697
  217MOL0     C29217   1.679   4.092   2.256  0.5833 -0.2822 -0.2441
  217MOL0     O29218   1.555   4.034   2.298  0.4176 -0.0293  0.5029
  217MOL0     C29219   1.562   3.894   2.345  0.9083 -0.1813  0.0603
  217MOL0     C29220   1.417   3.846   2.362  0.4635 -0.1020  0.6111
  217MOL0     C29221   1.343   3.912   2.473 -0.0621 -0.5401 -0.2346
  217MOL0     C29222   1.217   3.831   2.509 -0.0994  0.6138 -0.4322
  217MOL0     C29223   1.119   3.908   2.577  0.3526 -0.0156  0.7356
  217MOL0     C29224   1.029   3.969   2.637 -1.0077  0.2279  0.2059
  217MOL0     C29225   1.665   4.205   2.179 -0.1368  0.0240  0.8774
  217MOL0     C29226   1.779   4.275   2.127  0.3176 -0.2518  0.4634
  217MOL0     C29227   1.767   4.391   2.043 -1.2168  0.2527 -0.2319
  217MOL0     H29228   2.072   4.375   1.805  0.4741 -2.7031 -0.0515
  217MOL0     H29229   2.294   4.393   1.665  4.0240 -2.5230  1.0663
  217MOL0     H29230   2.525   4.370   1.628  1.7697 -1.6194  0.0077
  217MOL0     H29231   2.501   4.548   1.616  0.9381  1.1308  0.9803
  217MOL0     H29232   2.718   4.468   1.525  1.1876  1.2325  1.0496
  217MOL0     H29233   2.759   4.401   1.688 -2.6904 -1.3350  1.2106
  217MOL0     H29234   2.733   4.652   1.770 -1.4804 -1.3610  0.3570
  217MOL0     H29235   2.728   4.680   1.590 -4.7382 -0.9367  0.6874
  217MOL0     H29236   2.956   4.559   1.568  2.1640  2.3563 -0.4807
  217MOL0     H29237   2.957   4.720   1.626 -2.7898  1.8980  0.5377
  217MOL0     H29238   2.940   4.472   1.807 -2.4740  0.4471  0.2386
  217MOL0     H29239   3.094   4.545   1.750  0.6723  2.6012  3.2475
  217MOL0     H29240   2.985   4.758   1.839  0.7172 -0.7697 -2.9130
  217MOL0     H29241   2.911   4.639   1.947 -1.4201 -2.2058 -2.5035
  217MOL0     H29242   3.198   4.733   1.930  0.4412 -1.2587 -0.8908
  217MOL0     H29243   3.160   4.561   1.973 -0.0535  0.4007  1.8817
  217MOL0     H29244   3.061   4.797   2.128  0.7579  0.7642  2.0489
  217MOL0     H29245   3.004   4.626   2.144 -0.8050  1.4868 -0.8871
  217MOL0     H29246   3.289   4.853   2.225  0.2616 -0.6424 -2.5357
  217MOL0     H29247   3.573   4.779   2.316  0.9900  1.1031  1.6397
  217MOL0     H29248   3.457   4.853   2.421 -2.4195 -0.9473 -1.6032
  217MOL0     H29249   3.635   4.749   2.543  0.0064 -2.0153  2.5621
  217MOL0     H29250   3.489   4.657   2.589 -1.2449  0.6351 -0.3959
  217MOL0     H29251   3.661   4.573   2.339 -0.6116  0.3671 -0.2125
  217MOL0     H29252   3.574   4.461   2.449  0.7281 -0.4208 -0.2021
  217MOL0     H29253   3.794   4.429   2.470 -2.8284  0.0054 -2.3262
  217MOL0     H29254   3.743   4.503   2.625 -1.1865 -1.3861 -0.3392
  217MOL0     H29255   3.962   4.408   2.655 -0.1237 -0.1648  0.0461
  217MOL0     H29256   4.203   4.392   2.719  2.0413  0.9930  0.7812
  217MOL0     H29257   4.577   4.699   2.886  2.0144  1.3115 -3.5131
  217MOL0     H29258   4.778   4.675   3.008  1.5908 -1.9289  0.7983
  217MOL0     H29259   5.032   4.639   2.961  1.5314  1.2288  1.2038
  217MOL0     H29260   4.945   4.608   3.121 -1.9448 -2.6431 -0.9311
  217MOL0     H29261   5.155   4.443   3.141  0.9756  1.7436  0.9331
  217MOL0     H29262   5.219   4.537   3.012  2.6590 -2.0100  1.6102
  217MOL0     H29263   5.137   4.745   3.171  0.4193 -0.1460  0.5188
  217MOL0     H29264   5.171   4.621   3.296  0.6924  0.1495  0.9413
  217MOL0     H29265   5.356   4.735   3.084 -1.2520  1.6918  0.2806
  217MOL0     H29266   5.384   4.581   3.164 -2.4858 -0.2943 -1.0319
  217MOL0     H29267   5.513   4.739   3.282  0.3785 -2.4294 -0.6170
  217MOL0     H29268   5.382   4.694   3.385 -0.4313  0.4883 -0.0278
  217MOL0     H29269   5.246   4.893   3.280  0.6994 -0.2780 -2.7767
  217MOL0     H29270   5.388   4.945   3.392  0.8544 -2.6639  1.0098
  217MOL0     H29271   5.386   4.935   3.093  0.7495  0.9835 -0.0871
  217MOL0     H29272   5.520   4.951   3.220  0.7000 -0.0355 -0.3390
  217MOL0     H29273   5.450   5.165   3.283 -0.5676 -0.7789  1.7061
  217MOL0     H29274   5.447   5.169   3.112  1.8505  3.1968  1.8160
  217MOL0     H29275   4.803   4.267   2.891 -0.1034 -0.0000  1.6104
  217MOL0     H29276   4.571   4.279   2.783  2.3948  0.4032 -4.1140
  217MOL0     H29277   4.259   4.800   2.571 -0.2530  1.2631  0.8268
  217MOL0     H29278   4.022   4.799   2.495 -1.9783 -0.9665  1.9448
  217MOL0     H29279   2.500   4.469   2.032  1.5985  0.1240 -1.1514
  217MOL0     H29280   2.289   4.403   2.148  2.2704 -3.1138 -1.7935
  217MOL0     H29281   2.011   4.053   2.248  1.0786  3.7707  3.3341
  217MOL0     H29282   1.810   3.950   2.338  0.3736  2.9517  3.6064
  217MOL0     H29283   1.622   3.896   2.436 -0.7230  2.7489  1.2315
  217MOL0     H29284   1.616   3.836   2.270  1.7876 -0.1689  0.6738
  217MOL0     H29285   1.434   3.741   2.386 -0.6306 -0.5680 -0.5667
  217MOL0     H29286   1.358   3.863   2.271 -0.8453 -0.3984  1.3748
  217MOL0     H29287   1.308   4.008   2.435 -0.7961 -0.6022  0.2855
  217MOL0     H29288   1.409   3.917   2.559 -0.2887  1.9953 -0.1362
  217MOL0     H29289   1.175   3.784   2.420 -1.9148  0.4669  0.4565
  217MOL0     H29290   1.240   3.754   2.583 -2.0751  2.3552  2.1625
  217MOL0     H29291   0.953   4.022   2.691  0.2030  2.9601 -0.5983
  217MOL0     H29292   1.572   4.256   2.154  0.1693 -0.3883 -1.2883
  217MOL0     H29293   1.662   4.419   2.025 -0.5362  3.1821 -0.0696
  217MOL0     H29294   1.824   4.478   2.076  2.1627 -1.4956 -1.0238
  217MOL0     H29295   1.802   4.356   1.945 -1.1817 -1.0127  0.2106
  218MOL0     O29296   9.047   0.571   6.387 -0.2679  0.4884 -0.4045
  218MOL0     C29297   9.009   0.621   6.495 -0.2996  0.1587 -0.2380
  218MOL0     O29298   9.091   0.665   6.600 -0.3326  0.1636 -0.0742
  218MOL0     C29299   9.223   0.677   6.568 -0.7329 -0.1039  0.2307
  218MOL0     C29300   9.279   0.807   6.577  0.3120 -0.4658 -0.4029
  218MOL0     C29301   9.410   0.828   6.538  0.1195 -0.6079 -0.2418
  218MOL0     C29302   9.481   0.723   6.482 -0.3174 -0.0267 -0.1078
  218MOL0     O29303   9.613   0.752   6.434 -0.2205 -0.1091 -0.0383
  218MOL0     C29304   9.708   0.646   6.434 -0.5297 -0.4302  0.7398
  218MOL0     C29305   9.851   0.714   6.426  0.3872 -0.4602  0.3483
  218MOL0     C29306   9.951   0.658   6.529 -0.2902 -1.0822  0.3923
  218MOL0     C29307   9.957   0.729   6.668 -0.0894  0.3783  0.5026
  218MOL0     C29308   9.821   0.771   6.718 -0.3497  0.0957 -0.1127
  218MOL0     C29309   9.752   0.655   6.790 -0.6056  0.6028  0.1361
  218MOL0     C29310   9.606   0.667   6.816  0.3954 -0.1368 -0.7320
  218MOL0     C29311   9.568   0.767   6.927 -0.4669  1.5589  0.2239
  218MOL0     N29312   9.424   0.783   6.931  0.8538  0.0733 -0.6461
  218MOL0     C29313   9.324   0.683   6.957 -0.4734 -0.2807 -0.8338
  218MOL0     C29314   9.205   0.742   6.971 -0.2254  0.0434  0.5091
  218MOL0     C29315   9.081   0.671   7.037 -0.0504 -0.8270  0.0176
  218MOL0     C29316   9.108   0.601   7.172  0.3018 -0.0244  0.0560
  218MOL0     C29317   8.974   0.546   7.237  0.1565 -0.2593 -0.0571
  218MOL0     C29318   8.898   0.656   7.307 -0.6607  0.0914 -0.1641
  218MOL0     O29319   8.793   0.602   7.391 -0.3299 -0.1867 -0.1642
  218MOL0     C29320   8.690   0.689   7.430  0.7206  0.9133 -1.2213
  218MOL0     C29321   8.684   0.832   7.414 -0.1138  1.1730 -1.3214
  218MOL0     C29322   8.563   0.904   7.461  1.0631  0.4417  1.0258
  218MOL0     C29323   8.456   0.837   7.517 -1.0236 -0.6124 -0.2541
  218MOL0     C29324   8.342   0.912   7.569 -0.9702  0.2059 -0.2522
  218MOL0     O29325   8.368   1.030   7.639 -0.6368 -0.6681  0.2759
  218MOL0     C29326   8.268   1.097   7.708  0.0717 -0.2449  0.8663
  218MOL0     C29327   8.302   1.228   7.736 -0.7110  0.2448  1.2360
  218MOL0     C29328   8.218   1.318   7.800  0.3630 -0.1591  0.2732
  218MOL0     C29329   8.088   1.278   7.850 -0.1677  0.0029  0.4153
  218MOL0     O29330   7.999   1.360   7.923 -1.2055  0.1175 -0.1763
  218MOL0     C29331   8.065   1.440   8.024 -0.0565  0.0127 -0.6659
  218MOL0     C29332   7.964   1.540   8.081  0.0100 -0.1909 -0.7178
  218MOL0     C29333   7.864   1.473   8.174  0.2441  1.0926  0.0370
  218MOL0     C29334   7.765   1.590   8.222  0.2647  0.3062 -0.3907
  218MOL0     C29335   7.799   1.633   8.365 -0.0548  0.4579  0.1103
  218MOL0     C29336   7.706   1.743   8.419 -0.1527 -0.1630  0.6279
  218MOL0     C29337   7.747   1.770   8.567  0.6385  0.3756  0.0235
  218MOL0     C29338   7.667   1.898   8.615 -0.0280  0.4791  1.2184
  218MOL0    Cl29339   7.487   1.881   8.617 -0.0398 -0.0113 -0.3013
  218MOL0     C29340   8.060   1.142   7.825  1.4210  0.2466 -0.2977
  218MOL0     C29341   8.139   1.057   7.752  0.7493 -0.1633 -0.9182
  218MOL0     O29342   8.237   0.846   7.570 -0.6802 -0.2031 -0.4771
  218MOL0     C29343   8.466   0.705   7.546  0.3435  0.5203  0.1065
  218MOL0     C29344   8.575   0.627   7.488 -0.3597 -0.4412 -0.2481
  218MOL0     N29345   9.228   0.877   6.943  1.0294  0.4313  0.0322
  218MOL0     N29346   9.355   0.892   6.911 -0.0480 -0.6975 -0.4472
  218MOL0     C29347   9.435   0.598   6.471  0.0154 -0.5480 -0.0657
  218MOL0     C29348   9.307   0.578   6.518 -0.0439 -0.0953  0.0609
  218MOL0     C29349   8.865   0.653   6.507 -0.1688 -0.5349 -0.9340
  218MOL0     C29350   8.823   0.751   6.598  0.1159  0.7995 -0.5054
  218MOL0     C29351   8.691   0.790   6.611 -0.0466  0.0570 -0.3442
  218MOL0     C29352   8.590   0.730   6.541 -0.1663  0.7454 -0.3463
  218MOL0     O29353   8.455   0.750   6.549 -0.1037  0.0306  0.2485
  218MOL0     C29354   8.401   0.857   6.624  0.4379 -0.2046 -0.9029
  218MOL0     C29355   8.267   0.822   6.697 -0.3608  1.4202  0.5203
  218MOL0     C29356   8.217   0.934   6.794 -0.8607 -0.7396  0.1591
  218MOL0     C29357   8.094   0.883   6.868  0.0598  0.2531  0.0889
  218MOL0     C29358   7.989   0.858   6.764  0.0142 -0.0709  0.8080
  218MOL0     C29359   7.894   0.815   6.704 -0.0904 -0.0055 -0.0515
  218MOL0     C29360   8.622   0.632   6.450 -0.3268  0.8028 -1.0250
  218MOL0     C29361   8.754   0.595   6.431 -0.1704  0.3046 -0.1742
  218MOL0     C29362   8.783   0.480   6.336  0.2356  0.7993  0.6022
  218MOL0     H29363   9.212   0.877   6.628  0.5599 -0.1417 -0.5190
  218MOL0     H29364   9.461   0.923   6.550  1.4836 -1.1857 -1.2653
  218MOL0     H29365   9.704   0.581   6.522 -4.7348 -0.2626  0.8571
  218MOL0     H29366   9.684   0.573   6.356 -0.7246 -0.0530  0.4484
  218MOL0     H29367   9.835   0.823   6.429 -2.5528 -0.7959 -0.0256
  218MOL0     H29368   9.892   0.701   6.325  0.1800 -1.4189  0.3794
  218MOL0     H29369  10.048   0.655   6.478 -0.5584 -2.0445 -0.0832
  218MOL0     H29370   9.921   0.555   6.550 -1.1881 -0.5508  1.7983
  218MOL0     H29371  10.006   0.655   6.732  0.0818 -0.6983 -0.8081
  218MOL0     H29372  10.017   0.820   6.666 -0.8921  0.9465 -2.5812
  218MOL0     H29373   9.848   0.848   6.791 -1.6999 -0.8161  1.4129
  218MOL0     H29374   9.762   0.821   6.640  3.0525  1.1832 -2.2026
  218MOL0     H29375   9.767   0.565   6.729 -2.4206  0.3444  0.0300
  218MOL0     H29376   9.801   0.628   6.884 -2.5006 -0.3123  0.9075
  218MOL0     H29377   9.575   0.569   6.853 -1.9535  0.2911 -1.4289
  218MOL0     H29378   9.556   0.670   6.719  3.2021 -0.7125 -2.2988
  218MOL0     H29379   9.600   0.716   7.018 -0.5527  1.5643  0.2571
  218MOL0     H29380   9.620   0.863   6.927  4.0027 -0.6218  1.3464
  218MOL0     H29381   9.350   0.581   6.985 -2.1237 -0.7389 -0.9047
  218MOL0     H29382   9.010   0.749   7.063 -2.4368 -3.5187  2.2290
  218MOL0     H29383   9.032   0.602   6.967 -1.3827  0.8031 -0.7009
  218MOL0     H29384   9.169   0.515   7.143  0.3325  0.5721 -1.7808
  218MOL0     H29385   9.151   0.673   7.242 -3.5980  0.2597  2.4384
  218MOL0     H29386   8.998   0.473   7.316 -1.8217  0.8453  1.6577
  218MOL0     H29387   8.904   0.497   7.169 -0.3833 -2.1416  1.7181
  218MOL0     H29388   8.860   0.718   7.227 -1.1593 -2.1499 -1.7676
  218MOL0     H29389   8.980   0.703   7.363  0.6514  0.4336 -2.2491
  218MOL0     H29390   8.758   0.886   7.355 -0.0331  0.6910 -1.6801
  218MOL0     H29391   8.547   1.005   7.424  0.7523 -0.5099 -1.6218
  218MOL0     H29392   8.400   1.265   7.709 -0.1349 -0.3222  2.4911
  218MOL0     H29393   8.269   1.413   7.816 -2.8699  1.8303 -0.1789
  218MOL0     H29394   8.106   1.379   8.105  0.3410  1.4579  0.2793
  218MOL0     H29395   8.142   1.506   7.984  1.1398 -0.3941  0.8853
  218MOL0     H29396   8.002   1.620   8.145 -1.4742  0.2675 -0.3801
  218MOL0     H29397   7.920   1.587   7.993 -0.6193 -1.9586 -1.3936
  218MOL0     H29398   7.814   1.400   8.110  3.6080  0.2594 -1.9043
  218MOL0     H29399   7.906   1.422   8.260 -1.1885 -1.1443 -0.5091
  218MOL0     H29400   7.660   1.559   8.215  0.4491 -0.0013 -2.2970
  218MOL0     H29401   7.763   1.671   8.148  2.0643  1.6739  0.9819
  218MOL0     H29402   7.901   1.672   8.370  0.7628 -1.7131  2.3077
  218MOL0     H29403   7.794   1.549   8.434  2.4935 -3.8896 -4.3541
  218MOL0     H29404   7.730   1.833   8.362  0.1422 -0.0696  0.8996
  218MOL0     H29405   7.603   1.705   8.414  0.3430 -1.4350 -0.7001
  218MOL0     H29406   7.853   1.789   8.589  1.0966 -2.2306  0.4205
  218MOL0     H29407   7.714   1.682   8.624  0.1800 -1.2869 -2.6348
  218MOL0     H29408   7.709   1.921   8.713 -1.7965  3.2832  1.4525
  218MOL0     H29409   7.686   1.981   8.546  0.0058  1.9588  2.9222
  218MOL0     H29410   7.960   1.106   7.849  0.2799 -0.1295 -4.8102
  218MOL0     H29411   8.096   0.961   7.725 -1.4529  0.4383  0.2120
  218MOL0     H29412   8.382   0.661   7.598 -0.6664 -0.9017 -2.5871
  218MOL0     H29413   8.584   0.520   7.500 -1.9274 -0.4178  1.6566
  218MOL0     H29414   9.490   0.506   6.450  0.9775 -0.2221  0.9534
  218MOL0     H29415   9.263   0.479   6.524 -2.8739  0.9964 -1.2670
  218MOL0     H29416   8.890   0.812   6.657 -0.2253  3.1368 -2.3916
  218MOL0     H29417   8.671   0.880   6.669 -0.9839  0.1031 -0.7234
  218MOL0     H29418   8.383   0.942   6.558 -0.6526 -0.0259 -0.3864
  218MOL0     H29419   8.466   0.896   6.704  0.4064  1.6660 -1.7239
  218MOL0     H29420   8.270   0.726   6.749  2.1636  1.7857  1.1967
  218MOL0     H29421   8.191   0.809   6.620  1.4238 -1.2441 -0.9334
  218MOL0     H29422   8.184   1.026   6.745 -4.5985 -0.2444  3.1333
  218MOL0     H29423   8.297   0.950   6.866 -1.4896 -1.6592  1.0831
  218MOL0     H29424   8.102   0.790   6.923 -2.1599 -0.2653 -0.3672
  218MOL0     H29425   8.052   0.957   6.937  0.0330 -0.7159  1.1243
  218MOL0     H29426   7.817   0.769   6.645 -1.9078 -1.1777  3.0082
  218MOL0     H29427   8.543   0.573   6.403  0.9017 -0.9452 -1.0030
  218MOL0     H29428   8.696   0.414   6.336  1.2207 -0.5589 -0.0381
  218MOL0     H29429   8.801   0.509   6.232 -1.2905 -2.0866 -0.6082
  218MOL0     H29430   8.862   0.412   6.368  0.6052  0.6742 -0.5148
  219MOL0     O29431   2.661   1.126   4.625  0.2429  0.6481 -0.4664
  219MOL0     C29432   2.764   1.175   4.683 -0.3863  0.8093 -0.6641
  219MOL0     O29433   2.770   1.203   4.816  0.3756  0.8374 -0.6021
  219MOL0     C29434   2.647   1.195   4.881 -0.1541 -0.3340 -0.5506
  219MOL0     C29435   2.547   1.294   4.868 -0.3579 -0.1921  0.2372
  219MOL0     C29436   2.420   1.272   4.926 -0.1890 -1.0723  0.0122
  219MOL0     C29437   2.391   1.163   5.005  0.8483 -0.2630 -0.0259
  219MOL0     O29438   2.265   1.160   5.070  0.1331  0.6157  0.0811
  219MOL0     C29439   2.197   1.034   5.052 -0.0157  0.7923  0.5066
  219MOL0     C29440   2.065   1.036   5.117  0.8147  0.8073 -0.0756
  219MOL0     C29441   2.067   1.029   5.270 -0.3906 -0.2465 -0.6797
  219MOL0     C29442   1.944   0.957   5.326  0.1775 -0.1194 -0.3702
  219MOL0     C29443   1.987   0.816   5.369 -0.3402 -0.4858 -0.6453
  219MOL0     C29444   2.068   0.807   5.501 -0.3716 -0.0973 -0.1284
  219MOL0     C29445   2.104   0.659   5.536 -1.1118  0.5500  0.2691
  219MOL0     C29446   2.187   0.591   5.432 -1.0837 -0.1381  0.1645
  219MOL0     N29447   2.221   0.460   5.461 -0.4101  0.1224 -0.3321
  219MOL0     C29448   2.132   0.352   5.491 -0.3200  0.1255  0.3818
  219MOL0     C29449   2.209   0.243   5.527  1.3235 -0.3620  0.3296
  219MOL0     C29450   2.161   0.107   5.553 -0.0590  0.4981 -0.3626
  219MOL0     C29451   2.173   0.022   5.430 -0.2153 -0.2124  0.8309
  219MOL0     C29452   2.121   0.083   5.301  0.1074 -0.3909  0.7694
  219MOL0     C29453   1.968   0.097   5.288  1.1866 -0.2182 -0.5288
  219MOL0     O29454   1.909  -0.017   5.352  0.5713 -1.3066  0.6420
  219MOL0     C29455   1.774  -0.036   5.337 -0.3195 -0.1086 -0.7878
  219MOL0     C29456   1.690   0.057   5.273  0.1436  0.0751  0.0234
  219MOL0     C29457   1.551   0.026   5.251 -0.2085  0.0160  0.1457
  219MOL0     C29458   1.497  -0.087   5.320  0.3001  0.3353  0.0250
  219MOL0     C29459   1.355  -0.114   5.310  0.5147 -1.2145  0.1398
  219MOL0     O29460   1.273  -0.008   5.278  0.3596  0.5565  0.6243
  219MOL0     C29461   1.139  -0.027   5.263  0.0124  1.1090 -0.4164
  219MOL0     C29462   1.071  -0.014   5.140 -0.0331  0.5481 -0.6603
  219MOL0     C29463   0.931  -0.030   5.143  0.4790 -0.0946 -0.6238
  219MOL0     C29464   0.860  -0.047   5.264  0.1505  0.6838 -0.5170
  219MOL0     O29465   0.723  -0.060   5.261  0.0930 -0.0995 -0.3605
  219MOL0     C29466   0.658   0.052   5.326 -0.1610 -0.1013 -0.8649
  219MOL0     C29467   0.534   0.001   5.409 -0.8098  0.6774 -0.2510
  219MOL0     C29468   0.478   0.095   5.511  0.0419 -0.0625 -0.1694
  219MOL0     C29469   0.345   0.025   5.554  0.6107 -0.8972 -0.2867
  219MOL0     C29470   0.268   0.094   5.671 -0.4657 -0.0250  0.0762
  219MOL0     C29471   0.341   0.098   5.813  1.3254  0.5619  0.0261
  219MOL0     C29472   0.241   0.141   5.922 -0.3431 -0.1275 -0.4264
  219MOL0     C29473   0.321   0.157   6.057  0.4835 -0.3200  0.6523
  219MOL0    Cl29474   0.348  -0.006   6.123  0.3834 -1.0398  0.1722
  219MOL0     C29475   0.928  -0.059   5.381 -0.8585 -0.2543 -0.3654
  219MOL0     C29476   1.063  -0.055   5.382 -1.3193 -0.3148 -0.4690
  219MOL0     O29477   1.314  -0.225   5.343 -1.1470  0.1654 -0.3983
  219MOL0     C29478   1.587  -0.174   5.383 -0.4408  0.2419 -0.0070
  219MOL0     C29479   1.723  -0.154   5.395  0.2653  0.9966  0.2924
  219MOL0     N29480   2.340   0.291   5.545  0.8095 -0.1320 -0.0367
  219MOL0     N29481   2.346   0.414   5.497  0.3402  0.1082  0.3010
  219MOL0     C29482   2.487   1.072   5.028  0.0204  0.1321 -1.0900
  219MOL0     C29483   2.614   1.082   4.964 -0.6714 -0.2334 -0.2807
  219MOL0     C29484   2.886   1.203   4.607  0.3723  0.0754  0.2008
  219MOL0     C29485   2.891   1.337   4.585 -0.0203 -0.3232  0.7776
  219MOL0     C29486   3.006   1.391   4.537 -0.4822  1.4592  0.9021
  219MOL0     C29487   3.112   1.309   4.503 -0.4294 -0.0826 -0.4822
  219MOL0     O29488   3.221   1.374   4.448 -0.0232 -0.8598  0.2266
  219MOL0     C29489   3.356   1.311   4.458  0.4782  0.1234  0.2737
  219MOL0     C29490   3.463   1.407   4.391 -0.0591  0.6850 -0.7807
  219MOL0     C29491   3.481   1.544   4.462  0.1679  0.6829 -0.5136
  219MOL0     C29492   3.579   1.554   4.572  0.8908 -0.0648 -0.6098
  219MOL0     C29493   3.524   1.489   4.693 -1.0466  0.2992 -0.2709
  219MOL0     C29494   3.477   1.437   4.793  0.9319 -0.3864  0.4942
  219MOL0     C29495   3.102   1.173   4.525 -0.1350  0.4246  0.0328
  219MOL0     C29496   2.989   1.117   4.573 -0.4036  0.3016  0.0148
  219MOL0     C29497   2.990   0.966   4.591  0.4500 -0.4416  0.3748
  219MOL0     H29498   2.559   1.387   4.812 -0.3261  0.0191  0.5952
  219MOL0     H29499   2.336   1.340   4.921 -0.5388 -1.4728  0.3841
  219MOL0     H29500   2.193   1.020   4.944 -1.1078 -1.2038  0.7552
  219MOL0     H29501   2.260   0.956   5.095  1.0734  1.4055  0.0550
  219MOL0     H29502   2.023   0.939   5.088  3.9506 -0.7835  0.2924
  219MOL0     H29503   2.002   1.117   5.080  1.1842  0.7812 -0.7779
  219MOL0     H29504   2.067   1.132   5.309  0.8886 -0.1160 -0.9800
  219MOL0     H29505   2.171   1.006   5.297  0.3356  2.9919 -0.1732
  219MOL0     H29506   1.904   1.019   5.407  0.3283  0.2174 -0.5484
  219MOL0     H29507   1.859   0.949   5.258  0.1738  4.0843 -1.1577
  219MOL0     H29508   1.891   0.767   5.389 -1.0251  0.9258 -0.2750
  219MOL0     H29509   2.031   0.775   5.278 -1.6888  0.6590 -1.8789
  219MOL0     H29510   2.155   0.872   5.492  0.1940 -0.6369  1.2788
  219MOL0     H29511   2.000   0.844   5.578 -1.8090 -2.3159 -0.2385
  219MOL0     H29512   2.020   0.594   5.559  0.3812 -0.5769  2.9899
  219MOL0     H29513   2.156   0.675   5.631 -0.0861 -1.0794  0.0142
  219MOL0     H29514   2.141   0.583   5.333  2.7407 -2.1340 -1.6816
  219MOL0     H29515   2.280   0.642   5.404  0.3801 -3.0432 -0.5795
  219MOL0     H29516   2.027   0.363   5.466 -0.0244 -0.5805 -1.3255
  219MOL0     H29517   2.236   0.065   5.620 -0.2402  0.9845  0.1508
  219MOL0     H29518   2.064   0.107   5.604  0.2871  0.3467  0.3004
  219MOL0     H29519   2.281   0.009   5.416 -0.4710 -0.9127 -0.7430
  219MOL0     H29520   2.123  -0.075   5.435 -0.6194 -0.4908 -4.0223
  219MOL0     H29521   2.153   0.013   5.224 -1.1400 -0.4085  0.2450
  219MOL0     H29522   2.171   0.177   5.274 -1.9287  0.0368 -1.9740
  219MOL0     H29523   1.923   0.098   5.188  1.3070 -0.4721 -0.5862
  219MOL0     H29524   1.932   0.180   5.350  0.2684 -0.3019 -0.9421
  219MOL0     H29525   1.721   0.154   5.236  0.4565 -0.2068 -0.4783
  219MOL0     H29526   1.488   0.102   5.205 -1.4262 -0.7074  0.5585
  219MOL0     H29527   1.129   0.019   5.054  2.8467  1.0974  1.3637
  219MOL0     H29528   0.883  -0.007   5.048  0.9021  0.5279 -0.6959
  219MOL0     H29529   0.730   0.090   5.399  1.1795  1.5871 -2.9338
  219MOL0     H29530   0.617   0.133   5.264 -4.4890 -1.1382  0.2618
  219MOL0     H29531   0.467  -0.025   5.326 -0.6725 -2.9433  0.5765
  219MOL0     H29532   0.557  -0.093   5.461 -1.9602  0.7205  0.3566
  219MOL0     H29533   0.553   0.117   5.588 -1.0100  3.8224 -0.0508
  219MOL0     H29534   0.460   0.198   5.477 -1.0608 -0.0544  0.4038
  219MOL0     H29535   0.366  -0.076   5.590  1.4030 -1.3114 -1.7902
  219MOL0     H29536   0.275   0.020   5.470  0.7031 -0.6075 -0.3839
  219MOL0     H29537   0.179   0.031   5.677 -0.2255 -0.2725  1.1830
  219MOL0     H29538   0.231   0.194   5.645  1.7879  0.4690 -1.5651
  219MOL0     H29539   0.395   0.005   5.836 -0.0870 -0.2885 -0.0121
  219MOL0     H29540   0.417   0.176   5.805  0.1721  1.5135 -2.5653
  219MOL0     H29541   0.161   0.070   5.946  0.4500 -1.1791 -0.8545
  219MOL0     H29542   0.190   0.237   5.907 -2.2141 -1.1154 -0.6640
  219MOL0     H29543   0.414   0.200   6.019 -1.1919  0.4325 -3.1585
  219MOL0     H29544   0.270   0.222   6.128 -0.8709 -2.3541  1.6371
  219MOL0     H29545   0.876  -0.082   5.474 -1.1243 -0.0278 -0.4574
  219MOL0     H29546   1.111  -0.070   5.478  0.8122  0.2167 -1.4167
  219MOL0     H29547   1.540  -0.266   5.419  2.8394 -1.6898 -0.2315
  219MOL0     H29548   1.795  -0.223   5.438  3.0931  1.4744 -3.2279
  219MOL0     H29549   2.465   1.000   5.107  0.5936  1.8095  0.6697
  219MOL0     H29550   2.684   1.000   4.975 -1.9301 -1.0692  2.3141
  219MOL0     H29551   2.805   1.403   4.599  0.0134  0.1169 -0.8211
  219MOL0     H29552   3.017   1.496   4.512 -0.0221  1.3848  0.7872
  219MOL0     H29553   3.337   1.219   4.402 -1.6753 -0.2693  1.5487
  219MOL0     H29554   3.394   1.285   4.557  2.0641 -0.3337 -0.4123
  219MOL0     H29555   3.424   1.420   4.290 -1.7887  2.6505  0.0450
  219MOL0     H29556   3.558   1.353   4.390 -0.7489 -0.5512 -1.9072
  219MOL0     H29557   3.388   1.588   4.500  0.7898 -0.8471  3.2154
  219MOL0     H29558   3.520   1.610   4.384  4.6216 -0.1550  0.7370
  219MOL0     H29559   3.674   1.515   4.535  0.2782  0.0222 -2.3666
  219MOL0     H29560   3.600   1.659   4.596  2.1638  0.2151 -2.6483
  219MOL0     H29561   3.441   1.394   4.884  0.2772 -0.6264  0.1348
  219MOL0     H29562   3.190   1.116   4.496  0.4554  2.0548 -1.5908
  219MOL0     H29563   2.909   0.929   4.655  0.6759 -0.7159  0.5072
  219MOL0     H29564   2.998   0.919   4.493  4.5097 -2.4408  1.4221
  219MOL0     H29565   3.082   0.937   4.643  0.5542  0.5187  0.7447
  220MOL0     O29566   3.010   3.453   6.947  0.7358 -0.1229 -0.1214
  220MOL0     C29567   2.949   3.360   6.885 -1.2467  0.0840 -0.2585
  220MOL0     O29568   2.997   3.282   6.780 -0.4722 -0.2532  0.1747
  220MOL0     C29569   3.124   3.305   6.723  0.5330  0.1004 -0.1328
  220MOL0     C29570   3.239   3.298   6.805  0.1784  0.5876 -0.4770
  220MOL0     C29571   3.368   3.334   6.759  0.4811  0.4906  0.2916
  220MOL0     C29572   3.378   3.380   6.621 -0.5191 -1.4769 -0.2279
  220MOL0     O29573   3.493   3.404   6.560  0.1702 -0.0410  0.7129
  220MOL0     C29574   3.583   3.302   6.565 -0.3543 -0.5238  1.0482
  220MOL0     C29575   3.677   3.292   6.443 -0.3332 -0.2215  0.8630
  220MOL0     C29576   3.801   3.190   6.466  0.1029 -1.0650 -0.2559
  220MOL0     C29577   3.891   3.235   6.575  0.3804 -0.4560 -0.8835
  220MOL0     C29578   4.026   3.149   6.581  0.3833 -0.0136  0.6999
  220MOL0     C29579   4.135   3.205   6.676  0.1308  1.1329 -0.1127
  220MOL0     C29580   4.278   3.150   6.653 -0.0270  0.3503 -1.0252
  220MOL0     C29581   4.369   3.214   6.762 -0.9061  0.0330  1.3213
  220MOL0     N29582   4.505   3.255   6.701  0.0806 -0.1267  0.1622
  220MOL0     C29583   4.624   3.186   6.702 -0.4445 -0.8461  0.7804
  220MOL0     C29584   4.711   3.280   6.651  0.2049 -0.9098 -0.2104
  220MOL0     C29585   4.859   3.277   6.632 -0.2292  0.7628  1.1835
  220MOL0     C29586   4.916   3.409   6.597 -0.0859 -0.3003 -0.7568
  220MOL0     C29587   5.068   3.407   6.627 -0.0847  0.6333 -0.4390
  220MOL0     C29588   5.153   3.533   6.584  0.0588  0.8909  0.4814
  220MOL0     O29589   5.093   3.593   6.463  0.4849 -0.4111  0.3988
  220MOL0     C29590   4.983   3.669   6.487  0.0338 -0.4486 -0.1006
  220MOL0     C29591   4.871   3.654   6.401  0.1595 -0.5800  0.8684
  220MOL0     C29592   4.751   3.719   6.420 -0.4002  0.2513 -0.0652
  220MOL0     C29593   4.732   3.804   6.533 -0.4451 -0.1562  0.4628
  220MOL0     C29594   4.600   3.862   6.560 -0.3885 -0.8752  0.7072
  220MOL0     O29595   4.502   3.837   6.459 -0.0269  0.5196 -0.9601
  220MOL0     C29596   4.375   3.819   6.507  0.3261  0.4444 -0.2623
  220MOL0     C29597   4.339   3.720   6.605 -0.2414  0.5255  0.1311
  220MOL0     C29598   4.210   3.691   6.650 -0.1262  0.1602  0.8504
  220MOL0     C29599   4.108   3.772   6.597  0.3073  0.1544  0.4832
  220MOL0     O29600   3.973   3.757   6.621 -0.2097 -0.9315 -0.1214
  220MOL0     C29601   3.930   3.672   6.723  0.4896  1.4721 -0.3029
  220MOL0     C29602   3.776   3.666   6.733 -0.4078  0.1466  0.0136
  220MOL0     C29603   3.711   3.792   6.805 -0.5129 -0.6697 -0.6715
  220MOL0     C29604   3.601   3.740   6.907  0.6027  0.1037 -0.1626
  220MOL0     C29605   3.476   3.688   6.829 -0.4707  0.3884  1.3339
  220MOL0     C29606   3.339   3.685   6.905 -0.2501  1.1465  0.3932
  220MOL0     C29607   3.282   3.827   6.933 -0.2388  0.4310 -0.4070
  220MOL0     C29608   3.131   3.834   6.946 -0.1831  0.1033  0.5510
  220MOL0    Cl29609   3.058   3.882   6.789 -0.0941 -0.0939 -0.1563
  220MOL0     C29610   4.136   3.871   6.498 -0.0841  0.4118  0.0852
  220MOL0     C29611   4.272   3.896   6.454 -0.2416 -0.3980 -0.0666
  220MOL0     O29612   4.573   3.902   6.671 -0.7798 -0.2682 -0.2153
  220MOL0     C29613   4.836   3.816   6.619 -0.0475  0.2569  0.2117
  220MOL0     C29614   4.961   3.757   6.599 -0.5418 -0.0203  1.1064
  220MOL0     N29615   4.645   3.396   6.620  0.2659  0.1075  0.2795
  220MOL0     N29616   4.527   3.381   6.665  0.3009 -0.3281 -0.0142
  220MOL0     C29617   3.266   3.378   6.534 -0.0347 -0.2645 -0.0950
  220MOL0     C29618   3.138   3.348   6.595 -0.3425  0.1820  0.8654
  220MOL0     C29619   2.810   3.327   6.932 -0.0205 -0.1824  0.1389
  220MOL0     C29620   2.755   3.206   6.893  0.9937 -0.3130 -0.2516
  220MOL0     C29621   2.625   3.174   6.937  0.1007 -0.4035  0.6753
  220MOL0     C29622   2.551   3.252   7.020  0.1620  0.1357  0.0979
  220MOL0     O29623   2.426   3.202   7.045 -0.4296  0.9953  0.0612
  220MOL0     C29624   2.343   3.266   7.149 -0.9091  0.4591 -0.2313
  220MOL0     C29625   2.218   3.197   7.168 -0.6044 -0.8481  0.0955
  220MOL0     C29626   2.137   3.212   7.038 -0.8396  0.1473  0.1205
  220MOL0     C29627   2.063   3.084   7.003  0.6202  0.1880  0.0292
  220MOL0     C29628   1.949   3.050   7.104 -0.0580  0.3116  0.0638
  220MOL0     C29629   1.870   3.043   7.200 -0.6926  0.7708 -0.1021
  220MOL0     C29630   2.599   3.373   7.066  0.2758 -0.9049 -0.1358
  220MOL0     C29631   2.725   3.415   7.018 -0.0657  0.0246 -0.2147
  220MOL0     C29632   2.756   3.561   7.042 -0.3423 -0.2770 -0.3606
  220MOL0     H29633   3.222   3.273   6.909  1.2646  1.2720 -0.1173
  220MOL0     H29634   3.458   3.322   6.818  0.7765  0.6921 -0.1139
  220MOL0     H29635   3.640   3.313   6.658  1.7758 -0.8659 -0.1526
  220MOL0     H29636   3.528   3.207   6.572 -0.7511 -0.2274  2.3504
  220MOL0     H29637   3.717   3.391   6.417 -0.0861  0.0081  2.0658
  220MOL0     H29638   3.625   3.241   6.361  1.0988  2.2634 -1.8132
  220MOL0     H29639   3.860   3.175   6.375  0.0633 -1.2817 -0.2470
  220MOL0     H29640   3.760   3.090   6.485 -0.9194 -0.7212 -0.5785
  220MOL0     H29641   3.918   3.340   6.558 -2.3860  0.4739 -0.0858
  220MOL0     H29642   3.838   3.234   6.671  2.1849  0.5104  0.1710
  220MOL0     H29643   4.005   3.051   6.623  0.3931 -0.0288  0.6694
  220MOL0     H29644   4.067   3.135   6.480  0.3289 -2.3947  0.9543
  220MOL0     H29645   4.140   3.313   6.663  0.2009  1.1877  0.3454
  220MOL0     H29646   4.114   3.193   6.783  0.6841 -0.8917 -0.1862
  220MOL0     H29647   4.318   3.172   6.554  2.6434  1.9795  0.3024
  220MOL0     H29648   4.274   3.040   6.655 -2.2090  0.3828  0.2248
  220MOL0     H29649   4.319   3.305   6.796  1.6888  1.6605  1.0443
  220MOL0     H29650   4.378   3.138   6.840 -1.1259 -1.3039  0.0864
  220MOL0     H29651   4.642   3.080   6.714  1.0440 -0.6760  0.3609
  220MOL0     H29652   4.911   3.233   6.717  0.6885 -0.7859 -0.1200
  220MOL0     H29653   4.875   3.208   6.548 -0.6584  1.3630  0.5955
  220MOL0     H29654   4.895   3.410   6.490 -3.1133 -2.8454 -0.3386
  220MOL0     H29655   4.873   3.486   6.663 -0.8840 -1.9625  0.7627
  220MOL0     H29656   5.098   3.315   6.576 -3.2402 -2.3647  2.5999
  220MOL0     H29657   5.087   3.381   6.731 -0.3824  2.0110 -0.0135
  220MOL0     H29658   5.256   3.505   6.560 -0.4923  0.2266 -1.2583
  220MOL0     H29659   5.141   3.603   6.667 -2.7679  0.0833  0.8717
  220MOL0     H29660   4.877   3.592   6.312  0.7130 -1.2709  1.3737
  220MOL0     H29661   4.671   3.704   6.348  0.3376 -1.2366 -0.6291
  220MOL0     H29662   4.415   3.658   6.649 -0.0782  1.3604  1.0600
  220MOL0     H29663   4.198   3.614   6.726  0.3224  1.0178  1.8203
  220MOL0     H29664   3.962   3.570   6.698 -0.3156  1.7431 -2.7101
  220MOL0     H29665   3.972   3.703   6.819 -1.5334 -0.2947  1.2438
  220MOL0     H29666   3.720   3.663   6.639 -0.3310  0.6353 -0.0506
  220MOL0     H29667   3.747   3.576   6.787 -2.7144  0.9461  0.2072
  220MOL0     H29668   3.785   3.840   6.870 -0.1105 -0.0326 -1.5763
  220MOL0     H29669   3.686   3.871   6.734 -0.4516  0.7454  0.8049
  220MOL0     H29670   3.583   3.833   6.961  3.2971 -0.3345  1.6946
  220MOL0     H29671   3.637   3.662   6.976  3.7783  2.1004  0.6351
  220MOL0     H29672   3.501   3.586   6.799 -0.6690  0.5405  0.6446
  220MOL0     H29673   3.456   3.740   6.735 -1.7118 -1.7371  0.3368
  220MOL0     H29674   3.276   3.628   6.837  3.9683 -3.1359 -0.4728
  220MOL0     H29675   3.354   3.635   7.001 -0.3623  0.1254 -0.1078
  220MOL0     H29676   3.317   3.894   6.853  0.3648  3.2367  2.0444
  220MOL0     H29677   3.329   3.859   7.026  2.0882 -1.2069 -0.9227
  220MOL0     H29678   3.089   3.747   6.997  0.0322 -0.5857 -0.4245
  220MOL0     H29679   3.117   3.909   7.024 -0.8169  1.7904 -1.1128
  220MOL0     H29680   4.059   3.926   6.445  1.8173  2.4809 -0.7551
  220MOL0     H29681   4.296   3.957   6.367 -0.2576 -2.2064 -1.4026
  220MOL0     H29682   4.818   3.885   6.701 -1.7383  0.6442 -0.4530
  220MOL0     H29683   5.039   3.783   6.669 -1.8506 -1.0533  3.0334
  220MOL0     H29684   3.272   3.401   6.428 -1.8677  3.5117  0.4350
  220MOL0     H29685   3.047   3.347   6.537 -1.9381 -1.5629  3.1999
  220MOL0     H29686   2.797   3.127   6.832 -0.0975 -1.2585  0.1869
  220MOL0     H29687   2.573   3.097   6.881 -0.4103 -0.1816  0.8375
  220MOL0     H29688   2.317   3.367   7.117  2.8139  0.4996 -3.8731
  220MOL0     H29689   2.389   3.271   7.249 -0.4310 -0.2402 -0.4056
  220MOL0     H29690   2.161   3.250   7.246 -1.7908 -3.6598  1.2945
  220MOL0     H29691   2.222   3.093   7.202  0.7385 -0.5638  0.8668
  220MOL0     H29692   2.197   3.255   6.958 -1.7041  0.2219 -0.4968
  220MOL0     H29693   2.062   3.290   7.055  1.8012  2.6174  1.1389
  220MOL0     H29694   2.006   3.084   6.910 -2.2557  1.3968  1.6546
  220MOL0     H29695   2.138   3.004   7.008  0.7014  0.2408 -0.3177
  220MOL0     H29696   1.818   3.047   7.293 -0.3059 -0.5494  0.1807
  220MOL0     H29697   2.531   3.433   7.126 -1.4096 -1.5076 -1.3707
  220MOL0     H29698   2.785   3.599   6.944 -2.1450 -2.8484 -2.0194
  220MOL0     H29699   2.665   3.620   7.063 -0.1335  0.9045 -2.4695
  220MOL0     H29700   2.837   3.572   7.115  1.6552  0.7489 -2.5927
  221MOL0     O29701   4.417   2.022   0.110  0.2452  0.1455  0.8574
  221MOL0     C29702   4.361   2.043   0.005 -0.6093 -0.2607 -0.0476
  221MOL0     O29703   4.426   2.100  -0.104  0.1341 -0.1844  0.1395
  221MOL0     C29704   4.531   2.190  -0.092 -0.0948 -0.0357  0.3488
  221MOL0     C29705   4.616   2.198  -0.196  0.8561  0.2178  0.6134
  221MOL0     C29706   4.708   2.299  -0.203 -0.2897 -0.8227  0.8882
  221MOL0     C29707   4.738   2.370  -0.085 -0.2683 -0.0741 -0.4087
  221MOL0     O29708   4.843   2.454  -0.085 -0.3263 -0.7538 -0.0475
  221MOL0     C29709   4.803   2.584  -0.129 -0.5586 -0.4145  0.0847
  221MOL0     C29710   4.917   2.688  -0.111  0.2206  0.3832 -0.8847
  221MOL0     C29711   5.036   2.641  -0.195 -0.5192 -0.8096 -0.2896
  221MOL0     C29712   5.153   2.736  -0.176  0.5564 -0.9341  1.2688
  221MOL0     C29713   5.270   2.684  -0.260 -0.2293  0.3060  0.4407
  221MOL0     C29714   5.384   2.785  -0.280  0.5927 -0.2284 -0.5314
  221MOL0     C29715   5.500   2.735  -0.368  0.6830  0.3037 -1.2604
  221MOL0     C29716   5.591   2.852  -0.414  0.6297  0.3143 -0.2477
  221MOL0     N29717   5.686   2.803  -0.508 -0.2618  0.1491  0.9344
  221MOL0     C29718   5.676   2.805  -0.646 -0.6592 -0.4652 -0.1941
  221MOL0     C29719   5.800   2.821  -0.701  0.6999  0.7532  0.7816
  221MOL0     C29720   5.831   2.828  -0.845  0.3783  0.3186 -0.1438
  221MOL0     C29721   5.869   2.968  -0.889  0.0192 -1.2580  0.7509
  221MOL0     C29722   5.917   2.975  -1.033 -0.7633  0.4149 -0.0951
  221MOL0     C29723   6.057   2.910  -1.058 -0.5999  0.4217  0.7072
  221MOL0     O29724   6.160   2.971  -0.968  0.3763  0.2915  0.3309
  221MOL0     C29725   6.296   2.941  -1.001  0.1272 -0.2243  0.3429
  221MOL0     C29726   6.405   3.024  -0.955 -0.2126  0.8106  0.2290
  221MOL0     C29727   6.536   3.014  -1.002  0.4477 -0.2242  0.1187
  221MOL0     C29728   6.568   2.906  -1.095  0.1814  0.7664  0.3993
  221MOL0     C29729   6.694   2.880  -1.150  0.2367  0.3878  0.5009
  221MOL0     O29730   6.789   2.980  -1.121  0.7531  0.7821  0.0511
  221MOL0     C29731   6.913   2.967  -1.181 -0.6829 -0.9379  0.4820
  221MOL0     C29732   7.007   2.870  -1.159 -0.6192  0.1634 -0.3009
  221MOL0     C29733   7.130   2.867  -1.217 -0.3352 -0.2583  0.3950
  221MOL0     C29734   7.184   2.978  -1.299  0.2828 -0.7268  0.1317
  221MOL0     O29735   7.307   2.972  -1.349 -0.8345  0.4119 -0.5860
  221MOL0     C29736   7.313   2.992  -1.486 -0.2504  0.0601  0.9495
  221MOL0     C29737   7.432   3.066  -1.525 -0.6757  0.8215  0.3131
  221MOL0     C29738   7.559   2.970  -1.501 -0.2273 -0.2658 -0.2855
  221MOL0     C29739   7.688   3.021  -1.571 -0.2639 -0.9627  0.0114
  221MOL0     C29740   7.801   2.922  -1.541  0.0036  0.0700  0.2780
  221MOL0     C29741   7.933   2.961  -1.619 -1.0017 -0.3990 -0.7217
  221MOL0     C29742   7.994   3.086  -1.562  0.0602 -0.3292 -0.3853
  221MOL0     C29743   8.136   3.108  -1.615  0.0478 -0.1384 -0.8211
  221MOL0    Cl29744   8.220   3.236  -1.525 -0.2350  0.2004 -0.3611
  221MOL0     C29745   7.089   3.082  -1.311  0.6469 -0.1507 -0.1956
  221MOL0     C29746   6.955   3.070  -1.266 -0.2940 -0.1288 -0.4401
  221MOL0     O29747   6.708   2.789  -1.233  0.4065  0.5578  0.1092
  221MOL0     C29748   6.462   2.826  -1.134 -0.2044  0.5165  0.4710
  221MOL0     C29749   6.334   2.848  -1.094 -0.1147  0.5944 -0.6098
  221MOL0     N29750   5.882   2.815  -0.592  0.1662 -0.8227  0.4811
  221MOL0     N29751   5.820   2.808  -0.478 -0.0822 -0.3484 -0.1338
  221MOL0     C29752   4.667   2.346   0.027 -0.5219  0.0539 -0.4460
  221MOL0     C29753   4.559   2.258   0.022  0.0068 -0.2261 -0.0489
  221MOL0     C29754   4.214   2.001  -0.012  0.4228 -0.2167  0.3108
  221MOL0     C29755   4.144   2.073  -0.113  0.0128 -0.3081 -1.0864
  221MOL0     C29756   4.005   2.046  -0.129  0.1567 -0.7483 -0.3487
  221MOL0     C29757   3.941   1.947  -0.047 -0.7663 -0.6229  0.6644
  221MOL0     O29758   3.808   1.932  -0.056 -0.0089  0.1913  0.0470
  221MOL0     C29759   3.724   1.848   0.019 -0.4361 -0.0407 -0.0696
  221MOL0     C29760   3.586   1.880  -0.018 -0.9174 -0.3973 -0.1024
  221MOL0     C29761   3.495   1.777   0.055 -0.7307 -0.5798 -0.8402
  221MOL0     C29762   3.351   1.819   0.048 -0.6423  0.3827 -2.4063
  221MOL0     C29763   3.267   1.721   0.122 -0.6387  0.4469  0.5410
  221MOL0     C29764   3.215   1.637   0.191  0.2477  0.3094  0.4330
  221MOL0     C29765   4.023   1.869   0.035  0.3229 -0.5362  0.3678
  221MOL0     C29766   4.157   1.889   0.053 -0.6350 -0.2807  1.5425
  221MOL0     C29767   4.245   1.792   0.129  0.6658  1.0564  0.0336
  221MOL0     H29768   4.588   2.150  -0.290  1.1646  1.2395 -0.0119
  221MOL0     H29769   4.762   2.320  -0.295 -0.5875  1.1725  1.1312
  221MOL0     H29770   4.790   2.565  -0.236  1.0207 -2.7000  0.2429
  221MOL0     H29771   4.711   2.619  -0.080 -0.7502  3.5253 -2.5756
  221MOL0     H29772   4.942   2.685  -0.004 -2.1024  1.2180 -0.2494
  221MOL0     H29773   4.892   2.790  -0.142  1.2375  1.1912  0.7483
  221MOL0     H29774   5.008   2.641  -0.301  0.7091 -0.5020 -0.6357
  221MOL0     H29775   5.071   2.541  -0.166 -0.3753 -0.1628  1.9911
  221MOL0     H29776   5.125   2.833  -0.218 -0.9116 -3.3015 -4.2053
  221MOL0     H29777   5.185   2.734  -0.072  1.3513 -2.0525  1.0211
  221MOL0     H29778   5.317   2.599  -0.209  0.0358  0.5458  0.6056
  221MOL0     H29779   5.236   2.653  -0.358 -3.1287 -0.1951  1.5242
  221MOL0     H29780   5.342   2.873  -0.329  1.9488  0.2731 -0.8624
  221MOL0     H29781   5.418   2.816  -0.181  0.5846  0.4062 -0.7211
  221MOL0     H29782   5.457   2.675  -0.449  1.3783  1.6513 -2.6592
  221MOL0     H29783   5.566   2.675  -0.305  0.4501 -0.3570 -1.6315
  221MOL0     H29784   5.536   2.934  -0.460 -1.9065 -0.8274  0.5696
  221MOL0     H29785   5.641   2.883  -0.321  2.1684  4.0365 -2.0938
  221MOL0     H29786   5.585   2.823  -0.703 -1.1797  3.4083  1.5720
  221MOL0     H29787   5.917   2.761  -0.859 -1.8454 -2.5979 -0.8484
  221MOL0     H29788   5.749   2.778  -0.896  0.3757 -1.0002  1.0939
  221MOL0     H29789   5.781   3.030  -0.868  0.5209 -0.7627  1.4540
  221MOL0     H29790   5.946   3.014  -0.826  0.8194 -1.6120  0.0415
  221MOL0     H29791   5.922   3.078  -1.070 -1.3121 -0.7267 -3.8392
  221MOL0     H29792   5.840   2.925  -1.094 -0.1074 -1.4666  0.5434
  221MOL0     H29793   6.091   2.938  -1.158  0.9509 -0.2934  1.0192
  221MOL0     H29794   6.054   2.801  -1.049 -1.1621  0.4482  0.8990
  221MOL0     H29795   6.392   3.111  -0.892  2.3574  2.9115 -1.9184
  221MOL0     H29796   6.615   3.078  -0.965  1.6152 -0.8522 -1.1674
  221MOL0     H29797   6.995   2.797  -1.080 -1.5317  2.1810  1.5427
  221MOL0     H29798   7.207   2.792  -1.202  0.2920  0.1605 -0.6368
  221MOL0     H29799   7.294   2.894  -1.530 -0.6506  0.9941 -1.0751
  221MOL0     H29800   7.238   3.060  -1.528  1.5867  2.1911  0.9510
  221MOL0     H29801   7.406   3.087  -1.629 -0.4732  0.3839  0.1731
  221MOL0     H29802   7.437   3.164  -1.477 -0.1322  1.1057 -0.3015
  221MOL0     H29803   7.586   2.945  -1.399  1.3338 -1.3460 -0.9249
  221MOL0     H29804   7.529   2.874  -1.545 -1.3555 -1.7351  3.3150
  221MOL0     H29805   7.713   3.122  -1.536 -2.2334  0.7624 -3.0850
  221MOL0     H29806   7.669   3.029  -1.679 -1.2757  3.9639  0.3179
  221MOL0     H29807   7.770   2.823  -1.578 -1.6282  0.9278 -0.7507
  221MOL0     H29808   7.814   2.920  -1.433 -0.6696  1.0857  0.3901
  221MOL0     H29809   8.017   2.891  -1.616  0.4461  1.2900  0.6988
  221MOL0     H29810   7.903   2.978  -1.723 -0.8163 -1.5102 -0.9640
  221MOL0     H29811   7.978   3.095  -1.454 -2.3424 -0.5295 -0.6646
  221MOL0     H29812   7.936   3.168  -1.604  1.8279  2.8568  2.7925
  221MOL0     H29813   8.208   3.027  -1.603  1.8985  1.3677 -1.3919
  221MOL0     H29814   8.135   3.136  -1.720  1.1146  1.5487 -0.4311
  221MOL0     H29815   7.107   3.166  -1.378 -0.9724  2.8241  2.7910
  221MOL0     H29816   6.868   3.131  -1.292 -1.1179  0.2948  2.8783
  221MOL0     H29817   6.477   2.763  -1.221  2.6670 -0.6894  1.7375
  221MOL0     H29818   6.263   2.783  -1.146 -0.1021 -0.9113  1.1414
  221MOL0     H29819   4.680   2.391   0.125 -3.6283 -0.4296  0.2828
  221MOL0     H29820   4.504   2.254   0.115 -1.5125  4.9903 -0.3987
  221MOL0     H29821   4.193   2.145  -0.178 -0.0485  0.1569 -0.6156
  221MOL0     H29822   3.949   2.110  -0.197  1.7816 -0.8625 -1.8827
  221MOL0     H29823   3.750   1.871   0.123  0.0628  2.0635 -0.5944
  221MOL0     H29824   3.737   1.744  -0.012 -0.2837 -0.0451  0.0071
  221MOL0     H29825   3.574   1.876  -0.126  1.4236  4.1142 -0.7499
  221MOL0     H29826   3.567   1.983   0.012  0.0052  1.0174 -3.8923
  221MOL0     H29827   3.519   1.771   0.161 -0.6309  0.6342 -0.7724
  221MOL0     H29828   3.509   1.674   0.021 -1.3740 -1.2568  0.8385
  221MOL0     H29829   3.335   1.918   0.091 -3.3744 -0.9687 -0.0305
  221MOL0     H29830   3.318   1.819  -0.056 -0.6742  1.5124 -2.4017
  221MOL0     H29831   3.161   1.571   0.255  3.0083  1.7269  4.6100
  221MOL0     H29832   3.987   1.789   0.099  2.0184  0.9774  3.4237
  221MOL0     H29833   4.244   1.817   0.235  1.9329  0.7634  0.1315
  221MOL0     H29834   4.204   1.691   0.119  0.4524  1.3277 -2.6753
  221MOL0     H29835   4.345   1.789   0.083  0.3176  0.4283 -0.6992
  222MOL0     O29836   6.483   3.921   0.183 -0.2543 -0.3380 -0.5389
  222MOL0     C29837   6.559   3.864   0.104  0.0702  0.3130 -0.5866
  222MOL0     O29838   6.629   3.743   0.134  0.1958 -0.4625  0.2204
  222MOL0     C29839   6.587   3.680   0.252  0.2573  0.5472  0.3029
  222MOL0     C29840   6.485   3.582   0.233  0.1757  0.3301 -0.0264
  222MOL0     C29841   6.443   3.518   0.348  0.9941 -0.6262  0.0613
  222MOL0     C29842   6.491   3.550   0.477  0.4308 -0.6786 -0.1040
  222MOL0     O29843   6.440   3.482   0.591  1.0174 -0.1975 -1.1796
  222MOL0     C29844   6.355   3.366   0.569  0.2243 -0.1163 -0.3919
  222MOL0     C29845   6.291   3.330   0.696  0.1069  0.6986 -0.3272
  222MOL0     C29846   6.173   3.237   0.685  0.0050 -1.0601  0.4385
  222MOL0     C29847   6.070   3.282   0.803  0.1068 -0.6723  1.0881
  222MOL0     C29848   5.951   3.186   0.798 -0.0031 -0.8401 -0.0644
  222MOL0     C29849   5.878   3.185   0.933  0.8699 -0.8714 -0.1703
  222MOL0     C29850   5.752   3.108   0.931  0.5742  0.0408 -0.3739
  222MOL0     C29851   5.667   3.131   1.065 -0.0219  0.5214  0.1888
  222MOL0     N29852   5.745   3.093   1.185  0.5296 -0.0561  0.6842
  222MOL0     C29853   5.688   3.030   1.293  0.3511 -1.2132 -0.1197
  222MOL0     C29854   5.782   3.020   1.391  0.9729  0.1586  0.2939
  222MOL0     C29855   5.767   2.935   1.511  0.7788  0.8837 -0.1771
  222MOL0     C29856   5.664   2.982   1.620  0.6425  0.2281 -0.7001
  222MOL0     C29857   5.518   2.947   1.595 -1.1437 -0.5491 -0.1228
  222MOL0     C29858   5.419   3.034   1.683  0.5323  0.2942 -0.1714
  222MOL0     O29859   5.434   2.998   1.814  0.7521 -0.6724  0.0774
  222MOL0     C29860   5.319   3.030   1.884  0.3545 -0.2595  0.1624
  222MOL0     C29861   5.226   3.129   1.848 -0.0374 -0.9762  0.0327
  222MOL0     C29862   5.112   3.167   1.928 -0.6818  0.6896 -0.6703
  222MOL0     C29863   5.091   3.104   2.063 -0.5094 -0.0585  0.0575
  222MOL0     C29864   4.974   3.142   2.141 -0.2862  0.3067 -0.0736
  222MOL0     O29865   4.954   3.077   2.261 -0.2931  0.3387 -0.9213
  222MOL0     C29866   4.843   3.115   2.340 -1.0848  0.1067 -0.1152
  222MOL0     C29867   4.804   3.253   2.351 -0.8840  0.5580  0.8594
  222MOL0     C29868   4.701   3.285   2.433  0.1965 -0.3170 -0.0740
  222MOL0     C29869   4.616   3.189   2.500 -0.3420  0.2587  0.5819
  222MOL0     O29870   4.517   3.222   2.579 -0.0176 -0.2971  0.3851
  222MOL0     C29871   4.489   3.358   2.617 -0.9299  0.0925  0.1754
  222MOL0     C29872   4.382   3.362   2.724  0.4634 -0.3907 -0.5929
  222MOL0     C29873   4.250   3.402   2.675  0.3175  0.2587  0.6945
  222MOL0     C29874   4.240   3.556   2.642  0.1810 -0.5071 -0.2010
  222MOL0     C29875   4.100   3.609   2.598  1.0051 -0.3738 -0.1064
  222MOL0     C29876   3.993   3.607   2.719 -0.5257  1.1103  0.6802
  222MOL0     C29877   4.025   3.709   2.827 -0.7077 -0.2152 -0.1978
  222MOL0     C29878   3.941   3.704   2.955 -0.4001 -0.0805  0.0957
  222MOL0    Cl29879   3.774   3.733   2.899  0.2058 -0.1363  0.4970
  222MOL0     C29880   4.640   3.055   2.476  0.4107  0.1962 -0.6846
  222MOL0     C29881   4.756   3.025   2.404 -0.4339  0.6921  0.8480
  222MOL0     O29882   4.902   3.224   2.088  0.2233 -0.4728  0.1814
  222MOL0     C29883   5.195   3.013   2.099 -0.0720  0.7810  1.8832
  222MOL0     C29884   5.301   2.974   2.014  0.6599 -0.4132 -0.4988
  222MOL0     N29885   5.880   3.107   1.352  0.1370  0.8145 -0.4558
  222MOL0     N29886   5.860   3.149   1.230 -0.2454 -0.4678 -0.4543
  222MOL0     C29887   6.586   3.647   0.497 -0.5109 -0.8430  0.1689
  222MOL0     C29888   6.634   3.710   0.381 -0.3212  0.8221 -0.3694
  222MOL0     C29889   6.581   3.914  -0.034 -0.1742 -0.0756 -0.6835
  222MOL0     C29890   6.704   3.879  -0.096  0.1463  0.4598 -0.7841
  222MOL0     C29891   6.736   3.927  -0.217  0.9677  0.3909 -0.0594
  222MOL0     C29892   6.643   3.989  -0.294  0.5628  0.7765 -0.6209
  222MOL0     O29893   6.667   4.038  -0.417 -0.9793 -0.2895  0.3755
  222MOL0     C29894   6.801   4.023  -0.465 -0.1430 -0.5159  0.1672
  222MOL0     C29895   6.884   4.144  -0.421  0.1414 -0.0587  0.1123
  222MOL0     C29896   7.031   4.112  -0.426 -0.4416  0.6634 -0.6533
  222MOL0     C29897   7.130   4.201  -0.344 -0.0771 -0.1157  0.9333
  222MOL0     C29898   7.270   4.184  -0.393  0.4962  0.2490 -0.2331
  222MOL0     C29899   7.384   4.178  -0.431 -0.4370 -0.7057  0.4785
  222MOL0     C29900   6.518   4.025  -0.235 -0.2409  0.1581 -0.5273
  222MOL0     C29901   6.485   3.998  -0.102 -0.2995  0.0285 -0.8064
  222MOL0     C29902   6.350   4.044  -0.055 -0.7674 -0.2672  0.2300
  222MOL0     H29903   6.446   3.556   0.136 -0.9465  0.5264  0.3552
  222MOL0     H29904   6.360   3.450   0.333  1.3721 -0.6209 -2.7390
  222MOL0     H29905   6.272   3.397   0.506 -1.8704  0.0598  2.2509
  222MOL0     H29906   6.404   3.280   0.523 -2.3389 -2.6419  1.2445
  222MOL0     H29907   6.259   3.421   0.747  0.9097  1.0684 -0.4550
  222MOL0     H29908   6.359   3.274   0.763 -0.0172 -0.6611 -1.3016
  222MOL0     H29909   6.210   3.134   0.690 -0.5510 -1.2097  2.5322
  222MOL0     H29910   6.132   3.258   0.586 -0.0271 -0.1162  0.6464
  222MOL0     H29911   6.126   3.269   0.897 -0.6782 -0.9972  1.5249
  222MOL0     H29912   6.038   3.385   0.788 -1.5962 -1.5693 -2.4486
  222MOL0     H29913   5.889   3.207   0.710  2.8087  1.7183 -1.6315
  222MOL0     H29914   5.987   3.083   0.785  0.4253 -0.5288 -1.5179
  222MOL0     H29915   5.952   3.138   0.999  2.6711  2.9609  0.8311
  222MOL0     H29916   5.851   3.288   0.961 -1.3720 -0.8750 -2.0050
  222MOL0     H29917   5.770   3.000   0.922 -3.0618 -0.5667 -1.9167
  222MOL0     H29918   5.694   3.120   0.840 -2.0930  1.3428  1.3981
  222MOL0     H29919   5.630   3.233   1.082 -1.1013  0.4228 -1.3572
  222MOL0     H29920   5.574   3.072   1.064  0.8210 -0.9253  2.0649
  222MOL0     H29921   5.586   2.991   1.293 -1.0939  2.0548 -2.4592
  222MOL0     H29922   5.758   2.829   1.483  2.1328  0.0061  2.3936
  222MOL0     H29923   5.866   2.933   1.556  0.6524  2.5406  0.2232
  222MOL0     H29924   5.692   2.939   1.717 -1.6175  2.6053  1.1358
  222MOL0     H29925   5.668   3.091   1.624 -1.6973  0.3255 -0.0253
  222MOL0     H29926   5.500   2.841   1.619  2.4366 -0.9300  1.5651
  222MOL0     H29927   5.486   2.960   1.492 -1.8817 -2.1248 -0.1241
  222MOL0     H29928   5.322   3.014   1.636  1.3324 -1.9587 -1.0376
  222MOL0     H29929   5.440   3.141   1.676 -0.9345  0.5187 -2.9567
  222MOL0     H29930   5.231   3.176   1.751 -1.9592 -1.5921 -0.4190
  222MOL0     H29931   5.035   3.222   1.875 -0.0373  0.1714 -2.2080
  222MOL0     H29932   4.879   3.319   2.309  2.2526 -0.6677  3.9949
  222MOL0     H29933   4.680   3.391   2.435 -1.1907 -0.5785  0.9283
  222MOL0     H29934   4.583   3.408   2.641 -0.0833 -0.4786 -1.7579
  222MOL0     H29935   4.446   3.402   2.527 -1.8784  3.8263  2.2272
  222MOL0     H29936   4.360   3.262   2.763 -2.2507  0.9340  1.6908
  222MOL0     H29937   4.416   3.419   2.812 -2.4559 -0.9902  1.0752
  222MOL0     H29938   4.222   3.341   2.589 -2.3834  0.4504  1.3631
  222MOL0     H29939   4.174   3.367   2.746  0.1572 -1.6413 -0.3517
  222MOL0     H29940   4.317   3.574   2.567  0.9863  0.7140  0.8758
  222MOL0     H29941   4.273   3.611   2.731  0.6246  0.3791 -0.9036
  222MOL0     H29942   4.062   3.544   2.519  1.3331 -0.4099 -0.2336
  222MOL0     H29943   4.106   3.710   2.557 -0.9174  0.4262  1.3846
  222MOL0     H29944   3.891   3.620   2.681  0.0909  0.7457 -1.2351
  222MOL0     H29945   3.985   3.511   2.771 -5.3607 -0.3043 -2.1220
  222MOL0     H29946   3.999   3.804   2.780 -0.3255  0.6627  1.3090
  222MOL0     H29947   4.132   3.702   2.850 -0.6940  0.6859  0.0489
  222MOL0     H29948   3.953   3.608   3.004 -2.0432 -1.0151 -1.2327
  222MOL0     H29949   3.973   3.776   3.031  2.3907  1.5171 -2.3640
  222MOL0     H29950   4.565   2.980   2.501 -1.2822  1.2911 -2.2310
  222MOL0     H29951   4.793   2.924   2.386  1.7246  1.4703  0.6874
  222MOL0     H29952   5.189   2.956   2.191 -0.6420 -1.0344  0.7549
  222MOL0     H29953   5.377   2.906   2.050  1.3371  1.9863  3.1603
  222MOL0     H29954   6.609   3.683   0.596  0.9093  1.1639 -0.8044
  222MOL0     H29955   6.720   3.777   0.383 -0.1621  0.6295 -0.7024
  222MOL0     H29956   6.781   3.820  -0.046  2.3717  3.7910  0.0065
  222MOL0     H29957   6.835   3.900  -0.252  0.3029 -2.4304 -0.0751
  222MOL0     H29958   6.804   4.020  -0.574 -0.5517 -0.0162  0.1339
  222MOL0     H29959   6.847   3.927  -0.442  0.2755 -0.4397 -0.3245
  222MOL0     H29960   6.865   4.161  -0.315  1.9164 -0.4553  0.5251
  222MOL0     H29961   6.859   4.238  -0.471  2.3981  1.3276  1.3771
  222MOL0     H29962   7.054   4.114  -0.533  0.9765 -0.1939 -0.3923
  222MOL0     H29963   7.061   4.014  -0.388  0.6957  1.0324 -0.5466
  222MOL0     H29964   7.105   4.307  -0.360 -1.3450 -0.7869 -2.0272
  222MOL0     H29965   7.128   4.170  -0.239 -0.5815 -2.6350  0.2244
  222MOL0     H29966   7.481   4.170  -0.476 -0.1216 -2.4701  1.3604
  222MOL0     H29967   6.450   4.076  -0.303 -0.9194 -0.1721 -0.1100
  222MOL0     H29968   6.347   4.101   0.038 -0.5014  2.3618 -1.2946
  222MOL0     H29969   6.307   4.111  -0.130  1.7880 -0.5894 -1.6804
  222MOL0     H29970   6.290   3.953  -0.041  0.5898 -1.6413 -2.0770
  223MOL0     O29971   0.006   6.313   1.555  0.5172 -0.8715 -0.4733
  223MOL0     C29972  -0.001   6.192   1.575  0.6070  0.1939  0.2964
  223MOL0     O29973   0.105   6.107   1.576 -0.2654  0.1228  0.4613
  223MOL0     C29974   0.235   6.138   1.542  0.0428 -0.3944  0.4879
  223MOL0     C29975   0.297   6.268   1.542 -0.8724  0.4000 -1.0063
  223MOL0     C29976   0.427   6.284   1.491 -0.0664  0.0846  0.3169
  223MOL0     C29977   0.509   6.174   1.447  0.0083  0.4350 -0.1202
  223MOL0     O29978   0.643   6.191   1.403  0.4439  0.9895  0.0529
  223MOL0     C29979   0.666   6.172   1.264 -0.3743 -0.0426  0.8814
  223MOL0     C29980   0.766   6.054   1.234  0.2809 -0.9123  0.2879
  223MOL0     C29981   0.894   6.070   1.303 -0.4909  0.3365  0.8439
  223MOL0     C29982   0.981   5.954   1.260  0.2213  0.0513 -0.2585
  223MOL0     C29983   1.129   5.992   1.253 -0.2264  0.0346  0.0398
  223MOL0     C29984   1.209   5.867   1.216 -0.1134  0.1023 -0.3466
  223MOL0     C29985   1.360   5.899   1.195  0.8953 -0.0558 -0.3861
  223MOL0     C29986   1.436   5.792   1.262 -0.3212 -0.2285  0.2320
  223MOL0     N29987   1.583   5.794   1.223  0.9045  0.2700  0.1413
  223MOL0     C29988   1.657   5.912   1.209 -0.4764  0.0403  0.2723
  223MOL0     C29989   1.783   5.859   1.178  0.1171 -0.4819 -0.8671
  223MOL0     C29990   1.903   5.942   1.139 -0.3114 -0.5007 -0.3159
  223MOL0     C29991   1.948   6.044   1.256 -0.3566 -0.3167  0.1346
  223MOL0     C29992   1.984   5.988   1.394  0.5042  0.5753 -0.7318
  223MOL0     C29993   1.988   6.091   1.516  0.4619  0.0925 -0.6866
  223MOL0     O29994   2.093   6.191   1.502  0.4471 -0.2905 -0.0210
  223MOL0     C29995   2.224   6.164   1.524  1.0463  0.6181  0.4898
  223MOL0     C29996   2.268   6.034   1.566  0.4791 -0.9292 -0.7391
  223MOL0     C29997   2.400   6.016   1.608  0.3793 -0.2622 -0.1044
  223MOL0     C29998   2.488   6.123   1.618  0.5627 -0.4709 -0.6252
  223MOL0     C29999   2.627   6.105   1.664  0.0295 -0.5460  0.2205
  223MOL0     O30000   2.705   6.225   1.660 -0.0437  0.0351  0.5818
  223MOL0     C30001   2.841   6.229   1.675  0.2427  0.4188 -0.3144
  223MOL0     C30002   2.883   6.272   1.802 -1.0283 -0.1141 -0.2146
  223MOL0     C30003   3.016   6.313   1.826 -0.9483 -0.1365 -0.3630
  223MOL0     C30004   3.118   6.309   1.732  0.3923 -0.0922  0.5899
  223MOL0     O30005   3.253   6.346   1.758 -0.6185  0.0888 -0.3201
  223MOL0     C30006   3.310   6.282   1.874  0.0602 -1.1099 -0.4371
  223MOL0     C30007   3.377   6.382   1.979  0.0918  0.2540 -0.3900
  223MOL0     C30008   3.467   6.314   2.094 -1.0100 -0.4551  0.6643
  223MOL0     C30009   3.390   6.240   2.198 -0.6185  0.7680 -0.1548
  223MOL0     C30010   3.351   6.333   2.310  0.9256  0.4735 -0.2418
  223MOL0     C30011   3.272   6.263   2.429  0.4265 -0.7367  0.2092
  223MOL0     C30012   3.125   6.320   2.449 -0.2544  0.5933  1.2472
  223MOL0     C30013   3.072   6.283   2.591  0.2194  1.0111 -0.4718
  223MOL0    Cl30014   3.055   6.102   2.599  0.4158  0.1046 -0.1560
  223MOL0     C30015   3.078   6.261   1.604  0.4607  0.5220  0.7649
  223MOL0     C30016   2.936   6.239   1.575 -0.6590  0.1075  0.5987
  223MOL0     O30017   2.674   5.991   1.683 -0.3586  0.1553 -1.2961
  223MOL0     C30018   2.445   6.246   1.571 -1.0139  0.1982 -0.0414
  223MOL0     C30019   2.312   6.267   1.527  0.0650 -0.3511  0.4313
  223MOL0     N30020   1.767   5.723   1.168 -0.2493 -0.4906  0.3275
  223MOL0     N30021   1.646   5.679   1.196 -0.7672 -0.1601  0.1812
  223MOL0     C30022   0.448   6.045   1.457  0.2217  0.5783  0.5965
  223MOL0     C30023   0.313   6.030   1.501 -0.4090 -0.7733  0.8515
  223MOL0     C30024  -0.143   6.124   1.596  0.6504  0.4018 -0.0992
  223MOL0     C30025  -0.253   6.210   1.626 -0.1963 -0.0560 -0.5781
  223MOL0     C30026  -0.386   6.152   1.636 -0.0804 -1.4335  0.4441
  223MOL0     C30027  -0.408   6.020   1.618  0.3038 -0.3258 -0.6345
  223MOL0     O30028  -0.535   5.979   1.601 -0.0146 -0.0024 -1.0134
  223MOL0     C30029  -0.554   5.838   1.634 -0.0277  0.2337 -0.2010
  223MOL0     C30030  -0.692   5.795   1.659  0.5423 -0.6294  0.0496
  223MOL0     C30031  -0.796   5.813   1.542  0.9005 -0.1368 -1.4312
  223MOL0     C30032  -0.944   5.808   1.580 -0.9208 -0.7274  0.8542
  223MOL0     C30033  -1.029   5.830   1.466  0.1242  0.3686  0.1580
  223MOL0     C30034  -1.097   5.841   1.363  1.1553 -0.2196  0.7657
  223MOL0     C30035  -0.299   5.938   1.584 -0.2451 -0.4882 -0.4124
  223MOL0     C30036  -0.171   5.985   1.579 -0.7759 -0.7342  0.7268
  223MOL0     C30037  -0.064   5.889   1.527  0.8632  0.2037 -0.3917
  223MOL0     H30038   0.235   6.353   1.566 -1.1705 -0.2917  0.8757
  223MOL0     H30039   0.467   6.384   1.484 -2.2516  0.9210 -1.1631
  223MOL0     H30040   0.567   6.152   1.222 -0.5448 -0.5176  1.4981
  223MOL0     H30041   0.706   6.263   1.218 -3.0689  1.8626  2.0331
  223MOL0     H30042   0.773   6.044   1.126  1.2557 -0.0991  0.2580
  223MOL0     H30043   0.725   5.964   1.283  0.6179 -1.5035 -0.5000
  223MOL0     H30044   0.878   6.065   1.412  3.5199  3.0235  1.7844
  223MOL0     H30045   0.932   6.168   1.276 -2.6692  0.6573 -1.3651
  223MOL0     H30046   0.955   5.881   1.337 -2.0832 -0.7279 -1.6619
  223MOL0     H30047   0.964   5.932   1.154  3.4871  0.3546 -0.9381
  223MOL0     H30048   1.141   6.067   1.174  2.4430 -0.0648  0.2762
  223MOL0     H30049   1.167   6.036   1.346  0.0814  0.1681 -0.1496
  223MOL0     H30050   1.191   5.785   1.285 -0.2000 -0.0184 -0.5099
  223MOL0     H30051   1.164   5.826   1.125 -0.1576 -0.5058 -0.0551
  223MOL0     H30052   1.387   5.997   1.235  1.9058 -0.1702 -0.7653
  223MOL0     H30053   1.374   5.901   1.086  1.4088 -1.5332 -0.3740
  223MOL0     H30054   1.432   5.807   1.370  0.4180 -2.7864  0.6783
  223MOL0     H30055   1.410   5.687   1.247 -0.9437 -0.5102  2.8409
  223MOL0     H30056   1.638   6.018   1.221  4.2244  1.3474 -1.3144
  223MOL0     H30057   1.974   5.861   1.123  0.5002 -0.1993  1.5730
  223MOL0     H30058   1.885   5.985   1.040 -0.5794  0.1973  0.0238
  223MOL0     H30059   2.035   6.100   1.222 -0.6493  0.8515  1.2379
  223MOL0     H30060   1.875   6.124   1.268  0.4150  0.0485  3.2061
  223MOL0     H30061   2.065   5.914   1.392 -2.1665 -2.5280 -1.7933
  223MOL0     H30062   1.895   5.928   1.416 -0.0569  1.5471 -0.2759
  223MOL0     H30063   1.995   6.030   1.607 -1.5790  1.6412  0.6169
  223MOL0     H30064   1.886   6.130   1.514  0.5820  0.4016 -0.7362
  223MOL0     H30065   2.202   5.948   1.570 -0.4005 -0.2687 -0.6909
  223MOL0     H30066   2.428   5.916   1.639 -1.7289 -1.1874 -0.9730
  223MOL0     H30067   2.827   6.266   1.895 -1.5266  0.3388 -0.4861
  223MOL0     H30068   3.047   6.337   1.927 -0.3512 -0.9457 -0.3442
  223MOL0     H30069   3.242   6.215   1.928  0.1710 -2.4812 -1.9399
  223MOL0     H30070   3.392   6.225   1.830  0.0554 -1.0477 -0.5244
  223MOL0     H30071   3.443   6.447   1.921  1.7039 -2.4167 -1.7799
  223MOL0     H30072   3.307   6.449   2.029  1.1024  0.6506  0.5090
  223MOL0     H30073   3.547   6.250   2.053  1.8385  0.5506  4.1240
  223MOL0     H30074   3.529   6.392   2.140 -1.3247  0.1590  0.0714
  223MOL0     H30075   3.461   6.167   2.239  1.2881  2.6707  0.0938
  223MOL0     H30076   3.306   6.187   2.152 -3.0983  1.0325  3.6423
  223MOL0     H30077   3.290   6.409   2.261 -1.3345 -1.9924 -1.5108
  223MOL0     H30078   3.438   6.388   2.347  1.1131 -1.5999  2.7743
  223MOL0     H30079   3.259   6.158   2.402  1.6800 -0.3446 -2.2003
  223MOL0     H30080   3.336   6.267   2.518  0.7863 -3.0710  0.1149
  223MOL0     H30081   3.060   6.279   2.371  2.2984  0.9559 -1.2321
  223MOL0     H30082   3.117   6.429   2.444 -1.8323  0.4540 -2.3045
  223MOL0     H30083   3.142   6.316   2.669  0.6428  0.2495 -0.5230
  223MOL0     H30084   2.971   6.321   2.608  0.9124  3.0276 -0.5765
  223MOL0     H30085   3.151   6.263   1.524  0.9502  1.8763  1.2204
  223MOL0     H30086   2.907   6.207   1.475  0.8293 -1.8810  0.7423
  223MOL0     H30087   2.509   6.333   1.579 -1.2137  0.4044 -0.6711
  223MOL0     H30088   2.287   6.367   1.495 -2.9003 -0.9807  0.4890
  223MOL0     H30089   0.498   5.959   1.414  0.6796  1.4334 -0.6448
  223MOL0     H30090   0.262   5.934   1.492 -4.0880  1.2482 -4.4984
  223MOL0     H30091  -0.257   6.310   1.668  0.5693 -0.0651 -0.4709
  223MOL0     H30092  -0.476   6.206   1.661  0.1144 -1.7962  2.0505
  223MOL0     H30093  -0.498   5.809   1.722 -1.4207 -0.1671  0.5880
  223MOL0     H30094  -0.522   5.781   1.546 -1.3894 -1.6528  0.4495
  223MOL0     H30095  -0.724   5.859   1.742  2.7943  2.4137 -1.2524
  223MOL0     H30096  -0.704   5.692   1.695  0.0260 -1.6440 -2.7306
  223MOL0     H30097  -0.778   5.731   1.471  2.0660  0.2629 -1.6185
  223MOL0     H30098  -0.779   5.905   1.484  1.1159 -0.0150 -1.1738
  223MOL0     H30099  -0.968   5.710   1.623  2.7187 -2.7260 -1.1802
  223MOL0     H30100  -0.971   5.888   1.650 -1.7177 -0.3815  0.1628
  223MOL0     H30101  -1.163   5.856   1.280  2.0991  0.9208  0.1954
  223MOL0     H30102  -0.327   5.841   1.545 -3.1309 -0.0157  0.2611
  223MOL0     H30103  -0.003   5.867   1.615 -1.4071 -1.7077  0.8100
  223MOL0     H30104  -0.119   5.804   1.486 -1.3993  1.0795  0.6706
  223MOL0     H30105   0.001   5.936   1.452  1.0638  0.9521  0.2410
  224MOL0     O30106   2.305   8.493  10.277  0.5761 -0.1844 -0.9735
  224MOL0     C30107   2.336   8.438  10.383  0.6330  0.2753  0.0647
  224MOL0     O30108   2.255   8.384  10.474  1.3944  0.3286  0.3880
  224MOL0     C30109   2.120   8.384  10.456 -0.1213 -0.5637 -0.9435
  224MOL0     C30110   2.044   8.483  10.391 -0.2636 -0.8453  1.6392
  224MOL0     C30111   1.902   8.469  10.400 -1.0272 -0.0294  0.5580
  224MOL0     C30112   1.849   8.361  10.459  0.5629  1.4906  0.4951
  224MOL0     O30113   1.715   8.372  10.467  0.2035  0.2783  1.0243
  224MOL0     C30114   1.646   8.248  10.440  0.0424  0.3368 -0.2730
  224MOL0     C30115   1.501   8.263  10.396  0.4077  0.5999  0.5903
  224MOL0     C30116   1.412   8.327  10.498 -0.2588 -0.7254  0.1853
  224MOL0     C30117   1.343   8.234  10.598 -0.9217  0.6709  0.3254
  224MOL0     C30118   1.232   8.162  10.534 -0.5464  0.0922  0.4400
  224MOL0     C30119   1.104   8.187  10.615 -0.2967 -0.0502 -0.4686
  224MOL0     C30120   0.987   8.126  10.541  1.0165 -0.5606  1.0559
  224MOL0     C30121   0.980   7.977  10.550  0.3120 -0.1774 -0.6955
  224MOL0     N30122   0.856   7.926  10.492  0.2120 -0.6285 -0.5771
  224MOL0     C30123   0.721   7.925  10.548 -0.4539  0.2411 -0.1491
  224MOL0     C30124   0.642   7.866  10.460 -0.2363 -1.0912 -0.4964
  224MOL0     C30125   0.503   7.827  10.482  0.8968  0.0408 -0.1163
  224MOL0     C30126   0.471   7.680  10.451 -0.7885  0.7475 -0.8121
  224MOL0     C30127   0.330   7.645  10.478 -0.0667  0.2077  0.2172
  224MOL0     C30128   0.311   7.494  10.434  0.3636 -0.9727 -1.0767
  224MOL0     O30129   0.394   7.392  10.492  0.8487  0.5136 -0.6196
  224MOL0     C30130   0.334   7.313  10.583  0.9043  0.0211 -0.2670
  224MOL0     C30131   0.382   7.183  10.592 -0.5481 -0.1097 -1.4069
  224MOL0     C30132   0.299   7.086  10.658 -0.1006  0.0171 -0.4533
  224MOL0     C30133   0.189   7.116  10.729 -0.2982  0.3194 -0.4370
  224MOL0     C30134   0.101   7.010  10.783  0.8793 -0.6692 -0.2115
  224MOL0     O30135  -0.006   7.059  10.844  0.0630  0.6779 -0.1098
  224MOL0     C30136  -0.125   6.983  10.845 -0.3739 -0.0737  0.2564
  224MOL0     C30137  -0.152   6.858  10.791 -0.3026  0.3820  0.3507
  224MOL0     C30138  -0.277   6.792  10.794 -0.2475  0.4692  0.0997
  224MOL0     C30139  -0.386   6.861  10.857  0.0059 -0.2812 -0.2702
  224MOL0     O30140  -0.515   6.810  10.879 -0.0233  1.0509 -0.1851
  224MOL0     C30141  -0.617   6.873  10.963  0.4277  0.6278  0.1004
  224MOL0     C30142  -0.746   6.789  10.971  0.6492  0.9063 -0.0509
  224MOL0     C30143  -0.827   6.791  10.839 -0.6406  0.2694 -0.9063
  224MOL0     C30144  -0.937   6.692  10.857 -0.0714 -0.6588 -0.5315
  224MOL0     C30145  -1.034   6.715  10.749  0.4128  0.8718  0.1826
  224MOL0     C30146  -1.171   6.653  10.775  0.0656  0.2858  0.0048
  224MOL0     C30147  -1.179   6.502  10.803  0.0027 -1.1813 -0.4712
  224MOL0     C30148  -1.148   6.413  10.683  0.9856  0.0900 -0.0089
  224MOL0    Cl30149  -0.979   6.382  10.671  0.3787 -0.0287  0.2300
  224MOL0     C30150  -0.359   6.991  10.903 -0.2937 -0.5786  0.0540
  224MOL0     C30151  -0.230   7.047  10.903  0.2833 -0.1960 -0.2299
  224MOL0     O30152   0.138   6.896  10.788 -0.0438 -0.6324  0.0387
  224MOL0     C30153   0.149   7.252  10.728 -0.3559  0.6294  0.5761
  224MOL0     C30154   0.221   7.354  10.658  1.1553  0.1755  0.3866
  224MOL0     N30155   0.717   7.844  10.349  0.0829 -0.0220  0.4051
  224MOL0     N30156   0.842   7.873  10.370 -0.2029 -0.6307 -0.4633
  224MOL0     C30157   1.927   8.251  10.505  0.3254 -1.0892  0.4683
  224MOL0     C30158   2.064   8.269  10.515  0.6459  0.2284  0.5358
  224MOL0     C30159   2.480   8.431  10.412  0.0624  0.5280 -0.5327
  224MOL0     C30160   2.517   8.340  10.509  0.3568 -0.9333  0.3350
  224MOL0     C30161   2.647   8.305  10.536  0.1446  0.5753 -0.2551
  224MOL0     C30162   2.757   8.370  10.477 -0.0052  0.4035  0.2209
  224MOL0     O30163   2.888   8.330  10.496  0.6230 -0.0435  0.1697
  224MOL0     C30164   2.905   8.200  10.550  0.4670  0.3326 -0.3894
  224MOL0     C30165   3.060   8.165  10.544  0.1056 -0.1208 -0.7139
  224MOL0     C30166   3.103   8.129  10.402 -0.6335  0.2713 -0.3664
  224MOL0     C30167   3.225   8.044  10.405  0.1244  0.9037  0.9206
  224MOL0     C30168   3.339   8.125  10.432  0.9386  0.4805 -0.6077
  224MOL0     C30169   3.441   8.188  10.445 -0.3229 -0.1458 -0.5272
  224MOL0     C30170   2.724   8.474  10.383  0.7635  0.0533  0.9932
  224MOL0     C30171   2.588   8.511  10.353 -0.2744  0.5026  0.4920
  224MOL0     C30172   2.566   8.624  10.256  0.2574 -0.5989 -0.2378
  224MOL0     H30173   2.075   8.564  10.326  2.6878 -0.9014  2.8323
  224MOL0     H30174   1.840   8.541  10.348 -1.2363 -2.3127 -2.6218
  224MOL0     H30175   1.698   8.193  10.360 -2.8530  0.0180 -2.0808
  224MOL0     H30176   1.640   8.176  10.522 -0.4166  0.4031 -0.2479
  224MOL0     H30177   1.464   8.173  10.347  4.0397  0.3884 -2.1613
  224MOL0     H30178   1.493   8.334  10.313  0.0225  1.8506  1.6438
  224MOL0     H30179   1.335   8.387  10.449  1.2248  0.0647 -1.2686
  224MOL0     H30180   1.484   8.399  10.538  1.0650  0.1155 -3.3657
  224MOL0     H30181   1.411   8.166  10.650  2.5058  2.6769 -1.2247
  224MOL0     H30182   1.307   8.294  10.682 -2.5689 -1.9954  1.6549
  224MOL0     H30183   1.220   8.185  10.427  1.8463 -1.6966 -0.2951
  224MOL0     H30184   1.261   8.057  10.543 -0.9339 -0.0384  0.1614
  224MOL0     H30185   1.113   8.143  10.714 -1.7922  1.5895  0.4647
  224MOL0     H30186   1.078   8.292  10.635 -0.5643 -0.2047  0.0028
  224MOL0     H30187   0.980   8.176  10.443  2.1234  1.0598  1.7518
  224MOL0     H30188   0.892   8.164  10.579 -0.4622  1.2243 -3.6789
  224MOL0     H30189   1.067   7.937  10.498  1.4292  0.2052  0.7861
  224MOL0     H30190   0.990   7.947  10.655 -0.3861  0.5768 -0.4018
  224MOL0     H30191   0.694   7.966  10.645 -1.0691 -1.4975  0.4511
  224MOL0     H30192   0.463   7.846  10.582 -0.4470 -3.7124  0.2212
  224MOL0     H30193   0.439   7.891  10.421 -1.5510 -1.3625  0.7988
  224MOL0     H30194   0.492   7.660  10.345 -0.2309 -0.6346 -0.4606
  224MOL0     H30195   0.542   7.612  10.500 -1.5224  1.6327  1.6206
  224MOL0     H30196   0.266   7.700  10.409  0.7932 -2.1012 -2.6338
  224MOL0     H30197   0.299   7.646  10.583 -0.4909  1.1993  0.0949
  224MOL0     H30198   0.346   7.484  10.331  1.2010  0.5924 -0.9754
  224MOL0     H30199   0.204   7.474  10.440  0.2249  0.0167  0.0425
  224MOL0     H30200   0.476   7.158  10.544  1.8665  2.2977  1.6404
  224MOL0     H30201   0.332   6.984  10.640  1.3496 -0.4236  3.5065
  224MOL0     H30202  -0.076   6.802  10.736 -3.3351 -1.2839 -2.4988
  224MOL0     H30203  -0.289   6.691  10.756  1.3021  0.1436  0.4310
  224MOL0     H30204  -0.570   6.875  11.062 -0.0920  3.2392  0.3751
  224MOL0     H30205  -0.625   6.978  10.934  2.0402  0.3344 -1.5766
  224MOL0     H30206  -0.717   6.688  11.001 -1.7784  0.4362  0.9748
  224MOL0     H30207  -0.813   6.829  11.048 -0.2931  0.5796 -0.6908
  224MOL0     H30208  -0.863   6.892  10.817 -2.7840 -0.6391 -1.8611
  224MOL0     H30209  -0.766   6.750  10.758 -0.6546  1.8783 -1.7796
  224MOL0     H30210  -0.978   6.715  10.956  1.2836  0.2752 -0.1690
  224MOL0     H30211  -0.915   6.584  10.852 -2.4170 -1.1361 -3.5434
  224MOL0     H30212  -0.994   6.666  10.660 -1.8019 -3.2771  1.2187
  224MOL0     H30213  -1.051   6.822  10.733 -4.1692 -0.1042 -3.5970
  224MOL0     H30214  -1.212   6.689  10.870 -1.0017 -0.9076  0.0213
  224MOL0     H30215  -1.240   6.689  10.699 -0.8320 -2.3921 -0.5610
  224MOL0     H30216  -1.287   6.486  10.816  0.1484 -1.6129  0.2715
  224MOL0     H30217  -1.133   6.470  10.897 -1.3211 -1.3951  0.1354
  224MOL0     H30218  -1.196   6.319  10.711 -0.0899  0.5955 -0.1327
  224MOL0     H30219  -1.199   6.456  10.597 -0.4028  5.0318  2.9051
  224MOL0     H30220  -0.432   7.052  10.954  2.1001  2.0731  0.5861
  224MOL0     H30221  -0.218   7.149  10.939 -4.0014  1.5380 -3.0228
  224MOL0     H30222   0.071   7.277  10.799  0.0982  2.8767  0.3761
  224MOL0     H30223   0.183   7.455  10.644  0.9163 -0.3656 -4.3593
  224MOL0     H30224   1.878   8.166  10.551 -2.3459 -1.0026 -1.9496
  224MOL0     H30225   2.137   8.191  10.535  0.6944 -0.4985 -2.1506
  224MOL0     H30226   2.440   8.280  10.556  0.3018 -0.8736  0.3213
  224MOL0     H30227   2.657   8.211  10.591 -1.3505  0.9397  0.7080
  224MOL0     H30228   2.856   8.128  10.484  1.1447 -1.0676  0.5892
  224MOL0     H30229   2.877   8.192  10.655  0.9494  3.1219  0.0298
  224MOL0     H30230   3.082   8.078  10.607 -0.0945  0.8752  0.7910
  224MOL0     H30231   3.115   8.249  10.586 -1.7170  0.7894 -0.0558
  224MOL0     H30232   3.112   8.212  10.333 -0.7476 -0.7419 -1.6356
  224MOL0     H30233   3.029   8.062  10.358  1.3266 -1.2410 -1.5413
  224MOL0     H30234   3.197   7.965  10.476 -2.0863  0.2946 -0.5228
  224MOL0     H30235   3.249   7.995  10.310  3.2843  3.2942  0.3355
  224MOL0     H30236   3.535   8.236  10.458 -0.6691 -0.0637  2.3098
  224MOL0     H30237   2.799   8.543  10.346 -0.6164  0.4012 -1.3449
  224MOL0     H30238   2.559   8.579  10.156 -0.4959 -2.2362  0.5106
  224MOL0     H30239   2.474   8.671  10.291 -0.6500 -2.9607  0.7422
  224MOL0     H30240   2.658   8.683  10.266 -1.5743  2.2678  0.6375
  225MOL0     O30241   8.304  10.159  10.524 -0.4955 -0.2650  0.1026
  225MOL0     C30242   8.209  10.085  10.492  0.3007  0.3834  0.1318
  225MOL0     O30243   8.225   9.962  10.437 -0.0717 -0.6111  0.0983
  225MOL0     C30244   8.351   9.915  10.400 -0.3150  0.0269  0.0425
  225MOL0     C30245   8.418   9.820  10.477  0.8392  0.0514  0.2964
  225MOL0     C30246   8.552   9.783  10.446  1.1239  0.3033  1.2126
  225MOL0     C30247   8.615   9.846  10.340 -0.5293 -0.5830 -0.4841
  225MOL0     O30248   8.750   9.820  10.330 -0.3729 -0.1617  0.0871
  225MOL0     C30249   8.823   9.718  10.411  0.6776 -0.4924 -1.0178
  225MOL0     C30250   8.791   9.568  10.374  0.3487 -0.0773  0.1616
  225MOL0     C30251   8.876   9.465  10.463  0.3418 -0.2049  0.3006
  225MOL0     C30252   9.020   9.463  10.405 -1.3292  0.3642 -0.0053
  225MOL0     C30253   9.094   9.333  10.462 -0.8963  0.2648 -0.2726
  225MOL0     C30254   9.225   9.289  10.382 -0.3600  0.0018 -0.0942
  225MOL0     C30255   9.321   9.411  10.401  0.1706 -0.1875  0.5572
  225MOL0     C30256   9.422   9.404  10.511  0.6031  0.7494 -0.4869
  225MOL0     N30257   9.388   9.439  10.648 -0.4108 -0.1805 -0.9808
  225MOL0     C30258   9.345   9.558  10.685 -0.0572 -0.2404  0.5016
  225MOL0     C30259   9.310   9.552  10.816 -0.6779  0.8162 -0.2399
  225MOL0     C30260   9.243   9.667  10.890 -0.0957 -0.3925 -0.0844
  225MOL0     C30261   9.132   9.737  10.816  0.7314 -0.1901  0.2467
  225MOL0     C30262   9.029   9.645  10.752 -0.2511  0.6330  0.2112
  225MOL0     C30263   8.962   9.556  10.860  0.7465 -0.4789  0.2685
  225MOL0     O30264   8.848   9.485  10.817  0.4776  0.0005  0.5522
  225MOL0     C30265   8.723   9.549  10.812 -0.0549  0.5162  0.6734
  225MOL0     C30266   8.702   9.685  10.835  0.1232 -1.3058  0.3056
  225MOL0     C30267   8.564   9.731  10.839 -0.3878 -0.0143  0.1891
  225MOL0     C30268   8.453   9.643  10.810  0.7719 -0.8997 -0.5477
  225MOL0     C30269   8.314   9.697  10.819  0.4056  1.3207  0.1194
  225MOL0     O30270   8.212   9.598  10.801 -0.7367  0.4630 -0.0391
  225MOL0     C30271   8.083   9.623  10.777  0.0047  1.0797  0.3329
  225MOL0     C30272   8.023   9.591  10.661  0.1855 -0.4765  0.4617
  225MOL0     C30273   7.886   9.622  10.639 -0.0006 -0.4401 -0.7765
  225MOL0     C30274   7.804   9.674  10.741  0.0541 -1.4810 -0.1473
  225MOL0     O30275   7.670   9.697  10.713  0.0084 -0.8318 -0.0967
  225MOL0     C30276   7.576   9.641  10.806 -0.3239 -0.6003 -0.3372
  225MOL0     C30277   7.573   9.487  10.782 -0.1669 -0.2790  0.1658
  225MOL0     C30278   7.457   9.429  10.861  0.4204  0.6123 -0.3019
  225MOL0     C30279   7.454   9.280  10.851 -0.1440 -0.2419 -0.5045
  225MOL0     C30280   7.395   9.227  10.714 -0.3538 -0.9258  0.2755
  225MOL0     C30281   7.241   9.240  10.718  0.6478 -0.6612 -0.1318
  225MOL0     C30282   7.170   9.113  10.712  0.4694  0.0166 -0.9244
  225MOL0     C30283   7.022   9.120  10.735  0.0382  0.1170 -0.0123
  225MOL0    Cl30284   6.920   9.148  10.588 -0.1092 -0.1890  0.1131
  225MOL0     C30285   7.866   9.704  10.869  0.1515  0.2065  0.6352
  225MOL0     C30286   8.005   9.674  10.881 -0.9719 -0.3504 -0.0741
  225MOL0     O30287   8.294   9.818  10.845 -0.1898  0.0963  0.2787
  225MOL0     C30288   8.489   9.509  10.778  1.0402  0.1003 -0.8380
  225MOL0     C30289   8.623   9.462  10.781  0.3624 -0.7816 -0.3756
  225MOL0     N30290   9.338   9.424  10.857 -0.4370  0.5135 -0.8347
  225MOL0     N30291   9.394   9.360  10.763 -0.4388  0.2832  0.0331
  225MOL0     C30292   8.547   9.933  10.259 -0.9608 -0.8902 -0.1347
  225MOL0     C30293   8.416   9.972  10.287  0.0830  0.4304 -1.0302
  225MOL0     C30294   8.069  10.131  10.528  0.2035  0.5894  0.1926
  225MOL0     C30295   7.985  10.032  10.584 -0.1943  0.2627  0.2438
  225MOL0     C30296   7.850  10.058  10.612 -0.3664  0.5952  0.3280
  225MOL0     C30297   7.799  10.190  10.588  0.5178 -1.2171 -0.4842
  225MOL0     O30298   7.662  10.231  10.606 -0.1732  0.1110  0.2514
  225MOL0     C30299   7.599  10.275  10.733  0.6788  0.4124  0.3804
  225MOL0     C30300   7.511  10.156  10.777 -0.3611  0.6785 -0.4919
  225MOL0     C30301   7.425  10.097  10.662 -0.9465 -1.2696  0.4733
  225MOL0     C30302   7.327   9.990  10.711 -0.7630 -0.4140  0.0982
  225MOL0     C30303   7.190  10.048  10.730  0.7698  0.4824  0.1738
  225MOL0     C30304   7.064  10.061  10.734 -0.8905 -0.2440  0.1263
  225MOL0     C30305   7.880  10.287  10.545 -0.3009 -0.3525  0.3056
  225MOL0     C30306   8.018  10.264  10.518  0.3112 -0.2230  0.3942
  225MOL0     C30307   8.090  10.383  10.464 -0.4155 -0.0194  0.9823
  225MOL0     H30308   8.368   9.773  10.561  1.3308 -0.1534  0.4770
  225MOL0     H30309   8.600   9.712  10.513  2.2142  1.9684  2.2790
  225MOL0     H30310   8.930   9.737  10.397  0.8329 -0.9849 -0.5328
  225MOL0     H30311   8.800   9.729  10.518 -0.9210 -2.4784 -1.1044
  225MOL0     H30312   8.810   9.543  10.269 -1.6616 -0.5783 -0.1332
  225MOL0     H30313   8.684   9.546  10.376  0.3946 -0.6258 -1.5561
  225MOL0     H30314   8.824   9.372  10.438 -3.7977  1.9286  0.1227
  225MOL0     H30315   8.874   9.481  10.571 -0.5178  2.5733 -0.0445
  225MOL0     H30316   9.024   9.450  10.297  3.2055 -1.4998  0.1821
  225MOL0     H30317   9.079   9.550  10.436  2.7682 -1.7771 -1.0801
  225MOL0     H30318   9.130   9.341  10.566 -2.6097 -1.3113  0.4906
  225MOL0     H30319   9.022   9.252  10.453 -2.0870  1.3980 -1.4313
  225MOL0     H30320   9.277   9.201  10.421  2.4133  0.6621 -2.0789
  225MOL0     H30321   9.204   9.257  10.280 -0.8615 -0.6215  0.1952
  225MOL0     H30322   9.279   9.512  10.407  1.9135  0.5648  0.9520
  225MOL0     H30323   9.378   9.413  10.307 -1.8412  0.1673 -0.7029
  225MOL0     H30324   9.443   9.298  10.529 -3.8173  0.2546  3.7332
  225MOL0     H30325   9.506   9.470  10.486 -0.5222  3.3859  2.1775
  225MOL0     H30326   9.323   9.637  10.614 -0.9712 -1.5269 -0.7126
  225MOL0     H30327   9.206   9.624  10.984  4.1793 -0.6445  1.7402
  225MOL0     H30328   9.312   9.747  10.919 -1.5976  1.7142 -2.0071
  225MOL0     H30329   9.085   9.803  10.889  0.4932 -2.9186  2.7273
  225MOL0     H30330   9.177   9.796  10.734  0.8364 -1.1893 -0.4311
  225MOL0     H30331   9.080   9.589  10.672 -2.0076  3.7066 -3.4058
  225MOL0     H30332   8.951   9.697  10.695 -1.3522 -1.2481 -0.1136
  225MOL0     H30333   8.945   9.617  10.949  3.2138 -1.1849  1.3135
  225MOL0     H30334   9.039   9.485  10.890 -0.2537 -0.6155  2.7502
  225MOL0     H30335   8.775   9.764  10.848 -1.8942  0.8193 -0.5647
  225MOL0     H30336   8.552   9.835  10.868  1.5364  0.1197  0.6081
  225MOL0     H30337   8.080   9.557  10.575 -1.4329 -1.2564 -0.3488
  225MOL0     H30338   7.839   9.608  10.542 -0.0259 -1.9578 -0.5666
  225MOL0     H30339   7.612   9.667  10.906 -0.7122 -0.4497 -0.2327
  225MOL0     H30340   7.486   9.699  10.782 -0.1602 -0.7818 -1.4691
  225MOL0     H30341   7.568   9.471  10.674  2.2458 -2.0867  0.2409
  225MOL0     H30342   7.659   9.442  10.831 -1.2395 -1.4262  1.0495
  225MOL0     H30343   7.471   9.453  10.967  2.5487  1.7240 -0.7674
  225MOL0     H30344   7.361   9.471  10.831  0.4930  0.0089 -1.4184
  225MOL0     H30345   7.403   9.231  10.934 -0.1421 -1.0112 -0.9543
  225MOL0     H30346   7.559   9.249  10.862 -0.2242 -1.2087 -2.1497
  225MOL0     H30347   7.427   9.124  10.697  2.8666 -0.1547  0.8067
  225MOL0     H30348   7.445   9.274  10.629  2.0563 -0.6698  1.7269
  225MOL0     H30349   7.203   9.317  10.785 -0.8930  1.9456 -3.6591
  225MOL0     H30350   7.223   9.292  10.623  1.1973 -1.3800 -0.6389
  225MOL0     H30351   7.215   9.044  10.785  2.9800  0.6997 -1.7161
  225MOL0     H30352   7.197   9.064  10.618 -1.5375  1.1760 -2.1853
  225MOL0     H30353   6.987   9.019  10.759 -2.1535  0.5025 -1.2420
  225MOL0     H30354   6.997   9.180  10.823  2.0640 -1.2288  1.5695
  225MOL0     H30355   7.801   9.731  10.951 -4.1774 -4.1926 -0.8784
  225MOL0     H30356   8.058   9.679  10.976  0.8439  0.1963 -1.0728
  225MOL0     H30357   8.410   9.437  10.756 -0.0738  0.5302  1.5136
  225MOL0     H30358   8.647   9.359  10.754 -0.3936 -0.4562 -2.4576
  225MOL0     H30359   8.606   9.982  10.183 -1.4263  0.5990  0.4295
  225MOL0     H30360   8.359  10.055  10.246  0.2522  1.9897  1.6524
  225MOL0     H30361   8.024   9.933  10.607 -0.4485  0.2322  0.5665
  225MOL0     H30362   7.781   9.981  10.643  1.1364 -0.0037  2.4104
  225MOL0     H30363   7.541  10.366  10.714  2.7660  2.1426  1.9209
  225MOL0     H30364   7.673  10.300  10.809  0.7229  0.0214  0.4654
  225MOL0     H30365   7.448  10.193  10.858 -2.0339  4.6042 -3.2557
  225MOL0     H30366   7.574  10.078  10.822 -0.9025  0.6587  0.2397
  225MOL0     H30367   7.491  10.052  10.587  2.8889  1.2692  1.9943
  225MOL0     H30368   7.376  10.188  10.627  2.0896 -0.1074 -1.1547
  225MOL0     H30369   7.321   9.915  10.631  0.1902 -2.3766  1.7777
  225MOL0     H30370   7.369   9.944  10.800 -1.0069 -0.5848  0.1237
  225MOL0     H30371   6.958  10.075  10.743 -0.4934  3.9944  0.5505
  225MOL0     H30372   7.843  10.388  10.532 -1.7230 -0.9056 -0.0820
  225MOL0     H30373   8.020  10.465  10.448 -1.6315 -1.4227 -1.4715
  225MOL0     H30374   8.159  10.426  10.537  0.2826  1.2922 -0.3814
  225MOL0     H30375   8.152  10.354  10.379 -0.3616 -2.3181  1.7256
  226MOL0     O30376  10.487   5.868   7.423 -0.3521 -0.3108 -0.4006
  226MOL0     C30377  10.548   5.967   7.468  0.6621  0.8652 -0.7260
  226MOL0     O30378  10.500   6.075   7.539  0.1599 -0.1728 -0.0804
  226MOL0     C30379  10.376   6.067   7.601 -0.2449  0.4163 -0.4160
  226MOL0     C30380  10.303   6.176   7.614 -0.4676 -1.2178 -0.0038
  226MOL0     C30381  10.175   6.173   7.678 -0.8001 -0.2599  0.5686
  226MOL0     C30382  10.144   6.058   7.750  0.2058  0.1449  0.6249
  226MOL0     O30383  10.027   6.033   7.814  0.4330 -0.4162 -0.4013
  226MOL0     C30384   9.958   6.152   7.857  1.0006 -0.3750  0.7815
  226MOL0     C30385   9.841   6.117   7.937 -0.0683 -0.6338  0.0392
  226MOL0     C30386   9.726   6.049   7.861 -0.1173  0.1699 -0.0410
  226MOL0     C30387   9.617   6.001   7.954 -0.3141 -0.2052  0.5918
  226MOL0     C30388   9.492   5.971   7.873 -0.6831  0.3763  0.4053
  226MOL0     C30389   9.408   6.087   7.821  0.7231  0.9231 -1.1892
  226MOL0     C30390   9.284   6.032   7.751 -0.5323 -0.0049  0.0249
  226MOL0     C30391   9.173   5.964   7.837 -0.2930 -0.3664  0.9162
  226MOL0     N30392   9.033   5.992   7.788  0.0682 -0.0252 -0.1317
  226MOL0     C30393   8.927   6.054   7.851 -0.6231  0.2024  0.2853
  226MOL0     C30394   8.846   6.099   7.761 -0.5575 -0.2367 -0.8713
  226MOL0     C30395   8.725   6.178   7.790  0.0219  0.2152 -0.5003
  226MOL0     C30396   8.737   6.322   7.734 -0.9928 -0.6697  0.5184
  226MOL0     C30397   8.810   6.429   7.823  1.1772  0.4340 -0.7856
  226MOL0     C30398   8.959   6.412   7.854  0.7639 -0.0250  0.1905
  226MOL0     O30399   9.009   6.538   7.887  0.2218  0.0847  0.9801
  226MOL0     C30400   9.147   6.532   7.876 -0.0133 -0.0067  0.2334
  226MOL0     C30401   9.224   6.436   7.933  0.2432  0.2051 -0.3469
  226MOL0     C30402   9.363   6.451   7.917  0.1346 -0.5789  0.3390
  226MOL0     C30403   9.425   6.546   7.835 -0.1886 -0.2352  0.6762
  226MOL0     C30404   9.572   6.539   7.816  0.3174 -0.3420 -0.4718
  226MOL0     O30405   9.621   6.627   7.727 -0.0921  0.3978 -0.1979
  226MOL0     C30406   9.748   6.607   7.677  0.6355  0.9933  0.5007
  226MOL0     C30407   9.761   6.561   7.544  0.3236  0.2282  0.0160
  226MOL0     C30408   9.884   6.546   7.487 -0.1426 -0.0770  0.2110
  226MOL0     C30409  10.000   6.551   7.556 -0.4765  0.6793 -1.0965
  226MOL0     O30410  10.112   6.525   7.482 -0.4831  0.1925  0.0231
  226MOL0     C30411  10.237   6.553   7.535 -0.1003 -0.4412  0.8083
  226MOL0     C30412  10.355   6.515   7.439 -0.1646  0.1997  0.0501
  226MOL0     C30413  10.478   6.508   7.522 -0.3190  0.0506  0.0240
  226MOL0     C30414  10.592   6.474   7.426 -0.9542  0.5420 -0.1115
  226MOL0     C30415  10.730   6.465   7.490 -0.0988 -0.3563 -0.4533
  226MOL0     C30416  10.750   6.345   7.573  0.7295  0.4959 -0.0087
  226MOL0     C30417  10.903   6.330   7.606 -0.7480 -0.5723  0.1043
  226MOL0     C30418  10.944   6.312   7.753  0.5630  0.1704 -0.1512
  226MOL0    Cl30419  10.889   6.156   7.818  0.4937 -0.0350 -0.2651
  226MOL0     C30420   9.997   6.590   7.693 -0.1020 -0.0849 -0.5553
  226MOL0     C30421   9.868   6.615   7.745 -0.6552 -0.3574  0.0129
  226MOL0     O30422   9.629   6.440   7.859 -0.0818  0.0906 -0.7022
  226MOL0     C30423   9.336   6.630   7.759 -0.6187  0.3401  0.3852
  226MOL0     C30424   9.204   6.625   7.791  0.4396 -0.6646 -1.3259
  226MOL0     N30425   8.882   6.044   7.642 -1.4701  0.3676 -0.6245
  226MOL0     N30426   9.004   5.995   7.664  0.8182  0.0195  0.6424
  226MOL0     C30427  10.220   5.953   7.739  0.3447  0.3293  0.2604
  226MOL0     C30428  10.331   5.947   7.658  0.5367  0.6175 -1.2825
  226MOL0     C30429  10.691   5.979   7.439 -0.5026  0.3809  0.5979
  226MOL0     C30430  10.725   6.034   7.316 -0.4716  0.1189  0.2109
  226MOL0     C30431  10.862   6.042   7.282 -0.3207  0.1393 -0.2224
  226MOL0     C30432  10.957   5.981   7.371  0.0914 -0.4640 -0.1948
  226MOL0     O30433  11.086   6.005   7.334 -0.6117  0.6493 -0.0258
  226MOL0     C30434  11.187   5.965   7.424  0.3359  0.2256 -0.4588
  226MOL0     C30435  11.196   6.054   7.546 -0.6324  0.1893 -0.1882
  226MOL0     C30436  11.333   6.036   7.612  0.6925 -0.5773 -0.2168
  226MOL0     C30437  11.345   5.907   7.699 -0.9084  0.3892  0.9276
  226MOL0     C30438  11.475   5.894   7.766  0.0563 -0.4167  0.0907
  226MOL0     C30439  11.574   5.866   7.837  0.3966  0.4008  0.1405
  226MOL0     C30440  10.912   5.908   7.480 -0.3486  0.6964 -0.4020
  226MOL0     C30441  10.775   5.909   7.519 -0.7903 -0.1686 -0.1474
  226MOL0     C30442  10.727   5.857   7.655 -0.5634 -0.8579  0.2281
  226MOL0     H30443  10.323   6.261   7.551  0.8849 -3.2364 -2.5022
  226MOL0     H30444  10.105   6.255   7.670 -0.6441 -0.0252  1.4540
  226MOL0     H30445  10.034   6.215   7.903  1.1099  0.5331 -0.5924
  226MOL0     H30446   9.920   6.196   7.765  2.2860 -2.9592 -1.1307
  226MOL0     H30447   9.810   6.211   7.983  3.1342 -0.1596  1.5180
  226MOL0     H30448   9.878   6.055   8.020 -1.8366 -0.8868  0.6835
  226MOL0     H30449   9.760   5.979   7.784 -0.9063 -1.3366  0.9404
  226MOL0     H30450   9.678   6.127   7.802 -0.2509  1.6492  1.9304
  226MOL0     H30451   9.663   5.911   7.996  2.1038  0.9246  0.5684
  226MOL0     H30452   9.592   6.078   8.028  1.2789 -0.8193  1.8492
  226MOL0     H30453   9.521   5.908   7.788  0.3860  0.3921  0.7381
  226MOL0     H30454   9.434   5.907   7.939 -1.3625 -1.3182 -1.6945
  226MOL0     H30455   9.370   6.149   7.902 -0.6056  0.0886 -1.1458
  226MOL0     H30456   9.470   6.166   7.776  1.1085  2.0878  1.2179
  226MOL0     H30457   9.318   5.955   7.681 -0.7912  0.5007 -0.6708
  226MOL0     H30458   9.250   6.110   7.681 -1.8218  0.1564  0.8041
  226MOL0     H30459   9.174   5.856   7.821 -0.0089 -0.0029 -2.1675
  226MOL0     H30460   9.185   5.986   7.943 -0.7634  1.5409  0.6211
  226MOL0     H30461   8.937   6.073   7.957  2.5321  2.0513 -0.2053
  226MOL0     H30462   8.636   6.127   7.754 -2.1010  0.3025  3.9430
  226MOL0     H30463   8.690   6.186   7.894 -0.1776  0.2419 -0.5699
  226MOL0     H30464   8.796   6.309   7.643 -2.6551 -1.6314 -0.4704
  226MOL0     H30465   8.641   6.363   7.703 -1.2832 -1.4944  0.3123
  226MOL0     H30466   8.763   6.437   7.922  0.0983 -1.0938 -1.1466
  226MOL0     H30467   8.797   6.524   7.771  0.5685 -0.4524 -2.3002
  226MOL0     H30468   9.006   6.382   7.759  0.0320  0.8868 -0.4733
  226MOL0     H30469   8.976   6.345   7.939 -1.6853  2.2011  2.6067
  226MOL0     H30470   9.167   6.387   8.012 -1.4554  1.9790 -0.4020
  226MOL0     H30471   9.434   6.399   7.981  2.6242  1.6527 -0.4789
  226MOL0     H30472   9.681   6.552   7.471  0.2371 -0.0421  0.1423
  226MOL0     H30473   9.890   6.522   7.381  1.8853 -0.8836  0.4711
  226MOL0     H30474  10.255   6.659   7.557  2.3307 -0.3165 -1.2980
  226MOL0     H30475  10.258   6.501   7.629 -1.9892  1.2388  2.2611
  226MOL0     H30476  10.345   6.421   7.384 -0.6771 -0.1548  0.7345
  226MOL0     H30477  10.366   6.593   7.363  0.1166  2.9807  2.7485
  226MOL0     H30478  10.501   6.607   7.561 -0.5851  1.1235 -2.3993
  226MOL0     H30479  10.474   6.434   7.604  0.9377  0.3700  0.3971
  226MOL0     H30480  10.596   6.554   7.352 -1.6547 -1.7514 -2.7810
  226MOL0     H30481  10.587   6.382   7.366  0.0345  1.6167 -1.9329
  226MOL0     H30482  10.752   6.554   7.551  2.4960 -0.5747 -0.9527
  226MOL0     H30483  10.801   6.464   7.406  1.6239 -0.2828  0.9331
  226MOL0     H30484  10.690   6.357   7.664 -1.3373 -1.4496 -1.0201
  226MOL0     H30485  10.728   6.257   7.512  0.4806  2.1332 -2.4353
  226MOL0     H30486  10.964   6.411   7.563 -1.1069 -0.1837  0.3210
  226MOL0     H30487  10.945   6.241   7.559  2.3504  0.6880  0.2428
  226MOL0     H30488  11.052   6.296   7.749  0.1983 -3.3791  0.8564
  226MOL0     H30489  10.906   6.387   7.823 -1.4126  0.7637 -1.7528
  226MOL0     H30490  10.087   6.579   7.753 -1.3784 -2.2037  1.1303
  226MOL0     H30491   9.851   6.647   7.848  1.5009 -1.8422  0.9002
  226MOL0     H30492   9.373   6.693   7.679 -1.5503  0.0937 -0.2645
  226MOL0     H30493   9.142   6.700   7.744  2.8949  1.9168 -0.7440
  226MOL0     H30494  10.198   5.856   7.784 -0.3206 -0.9820 -2.6863
  226MOL0     H30495  10.374   5.848   7.660 -2.5694 -0.8409  1.2479
  226MOL0     H30496  10.642   6.061   7.250 -1.6367  1.2286  2.0470
  226MOL0     H30497  10.901   6.077   7.187 -2.6535 -0.6872 -1.6048
  226MOL0     H30498  11.282   5.969   7.370  2.0028  0.4998  2.3218
  226MOL0     H30499  11.167   5.863   7.457 -2.4688  1.2649  1.4695
  226MOL0     H30500  11.120   6.025   7.619 -3.7320  1.8313 -2.5606
  226MOL0     H30501  11.176   6.158   7.521  1.9231  0.7875 -0.0833
  226MOL0     H30502  11.348   6.115   7.686  1.5746 -0.6374 -0.3213
  226MOL0     H30503  11.413   6.036   7.537 -1.5293 -2.1962 -2.7754
  226MOL0     H30504  11.267   5.908   7.776 -1.9787  2.8783 -0.0785
  226MOL0     H30505  11.339   5.817   7.637  2.8556  1.1442 -0.8044
  226MOL0     H30506  11.655   5.823   7.892  1.0265  1.7288  0.3012
  226MOL0     H30507  10.978   5.858   7.550 -3.4120 -1.4185  1.1819
  226MOL0     H30508  10.719   5.937   7.728  0.9661 -0.3816 -0.0809
  226MOL0     H30509  10.634   5.800   7.657 -0.4566 -1.0315  0.2908
  226MOL0     H30510  10.800   5.787   7.698  0.9885  0.0706 -0.8004
  227MOL0     O30511   5.495  10.053   3.909 -0.3469 -0.5042  0.0746
  227MOL0     C30512   5.426   9.956   3.901  0.5518 -0.2423  0.6058
  227MOL0     O30513   5.446   9.848   3.970  0.1504  0.1086  0.5061
  227MOL0     C30514   5.535   9.828   4.079  0.1314 -0.2720  0.5802
  227MOL0     C30515   5.562   9.696   4.110 -0.4844  0.5932 -0.3086
  227MOL0     C30516   5.643   9.668   4.218  0.1505  1.2910 -0.0391
  227MOL0     C30517   5.683   9.771   4.300 -0.4644  0.4377 -1.5443
  227MOL0     O30518   5.751   9.753   4.416  0.6197  0.1914 -0.1584
  227MOL0     C30519   5.817   9.633   4.448 -0.5722  0.8422 -0.6332
  227MOL0     C30520   5.881   9.642   4.588  0.1433  0.7036 -0.2784
  227MOL0     C30521   5.990   9.748   4.593  0.3075  0.2270 -0.6518
  227MOL0     C30522   6.056   9.747   4.732 -0.3941 -0.0595 -0.1539
  227MOL0     C30523   6.184   9.658   4.727 -0.0799 -0.8176  0.4786
  227MOL0     C30524   6.309   9.727   4.667 -0.1247 -0.4687  0.0567
  227MOL0     C30525   6.323   9.869   4.739  0.3109  0.3102 -0.0183
  227MOL0     C30526   6.463   9.912   4.721  0.1169  0.3225  0.2669
  227MOL0     N30527   6.486  10.048   4.767 -0.8232  0.1550  0.2011
  227MOL0     C30528   6.467  10.158   4.685  0.1876 -0.4928  0.0696
  227MOL0     C30529   6.498  10.264   4.761  0.0949 -0.1771  0.2481
  227MOL0     C30530   6.484  10.408   4.725  0.2652 -0.1991 -0.2439
  227MOL0     C30531   6.415  10.439   4.593  0.3502 -0.2205 -0.4777
  227MOL0     C30532   6.445  10.595   4.569 -0.0401  0.4472 -0.5796
  227MOL0     C30533   6.355  10.653   4.463  0.5311  0.1954  0.4873
  227MOL0     O30534   6.229  10.685   4.532 -0.3141  0.8107  0.0828
  227MOL0     C30535   6.199  10.817   4.533  0.9903  0.9373 -0.1323
  227MOL0     C30536   6.116  10.845   4.647  0.0700  0.0240  0.0786
  227MOL0     C30537   6.079  10.979   4.676  0.1909 -0.3350  0.0043
  227MOL0     C30538   6.120  11.082   4.590 -0.2176 -0.8421 -0.3213
  227MOL0     C30539   6.087  11.233   4.620  0.3345  0.9913  0.1172
  227MOL0     O30540   6.016  11.256   4.732  0.6967 -0.3119 -0.2897
  227MOL0     C30541   5.956  11.381   4.752 -0.7429 -0.3213 -0.6523
  227MOL0     C30542   5.930  11.422   4.887 -0.0202  0.4632  0.2649
  227MOL0     C30543   5.871  11.542   4.910 -0.1867 -0.4888  0.0895
  227MOL0     C30544   5.838  11.630   4.801  0.0421 -0.5172  1.0211
  227MOL0     O30545   5.800  11.757   4.821  0.0311 -0.8544 -0.1555
  227MOL0     C30546   5.783  11.816   4.953  0.4436  0.4216  0.1960
  227MOL0     C30547   5.723  11.957   4.951  1.8134 -0.2355  0.3802
  227MOL0     C30548   5.565  11.970   4.939  0.0584 -1.0160  0.2715
  227MOL0     C30549   5.496  11.930   4.809  0.7732 -0.0176  0.0439
  227MOL0     C30550   5.344  11.950   4.837  0.1822 -0.7130  0.8316
  227MOL0     C30551   5.256  11.920   4.717 -0.0699 -0.9883  0.1130
  227MOL0     C30552   5.115  11.967   4.723  0.5746  0.1094 -0.1348
  227MOL0     C30553   5.025  11.914   4.837 -0.2278  0.0347 -0.2875
  227MOL0    Cl30554   5.015  11.734   4.821  0.1575  0.5613 -0.5271
  227MOL0     C30555   5.856  11.582   4.665 -0.0458  0.0804  0.1765
  227MOL0     C30556   5.906  11.455   4.640 -0.0971 -0.5107 -0.8406
  227MOL0     O30557   6.127  11.315   4.534  0.4364 -0.1284  0.4031
  227MOL0     C30558   6.190  11.045   4.470  0.2657  0.5463 -0.7080
  227MOL0     C30559   6.229  10.914   4.442 -0.6427 -0.1291 -0.1499
  227MOL0     N30560   6.540  10.214   4.884 -0.5642  0.4435  0.2030
  227MOL0     N30561   6.540  10.083   4.881 -0.1595 -0.9163 -1.2229
  227MOL0     C30562   5.653   9.906   4.281  0.3745  0.6725 -0.0502
  227MOL0     C30563   5.584   9.933   4.158 -0.3670  0.3468  0.4760
  227MOL0     C30564   5.295   9.963   3.828  0.4449 -0.1157 -0.0153
  227MOL0     C30565   5.192   9.873   3.870 -0.0403  0.3959 -0.4392
  227MOL0     C30566   5.074   9.866   3.808 -0.4526 -1.2876  1.3049
  227MOL0     C30567   5.041   9.954   3.707 -0.3714 -0.4214 -0.3588
  227MOL0     O30568   4.922   9.935   3.648 -0.2687 -0.7158 -0.0652
  227MOL0     C30569   4.896   9.980   3.507  1.0829  0.1034 -0.6858
  227MOL0     C30570   4.833  10.126   3.508 -0.5025  0.1404  0.1351
  227MOL0     C30571   4.803  10.178   3.368  0.6140  0.2980 -0.4666
  227MOL0     C30572   4.667  10.252   3.358  0.2706 -0.1355 -0.9376
  227MOL0     C30573   4.557  10.157   3.367 -0.0088  0.3015  0.7492
  227MOL0     C30574   4.470  10.066   3.373 -0.4562  0.0139  0.5275
  227MOL0     C30575   5.137  10.047   3.673 -1.0565  0.5857  0.9853
  227MOL0     C30576   5.266  10.045   3.726 -0.5253  0.2079  0.2741
  227MOL0     C30577   5.376  10.134   3.667  0.2664  0.0063  0.0937
  227MOL0     H30578   5.535   9.611   4.048  5.1637 -1.1481 -1.0317
  227MOL0     H30579   5.648   9.563   4.246 -0.8062  0.9655 -1.0309
  227MOL0     H30580   5.744   9.554   4.467  2.4140 -1.4236  2.6822
  227MOL0     H30581   5.889   9.595   4.374 -1.4168  0.0721 -1.0864
  227MOL0     H30582   5.925   9.544   4.606 -0.8851 -0.1376 -2.1060
  227MOL0     H30583   5.809   9.665   4.667 -0.4230  2.0618 -1.1573
  227MOL0     H30584   5.948   9.848   4.581 -2.9697 -1.2591 -2.8316
  227MOL0     H30585   6.061   9.745   4.510  0.4582  1.0376 -0.5545
  227MOL0     H30586   6.078   9.850   4.760 -0.0595 -0.7907  2.4792
  227MOL0     H30587   5.999   9.698   4.812  1.9397 -0.4846  1.3375
  227MOL0     H30588   6.210   9.630   4.829  0.4585 -0.7165  0.3702
  227MOL0     H30589   6.169   9.569   4.665 -0.2075  1.5112 -3.1611
  227MOL0     H30590   6.399   9.667   4.683 -0.3612 -0.6970  0.5387
  227MOL0     H30591   6.295   9.746   4.560  2.5331 -0.1999 -0.2918
  227MOL0     H30592   6.287   9.870   4.842 -0.3627 -0.8432 -0.2209
  227MOL0     H30593   6.266   9.934   4.672  0.1518  0.0459 -0.1411
  227MOL0     H30594   6.534   9.851   4.778  1.3068  1.7193  0.3561
  227MOL0     H30595   6.485   9.897   4.614 -2.1867  0.8995 -0.3350
  227MOL0     H30596   6.436  10.162   4.581 -3.1726  0.8601  1.0073
  227MOL0     H30597   6.435  10.454   4.811 -0.0386 -1.4187  0.2529
  227MOL0     H30598   6.581  10.453   4.701 -1.6360  4.7126  0.0074
  227MOL0     H30599   6.451  10.382   4.507 -0.8994 -0.0591 -1.1170
  227MOL0     H30600   6.312  10.408   4.609  0.0680  0.7604 -0.3429
  227MOL0     H30601   6.550  10.612   4.544  0.2262  2.0660  1.3794
  227MOL0     H30602   6.427  10.655   4.658 -1.4583 -1.4970  0.5182
  227MOL0     H30603   6.337  10.593   4.373 -1.5545 -0.4401  1.2689
  227MOL0     H30604   6.416  10.735   4.424  0.7914 -0.6529 -0.9812
  227MOL0     H30605   6.085  10.773   4.722 -3.2212  2.1897  1.0245
  227MOL0     H30606   6.027  11.003   4.769 -0.8255  1.8376 -1.0604
  227MOL0     H30607   5.967  11.358   4.966 -0.2242 -0.6430 -0.5015
  227MOL0     H30608   5.857  11.571   5.014  1.0629 -0.0702  0.1507
  227MOL0     H30609   5.719  11.745   5.008 -0.7469  2.8377  2.1108
  227MOL0     H30610   5.882  11.821   4.998 -0.1078 -0.5699  1.5860
  227MOL0     H30611   5.749  12.000   5.048 -0.9733  1.8813  0.3192
  227MOL0     H30612   5.763  12.016   4.868 -1.8797 -2.0730 -3.0697
  227MOL0     H30613   5.529  11.893   5.007  1.1989 -1.2816  0.5958
  227MOL0     H30614   5.543  12.072   4.972 -2.3793 -1.3582 -0.1360
  227MOL0     H30615   5.508  11.825   4.781 -4.7798 -1.7539  2.6683
  227MOL0     H30616   5.515  11.993   4.721  0.6005 -3.0086 -2.2952
  227MOL0     H30617   5.326  12.053   4.869  2.9119  0.2719 -0.5644
  227MOL0     H30618   5.325  11.880   4.919  3.7090 -3.6505 -0.6104
  227MOL0     H30619   5.291  11.965   4.623 -3.9470  1.1603 -0.5209
  227MOL0     H30620   5.251  11.812   4.699  0.8488 -0.9256 -0.6319
  227MOL0     H30621   5.065  11.930   4.634  0.6515 -0.9703  0.2522
  227MOL0     H30622   5.116  12.076   4.716 -0.9888  0.0130 -3.4493
  227MOL0     H30623   5.057  11.945   4.937 -0.6546  0.4229 -0.2653
  227MOL0     H30624   4.920  11.944   4.834 -0.6302 -1.2451  0.2338
  227MOL0     H30625   5.829  11.643   4.580  2.6753 -0.3285 -1.1033
  227MOL0     H30626   5.901  11.410   4.541 -0.1272  1.0272 -1.5692
  227MOL0     H30627   6.220  11.122   4.399 -1.5673 -0.3395 -2.5370
  227MOL0     H30628   6.298  10.897   4.360 -0.7023 -1.5548  0.0738
  227MOL0     H30629   5.690   9.988   4.342  0.7480 -0.4841  1.3273
  227MOL0     H30630   5.568  10.034   4.122  0.1027 -0.6473 -2.8593
  227MOL0     H30631   5.226   9.797   3.940  3.5801 -0.0054 -2.4126
  227MOL0     H30632   5.000   9.796   3.845 -1.3815 -0.5771  0.8538
  227MOL0     H30633   4.831   9.905   3.461 -1.8198  1.1662  1.3959
  227MOL0     H30634   4.995   9.978   3.460  2.0064 -3.1507  1.0726
  227MOL0     H30635   4.896  10.202   3.555 -0.9365  0.9966 -0.6347
  227MOL0     H30636   4.742  10.125   3.568  0.1762  2.1589  1.2753
  227MOL0     H30637   4.827  10.096   3.299  0.7544  0.7400 -0.9474
  227MOL0     H30638   4.880  10.249   3.337  0.1602  1.3661  0.7821
  227MOL0     H30639   4.648  10.336   3.425 -3.3367  1.0727 -3.2010
  227MOL0     H30640   4.655  10.304   3.262  0.9119  0.7684 -0.5464
  227MOL0     H30641   4.392   9.998   3.399 -0.3056  0.1690  1.3977
  227MOL0     H30642   5.121  10.125   3.599  0.2302 -0.1772 -0.1481
  227MOL0     H30643   5.407  10.211   3.739  1.0376  0.6007 -0.8512
  227MOL0     H30644   5.459  10.079   3.623 -0.6585  0.6212 -2.5696
  227MOL0     H30645   5.337  10.194   3.584  0.7718  3.3336  2.0853
  228MOL0     O30646   4.700   7.641   2.768 -0.3361 -0.3733  0.7686
  228MOL0     C30647   4.667   7.740   2.830 -0.3058  0.7526  0.3894
  228MOL0     O30648   4.728   7.865   2.821  0.3239  0.7250 -0.2909
  228MOL0     C30649   4.806   7.884   2.715 -0.4834  0.6428  0.0111
  228MOL0     C30650   4.923   7.819   2.713  0.3341  0.2315 -0.2903
  228MOL0     C30651   5.018   7.837   2.613 -0.9346 -0.3358 -0.2277
  228MOL0     C30652   4.989   7.931   2.509 -0.1460  0.4554  1.1044
  228MOL0     O30653   5.085   7.970   2.420  0.1701 -0.8653 -0.3977
  228MOL0     C30654   5.189   7.876   2.397 -0.6518 -0.2766  0.2195
  228MOL0     C30655   5.293   7.907   2.276 -0.2827  0.1907  0.2947
  228MOL0     C30656   5.423   7.813   2.286  0.3110  0.4175  0.1116
  228MOL0     C30657   5.533   7.859   2.186  0.1168 -1.1389  0.2465
  228MOL0     C30658   5.659   7.779   2.186 -0.4531  0.4138 -1.3942
  228MOL0     C30659   5.784   7.848   2.124  0.6992  0.5757 -0.2408
  228MOL0     C30660   5.907   7.753   2.122  0.4252 -1.2836  0.6152
  228MOL0     C30661   5.942   7.738   2.267  0.0261 -0.5449  0.0986
  228MOL0     N30662   6.084   7.714   2.283 -0.1538 -1.0305  0.7179
  228MOL0     C30663   6.130   7.598   2.333 -0.9618  0.0442 -0.4189
  228MOL0     C30664   6.256   7.617   2.372 -0.6029  0.3020  0.8726
  228MOL0     C30665   6.354   7.510   2.426 -1.0684 -0.3859 -0.2100
  228MOL0     C30666   6.321   7.469   2.562  1.0334  0.0316  0.2796
  228MOL0     C30667   6.326   7.576   2.668 -0.0667  0.8733  0.1355
  228MOL0     C30668   6.458   7.643   2.687 -0.7468 -0.3409  0.6138
  228MOL0     O30669   6.547   7.541   2.725  0.4497  0.2537  0.6662
  228MOL0     C30670   6.688   7.554   2.722 -0.1353  0.0119  0.0616
  228MOL0     C30671   6.763   7.434   2.713 -0.4838 -0.3762  0.8357
  228MOL0     C30672   6.902   7.440   2.685 -0.3368 -1.2082 -0.0482
  228MOL0     C30673   6.970   7.562   2.693  0.9427 -0.6361  1.1472
  228MOL0     C30674   7.113   7.570   2.685  0.4772  0.2869 -0.4687
  228MOL0     O30675   7.185   7.681   2.750  0.0271  0.3785 -0.6498
  228MOL0     C30676   7.328   7.671   2.754  0.8595  0.4111 -1.0487
  228MOL0     C30677   7.387   7.763   2.845 -1.1339 -1.3640 -0.1660
  228MOL0     C30678   7.524   7.785   2.845  0.2060 -0.2610  0.0560
  228MOL0     C30679   7.608   7.720   2.752  0.0246 -0.5174 -0.4140
  228MOL0     O30680   7.742   7.722   2.734  0.3129 -0.8482  0.0213
  228MOL0     C30681   7.811   7.840   2.776  0.5512 -0.3543 -0.0863
  228MOL0     C30682   7.930   7.846   2.682  0.4992  0.5571  0.1784
  228MOL0     C30683   8.007   7.711   2.682  0.7975  0.2251 -0.2932
  228MOL0     C30684   8.078   7.686   2.552 -1.0513  0.4537 -0.1979
  228MOL0     C30685   8.162   7.551   2.556 -0.1021  0.1559 -1.5669
  228MOL0     C30686   8.220   7.502   2.429 -0.5344 -0.7004  0.6497
  228MOL0     C30687   8.280   7.365   2.432  0.1157 -0.2066  1.0713
  228MOL0     C30688   8.367   7.342   2.312  0.7610  0.5993  0.1521
  228MOL0    Cl30689   8.521   7.433   2.336  0.1797  0.8086  0.2683
  228MOL0     C30690   7.547   7.638   2.655  0.7133 -0.2342  0.4136
  228MOL0     C30691   7.412   7.612   2.653 -0.5665 -0.0143 -0.0907
  228MOL0     O30692   7.167   7.476   2.626 -0.3479  0.0386  0.0342
  228MOL0     C30693   6.894   7.675   2.711 -0.1478 -0.4474 -0.2543
  228MOL0     C30694   6.754   7.673   2.732 -0.5610 -0.2729  0.6746
  228MOL0     N30695   6.284   7.754   2.366  0.3048 -0.3712 -0.1723
  228MOL0     N30696   6.176   7.809   2.321 -0.3318  0.0743  0.5618
  228MOL0     C30697   4.859   7.984   2.502 -0.5224 -0.0032  0.3258
  228MOL0     C30698   4.771   7.959   2.608  0.0553 -0.9977 -0.5760
  228MOL0     C30699   4.529   7.740   2.896  0.2873  0.1459  0.6507
  228MOL0     C30700   4.476   7.864   2.938  0.9735  0.4696  0.4117
  228MOL0     C30701   4.343   7.874   2.989 -0.2619  0.1993  1.1943
  228MOL0     C30702   4.265   7.766   3.005  0.3927  0.0221  0.4305
  228MOL0     O30703   4.133   7.775   3.044 -0.1914  0.1208  0.0769
  228MOL0     C30704   4.100   7.883   3.131  1.2652  0.1820 -0.3542
  228MOL0     C30705   4.011   7.986   3.063 -1.2346 -0.3886 -0.1084
  228MOL0     C30706   3.961   8.080   3.173 -0.0561 -0.2871  0.7932
  228MOL0     C30707   3.871   8.190   3.113 -1.7688 -0.0004 -0.5383
  228MOL0     C30708   3.950   8.309   3.076  0.5438 -0.2598  0.1688
  228MOL0     C30709   4.023   8.397   3.060 -0.8771  0.4386  0.6223
  228MOL0     C30710   4.313   7.646   2.972  0.5763 -0.4404  0.5439
  228MOL0     C30711   4.442   7.623   2.924 -0.1215 -0.1876 -0.2304
  228MOL0     C30712   4.479   7.484   2.919 -0.6708  0.4641 -0.4026
  228MOL0     H30713   4.931   7.753   2.799  0.4291  3.8827  2.7463
  228MOL0     H30714   5.113   7.786   2.614  0.0690  1.3868 -1.4302
  228MOL0     H30715   5.259   7.888   2.480  1.9222  3.1458 -2.1945
  228MOL0     H30716   5.145   7.775   2.392  0.5843 -0.7747 -1.6843
  228MOL0     H30717   5.312   8.014   2.279  0.8006  0.1945 -3.0683
  228MOL0     H30718   5.247   7.879   2.181 -3.0497  0.2688  1.5277
  228MOL0     H30719   5.412   7.709   2.255  3.2735 -0.3576  1.2600
  228MOL0     H30720   5.466   7.801   2.386 -0.3112 -1.7329  0.1809
  228MOL0     H30721   5.502   7.865   2.081  5.0635  1.4184 -1.3900
  228MOL0     H30722   5.555   7.965   2.203 -2.0201  0.0485 -3.3078
  228MOL0     H30723   5.671   7.758   2.293 -2.0250 -1.7808 -1.5503
  228MOL0     H30724   5.660   7.676   2.147  1.7052 -0.6719  1.2167
  228MOL0     H30725   5.762   7.877   2.020 -1.3767 -2.3601 -0.7475
  228MOL0     H30726   5.816   7.944   2.166  3.0316  1.1329 -2.9302
  228MOL0     H30727   5.979   7.791   2.049 -1.7317  0.4329 -0.7310
  228MOL0     H30728   5.889   7.654   2.079 -1.0026 -1.3861  1.3752
  228MOL0     H30729   5.917   7.827   2.326 -1.8974 -2.0372  1.6747
  228MOL0     H30730   5.888   7.664   2.327  1.9108 -0.5800  1.8706
  228MOL0     H30731   6.073   7.506   2.334  1.7584 -1.8856  3.3933
  228MOL0     H30732   6.359   7.424   2.359  3.4725 -0.5962  0.0619
  228MOL0     H30733   6.459   7.542   2.421 -1.0441 -0.3411  0.5103
  228MOL0     H30734   6.223   7.420   2.558  0.5543  1.0107 -0.7577
  228MOL0     H30735   6.378   7.383   2.599 -0.3837 -0.5903  1.0880
  228MOL0     H30736   6.291   7.538   2.764 -4.1033 -0.7880 -1.7604
  228MOL0     H30737   6.250   7.649   2.640 -0.4315  0.6611  0.5623
  228MOL0     H30738   6.448   7.717   2.767 -2.3437  0.4030 -0.2373
  228MOL0     H30739   6.499   7.681   2.593 -2.0347 -1.6091 -0.5137
  228MOL0     H30740   6.713   7.338   2.720  2.6800 -2.2741 -0.5066
  228MOL0     H30741   6.964   7.352   2.677  2.0185  0.3639 -0.1728
  228MOL0     H30742   7.325   7.827   2.907 -2.2526 -2.5898  0.0354
  228MOL0     H30743   7.569   7.838   2.928  1.6406  0.8373 -1.3531
  228MOL0     H30744   7.756   7.934   2.775  1.6372  0.4012 -3.5316
  228MOL0     H30745   7.843   7.821   2.879 -0.4049 -2.8728 -0.2015
  228MOL0     H30746   7.887   7.864   2.583 -2.3939 -0.8121  1.0610
  228MOL0     H30747   7.995   7.933   2.696  2.3205 -0.6196 -0.7577
  228MOL0     H30748   8.072   7.720   2.770  0.6052  0.5096 -0.1818
  228MOL0     H30749   7.942   7.623   2.691 -1.9685  2.1697  0.0248
  228MOL0     H30750   8.154   7.763   2.532  3.3126 -3.2487  0.3345
  228MOL0     H30751   8.009   7.668   2.470  0.4964 -3.9354 -0.7957
  228MOL0     H30752   8.102   7.468   2.595  0.8158 -0.8077 -2.1787
  228MOL0     H30753   8.247   7.572   2.622  1.7387 -2.6016 -2.9010
  228MOL0     H30754   8.131   7.498   2.364  1.3699 -2.1161 -2.0889
  228MOL0     H30755   8.293   7.574   2.391 -0.1393 -1.6907 -0.5235
  228MOL0     H30756   8.205   7.284   2.427 -0.2718  0.2161 -1.1032
  228MOL0     H30757   8.341   7.361   2.522  0.6968  1.0635  0.7538
  228MOL0     H30758   8.378   7.233   2.304  0.1225  0.4648  0.8975
  228MOL0     H30759   8.327   7.379   2.218  2.3315  0.4656 -0.6072
  228MOL0     H30760   7.602   7.596   2.571 -1.5904  0.8455 -1.7970
  228MOL0     H30761   7.380   7.545   2.574 -2.9416 -0.1740  0.9277
  228MOL0     H30762   6.932   7.776   2.722 -0.9165 -0.3794  2.8103
  228MOL0     H30763   6.720   7.775   2.745 -0.8431 -0.3987  0.9312
  228MOL0     H30764   4.822   8.049   2.424 -1.8061 -3.0807 -1.8473
  228MOL0     H30765   4.672   8.003   2.616 -0.3466 -2.0603  0.8595
  228MOL0     H30766   4.529   7.958   2.922  2.0738 -0.2735 -0.5161
  228MOL0     H30767   4.305   7.973   3.014  4.6958  3.2499 -1.7341
  228MOL0     H30768   4.186   7.936   3.175 -1.9431  4.6312  1.3718
  228MOL0     H30769   4.045   7.847   3.218 -0.7839  1.0421 -1.2429
  228MOL0     H30770   3.924   7.935   3.020 -2.2354 -0.0050  1.3651
  228MOL0     H30771   4.072   8.043   2.993 -0.5429 -2.1721 -1.0211
  228MOL0     H30772   4.046   8.133   3.217 -0.3186  0.2650  0.6374
  228MOL0     H30773   3.897   8.039   3.251 -1.5106  2.3648  1.1245
  228MOL0     H30774   3.807   8.157   3.030  0.6807  0.8261 -2.8925
  228MOL0     H30775   3.804   8.211   3.197 -1.0273 -0.9655  0.3201
  228MOL0     H30776   4.099   8.472   3.046  2.5198 -2.8493 -0.2396
  228MOL0     H30777   4.257   7.554   2.980  0.3275 -0.3914 -0.4618
  228MOL0     H30778   4.586   7.467   2.935 -0.5836  1.0254 -0.3787
  228MOL0     H30779   4.419   7.428   2.991 -2.6667  1.4882 -1.1811
  228MOL0     H30780   4.437   7.446   2.826 -3.3978  4.7731 -1.2111
  229MOL0     O30781   2.792   4.358   0.610  0.4854 -0.0233  0.1220
  229MOL0     C30782   2.905   4.305   0.610 -0.1631  0.4579 -0.7847
  229MOL0     O30783   3.020   4.358   0.657  0.3257 -0.6439 -0.4607
  229MOL0     C30784   3.048   4.487   0.708  0.9874  0.3161 -0.5671
  229MOL0     C30785   3.176   4.550   0.698  0.1833 -0.3424 -0.1352
  229MOL0     C30786   3.208   4.674   0.762  0.4485 -0.1226 -0.2860
  229MOL0     C30787   3.099   4.742   0.820 -0.2672  0.0776  0.2057
  229MOL0     O30788   3.113   4.870   0.871 -0.2792  0.3389 -0.0540
  229MOL0     C30789   3.177   4.881   0.995 -1.0494  0.3141  0.0040
  229MOL0     C30790   3.172   5.022   1.045  0.3696 -0.6143 -0.0301
  229MOL0     C30791   3.304   5.081   1.099  0.1939 -0.0810  0.6293
  229MOL0     C30792   3.283   5.223   1.156  0.5807 -0.5012  0.2664
  229MOL0     C30793   3.405   5.270   1.220  0.2855  0.7190 -0.0692
  229MOL0     C30794   3.373   5.374   1.338 -0.4744  0.7881  0.8933
  229MOL0     C30795   3.489   5.446   1.401 -0.3029  0.1310  0.3897
  229MOL0     C30796   3.575   5.354   1.478  0.5655  1.2650 -0.0159
  229MOL0     N30797   3.508   5.318   1.608 -0.1916  0.3573 -0.0269
  229MOL0     C30798   3.464   5.200   1.649  0.3901  0.6915  1.0579
  229MOL0     C30799   3.429   5.225   1.776  0.4190 -0.1359 -0.2726
  229MOL0     C30800   3.374   5.123   1.869 -0.1228  0.8764 -0.8612
  229MOL0     C30801   3.245   5.040   1.833 -0.2771 -0.0136 -0.3773
  229MOL0     C30802   3.116   5.110   1.791  0.0450 -0.3158 -0.4478
  229MOL0     C30803   3.121   5.177   1.653  0.6522 -0.8883  1.7667
  229MOL0     O30804   3.145   5.089   1.539  0.0903  0.3223 -0.4031
  229MOL0     C30805   3.041   5.018   1.488 -0.1727  0.5314  0.2698
  229MOL0     C30806   2.906   5.028   1.531  0.2149 -0.0704  0.9255
  229MOL0     C30807   2.807   4.960   1.465  0.0981  0.0055 -0.0916
  229MOL0     C30808   2.841   4.861   1.368 -0.5219 -0.7850 -0.5180
  229MOL0     C30809   2.732   4.784   1.319  1.0718  0.1607 -0.7375
  229MOL0     O30810   2.610   4.782   1.381 -0.2230 -0.2221 -0.5752
  229MOL0     C30811   2.493   4.717   1.341 -0.3837  0.4480  0.4380
  229MOL0     C30812   2.480   4.637   1.225 -0.0185  0.3180  0.0093
  229MOL0     C30813   2.368   4.560   1.209  0.2852 -1.0895  0.0341
  229MOL0     C30814   2.265   4.565   1.301 -0.1759  0.3054  0.7141
  229MOL0     O30815   2.149   4.488   1.283 -0.7429  0.1550 -0.5467
  229MOL0     C30816   2.153   4.364   1.347  0.1369  1.0558 -0.3232
  229MOL0     C30817   2.196   4.253   1.255 -0.3239 -0.0153 -0.5446
  229MOL0     C30818   2.131   4.133   1.309  0.0340 -0.2569  0.2076
  229MOL0     C30819   2.184   4.015   1.222  0.1154 -0.0033 -0.0585
  229MOL0     C30820   2.129   3.884   1.279  0.3481  0.0854 -0.1210
  229MOL0     C30821   1.980   3.859   1.259  0.6098  0.4341  0.2272
  229MOL0     C30822   1.925   3.716   1.262  0.6234  0.9044 -0.6064
  229MOL0     C30823   1.879   3.672   1.409 -0.9862 -0.9141 -0.1593
  229MOL0    Cl30824   1.723   3.747   1.460  0.1988  0.2383 -0.2527
  229MOL0     C30825   2.270   4.662   1.398 -0.9173 -0.3195  0.0145
  229MOL0     C30826   2.384   4.734   1.424 -0.6667  0.7818 -0.3087
  229MOL0     O30827   2.759   4.716   1.223  0.0497 -0.3821 -0.3432
  229MOL0     C30828   2.976   4.856   1.312  0.9125  0.7923 -1.2155
  229MOL0     C30829   3.075   4.943   1.372  0.1759  0.3406 -0.7429
  229MOL0     N30830   3.438   5.362   1.807  0.2079 -0.3989 -0.0679
  229MOL0     N30831   3.488   5.411   1.703  0.3449  0.3070  0.4667
  229MOL0     C30832   2.975   4.685   0.825  0.1445 -0.1438  0.6141
  229MOL0     C30833   2.952   4.558   0.773 -0.2817 -0.1758  0.8068
  229MOL0     C30834   2.905   4.156   0.555  0.9744 -1.0194  0.1375
  229MOL0     C30835   2.835   4.131   0.437 -0.1057 -0.2030 -0.2297
  229MOL0     C30836   2.853   4.003   0.382 -0.1627  0.2870  0.7805
  229MOL0     C30837   2.911   3.902   0.450  0.5821  0.6866 -0.5884
  229MOL0     O30838   2.901   3.782   0.391  0.0398 -0.4076 -0.2645
  229MOL0     C30839   2.869   3.673   0.470 -0.1156 -0.1582  0.4630
  229MOL0     C30840   2.734   3.618   0.411 -0.0199  0.0300 -0.4513
  229MOL0     C30841   2.741   3.505   0.299 -0.0702 -0.7691  0.2172
  229MOL0     C30842   2.842   3.407   0.355 -0.0006  1.5229 -0.7652
  229MOL0     C30843   2.803   3.276   0.302  0.1086  0.1427 -0.0490
  229MOL0     C30844   2.769   3.165   0.266 -0.3891 -0.0267 -1.3320
  229MOL0     C30845   2.956   3.931   0.579  0.0286 -0.2879 -0.3625
  229MOL0     C30846   2.961   4.057   0.636 -0.2746  0.2918  0.9525
  229MOL0     C30847   3.007   4.076   0.770 -0.7134  0.2693  0.2684
  229MOL0     H30848   3.260   4.505   0.645  1.8814  1.6874  0.7063
  229MOL0     H30849   3.303   4.726   0.761  1.0601 -0.8640  3.5828
  229MOL0     H30850   3.136   4.805   1.062  2.5993 -1.8968  0.0356
  229MOL0     H30851   3.279   4.850   0.970 -0.1911  2.1538  1.1110
  229MOL0     H30852   3.097   5.037   1.123  2.2326 -1.6935  2.1059
  229MOL0     H30853   3.133   5.088   0.967 -2.5659  0.1803  1.9521
  229MOL0     H30854   3.383   5.084   1.023  0.4855 -1.2703  0.8583
  229MOL0     H30855   3.335   5.008   1.174  4.4356 -0.8666 -1.5451
  229MOL0     H30856   3.255   5.293   1.077  1.1375 -0.1760  0.3493
  229MOL0     H30857   3.206   5.217   1.233 -0.0053 -2.5804 -0.4392
  229MOL0     H30858   3.469   5.188   1.255 -1.0569 -0.2294  0.2630
  229MOL0     H30859   3.459   5.318   1.139 -2.0960  1.7864 -1.1289
  229MOL0     H30860   3.300   5.444   1.297  1.8311  1.6950 -2.0492
  229MOL0     H30861   3.323   5.311   1.412  0.0341 -2.8551 -1.6228
  229MOL0     H30862   3.456   5.525   1.469 -2.7766 -0.0939 -0.4574
  229MOL0     H30863   3.544   5.490   1.317  1.1213 -1.2494  0.5362
  229MOL0     H30864   3.590   5.264   1.418 -2.3618  0.7367 -0.0842
  229MOL0     H30865   3.676   5.392   1.498  0.5991  0.4976  1.4533
  229MOL0     H30866   3.457   5.115   1.582 -4.0612  2.0131 -0.4986
  229MOL0     H30867   3.456   5.052   1.886 -0.2410  1.1438  1.0975
  229MOL0     H30868   3.344   5.167   1.965 -2.6326 -0.6408 -0.8655
  229MOL0     H30869   3.268   4.963   1.758 -0.9487 -0.2353 -0.3580
  229MOL0     H30870   3.214   4.976   1.916  2.8478 -4.0368 -1.9357
  229MOL0     H30871   3.088   5.184   1.866 -0.3882  0.7266 -1.6108
  229MOL0     H30872   3.033   5.038   1.786  0.8495 -1.3542  0.4771
  229MOL0     H30873   3.198   5.255   1.659  1.4264 -1.3403 -0.9365
  229MOL0     H30874   3.032   5.237   1.634  2.1413  0.6824 -0.7462
  229MOL0     H30875   2.872   5.079   1.620  0.9197  3.9535 -0.8950
  229MOL0     H30876   2.703   4.962   1.496 -0.3450  3.2654 -1.4916
  229MOL0     H30877   2.554   4.627   1.147  1.0238 -0.9317  1.1000
  229MOL0     H30878   2.353   4.497   1.123  0.3994  1.7252 -2.1823
  229MOL0     H30879   2.204   4.360   1.444  1.8371  1.7724 -1.1342
  229MOL0     H30880   2.049   4.342   1.372  0.3878 -1.1578 -0.9949
  229MOL0     H30881   2.151   4.279   1.159 -1.0063 -0.7290 -0.4330
  229MOL0     H30882   2.304   4.243   1.267 -0.7451 -1.1587  4.4970
  229MOL0     H30883   2.153   4.119   1.415  0.1446  0.7322  0.3222
  229MOL0     H30884   2.022   4.137   1.299 -0.1272  0.1113  1.9365
  229MOL0     H30885   2.292   4.013   1.238  0.4132  2.0394 -1.4241
  229MOL0     H30886   2.163   4.026   1.115  0.3579  0.4178 -0.0623
  229MOL0     H30887   2.142   3.874   1.387  0.0230  2.7403  0.2352
  229MOL0     H30888   2.175   3.801   1.226  0.2508  1.4733 -2.5194
  229MOL0     H30889   1.915   3.927   1.316 -1.1078 -0.9312 -0.0130
  229MOL0     H30890   1.963   3.891   1.156 -0.7589  0.1603  0.3425
  229MOL0     H30891   2.001   3.649   1.221 -0.2107 -0.5741  0.1916
  229MOL0     H30892   1.828   3.710   1.212 -0.1169 -2.0453  0.9252
  229MOL0     H30893   1.881   3.563   1.416  1.0632 -0.9445 -0.6296
  229MOL0     H30894   1.963   3.709   1.468 -1.8771  1.9533 -0.5319
  229MOL0     H30895   2.184   4.677   1.462 -0.3309 -1.3875  1.0955
  229MOL0     H30896   2.391   4.811   1.500  0.8363  0.6582 -0.2926
  229MOL0     H30897   3.013   4.781   1.242 -2.4854  1.5037 -4.0595
  229MOL0     H30898   3.180   4.945   1.343  0.8068  1.9278  1.3547
  229MOL0     H30899   2.906   4.750   0.877  1.3846  3.2614 -1.6901
  229MOL0     H30900   2.850   4.521   0.771 -0.2828 -0.2026 -1.8216
  229MOL0     H30901   2.775   4.207   0.389  0.7281  1.1591  0.8006
  229MOL0     H30902   2.803   3.977   0.289 -3.1611  0.1140  2.2937
  229MOL0     H30903   2.855   3.695   0.577 -0.8272 -4.3971  1.4508
  229MOL0     H30904   2.950   3.599   0.468  1.5531  1.6122 -0.9676
  229MOL0     H30905   2.672   3.700   0.375 -2.2277 -0.7064  1.4490
  229MOL0     H30906   2.676   3.580   0.495 -0.3807  0.1534 -0.6462
  229MOL0     H30907   2.768   3.538   0.198  0.3261  1.6695  1.0435
  229MOL0     H30908   2.642   3.459   0.297  0.8704 -3.0913  2.2876
  229MOL0     H30909   2.944   3.432   0.325 -0.9793  2.5036 -3.6970
  229MOL0     H30910   2.841   3.400   0.464  1.8873  3.8854 -0.5016
  229MOL0     H30911   2.724   3.070   0.251  1.3570 -1.2713  0.8161
  229MOL0     H30912   3.007   3.856   0.638 -1.0201 -0.7502 -0.0265
  229MOL0     H30913   3.000   3.993   0.841  0.8982  1.1734  1.5615
  229MOL0     H30914   3.114   4.092   0.757 -0.6289 -1.1518 -0.9937
  229MOL0     H30915   2.949   4.159   0.814 -1.8752  0.0351 -0.7747
  230MOL0     O30916   1.524  10.295   6.684 -0.0843  0.2455  0.1584
  230MOL0     C30917   1.514  10.368   6.781  0.5283  0.6720 -1.7065
  230MOL0     O30918   1.418  10.357   6.880  0.9568  0.3443 -0.8363
  230MOL0     C30919   1.350  10.234   6.888 -1.1669 -0.7084 -0.0674
  230MOL0     C30920   1.397  10.152   6.988  0.7354 -0.2957  0.0115
  230MOL0     C30921   1.335  10.032   7.014  0.3229 -0.1243 -0.1665
  230MOL0     C30922   1.221  10.000   6.940 -0.4399 -0.2589 -0.1702
  230MOL0     O30923   1.151   9.886   6.969 -0.1944  0.5071  0.3024
  230MOL0     C30924   1.162   9.814   7.091 -0.2216  0.0832 -0.1754
  230MOL0     C30925   1.019   9.737   7.121 -0.2787 -0.5217 -0.8101
  230MOL0     C30926   1.016   9.657   7.249  0.5892 -0.2350 -0.3944
  230MOL0     C30927   1.064   9.512   7.233  0.5949  1.4962 -0.0476
  230MOL0     C30928   1.079   9.433   7.361 -0.6838  0.4070 -0.4999
  230MOL0     C30929   1.183   9.471   7.473  0.2615 -0.4522  0.3261
  230MOL0     C30930   1.325   9.503   7.422 -0.3942 -0.4708 -0.4772
  230MOL0     C30931   1.411   9.375   7.387  0.9366 -0.2228 -0.5436
  230MOL0     N30932   1.459   9.315   7.505 -0.0905  0.6656 -1.0511
  230MOL0     C30933   1.583   9.335   7.566  0.1054  0.0890  0.7363
  230MOL0     C30934   1.578   9.274   7.686  0.1764 -0.3190 -0.0355
  230MOL0     C30935   1.675   9.281   7.801  0.2735  1.0253 -0.1189
  230MOL0     C30936   1.799   9.205   7.770  0.0793  0.6935 -0.0664
  230MOL0     C30937   1.761   9.053   7.739 -0.0152 -1.4199  0.0899
  230MOL0     C30938   1.879   8.974   7.678  0.9871  0.3823  0.2742
  230MOL0     O30939   1.958   9.050   7.572  0.0457  0.3468  0.5105
  230MOL0     C30940   2.023   8.976   7.477 -0.5127 -0.0238  0.3613
  230MOL0     C30941   2.037   8.837   7.479  0.4118  0.1180 -0.7298
  230MOL0     C30942   2.091   8.770   7.379  0.6578 -0.6940 -0.0503
  230MOL0     C30943   2.161   8.836   7.278 -0.6600 -0.6299  0.3569
  230MOL0     C30944   2.214   8.750   7.168  0.5020  0.6925 -0.2474
  230MOL0     O30945   2.277   8.823   7.061  0.0341 -0.0184 -0.1498
  230MOL0     C30946   2.322   8.757   6.948  0.3915 -0.7168 -0.3268
  230MOL0     C30947   2.258   8.657   6.879 -0.3520  0.2080 -0.5613
  230MOL0     C30948   2.314   8.593   6.768 -0.2836 -0.6158 -0.2091
  230MOL0     C30949   2.433   8.645   6.717  0.4667 -0.2530 -0.3805
  230MOL0     O30950   2.477   8.613   6.599 -0.0696 -0.0115 -0.2373
  230MOL0     C30951   2.412   8.670   6.486 -0.4994 -0.1063 -0.3610
  230MOL0     C30952   2.454   8.817   6.466  0.4521 -0.0793 -0.8569
  230MOL0     C30953   2.365   8.873   6.354  0.5993 -0.0613 -0.4285
  230MOL0     C30954   2.365   9.030   6.354 -0.4072 -0.2981 -0.4087
  230MOL0     C30955   2.302   9.067   6.221 -0.3899 -0.5733 -0.2365
  230MOL0     C30956   2.300   9.213   6.192  0.0374 -0.2132 -0.0031
  230MOL0     C30957   2.233   9.291   6.308 -0.4862 -0.1565  0.0170
  230MOL0     C30958   2.163   9.416   6.260 -0.0066 -0.3112  0.4765
  230MOL0    Cl30959   1.992   9.446   6.326  0.0798  0.0223 -0.2120
  230MOL0     C30960   2.502   8.738   6.791  0.3453 -1.0657  0.6547
  230MOL0     C30961   2.446   8.799   6.900  0.0367  0.0147  0.3927
  230MOL0     O30962   2.209   8.629   7.180 -0.0652 -0.0202 -0.7563
  230MOL0     C30963   2.153   8.978   7.270 -0.1157 -0.1044  0.5108
  230MOL0     C30964   2.088   9.044   7.374 -0.0026 -0.2066  0.5094
  230MOL0     N30965   1.449   9.211   7.689 -0.2324 -0.0770 -0.5905
  230MOL0     N30966   1.387   9.232   7.582 -0.2748  0.5792  0.1126
  230MOL0     C30967   1.186  10.076   6.832  0.3787 -0.5001  0.5472
  230MOL0     C30968   1.241  10.201   6.816 -0.4170 -0.8591  0.0393
  230MOL0     C30969   1.630  10.459   6.791 -0.0571  0.2715 -1.0670
  230MOL0     C30970   1.754  10.427   6.721 -0.3027  1.0186  0.1508
  230MOL0     C30971   1.855  10.524   6.702 -0.5381  0.2531  0.0772
  230MOL0     C30972   1.852  10.653   6.767  0.1339 -1.1946  0.6886
  230MOL0     O30973   1.957  10.740   6.746  0.8072  0.1726  0.6337
  230MOL0     C30974   1.930  10.876   6.804 -0.7416  0.4283 -0.8078
  230MOL0     C30975   1.844  10.964   6.716 -0.6732  0.1595  0.8290
  230MOL0     C30976   1.914  11.006   6.583 -0.1086  1.0645 -0.1740
  230MOL0     C30977   1.820  11.049   6.471  0.7895  1.0096  0.8043
  230MOL0     C30978   1.895  11.114   6.361  0.3591  0.0463  0.4599
  230MOL0     C30979   1.973  11.171   6.286 -0.1897 -0.2812 -0.0782
  230MOL0     C30980   1.733  10.677   6.848  0.2814  0.0583  0.1157
  230MOL0     C30981   1.629  10.582   6.854 -0.0975 -0.9168 -0.3056
  230MOL0     C30982   1.513  10.623   6.945  0.6838  0.3601  0.5455
  230MOL0     H30983   1.476  10.187   7.054 -1.8007  0.5465  2.8332
  230MOL0     H30984   1.379   9.968   7.089 -2.9273 -2.1014  0.2265
  230MOL0     H30985   1.233   9.731   7.093 -1.1426 -0.7933  3.4663
  230MOL0     H30986   1.189   9.884   7.171 -1.7412  1.6396 -0.9668
  230MOL0     H30987   0.994   9.675   7.034 -1.1126  0.3696 -1.2216
  230MOL0     H30988   0.944   9.816   7.125  1.8486  1.6415  3.8645
  230MOL0     H30989   0.913   9.645   7.284  0.4867  2.0893  0.2510
  230MOL0     H30990   1.058   9.716   7.331  0.1406  1.8723 -1.5905
  230MOL0     H30991   0.982   9.466   7.178 -1.5273  2.3827  2.1568
  230MOL0     H30992   1.155   9.507   7.172 -2.1004  0.8522 -4.4510
  230MOL0     H30993   0.983   9.408   7.407  0.4277 -1.1491  1.1107
  230MOL0     H30994   1.119   9.340   7.320 -0.7958 -1.6992  3.6507
  230MOL0     H30995   1.157   9.568   7.516  1.2657  0.5071 -1.1440
  230MOL0     H30996   1.172   9.392   7.549 -1.1118  1.3472  2.0985
  230MOL0     H30997   1.382   9.550   7.503 -0.2841  0.6465 -1.1816
  230MOL0     H30998   1.321   9.570   7.336  0.9834 -1.5468 -1.4266
  230MOL0     H30999   1.338   9.305   7.346  1.4231 -0.3249 -1.2614
  230MOL0     H31000   1.495   9.406   7.324 -0.0077 -1.1260 -2.2986
  230MOL0     H31001   1.655   9.400   7.518  0.9849  0.3795  2.4014
  230MOL0     H31002   1.703   9.385   7.822 -1.9900  1.7537 -0.5403
  230MOL0     H31003   1.628   9.239   7.891 -0.1645 -0.2856 -0.9366
  230MOL0     H31004   1.850   9.249   7.684 -0.4506 -2.3113 -2.0903
  230MOL0     H31005   1.868   9.203   7.856 -2.0637  0.3088  1.7289
  230MOL0     H31006   1.684   9.058   7.662  0.9089  0.9711 -0.7925
  230MOL0     H31007   1.723   8.993   7.822 -0.0342 -0.3615  0.8752
  230MOL0     H31008   1.839   8.883   7.633  0.7178  1.4283 -1.7330
  230MOL0     H31009   1.938   8.934   7.761 -2.6606 -4.1927  1.0478
  230MOL0     H31010   1.981   8.783   7.555 -0.5597  1.8367 -0.1586
  230MOL0     H31011   2.073   8.663   7.372  0.2516 -0.5111 -3.1141
  230MOL0     H31012   2.160   8.619   6.906  0.1691 -1.7258 -1.1815
  230MOL0     H31013   2.254   8.513   6.726 -2.0698  1.0283 -0.9432
  230MOL0     H31014   2.440   8.613   6.397 -1.0048 -0.6690 -0.1719
  230MOL0     H31015   2.304   8.666   6.504 -0.5686  1.0851 -0.4601
  230MOL0     H31016   2.423   8.866   6.559 -0.9661 -3.3575  0.5548
  230MOL0     H31017   2.561   8.817   6.442  0.2556 -1.5634 -1.8530
  230MOL0     H31018   2.404   8.822   6.265  4.0913 -0.7073  1.2817
  230MOL0     H31019   2.262   8.837   6.360  0.4803  0.2116 -0.8090
  230MOL0     H31020   2.470   9.060   6.356  0.1678 -2.1458 -1.2448
  230MOL0     H31021   2.321   9.063   6.449 -0.1389 -1.3128  0.0830
  230MOL0     H31022   2.198   9.034   6.220 -1.0020  1.2484 -0.4807
  230MOL0     H31023   2.353   9.013   6.141 -0.8897  0.7657 -1.4943
  230MOL0     H31024   2.399   9.254   6.170  0.1098 -1.9145 -3.5742
  230MOL0     H31025   2.244   9.223   6.099 -1.5183  1.5876  1.0644
  230MOL0     H31026   2.297   9.306   6.396 -3.2064  0.9436  1.9291
  230MOL0     H31027   2.161   9.221   6.350  0.8064 -3.5761 -2.9282
  230MOL0     H31028   2.227   9.499   6.289  1.8128  0.0412 -3.8413
  230MOL0     H31029   2.164   9.410   6.150 -0.2071  3.6282  0.1235
  230MOL0     H31030   2.596   8.771   6.748  1.3601 -1.3548  2.5502
  230MOL0     H31031   2.504   8.884   6.934 -2.0433  0.9673  1.7183
  230MOL0     H31032   2.189   9.039   7.188 -1.7521 -0.0837 -0.2306
  230MOL0     H31033   2.073   9.152   7.371  0.5090 -0.1465 -0.3173
  230MOL0     H31034   1.099  10.067   6.768 -1.8286 -0.6186  3.3504
  230MOL0     H31035   1.215  10.272   6.739 -2.0873  1.3307  2.4574
  230MOL0     H31036   1.760  10.328   6.677 -3.1556  0.6715  0.3632
  230MOL0     H31037   1.945  10.505   6.644  0.5388  1.4535  1.2960
  230MOL0     H31038   2.029  10.923   6.814 -1.4593  1.9185 -0.4251
  230MOL0     H31039   1.893  10.866   6.907 -1.4947  1.8408 -0.9094
  230MOL0     H31040   1.822  11.059   6.766  1.7557  0.3797  1.5865
  230MOL0     H31041   1.751  10.913   6.688  0.8338 -2.8555  0.9772
  230MOL0     H31042   1.972  10.915   6.563 -1.7588 -1.1272  3.8407
  230MOL0     H31043   1.978  11.092   6.605 -0.0306  1.6972 -2.5681
  230MOL0     H31044   1.770  10.958   6.437 -0.5985  1.1166  2.3951
  230MOL0     H31045   1.738  11.108   6.513 -1.2831 -1.0187 -0.1670
  230MOL0     H31046   2.037  11.225   6.218  0.2703  1.7628  1.8400
  230MOL0     H31047   1.719  10.767   6.906 -3.5174  0.8530 -1.7388
  230MOL0     H31048   1.524  10.725   6.983  2.1212  0.3501  0.1980
  230MOL0     H31049   1.422  10.630   6.885  0.4684  0.9899  0.9372
  230MOL0     H31050   1.509  10.565   7.037  0.8758  2.1344  1.7257
  231MOL0     O31051   7.842   3.521   4.409 -0.1250 -0.0814  0.1742
  231MOL0     C31052   7.847   3.401   4.398 -0.7530  0.5682  0.3001
  231MOL0     O31053   7.892   3.333   4.288  0.2890  0.0909 -0.0837
  231MOL0     C31054   7.961   3.390   4.193  0.0471 -1.0068 -0.4659
  231MOL0     C31055   8.039   3.512   4.212 -0.8108  0.2971 -0.3010
  231MOL0     C31056   8.121   3.555   4.110  0.9714 -0.4717 -0.6637
  231MOL0     C31057   8.123   3.485   3.990  0.1030  0.9109 -0.0814
  231MOL0     O31058   8.223   3.524   3.903 -0.3511 -0.3231  0.3252
  231MOL0     C31059   8.200   3.507   3.761  0.3059 -0.1888  0.4904
  231MOL0     C31060   8.288   3.404   3.701  0.5553 -0.1968 -0.6470
  231MOL0     C31061   8.407   3.445   3.625  0.7497  0.0713  0.0510
  231MOL0     C31062   8.514   3.514   3.723 -0.2687  0.0894  0.2492
  231MOL0     C31063   8.621   3.598   3.653  0.0780  0.4073  0.6964
  231MOL0     C31064   8.757   3.523   3.631 -0.4941 -0.0694 -0.4089
  231MOL0     C31065   8.856   3.610   3.547 -0.4533  0.0832 -0.4608
  231MOL0     C31066   8.859   3.587   3.392  0.0605  0.0283 -0.3459
  231MOL0     N31067   8.735   3.562   3.317  1.3593 -0.0764  0.0631
  231MOL0     C31068   8.705   3.433   3.272 -0.5017  0.0103 -0.1586
  231MOL0     C31069   8.595   3.446   3.198 -1.3897 -1.4497  0.4617
  231MOL0     C31070   8.518   3.330   3.137 -0.0537 -0.0815  1.0610
  231MOL0     C31071   8.417   3.271   3.239 -0.2661  0.3044 -0.5804
  231MOL0     C31072   8.337   3.150   3.175  0.0409 -0.1626  0.5990
  231MOL0     C31073   8.426   3.020   3.183  0.0261 -0.5354  0.2013
  231MOL0     O31074   8.491   3.009   3.309  0.9968  0.3744  0.1062
  231MOL0     C31075   8.580   2.898   3.319  0.1604 -0.5061 -0.2428
  231MOL0     C31076   8.665   2.899   3.434  1.0245  0.9606 -0.7965
  231MOL0     C31077   8.753   2.793   3.468 -0.4909 -0.0969 -1.0951
  231MOL0     C31078   8.770   2.679   3.387 -0.5841 -0.1208 -0.0134
  231MOL0     C31079   8.862   2.565   3.422 -0.0716 -1.0925  0.1139
  231MOL0     O31080   8.946   2.566   3.530  0.5414 -0.5312  0.4521
  231MOL0     C31081   9.008   2.441   3.556  0.8063 -0.0216 -0.2314
  231MOL0     C31082   9.132   2.446   3.622  0.4552 -0.6285  0.4785
  231MOL0     C31083   9.206   2.329   3.651  0.4526  1.3073 -0.2862
  231MOL0     C31084   9.148   2.206   3.621  0.0869 -0.6939  0.2179
  231MOL0     O31085   9.232   2.097   3.636  0.1909 -1.0213 -0.0914
  231MOL0     C31086   9.186   1.966   3.609 -0.5825 -0.7657 -0.6440
  231MOL0     C31087   9.308   1.874   3.655 -0.0689  0.2209 -0.0221
  231MOL0     C31088   9.287   1.866   3.809  0.0226  0.7858  0.8443
  231MOL0     C31089   9.383   1.768   3.874 -0.6628  0.4495  0.1388
  231MOL0     C31090   9.537   1.796   3.858  0.6522 -0.1879  0.3613
  231MOL0     C31091   9.585   1.927   3.895 -0.2611  0.0088 -0.0928
  231MOL0     C31092   9.739   1.943   3.874  1.1258  0.7080  0.2696
  231MOL0     C31093   9.783   2.086   3.861  1.1917 -0.0236  0.8806
  231MOL0    Cl31094   9.960   2.103   3.897  0.2668  0.1343  0.5839
  231MOL0     C31095   9.019   2.199   3.565  0.8026  0.5205 -0.7443
  231MOL0     C31096   8.957   2.314   3.532 -0.1671  0.3290  0.0501
  231MOL0     O31097   8.870   2.487   3.323  0.2093 -0.6957 -0.3003
  231MOL0     C31098   8.691   2.679   3.270  0.4069 -0.5505  0.0931
  231MOL0     C31099   8.597   2.783   3.235  0.1440 -0.0020 -0.5942
  231MOL0     N31100   8.560   3.582   3.190 -0.1771 -0.4926  0.4996
  231MOL0     N31101   8.648   3.655   3.250 -0.0507 -0.3764 -0.0700
  231MOL0     C31102   8.031   3.378   3.963  0.3084  0.1754 -0.4969
  231MOL0     C31103   7.950   3.333   4.071  0.4502 -0.7438  0.7494
  231MOL0     C31104   7.798   3.318   4.513  0.0026  0.6770 -0.4206
  231MOL0     C31105   7.718   3.199   4.487  0.0261  0.2783 -0.3439
  231MOL0     C31106   7.660   3.132   4.586 -0.0255 -0.5991  0.0968
  231MOL0     C31107   7.672   3.172   4.722 -0.1708 -0.2934 -0.4841
  231MOL0     O31108   7.614   3.119   4.834 -0.5125  0.0660 -0.2923
  231MOL0     C31109   7.606   2.973   4.831  0.0199 -0.4823  0.0526
  231MOL0     C31110   7.458   2.935   4.801  0.4825  0.0216 -0.5257
  231MOL0     C31111   7.365   3.002   4.904  0.3542  0.0471 -0.2313
  231MOL0     C31112   7.216   2.969   4.890  0.7447  0.2946 -0.7158
  231MOL0     C31113   7.132   3.051   4.982 -1.0239 -0.1426  0.0603
  231MOL0     C31114   7.045   3.108   5.050  0.2455 -0.1993  0.2087
  231MOL0     C31115   7.749   3.285   4.744 -0.3964  0.1010 -0.1039
  231MOL0     C31116   7.815   3.365   4.645 -0.0109  1.1230  0.3440
  231MOL0     C31117   7.902   3.473   4.691  0.2961  0.6491  0.4329
  231MOL0     H31118   8.066   3.555   4.308 -0.0305 -0.0488 -0.3529
  231MOL0     H31119   8.196   3.632   4.125 -2.1551  2.5778  0.5767
  231MOL0     H31120   8.096   3.479   3.740 -0.0792  0.3043  1.6513
  231MOL0     H31121   8.215   3.604   3.712 -1.0215 -0.4867 -0.5847
  231MOL0     H31122   8.232   3.347   3.626 -0.1765 -0.3534  0.0060
  231MOL0     H31123   8.311   3.336   3.783  0.8741 -0.0004 -0.5724
  231MOL0     H31124   8.387   3.509   3.539 -0.2385 -2.8298 -2.0418
  231MOL0     H31125   8.447   3.348   3.591  4.8229  1.8196 -0.7921
  231MOL0     H31126   8.463   3.565   3.805  1.8923 -1.4616  2.6973
  231MOL0     H31127   8.557   3.429   3.777 -2.4279 -0.1072  1.7951
  231MOL0     H31128   8.569   3.632   3.562 -1.3494 -3.2752 -0.0423
  231MOL0     H31129   8.645   3.685   3.715  0.6044 -0.4300  1.6806
  231MOL0     H31130   8.803   3.494   3.725 -1.1543 -0.8692 -0.3147
  231MOL0     H31131   8.730   3.427   3.585 -0.6575  1.0399 -2.8213
  231MOL0     H31132   8.957   3.590   3.582  0.6903  0.7144 -3.1859
  231MOL0     H31133   8.851   3.716   3.575  2.8506  0.0776  0.5371
  231MOL0     H31134   8.918   3.674   3.359 -1.2779  0.4920 -1.6644
  231MOL0     H31135   8.923   3.499   3.380 -0.2747 -0.5522  1.7791
  231MOL0     H31136   8.751   3.338   3.300  0.6800 -0.0824 -2.1925
  231MOL0     H31137   8.467   3.376   3.052  1.9396 -0.4317 -0.4138
  231MOL0     H31138   8.591   3.255   3.102 -1.8074 -0.4792 -2.1557
  231MOL0     H31139   8.472   3.260   3.333  1.6217  0.5602 -1.6117
  231MOL0     H31140   8.345   3.350   3.263  0.1522  0.6433 -0.4310
  231MOL0     H31141   8.308   3.178   3.073  0.9524  2.8833  1.0509
  231MOL0     H31142   8.248   3.129   3.235 -0.5438  2.1374  0.6583
  231MOL0     H31143   8.505   3.030   3.108  0.3097  3.6430  0.8060
  231MOL0     H31144   8.363   2.932   3.167 -0.3160 -0.0376 -1.3139
  231MOL0     H31145   8.671   2.992   3.490  2.1788  2.1402 -2.7708
  231MOL0     H31146   8.816   2.811   3.555  0.6721 -1.6904 -1.5541
  231MOL0     H31147   9.165   2.549   3.632 -0.1718 -0.4469  0.7800
  231MOL0     H31148   9.306   2.338   3.691 -0.3657 -0.2019  2.3496
  231MOL0     H31149   9.095   1.930   3.658 -0.4563  0.7307  0.7742
  231MOL0     H31150   9.171   1.945   3.502 -0.0387 -2.5248 -0.4166
  231MOL0     H31151   9.295   1.776   3.607 -1.6918  0.2724  0.2535
  231MOL0     H31152   9.411   1.906   3.638  0.7171 -2.6819 -1.3854
  231MOL0     H31153   9.296   1.961   3.862 -1.9913  0.7592  1.3187
  231MOL0     H31154   9.186   1.830   3.830  0.8761 -1.6255  1.0786
  231MOL0     H31155   9.372   1.671   3.823  0.3701 -0.9383  2.4026
  231MOL0     H31156   9.358   1.757   3.980 -3.5876  1.7233 -0.3332
  231MOL0     H31157   9.550   1.789   3.749 -0.9791 -0.4837  0.1623
  231MOL0     H31158   9.603   1.724   3.908  3.2188  2.5535  1.1988
  231MOL0     H31159   9.534   2.006   3.839 -1.9055 -0.5976  0.4827
  231MOL0     H31160   9.556   1.956   3.997 -0.2250  1.8711 -0.5726
  231MOL0     H31161   9.773   1.886   3.787  3.1169  2.7621 -0.3929
  231MOL0     H31162   9.797   1.914   3.962  3.1985  2.6235 -0.3925
  231MOL0     H31163   9.752   2.133   3.767 -2.1746  0.0285  1.8721
  231MOL0     H31164   9.736   2.156   3.930 -2.4006  1.2865 -2.5012
  231MOL0     H31165   8.975   2.100   3.558  2.2114 -0.1027 -1.1618
  231MOL0     H31166   8.853   2.308   3.502 -0.3728  2.4823  0.1856
  231MOL0     H31167   8.701   2.598   3.198 -0.6718  1.7271 -2.8091
  231MOL0     H31168   8.537   2.769   3.146 -0.3438  2.6469 -0.7843
  231MOL0     H31169   8.025   3.326   3.868 -3.0523 -1.4987  0.4971
  231MOL0     H31170   7.875   3.258   4.048  0.7840 -0.2370 -2.5308
  231MOL0     H31171   7.705   3.145   4.393  1.3788 -4.0662  1.7248
  231MOL0     H31172   7.593   3.049   4.569 -0.8234  0.1751 -0.6454
  231MOL0     H31173   7.633   2.922   4.924  3.7616 -0.2080 -0.7482
  231MOL0     H31174   7.670   2.922   4.758 -0.7678 -2.6330  0.7721
  231MOL0     H31175   7.451   2.827   4.791 -1.0386  0.0847 -0.4563
  231MOL0     H31176   7.423   2.974   4.704 -1.2260  0.9397  0.4051
  231MOL0     H31177   7.379   3.110   4.909 -1.8862  0.4089 -0.4490
  231MOL0     H31178   7.401   2.970   5.003 -1.2217  1.2116  0.7661
  231MOL0     H31179   7.191   2.988   4.785 -4.7864 -0.7306  0.1221
  231MOL0     H31180   7.186   2.867   4.916  0.4957  0.6580  0.4762
  231MOL0     H31181   6.971   3.167   5.100  2.2518  0.9500  1.9980
  231MOL0     H31182   7.762   3.315   4.848 -3.0225  2.5617 -0.3831
  231MOL0     H31183   7.914   3.462   4.799 -3.3373 -1.7809  0.7384
  231MOL0     H31184   8.003   3.458   4.651  1.3427  1.2118  2.6836
  231MOL0     H31185   7.850   3.565   4.660  0.8857 -0.1260 -3.3766
  232MOL0     O31186   4.893   5.833   0.200  0.9212  0.8776  0.5321
  232MOL0     C31187   4.834   5.768   0.118  0.1756 -0.1359 -0.1122
  232MOL0     O31188   4.840   5.785  -0.012  0.5362 -1.0974  0.5681
  232MOL0     C31189   4.924   5.883  -0.071  0.2639 -0.3332 -0.5862
  232MOL0     C31190   4.865   5.978  -0.154 -0.4880 -0.4896  0.5517
  232MOL0     C31191   4.945   6.075  -0.212 -0.6514  0.6852  0.3355
  232MOL0     C31192   5.081   6.090  -0.178  0.6101  0.6501  0.1806
  232MOL0     O31193   5.173   6.183  -0.227 -0.3003  0.8017  0.1613
  232MOL0     C31194   5.122   6.295  -0.298  0.7759  0.3900  0.9390
  232MOL0     C31195   5.217   6.408  -0.286  0.2918  0.3019 -0.4246
  232MOL0     C31196   5.333   6.373  -0.385 -0.0968 -0.4475  0.3540
  232MOL0     C31197   5.434   6.482  -0.380 -0.8201 -0.3875  0.5140
  232MOL0     C31198   5.556   6.454  -0.473  0.5539  0.2773 -0.0695
  232MOL0     C31199   5.502   6.438  -0.614 -0.9175  0.1468  0.4391
  232MOL0     C31200   5.618   6.418  -0.707 -0.5491 -0.1937 -0.9030
  232MOL0     C31201   5.591   6.345  -0.840  0.9861 -0.6337  0.2560
  232MOL0     N31202   5.710   6.359  -0.926  0.0942 -0.5102 -0.4984
  232MOL0     C31203   5.834   6.306  -0.895  0.6345  0.2712  0.3236
  232MOL0     C31204   5.902   6.324  -1.015 -0.2731 -0.8000 -0.7934
  232MOL0     C31205   6.038   6.286  -1.030  0.2958  0.6238 -0.2391
  232MOL0     C31206   6.137   6.388  -0.962  0.2527  1.5662  0.1613
  232MOL0     C31207   6.155   6.493  -1.077 -0.1886 -0.3316 -0.4003
  232MOL0     C31208   6.224   6.619  -1.033 -0.5437 -0.0829 -0.3245
  232MOL0     O31209   6.364   6.592  -1.025 -0.3291 -0.0259 -0.8036
  232MOL0     C31210   6.448   6.695  -0.980 -0.1905  0.0447  0.4799
  232MOL0     C31211   6.586   6.673  -1.001 -0.3264 -0.3795  0.0781
  232MOL0     C31212   6.686   6.767  -0.963  0.3170 -0.2410  0.4179
  232MOL0     C31213   6.658   6.894  -0.915 -0.8117  1.1710  0.2080
  232MOL0     C31214   6.771   6.996  -0.902 -0.1504  0.8567  0.7447
  232MOL0     O31215   6.899   6.956  -0.910 -0.2427  0.2028  0.6044
  232MOL0     C31216   6.994   7.050  -0.924  0.1035 -0.4533 -0.5565
  232MOL0     C31217   7.039   7.121  -0.812  0.1019  0.4483 -0.3450
  232MOL0     C31218   7.141   7.220  -0.822 -0.6931  0.3847  1.2464
  232MOL0     C31219   7.190   7.256  -0.951 -0.0627 -0.0920 -0.4422
  232MOL0     O31220   7.284   7.357  -0.972  0.5866 -0.7083 -0.2220
  232MOL0     C31221   7.379   7.382  -0.870 -0.6472 -0.0415 -0.6932
  232MOL0     C31222   7.504   7.465  -0.925  0.2798  0.4432  0.1817
  232MOL0     C31223   7.596   7.497  -0.809 -0.9161  0.4759  0.0816
  232MOL0     C31224   7.716   7.582  -0.848  0.5197 -0.8437  0.7588
  232MOL0     C31225   7.821   7.602  -0.739 -0.4806  0.8552 -0.2227
  232MOL0     C31226   7.785   7.716  -0.642 -0.0922  0.1277  0.0461
  232MOL0     C31227   7.904   7.776  -0.558  0.7673 -0.1394  0.3204
  232MOL0     C31228   7.984   7.679  -0.481  0.3984  0.0720 -0.0754
  232MOL0    Cl31229   8.140   7.655  -0.566 -0.0591 -0.0785 -0.1169
  232MOL0     C31230   7.135   7.190  -1.063 -1.0584  0.8763 -0.0828
  232MOL0     C31231   7.038   7.092  -1.045  0.1963  0.1430  0.9555
  232MOL0     O31232   6.734   7.110  -0.888 -0.2076  0.0231  0.4859
  232MOL0     C31233   6.525   6.913  -0.883  0.7621  0.4416  0.6420
  232MOL0     C31234   6.425   6.821  -0.907 -0.0477  0.8142  0.3218
  232MOL0     N31235   5.821   6.390  -1.103 -0.0933  0.3448 -0.8236
  232MOL0     N31236   5.709   6.411  -1.054  0.6502 -0.0257  0.4729
  232MOL0     C31237   5.138   5.985  -0.098  0.2243 -0.2235 -0.3421
  232MOL0     C31238   5.058   5.884  -0.046  0.7149 -0.1812 -0.2721
  232MOL0     C31239   4.772   5.634   0.162  0.4795 -0.2302  0.0210
  232MOL0     C31240   4.825   5.511   0.120 -0.1838 -0.9889  0.2074
  232MOL0     C31241   4.782   5.383   0.162  0.5399  0.0111 -0.4540
  232MOL0     C31242   4.679   5.376   0.263 -0.0297 -0.5005 -0.4020
  232MOL0     O31243   4.634   5.270   0.340 -0.5269 -0.4800  0.2549
  232MOL0     C31244   4.712   5.147   0.360 -0.5565 -0.1747  0.0262
  232MOL0     C31245   4.682   5.037   0.256  0.9109 -0.3568  0.7688
  232MOL0     C31246   4.777   4.925   0.241 -0.8243  0.5932  0.0477
  232MOL0     C31247   4.845   4.901   0.108  0.1834 -0.0834 -0.2987
  232MOL0     C31248   4.758   4.857   0.002  1.0870  0.2188 -0.1630
  232MOL0     C31249   4.682   4.803  -0.082  0.9377  0.1695 -0.2006
  232MOL0     C31250   4.617   5.500   0.294 -0.1327  0.1729 -1.2167
  232MOL0     C31251   4.664   5.624   0.253  0.4266 -0.5770 -0.4234
  232MOL0     C31252   4.593   5.757   0.291  0.6664  0.4882 -0.5053
  232MOL0     H31253   4.758   5.971  -0.170 -0.4129 -1.0101  0.2619
  232MOL0     H31254   4.900   6.146  -0.280  1.0060 -0.6088 -2.3108
  232MOL0     H31255   5.113   6.265  -0.403  1.5066  0.3581  0.8748
  232MOL0     H31256   5.025   6.321  -0.255  0.1985  1.1638 -0.7493
  232MOL0     H31257   5.250   6.423  -0.183 -1.9507  1.8263  0.1525
  232MOL0     H31258   5.162   6.501  -0.304 -0.5544  0.1721  1.2250
  232MOL0     H31259   5.294   6.358  -0.486  0.6017 -0.6526  0.1082
  232MOL0     H31260   5.370   6.276  -0.352 -0.0006 -0.6461 -0.3355
  232MOL0     H31261   5.380   6.571  -0.413 -0.6647 -0.8396 -1.0387
  232MOL0     H31262   5.477   6.486  -0.279  3.4303 -2.0774 -1.0057
  232MOL0     H31263   5.641   6.522  -0.459  2.4030 -1.4969 -1.9987
  232MOL0     H31264   5.590   6.354  -0.442  2.9644  0.5021 -1.6869
  232MOL0     H31265   5.447   6.343  -0.623  1.3753 -1.1371 -0.9434
  232MOL0     H31266   5.439   6.521  -0.649  0.1127  1.0347  0.6423
  232MOL0     H31267   5.699   6.366  -0.655  0.1614  1.6941 -0.0110
  232MOL0     H31268   5.645   6.520  -0.738 -0.6554  1.1547  2.9241
  232MOL0     H31269   5.570   6.239  -0.826 -0.2177 -0.6490 -1.3702
  232MOL0     H31270   5.501   6.387  -0.885 -0.4738 -2.6146  1.1859
  232MOL0     H31271   5.872   6.258  -0.806  1.5267 -0.9230 -0.6639
  232MOL0     H31272   6.045   6.187  -0.984 -5.3197 -0.9036 -1.7790
  232MOL0     H31273   6.047   6.273  -1.139  1.6384  1.8585 -0.3063
  232MOL0     H31274   6.110   6.429  -0.864 -0.2944  0.3687  0.5270
  232MOL0     H31275   6.235   6.341  -0.946  0.3871  1.4668 -0.9012
  232MOL0     H31276   6.058   6.528  -1.112 -0.9989 -0.4918  1.5435
  232MOL0     H31277   6.209   6.447  -1.160  0.1027  0.3699 -0.6076
  232MOL0     H31278   6.197   6.660  -0.936 -1.9084 -0.1447 -0.6456
  232MOL0     H31279   6.197   6.692  -1.110 -0.9538  0.0959 -0.0156
  232MOL0     H31280   6.626   6.580  -1.038  2.3948 -0.1967  2.2642
  232MOL0     H31281   6.789   6.747  -0.988 -0.2270  0.2017 -2.5363
  232MOL0     H31282   6.991   7.098  -0.717  3.7905 -2.1257  1.1482
  232MOL0     H31283   7.169   7.277  -0.735 -0.5132  3.4478 -0.6836
  232MOL0     H31284   7.341   7.434  -0.782  2.9110 -2.5382  2.6819
  232MOL0     H31285   7.426   7.285  -0.850  1.9677  0.7979 -2.2584
  232MOL0     H31286   7.555   7.424  -1.013  0.0401 -1.7477  1.0104
  232MOL0     H31287   7.463   7.560  -0.963  2.9421  1.1779 -1.1159
  232MOL0     H31288   7.533   7.543  -0.732 -2.9325 -1.5764 -0.2509
  232MOL0     H31289   7.639   7.411  -0.757 -0.2325  3.4469  5.1060
  232MOL0     H31290   7.672   7.677  -0.879  1.6029 -1.0714 -1.6885
  232MOL0     H31291   7.764   7.541  -0.937 -2.4205 -0.9472 -0.9165
  232MOL0     H31292   7.913   7.638  -0.788  0.6955 -1.5087  0.0828
  232MOL0     H31293   7.848   7.507  -0.692 -0.0928 -0.4712 -2.9036
  232MOL0     H31294   7.729   7.793  -0.696  0.6742  0.1913 -0.6760
  232MOL0     H31295   7.705   7.693  -0.570  2.1505  0.8320  2.9363
  232MOL0     H31296   7.859   7.855  -0.496  1.5705  0.6867 -0.1210
  232MOL0     H31297   7.968   7.832  -0.626  1.6197  0.8507  1.8771
  232MOL0     H31298   7.999   7.713  -0.379  2.5145 -1.4345  0.1780
  232MOL0     H31299   7.938   7.580  -0.469  0.5545 -0.2366 -1.7105
  232MOL0     H31300   7.186   7.193  -1.159 -2.3115 -3.8234 -1.1684
  232MOL0     H31301   6.994   7.046  -1.132  2.5614 -2.0161  0.7868
  232MOL0     H31302   6.491   7.000  -0.827  2.2146  0.9019  0.8435
  232MOL0     H31303   6.324   6.842  -0.874  0.5289  0.4604  2.4370
  232MOL0     H31304   5.239   6.012  -0.068 -0.0759  2.4494 -1.4289
  232MOL0     H31305   5.108   5.814   0.020  2.8215  0.6464 -0.8862
  232MOL0     H31306   4.910   5.504   0.053  0.7018  0.4984  1.1233
  232MOL0     H31307   4.844   5.298   0.137  0.1277 -0.3703 -0.1889
  232MOL0     H31308   4.690   5.096   0.454  0.4814 -0.7508 -0.0225
  232MOL0     H31309   4.815   5.182   0.351 -0.8172  0.7951  0.7236
  232MOL0     H31310   4.677   5.078   0.154 -2.6640  2.9301  2.0130
  232MOL0     H31311   4.583   4.998   0.280 -0.3294  2.2277  0.2150
  232MOL0     H31312   4.723   4.832   0.259 -0.5374 -0.0363 -2.1140
  232MOL0     H31313   4.855   4.940   0.317 -1.4406  1.2239  0.5747
  232MOL0     H31314   4.906   4.987   0.080 -0.6137  0.3020 -0.8826
  232MOL0     H31315   4.927   4.830   0.124 -0.2373 -0.2468  1.2412
  232MOL0     H31316   4.613   4.774  -0.158  0.5954 -1.3869  0.6769
  232MOL0     H31317   4.527   5.493   0.354  1.0917  0.7967  0.7797
  232MOL0     H31318   4.487   5.734   0.303 -0.0813  2.7047 -2.2111
  232MOL0     H31319   4.642   5.792   0.382 -1.9773  0.8733  0.8838
  232MOL0     H31320   4.604   5.832   0.212  0.1167 -0.9178 -1.9716
  233MOL0     O31321   0.516   2.750  11.002 -0.3402 -0.4822 -0.3444
  233MOL0     C31322   0.554   2.737  10.889 -0.2282  0.7976  0.1671
  233MOL0     O31323   0.506   2.627  10.805  0.0404 -0.6007 -1.1180
  233MOL0     C31324   0.402   2.553  10.844 -0.1466  0.9899  0.2341
  233MOL0     C31325   0.273   2.578  10.797 -0.3073 -0.0485 -0.9604
  233MOL0     C31326   0.169   2.491  10.833 -0.1102 -0.2452 -0.6914
  233MOL0     C31327   0.189   2.374  10.905 -0.2844  0.4083 -0.5353
  233MOL0     O31328   0.089   2.277  10.931 -0.1836  0.3357 -0.2128
  233MOL0     C31329  -0.029   2.322  10.997  0.0257 -0.0029 -0.1782
  233MOL0     C31330  -0.010   2.286  11.144  0.7667 -0.5432  0.1743
  233MOL0     C31331   0.066   2.400  11.225  0.2839  0.2225  0.1851
  233MOL0     C31332   0.019   2.439  11.364  0.0611 -0.5946  1.0613
  233MOL0     C31333   0.124   2.519  11.437  0.0821 -0.5468 -0.2845
  233MOL0     C31334   0.069   2.567  11.568 -0.3437  0.1339  0.5593
  233MOL0     C31335   0.053   2.465  11.680 -0.5647 -0.5080  0.5731
  233MOL0     C31336   0.003   2.532  11.809  0.8134 -0.4133  0.3219
  233MOL0     N31337   0.005   2.443  11.925 -0.2572 -0.0625 -0.1508
  233MOL0     C31338   0.117   2.432  11.990 -0.1991 -0.4311 -0.0588
  233MOL0     C31339   0.090   2.333  12.085  0.5664  0.3606 -0.3385
  233MOL0     C31340   0.175   2.289  12.191  0.2832 -0.2440 -0.2818
  233MOL0     C31341   0.321   2.326  12.156  0.0033 -0.8414 -1.0394
  233MOL0     C31342   0.412   2.291  12.277  0.3897  0.1536  0.0740
  233MOL0     C31343   0.544   2.356  12.257 -0.3983 -0.7424 -0.3514
  233MOL0     O31344   0.523   2.501  12.268  0.2628 -0.5603  0.7274
  233MOL0     C31345   0.584   2.580  12.180 -0.1479  0.4290  0.4413
  233MOL0     C31346   0.717   2.551  12.135 -0.3460 -0.3649  0.1369
  233MOL0     C31347   0.768   2.632  12.032  1.1540  0.5668 -0.1142
  233MOL0     C31348   0.718   2.757  11.990  0.6939 -0.3718  0.5067
  233MOL0     C31349   0.782   2.835  11.880  0.0826  0.6791 -0.1660
  233MOL0     O31350   0.709   2.949  11.846  0.0504 -0.6230  0.0152
  233MOL0     C31351   0.772   3.058  11.792 -0.4686 -0.3172  0.4199
  233MOL0     C31352   0.914   3.078  11.791  1.1192 -0.4855 -0.5223
  233MOL0     C31353   0.977   3.171  11.702  0.1294  0.5022 -0.1616
  233MOL0     C31354   0.890   3.248  11.608  0.6815  0.3851  0.3483
  233MOL0     O31355   0.930   3.328  11.511  0.7110 -0.4123  0.3478
  233MOL0     C31356   1.072   3.359  11.504 -0.3296 -0.5867  0.8628
  233MOL0     C31357   1.083   3.481  11.415  1.2176 -0.0160  0.2828
  233MOL0     C31358   1.227   3.490  11.366  0.8318  0.3656 -0.0287
  233MOL0     C31359   1.249   3.610  11.282 -0.0354 -0.8222  0.4235
  233MOL0     C31360   1.403   3.637  11.253  0.0582  0.5975  0.0693
  233MOL0     C31361   1.437   3.712  11.125 -0.2903 -0.0540 -0.4890
  233MOL0     C31362   1.586   3.768  11.122  0.7298  1.2858 -0.1598
  233MOL0     C31363   1.635   3.780  10.979 -0.3246  0.3495 -0.0475
  233MOL0    Cl31364   1.783   3.884  10.957  0.1990  0.2864 -0.0383
  233MOL0     C31365   0.757   3.220  11.610 -0.0293 -1.1320 -0.1187
  233MOL0     C31366   0.704   3.125  11.695  0.6507 -0.2718  0.1717
  233MOL0     O31367   0.901   2.806  11.851 -0.1538 -0.2136 -0.4878
  233MOL0     C31368   0.585   2.783  12.034 -0.0559  0.6634  0.2615
  233MOL0     C31369   0.526   2.695  12.121  0.2616 -0.3510 -0.7579
  233MOL0     N31370  -0.041   2.292  12.069 -0.2306  0.6558 -0.7607
  233MOL0     N31371  -0.090   2.363  11.971  0.3942 -0.8275 -0.3973
  233MOL0     C31372   0.322   2.344  10.954 -0.1327 -0.4770 -0.1132
  233MOL0     C31373   0.423   2.437  10.919  1.2697 -0.2083  0.1171
  233MOL0     C31374   0.640   2.839  10.816 -0.3122  0.0837 -0.2902
  233MOL0     C31375   0.603   2.875  10.682  0.4880 -0.8580  0.3403
  233MOL0     C31376   0.661   2.982  10.622  0.1819 -0.0685 -0.4639
  233MOL0     C31377   0.765   3.047  10.679 -0.4725 -0.0201 -0.9326
  233MOL0     O31378   0.810   3.150  10.598 -0.4322  0.3326  0.0851
  233MOL0     C31379   0.903   3.241  10.665 -0.3862 -0.4643 -0.2188
  233MOL0     C31380   0.966   3.323  10.553 -0.7625 -0.8674 -0.0093
  233MOL0     C31381   1.066   3.423  10.607  0.0442  0.3400 -0.8337
  233MOL0     C31382   1.198   3.369  10.666  0.3226  0.1075  0.3702
  233MOL0     C31383   1.284   3.484  10.702  0.8629  0.6922 -0.9192
  233MOL0     C31384   1.343   3.573  10.752  0.5297 -0.2055  1.2626
  233MOL0     C31385   0.814   3.006  10.800  0.1324  0.2981 -0.9176
  233MOL0     C31386   0.754   2.910  10.877 -0.0594  0.1193  0.4039
  233MOL0     C31387   0.790   2.879  11.017 -0.2921  0.4275 -0.2468
  233MOL0     H31388   0.233   2.661  10.740 -1.6030  0.0257  0.0073
  233MOL0     H31389   0.069   2.497  10.791  0.4143 -2.5030 -2.4526
  233MOL0     H31390  -0.036   2.431  10.993 -1.2037 -0.0114  1.0900
  233MOL0     H31391  -0.120   2.284  10.950 -0.2539 -0.3294  0.6068
  233MOL0     H31392   0.039   2.188  11.146 -0.4955 -1.3853 -3.2950
  233MOL0     H31393  -0.109   2.272  11.188 -0.2122  2.7625 -0.6966
  233MOL0     H31394   0.056   2.493  11.168  1.7703 -0.1127 -0.6790
  233MOL0     H31395   0.168   2.360  11.229  0.1658 -0.0316  0.6871
  233MOL0     H31396  -0.075   2.495  11.369  0.9980  1.3062 -0.9871
  233MOL0     H31397   0.006   2.341  11.412  0.4076 -0.5566  1.2362
  233MOL0     H31398   0.221   2.470  11.456  1.3946  2.7754  2.7018
  233MOL0     H31399   0.143   2.607  11.375 -0.0936 -0.0941  0.3010
  233MOL0     H31400   0.136   2.649  11.598 -0.8398  0.1193  1.7594
  233MOL0     H31401  -0.024   2.623  11.555  0.0242  0.7603  0.5864
  233MOL0     H31402   0.140   2.406  11.710 -1.7648 -2.3743  0.5825
  233MOL0     H31403  -0.019   2.386  11.657  1.0675 -2.6843  2.4889
  233MOL0     H31404   0.054   2.623  11.842 -1.7178  1.3277 -0.2996
  233MOL0     H31405  -0.102   2.557  11.792  0.0067 -3.6431 -0.1536
  233MOL0     H31406   0.205   2.495  11.982  0.0607 -1.0320 -3.2216
  233MOL0     H31407   0.142   2.340  12.282  1.3085  0.2729 -0.1823
  233MOL0     H31408   0.173   2.180  12.203  2.1058 -0.1676  1.3131
  233MOL0     H31409   0.354   2.288  12.059  1.8239 -4.5664  0.8381
  233MOL0     H31410   0.328   2.434  12.139  0.6872 -0.4815  1.2822
  233MOL0     H31411   0.430   2.183  12.275 -3.2499 -0.6125 -2.9841
  233MOL0     H31412   0.360   2.319  12.369 -0.5387 -0.2772 -0.3101
  233MOL0     H31413   0.579   2.332  12.157 -0.3246 -0.5138 -0.3800
  233MOL0     H31414   0.613   2.324  12.336 -0.5476  0.7428  0.4239
  233MOL0     H31415   0.778   2.465  12.163 -3.0986 -1.7916  2.3714
  233MOL0     H31416   0.866   2.600  11.997  0.8462  1.0650 -1.4774
  233MOL0     H31417   0.974   3.028  11.867  1.9329 -1.2107 -1.6266
  233MOL0     H31418   1.082   3.197  11.705  0.2555  0.2089 -1.3116
  233MOL0     H31419   1.118   3.383  11.601  2.5753 -1.1735 -0.2761
  233MOL0     H31420   1.128   3.277  11.459  1.1359  0.1860  1.2136
  233MOL0     H31421   1.019   3.456  11.329  0.6003  2.6466 -0.1227
  233MOL0     H31422   1.048   3.574  11.460 -0.2428  0.0022 -0.8054
  233MOL0     H31423   1.283   3.499  11.460 -0.2085 -0.5271  0.7013
  233MOL0     H31424   1.263   3.396  11.322 -1.0645 -0.2822 -0.2986
  233MOL0     H31425   1.199   3.693  11.334 -2.1029 -0.6798 -1.5998
  233MOL0     H31426   1.197   3.606  11.185 -1.2392 -0.3285  1.0241
  233MOL0     H31427   1.456   3.543  11.239 -0.4484  0.5078 -1.3515
  233MOL0     H31428   1.440   3.698  11.336  2.2179  0.1111 -0.4718
  233MOL0     H31429   1.424   3.641  11.043  0.5802  2.1713 -2.6749
  233MOL0     H31430   1.366   3.794  11.111  0.1725  0.5192  0.3908
  233MOL0     H31431   1.649   3.697  11.177 -1.7306  0.3592  1.6725
  233MOL0     H31432   1.584   3.858  11.185  0.4425  0.2826  1.3149
  233MOL0     H31433   1.654   3.680  10.939 -1.2111 -0.1945  0.8448
  233MOL0     H31434   1.551   3.826  10.926 -2.2724 -2.4549  0.4096
  233MOL0     H31435   0.702   3.281  11.539 -0.9159  0.0979  1.5339
  233MOL0     H31436   0.597   3.108  11.693  0.2539  1.9895 -0.5254
  233MOL0     H31437   0.538   2.874  11.998 -0.1971  0.4162 -0.1843
  233MOL0     H31438   0.422   2.716  12.147  0.9999  3.1918 -0.1301
  233MOL0     H31439   0.331   2.250  11.008  0.9135 -1.4765 -1.9247
  233MOL0     H31440   0.525   2.428  10.956  1.1898  2.1352  1.0743
  233MOL0     H31441   0.517   2.832  10.631  0.0948  0.1709  0.0982
  233MOL0     H31442   0.631   3.023  10.525  3.3370  1.8689 -0.7694
  233MOL0     H31443   0.985   3.196  10.721 -0.6515  3.5403  3.9245
  233MOL0     H31444   0.847   3.306  10.733  1.4893  0.7179  0.2663
  233MOL0     H31445   0.889   3.385  10.506  1.2661  3.3069  1.5835
  233MOL0     H31446   1.016   3.252  10.487 -0.3002 -0.1381 -0.4490
  233MOL0     H31447   1.022   3.485  10.686 -2.9689 -2.4134 -0.1257
  233MOL0     H31448   1.098   3.488  10.525  1.3126  1.0864  0.2093
  233MOL0     H31449   1.169   3.304  10.749  1.9932  1.7321  2.3483
  233MOL0     H31450   1.243   3.308  10.587  1.6464 -0.1090  1.2677
  233MOL0     H31451   1.383   3.659  10.801 -0.5604  0.5809  0.8206
  233MOL0     H31452   0.904   3.055  10.835  0.9274 -0.7119 -1.5183
  233MOL0     H31453   0.708   2.902  11.087 -0.1621  0.0411  0.0384
  233MOL0     H31454   0.826   2.776  11.029  1.0161  0.7441 -1.2502
  233MOL0     H31455   0.865   2.951  11.050 -2.1086  0.8517  3.5812
  234MOL0     O31456   3.668   1.777   7.980  0.1667  0.1407  0.2305
  234MOL0     C31457   3.692   1.666   7.920 -0.0603 -0.6804 -0.6105
  234MOL0     O31458   3.798   1.648   7.842 -0.1829 -0.0733 -0.3550
  234MOL0     C31459   3.853   1.768   7.804 -1.3982 -0.2804 -1.0766
  234MOL0     C31460   3.834   1.812   7.669 -0.7253  0.7073 -0.5631
  234MOL0     C31461   3.912   1.929   7.626 -0.4721  0.4897  0.1140
  234MOL0     C31462   4.003   1.993   7.710  0.6693  0.0247 -0.5673
  234MOL0     O31463   4.078   2.070   7.628 -0.3141  0.0227 -0.2836
  234MOL0     C31464   4.198   2.137   7.683 -1.0345  0.4405 -0.0411
  234MOL0     C31465   4.281   2.184   7.559 -0.5272  0.1054 -0.8894
  234MOL0     C31466   4.409   2.248   7.617  0.0209  0.0577  0.2739
  234MOL0     C31467   4.524   2.140   7.623 -0.1872  0.5706 -0.3767
  234MOL0     C31468   4.667   2.211   7.628  1.3098 -0.7222  0.5132
  234MOL0     C31469   4.681   2.305   7.746 -0.2561 -0.2224  0.5959
  234MOL0     C31470   4.798   2.396   7.733  0.9238  1.0665  0.0360
  234MOL0     C31471   4.805   2.508   7.849  0.4620  0.5224  0.2156
  234MOL0     N31472   4.832   2.451   7.982 -0.3106 -0.1552  0.1158
  234MOL0     C31473   4.804   2.523   8.097 -0.6736 -0.9400 -0.2781
  234MOL0     C31474   4.909   2.495   8.184  0.6904  0.1677 -0.2137
  234MOL0     C31475   4.939   2.565   8.313 -0.6595 -0.8623  0.2348
  234MOL0     C31476   5.037   2.680   8.284 -0.5391  0.0798  0.4687
  234MOL0     C31477   5.181   2.635   8.275  0.8432  0.8472  0.1778
  234MOL0     C31478   5.262   2.763   8.228 -0.6482 -0.0122 -0.2154
  234MOL0     O31479   5.405   2.729   8.242 -0.2566  0.1848 -0.4867
  234MOL0     C31480   5.486   2.779   8.343 -0.5151 -0.0275 -0.4361
  234MOL0     C31481   5.464   2.892   8.429  0.3518 -0.8104 -0.0027
  234MOL0     C31482   5.568   2.944   8.497  0.2733  0.7605 -0.3121
  234MOL0     C31483   5.695   2.893   8.478 -0.2011 -0.1832 -0.4874
  234MOL0     C31484   5.803   2.961   8.552 -0.4558  0.4942  0.0848
  234MOL0     O31485   5.773   3.075   8.623  0.3357  0.4911 -0.4935
  234MOL0     C31486   5.871   3.137   8.688 -0.5101  0.1944  0.1851
  234MOL0     C31487   5.983   3.203   8.621  0.1876 -0.6256  0.1783
  234MOL0     C31488   6.083   3.252   8.703  0.4225 -0.0654  0.9739
  234MOL0     C31489   6.069   3.259   8.841 -0.1674 -0.2501 -0.1619
  234MOL0     O31490   6.179   3.298   8.920  0.8647 -0.2782  0.6930
  234MOL0     C31491   6.309   3.278   8.873 -0.0913  0.1045  0.0259
  234MOL0     C31492   6.415   3.275   8.986 -0.5079  0.0067 -0.5601
  234MOL0     C31493   6.566   3.260   8.920  0.6544 -0.0968  0.3038
  234MOL0     C31494   6.667   3.275   9.033 -0.8160  0.9284  0.0589
  234MOL0     C31495   6.746   3.407   9.022 -1.0914  1.3280 -0.0430
  234MOL0     C31496   6.837   3.429   9.143 -0.6490  0.1695 -0.2430
  234MOL0     C31497   6.903   3.562   9.153 -0.2741 -0.2584  0.3684
  234MOL0     C31498   7.030   3.571   9.239  0.5981 -0.0372  0.6119
  234MOL0    Cl31499   6.980   3.525   9.405  0.0662 -0.0586  0.1879
  234MOL0     C31500   5.951   3.205   8.899  0.3762 -0.6452  0.3175
  234MOL0     C31501   5.857   3.153   8.826  0.1453  0.8003 -0.0314
  234MOL0     O31502   5.916   2.913   8.533 -0.1648  0.0561 -1.1781
  234MOL0     C31503   5.716   2.795   8.382 -1.3647 -0.5841 -0.1160
  234MOL0     C31504   5.615   2.718   8.325 -0.1976  0.1446  0.6395
  234MOL0     N31505   4.977   2.383   8.132  0.3562  0.7112  0.4075
  234MOL0     N31506   4.939   2.374   8.008 -0.4514  0.4970  0.0446
  234MOL0     C31507   4.030   1.946   7.837 -0.0887  0.1321  0.0505
  234MOL0     C31508   3.955   1.840   7.882 -0.3510  0.1329 -0.2653
  234MOL0     C31509   3.605   1.554   7.934  0.7331  0.6261  0.3663
  234MOL0     C31510   3.658   1.429   7.908  0.2773  0.3479 -0.6879
  234MOL0     C31511   3.571   1.322   7.931  0.0716 -0.5082  0.8134
  234MOL0     C31512   3.428   1.338   7.953  0.0488  0.1099 -0.2812
  234MOL0     O31513   3.335   1.237   7.963  0.2864  0.7220 -0.4722
  234MOL0     C31514   3.369   1.099   7.992 -0.2153  0.1897 -0.1077
  234MOL0     C31515   3.341   1.073   8.139  0.4538 -0.0497 -0.0989
  234MOL0     C31516   3.307   0.924   8.172  0.3502 -0.0065 -0.9422
  234MOL0     C31517   3.166   0.871   8.133  0.4292  0.3872 -0.6667
  234MOL0     C31518   3.051   0.950   8.192  0.3134  0.5028  0.7185
  234MOL0     C31519   2.967   1.040   8.220  0.4643  0.1595  1.0459
  234MOL0     C31520   3.382   1.462   7.975  0.6483 -0.2015  0.4787
  234MOL0     C31521   3.464   1.572   7.957 -0.6271 -0.7033  0.0401
  234MOL0     C31522   3.394   1.708   7.971  0.7559 -0.3698 -0.4614
  234MOL0     H31523   3.774   1.754   7.599  2.5636 -2.7019 -0.8903
  234MOL0     H31524   3.909   1.943   7.518  2.4927  0.3495 -0.0628
  234MOL0     H31525   4.163   2.212   7.754 -2.5589 -1.9577  1.9139
  234MOL0     H31526   4.263   2.069   7.738 -2.1870 -1.6755 -1.1897
  234MOL0     H31527   4.227   2.266   7.511 -1.6923  1.5600  2.5811
  234MOL0     H31528   4.323   2.113   7.488 -1.9607  1.5618 -3.3378
  234MOL0     H31529   4.396   2.295   7.715  1.5701  1.8225 -0.3020
  234MOL0     H31530   4.429   2.336   7.555  3.1301  0.6463  1.8721
  234MOL0     H31531   4.514   2.065   7.702  2.2937  2.0771  1.5172
  234MOL0     H31532   4.525   2.077   7.533  0.5030 -0.9672  0.6659
  234MOL0     H31533   4.734   2.126   7.639 -1.2408 -2.6317  2.5438
  234MOL0     H31534   4.674   2.268   7.535 -0.7213  2.7312  2.2821
  234MOL0     H31535   4.595   2.373   7.743  0.0273  0.2360 -3.5211
  234MOL0     H31536   4.689   2.247   7.838  1.0684  0.4365  0.9100
  234MOL0     H31537   4.800   2.449   7.638 -1.0997  0.8238 -0.1769
  234MOL0     H31538   4.891   2.339   7.723 -0.5921 -2.0589  2.0923
  234MOL0     H31539   4.891   2.568   7.818  0.9684  0.9509  2.2603
  234MOL0     H31540   4.713   2.567   7.842 -1.0015 -1.8290 -2.4354
  234MOL0     H31541   4.721   2.592   8.106  0.1880  0.0882  0.0866
  234MOL0     H31542   4.850   2.603   8.364 -1.2539  0.6899 -1.8199
  234MOL0     H31543   4.984   2.485   8.372  0.4929 -1.3920 -1.2814
  234MOL0     H31544   5.013   2.722   8.186  4.0674  1.3530 -0.3424
  234MOL0     H31545   5.037   2.754   8.364  0.0313  1.6188 -0.9077
  234MOL0     H31546   5.202   2.557   8.202  2.6094  1.0393  0.4237
  234MOL0     H31547   5.220   2.606   8.373 -0.5927  0.1609  0.5684
  234MOL0     H31548   5.226   2.851   8.282  1.4870  1.5674 -1.2169
  234MOL0     H31549   5.245   2.782   8.122  1.5887  1.4930 -0.3946
  234MOL0     H31550   5.366   2.938   8.434  0.5485 -0.4364  0.4058
  234MOL0     H31551   5.551   3.031   8.560 -1.9530 -1.3285  2.2315
  234MOL0     H31552   5.991   3.204   8.513 -0.9270 -0.4106  0.0838
  234MOL0     H31553   6.163   3.298   8.645  0.1890 -0.3456  0.4233
  234MOL0     H31554   6.302   3.183   8.820 -3.4476  1.1322 -1.6275
  234MOL0     H31555   6.338   3.356   8.801  1.2959 -1.4374 -1.1642
  234MOL0     H31556   6.405   3.370   9.040 -1.9595  0.2148 -1.1376
  234MOL0     H31557   6.395   3.201   9.064  4.8284 -3.0696 -1.5876
  234MOL0     H31558   6.569   3.161   8.874 -1.0904  0.0480 -0.1792
  234MOL0     H31559   6.578   3.338   8.844  0.6558  0.6372  1.0415
  234MOL0     H31560   6.728   3.186   9.050 -0.4378  0.7192 -2.1060
  234MOL0     H31561   6.602   3.280   9.120  0.3220 -1.4891  1.1396
  234MOL0     H31562   6.687   3.499   9.012 -0.3223  2.0887  1.8446
  234MOL0     H31563   6.823   3.399   8.945  2.0049 -1.5521  2.9900
  234MOL0     H31564   6.773   3.434   9.231 -2.6515  0.3798 -1.6224
  234MOL0     H31565   6.905   3.345   9.157  1.3542  1.9382  1.2718
  234MOL0     H31566   6.841   3.641   9.197  1.0392  1.4911 -0.8284
  234MOL0     H31567   6.931   3.592   9.052 -1.5436  0.8579  0.3193
  234MOL0     H31568   7.107   3.505   9.199  0.5273 -0.3410  0.9802
  234MOL0     H31569   7.063   3.676   9.241 -1.0416  0.6418 -1.9769
  234MOL0     H31570   5.946   3.195   9.007  0.3325 -1.0411  0.2791
  234MOL0     H31571   5.776   3.104   8.879  2.1132 -1.4711  1.0539
  234MOL0     H31572   5.818   2.766   8.361 -2.2677 -3.7053 -0.7698
  234MOL0     H31573   5.650   2.651   8.248  4.3980  2.0787  0.7544
  234MOL0     H31574   4.098   1.997   7.904  0.1896  2.4507 -1.8522
  234MOL0     H31575   3.980   1.824   7.986 -0.3447  3.7181  0.4330
  234MOL0     H31576   3.764   1.411   7.892  0.8543  2.2952  0.5251
  234MOL0     H31577   3.614   1.224   7.915  0.3192 -0.1632 -0.8016
  234MOL0     H31578   3.470   1.062   7.971 -0.1409  0.5756 -0.4247
  234MOL0     H31579   3.301   1.041   7.929  0.4145  0.0628 -0.6753
  234MOL0     H31580   3.273   1.144   8.187  1.0993  1.2604 -1.0683
  234MOL0     H31581   3.433   1.092   8.194 -1.1655 -1.0676  3.2234
  234MOL0     H31582   3.314   0.911   8.280 -0.5760 -2.3439 -1.0971
  234MOL0     H31583   3.388   0.868   8.123  0.5503  0.4536 -1.1420
  234MOL0     H31584   3.162   0.866   8.024  0.3630 -1.4414 -0.6211
  234MOL0     H31585   3.153   0.769   8.171  0.1810  0.6060 -0.1627
  234MOL0     H31586   2.895   1.114   8.247  0.4782 -0.2562  2.2632
  234MOL0     H31587   3.278   1.480   8.003  1.3037  1.0795  2.2805
  234MOL0     H31588   3.425   1.769   7.885  1.9631 -0.8912 -0.4099
  234MOL0     H31589   3.284   1.709   7.972  0.7315  1.6654  0.0781
  234MOL0     H31590   3.437   1.743   8.065  1.1088 -3.0191  0.4273
  235MOL0     O31591   7.041   4.892  10.650 -0.7760  0.0571  0.1054
  235MOL0     C31592   6.938   4.961  10.631 -0.2918  0.2177 -0.5287
  235MOL0     O31593   6.942   5.096  10.605  0.0065  0.1461 -0.1592
  235MOL0     C31594   7.061   5.163  10.589  0.2286 -0.1130  0.0898
  235MOL0     C31595   7.157   5.159  10.692  0.5414 -0.4902 -0.2172
  235MOL0     C31596   7.268   5.239  10.690 -0.2275  0.0869 -0.0594
  235MOL0     C31597   7.284   5.327  10.584 -0.3568  0.8093 -1.2534
  235MOL0     O31598   7.396   5.406  10.597  0.1723 -0.0211 -0.4798
  235MOL0     C31599   7.400   5.530  10.523  0.0974 -0.1627 -0.3366
  235MOL0     C31600   7.478   5.651  10.595  0.0063 -0.3287 -0.4260
  235MOL0     C31601   7.602   5.593  10.681 -0.7044 -0.5557 -0.3320
  235MOL0     C31602   7.640   5.692  10.805 -0.2389  0.6101 -0.6254
  235MOL0     C31603   7.746   5.625  10.894 -0.5152 -0.8195  0.8402
  235MOL0     C31604   7.807   5.731  10.993  0.0213 -0.3259 -0.2896
  235MOL0     C31605   7.928   5.661  11.063  0.2901  0.7259  0.5087
  235MOL0     C31606   8.026   5.751  11.124  0.5698  0.0430 -0.3564
  235MOL0     N31607   7.970   5.832  11.232  0.3262 -0.2549  0.7929
  235MOL0     C31608   7.887   5.791  11.328 -0.6753 -0.5949  0.1374
  235MOL0     C31609   7.871   5.898  11.412  0.1921 -0.8245 -0.2344
  235MOL0     C31610   7.805   5.881  11.546 -0.6778  0.3657 -0.0470
  235MOL0     C31611   7.890   5.798  11.650 -0.1427  0.6252  0.6811
  235MOL0     C31612   7.842   5.821  11.794  0.4884 -0.2653  0.3372
  235MOL0     C31613   7.923   5.923  11.874 -0.6727  0.0061 -0.5262
  235MOL0     O31614   7.886   5.943  12.011 -0.2942  0.2388  0.3710
  235MOL0     C31615   7.960   5.880  12.104  0.2903  0.6377 -0.1212
  235MOL0     C31616   7.909   5.773  12.178  0.5600 -0.2521  0.5907
  235MOL0     C31617   7.991   5.715  12.273 -0.3734 -0.2483  0.9730
  235MOL0     C31618   8.131   5.752  12.294 -0.2397  0.3062  0.6049
  235MOL0     C31619   8.212   5.659  12.375  0.7440 -0.5491 -1.2089
  235MOL0     O31620   8.344   5.674  12.373  0.2267 -0.0657 -0.3870
  235MOL0     C31621   8.430   5.625  12.468 -0.5992 -0.8476  0.6407
  235MOL0     C31622   8.558   5.582  12.432 -0.4083  1.0872 -0.4626
  235MOL0     C31623   8.656   5.557  12.532  0.5220 -0.5378  0.8230
  235MOL0     C31624   8.625   5.570  12.668 -0.5266  0.3426 -0.8307
  235MOL0     O31625   8.707   5.563  12.777  0.2811 -0.2033  0.2472
  235MOL0     C31626   8.847   5.593  12.757  0.3340  0.1455  0.6405
  235MOL0     C31627   8.883   5.752  12.727  0.0153 -0.0362 -0.3232
  235MOL0     C31628   9.024   5.774  12.766  0.1178  0.6396 -0.1725
  235MOL0     C31629   9.073   5.914  12.744  0.1824 -1.0864  0.3814
  235MOL0     C31630   9.221   5.931  12.795 -0.0949 -0.1029 -0.0489
  235MOL0     C31631   9.323   5.840  12.720  0.1415  0.6331 -0.6709
  235MOL0     C31632   9.465   5.863  12.762  0.5996 -0.9006 -0.5024
  235MOL0     C31633   9.539   5.941  12.646  0.3937 -0.1034 -0.2235
  235MOL0    Cl31634   9.690   5.999  12.721 -0.0631 -0.2826  0.2093
  235MOL0     C31635   8.496   5.611  12.711 -0.4089  0.7546  0.3012
  235MOL0     C31636   8.399   5.640  12.607 -0.5650  0.0633  0.0780
  235MOL0     O31637   8.163   5.572  12.444 -0.1346 -0.2649 -0.4679
  235MOL0     C31638   8.176   5.860  12.226  0.2224 -0.6478  0.6219
  235MOL0     C31639   8.094   5.927  12.126  0.1002  0.3960 -0.6581
  235MOL0     N31640   7.922   6.012  11.338  0.4653 -0.3104  0.5552
  235MOL0     N31641   7.988   5.967  11.243  0.2098 -0.2586  0.3050
  235MOL0     C31642   7.188   5.330  10.479 -0.2876 -0.7672 -0.6026
  235MOL0     C31643   7.076   5.250  10.481 -0.5765  0.1132  0.3110
  235MOL0     C31644   6.807   4.891  10.651  0.1018  0.2099 -1.1995
  235MOL0     C31645   6.814   4.764  10.723 -0.0844 -1.0784 -0.5317
  235MOL0     C31646   6.699   4.696  10.755  0.6637  0.4152 -0.7454
  235MOL0     C31647   6.579   4.747  10.719 -0.8259 -0.1131  1.1271
  235MOL0     O31648   6.463   4.678  10.749 -0.0923 -0.7778 -0.1678
  235MOL0     C31649   6.463   4.539  10.699  0.8779  0.8704  0.2291
  235MOL0     C31650   6.364   4.525  10.588 -0.5087 -0.3686 -0.2563
  235MOL0     C31651   6.382   4.611  10.462  0.1259  0.3574  0.5010
  235MOL0     C31652   6.516   4.582  10.382 -0.0533  0.4377 -0.9958
  235MOL0     C31653   6.536   4.452  10.328  0.8592  0.4095 -0.3855
  235MOL0     C31654   6.542   4.353  10.265 -0.1381  0.0707  0.2143
  235MOL0     C31655   6.571   4.877  10.661 -0.3525  0.4351  0.0525
  235MOL0     C31656   6.684   4.948  10.625  0.1705  0.0294 -1.3707
  235MOL0     C31657   6.655   5.072  10.554 -0.7021 -0.3867 -0.2246
  235MOL0     H31658   7.136   5.093  10.775 -1.7964  0.7270  0.2387
  235MOL0     H31659   7.342   5.229  10.768 -1.2480 -1.2636  0.7780
  235MOL0     H31660   7.469   5.507  10.441  0.0458 -0.1749 -0.3768
  235MOL0     H31661   7.308   5.569  10.479  1.5836  2.0741 -1.6763
  235MOL0     H31662   7.410   5.710  10.657  1.1132  1.5167 -0.8879
  235MOL0     H31663   7.514   5.731  10.530 -0.0070  0.7476  0.8340
  235MOL0     H31664   7.696   5.571  10.629 -0.7412 -2.8119  0.4611
  235MOL0     H31665   7.578   5.498  10.730 -0.5930  1.5280  4.2378
  235MOL0     H31666   7.689   5.783  10.770 -0.0597  0.3579 -1.0368
  235MOL0     H31667   7.559   5.720  10.874 -0.9742 -0.0554 -1.1980
  235MOL0     H31668   7.689   5.547  10.945 -3.8445  1.1185  0.3296
  235MOL0     H31669   7.822   5.584  10.825  1.4698 -0.6372  2.8082
  235MOL0     H31670   7.851   5.821  10.948  1.1613 -0.6255  0.1732
  235MOL0     H31671   7.738   5.756  11.074  1.1084  2.5728 -0.1274
  235MOL0     H31672   7.985   5.590  11.002  1.2356 -0.6833  2.8766
  235MOL0     H31673   7.892   5.598  11.145  0.2414 -2.4754 -1.7844
  235MOL0     H31674   8.118   5.699  11.152  3.4699  5.5749  2.0496
  235MOL0     H31675   8.051   5.814  11.038 -3.5561 -0.0755 -1.8801
  235MOL0     H31676   7.848   5.695  11.360 -1.4051  0.9249  4.4993
  235MOL0     H31677   7.795   5.983  11.585 -1.9452  1.2297 -2.4013
  235MOL0     H31678   7.707   5.834  11.539 -0.2741 -0.5947  0.6062
  235MOL0     H31679   7.882   5.692  11.623  1.6750  1.4554 -4.4108
  235MOL0     H31680   7.991   5.840  11.637 -0.2674  1.0218  0.9687
  235MOL0     H31681   7.850   5.724  11.844 -1.2120 -0.5478  0.1231
  235MOL0     H31682   7.738   5.855  11.788 -0.8297 -3.5219  2.2596
  235MOL0     H31683   7.900   6.019  11.827 -1.0808  0.4117  0.4529
  235MOL0     H31684   8.031   5.905  11.869  0.1749  2.6699  3.2844
  235MOL0     H31685   7.807   5.736  12.173  0.0692  1.1732 -0.3879
  235MOL0     H31686   7.953   5.634  12.334  0.0671  1.8285  4.3159
  235MOL0     H31687   8.560   5.565  12.324  0.2869 -1.0597 -0.1683
  235MOL0     H31688   8.758   5.533  12.505  0.8534  2.1290 -0.6448
  235MOL0     H31689   8.898   5.557  12.847 -1.3988 -1.0559  1.1826
  235MOL0     H31690   8.891   5.533  12.677 -0.4981  0.0811  0.2286
  235MOL0     H31691   8.873   5.777  12.621  2.0318 -0.9425 -0.7843
  235MOL0     H31692   8.814   5.810  12.789 -2.6671 -0.3884 -2.7754
  235MOL0     H31693   9.034   5.757  12.874 -1.8916  0.3321 -0.0014
  235MOL0     H31694   9.093   5.700  12.723  1.4270  0.3994  2.1710
  235MOL0     H31695   9.006   5.984  12.795 -0.0255 -0.0114 -1.2885
  235MOL0     H31696   9.082   5.936  12.637  1.7140 -0.3787  0.6359
  235MOL0     H31697   9.229   5.917  12.903 -1.3324  0.8802  0.1921
  235MOL0     H31698   9.253   6.034  12.780 -1.4964  0.5542  1.2101
  235MOL0     H31699   9.297   5.740  12.756  2.3725  0.1684 -0.2312
  235MOL0     H31700   9.306   5.838  12.612 -0.3279 -1.4482 -0.6045
  235MOL0     H31701   9.513   5.767  12.785 -2.5502 -2.5835 -0.3198
  235MOL0     H31702   9.470   5.916  12.858  3.5187  0.1455 -1.1237
  235MOL0     H31703   9.543   5.885  12.552 -1.1069  1.8511 -1.5303
  235MOL0     H31704   9.481   6.031  12.624  1.0991  0.4119  0.0046
  235MOL0     H31705   8.476   5.626  12.817  1.2285 -1.4173  0.9728
  235MOL0     H31706   8.296   5.672  12.623 -1.1596 -0.1304 -2.8546
  235MOL0     H31707   8.276   5.903  12.229  0.6427 -1.5591  0.0375
  235MOL0     H31708   8.137   6.006  12.066 -1.5613  3.2475  1.6291
  235MOL0     H31709   7.198   5.388  10.388 -0.6260 -2.2663 -1.6195
  235MOL0     H31710   7.006   5.259  10.399  1.1355 -1.6918 -1.4748
  235MOL0     H31711   6.907   4.719  10.757  0.0393  0.3313  1.1708
  235MOL0     H31712   6.699   4.606  10.817 -0.8783  0.3270 -0.8257
  235MOL0     H31713   6.415   4.476  10.774 -0.3750  0.6435 -0.7267
  235MOL0     H31714   6.562   4.506  10.667  1.0790  2.8767 -1.4075
  235MOL0     H31715   6.262   4.545  10.623 -0.5133  1.2528 -1.0662
  235MOL0     H31716   6.377   4.419  10.565  0.7073 -1.2570  3.7587
  235MOL0     H31717   6.386   4.718  10.487 -0.0434  0.1810  1.3247
  235MOL0     H31718   6.310   4.584  10.385  0.1409  3.0363 -0.5637
  235MOL0     H31719   6.518   4.660  10.305  0.0960 -0.3847 -1.8408
  235MOL0     H31720   6.607   4.612  10.434  0.0623 -0.6990 -0.5269
  235MOL0     H31721   6.551   4.263  10.207  1.0024  0.5323 -0.3424
  235MOL0     H31722   6.474   4.925  10.657 -0.4622  0.0977 -2.2290
  235MOL0     H31723   6.559   5.073  10.503 -0.9527  1.4139  0.2161
  235MOL0     H31724   6.648   5.153  10.628  1.3415 -1.8755  1.7467
  235MOL0     H31725   6.731   5.098  10.480 -0.2588  1.5607  0.8372
  236MOL0     O31726   5.979   8.771   6.471  0.3844  0.7315  0.2501
  236MOL0     C31727   5.982   8.712   6.576 -0.1971  0.2966  0.4037
  236MOL0     O31728   5.873   8.680   6.645 -0.1873  1.0472 -0.0275
  236MOL0     C31729   5.744   8.699   6.597  0.0538 -0.5131 -0.7782
  236MOL0     C31730   5.655   8.591   6.604 -0.3424  0.6109 -0.0864
  236MOL0     C31731   5.526   8.593   6.540  0.7426 -0.3455 -0.1980
  236MOL0     C31732   5.476   8.711   6.479  0.9683  0.1665 -0.0330
  236MOL0     O31733   5.363   8.709   6.402 -0.2292 -0.3346 -0.2567
  236MOL0     C31734   5.334   8.821   6.322  0.0041 -0.4875 -0.4935
  236MOL0     C31735   5.207   8.786   6.256  0.5081 -0.8166 -0.5031
  236MOL0     C31736   5.228   8.684   6.149 -0.3655  0.0053  0.7634
  236MOL0     C31737   5.157   8.546   6.177  0.1860 -1.1259 -0.6245
  236MOL0     C31738   5.104   8.478   6.043 -1.3215  0.1377 -0.3176
  236MOL0     C31739   4.980   8.551   5.991  1.0395  0.8160 -0.2328
  236MOL0     C31740   4.908   8.468   5.882  0.1352  0.6510  0.4873
  236MOL0     C31741   4.976   8.452   5.739 -0.5588  0.1683  0.0906
  236MOL0     N31742   4.966   8.552   5.640 -0.0469 -0.5892 -0.5910
  236MOL0     C31743   4.882   8.548   5.530  0.8176  0.9560 -0.8060
  236MOL0     C31744   4.908   8.653   5.449 -0.2364 -0.5645 -0.5691
  236MOL0     C31745   4.837   8.689   5.322  0.2340  0.2564  0.1955
  236MOL0     C31746   4.927   8.745   5.208 -0.3685 -0.4634  0.0853
  236MOL0     C31747   4.856   8.731   5.082  0.6658  1.3347  0.3699
  236MOL0     C31748   4.938   8.779   4.972  0.4709 -0.1160  0.8054
  236MOL0     O31749   4.856   8.781   4.855 -0.2990 -0.3201 -0.3673
  236MOL0     C31750   4.784   8.892   4.820 -1.0395 -0.4873 -0.0391
  236MOL0     C31751   4.715   8.866   4.701  0.1061  0.1537  1.2640
  236MOL0     C31752   4.639   8.972   4.662  0.9097  0.1514  0.0418
  236MOL0     C31753   4.635   9.099   4.729 -0.2909  0.2075 -0.3702
  236MOL0     C31754   4.566   9.219   4.672 -0.6683  0.1139  0.7518
  236MOL0     O31755   4.551   9.330   4.746 -0.5640 -0.5947  0.3686
  236MOL0     C31756   4.498   9.453   4.690 -0.0262  0.5375 -0.1805
  236MOL0     C31757   4.504   9.491   4.552  0.0316  0.6056 -0.1492
  236MOL0     C31758   4.426   9.599   4.517 -0.8249 -0.5940  0.0352
  236MOL0     C31759   4.352   9.672   4.608 -0.0930 -0.7715  0.5040
  236MOL0     O31760   4.276   9.774   4.563  0.5962  0.1292  0.6227
  236MOL0     C31761   4.168   9.736   4.479  0.4227  0.1414  0.9084
  236MOL0     C31762   4.154   9.843   4.371 -0.8304  0.4195  0.2201
  236MOL0     C31763   4.071   9.785   4.251 -0.2969  0.3645 -1.0280
  236MOL0     C31764   4.032   9.898   4.150 -0.4366  0.2501 -0.4723
  236MOL0     C31765   3.904   9.841   4.086 -0.2830  0.2279 -0.1298
  236MOL0     C31766   3.841   9.929   3.979 -0.3853 -0.1235 -0.0172
  236MOL0     C31767   3.796  10.062   4.022  0.3832 -1.4008  0.8661
  236MOL0     C31768   3.735  10.146   3.899  0.4793 -0.3265 -0.2815
  236MOL0    Cl31769   3.866  10.234   3.824 -0.1406  0.5507  0.0054
  236MOL0     C31770   4.349   9.634   4.735 -0.1752  0.4932 -0.5135
  236MOL0     C31771   4.419   9.520   4.777  1.1057  0.0776  0.3318
  236MOL0     O31772   4.538   9.206   4.553 -0.1776  0.0511  0.4212
  236MOL0     C31773   4.705   9.119   4.848 -0.5778 -0.1564  0.4057
  236MOL0     C31774   4.772   9.009   4.892  0.0645  0.1131  0.5352
  236MOL0     N31775   5.008   8.722   5.514 -0.4828 -0.7000  0.0561
  236MOL0     N31776   5.044   8.666   5.620  0.1625  0.3781 -0.4231
  236MOL0     C31777   5.560   8.827   6.495  0.4332 -0.7816 -0.1000
  236MOL0     C31778   5.690   8.817   6.547 -0.6409 -0.0070  0.4260
  236MOL0     C31779   6.119   8.698   6.643 -0.0365  0.5975  0.0222
  236MOL0     C31780   6.132   8.618   6.764 -0.0931  0.4901 -0.4655
  236MOL0     C31781   6.262   8.586   6.817 -0.1159  0.4655 -0.1699
  236MOL0     C31782   6.380   8.636   6.768 -0.0521 -0.2712  0.3467
  236MOL0     O31783   6.485   8.584   6.832  0.2019 -0.3574 -0.4429
  236MOL0     C31784   6.608   8.663   6.829 -0.6240  0.6315 -0.2185
  236MOL0     C31785   6.610   8.780   6.930 -0.1919  0.1671 -0.3657
  236MOL0     C31786   6.736   8.866   6.931 -0.0813 -0.1897 -0.5973
  236MOL0     C31787   6.743   8.955   7.059  0.1834  0.0308  0.4736
  236MOL0     C31788   6.787   9.089   7.030  0.2781 -0.0562  0.8721
  236MOL0     C31789   6.816   9.206   7.004  0.8110 -0.1094  0.3370
  236MOL0     C31790   6.370   8.717   6.657  0.1119  0.6859 -0.2854
  236MOL0     C31791   6.245   8.744   6.592 -0.5442 -0.6106 -0.0839
  236MOL0     C31792   6.250   8.815   6.463 -0.8669 -0.3615  0.4520
  236MOL0     H31793   5.701   8.499   6.641  0.4687  1.0050 -0.0901
  236MOL0     H31794   5.467   8.503   6.527 -0.9882  0.4730  1.4074
  236MOL0     H31795   5.320   8.909   6.385 -3.2335 -0.5647 -0.9410
  236MOL0     H31796   5.410   8.846   6.248 -0.6291 -0.6057 -1.2045
  236MOL0     H31797   5.152   8.873   6.219  0.1209 -0.6997  0.3299
  236MOL0     H31798   5.151   8.742   6.339  1.6698 -0.4293  0.5163
  236MOL0     H31799   5.336   8.672   6.149 -0.3022  0.3266  2.8169
  236MOL0     H31800   5.188   8.729   6.057 -0.6897  1.4845  1.5920
  236MOL0     H31801   5.216   8.472   6.233 -3.2597 -1.6672  2.6512
  236MOL0     H31802   5.074   8.548   6.248  0.3246 -3.2027 -0.3141
  236MOL0     H31803   5.190   8.470   5.975 -1.4698 -3.2959 -0.3129
  236MOL0     H31804   5.080   8.373   6.064 -1.5387  0.1286 -0.6205
  236MOL0     H31805   4.912   8.558   6.077  0.6967 -0.6711 -0.3599
  236MOL0     H31806   4.999   8.655   5.962  0.8398  0.4871 -1.6189
  236MOL0     H31807   4.811   8.515   5.863 -1.2971 -2.0207  0.8160
  236MOL0     H31808   4.893   8.366   5.917 -2.1520  0.0632 -1.9086
  236MOL0     H31809   5.084   8.450   5.755 -0.2336 -2.7119 -1.7324
  236MOL0     H31810   4.946   8.357   5.695  2.2788 -0.7467 -0.0445
  236MOL0     H31811   4.795   8.484   5.522 -0.8285  3.1372 -1.3782
  236MOL0     H31812   4.802   8.592   5.285 -0.0737  1.2061 -2.1576
  236MOL0     H31813   4.747   8.743   5.352 -0.2397 -1.4014  2.0524
  236MOL0     H31814   4.952   8.850   5.227  0.1731 -0.8861  1.9797
  236MOL0     H31815   5.015   8.680   5.204 -0.6616 -0.7976 -2.6107
  236MOL0     H31816   4.766   8.793   5.093 -0.7661 -0.3589 -1.0564
  236MOL0     H31817   4.841   8.626   5.056  0.9464  1.4666 -0.3515
  236MOL0     H31818   5.021   8.711   4.955 -1.2819 -1.5875 -2.8273
  236MOL0     H31819   4.987   8.877   4.980  5.9448 -2.2890 -1.3631
  236MOL0     H31820   4.727   8.780   4.635  0.4550  1.0742  0.0937
  236MOL0     H31821   4.588   8.967   4.566  1.4522 -0.9389 -0.2016
  236MOL0     H31822   4.557   9.430   4.479 -3.9302 -1.4812 -1.5971
  236MOL0     H31823   4.432   9.635   4.415  0.2994 -2.6363 -0.6837
  236MOL0     H31824   4.154   9.635   4.440 -4.9619 -0.8521  4.2943
  236MOL0     H31825   4.081   9.727   4.545 -0.5927 -1.1995 -0.5105
  236MOL0     H31826   4.110   9.927   4.426  0.0655  0.0987  1.4814
  236MOL0     H31827   4.256   9.869   4.340 -0.7328 -1.8521 -1.6423
  236MOL0     H31828   4.126   9.708   4.195 -1.3727  0.8245 -2.8019
  236MOL0     H31829   3.986   9.747   4.308  0.5481  1.5270  1.0739
  236MOL0     H31830   4.115   9.919   4.082  1.1399  1.1535  1.6205
  236MOL0     H31831   4.013   9.996   4.193 -2.0440 -0.1011 -0.3218
  236MOL0     H31832   3.836   9.829   4.171 -2.1677  0.0394 -1.5838
  236MOL0     H31833   3.924   9.741   4.046 -1.9186 -0.2502  0.1815
  236MOL0     H31834   3.912   9.936   3.897  3.9597 -0.0743  3.3934
  236MOL0     H31835   3.754   9.873   3.942  0.1791 -0.1695 -1.3067
  236MOL0     H31836   3.874  10.132   4.055  1.5091 -1.5514 -1.2967
  236MOL0     H31837   3.713  10.051   4.092  0.2780 -2.7693  0.5619
  236MOL0     H31838   3.690  10.077   3.827  0.1508  2.7917 -3.3169
  236MOL0     H31839   3.663  10.224   3.925  0.9016  0.1040 -0.3928
  236MOL0     H31840   4.296   9.700   4.804 -1.1113  0.6497 -1.3467
  236MOL0     H31841   4.415   9.485   4.879  2.3893 -0.5270  0.1930
  236MOL0     H31842   4.718   9.221   4.883  1.2355  0.6064 -2.1512
  236MOL0     H31843   4.836   9.012   4.979  1.1448 -0.9397 -0.1829
  236MOL0     H31844   5.537   8.924   6.453  2.2643 -0.0442  0.4984
  236MOL0     H31845   5.743   8.912   6.554 -2.7091  1.1426  1.4387
  236MOL0     H31846   6.052   8.559   6.808  2.9348 -1.2237  3.3869
  236MOL0     H31847   6.268   8.497   6.878 -3.0201 -0.4345 -1.0132
  236MOL0     H31848   6.619   8.703   6.728 -2.2394  0.9348 -0.3046
  236MOL0     H31849   6.683   8.591   6.861 -1.7027 -0.4974 -0.1657
  236MOL0     H31850   6.615   8.734   7.029 -2.2037  1.8362  0.6080
  236MOL0     H31851   6.517   8.837   6.916 -0.1007 -0.3582 -4.0978
  236MOL0     H31852   6.748   8.920   6.836  0.0175 -0.9378 -1.0228
  236MOL0     H31853   6.815   8.792   6.945  0.8990  1.3347  2.9168
  236MOL0     H31854   6.643   8.961   7.103  0.2886 -0.4208  0.7770
  236MOL0     H31855   6.807   8.912   7.136  0.5880 -0.5423 -0.1645
  236MOL0     H31856   6.829   9.312   6.988  1.2810 -0.2453 -0.2286
  236MOL0     H31857   6.462   8.751   6.608  0.2642 -1.4668 -1.5983
  236MOL0     H31858   6.354   8.827   6.429 -0.6230 -1.3091  0.8266
  236MOL0     H31859   6.190   8.763   6.388  1.4299 -1.8994 -0.4475
  236MOL0     H31860   6.210   8.916   6.467  0.2570  0.2774 -2.4771
  237MOL0     O31861   9.657   7.904   2.807 -0.4240  0.2025  0.6750
  237MOL0     C31862   9.557   7.876   2.873 -0.7241  0.1131 -0.5853
  237MOL0     O31863   9.501   7.958   2.955  0.6827 -0.5772 -0.9658
  237MOL0     C31864   9.560   8.076   2.979 -0.5064 -0.6545 -0.1047
  237MOL0     C31865   9.512   8.192   2.926  0.4213  0.1731  0.2793
  237MOL0     C31866   9.566   8.314   2.968  0.1550 -0.4708 -0.4374
  237MOL0     C31867   9.664   8.325   3.076  0.0351 -1.5756  0.4735
  237MOL0     O31868   9.698   8.449   3.122  0.2093  0.3822 -0.0649
  237MOL0     C31869   9.836   8.459   3.171 -0.0869 -0.5908 -0.0974
  237MOL0     C31870   9.865   8.606   3.220  0.5809 -0.0086  0.2794
  237MOL0     C31871   9.785   8.649   3.338  0.8843  0.6115 -0.5609
  237MOL0     C31872   9.658   8.715   3.289 -0.2667 -0.6141  0.5298
  237MOL0     C31873   9.603   8.817   3.392 -0.2473  0.2194  0.3942
  237MOL0     C31874   9.521   8.920   3.322  0.3025 -0.8455 -0.1842
  237MOL0     C31875   9.467   9.020   3.412  0.2599  0.6371  0.2824
  237MOL0     C31876   9.391   9.133   3.335  0.8409  0.3291 -0.6173
  237MOL0     N31877   9.267   9.085   3.273 -0.6655  0.4238  0.2030
  237MOL0     C31878   9.155   9.039   3.328 -0.0312  0.3755  0.3153
  237MOL0     C31879   9.086   8.978   3.226 -0.1969 -0.0401  0.0385
  237MOL0     C31880   8.950   8.914   3.221 -0.4453  0.0121  0.4772
  237MOL0     C31881   8.958   8.781   3.289 -0.0661  0.8124  1.0326
  237MOL0     C31882   8.829   8.691   3.287 -0.2479 -0.1636  0.0915
  237MOL0     C31883   8.856   8.553   3.321  0.6697  0.4137  0.3672
  237MOL0     O31884   8.860   8.539   3.462 -0.4909  0.8391 -0.1017
  237MOL0     C31885   8.980   8.523   3.527  0.6144  0.6899 -0.2387
  237MOL0     C31886   8.975   8.495   3.666  0.4446  0.3658  0.3306
  237MOL0     C31887   9.094   8.476   3.739  0.3111 -0.3618 -0.4373
  237MOL0     C31888   9.219   8.486   3.678  0.8997  0.4997 -0.7532
  237MOL0     C31889   9.347   8.444   3.747 -0.2321 -0.6682 -0.7303
  237MOL0     O31890   9.462   8.502   3.704 -0.0500  0.2942 -0.0394
  237MOL0     C31891   9.578   8.510   3.778  1.0759  0.3703  0.2500
  237MOL0     C31892   9.610   8.428   3.890  0.3491  0.8781 -0.5181
  237MOL0     C31893   9.733   8.424   3.951  0.9023 -0.2540  0.4832
  237MOL0     C31894   9.842   8.508   3.906  0.1118  0.4936 -0.2670
  237MOL0     O31895   9.963   8.511   3.959 -0.7921 -0.2558  0.1106
  237MOL0     C31896  10.071   8.533   3.865 -0.7055 -0.0435 -0.2939
  237MOL0     C31897  10.207   8.472   3.921  0.1883  0.2677 -0.1462
  237MOL0     C31898  10.227   8.469   4.076  0.8104 -0.3372 -0.7620
  237MOL0     C31899  10.168   8.342   4.140 -0.0570  0.0325  0.9463
  237MOL0     C31900  10.202   8.340   4.283  0.4478  0.7909 -0.0709
  237MOL0     C31901  10.162   8.216   4.363 -0.8939 -0.3026  0.0237
  237MOL0     C31902  10.223   8.212   4.501  0.8873  1.2071 -0.0772
  237MOL0     C31903  10.122   8.296   4.594  0.3892  0.1663 -0.2854
  237MOL0    Cl31904  10.166   8.293   4.768 -0.0765  0.5824 -0.5303
  237MOL0     C31905   9.812   8.593   3.796  0.0731  0.3869 -0.7010
  237MOL0     C31906   9.688   8.589   3.734  0.3015 -0.3555 -0.5675
  237MOL0     O31907   9.335   8.376   3.846 -0.6018 -0.6782  1.1780
  237MOL0     C31908   9.222   8.514   3.546 -0.0014 -0.1848 -0.2068
  237MOL0     C31909   9.105   8.531   3.474  0.2352  0.4019 -0.5896
  237MOL0     N31910   9.158   8.996   3.109  0.0844 -0.3512  0.1237
  237MOL0     N31911   9.269   9.063   3.136 -0.2559  0.1993  0.1588
  237MOL0     C31912   9.708   8.205   3.133  0.9387 -0.2872  1.0837
  237MOL0     C31913   9.654   8.085   3.086 -0.5946 -0.3647 -0.5386
  237MOL0     C31914   9.503   7.741   2.854  0.2711  0.5974 -0.6612
  237MOL0     C31915   9.591   7.645   2.789  0.1606 -0.5929  0.8268
  237MOL0     C31916   9.542   7.519   2.747 -0.0420 -0.6524  0.0708
  237MOL0     C31917   9.421   7.474   2.803  0.6331  0.1640 -0.3466
  237MOL0     O31918   9.376   7.343   2.771  0.1882 -0.1781 -0.2861
  237MOL0     C31919   9.231   7.325   2.738  0.1322  0.3987 -0.2172
  237MOL0     C31920   9.217   7.229   2.619  0.3091 -0.7611 -0.7467
  237MOL0     C31921   9.264   7.278   2.482  0.1660  0.0945  0.3278
  237MOL0     C31922   9.216   7.427   2.450 -1.0298  0.5257  0.7012
  237MOL0     C31923   9.072   7.433   2.457 -0.4659 -0.2625  0.2823
  237MOL0     C31924   8.955   7.452   2.456 -0.5860 -0.4282 -0.2722
  237MOL0     C31925   9.340   7.565   2.874 -0.2110  0.2343 -0.2518
  237MOL0     C31926   9.375   7.692   2.897 -0.4792 -0.7356  0.7558
  237MOL0     C31927   9.284   7.773   2.984  0.7736 -0.4355  0.9780
  237MOL0     H31928   9.443   8.193   2.843  2.8642  1.4085 -1.9015
  237MOL0     H31929   9.501   8.398   2.945 -0.9928 -0.2557  3.0503
  237MOL0     H31930   9.860   8.389   3.251 -1.0943 -1.3616 -0.4458
  237MOL0     H31931   9.910   8.441   3.092  1.9334 -0.9085  1.7732
  237MOL0     H31932   9.847   8.677   3.139 -1.3202 -1.4336 -0.6381
  237MOL0     H31933   9.973   8.602   3.236  0.4725  0.6752  1.2015
  237MOL0     H31934   9.843   8.718   3.400  1.7047 -1.4799  1.1154
  237MOL0     H31935   9.760   8.567   3.405 -0.3308  0.3135 -1.3387
  237MOL0     H31936   9.670   8.778   3.201 -3.3235 -0.6651 -0.0127
  237MOL0     H31937   9.576   8.646   3.266 -2.3094  1.1508  2.0543
  237MOL0     H31938   9.541   8.770   3.469 -1.3949  0.1978 -0.5002
  237MOL0     H31939   9.690   8.865   3.436  0.4972 -0.6410 -0.1051
  237MOL0     H31940   9.572   8.967   3.237  3.7233  0.0597  2.1741
  237MOL0     H31941   9.437   8.861   3.284  2.4223 -4.7164  0.6318
  237MOL0     H31942   9.544   9.076   3.465 -0.4559  3.7869 -1.7043
  237MOL0     H31943   9.414   8.975   3.497  3.3362 -0.4184  1.7730
  237MOL0     H31944   9.360   9.214   3.402 -0.5820 -0.1611 -0.6486
  237MOL0     H31945   9.455   9.182   3.261 -1.6822  2.5415 -1.5406
  237MOL0     H31946   9.111   9.058   3.425  2.1677  2.3626  1.0099
  237MOL0     H31947   8.882   8.971   3.285 -0.5968  0.6551 -0.2495
  237MOL0     H31948   8.914   8.903   3.119 -0.3553 -0.5775  0.5007
  237MOL0     H31949   9.031   8.720   3.235  3.1540  3.0942  2.4756
  237MOL0     H31950   8.997   8.797   3.390  0.5993 -1.9814  1.2969
  237MOL0     H31951   8.793   8.672   3.185  0.3898  1.0580 -0.3869
  237MOL0     H31952   8.747   8.737   3.343  0.4082  0.1203  0.8294
  237MOL0     H31953   8.950   8.530   3.270  0.3176  2.6512 -1.4653
  237MOL0     H31954   8.790   8.475   3.284  3.5538 -1.3477 -1.4347
  237MOL0     H31955   8.884   8.493   3.724 -0.8625 -1.8976 -1.6046
  237MOL0     H31956   9.092   8.457   3.846  2.6123  1.6469  0.0399
  237MOL0     H31957   9.544   8.348   3.920  2.4925 -0.5568  0.6651
  237MOL0     H31958   9.737   8.350   4.030  0.2681 -0.8975 -0.0629
  237MOL0     H31959  10.067   8.483   3.768  0.3478 -1.5457  0.3832
  237MOL0     H31960  10.091   8.639   3.851 -2.4617  0.2205 -1.0711
  237MOL0     H31961  10.200   8.368   3.886 -0.3881  0.5867 -1.0220
  237MOL0     H31962  10.294   8.524   3.880  1.0337 -1.8106 -1.1347
  237MOL0     H31963  10.332   8.478   4.105  0.5191 -0.7704  0.5211
  237MOL0     H31964  10.170   8.555   4.114  1.4450  1.7848 -4.1705
  237MOL0     H31965  10.200   8.250   4.090 -0.7104  1.0576 -1.5151
  237MOL0     H31966  10.059   8.338   4.138 -0.2342  2.9607  0.4360
  237MOL0     H31967  10.167   8.433   4.329  1.3242  1.0462  0.1001
  237MOL0     H31968  10.311   8.344   4.294  0.3632  0.8340  0.8635
  237MOL0     H31969  10.053   8.225   4.358 -1.1066 -1.1572  2.1778
  237MOL0     H31970  10.198   8.127   4.310  1.9565  1.3085 -0.9898
  237MOL0     H31971  10.327   8.241   4.517  1.0020  0.9893 -0.4192
  237MOL0     H31972  10.221   8.113   4.546 -0.2533  2.6231  3.3295
  237MOL0     H31973  10.124   8.395   4.548  0.5618 -0.0891 -0.8312
  237MOL0     H31974  10.017   8.266   4.581  0.8865 -0.8872 -2.2776
  237MOL0     H31975   9.882   8.671   3.769 -0.6093  1.3726  0.3192
  237MOL0     H31976   9.675   8.655   3.649 -0.6501  2.7642  1.8185
  237MOL0     H31977   9.313   8.508   3.488  0.6066  0.3030  0.6728
  237MOL0     H31978   9.128   8.548   3.369  2.7322 -0.7499 -0.3041
  237MOL0     H31979   9.772   8.197   3.220  2.4205 -0.1809  0.0380
  237MOL0     H31980   9.687   7.986   3.119 -0.9374 -1.1475 -2.4280
  237MOL0     H31981   9.689   7.679   2.757 -0.8190  4.0627  2.0664
  237MOL0     H31982   9.608   7.457   2.688  0.0517 -0.4405 -0.0440
  237MOL0     H31983   9.184   7.422   2.722  0.4683  0.2615 -2.2803
  237MOL0     H31984   9.183   7.285   2.828  0.8765  1.7696  0.8316
  237MOL0     H31985   9.112   7.196   2.619  0.3563 -0.9166 -1.5708
  237MOL0     H31986   9.285   7.145   2.635 -0.2364 -0.6351  3.3836
  237MOL0     H31987   9.242   7.215   2.395 -0.0333 -0.4046  0.7361
  237MOL0     H31988   9.373   7.281   2.473  0.0175  0.3084 -1.9020
  237MOL0     H31989   9.277   7.498   2.507  2.2805 -0.2508 -1.5760
  237MOL0     H31990   9.247   7.455   2.349 -1.2443  2.5962  1.1580
  237MOL0     H31991   8.850   7.475   2.455 -0.4000  0.4220 -0.6156
  237MOL0     H31992   9.252   7.523   2.923 -0.4904  0.7712 -0.2884
  237MOL0     H31993   9.194   7.715   3.005  0.6957 -0.6886  0.0059
  237MOL0     H31994   9.325   7.814   3.076 -0.0912  0.3748  1.0277
  237MOL0     H31995   9.256   7.858   2.921  0.3492 -1.3951 -0.1674
  238MOL0     O31996  10.091   3.132   7.113  0.0138 -0.0715  0.0404
  238MOL0     C31997  10.015   3.116   7.211  1.1151  0.1094  0.0868
  238MOL0     O31998  10.060   3.097   7.341  0.2624 -0.2165  0.6941
  238MOL0     C31999  10.191   3.064   7.367  0.0709  0.4248  0.4879
  238MOL0     C32000  10.268   3.154   7.432  0.3512  0.3911  0.5025
  238MOL0     C32001  10.392   3.118   7.470 -0.7375 -0.0197 -0.1031
  238MOL0     C32002  10.433   2.984   7.452  1.2066  0.0743 -0.1192
  238MOL0     O32003  10.559   2.938   7.485  0.2461 -0.1406  0.4108
  238MOL0     C32004  10.674   3.025   7.482  0.4096 -0.2304 -0.0326
  238MOL0     C32005  10.790   2.945   7.442  0.5970  0.4627 -0.7300
  238MOL0     C32006  10.849   2.855   7.552  0.0665  0.1205 -0.1044
  238MOL0     C32007  10.980   2.794   7.505  0.3301 -0.0710  0.2597
  238MOL0     C32008  11.050   2.702   7.615  0.4529  0.4779 -1.1580
  238MOL0     C32009  11.194   2.690   7.566  0.6127  0.3442  0.7633
  238MOL0     C32010  11.297   2.658   7.680 -0.0176 -0.0193  0.6677
  238MOL0     C32011  11.439   2.682   7.641 -0.0941  0.0087  0.3406
  238MOL0     N32012  11.535   2.674   7.755  0.0093 -0.0425 -0.4216
  238MOL0     C32013  11.619   2.772   7.802 -0.2991 -0.1565  1.3008
  238MOL0     C32014  11.685   2.711   7.901 -0.4147 -0.5171 -0.9166
  238MOL0     C32015  11.798   2.756   7.990 -0.4651  0.5886  0.3383
  238MOL0     C32016  11.934   2.738   7.916  1.6444 -0.3030 -1.0258
  238MOL0     C32017  11.974   2.596   7.895  0.4251 -0.4989 -0.2247
  238MOL0     C32018  12.104   2.577   7.814  0.2107  0.2370  0.3164
  238MOL0     O32019  12.127   2.434   7.833 -0.1060  0.4366  0.1009
  238MOL0     C32020  12.258   2.386   7.802  0.5114  1.2499 -0.8223
  238MOL0     C32021  12.306   2.278   7.879 -0.3697 -0.3548  0.2803
  238MOL0     C32022  12.442   2.239   7.870  0.0187 -0.2273 -0.3629
  238MOL0     C32023  12.525   2.278   7.766  0.6617  0.5144  0.1590
  238MOL0     C32024  12.669   2.226   7.753  0.1027  0.2552 -0.5894
  238MOL0     O32025  12.729   2.191   7.865 -0.3942  0.1561 -0.1913
  238MOL0     C32026  12.858   2.137   7.856  0.3244  0.3014  0.1583
  238MOL0     C32027  12.949   2.179   7.947 -0.1017 -0.7142  0.6930
  238MOL0     C32028  13.081   2.110   7.955  0.4364 -0.6174 -0.0099
  238MOL0     C32029  13.118   2.020   7.866 -0.5602 -0.3035  0.4086
  238MOL0     O32030  13.252   1.978   7.848 -0.0864 -0.4034 -0.4933
  238MOL0     C32031  13.341   1.994   7.969 -1.0095  0.2228 -0.7808
  238MOL0     C32032  13.470   1.907   7.947 -0.0080  0.2150  0.0979
  238MOL0     C32033  13.548   1.950   7.824 -0.7639  0.2695 -0.6313
  238MOL0     C32034  13.655   1.841   7.786 -0.2169  0.5941 -0.0913
  238MOL0     C32035  13.771   1.904   7.708  1.1857 -0.1052 -1.0033
  238MOL0     C32036  13.867   1.985   7.795 -0.2591  0.0738  0.1075
  238MOL0     C32037  13.964   1.900   7.870 -0.1432  0.1549 -0.7788
  238MOL0     C32038  14.086   1.985   7.909  0.2355 -0.3143 -0.1967
  238MOL0    Cl32039  14.162   1.916   8.058 -0.7000 -0.6602 -0.1774
  238MOL0     C32040  13.027   1.991   7.762 -0.5682  0.2760 -0.1521
  238MOL0     C32041  12.902   2.046   7.758  0.2084  0.1379 -0.2818
  238MOL0     O32042  12.721   2.244   7.643 -0.3966  0.5654 -0.3140
  238MOL0     C32043  12.471   2.373   7.677  0.7587  1.2459  0.2826
  238MOL0     C32044  12.344   2.427   7.702  0.5553  0.2525  0.3674
  238MOL0     N32045  11.644   2.577   7.911  0.2817 -0.3593  0.5368
  238MOL0     N32046  11.554   2.554   7.820  0.1087 -0.1329 -0.1909
  238MOL0     C32047  10.355   2.894   7.385  0.8190 -0.2920  0.1751
  238MOL0     C32048  10.232   2.934   7.347 -0.2150 -0.3678  0.7039
  238MOL0     C32049   9.868   3.120   7.197  0.0651 -1.3029 -0.3651
  238MOL0     C32050   9.795   3.061   7.300 -0.2014 -0.9596 -0.5740
  238MOL0     C32051   9.656   3.070   7.309  0.5864  1.4621 -0.2927
  238MOL0     C32052   9.591   3.150   7.215 -0.9482 -0.3334 -0.7683
  238MOL0     O32053   9.460   3.178   7.210  0.1192 -0.0573 -0.2052
  238MOL0     C32054   9.374   3.140   7.318  0.9937  0.5706  0.0940
  238MOL0     C32055   9.241   3.205   7.302  0.5202 -0.9377  0.4325
  238MOL0     C32056   9.228   3.363   7.295  0.5035 -1.1741 -0.7405
  238MOL0     C32057   9.109   3.413   7.386 -0.4716 -0.3926 -0.1990
  238MOL0     C32058   8.990   3.397   7.297  0.4881  0.2604 -0.9519
  238MOL0     C32059   8.899   3.400   7.223 -0.4262 -0.6777  0.2938
  238MOL0     C32060   9.658   3.205   7.108 -0.1853 -0.2032  0.2426
  238MOL0     C32061   9.797   3.189   7.096  0.5149 -0.1595  0.6343
  238MOL0     C32062   9.858   3.260   6.969  0.7617  0.1563 -0.3174
  238MOL0     H32063  10.241   3.259   7.441 -1.7093 -0.0417 -0.1129
  238MOL0     H32064  10.467   3.183   7.514 -0.3723 -1.3792  1.3420
  238MOL0     H32065  10.656   3.104   7.409 -0.9328  1.7817  2.3238
  238MOL0     H32066  10.697   3.070   7.579  2.1141 -2.0436  0.4582
  238MOL0     H32067  10.865   3.017   7.409  2.1867  0.2186  2.0625
  238MOL0     H32068  10.760   2.885   7.356 -1.1242 -0.1743  0.2686
  238MOL0     H32069  10.773   2.778   7.570 -1.0425  0.9824 -0.9586
  238MOL0     H32070  10.870   2.908   7.646  0.6261  0.2298 -0.2859
  238MOL0     H32071  10.948   2.730   7.423  0.7471 -0.3297  0.2930
  238MOL0     H32072  11.054   2.868   7.472  0.4377  0.1112  0.8945
  238MOL0     H32073  11.043   2.772   7.699  1.4348  0.1452 -0.7820
  238MOL0     H32074  11.001   2.610   7.646  0.6306  0.8712  0.3726
  238MOL0     H32075  11.203   2.617   7.485  0.9894 -0.5334  1.5745
  238MOL0     H32076  11.217   2.792   7.532 -0.1075 -0.8499 -4.0301
  238MOL0     H32077  11.287   2.553   7.709  1.2084 -0.0161  1.1516
  238MOL0     H32078  11.267   2.729   7.759  0.2571  3.2036 -1.9095
  238MOL0     H32079  11.470   2.599   7.578 -2.7565 -0.9599  0.1926
  238MOL0     H32080  11.457   2.779   7.594  0.6886  0.4534  1.5080
  238MOL0     H32081  11.623   2.864   7.743 -1.5313 -1.7365 -1.4754
  238MOL0     H32082  11.792   2.863   8.011  2.6408  0.5257  2.1895
  238MOL0     H32083  11.802   2.697   8.082 -0.5864 -0.0729 -0.0740
  238MOL0     H32084  11.927   2.795   7.822 -1.2212 -1.0504 -1.3440
  238MOL0     H32085  12.004   2.791   7.981  0.9763 -1.6753  0.8975
  238MOL0     H32086  11.888   2.551   7.845 -2.1035  1.6038  1.9684
  238MOL0     H32087  11.972   2.560   7.998 -1.6611  2.6952  1.0033
  238MOL0     H32088  12.187   2.636   7.854 -2.1400  2.3345  2.3923
  238MOL0     H32089  12.071   2.609   7.715 -2.1182 -1.9872  0.2618
  238MOL0     H32090  12.247   2.244   7.963  0.3578  0.1525  1.0099
  238MOL0     H32091  12.473   2.171   7.949 -0.7273  0.6599  0.7069
  238MOL0     H32092  12.928   2.271   8.000  1.1394  0.8464 -1.3515
  238MOL0     H32093  13.144   2.152   8.033 -2.0337  0.2708  1.6478
  238MOL0     H32094  13.372   2.098   7.981  2.1055 -0.5613 -1.1918
  238MOL0     H32095  13.281   1.959   8.054 -0.1083  1.2749  0.3040
  238MOL0     H32096  13.534   1.913   8.035 -2.8174  2.9549  2.1785
  238MOL0     H32097  13.439   1.803   7.935 -0.1914  0.1178  1.3240
  238MOL0     H32098  13.495   1.990   7.737 -1.0404 -1.4326 -1.2915
  238MOL0     H32099  13.594   2.043   7.858 -2.6181  1.6980 -1.8277
  238MOL0     H32100  13.598   1.767   7.729  1.4505  1.0009 -2.4899
  238MOL0     H32101  13.694   1.794   7.876 -3.8926  2.8903  2.9780
  238MOL0     H32102  13.734   1.966   7.626  0.7958  1.7304  0.4786
  238MOL0     H32103  13.830   1.825   7.661 -0.2965 -0.4948 -2.2879
  238MOL0     H32104  13.920   2.042   7.718 -3.3128  2.2429 -0.5986
  238MOL0     H32105  13.813   2.059   7.856  0.0412  0.7127 -0.3861
  238MOL0     H32106  14.002   1.818   7.808  0.6985  0.9218 -1.3171
  238MOL0     H32107  13.927   1.859   7.964  0.6236  1.5761  0.1830
  238MOL0     H32108  14.156   2.000   7.826 -0.3819  0.8387 -0.5310
  238MOL0     H32109  14.032   2.077   7.933 -2.5020 -2.2076  1.5886
  238MOL0     H32110  13.062   1.922   7.686 -3.7251 -2.9305  1.0230
  238MOL0     H32111  12.824   2.012   7.689  0.9567 -0.3333 -0.9090
  238MOL0     H32112  12.521   2.401   7.585 -0.5863  3.1581  0.0678
  238MOL0     H32113  12.321   2.500   7.625 -0.6401  0.7308  1.1421
  238MOL0     H32114  10.374   2.789   7.364 -1.0406 -0.3544 -1.5428
  238MOL0     H32115  10.166   2.861   7.302 -0.6368 -0.8621  2.0669
  238MOL0     H32116   9.833   2.991   7.374 -2.2646 -0.9204  0.6212
  238MOL0     H32117   9.602   3.005   7.378  1.1048  1.7339  0.3705
  238MOL0     H32118   9.414   3.169   7.415 -0.5232 -2.5280  1.8132
  238MOL0     H32119   9.364   3.031   7.313  0.5076  0.4096  2.9919
  238MOL0     H32120   9.170   3.149   7.365  0.1734 -1.9500 -0.8183
  238MOL0     H32121   9.201   3.173   7.205 -3.9338 -1.6354  2.2393
  238MOL0     H32122   9.217   3.401   7.193  3.5999  0.4269 -0.6086
  238MOL0     H32123   9.321   3.402   7.338 -1.8567  1.3962  2.5323
  238MOL0     H32124   9.102   3.348   7.474  0.3737 -2.9725 -1.9505
  238MOL0     H32125   9.119   3.519   7.414 -1.1770 -0.3378 -0.1398
  238MOL0     H32126   8.823   3.405   7.149 -0.5222 -0.6192  0.3966
  238MOL0     H32127   9.601   3.275   7.047  0.8818  0.9161  0.4965
  238MOL0     H32128   9.923   3.194   6.911  1.1295 -0.1200  0.4004
  238MOL0     H32129   9.783   3.308   6.906  1.6000  1.9693  0.0038
  238MOL0     H32130   9.933   3.334   6.999 -1.8312  2.7510  0.2230
  239MOL0     O32131   5.025   7.824  10.536  0.5324 -0.3752  0.8352
  239MOL0     C32132   4.984   7.746  10.624  0.3767 -0.4040  0.4596
  239MOL0     O32133   4.899   7.790  10.724 -0.1651  0.6288  0.2664
  239MOL0     C32134   4.864   7.916  10.745 -0.3276 -0.4803  0.8101
  239MOL0     C32135   4.762   7.918  10.830 -0.0446 -0.7394 -1.3938
  239MOL0     C32136   4.708   8.048  10.877  0.0800  0.3032  0.1120
  239MOL0     C32137   4.754   8.162  10.826 -0.1811  0.7825 -0.1657
  239MOL0     O32138   4.683   8.275  10.844 -0.5688  0.2124  0.4777
  239MOL0     C32139   4.563   8.291  10.765  0.7430  0.3336 -0.0236
  239MOL0     C32140   4.503   8.416  10.826  0.0133  0.4534 -0.1193
  239MOL0     C32141   4.370   8.458  10.761 -0.6131  0.1225 -0.3718
  239MOL0     C32142   4.245   8.415  10.829 -0.6364  0.2132 -0.5268
  239MOL0     C32143   4.119   8.427  10.748  0.5756  0.3081  0.1410
  239MOL0     C32144   3.991   8.395  10.820 -0.5033 -1.2472  0.8081
  239MOL0     C32145   3.964   8.256  10.865 -0.0581 -0.2941  0.1432
  239MOL0     C32146   3.829   8.239  10.907  0.5463  0.2009  0.0837
  239MOL0     N32147   3.828   8.243  11.053 -0.3500 -0.6365 -0.1603
  239MOL0     C32148   3.777   8.148  11.137 -0.5764 -0.1354  0.5470
  239MOL0     C32149   3.819   8.175  11.254 -0.8873  0.1308 -0.4054
  239MOL0     C32150   3.786   8.117  11.386  0.2384  0.1758 -0.3537
  239MOL0     C32151   3.905   8.122  11.482 -0.5058  0.0269  0.6511
  239MOL0     C32152   4.021   8.037  11.433  0.7714  0.5296 -0.7088
  239MOL0     C32153   4.118   8.025  11.552  0.7751  0.0662 -0.2366
  239MOL0     O32154   4.176   8.151  11.579 -0.1072 -0.6403 -0.5119
  239MOL0     C32155   4.294   8.124  11.646 -1.0361  0.1230  0.8773
  239MOL0     C32156   4.309   8.092  11.776 -0.7728 -0.1596 -0.2356
  239MOL0     C32157   4.422   8.107  11.856  0.2490  0.2011 -0.3313
  239MOL0     C32158   4.540   8.148  11.791 -0.1493 -0.1272 -0.7386
  239MOL0     C32159   4.662   8.170  11.862  0.1352 -1.1432  0.7215
  239MOL0     O32160   4.771   8.159  11.779 -0.0017 -0.2683  0.2076
  239MOL0     C32161   4.886   8.203  11.835  0.0991  0.2317 -0.9275
  239MOL0     C32162   4.992   8.121  11.826  0.4298  0.0035 -0.1343
  239MOL0     C32163   5.113   8.162  11.884 -0.4123  0.2694  0.3341
  239MOL0     C32164   5.118   8.278  11.969 -0.3046 -0.2691  1.3948
  239MOL0     O32165   5.233   8.304  12.031  0.0862  0.4646  0.3201
  239MOL0     C32166   5.234   8.400  12.140 -0.7493  0.6137 -0.9419
  239MOL0     C32167   5.382   8.405  12.192 -1.0544  0.3672  0.0837
  239MOL0     C32168   5.414   8.264  12.255  0.2469 -0.8796 -0.0103
  239MOL0     C32169   5.566   8.241  12.285 -1.0161 -0.2919 -0.0992
  239MOL0     C32170   5.584   8.128  12.386 -0.3933  0.3425 -0.1458
  239MOL0     C32171   5.733   8.113  12.423  0.2832 -0.3648 -0.1391
  239MOL0     C32172   5.782   8.220  12.519 -0.0694 -0.0801  0.1580
  239MOL0     C32173   5.921   8.181  12.585  0.1251  0.4840 -0.2803
  239MOL0    Cl32174   6.052   8.168  12.460 -0.2615  0.0172  0.0344
  239MOL0     C32175   5.007   8.361  11.971 -0.8114  0.3728 -0.1534
  239MOL0     C32176   4.900   8.326  11.897 -0.4077 -0.4371  0.0576
  239MOL0     O32177   4.659   8.187  11.981 -0.2184  0.0177 -0.3262
  239MOL0     C32178   4.527   8.198  11.664  0.2456 -0.4587  0.4773
  239MOL0     C32179   4.410   8.180  11.591 -0.9350  0.5504  0.1970
  239MOL0     N32180   3.892   8.291  11.254 -0.4078 -0.0787 -0.2844
  239MOL0     N32181   3.894   8.331  11.130 -0.9501 -0.9580 -0.1499
  239MOL0     C32182   4.852   8.162  10.731  0.1469 -0.8805  0.6984
  239MOL0     C32183   4.910   8.040  10.687 -0.4863 -0.1175  0.0564
  239MOL0     C32184   5.027   7.603  10.611 -0.1264 -0.2442 -0.5191
  239MOL0     C32185   5.023   7.553  10.480 -0.0250 -0.0202 -0.2528
  239MOL0     C32186   5.055   7.418  10.454 -0.3551 -0.1675 -0.9203
  239MOL0     C32187   5.077   7.326  10.559 -0.2362  0.5444 -0.1223
  239MOL0     O32188   5.098   7.188  10.541  0.1471 -0.1120 -0.7498
  239MOL0     C32189   5.067   7.122  10.418  0.5428 -0.0950  0.1839
  239MOL0     C32190   4.917   7.131  10.376 -0.1045  0.2189 -0.3970
  239MOL0     C32191   4.899   7.036  10.256 -0.0092  0.3735 -0.1553
  239MOL0     C32192   4.752   7.017  10.226  0.7918 -0.3015 -0.4976
  239MOL0     C32193   4.675   6.960  10.331  0.7278 -0.4134 -0.0182
  239MOL0     C32194   4.612   6.901  10.421  1.1514  0.1055 -0.7575
  239MOL0     C32195   5.067   7.373  10.688  0.4675 -0.3143 -0.6386
  239MOL0     C32196   5.051   7.510  10.722  1.0795  0.7892 -0.7214
  239MOL0     C32197   5.053   7.560  10.856  0.3070  0.2048 -0.0384
  239MOL0     H32198   4.716   7.827  10.866  2.4316 -0.8412  2.0582
  239MOL0     H32199   4.615   8.058  10.932  0.2855  1.5124  0.2642
  239MOL0     H32200   4.582   8.296  10.657 -0.6362  0.6361 -0.2641
  239MOL0     H32201   4.486   8.217  10.786 -0.0561  1.5171  1.3827
  239MOL0     H32202   4.576   8.495  10.808 -1.0326  1.0743 -1.9771
  239MOL0     H32203   4.488   8.403  10.933  1.3584  0.4080  0.0799
  239MOL0     H32204   4.367   8.429  10.656  0.3058  0.7465 -0.5825
  239MOL0     H32205   4.370   8.567  10.756  2.4361  0.2891  1.0902
  239MOL0     H32206   4.256   8.308  10.847 -1.4147 -0.8878 -5.1776
  239MOL0     H32207   4.227   8.460  10.927  0.0646 -2.6322  1.0090
  239MOL0     H32208   4.116   8.531  10.713 -0.1845  1.0931  2.3387
  239MOL0     H32209   4.125   8.355  10.666 -1.7509 -0.5123  0.6191
  239MOL0     H32210   3.979   8.456  10.910 -0.8664  1.1894 -0.8004
  239MOL0     H32211   3.913   8.419  10.748  0.3630 -2.8211 -0.7261
  239MOL0     H32212   4.053   8.232  10.923  1.9933  4.3767 -0.5845
  239MOL0     H32213   3.973   8.193  10.775 -0.0622 -0.6628  0.3994
  239MOL0     H32214   3.763   8.311  10.858  1.9787  0.3621 -1.6968
  239MOL0     H32215   3.795   8.139  10.876 -1.0649  0.3712  1.1679
  239MOL0     H32216   3.693   8.082  11.116 -1.6352  1.4814 -0.6109
  239MOL0     H32217   3.699   8.161  11.436  1.1300  0.3797  1.0645
  239MOL0     H32218   3.750   8.015  11.371  1.2559 -0.1873 -0.3881
  239MOL0     H32219   3.928   8.228  11.500  1.6870 -0.7106  2.6086
  239MOL0     H32220   3.862   8.075  11.571 -1.4627  0.5089  0.4518
  239MOL0     H32221   4.070   8.082  11.346 -0.4179  1.7120 -0.7982
  239MOL0     H32222   3.984   7.937  11.408 -0.3966  0.4941  1.0061
  239MOL0     H32223   4.193   7.947  11.535  2.8766  1.5404  1.5995
  239MOL0     H32224   4.063   8.003  11.643  4.7031  2.9652  3.2557
  239MOL0     H32225   4.222   8.052  11.825 -0.7346 -0.1948 -0.1969
  239MOL0     H32226   4.411   8.075  11.959 -0.2191 -0.2557 -0.5239
  239MOL0     H32227   4.994   8.022  11.782 -3.4285 -0.7587  1.0433
  239MOL0     H32228   5.202   8.099  11.878 -1.8957 -2.0390  1.1890
  239MOL0     H32229   5.213   8.495  12.091  2.7709  2.5260  0.9044
  239MOL0     H32230   5.162   8.377  12.219 -0.3485  2.2400 -0.0718
  239MOL0     H32231   5.441   8.415  12.101 -0.1870  0.5289  0.6535
  239MOL0     H32232   5.399   8.483  12.267 -1.8462 -0.9881  1.7286
  239MOL0     H32233   5.351   8.254  12.344  1.4640  1.1929  1.1652
  239MOL0     H32234   5.373   8.186  12.191 -0.7137  0.6479 -1.3319
  239MOL0     H32235   5.610   8.334  12.323  0.6098 -1.3566  0.7219
  239MOL0     H32236   5.621   8.210  12.196 -0.0963  1.9786 -0.3864
  239MOL0     H32237   5.549   8.036  12.340  1.2721 -0.8829  0.8943
  239MOL0     H32238   5.520   8.143  12.474  0.3002  0.3371  0.3748
  239MOL0     H32239   5.736   8.019  12.479 -2.4826 -0.3817  0.1251
  239MOL0     H32240   5.801   8.103  12.338 -0.7158  2.5199 -1.3957
  239MOL0     H32241   5.705   8.236  12.595 -0.8242 -2.2063 -0.0665
  239MOL0     H32242   5.807   8.312  12.466 -2.6036  1.5617  1.6140
  239MOL0     H32243   5.939   8.256  12.663 -4.2390 -1.6613  3.2794
  239MOL0     H32244   5.921   8.086  12.638  1.3024 -0.1465 -1.3709
  239MOL0     H32245   4.989   8.455  12.021  3.5250  0.9633  0.6935
  239MOL0     H32246   4.816   8.395  11.902 -1.3393 -1.6400  3.4118
  239MOL0     H32247   4.595   8.273  11.624 -1.4733  1.8463  1.6582
  239MOL0     H32248   4.412   8.225  11.492 -0.6891  1.1616  0.4744
  239MOL0     H32249   4.877   8.256  10.682 -0.5355  0.3497  2.5919
  239MOL0     H32250   5.003   8.054  10.632  0.5510  2.4125  2.1945
  239MOL0     H32251   5.014   7.623  10.398  3.1577 -0.4841 -1.1535
  239MOL0     H32252   5.061   7.379  10.353 -2.3604 -1.0437 -0.7450
  239MOL0     H32253   5.088   7.017  10.436  0.2856 -0.1795 -0.0016
  239MOL0     H32254   5.129   7.170  10.341 -0.0182  1.4349  0.6481
  239MOL0     H32255   4.880   7.232  10.355 -3.3378 -0.6541  0.4682
  239MOL0     H32256   4.857   7.099  10.461  2.3642  0.0815  1.4066
  239MOL0     H32257   4.947   6.939  10.273 -0.7418 -0.0527 -0.4434
  239MOL0     H32258   4.951   7.089  10.176 -0.9646  0.3973 -0.7859
  239MOL0     H32259   4.706   7.112  10.197  0.0647 -0.4083  0.2676
  239MOL0     H32260   4.746   6.946  10.143 -0.5779 -0.6825 -0.1023
  239MOL0     H32261   4.565   6.844  10.499 -0.0709  2.7658  0.6069
  239MOL0     H32262   5.069   7.300  10.768  1.8798 -0.6391 -0.9418
  239MOL0     H32263   5.103   7.654  10.882  0.3440 -0.5412  2.9385
  239MOL0     H32264   4.953   7.562  10.902  1.1899 -2.8596  2.3339
  239MOL0     H32265   5.111   7.494  10.921 -0.6891  0.3279  1.0180
  240MOL0     O32266   9.544   0.490   8.636  0.5883  0.5898 -0.2872
  240MOL0     C32267   9.655   0.438   8.612 -0.6499 -0.3034 -0.1305
  240MOL0     O32268   9.687   0.361   8.497  0.4566 -0.6467  0.0394
  240MOL0     C32269   9.597   0.359   8.398  0.5808  0.5459  0.0307
  240MOL0     C32270   9.515   0.459   8.346  0.0453  0.3815 -0.1944
  240MOL0     C32271   9.439   0.446   8.231  0.3270  0.2974  0.4640
  240MOL0     C32272   9.439   0.319   8.165  0.1770  0.7100 -0.8501
  240MOL0     O32273   9.356   0.294   8.067 -0.1438  0.0361  0.6308
  240MOL0     C32274   9.406   0.250   7.939  0.3061  0.0408 -0.1948
  240MOL0     C32275   9.538   0.323   7.893  0.1804 -0.2313 -0.5138
  240MOL0     C32276   9.550   0.473   7.906  0.3624 -0.3232 -0.2126
  240MOL0     C32277   9.668   0.542   7.829  0.6056  0.4695  0.1246
  240MOL0     C32278   9.656   0.690   7.829  0.0452 -0.2350 -0.5949
  240MOL0     C32279   9.753   0.765   7.740  0.2088  0.5504  0.0020
  240MOL0     C32280   9.890   0.755   7.811 -0.4636 -0.1189 -0.5137
  240MOL0     C32281   9.995   0.848   7.741  0.8260 -0.1790  0.5235
  240MOL0     N32282  10.000   0.981   7.801  0.8280 -0.0571 -0.1521
  240MOL0     C32283  10.109   1.035   7.864  0.5783  0.2970  0.6441
  240MOL0     C32284  10.060   1.149   7.916  1.1486  1.2249 -0.3919
  240MOL0     C32285  10.134   1.236   8.014  0.6060  0.2348 -1.1808
  240MOL0     C32286  10.168   1.372   7.971  0.1143 -0.2853 -0.3244
  240MOL0     C32287  10.275   1.371   7.859 -0.3320 -0.8263  0.8307
  240MOL0     C32288  10.422   1.329   7.892 -0.1950  0.2680  0.7396
  240MOL0     O32289  10.464   1.399   8.012  0.6437  0.1535  1.1050
  240MOL0     C32290  10.581   1.365   8.066 -0.5442 -0.6258 -0.1892
  240MOL0     C32291  10.643   1.243   8.048 -0.3691  0.3921 -0.0800
  240MOL0     C32292  10.750   1.209   8.124  0.3373  0.4606 -0.0811
  240MOL0     C32293  10.800   1.293   8.218  0.4346  0.1661 -0.7219
  240MOL0     C32294  10.928   1.263   8.285 -0.5220  1.0359 -0.1593
  240MOL0     O32295  11.013   1.177   8.227 -0.2427  0.4543 -0.2931
  240MOL0     C32296  11.124   1.131   8.299  0.0010 -0.0920 -0.1935
  240MOL0     C32297  11.223   1.209   8.361 -0.1510 -0.0758 -0.5822
  240MOL0     C32298  11.339   1.157   8.413 -0.6705  0.6082  0.6173
  240MOL0     C32299  11.364   1.017   8.401  0.5360  0.0838 -0.2428
  240MOL0     O32300  11.483   0.966   8.446 -1.1319 -0.3264 -0.8415
  240MOL0     C32301  11.468   0.847   8.540  0.0875  0.4126  0.2801
  240MOL0     C32302  11.604   0.782   8.538  0.8848 -0.2981 -0.5540
  240MOL0     C32303  11.713   0.870   8.592 -0.8545  1.2471  0.5245
  240MOL0     C32304  11.855   0.808   8.593  0.4134 -0.3908 -0.2788
  240MOL0     C32305  11.960   0.911   8.633  1.3694 -0.8035 -0.0212
  240MOL0     C32306  12.101   0.862   8.671 -0.4495  0.6692 -0.2885
  240MOL0     C32307  12.193   0.979   8.727  0.1141 -0.4229 -0.5159
  240MOL0     C32308  12.271   0.935   8.848  0.4334  0.5497  0.9500
  240MOL0    Cl32309  12.341   1.087   8.921 -0.6427  0.4510 -0.3810
  240MOL0     C32310  11.274   0.939   8.327  0.8291 -0.2831 -0.0599
  240MOL0     C32311  11.154   0.998   8.283  0.9663  0.4238  0.0110
  240MOL0     O32312  10.962   1.329   8.379  0.2102 -0.0206 -0.3453
  240MOL0     C32313  10.745   1.423   8.235  0.3444 -0.1041 -0.2715
  240MOL0     C32314  10.635   1.461   8.165  0.6950  0.1547  0.1551
  240MOL0     N32315   9.927   1.159   7.886  0.0806 -0.9251  0.1967
  240MOL0     N32316   9.889   1.053   7.827  0.5444 -0.9395  1.0648
  240MOL0     C32317   9.524   0.218   8.211 -0.7718 -0.8415 -0.6825
  240MOL0     C32318   9.599   0.236   8.329 -0.1935 -0.3549  0.2748
  240MOL0     C32319   9.767   0.445   8.714  0.1883  1.0040 -0.0090
  240MOL0     C32320   9.809   0.577   8.736  0.2614 -0.3724  0.2832
  240MOL0     C32321   9.910   0.606   8.823 -0.1557  0.4733 -0.4023
  240MOL0     C32322   9.978   0.504   8.887 -0.6023 -0.2264  0.4895
  240MOL0     O32323  10.088   0.533   8.964  0.0306  1.0624  0.2465
  240MOL0     C32324  10.200   0.612   8.917  0.4073  0.4086  0.5561
  240MOL0     C32325  10.279   0.653   9.040 -0.4255  0.9728 -0.3497
  240MOL0     C32326  10.431   0.664   9.013 -0.4126 -0.5591 -0.1643
  240MOL0     C32327  10.501   0.763   9.109  1.0106  0.5074 -0.2830
  240MOL0     C32328  10.456   0.894   9.073 -0.2323  0.4229 -0.2268
  240MOL0     C32329  10.409   1.000   9.034  0.3089 -0.9160 -0.1739
  240MOL0     C32330   9.939   0.372   8.866  0.5753 -0.0817 -1.0326
  240MOL0     C32331   9.840   0.337   8.775  0.7528  0.2754  0.0472
  240MOL0     C32332   9.796   0.197   8.738  0.1233  0.1183 -0.8245
  240MOL0     H32333   9.520   0.557   8.393 -0.9450 -1.1014  3.3157
  240MOL0     H32334   9.383   0.532   8.195  0.0004  0.1399  0.5825
  240MOL0     H32335   9.411   0.141   7.941 -2.3718 -0.2165 -1.7774
  240MOL0     H32336   9.322   0.267   7.871 -0.2993  1.6510  0.8723
  240MOL0     H32337   9.546   0.299   7.787  0.5986  0.6121 -0.6810
  240MOL0     H32338   9.625   0.268   7.929  1.4501  2.4096  0.6950
  240MOL0     H32339   9.562   0.493   8.013 -2.1855 -1.9616  0.4816
  240MOL0     H32340   9.451   0.510   7.876 -0.2737 -2.6922 -1.1865
  240MOL0     H32341   9.767   0.520   7.870  0.3640  0.3773  0.6701
  240MOL0     H32342   9.669   0.510   7.724  2.5313 -0.9019  0.5072
  240MOL0     H32343   9.562   0.718   7.781  0.6807  0.4197 -1.5241
  240MOL0     H32344   9.667   0.727   7.931 -1.7956  0.4921 -0.6243
  240MOL0     H32345   9.748   0.730   7.637 -3.6711  0.0310  0.2430
  240MOL0     H32346   9.718   0.868   7.740  1.7935  1.1501  1.7721
  240MOL0     H32347   9.929   0.653   7.825  1.6431  0.3769 -2.2540
  240MOL0     H32348   9.871   0.807   7.905 -0.5537  0.5555 -0.8993
  240MOL0     H32349  10.097   0.808   7.743  1.9387  2.1699 -2.3472
  240MOL0     H32350   9.971   0.876   7.638 -0.9056  2.6368  1.5694
  240MOL0     H32351  10.207   0.989   7.867  0.6116 -0.3344 -3.5106
  240MOL0     H32352  10.066   1.239   8.100 -0.2591 -0.4124 -1.8279
  240MOL0     H32353  10.220   1.185   8.058  0.1577 -0.7846 -1.4641
  240MOL0     H32354  10.084   1.430   7.932  0.7872  2.1498  1.5750
  240MOL0     H32355  10.201   1.429   8.059 -1.5310 -1.1352  0.9034
  240MOL0     H32356  10.285   1.475   7.827 -3.1341 -0.2388  1.5360
  240MOL0     H32357  10.232   1.317   7.774  2.2653 -2.5522  0.4950
  240MOL0     H32358  10.488   1.361   7.810  0.8188 -0.2599  1.3377
  240MOL0     H32359  10.424   1.220   7.904  4.2867  0.1591  0.7733
  240MOL0     H32360  10.609   1.164   7.982  0.7042 -1.1717  1.1220
  240MOL0     H32361  10.801   1.118   8.093 -2.2529  0.1632 -4.2159
  240MOL0     H32362  11.193   1.313   8.372 -1.7312 -0.6001  0.4018
  240MOL0     H32363  11.413   1.213   8.470  1.8499 -2.6217  0.7672
  240MOL0     H32364  11.429   0.878   8.638 -0.9491  0.8724 -0.2640
  240MOL0     H32365  11.398   0.772   8.502 -0.0930 -0.2459  1.8230
  240MOL0     H32366  11.601   0.692   8.601 -0.9796  0.4265  0.4737
  240MOL0     H32367  11.620   0.739   8.439  0.4908 -2.5871  0.3024
  240MOL0     H32368  11.714   0.969   8.545 -1.9989 -0.4558 -3.5249
  240MOL0     H32369  11.698   0.890   8.698  2.9827 -2.6585  2.1108
  240MOL0     H32370  11.880   0.758   8.499 -0.8703  2.3183 -2.1714
  240MOL0     H32371  11.847   0.738   8.677 -0.3528 -0.3832 -0.3381
  240MOL0     H32372  11.924   0.977   8.712 -0.7737  1.7243 -2.8474
  240MOL0     H32373  11.970   0.974   8.543  1.9334 -0.3677  0.3466
  240MOL0     H32374  12.091   0.778   8.742 -0.7288  1.8062  1.0700
  240MOL0     H32375  12.154   0.816   8.587 -0.2772 -0.7781  0.5674
  240MOL0     H32376  12.129   1.061   8.760  0.7013  0.4564 -1.5076
  240MOL0     H32377  12.253   1.028   8.651 -0.0808  1.3661  0.4297
  240MOL0     H32378  12.206   0.892   8.924 -0.5265 -0.4294 -0.3797
  240MOL0     H32379  12.342   0.859   8.813 -1.9074 -1.2139 -0.2985
  240MOL0     H32380  11.290   0.833   8.311 -1.1037 -0.5719 -0.3000
  240MOL0     H32381  11.075   0.956   8.221  1.4851  0.3308 -0.6026
  240MOL0     H32382  10.792   1.488   8.310 -0.0179  0.9747 -0.9530
  240MOL0     H32383  10.582   1.555   8.178 -3.0446 -1.5559 -1.3155
  240MOL0     H32384   9.534   0.118   8.171 -2.2598 -1.3811  0.2091
  240MOL0     H32385   9.668   0.158   8.359  2.1443  0.9847 -1.3346
  240MOL0     H32386   9.772   0.662   8.679  0.2882 -0.8515 -0.4727
  240MOL0     H32387   9.938   0.704   8.860 -1.3517 -0.4819  3.4691
  240MOL0     H32388  10.167   0.699   8.859  0.0277  0.9970  1.6351
  240MOL0     H32389  10.262   0.558   8.845 -1.5483  0.9142 -1.6443
  240MOL0     H32390  10.264   0.574   9.115  0.5360  0.1146 -1.0432
  240MOL0     H32391  10.235   0.748   9.073 -0.5404  0.6952  0.3228
  240MOL0     H32392  10.453   0.683   8.908 -2.3387  1.9035 -0.2099
  240MOL0     H32393  10.462   0.568   9.055 -1.2086 -0.0728  1.6195
  240MOL0     H32394  10.473   0.743   9.213 -0.4773 -1.6071 -1.0054
  240MOL0     H32395  10.610   0.759   9.105  1.3208  1.2189  3.8810
  240MOL0     H32396  10.346   1.082   9.005  0.5012 -0.1436  1.4961
  240MOL0     H32397   9.994   0.292   8.914 -0.1793 -1.1931 -1.9729
  240MOL0     H32398   9.859   0.121   8.785  1.7526  1.2609 -1.0638
  240MOL0     H32399   9.696   0.167   8.769  0.8535 -0.3061  1.2724
  240MOL0     H32400   9.808   0.190   8.629  1.1354  1.7744 -0.8513
  241MOL0     O32401   1.221   7.595   9.388  1.1109 -0.0960 -0.0011
  241MOL0     C32402   1.211   7.501   9.465  0.4963  0.0151  0.4579
  241MOL0     O32403   1.254   7.498   9.601  0.1676  0.1121  0.3409
  241MOL0     C32404   1.298   7.619   9.644  0.0859  0.4852  0.1466
  241MOL0     C32405   1.223   7.736   9.669 -0.2246  0.7438  0.2360
  241MOL0     C32406   1.297   7.853   9.697  0.3753 -0.7495 -1.0773
  241MOL0     C32407   1.431   7.852   9.728 -0.1443 -0.7211 -0.3065
  241MOL0     O32408   1.492   7.963   9.788  0.3212 -0.5127 -0.5761
  241MOL0     C32409   1.614   8.024   9.744  0.2467 -0.7439  1.0662
  241MOL0     C32410   1.737   7.983   9.834  1.1166 -0.7728 -0.5623
  241MOL0     C32411   1.768   8.093   9.951  0.1506  0.7338  0.3014
  241MOL0     C32412   1.913   8.079  10.001  0.0831  0.0191 -0.3812
  241MOL0     C32413   1.937   8.190  10.105 -0.5377  0.7765 -0.3325
  241MOL0     C32414   2.087   8.211  10.131 -0.1918 -0.1669  0.3992
  241MOL0     C32415   2.165   8.085  10.187 -0.3647  0.1732 -0.1386
  241MOL0     C32416   2.316   8.119  10.196  0.4257  0.6651  0.0063
  241MOL0     N32417   2.405   8.026  10.271 -0.6649  0.0003 -0.1368
  241MOL0     C32418   2.445   7.911  10.217  0.3261 -0.1749  0.8495
  241MOL0     C32419   2.543   7.853  10.289 -0.1314 -0.4902  0.2471
  241MOL0     C32420   2.617   7.727  10.254 -0.1771 -0.3553  0.0905
  241MOL0     C32421   2.771   7.720  10.293  0.4288 -0.6418 -0.1481
  241MOL0     C32422   2.825   7.587  10.235 -0.4793 -0.1872  0.5993
  241MOL0     C32423   2.972   7.549  10.236  1.3732 -0.0655  0.0920
  241MOL0     O32424   3.037   7.682  10.210 -0.3050 -0.1835  0.0051
  241MOL0     C32425   3.161   7.676  10.152 -0.3351  0.0330  0.0912
  241MOL0     C32426   3.252   7.581  10.203 -0.7534  0.0477  0.6221
  241MOL0     C32427   3.383   7.573  10.146 -0.0384 -0.2985  0.3220
  241MOL0     C32428   3.415   7.655  10.043  0.8447 -0.1308 -0.1681
  241MOL0     C32429   3.553   7.648   9.995  0.2428  0.5691  0.5348
  241MOL0     O32430   3.551   7.643   9.858  0.3634 -0.7845 -0.1280
  241MOL0     C32431   3.673   7.636   9.799  0.5597 -0.2227 -0.5979
  241MOL0     C32432   3.757   7.521   9.787  0.8033  0.3921 -0.0940
  241MOL0     C32433   3.877   7.525   9.709  0.4003 -0.1132 -0.9411
  241MOL0     C32434   3.901   7.634   9.629  0.0218  0.4581 -0.7157
  241MOL0     O32435   4.010   7.624   9.550 -0.4634 -0.3802 -0.0555
  241MOL0     C32436   4.018   7.696   9.424 -0.6195 -0.7448  0.1608
  241MOL0     C32437   4.160   7.682   9.364 -1.5925  0.0414  0.7739
  241MOL0     C32438   4.276   7.706   9.463  0.1906  0.2736 -0.7804
  241MOL0     C32439   4.409   7.648   9.406  0.2984 -0.6821 -1.0204
  241MOL0     C32440   4.533   7.705   9.479  0.0029 -0.3957  0.0648
  241MOL0     C32441   4.539   7.672   9.631 -1.0974 -0.3519 -0.7522
  241MOL0     C32442   4.592   7.793   9.709  0.1221  0.0774  1.0389
  241MOL0     C32443   4.633   7.762   9.851 -0.3779  0.1788  0.1364
  241MOL0    Cl32444   4.704   7.919   9.904 -0.2786 -0.4360  0.2153
  241MOL0     C32445   3.802   7.737   9.618  0.1896  0.0798 -0.1880
  241MOL0     C32446   3.694   7.748   9.708 -1.2189  0.2448  0.5811
  241MOL0     O32447   3.651   7.632  10.062  0.1908  0.2594  0.0179
  241MOL0     C32448   3.315   7.750   9.996 -0.7177 -0.3229 -0.2789
  241MOL0     C32449   3.197   7.760  10.057  0.0594 -0.7342  0.3177
  241MOL0     N32450   2.561   7.933  10.403  0.1012 -0.2455  0.0504
  241MOL0     N32451   2.477   8.035  10.387  0.2803 -0.0309  0.1250
  241MOL0     C32452   1.501   7.733   9.712 -0.7163  0.3746  0.9202
  241MOL0     C32453   1.434   7.621   9.659  0.2298 -0.5364 -0.0321
  241MOL0     C32454   1.142   7.387   9.403 -0.3885  0.5803  0.5800
  241MOL0     C32455   1.176   7.347   9.275  0.7871  0.0647  0.3353
  241MOL0     C32456   1.124   7.230   9.221  0.2608 -0.2782  0.4198
  241MOL0     C32457   1.037   7.154   9.291 -0.0394  0.4912 -0.8933
  241MOL0     O32458   0.990   7.043   9.229  0.1137 -0.0401  0.4129
  241MOL0     C32459   1.075   6.923   9.226 -0.8361 -0.4548 -0.9483
  241MOL0     C32460   1.068   6.851   9.088 -0.4692  0.6272 -0.2231
  241MOL0     C32461   1.094   6.952   8.974  0.1705  0.2394  0.3023
  241MOL0     C32462   1.094   6.888   8.834 -0.6074  0.0909  0.8293
  241MOL0     C32463   0.966   6.823   8.796  0.1537 -0.3654  0.9198
  241MOL0     C32464   0.854   6.790   8.767  0.1833 -0.1133 -1.2337
  241MOL0     C32465   0.992   7.198   9.421  0.0275 -0.3887 -0.2317
  241MOL0     C32466   1.050   7.311   9.481 -0.7354 -0.7661  0.4012
  241MOL0     C32467   1.017   7.340   9.626 -0.5846  0.5723  0.3516
  241MOL0     H32468   1.115   7.745   9.659 -0.2889  0.2601  0.4630
  241MOL0     H32469   1.232   7.936   9.723  1.7649 -0.5317  2.1617
  241MOL0     H32470   1.631   8.025   9.636  0.9464  2.9002  1.0659
  241MOL0     H32471   1.600   8.131   9.763 -1.1237 -0.4103 -1.3464
  241MOL0     H32472   1.821   7.958   9.768  2.1654  3.9169 -1.2985
  241MOL0     H32473   1.712   7.890   9.886  0.9178 -1.3260 -1.6093
  241MOL0     H32474   1.706   8.056  10.033 -0.4112 -0.0481 -0.4524
  241MOL0     H32475   1.740   8.193   9.917 -1.0387 -0.1935 -1.6531
  241MOL0     H32476   1.931   7.982  10.047  1.5840  1.1412  1.5311
  241MOL0     H32477   1.991   8.092   9.925  1.0231 -1.5863  0.2528
  241MOL0     H32478   1.894   8.286  10.075 -0.0524  1.8418  2.1795
  241MOL0     H32479   1.887   8.168  10.200 -1.0307 -3.1796 -1.3234
  241MOL0     H32480   2.126   8.228  10.031  0.8384  0.3586  0.8749
  241MOL0     H32481   2.111   8.307  10.178  3.2557 -0.4938 -0.4339
  241MOL0     H32482   2.148   8.005  10.115 -2.4759  1.6404 -1.4083
  241MOL0     H32483   2.127   8.057  10.285  0.1492 -1.2958 -0.3445
  241MOL0     H32484   2.357   8.147  10.098 -0.5919  0.3719 -0.5162
  241MOL0     H32485   2.305   8.212  10.253 -0.4393 -0.1226  1.1605
  241MOL0     H32486   2.398   7.861  10.133 -0.0925 -0.3921  1.2081
  241MOL0     H32487   2.553   7.648  10.295 -1.4439  0.7996  0.4518
  241MOL0     H32488   2.609   7.729  10.145 -0.7437  2.5841  0.0986
  241MOL0     H32489   2.809   7.817  10.263 -1.9470  0.6491  0.7320
  241MOL0     H32490   2.782   7.720  10.402 -0.2779 -0.0155 -0.0711
  241MOL0     H32491   2.796   7.580  10.130  1.8565  0.0017 -0.1268
  241MOL0     H32492   2.775   7.503  10.285  2.2962 -1.6803  1.1186
  241MOL0     H32493   2.983   7.479  10.152 -3.3802  0.2587 -1.0996
  241MOL0     H32494   3.015   7.498  10.323  0.6122 -1.8345 -0.5066
  241MOL0     H32495   3.239   7.508  10.281  2.3014 -0.6839  0.5975
  241MOL0     H32496   3.458   7.502  10.179  1.3839  0.4429 -1.1954
  241MOL0     H32497   3.745   7.432   9.848  2.3442  0.6609  0.6337
  241MOL0     H32498   3.935   7.435   9.692 -1.7053 -1.3747 -1.8544
  241MOL0     H32499   3.944   7.662   9.350  1.6708 -0.2553 -2.5440
  241MOL0     H32500   3.995   7.797   9.457 -2.4357 -1.0475 -0.0943
  241MOL0     H32501   4.166   7.576   9.335  0.1225 -0.5275  2.9431
  241MOL0     H32502   4.179   7.750   9.281  2.3220  0.4315  1.7660
  241MOL0     H32503   4.273   7.812   9.489 -0.7236 -0.2629  1.5893
  241MOL0     H32504   4.254   7.657   9.559  2.3484 -0.7753 -0.7562
  241MOL0     H32505   4.416   7.678   9.301 -1.8169 -1.7785 -1.5461
  241MOL0     H32506   4.412   7.539   9.416 -1.7104 -0.8472 -1.6311
  241MOL0     H32507   4.525   7.812   9.457 -1.7019 -0.3875  0.6249
  241MOL0     H32508   4.627   7.666   9.439 -0.4520  0.5760 -2.0718
  241MOL0     H32509   4.441   7.648   9.674 -1.2369 -0.8907 -1.3488
  241MOL0     H32510   4.608   7.588   9.641 -0.2673  0.2282 -1.4902
  241MOL0     H32511   4.510   7.866   9.709 -1.3743 -1.5580  1.0206
  241MOL0     H32512   4.678   7.825   9.649 -0.0403 -1.6476 -0.1832
  241MOL0     H32513   4.539   7.733   9.899 -2.9198  2.2854 -3.1587
  241MOL0     H32514   4.708   7.683   9.858 -1.7911 -1.4021 -1.4343
  241MOL0     H32515   3.806   7.818   9.546 -2.7371  3.9561  3.4695
  241MOL0     H32516   3.617   7.825   9.709 -1.5990 -0.1311  0.7812
  241MOL0     H32517   3.342   7.819   9.917  0.4849 -2.3869 -1.7352
  241MOL0     H32518   3.129   7.842  10.034  0.1590 -0.1974  1.8349
  241MOL0     H32519   1.603   7.733   9.749 -0.6590  0.1826  0.7643
  241MOL0     H32520   1.499   7.535   9.644  1.2652 -0.0415  1.3585
  241MOL0     H32521   1.254   7.404   9.225  3.2601 -0.1800  3.5902
  241MOL0     H32522   1.164   7.193   9.127  1.2368  1.4486  0.1094
  241MOL0     H32523   1.073   6.856   9.312  0.7818 -1.3176 -1.5351
  241MOL0     H32524   1.175   6.965   9.241 -1.7560  1.7078 -0.4145
  241MOL0     H32525   0.968   6.810   9.073 -1.1092  2.2352 -0.5940
  241MOL0     H32526   1.149   6.777   9.086 -0.2649  0.4770  3.8925
  241MOL0     H32527   1.193   6.999   8.982  0.1179  0.2199  1.1647
  241MOL0     H32528   1.025   7.037   8.980  0.2164  0.5122 -2.0915
  241MOL0     H32529   1.129   6.965   8.764  2.6587 -1.5117  0.5191
  241MOL0     H32530   1.175   6.815   8.824 -0.2291  0.6256 -0.1129
  241MOL0     H32531   0.764   6.756   8.720 -2.2791  2.0620  1.5306
  241MOL0     H32532   0.918   7.140   9.475 -0.4898 -0.9054 -1.4515
  241MOL0     H32533   0.922   7.292   9.653 -1.1219  2.3108  1.7409
  241MOL0     H32534   1.096   7.297   9.687 -0.9397  0.2326  0.5778
  241MOL0     H32535   1.004   7.447   9.645  0.4015  0.5049  1.5141
  242MOL0     O32536   2.321   2.328   8.417 -0.1220  0.3764  0.2955
  242MOL0     C32537   2.325   2.421   8.338  0.6724  1.0148  0.5803
  242MOL0     O32538   2.389   2.532   8.365 -0.5763 -0.6346 -0.1746
  242MOL0     C32539   2.512   2.509   8.426 -0.0261 -0.4316  0.7760
  242MOL0     C32540   2.539   2.553   8.554  0.1922  0.5287 -0.3817
  242MOL0     C32541   2.669   2.540   8.614  0.5350 -0.3537  1.1482
  242MOL0     C32542   2.768   2.490   8.530 -0.5239 -0.1183 -0.2255
  242MOL0     O32543   2.902   2.511   8.566 -0.9409 -0.6310  0.3809
  242MOL0     C32544   2.945   2.454   8.689 -0.0714 -0.3135  0.2750
  242MOL0     C32545   3.095   2.425   8.666 -0.4548 -0.5099 -0.8998
  242MOL0     C32546   3.144   2.338   8.779  0.4892  0.3325 -0.4055
  242MOL0     C32547   3.292   2.340   8.754  0.1750  0.2403 -1.5218
  242MOL0     C32548   3.382   2.259   8.854 -0.9755  0.4598 -0.1330
  242MOL0     C32549   3.527   2.275   8.821 -0.3880 -0.3670 -0.5158
  242MOL0     C32550   3.608   2.171   8.897 -0.4932 -0.0398  0.7811
  242MOL0     C32551   3.628   2.202   9.046  0.2444 -0.6356  0.4497
  242MOL0     N32552   3.707   2.094   9.110 -0.4038 -0.9318 -0.4261
  242MOL0     C32553   3.654   1.964   9.125 -0.0974 -0.4366 -0.0851
  242MOL0     C32554   3.766   1.893   9.154  1.2898  0.5166  0.7233
  242MOL0     C32555   3.752   1.748   9.184 -0.6519  0.4144  0.0918
  242MOL0     C32556   3.737   1.724   9.337  0.6442  0.3884  0.4160
  242MOL0     C32557   3.860   1.741   9.413 -0.2199  0.0262 -0.4214
  242MOL0     C32558   3.821   1.767   9.563  0.6246 -0.1482 -0.3226
  242MOL0     O32559   3.926   1.742   9.647  0.5855 -0.4119  0.2442
  242MOL0     C32560   3.991   1.850   9.680 -0.2844  0.2498  0.1881
  242MOL0     C32561   3.979   1.918   9.807 -0.3881 -0.7877  0.9775
  242MOL0     C32562   4.087   2.003   9.844 -0.0281  0.2529 -0.0436
  242MOL0     C32563   4.182   2.041   9.757  1.0710 -0.4263  1.0296
  242MOL0     C32564   4.291   2.132   9.795 -0.5304 -0.4847 -0.0671
  242MOL0     O32565   4.372   2.181   9.691 -0.0661 -0.1776  0.3357
  242MOL0     C32566   4.448   2.289   9.719 -0.0883  0.7079 -0.5862
  242MOL0     C32567   4.441   2.408   9.646  0.4280  0.1469  0.7220
  242MOL0     C32568   4.521   2.517   9.672 -1.0502  0.9369 -0.5686
  242MOL0     C32569   4.624   2.508   9.756  1.1955 -0.0031  0.2533
  242MOL0     O32570   4.691   2.623   9.774  0.5475 -0.1804  0.4182
  242MOL0     C32571   4.782   2.633   9.878 -0.3759 -0.3426 -0.6932
  242MOL0     C32572   4.843   2.776   9.878 -0.5754  0.6620 -0.1188
  242MOL0     C32573   4.955   2.780   9.986 -0.9966 -1.1717  1.3239
  242MOL0     C32574   5.030   2.919   9.981 -0.0717  0.0531 -0.1546
  242MOL0     C32575   5.166   2.908   9.909  0.3968  0.2924  0.6355
  242MOL0     C32576   5.222   3.041   9.863 -0.8900 -0.3394  0.6694
  242MOL0     C32577   5.372   3.012   9.800  0.7420  0.2581 -0.4416
  242MOL0     C32578   5.416   3.151   9.730  0.0529  0.4127 -0.6358
  242MOL0    Cl32579   5.579   3.107   9.663  0.4859  0.0786 -0.1398
  242MOL0     C32580   4.643   2.390   9.837 -0.7425  0.8150  0.3362
  242MOL0     C32581   4.552   2.279   9.809 -0.6246  0.3088 -0.5254
  242MOL0     O32582   4.305   2.163   9.911 -0.0196 -0.3683 -0.8336
  242MOL0     C32583   4.193   1.978   9.633 -0.5495  0.0907  0.4534
  242MOL0     C32584   4.100   1.885   9.597 -0.0616  0.3308  0.8015
  242MOL0     N32585   3.872   1.972   9.156 -0.1325  0.3106  0.4410
  242MOL0     N32586   3.847   2.092   9.135  0.1334  0.0769  0.1958
  242MOL0     C32587   2.737   2.430   8.411 -0.6460  0.1097 -0.6967
  242MOL0     C32588   2.615   2.444   8.351  0.2207 -0.6645  0.0243
  242MOL0     C32589   2.236   2.416   8.213  0.0866 -0.2533 -0.4903
  242MOL0     C32590   2.186   2.539   8.172 -0.2868 -0.4443 -0.2582
  242MOL0     C32591   2.098   2.548   8.062 -0.0479 -0.0683 -0.1842
  242MOL0     C32592   2.066   2.434   7.991  0.6408 -0.9490  0.7214
  242MOL0     O32593   1.991   2.434   7.884  0.3487 -0.1885  0.0532
  242MOL0     C32594   1.904   2.551   7.854  0.0978  0.4354  0.3579
  242MOL0     C32595   1.794   2.572   7.957  0.9496  0.3129  0.8546
  242MOL0     C32596   1.648   2.565   7.903  0.3426  0.3032  0.9722
  242MOL0     C32597   1.558   2.640   7.994  0.0460  0.2550 -0.2074
  242MOL0     C32598   1.420   2.595   7.981 -0.2426  0.2113 -0.0276
  242MOL0     C32599   1.310   2.559   7.943  0.7024  0.0062  1.2241
  242MOL0     C32600   2.122   2.315   8.026 -0.5016  0.0752 -0.3685
  242MOL0     C32601   2.211   2.303   8.130  0.4177 -0.0533  0.0748
  242MOL0     C32602   2.284   2.170   8.151 -0.1421  0.3156  0.5277
  242MOL0     H32603   2.453   2.587   8.611 -0.2878  0.4511 -1.0416
  242MOL0     H32604   2.679   2.577   8.716 -0.4281 -0.5720  1.3357
  242MOL0     H32605   2.919   2.533   8.761  1.7180  0.8151 -0.2467
  242MOL0     H32606   2.891   2.361   8.711  0.2356 -0.2593  1.3540
  242MOL0     H32607   3.149   2.519   8.678  1.0411 -1.6148  2.1448
  242MOL0     H32608   3.114   2.374   8.571  3.0762  0.2900 -0.7573
  242MOL0     H32609   3.113   2.233   8.767 -1.7514  1.1488 -2.6397
  242MOL0     H32610   3.113   2.378   8.876  4.8201 -0.5821  1.5869
  242MOL0     H32611   3.318   2.301   8.655  4.5798  1.2996 -0.9612
  242MOL0     H32612   3.324   2.444   8.755  0.1371  0.2627  0.2409
  242MOL0     H32613   3.371   2.303   8.953 -1.5000 -1.3930  0.6865
  242MOL0     H32614   3.359   2.152   8.859  0.8899 -0.0407 -1.1841
  242MOL0     H32615   3.543   2.252   8.716  0.7947 -0.2573 -0.3636
  242MOL0     H32616   3.567   2.373   8.850  0.5426 -0.9339  0.1884
  242MOL0     H32617   3.711   2.162   8.861 -0.8655  1.8704 -0.9227
  242MOL0     H32618   3.564   2.071   8.889  1.2452 -0.8703  1.0689
  242MOL0     H32619   3.669   2.302   9.061 -0.7159 -0.0744 -0.5469
  242MOL0     H32620   3.523   2.209   9.078 -0.7518 -0.9160 -2.4506
  242MOL0     H32621   3.552   1.926   9.128 -0.5507  0.7787  1.7831
  242MOL0     H32622   3.674   1.710   9.116  1.7398 -1.4592 -1.8034
  242MOL0     H32623   3.847   1.701   9.158 -0.8605 -0.3021  0.6030
  242MOL0     H32624   3.659   1.788   9.379 -0.3599 -1.3884  1.3313
  242MOL0     H32625   3.699   1.622   9.342  2.2521 -0.3641 -1.1466
  242MOL0     H32626   3.915   1.826   9.371 -0.5713  1.1791  1.3336
  242MOL0     H32627   3.911   1.646   9.397 -2.4937 -0.9653 -2.4320
  242MOL0     H32628   3.741   1.698   9.589  0.4564  0.5662  1.1578
  242MOL0     H32629   3.781   1.868   9.579 -0.9297 -0.4710 -1.8550
  242MOL0     H32630   3.903   1.893   9.880 -1.0904 -2.0327 -0.1153
  242MOL0     H32631   4.076   2.049   9.942 -0.6591 -1.6682  0.8320
  242MOL0     H32632   4.358   2.405   9.576 -1.4036  0.6044  2.7637
  242MOL0     H32633   4.510   2.608   9.615 -2.3033  0.9531 -0.3274
  242MOL0     H32634   4.743   2.620   9.979  0.3409 -1.8173 -0.5761
  242MOL0     H32635   4.856   2.554   9.859  0.3997 -0.4273  2.2351
  242MOL0     H32636   4.885   2.801   9.780 -2.9344  2.7254 -0.7002
  242MOL0     H32637   4.765   2.847   9.905 -1.1648 -0.5728  1.6155
  242MOL0     H32638   4.906   2.766  10.082 -0.6808 -1.5376  1.4341
  242MOL0     H32639   5.025   2.698   9.969 -0.5178 -0.3461 -1.1776
  242MOL0     H32640   5.041   2.945  10.086 -2.9676  3.9166 -0.6038
  242MOL0     H32641   4.970   2.994   9.930 -2.3409 -0.5690  1.4464
  242MOL0     H32642   5.153   2.844   9.821  0.8183 -0.0589  0.8281
  242MOL0     H32643   5.240   2.846   9.961  0.6676 -0.1004 -0.1849
  242MOL0     H32644   5.174   3.097   9.781 -0.3596 -1.5393 -0.5029
  242MOL0     H32645   5.236   3.098   9.955  1.0563  1.1574 -0.4628
  242MOL0     H32646   5.372   2.928   9.730 -0.5172 -1.2923  1.3277
  242MOL0     H32647   5.429   2.991   9.891 -2.2819  2.5283  2.2373
  242MOL0     H32648   5.343   3.190   9.658 -0.8642 -1.7953 -0.9807
  242MOL0     H32649   5.448   3.215   9.813 -0.2315 -0.0670 -0.1482
  242MOL0     H32650   4.723   2.373   9.908 -2.5390 -3.5249  1.7051
  242MOL0     H32651   4.561   2.183   9.857  2.5962  0.9807  0.4722
  242MOL0     H32652   4.267   2.010   9.561  0.6936 -0.0416  1.6422
  242MOL0     H32653   4.126   1.825   9.509 -1.4437 -2.1336  1.9693
  242MOL0     H32654   2.823   2.390   8.359 -0.0243  1.9223 -1.1015
  242MOL0     H32655   2.605   2.411   8.248 -2.3307 -1.7148  0.5372
  242MOL0     H32656   2.214   2.627   8.229  1.6124 -0.2515 -1.3777
  242MOL0     H32657   2.064   2.643   8.020  0.2288  0.1424  0.0659
  242MOL0     H32658   1.859   2.505   7.765  1.1101  1.4942 -0.7305
  242MOL0     H32659   1.965   2.637   7.826  2.7839 -0.9343  1.5449
  242MOL0     H32660   1.813   2.674   7.993  2.7703  1.4197 -2.7527
  242MOL0     H32661   1.812   2.526   8.055  4.0113  1.8318  1.1398
  242MOL0     H32662   1.610   2.464   7.885 -0.3931  0.6632  0.4692
  242MOL0     H32663   1.648   2.611   7.804 -1.5667  1.5422  1.4822
  242MOL0     H32664   1.588   2.634   8.100 -1.5625 -1.8850  0.1972
  242MOL0     H32665   1.554   2.744   7.962  0.2500  0.1165 -0.6879
  242MOL0     H32666   1.213   2.530   7.909  1.7914 -4.2987  1.1420
  242MOL0     H32667   2.089   2.235   7.960 -2.0639 -1.9162  2.5624
  242MOL0     H32668   2.336   2.151   8.057  0.1041  0.1377  0.6991
  242MOL0     H32669   2.358   2.173   8.231 -2.2433  1.6776  2.5654
  242MOL0     H32670   2.211   2.090   8.160 -2.8169  2.1673 -2.4355
  243MOL0     O32671  10.547  10.194   7.139  0.7574  0.1412 -0.0356
  243MOL0     C32672  10.577  10.083   7.094  0.1860 -0.0005 -0.4207
  243MOL0     O32673  10.710  10.035   7.081  0.7254 -0.3480  0.1888
  243MOL0     C32674  10.811  10.113   7.128  0.1397 -0.1820 -0.7449
  243MOL0     C32675  10.826  10.252   7.110  0.4626  1.3610 -0.1889
  243MOL0     C32676  10.943  10.317   7.153 -0.2966  0.0629  0.5984
  243MOL0     C32677  11.052  10.245   7.210 -0.3127 -0.5743  0.0901
  243MOL0     O32678  11.173  10.305   7.249 -0.0122  0.2626 -0.4872
  243MOL0     C32679  11.265  10.357   7.144 -0.9218  0.4297 -0.2579
  243MOL0     C32680  11.199  10.434   7.021  0.5418  0.1088 -0.2652
  243MOL0     C32681  11.299  10.458   6.902  0.1548 -0.6326 -0.8661
  243MOL0     C32682  11.231  10.559   6.815  0.5605 -0.2863  0.8204
  243MOL0     C32683  11.273  10.570   6.668 -0.3506  0.6494 -0.7194
  243MOL0     C32684  11.427  10.573   6.656 -0.5040 -0.2166 -0.0585
  243MOL0     C32685  11.491  10.702   6.713  0.0288  0.0113  0.3235
  243MOL0     C32686  11.637  10.698   6.694 -0.3436 -0.7481 -0.4086
  243MOL0     N32687  11.707  10.816   6.760 -0.1609  0.7661  0.6380
  243MOL0     C32688  11.728  10.939   6.705 -0.1752  0.4424  0.2650
  243MOL0     C32689  11.818  10.998   6.792 -0.1637 -0.8332  0.4639
  243MOL0     C32690  11.893  11.127   6.781 -0.2392 -0.5353 -0.8811
  243MOL0     C32691  11.804  11.237   6.853 -0.8998  0.2593 -0.3199
  243MOL0     C32692  11.829  11.378   6.799  0.2991 -0.7950  0.1573
  243MOL0     C32693  11.748  11.412   6.667 -0.5836  0.0542  0.3017
  243MOL0     O32694  11.813  11.333   6.563 -0.0658 -0.7473  0.3633
  243MOL0     C32695  11.914  11.378   6.484 -0.6447  0.4932  0.7611
  243MOL0     C32696  11.958  11.510   6.477  0.3371 -0.2071 -0.0586
  243MOL0     C32697  12.042  11.558   6.384 -0.3184  0.1952  0.7515
  243MOL0     C32698  12.091  11.459   6.283  0.3253 -0.5686 -0.5503
  243MOL0     C32699  12.175  11.512   6.174 -0.2557 -0.4025 -0.3312
  243MOL0     O32700  12.234  11.415   6.096  0.5542  0.5157 -0.7344
  243MOL0     C32701  12.274  11.463   5.971  0.0983 -0.3355 -0.9078
  243MOL0     C32702  12.408  11.468   5.937 -0.3111  0.0453  0.2198
  243MOL0     C32703  12.459  11.534   5.820 -0.4466 -0.0080  0.0996
  243MOL0     C32704  12.368  11.571   5.726 -0.2766 -0.4365  0.5189
  243MOL0     O32705  12.392  11.603   5.590  0.6334 -0.0639  0.6665
  243MOL0     C32706  12.523  11.650   5.545 -0.1193 -0.0347 -0.0146
  243MOL0     C32707  12.535  11.802   5.591 -0.0605  0.4360 -0.1022
  243MOL0     C32708  12.680  11.835   5.574 -0.6832  0.0187  0.2229
  243MOL0     C32709  12.706  11.985   5.527  0.2352  0.5217 -0.1411
  243MOL0     C32710  12.855  11.999   5.501 -0.0664  1.1242  0.8307
  243MOL0     C32711  12.881  12.010   5.349  0.2713 -0.0529 -0.4716
  243MOL0     C32712  13.034  12.007   5.317 -0.2575  1.1138  0.2234
  243MOL0     C32713  13.093  11.862   5.309  0.5929 -0.7754 -0.3867
  243MOL0    Cl32714  13.272  11.847   5.302  0.1712 -0.0788 -0.4559
  243MOL0     C32715  12.231  11.560   5.751  0.5813  0.7979  0.7861
  243MOL0     C32716  12.182  11.497   5.867 -0.2888  0.0397 -0.2951
  243MOL0     O32717  12.188  11.633   6.164  0.0488 -0.2852 -0.3286
  243MOL0     C32718  12.064  11.326   6.302 -0.4027  0.5631  0.9334
  243MOL0     C32719  11.982  11.282   6.401 -0.1224  0.1281 -1.0577
  243MOL0     N32720  11.839  10.923   6.899  0.7376  0.6367  0.8921
  243MOL0     N32721  11.769  10.814   6.882  0.4624  0.0366 -0.2437
  243MOL0     C32722  11.027  10.113   7.240  0.6515  0.0867  0.5259
  243MOL0     C32723  10.911  10.047   7.195 -0.0488 -0.2698  0.1217
  243MOL0     C32724  10.474  10.022   7.018 -0.1563  0.4557  0.2108
  243MOL0     C32725  10.362   9.997   7.091 -0.2483  0.4787  0.0001
  243MOL0     C32726  10.246   9.977   7.022 -0.4404  0.6721  0.7702
  243MOL0     C32727  10.241   9.943   6.885  0.9755  0.7081 -0.3358
  243MOL0     O32728  10.126   9.917   6.815  1.2070 -0.2794 -0.3330
  243MOL0     C32729   9.999   9.886   6.884 -0.3170  0.8405  0.5764
  243MOL0     C32730   9.932  10.015   6.940 -0.1450 -0.4819 -0.2054
  243MOL0     C32731   9.944  10.135   6.832 -0.0156  0.3867 -0.5844
  243MOL0     C32732   9.897  10.095   6.686  0.0383 -0.6841 -0.0632
  243MOL0     C32733   9.749  10.074   6.699 -0.1273 -0.8566 -0.6436
  243MOL0     C32734   9.634  10.056   6.714  0.2470  0.5668  0.1610
  243MOL0     C32735  10.368   9.957   6.820 -0.3346 -0.6295  0.2885
  243MOL0     C32736  10.481  10.002   6.880  0.4027 -0.4234 -0.3076
  243MOL0     C32737  10.600  10.021   6.796  0.4655 -0.8328 -0.7430
  243MOL0     H32738  10.745  10.306   7.062  1.7460  1.5147 -2.2890
  243MOL0     H32739  10.964  10.422   7.140  0.5325 -0.3169 -1.6198
  243MOL0     H32740  11.353  10.408   7.185  0.9729 -0.5550 -2.8573
  243MOL0     H32741  11.311  10.266   7.105  1.4021  0.9043  1.1528
  243MOL0     H32742  11.166  10.528   7.065  0.8692  1.0953 -2.0301
  243MOL0     H32743  11.112  10.386   6.977  2.3809 -2.8812 -0.9482
  243MOL0     H32744  11.315  10.363   6.850 -2.0082  0.2146 -3.2613
  243MOL0     H32745  11.398  10.496   6.929 -0.7063  0.9756  0.1976
  243MOL0     H32746  11.123  10.543   6.804  0.5465  1.1101 -1.8567
  243MOL0     H32747  11.239  10.659   6.859  1.2459  0.1565 -0.2536
  243MOL0     H32748  11.239  10.485   6.608 -1.0583  1.4082 -1.4090
  243MOL0     H32749  11.216  10.650   6.621 -0.1317  1.5486  0.4981
  243MOL0     H32750  11.474  10.493   6.713  1.0522  0.2030 -0.7262
  243MOL0     H32751  11.457  10.564   6.552  0.3397  0.9393  0.0656
  243MOL0     H32752  11.470  10.722   6.818  1.0731 -1.6852  0.8922
  243MOL0     H32753  11.449  10.781   6.650  2.2614 -1.0110 -2.6874
  243MOL0     H32754  11.676  10.598   6.719 -2.9282 -1.1829  2.5160
  243MOL0     H32755  11.654  10.716   6.588 -0.6677  0.7344 -0.2230
  243MOL0     H32756  11.696  10.980   6.609 -1.0662 -2.7042 -0.9102
  243MOL0     H32757  11.988  11.114   6.833 -1.1118 -0.9313  0.6699
  243MOL0     H32758  11.915  11.154   6.677  1.6935  0.3001 -0.2995
  243MOL0     H32759  11.702  11.215   6.822 -0.9583  1.7418 -1.2619
  243MOL0     H32760  11.804  11.233   6.963 -1.3412 -2.3875 -0.3574
  243MOL0     H32761  11.933  11.392   6.770  0.3759 -1.0623  0.3052
  243MOL0     H32762  11.804  11.448   6.879 -0.7742  0.7651 -1.4468
  243MOL0     H32763  11.757  11.519   6.647  0.9607 -0.1754 -0.3832
  243MOL0     H32764  11.643  11.382   6.674 -0.3254 -1.3716 -1.1944
  243MOL0     H32765  11.923  11.586   6.545  2.0981  1.0820 -0.5260
  243MOL0     H32766  12.055  11.666   6.381 -0.2357  0.2496  2.1569
  243MOL0     H32767  12.467  11.411   6.008 -1.3644 -2.5719 -0.8801
  243MOL0     H32768  12.565  11.525   5.798  0.0889 -0.5137  2.5937
  243MOL0     H32769  12.597  11.584   5.590  0.0520  1.4416  2.0225
  243MOL0     H32770  12.533  11.639   5.437 -0.4666  0.1061 -0.0622
  243MOL0     H32771  12.470  11.870   5.535  2.1903  3.4538  0.6220
  243MOL0     H32772  12.522  11.811   5.699  2.2027  2.0527  0.1118
  243MOL0     H32773  12.730  11.821   5.670 -2.1774 -0.0659  1.0172
  243MOL0     H32774  12.724  11.773   5.496 -1.7319 -0.3760 -0.0718
  243MOL0     H32775  12.674  12.060   5.600  0.1877  0.5590 -0.2003
  243MOL0     H32776  12.652  12.008   5.434 -2.8253 -0.1351  1.3492
  243MOL0     H32777  12.919  11.924   5.549 -0.2811  1.3471  1.4643
  243MOL0     H32778  12.881  12.093   5.550  1.9684 -1.1037  4.4685
  243MOL0     H32779  12.821  11.945   5.285  1.3128  0.6365 -2.2022
  243MOL0     H32780  12.844  12.109   5.322  4.0444  1.2893 -1.2389
  243MOL0     H32781  13.087  12.059   5.397 -0.6449  1.1231  0.4759
  243MOL0     H32782  13.054  12.069   5.228  0.1101  2.0003  0.9128
  243MOL0     H32783  13.070  11.797   5.394 -1.7550  2.6624  1.8708
  243MOL0     H32784  13.051  11.798   5.231  0.2522 -1.8067  0.6160
  243MOL0     H32785  12.176  11.588   5.662  1.7090  2.9901  0.7195
  243MOL0     H32786  12.075  11.483   5.879 -0.2142 -4.0691 -2.6891
  243MOL0     H32787  12.104  11.256   6.229 -2.4862 -1.7491  1.8673
  243MOL0     H32788  11.967  11.175   6.414 -0.0123 -0.2619 -3.6320
  243MOL0     H32789  11.106  10.054   7.285  1.3595  1.6158  1.3596
  243MOL0     H32790  10.900   9.941   7.216 -2.4683  0.2088  1.6896
  243MOL0     H32791  10.351  10.008   7.199 -0.1812  0.1880  0.0375
  243MOL0     H32792  10.155   9.967   7.079  0.0103  0.9372  1.5656
  243MOL0     H32793  10.025   9.806   6.953 -1.0557  0.3058  0.2420
  243MOL0     H32794   9.921   9.845   6.819 -2.1866  1.0755  2.5430
  243MOL0     H32795   9.973  10.051   7.035 -0.6265  1.8433 -0.7951
  243MOL0     H32796   9.824   9.995   6.948 -0.1189  0.0327  2.1490
  243MOL0     H32797  10.049  10.159   6.814  0.1202 -1.8992 -3.8190
  243MOL0     H32798   9.904  10.230   6.868 -0.1808 -0.4470  1.5490
  243MOL0     H32799   9.912  10.172   6.611 -1.6223  0.2343  0.5173
  243MOL0     H32800   9.942  10.002   6.649 -0.7675 -0.3562 -1.9606
  243MOL0     H32801   9.530  10.054   6.740 -0.1134  3.4770 -0.6910
  243MOL0     H32802  10.374   9.938   6.713 -1.5021 -1.5380  0.3665
  243MOL0     H32803  10.568  10.045   6.694 -1.3550 -0.0577 -0.0281
  243MOL0     H32804  10.660  10.099   6.843 -1.7280  0.3397  0.2338
  243MOL0     H32805  10.655   9.926   6.793  2.2044  0.0224  1.3970
  244MOL0     O32806   5.286   0.089   3.319  0.1214  0.1556 -0.0938
  244MOL0     C32807   5.270   0.185   3.244  0.4917  0.1927  0.3283
  244MOL0     O32808   5.364   0.240   3.167  0.5984  0.0940 -0.2119
  244MOL0     C32809   5.495   0.188   3.175 -0.7521  0.3998  0.0137
  244MOL0     C32810   5.524   0.057   3.141 -0.2586  0.3797 -0.1748
  244MOL0     C32811   5.655   0.015   3.123  0.0652 -0.7807 -0.1555
  244MOL0     C32812   5.758   0.103   3.139 -0.1203  0.7454 -0.9301
  244MOL0     O32813   5.890   0.065   3.119  0.1252 -0.4934 -0.1463
  244MOL0     C32814   5.987   0.170   3.110  0.0732  0.5778  0.0451
  244MOL0     C32815   6.105   0.113   3.036  0.0708 -0.2122 -0.3265
  244MOL0     C32816   6.220   0.199   2.994 -0.3838 -1.0304  1.4761
  244MOL0     C32817   6.290   0.250   3.115  0.3183  0.0213  0.5515
  244MOL0     C32818   6.414   0.335   3.062  0.0894 -0.0670 -0.7911
  244MOL0     C32819   6.508   0.384   3.169  0.4097 -0.0270  0.1117
  244MOL0     C32820   6.657   0.389   3.108  0.5358  0.3859  0.6076
  244MOL0     C32821   6.748   0.478   3.193  0.4817 -0.0355  0.2870
  244MOL0     N32822   6.888   0.493   3.128  0.4724  0.2618 -0.6744
  244MOL0     C32823   6.987   0.412   3.167 -0.4940  0.9851 -0.7499
  244MOL0     C32824   7.091   0.449   3.103 -1.1284  0.4671 -0.4428
  244MOL0     C32825   7.238   0.398   3.135  0.3789  0.8208 -0.6264
  244MOL0     C32826   7.317   0.410   3.007  1.6571  0.0512 -0.1229
  244MOL0     C32827   7.307   0.296   2.897  0.2778  0.6773  0.8496
  244MOL0     C32828   7.365   0.160   2.948  0.3286 -1.0046 -0.7725
  244MOL0     O32829   7.368   0.068   2.837  0.0527 -0.8086  0.0060
  244MOL0     C32830   7.416  -0.061   2.859 -0.3447  0.9861 -1.0589
  244MOL0     C32831   7.451  -0.121   2.985 -0.5818 -0.4828 -0.2312
  244MOL0     C32832   7.515  -0.250   2.985  0.2047  0.3230  0.9264
  244MOL0     C32833   7.545  -0.304   2.855  0.2146 -0.2337 -0.1599
  244MOL0     C32834   7.643  -0.418   2.848  0.4975 -0.2394 -0.7139
  244MOL0     O32835   7.710  -0.447   2.969 -0.2842  0.0666  0.0765
  244MOL0     C32836   7.788  -0.557   2.993  0.3593 -0.1387  0.2231
  244MOL0     C32837   7.843  -0.641   2.888  0.1871 -0.0159  0.4620
  244MOL0     C32838   7.916  -0.762   2.921  0.5813  0.5656 -0.4490
  244MOL0     C32839   7.952  -0.773   3.059  0.1141 -0.2408  0.4192
  244MOL0     O32840   8.043  -0.869   3.100 -0.2896  0.5665 -0.7012
  244MOL0     C32841   8.159  -0.831   3.177  0.0349  0.0828  0.1265
  244MOL0     C32842   8.289  -0.891   3.117 -0.7151 -0.2795  0.4323
  244MOL0     C32843   8.277  -1.052   3.108  0.3396 -0.2656  0.2436
  244MOL0     C32844   8.417  -1.113   3.092 -0.6048 -1.1975  0.3520
  244MOL0     C32845   8.406  -1.258   3.136 -0.5985  0.1634 -0.3649
  244MOL0     C32846   8.334  -1.364   3.057 -0.1087  0.8715 -0.5217
  244MOL0     C32847   8.370  -1.376   2.905  0.2305  0.6630 -0.5617
  244MOL0     C32848   8.481  -1.470   2.873 -0.1458  0.0146 -1.0647
  244MOL0    Cl32849   8.639  -1.398   2.892 -0.1191 -0.0322 -0.4715
  244MOL0     C32850   7.899  -0.689   3.156  0.7014  0.1620  0.8263
  244MOL0     C32851   7.824  -0.581   3.126 -1.1783  0.6310  0.1446
  244MOL0     O32852   7.654  -0.476   2.740  0.8061  0.2174 -0.6513
  244MOL0     C32853   7.484  -0.258   2.737  0.7052 -0.0137 -0.0405
  244MOL0     C32854   7.428  -0.131   2.738  0.3535  1.0621  0.2724
  244MOL0     N32855   7.044   0.552   3.012  0.0260  0.6345 -0.4441
  244MOL0     N32856   6.918   0.576   3.028  0.8823  0.4269  0.6770
  244MOL0     C32857   5.733   0.231   3.193  0.2296  0.8688  0.1161
  244MOL0     C32858   5.603   0.273   3.208  0.8841  0.1122  0.7316
  244MOL0     C32859   5.124   0.236   3.240 -0.4868 -1.0908 -0.1437
  244MOL0     C32860   5.020   0.172   3.308  0.9575  0.0172 -0.1634
  244MOL0     C32861   4.886   0.213   3.306  0.3084  0.3234 -0.2154
  244MOL0     C32862   4.838   0.322   3.232 -0.9027 -0.0130 -0.4710
  244MOL0     O32863   4.708   0.355   3.239 -0.0270 -0.1981 -0.9502
  244MOL0     C32864   4.659   0.457   3.150  0.3752  0.3240 -0.2031
  244MOL0     C32865   4.509   0.474   3.165  0.7355  0.0778 -0.1112
  244MOL0     C32866   4.475   0.533   3.303 -0.9802 -0.3782  0.0931
  244MOL0     C32867   4.424   0.675   3.296 -0.3875  0.3216 -0.0497
  244MOL0     C32868   4.528   0.767   3.255  0.3457  0.8954 -0.9876
  244MOL0     C32869   4.616   0.846   3.241 -0.4413  0.0755  0.2802
  244MOL0     C32870   4.941   0.388   3.158 -0.2439  0.0530 -0.1619
  244MOL0     C32871   5.077   0.357   3.175 -0.7529  0.2007  0.1984
  244MOL0     C32872   5.180   0.443   3.095 -0.5895 -0.5676 -0.3238
  244MOL0     H32873   5.441  -0.008   3.117  0.7911 -2.1891  2.5654
  244MOL0     H32874   5.677  -0.083   3.083  2.1192  0.2081 -1.6525
  244MOL0     H32875   5.939   0.247   3.048 -2.6049 -1.5957 -0.7804
  244MOL0     H32876   6.006   0.188   3.217 -0.1139 -2.7531  0.7289
  244MOL0     H32877   6.065   0.073   2.942 -2.3011  0.4510  0.3343
  244MOL0     H32878   6.138   0.018   3.080 -0.2824  0.4220  1.3477
  244MOL0     H32879   6.197   0.283   2.927 -0.3099 -2.0946  0.0544
  244MOL0     H32880   6.282   0.133   2.931  1.2611 -0.0576  2.0210
  244MOL0     H32881   6.225   0.318   3.170  0.0347  0.3432 -0.1664
  244MOL0     H32882   6.331   0.160   3.164 -0.2774 -1.6535 -1.8422
  244MOL0     H32883   6.472   0.267   2.999  1.2766 -1.0023  1.2264
  244MOL0     H32884   6.365   0.413   3.003 -1.0749 -0.5639 -0.5238
  244MOL0     H32885   6.467   0.480   3.201  1.7655  0.9138 -0.8555
  244MOL0     H32886   6.500   0.322   3.259 -2.5526  1.1854  0.7938
  244MOL0     H32887   6.647   0.439   3.010  2.4926  1.6668  1.0011
  244MOL0     H32888   6.690   0.285   3.110  1.4206  0.6635  0.8481
  244MOL0     H32889   6.711   0.579   3.212 -0.0660 -0.2097  0.1490
  244MOL0     H32890   6.753   0.433   3.292 -0.6327  1.3323  0.9946
  244MOL0     H32891   6.986   0.332   3.240  0.4565  2.1435  0.5965
  244MOL0     H32892   7.285   0.461   3.211 -1.4566  0.1889  1.1090
  244MOL0     H32893   7.241   0.297   3.176  3.5113  1.6545  1.5828
  244MOL0     H32894   7.285   0.506   2.967  3.3184  1.2613  1.2792
  244MOL0     H32895   7.421   0.422   3.040  2.0727 -0.5326 -1.1882
  244MOL0     H32896   7.364   0.341   2.815  0.2216  0.4510  0.6854
  244MOL0     H32897   7.204   0.269   2.873  0.2531  0.1793  1.4827
  244MOL0     H32898   7.300   0.121   3.028  1.1578 -1.4797 -0.3185
  244MOL0     H32899   7.464   0.166   2.993 -0.8142 -0.3713  1.9089
  244MOL0     H32900   7.427  -0.080   3.082  1.9363  0.4106  0.0768
  244MOL0     H32901   7.543  -0.300   3.077  0.7690  0.4575  0.8285
  244MOL0     H32902   7.832  -0.622   2.782 -0.9422 -3.0171 -0.0514
  244MOL0     H32903   7.951  -0.832   2.846  1.3346  1.5941 -1.0914
  244MOL0     H32904   8.167  -0.722   3.177 -4.5792  0.6297  1.7487
  244MOL0     H32905   8.144  -0.876   3.276  0.7220  0.4628  0.4147
  244MOL0     H32906   8.305  -0.836   3.024  0.7768  0.7992  1.2917
  244MOL0     H32907   8.369  -0.865   3.186  0.7545 -2.7439 -0.2319
  244MOL0     H32908   8.230  -1.082   3.202 -2.3143  1.5093 -0.4176
  244MOL0     H32909   8.214  -1.085   3.026 -1.0082  0.8667  0.7875
  244MOL0     H32910   8.482  -1.066   3.167  2.0614 -4.6439  0.4788
  244MOL0     H32911   8.463  -1.099   2.993  0.2572 -0.6888  0.8116
  244MOL0     H32912   8.345  -1.262   3.227 -2.1111  2.5958 -1.1779
  244MOL0     H32913   8.505  -1.298   3.159 -0.6946 -0.3272 -0.7858
  244MOL0     H32914   8.366  -1.454   3.111  0.3074  0.1094 -1.9742
  244MOL0     H32915   8.227  -1.342   3.063  0.2465  3.0850 -1.4352
  244MOL0     H32916   8.396  -1.282   2.856  1.0010  0.2060 -1.0343
  244MOL0     H32917   8.281  -1.411   2.851 -1.2539 -0.3214  2.2910
  244MOL0     H32918   8.466  -1.553   2.942  0.5952  0.5087 -0.2903
  244MOL0     H32919   8.471  -1.509   2.771 -0.4147  0.1914 -1.1078
  244MOL0     H32920   7.929  -0.705   3.259  3.7649  2.6412  0.4875
  244MOL0     H32921   7.791  -0.532   3.217  0.4742  1.9594  0.0840
  244MOL0     H32922   7.500  -0.305   2.641  0.5283  0.1723 -0.1606
  244MOL0     H32923   7.380  -0.097   2.647 -2.6171  1.9673  2.0130
  244MOL0     H32924   5.812   0.303   3.214  0.0034  0.3035  3.5477
  244MOL0     H32925   5.564   0.374   3.222 -1.7900 -0.6988 -0.2374
  244MOL0     H32926   5.049   0.086   3.368 -0.2134  0.1653  0.6554
  244MOL0     H32927   4.806   0.174   3.369 -2.7552  0.1601 -3.8325
  244MOL0     H32928   4.688   0.427   3.048  4.2066  0.3964  0.7161
  244MOL0     H32929   4.703   0.550   3.186 -1.9656  0.3070  3.0624
  244MOL0     H32930   4.475   0.370   3.161  2.6689 -0.5295 -2.1491
  244MOL0     H32931   4.472   0.535   3.083  1.1982  2.4650  1.3576
  244MOL0     H32932   4.567   0.524   3.361  0.5366 -1.4645 -2.3182
  244MOL0     H32933   4.400   0.467   3.347  0.3504 -0.7662  1.8800
  244MOL0     H32934   4.333   0.681   3.236 -0.8760  0.4442  0.6936
  244MOL0     H32935   4.392   0.690   3.400 -2.4663 -3.7393  0.1308
  244MOL0     H32936   4.695   0.918   3.239 -0.2721 -0.0730  1.1644
  244MOL0     H32937   4.924   0.472   3.092 -0.0433  1.6608  1.7269
  244MOL0     H32938   5.245   0.506   3.156 -0.8432  2.7172 -3.1417
  244MOL0     H32939   5.236   0.377   3.027 -0.6607 -0.5100 -0.4389
  244MOL0     H32940   5.125   0.514   3.033 -3.2305 -2.0878  0.1286
  245MOL0     O32941   7.256  10.686   3.059 -0.3576  0.3778  0.8481
  245MOL0     C32942   7.148  10.666   3.004  0.0894 -0.3963  0.4383
  245MOL0     O32943   7.080  10.549   2.978 -0.5781  0.4775 -0.2446
  245MOL0     C32944   7.135  10.430   3.016 -0.4903  0.4215  0.0654
  245MOL0     C32945   7.124  10.318   2.937 -0.4336  1.1173 -0.7687
  245MOL0     C32946   7.152  10.186   2.984 -0.7468 -0.0721 -0.1318
  245MOL0     C32947   7.225  10.170   3.099 -0.1120  0.5690 -0.1916
  245MOL0     O32948   7.272  10.046   3.131 -0.1559 -0.5755  0.0250
  245MOL0     C32949   7.375  10.021   3.229  0.5707  0.2359  1.0806
  245MOL0     C32950   7.445   9.896   3.169 -0.5724  0.8189  0.4060
  245MOL0     C32951   7.564   9.930   3.076 -0.1081  0.2454 -0.8192
  245MOL0     C32952   7.525   9.995   2.942 -0.1287 -0.1390 -0.1493
  245MOL0     C32953   7.643   9.984   2.848  0.1153 -0.6753 -0.0993
  245MOL0     C32954   7.777  10.056   2.890  0.6985  0.4803 -0.7571
  245MOL0     C32955   7.866  10.068   2.771  0.6438 -0.1908  0.1525
  245MOL0     C32956   7.968  10.183   2.793 -0.3397  0.3929  0.4296
  245MOL0     N32957   8.080  10.174   2.699 -0.1267  0.2510 -0.1109
  245MOL0     C32958   8.108  10.079   2.606 -0.2314  0.5487  0.4081
  245MOL0     C32959   8.227  10.119   2.553  0.6148  0.5700 -0.0903
  245MOL0     C32960   8.275  10.033   2.432 -0.8885 -0.9675 -0.3184
  245MOL0     C32961   8.341   9.905   2.479  0.1979 -0.2323 -0.4855
  245MOL0     C32962   8.459   9.858   2.381  1.2206 -0.6507  0.2543
  245MOL0     C32963   8.405   9.812   2.253 -0.6075  0.5970 -0.3981
  245MOL0     O32964   8.489   9.708   2.195  0.0310 -0.1916 -0.2503
  245MOL0     C32965   8.456   9.572   2.202 -0.0505  0.3711 -0.7924
  245MOL0     C32966   8.373   9.521   2.304 -0.5767  0.1979 -0.1120
  245MOL0     C32967   8.344   9.385   2.312  0.7070  0.7007  0.6142
  245MOL0     C32968   8.411   9.293   2.217 -0.2488  0.5183 -0.8165
  245MOL0     C32969   8.394   9.144   2.226 -0.0373  0.4790 -0.7693
  245MOL0     O32970   8.338   9.091   2.344 -0.2990  0.8942 -0.0012
  245MOL0     C32971   8.326   8.952   2.346 -0.1458 -0.3637 -1.3199
  245MOL0     C32972   8.235   8.887   2.252  0.2998 -0.4776  0.1281
  245MOL0     C32973   8.215   8.749   2.260  0.2202  0.4981  0.8336
  245MOL0     C32974   8.295   8.669   2.345 -0.6375 -0.0686  0.3656
  245MOL0     O32975   8.274   8.531   2.341 -0.5221 -0.1356  0.2747
  245MOL0     C32976   8.324   8.445   2.443  0.8752  0.0044 -0.6262
  245MOL0     C32977   8.298   8.299   2.400 -0.1329  0.3967 -0.0632
  245MOL0     C32978   8.289   8.209   2.528  0.1012  0.1290  0.1039
  245MOL0     C32979   8.324   8.058   2.491 -0.8004 -0.7703  0.1988
  245MOL0     C32980   8.320   7.961   2.607 -0.1519 -0.0451 -0.0438
  245MOL0     C32981   8.431   8.002   2.709 -0.2851 -0.4874 -0.5902
  245MOL0     C32982   8.488   7.884   2.789  0.7296  0.9741  0.4709
  245MOL0     C32983   8.579   7.925   2.898 -0.7877  0.6247  0.4274
  245MOL0    Cl32984   8.488   8.024   3.012 -0.3486 -0.3618 -0.3276
  245MOL0     C32985   8.388   8.732   2.427  0.4840  0.5094 -0.2552
  245MOL0     C32986   8.401   8.879   2.427  0.1334 -0.0760 -0.4833
  245MOL0     O32987   8.442   9.082   2.131 -0.0262 -0.0392 -0.6414
  245MOL0     C32988   8.494   9.349   2.113 -0.2866 -0.3678 -0.6041
  245MOL0     C32989   8.516   9.486   2.101  0.3199 -0.5120  0.4714
  245MOL0     N32990   8.271  10.240   2.599  0.7018 -0.3619  0.0457
  245MOL0     N32991   8.173  10.271   2.681 -0.0170 -0.2449 -0.4627
  245MOL0     C32992   7.251  10.281   3.174  0.7583  0.1802  0.1021
  245MOL0     C32993   7.213  10.408   3.134 -0.1374  0.7320 -0.0113
  245MOL0     C32994   7.076  10.788   2.970  0.1134  0.2138  0.0232
  245MOL0     C32995   7.131  10.867   2.873  0.0898  1.1096 -0.2904
  245MOL0     C32996   7.064  10.984   2.842  0.3216 -0.3890 -1.3123
  245MOL0     C32997   6.941  11.022   2.891  0.2821  1.0841 -0.0016
  245MOL0     O32998   6.899  11.145   2.847 -0.0344 -0.0950 -0.6227
  245MOL0     C32999   6.760  11.141   2.807 -0.2765 -1.0313 -0.0848
  245MOL0     C33000   6.697  11.270   2.878 -0.2577  0.2603 -0.4612
  245MOL0     C33001   6.552  11.294   2.822 -0.4970  0.1161  0.4715
  245MOL0     C33002   6.439  11.228   2.899 -0.0629  0.5504 -0.3494
  245MOL0     C33003   6.314  11.239   2.818  0.1510  0.9062 -0.2906
  245MOL0     C33004   6.216  11.245   2.746  0.0954  1.0901  0.2808
  245MOL0     C33005   6.896  10.945   3.001  0.8327 -0.0903 -0.3144
  245MOL0     C33006   6.958  10.822   3.036  0.0694 -0.4330  0.4318
  245MOL0     C33007   6.901  10.747   3.154 -0.4303  0.4497 -0.1398
  245MOL0     H33008   7.077  10.328   2.840  0.0610  0.7670 -1.0460
  245MOL0     H33009   7.128  10.098   2.924  2.2604  0.5296 -2.4981
  245MOL0     H33010   7.447  10.102   3.242 -1.3647  2.1480  0.3445
  245MOL0     H33011   7.325   9.993   3.322  1.4220 -1.7326  1.0044
  245MOL0     H33012   7.369   9.835   3.120  0.9012  1.1554 -2.4765
  245MOL0     H33013   7.490   9.835   3.248 -1.4163 -0.2537  0.0638
  245MOL0     H33014   7.606   9.831   3.055 -2.6996 -1.4550  1.3666
  245MOL0     H33015   7.636   9.982   3.140 -0.6820  2.1763 -1.6961
  245MOL0     H33016   7.437   9.948   2.897  0.1756  1.5401 -2.7042
  245MOL0     H33017   7.501  10.100   2.957 -2.5329 -0.6685  0.1975
  245MOL0     H33018   7.657   9.878   2.825  0.1842 -0.5249 -0.7614
  245MOL0     H33019   7.610  10.035   2.758  1.3942  1.4673  0.5830
  245MOL0     H33020   7.757  10.155   2.932 -1.5717  0.6722 -2.1657
  245MOL0     H33021   7.826   9.987   2.960 -0.5821  1.5032  1.2337
  245MOL0     H33022   7.809  10.100   2.683 -1.4021  0.2795  1.5842
  245MOL0     H33023   7.904   9.969   2.745  0.1928  0.0353 -1.4787
  245MOL0     H33024   7.915  10.279   2.785 -0.2814  0.2965 -1.6468
  245MOL0     H33025   8.015  10.173   2.891  1.8160 -3.0501 -0.7738
  245MOL0     H33026   8.061   9.982   2.595  1.3233  0.0102 -2.1667
  245MOL0     H33027   8.189  10.001   2.372 -2.2496  1.5488  0.1254
  245MOL0     H33028   8.349  10.096   2.383  0.6666 -2.4730  0.0093
  245MOL0     H33029   8.366   9.902   2.586 -1.5546 -3.7236 -0.0366
  245MOL0     H33030   8.265   9.827   2.480  0.2921 -0.5979  4.4736
  245MOL0     H33031   8.510   9.770   2.422  3.3140  1.2232  1.8778
  245MOL0     H33032   8.535   9.932   2.356 -0.8888  0.8829 -2.1290
  245MOL0     H33033   8.420   9.896   2.186 -1.1300  1.7090  0.8425
  245MOL0     H33034   8.299   9.790   2.265  0.2760 -3.6752  1.7464
  245MOL0     H33035   8.326   9.581   2.380 -2.6000 -1.1761 -0.2045
  245MOL0     H33036   8.273   9.355   2.388 -1.9242  0.8506 -1.6303
  245MOL0     H33037   8.182   8.934   2.170 -0.8930 -2.7108 -0.4667
  245MOL0     H33038   8.141   8.708   2.191 -0.4185  1.3897  0.9561
  245MOL0     H33039   8.426   8.462   2.477  0.0366  2.0401  1.0589
  245MOL0     H33040   8.268   8.461   2.535  2.9209 -2.6300  1.2298
  245MOL0     H33041   8.201   8.288   2.351  0.3044 -2.0041 -0.4824
  245MOL0     H33042   8.369   8.271   2.321 -2.0893 -1.3380 -1.3135
  245MOL0     H33043   8.362   8.242   2.602 -0.0484  1.0092 -0.1289
  245MOL0     H33044   8.195   8.220   2.583  0.4745 -2.1781  1.2983
  245MOL0     H33045   8.426   8.067   2.452 -0.3844  0.9492  1.5625
  245MOL0     H33046   8.246   8.022   2.423  1.4118 -0.0770 -2.9038
  245MOL0     H33047   8.346   7.867   2.557 -0.7247  1.4081 -3.3117
  245MOL0     H33048   8.219   7.950   2.648  0.0384 -5.3574 -0.2031
  245MOL0     H33049   8.519   8.038   2.656  0.2047 -1.5772 -0.5526
  245MOL0     H33050   8.390   8.077   2.776  2.7667 -0.3015  1.2351
  245MOL0     H33051   8.541   7.816   2.722  3.0315  0.8050  2.3034
  245MOL0     H33052   8.406   7.827   2.833 -0.7972  3.1522  0.5735
  245MOL0     H33053   8.613   7.841   2.959 -0.5406  0.8984  0.6682
  245MOL0     H33054   8.674   7.963   2.859 -1.1246  1.2172  0.1663
  245MOL0     H33055   8.455   8.671   2.485  0.6654  0.2537 -0.7309
  245MOL0     H33056   8.465   8.928   2.500  1.6417 -3.5083  0.7178
  245MOL0     H33057   8.555   9.292   2.044 -2.6984 -1.6055 -1.8399
  245MOL0     H33058   8.593   9.513   2.030  0.2274 -1.0325  0.1710
  245MOL0     H33059   7.310  10.286   3.265 -0.1763  1.1649  0.6763
  245MOL0     H33060   7.244  10.488   3.201 -2.7664  0.7912  1.2658
  245MOL0     H33061   7.222  10.834   2.823  0.9504  2.4608  0.3212
  245MOL0     H33062   7.104  11.051   2.766 -1.6076  1.0833 -1.1253
  245MOL0     H33063   6.713  11.048   2.837  0.8404 -2.2171 -1.8299
  245MOL0     H33064   6.749  11.145   2.698 -1.0473  1.6195  0.0046
  245MOL0     H33065   6.754  11.361   2.859  0.1722 -0.4285 -2.7818
  245MOL0     H33066   6.690  11.251   2.986  0.6389 -1.9973 -0.7284
  245MOL0     H33067   6.553  11.254   2.721  2.3364  1.4738 -0.1428
  245MOL0     H33068   6.541  11.403   2.829 -0.3722  0.0663  1.7473
  245MOL0     H33069   6.457  11.122   2.920 -2.1603  0.3188  0.5374
  245MOL0     H33070   6.431  11.276   2.997 -2.8410  0.9083 -0.6693
  245MOL0     H33071   6.141  11.274   2.674 -1.5529  3.2265  2.6709
  245MOL0     H33072   6.813  10.979   3.062  1.9456  1.2895  0.4834
  245MOL0     H33073   6.794  10.736   3.134  0.3988 -1.8876 -4.6426
  245MOL0     H33074   6.944  10.648   3.170  1.1458  1.0920 -0.1650
  245MOL0     H33075   6.930  10.808   3.240  0.4208  1.6422 -1.2224
  246MOL0     O33076  10.420   6.181  10.179  0.0841  0.8870 -0.7038
  246MOL0     C33077  10.491   6.184  10.287 -0.3383 -0.8902  0.1658
  246MOL0     O33078  10.536   6.070  10.355  0.9876  0.2994 -0.9692
  246MOL0     C33079  10.463   5.954  10.333 -0.2281  0.6142  0.7265
  246MOL0     C33080  10.322   5.948  10.357 -0.0421 -0.0343 -0.1517
  246MOL0     C33081  10.243   5.839  10.330  0.4855  0.5201 -0.7062
  246MOL0     C33082  10.307   5.735  10.262 -1.1807 -0.7410  0.5223
  246MOL0     O33083  10.251   5.623  10.214  0.0281  0.3089  0.1168
  246MOL0     C33084  10.145   5.560  10.296 -0.4623 -0.5265  0.9044
  246MOL0     C33085  10.199   5.490  10.419  0.4159  0.1360  0.2656
  246MOL0     C33086  10.142   5.347  10.423 -0.4290  0.8532 -0.0034
  246MOL0     C33087  10.233   5.266  10.514  0.2207 -0.2982  0.6879
  246MOL0     C33088  10.166   5.135  10.535 -0.7359  0.0944 -0.1103
  246MOL0     C33089  10.264   5.049  10.611  0.2874 -0.5944 -0.3814
  246MOL0     C33090  10.182   4.925  10.664 -0.7912 -0.3662 -0.3018
  246MOL0     C33091  10.272   4.812  10.723  0.1285  0.8082  0.0369
  246MOL0     N33092  10.338   4.714  10.633  0.5925 -0.7821  0.3520
  246MOL0     C33093  10.343   4.579  10.650  0.8615  0.0434  0.2380
  246MOL0     C33094  10.426   4.539  10.553 -0.3465  0.0426  0.0973
  246MOL0     C33095  10.469   4.394  10.532  0.4846 -0.9295 -0.4076
  246MOL0     C33096  10.548   4.378  10.400  0.2466  0.1699 -0.1890
  246MOL0     C33097  10.661   4.280  10.397 -0.4008  0.4005 -0.5286
  246MOL0     C33098  10.787   4.338  10.471  1.4573  0.5589  0.2778
  246MOL0     O33099  10.883   4.230  10.501  0.1552 -0.2970 -0.2299
  246MOL0     C33100  11.016   4.268  10.515  0.2980 -0.0160  0.9029
  246MOL0     C33101  11.110   4.179  10.566  0.1256  0.2591  1.1105
  246MOL0     C33102  11.252   4.201  10.577  0.3732 -0.1579 -0.4231
  246MOL0     C33103  11.303   4.332  10.538  0.7432  0.6305 -0.1179
  246MOL0     C33104  11.445   4.364  10.545 -0.0321 -0.1855  0.0087
  246MOL0     O33105  11.535   4.289  10.620 -0.7513  0.2815  0.1182
  246MOL0     C33106  11.667   4.286  10.589  0.2007  0.2352 -0.0785
  246MOL0     C33107  11.750   4.242  10.690 -0.5949  0.3142  0.7796
  246MOL0     C33108  11.889   4.222  10.676  0.2714  0.7682 -1.1395
  246MOL0     C33109  11.943   4.243  10.552 -0.3287 -0.4545 -0.1652
  246MOL0     O33110  12.079   4.236  10.523  0.4771  0.0634  0.0906
  246MOL0     C33111  12.176   4.228  10.629  0.9608  0.1092 -0.1999
  246MOL0     C33112  12.244   4.371  10.652 -0.0036  0.1418  0.3041
  246MOL0     C33113  12.340   4.373  10.768 -0.1263 -0.2250 -0.4154
  246MOL0     C33114  12.381   4.519  10.807 -0.7688  0.2869  0.7140
  246MOL0     C33115  12.529   4.553  10.772  0.8707  0.0345 -0.2210
  246MOL0     C33116  12.550   4.591  10.622  0.3369 -0.5903 -0.9251
  246MOL0     C33117  12.691   4.543  10.583  0.6080  0.5846 -0.2804
  246MOL0     C33118  12.763   4.629  10.490  0.1598  0.5045 -0.4314
  246MOL0    Cl33119  12.807   4.779  10.572 -0.2921  0.6280  0.0629
  246MOL0     C33120  11.869   4.294  10.447 -0.4691 -0.2408  0.2592
  246MOL0     C33121  11.736   4.316  10.466  1.0016 -0.0346  0.8888
  246MOL0     O33122  11.472   4.456  10.465 -0.4759  0.2495  0.0587
  246MOL0     C33123  11.219   4.425  10.496  0.3158 -1.3377  1.1849
  246MOL0     C33124  11.079   4.399  10.477  0.1464  0.6693 -0.6840
  246MOL0     N33125  10.447   4.652  10.470 -0.3735 -0.0877 -0.3084
  246MOL0     N33126  10.404   4.753  10.522  0.0498 -0.7937 -0.7681
  246MOL0     C33127  10.443   5.740  10.240 -0.1422 -0.1755  0.4570
  246MOL0     C33128  10.519   5.848  10.277 -0.4914 -0.8692 -0.0460
  246MOL0     C33129  10.551   6.320  10.345  0.2542 -0.6613 -0.2564
  246MOL0     C33130  10.667   6.313  10.424  0.1215 -0.8402  0.9018
  246MOL0     C33131  10.727   6.431  10.462 -0.1639 -0.0868  0.1631
  246MOL0     C33132  10.674   6.552  10.429 -1.5608  0.5049  0.4736
  246MOL0     O33133  10.734   6.674  10.458  0.4874  0.1225  0.4509
  246MOL0     C33134  10.865   6.689  10.514  0.3208 -0.4200  0.6832
  246MOL0     C33135  10.927   6.822  10.488 -0.2184 -0.3913  0.1005
  246MOL0     C33136  11.000   6.849  10.350 -0.2573  0.1413 -0.0441
  246MOL0     C33137  11.042   6.990  10.334 -0.7432  0.5975 -0.9588
  246MOL0     C33138  11.147   7.014  10.432  0.3903 -1.1105  0.7702
  246MOL0     C33139  11.231   7.044  10.507  0.6490  0.1281  0.7113
  246MOL0     C33140  10.554   6.561  10.361  0.3299  0.2049  0.6679
  246MOL0     C33141  10.491   6.452  10.317 -0.1392  0.3049 -1.4577
  246MOL0     C33142  10.360   6.479  10.252  0.2929  0.0190 -0.4669
  246MOL0     H33143  10.273   6.034  10.401 -0.2315  1.4391 -2.9605
  246MOL0     H33144  10.137   5.848  10.354  0.7046 -2.6412  2.2751
  246MOL0     H33145  10.081   5.645  10.323  1.7826  2.0864 -1.3294
  246MOL0     H33146  10.077   5.493  10.244  1.9704 -0.8369 -2.2483
  246MOL0     H33147  10.168   5.550  10.505 -0.9292 -0.3383  0.1369
  246MOL0     H33148  10.308   5.492  10.430  0.1919 -0.3824  3.3460
  246MOL0     H33149  10.153   5.296  10.327  2.4626  0.7232  0.3230
  246MOL0     H33150  10.039   5.348  10.459 -1.1594 -1.2868 -1.8021
  246MOL0     H33151  10.326   5.255  10.457 -1.2526 -0.7862 -1.7332
  246MOL0     H33152  10.234   5.318  10.611 -3.8227  0.4820  0.4957
  246MOL0     H33153  10.079   5.155  10.598 -0.9913  2.4821 -1.1162
  246MOL0     H33154  10.140   5.092  10.438  0.7470  0.8836 -0.9033
  246MOL0     H33155  10.346   5.007  10.552  0.0751 -3.5010  1.2016
  246MOL0     H33156  10.301   5.110  10.693  1.3798 -0.5134 -0.9200
  246MOL0     H33157  10.119   4.894  10.580  1.1885  1.5265 -2.6487
  246MOL0     H33158  10.121   4.950  10.751 -1.0071 -2.3677  0.1635
  246MOL0     H33159  10.344   4.852  10.795  0.2430  0.2490  0.2344
  246MOL0     H33160  10.200   4.753  10.780 -0.2612 -0.1754 -1.4038
  246MOL0     H33161  10.290   4.513  10.719  1.7431 -0.0993  0.7945
  246MOL0     H33162  10.539   4.365  10.611 -1.5784  1.4883  2.5476
  246MOL0     H33163  10.374   4.340  10.544 -0.1726  0.3248  0.3378
  246MOL0     H33164  10.468   4.365  10.326 -0.9802 -1.0846  1.2763
  246MOL0     H33165  10.602   4.472  10.386 -0.4479  0.5528 -0.3585
  246MOL0     H33166  10.694   4.250  10.297 -1.1440 -0.3468 -0.5638
  246MOL0     H33167  10.619   4.189  10.441 -0.8951  0.4722 -0.8438
  246MOL0     H33168  10.751   4.378  10.567  2.1987 -0.7097  1.1069
  246MOL0     H33169  10.831   4.416  10.409  1.9603  0.4503  0.4953
  246MOL0     H33170  11.074   4.081  10.595 -0.4851  0.1302 -0.0211
  246MOL0     H33171  11.319   4.117  10.592 -1.1930 -1.9327 -2.5945
  246MOL0     H33172  11.714   4.232  10.792  1.6254 -0.0030  1.5926
  246MOL0     H33173  11.944   4.175  10.757 -1.7795  0.3766  0.0808
  246MOL0     H33174  12.151   4.195  10.730 -0.7715  0.1403 -0.5865
  246MOL0     H33175  12.248   4.156  10.588 -0.0186 -0.7368 -0.4645
  246MOL0     H33176  12.303   4.387  10.561 -0.5585 -2.8138 -0.7069
  246MOL0     H33177  12.167   4.448  10.656  0.5490  0.7816 -1.0297
  246MOL0     H33178  12.284   4.333  10.853 -0.6730 -0.3423 -0.8287
  246MOL0     H33179  12.428   4.309  10.755  1.4014  2.2518 -3.6988
  246MOL0     H33180  12.371   4.543  10.914  2.0638  2.5353  0.5937
  246MOL0     H33181  12.320   4.591  10.751 -0.9932 -0.4303  0.0330
  246MOL0     H33182  12.585   4.461  10.788  0.4978  0.1971  2.2956
  246MOL0     H33183  12.579   4.631  10.831  2.9685 -1.3539 -0.0540
  246MOL0     H33184  12.481   4.534  10.560 -0.7383 -1.1664  0.7283
  246MOL0     H33185  12.544   4.697  10.595 -1.3287 -0.5819 -0.6457
  246MOL0     H33186  12.680   4.453  10.521  2.3221 -1.1477  1.7541
  246MOL0     H33187  12.762   4.521  10.664  2.1315 -0.2060 -1.7753
  246MOL0     H33188  12.858   4.582  10.464  2.5613  2.9129  3.1507
  246MOL0     H33189  12.696   4.652  10.406 -1.0855  1.8463  0.8808
  246MOL0     H33190  11.901   4.319  10.346  0.4421 -1.2682  0.2743
  246MOL0     H33191  11.678   4.351  10.381 -0.2947  0.5894  1.9772
  246MOL0     H33192  11.247   4.524  10.462 -2.0314 -0.5680  1.3311
  246MOL0     H33193  11.024   4.479  10.427 -1.1764  1.3066  1.6776
  246MOL0     H33194  10.491   5.658  10.187 -2.9124 -2.8703  1.8429
  246MOL0     H33195  10.627   5.843  10.269 -0.2534 -0.3740  2.1268
  246MOL0     H33196  10.708   6.214  10.435  1.6880 -0.2839  0.3045
  246MOL0     H33197  10.819   6.418  10.518  1.4997 -1.2473 -2.6519
  246MOL0     H33198  10.922   6.605  10.474 -1.3526 -1.7596  1.0275
  246MOL0     H33199  10.868   6.678  10.623 -0.1876 -0.5722  0.6874
  246MOL0     H33200  10.990   6.864  10.567 -2.9273  0.6158  1.8712
  246MOL0     H33201  10.845   6.895  10.487  1.1829  1.2468  0.2884
  246MOL0     H33202  10.929   6.829  10.269 -1.2353 -0.3593  0.9053
  246MOL0     H33203  11.082   6.777  10.342 -1.9747 -1.7008 -3.7118
  246MOL0     H33204  11.070   7.013  10.231 -1.7709 -0.6249 -1.5378
  246MOL0     H33205  10.956   7.057  10.344 -0.2895  1.2827 -1.5868
  246MOL0     H33206  11.291   7.087  10.585 -0.1070  1.1127  0.7604
  246MOL0     H33207  10.518   6.661  10.338 -0.2741 -0.2147 -0.3004
  246MOL0     H33208  10.374   6.522  10.153  2.1879 -1.0302 -0.7104
  246MOL0     H33209  10.301   6.389  10.232 -2.0098  1.7765 -1.9608
  246MOL0     H33210  10.295   6.534  10.320  1.9715 -1.1061  2.2378
  247MOL0     O33211  10.251  10.416   3.649  0.7532 -0.8910 -0.1998
  247MOL0     C33212  10.227  10.374   3.764  0.3016 -0.2069  0.2196
  247MOL0     O33213  10.110  10.399   3.834  0.4573  0.7031  0.0616
  247MOL0     C33214   9.992  10.432   3.768 -0.7093 -0.1673 -0.1002
  247MOL0     C33215   9.969  10.567   3.725  0.2504  0.0043  0.7161
  247MOL0     C33216   9.860  10.597   3.644  0.4692 -0.4175 -1.4015
  247MOL0     C33217   9.779  10.489   3.606 -0.3669 -0.2533 -0.9614
  247MOL0     O33218   9.676  10.506   3.514  0.2422 -0.4396  0.5043
  247MOL0     C33219   9.656  10.405   3.413 -0.2209  0.7287 -0.2674
  247MOL0     C33220   9.574  10.467   3.298  0.7077 -0.0320  0.2036
  247MOL0     C33221   9.604  10.397   3.168  0.0761 -0.2722  1.0751
  247MOL0     C33222   9.732  10.427   3.105  0.5203 -1.1793  0.0996
  247MOL0     C33223   9.763  10.337   2.986  0.2601  0.5430 -0.9191
  247MOL0     C33224   9.897  10.362   2.920  0.5226 -0.7892 -0.4735
  247MOL0     C33225   9.908  10.275   2.801  0.0097  0.1016 -0.0417
  247MOL0     C33226  10.033  10.308   2.724  0.3176  0.5603  0.0913
  247MOL0     N33227  10.064  10.193   2.638 -0.6722 -0.8613  0.3235
  247MOL0     C33228  10.150  10.095   2.686  0.4403 -0.6000 -0.0305
  247MOL0     C33229  10.136   9.995   2.593  0.5838  0.2827  0.4570
  247MOL0     C33230  10.200   9.864   2.602 -0.7419  0.0225 -0.0919
  247MOL0     C33231  10.311   9.858   2.708 -0.7441 -0.2939  0.0768
  247MOL0     C33232  10.393   9.725   2.694 -0.0782  0.2230 -0.0790
  247MOL0     C33233  10.517   9.761   2.609  0.0750 -0.4150 -0.6313
  247MOL0     O33234  10.611   9.835   2.693 -0.2613 -0.4219 -0.4475
  247MOL0     C33235  10.744   9.828   2.671 -0.8780  0.7900  0.2889
  247MOL0     C33236  10.840   9.857   2.774  0.3607  0.1507 -0.0116
  247MOL0     C33237  10.968   9.823   2.755 -0.2471 -0.2272 -0.2894
  247MOL0     C33238  11.024   9.769   2.636 -0.0762 -0.0848 -0.2630
  247MOL0     C33239  11.163   9.714   2.614  0.3240  0.1086  0.2326
  247MOL0     O33240  11.193   9.674   2.488  0.1876  0.8144  0.0584
  247MOL0     C33241  11.320   9.636   2.463 -0.2257  0.3560  0.9237
  247MOL0     C33242  11.406   9.725   2.398 -0.1425  0.7697  0.7002
  247MOL0     C33243  11.540   9.685   2.395 -0.0199 -0.0683  0.1267
  247MOL0     C33244  11.587   9.567   2.454 -0.5412 -0.4879 -0.4328
  247MOL0     O33245  11.729   9.557   2.461  0.3071  0.2070  0.1832
  247MOL0     C33246  11.788   9.541   2.593 -0.0031  0.0256  0.0910
  247MOL0     C33247  11.941   9.510   2.578 -0.7913  0.9661 -0.2631
  247MOL0     C33248  11.980   9.385   2.506  0.4916  0.6524  0.2552
  247MOL0     C33249  11.940   9.265   2.581 -0.4315  0.4523 -0.5343
  247MOL0     C33250  11.989   9.122   2.524  0.3645 -0.8384  0.7092
  247MOL0     C33251  11.963   9.001   2.609 -0.3605 -0.4393 -0.2522
  247MOL0     C33252  12.056   8.879   2.567  0.2808  0.5918  0.6127
  247MOL0     C33253  12.020   8.746   2.632  0.2590 -0.1575 -0.6458
  247MOL0    Cl33254  12.100   8.601   2.558 -0.0156 -0.2686  0.0285
  247MOL0     C33255  11.502   9.479   2.513  0.1755  0.0200 -0.3711
  247MOL0     C33256  11.364   9.512   2.510 -0.4674 -0.4119 -0.7883
  247MOL0     O33257  11.232   9.693   2.709 -0.7133  0.1330 -0.4274
  247MOL0     C33258  10.929   9.759   2.526  0.6069  0.2930 -0.7951
  247MOL0     C33259  10.793   9.788   2.548 -0.0735 -0.1762 -0.0414
  247MOL0     N33260  10.042  10.038   2.495  0.3748  0.1913 -0.1141
  247MOL0     N33261  10.006  10.155   2.525 -0.6348  0.0468  0.1714
  247MOL0     C33262   9.798  10.362   3.658  0.5567  0.2604  1.0004
  247MOL0     C33263   9.899  10.335   3.739 -0.4543 -0.2588 -0.3965
  247MOL0     C33264  10.352  10.313   3.835 -0.7164 -0.7030  0.2629
  247MOL0     C33265  10.358  10.329   3.973 -0.2036  0.0908  1.0087
  247MOL0     C33266  10.440  10.256   4.053  0.2963  0.1644  1.0307
  247MOL0     C33267  10.550  10.189   4.005  0.1030  0.0826 -0.5715
  247MOL0     O33268  10.638  10.140   4.104 -0.4459  0.4210  0.1576
  247MOL0     C33269  10.777  10.118   4.082 -0.0039  0.3354  0.3940
  247MOL0     C33270  10.866  10.241   4.035 -0.3049  1.2165 -1.2176
  247MOL0     C33271  10.874  10.336   4.154 -0.6058 -0.6461  0.5692
  247MOL0     C33272  11.002  10.322   4.233  0.3318  0.4504  0.0044
  247MOL0     C33273  11.042  10.184   4.270 -0.1702 -0.1156 -0.4588
  247MOL0     C33274  11.087  10.082   4.322  0.5176 -0.6160  1.0849
  247MOL0     C33275  10.556  10.177   3.869  0.3885 -0.7169  0.5806
  247MOL0     C33276  10.457  10.235   3.788 -0.2034  0.3065 -0.7786
  247MOL0     C33277  10.457  10.179   3.646 -0.2624  0.0432  0.2455
  247MOL0     H33278  10.044  10.645   3.737  1.3871 -1.2988  2.5643
  247MOL0     H33279   9.831  10.696   3.612 -0.6440  0.3129  1.5226
  247MOL0     H33280   9.749  10.365   3.373 -0.8706 -0.9010 -0.2396
  247MOL0     H33281   9.602  10.319   3.455 -0.3962  0.8320 -0.2794
  247MOL0     H33282   9.585  10.575   3.280 -2.5254  0.4165  0.2233
  247MOL0     H33283   9.467  10.445   3.311  0.3460  2.3003  1.9705
  247MOL0     H33284   9.524  10.424   3.099  1.9112 -0.2665 -1.1538
  247MOL0     H33285   9.609  10.288   3.183  1.1369 -0.8176 -2.3603
  247MOL0     H33286   9.732  10.530   3.068  1.1281 -1.9464 -2.2073
  247MOL0     H33287   9.813  10.413   3.177  0.7445 -0.3980  0.0034
  247MOL0     H33288   9.757  10.232   3.017 -0.0048  1.1502  1.2862
  247MOL0     H33289   9.682  10.362   2.917  0.2507  1.0579 -0.7231
  247MOL0     H33290   9.907  10.468   2.894  0.9514 -0.8483 -0.5526
  247MOL0     H33291   9.970  10.338   2.998 -0.4745  0.5889  0.9423
  247MOL0     H33292   9.815  10.275   2.743 -1.2549  0.8056  1.8765
  247MOL0     H33293   9.930  10.175   2.839  1.3019  0.3829  0.0003
  247MOL0     H33294  10.026  10.402   2.668  1.2360  1.0932  0.8443
  247MOL0     H33295  10.116  10.324   2.794  0.6795  1.6284 -0.5553
  247MOL0     H33296  10.189  10.090   2.787 -0.5763 -0.5358  0.3755
  247MOL0     H33297  10.115   9.806   2.639 -1.0901  1.7817  2.1144
  247MOL0     H33298  10.232   9.826   2.504 -1.4869 -0.8419 -0.0131
  247MOL0     H33299  10.366   9.952   2.707  0.6080 -0.9788  2.5646
  247MOL0     H33300  10.272   9.858   2.810  0.9074 -3.0536  0.7994
  247MOL0     H33301  10.330   9.654   2.641  0.9657  0.6057 -1.9526
  247MOL0     H33302  10.423   9.688   2.792  2.6923  3.1318  0.3526
  247MOL0     H33303  10.493   9.818   2.518  0.0224 -1.4635 -1.2879
  247MOL0     H33304  10.568   9.674   2.566  0.0743 -1.5182  1.4918
  247MOL0     H33305  10.807   9.889   2.872 -0.6337 -3.5635  0.9937
  247MOL0     H33306  11.030   9.815   2.843 -0.4703 -1.6831 -0.2461
  247MOL0     H33307  11.358   9.805   2.342 -1.9078 -1.1584 -0.6935
  247MOL0     H33308  11.614   9.756   2.358  0.0258  0.7636  1.7132
  247MOL0     H33309  11.771   9.626   2.660 -1.7822 -0.7146  0.6203
  247MOL0     H33310  11.742   9.451   2.632 -1.0133  0.2164 -0.6280
  247MOL0     H33311  11.993   9.592   2.528  1.6981 -0.0045  0.5974
  247MOL0     H33312  11.991   9.495   2.674 -1.0359 -1.3186 -0.4332
  247MOL0     H33313  11.927   9.380   2.411  1.8226 -1.9022 -0.4268
  247MOL0     H33314  12.088   9.394   2.489  0.4464  1.1153  0.2015
  247MOL0     H33315  11.831   9.251   2.587 -0.3110 -1.8827 -2.2340
  247MOL0     H33316  11.975   9.273   2.685  1.6294 -1.2695 -1.0306
  247MOL0     H33317  12.097   9.137   2.524  0.0414  2.0423  1.2521
  247MOL0     H33318  11.947   9.114   2.423  4.0866 -2.0259 -0.9099
  247MOL0     H33319  11.993   9.021   2.713 -1.0216  0.2323 -0.1799
  247MOL0     H33320  11.858   8.973   2.612 -0.7499  0.3896 -3.0711
  247MOL0     H33321  12.160   8.900   2.590  0.3010 -0.3566  1.4209
  247MOL0     H33322  12.044   8.867   2.459  1.0690  0.1714  0.5683
  247MOL0     H33323  12.052   8.764   2.735  1.2973  1.6442 -1.2255
  247MOL0     H33324  11.911   8.734   2.638  0.3006  0.2359  3.4783
  247MOL0     H33325  11.525   9.388   2.567 -2.7101 -0.5223  0.1519
  247MOL0     H33326  11.302   9.444   2.569  0.6211 -0.9397 -0.2255
  247MOL0     H33327  10.944   9.693   2.441  2.7936 -2.9270  1.8253
  247MOL0     H33328  10.725   9.749   2.474  1.0171 -1.4866 -0.4042
  247MOL0     H33329   9.724  10.288   3.632  2.3099 -1.5185  0.8530
  247MOL0     H33330   9.916  10.233   3.772  1.6284 -0.2112 -1.1112
  247MOL0     H33331  10.293  10.406   4.014  2.1855  4.1047 -1.9670
  247MOL0     H33332  10.415  10.262   4.159  0.9941  1.7035  1.1311
  247MOL0     H33333  10.785  10.045   4.002 -0.0779  0.6113  0.1309
  247MOL0     H33334  10.827  10.076   4.170  4.5834  1.9523 -1.1486
  247MOL0     H33335  10.822  10.292   3.948  1.1110 -0.8162 -3.2319
  247MOL0     H33336  10.967  10.204   4.016  0.6515  1.7492  2.1380
  247MOL0     H33337  10.792  10.324   4.225 -1.4081  0.6697 -0.0913
  247MOL0     H33338  10.872  10.438   4.115  3.5663  0.1757  1.9589
  247MOL0     H33339  11.081  10.359   4.167  2.4047 -3.6726 -0.1053
  247MOL0     H33340  10.982  10.375   4.327 -2.5961  2.5088 -1.6049
  247MOL0     H33341  11.122   9.996   4.376  4.1580  1.1842  1.8714
  247MOL0     H33342  10.639  10.122   3.825 -0.1400 -1.0382 -0.0122
  247MOL0     H33343  10.524  10.241   3.585 -1.9559  3.6336  1.7984
  247MOL0     H33344  10.499  10.078   3.643  1.4715  0.7284  0.2620
  247MOL0     H33345  10.358  10.180   3.600  0.0899  0.4014 -0.5331
  248MOL0     O33346   9.033   8.733  11.234  0.0331  0.5239  1.0454
  248MOL0     C33347   8.994   8.715  11.349  0.4021 -0.5505 -0.1521
  248MOL0     O33348   9.075   8.672  11.453 -0.1635 -0.2223 -0.1627
  248MOL0     C33349   9.200   8.619  11.420  0.0136  0.6241  0.1228
  248MOL0     C33350   9.294   8.691  11.348  0.9040 -0.0880 -0.7088
  248MOL0     C33351   9.412   8.638  11.302  0.5423 -0.0148  0.4842
  248MOL0     C33352   9.449   8.510  11.332 -1.1350  0.2407  0.7054
  248MOL0     O33353   9.569   8.457  11.289 -0.6141 -0.0808  0.4494
  248MOL0     C33354   9.633   8.363  11.371 -0.2543  0.6111 -0.1148
  248MOL0     C33355   9.796   8.373  11.365  0.1326 -0.0377  0.5514
  248MOL0     C33356   9.850   8.320  11.226 -0.4058 -0.9283 -0.3528
  248MOL0     C33357   9.999   8.270  11.229  0.5560 -0.5287  0.4233
  248MOL0     C33358  10.027   8.186  11.107  0.4711  0.2047  0.6271
  248MOL0     C33359  10.173   8.148  11.085  0.4213  0.4924  0.3636
  248MOL0     C33360  10.216   8.022  11.153  0.5901  0.0529  0.1918
  248MOL0     C33361  10.364   7.988  11.131  0.3410 -0.2454  0.4708
  248MOL0     N33362  10.414   8.019  10.991 -0.2945  0.3921 -0.7797
  248MOL0     C33363  10.351   7.981  10.873  0.3913  0.8088 -1.3418
  248MOL0     C33364  10.437   7.997  10.778 -1.1432  0.9782  0.0249
  248MOL0     C33365  10.413   7.983  10.631  0.1132 -0.1487 -0.6237
  248MOL0     C33366  10.482   7.865  10.585 -0.4632 -0.2607  0.1747
  248MOL0     C33367  10.529   7.882  10.437 -1.2055 -0.5262  0.0260
  248MOL0     C33368  10.615   7.757  10.385 -0.2134 -0.8297  0.4711
  248MOL0     O33369  10.760   7.778  10.407  0.3130  0.3294  0.2814
  248MOL0     C33370  10.828   7.683  10.348  0.5981  0.4533 -0.4229
  248MOL0     C33371  10.969   7.710  10.344 -0.3874  0.4141  0.5651
  248MOL0     C33372  11.055   7.623  10.284 -0.6371  0.4011  0.3354
  248MOL0     C33373  11.008   7.505  10.215  0.8336  0.5078 -0.9249
  248MOL0     C33374  11.097   7.402  10.176 -0.5889  0.0889 -0.1720
  248MOL0     O33375  11.228   7.414  10.189 -0.3771  0.0513  0.2377
  248MOL0     C33376  11.321   7.308  10.159  0.3138 -0.0631 -0.6637
  248MOL0     C33377  11.312   7.225  10.059  0.1088  0.9257  0.2303
  248MOL0     C33378  11.406   7.128  10.025  0.2075 -0.0196  0.1712
  248MOL0     C33379  11.529   7.124  10.100 -0.9304  0.4343  1.3118
  248MOL0     O33380  11.647   7.055  10.064  0.1508 -0.6265  0.5509
  248MOL0     C33381  11.655   6.978   9.941  0.2170  0.3967  0.2323
  248MOL0     C33382  11.797   6.913   9.939  0.2400  0.1881 -0.2678
  248MOL0     C33383  11.894   6.997   9.866  0.0265 -1.0314  1.0078
  248MOL0     C33384  12.030   6.906   9.847 -0.2053  0.1395  0.4402
  248MOL0     C33385  12.151   6.998   9.798  0.4154 -0.8783  0.5835
  248MOL0     C33386  12.277   6.936   9.837  0.4695 -0.9047  0.0751
  248MOL0     C33387  12.392   7.032   9.788 -0.1032  1.1380  0.0689
  248MOL0     C33388  12.529   6.959   9.797 -0.2904  0.0582  0.7255
  248MOL0    Cl33389  12.583   6.975   9.963 -0.1735 -0.0344  0.2267
  248MOL0     C33390  11.540   7.199  10.214 -0.3603 -0.0123 -0.5670
  248MOL0     C33391  11.435   7.289  10.249 -0.0089 -0.2362  0.4353
  248MOL0     O33392  11.048   7.305  10.121  0.4761 -0.1787 -0.2161
  248MOL0     C33393  10.865   7.484  10.206  0.4775 -1.0903 -0.3198
  248MOL0     C33394  10.783   7.563  10.280 -0.2912 -0.2263  0.1695
  248MOL0     N33395  10.552   8.060  10.824  0.2946 -1.6142  0.4060
  248MOL0     N33396  10.537   8.070  10.954 -0.1755  0.3291  0.2891
  248MOL0     C33397   9.355   8.433  11.400  0.1745  0.7885 -0.7031
  248MOL0     C33398   9.232   8.485  11.449  0.4982  0.1143 -0.7922
  248MOL0     C33399   8.857   8.754  11.389  0.4691 -0.0800 -0.3439
  248MOL0     C33400   8.816   8.730  11.526 -0.3915  0.4580 -0.0533
  248MOL0     C33401   8.683   8.766  11.569 -0.4302 -0.2339  0.3487
  248MOL0     C33402   8.594   8.826  11.486  0.2867  0.1364 -0.1342
  248MOL0     O33403   8.470   8.838  11.548 -0.2951  0.3320 -0.1659
  248MOL0     C33404   8.439   8.977  11.574 -0.3196 -0.1164  0.1995
  248MOL0     C33405   8.421   8.985  11.725 -0.3890 -0.6601 -0.3363
  248MOL0     C33406   8.372   9.125  11.767 -0.5555  0.1315  0.5762
  248MOL0     C33407   8.472   9.241  11.780 -0.4224  0.0536 -0.1564
  248MOL0     C33408   8.527   9.280  11.650  0.6055 -0.1678  0.6290
  248MOL0     C33409   8.564   9.318  11.541 -0.1786 -0.3466 -0.6121
  248MOL0     C33410   8.632   8.865  11.361 -0.4664  0.6961  0.5867
  248MOL0     C33411   8.758   8.819  11.308  0.2121  0.5569 -0.2607
  248MOL0     C33412   8.791   8.852  11.169 -0.4270 -0.1162  0.5301
  248MOL0     H33413   9.282   8.789  11.304  2.1650 -0.3437 -1.6955
  248MOL0     H33414   9.466   8.694  11.225 -2.8834  2.8329 -0.1013
  248MOL0     H33415   9.610   8.381  11.476 -0.4490  3.0482 -0.5135
  248MOL0     H33416   9.588   8.270  11.337 -2.2951  1.2123  0.8216
  248MOL0     H33417   9.835   8.310  11.446 -1.8920 -2.0366  0.0850
  248MOL0     H33418   9.839   8.471  11.388  0.9831 -0.8431  2.6245
  248MOL0     H33419   9.830   8.391  11.145 -0.1459 -1.1589 -0.6173
  248MOL0     H33420   9.772   8.246  11.206  1.0397 -1.8940 -2.8506
  248MOL0     H33421  10.062   8.359  11.235  1.7418 -1.2414 -0.7728
  248MOL0     H33422  10.002   8.212  11.322 -1.4633 -1.9204 -0.3096
  248MOL0     H33423   9.960   8.099  11.114  0.1293  0.4617  0.5994
  248MOL0     H33424   9.992   8.246  11.022 -0.8298 -1.0500  0.2373
  248MOL0     H33425  10.185   8.139  10.977  0.5726 -0.1933  0.4355
  248MOL0     H33426  10.237   8.233  11.113 -1.3143  2.3065 -0.8881
  248MOL0     H33427  10.150   7.938  11.130  0.1461 -0.0967  1.8558
  248MOL0     H33428  10.192   8.041  11.258 -0.6414  0.0708 -0.0707
  248MOL0     H33429  10.412   8.054  11.203 -1.4918 -0.0549  1.5782
  248MOL0     H33430  10.380   7.884  11.164  1.9188 -0.6675 -1.4078
  248MOL0     H33431  10.246   7.955  10.866 -0.0783  0.7350  2.9697
  248MOL0     H33432  10.307   7.972  10.603 -0.2063 -1.1246  0.8411
  248MOL0     H33433  10.449   8.077  10.589 -1.6875  1.3353  0.9675
  248MOL0     H33434  10.565   7.837  10.650 -1.2521 -0.1389  1.2553
  248MOL0     H33435  10.411   7.782  10.582  1.2857 -1.8199 -0.0132
  248MOL0     H33436  10.597   7.967  10.435  0.0640 -1.4935 -2.0360
  248MOL0     H33437  10.448   7.897  10.365 -2.9511  2.5099  2.4196
  248MOL0     H33438  10.611   7.751  10.276  1.1421  2.7651  0.0843
  248MOL0     H33439  10.575   7.662  10.422 -3.2847 -0.5107 -1.7369
  248MOL0     H33440  11.007   7.794  10.401 -1.2705  1.6663 -0.6400
  248MOL0     H33441  11.160   7.647  10.297 -0.9264  3.3951 -1.7615
  248MOL0     H33442  11.227   7.227   9.992 -1.1843 -1.9578  1.5989
  248MOL0     H33443  11.394   7.076   9.931  0.4934  0.0954  0.0705
  248MOL0     H33444  11.600   6.884   9.938  1.5670 -0.3948 -1.7412
  248MOL0     H33445  11.635   7.038   9.851 -3.4579 -0.8645  0.0520
  248MOL0     H33446  11.835   6.898  10.040  2.1838 -1.0189 -1.1135
  248MOL0     H33447  11.796   6.813   9.895  0.2625  0.0894 -0.0473
  248MOL0     H33448  11.856   7.035   9.770  0.0508  1.7559  1.9886
  248MOL0     H33449  11.923   7.081   9.930 -0.6788 -1.5298  1.9882
  248MOL0     H33450  12.028   6.820   9.780  1.0881  1.8737 -2.0048
  248MOL0     H33451  12.054   6.875   9.949  0.2574 -0.1879  0.2325
  248MOL0     H33452  12.140   7.091   9.854 -0.8352 -1.4543  1.3491
  248MOL0     H33453  12.147   7.022   9.692 -0.7645  0.2474  0.8565
  248MOL0     H33454  12.273   6.934   9.946  2.7976  2.7095  0.3981
  248MOL0     H33455  12.289   6.839   9.788  1.1670  0.0322 -1.7071
  248MOL0     H33456  12.389   7.121   9.851  1.3395  3.7540 -3.2330
  248MOL0     H33457  12.370   7.083   9.693  0.0836  0.9063 -0.1006
  248MOL0     H33458  12.527   6.855   9.763  3.7690 -0.0580  0.3140
  248MOL0     H33459  12.603   7.010   9.735  0.1088 -1.5633 -0.1770
  248MOL0     H33460  11.626   7.190  10.278 -1.8847 -0.6464  1.4894
  248MOL0     H33461  11.450   7.333  10.347 -4.5038 -0.2123  1.3636
  248MOL0     H33462  10.830   7.398  10.150  1.8468 -2.0579  0.2424
  248MOL0     H33463  10.680   7.529  10.285 -0.3531 -0.2090 -0.9319
  248MOL0     H33464   9.379   8.329  11.420 -1.0239  0.2982 -1.6494
  248MOL0     H33465   9.163   8.422  11.506  0.2476 -0.6563 -1.9224
  248MOL0     H33466   8.888   8.672  11.584 -2.0877 -0.8483  0.8418
  248MOL0     H33467   8.652   8.738  11.669  0.1777  3.5793  1.7826
  248MOL0     H33468   8.344   8.991  11.521 -0.2663 -0.6614 -0.0505
  248MOL0     H33469   8.517   9.046  11.542 -1.5556  0.8340 -0.8634
  248MOL0     H33470   8.519   8.962  11.769  0.6158  1.3622 -1.3644
  248MOL0     H33471   8.354   8.903  11.753  0.3334 -1.0945  0.1718
  248MOL0     H33472   8.335   9.108  11.869 -1.7121  2.5491  0.6107
  248MOL0     H33473   8.281   9.159  11.717 -0.8921 -0.3356  0.8570
  248MOL0     H33474   8.400   9.315  11.816 -2.4571 -2.5268  1.5751
  248MOL0     H33475   8.548   9.229  11.857  0.6223  2.8647 -0.6360
  248MOL0     H33476   8.612   9.372  11.462  2.2636  2.1301  2.3169
  248MOL0     H33477   8.560   8.922  11.303 -1.1190  1.4303  2.0659
  248MOL0     H33478   8.700   8.892  11.123  0.4058  1.0399 -0.1566
  248MOL0     H33479   8.859   8.938  11.162  0.1390 -0.5281  0.8793
  248MOL0     H33480   8.815   8.769  11.102 -0.0522  0.3687  0.0458
  249MOL0     O33481   8.770   7.660   2.704 -0.4647 -0.2338  0.4452
  249MOL0     C33482   8.851   7.596   2.762 -0.2652  0.2239  0.0191
  249MOL0     O33483   8.978   7.635   2.783  0.7869  0.7891 -0.3984
  249MOL0     C33484   9.007   7.766   2.752  0.4053  0.2694 -0.6689
  249MOL0     C33485   8.943   7.875   2.809  0.5932 -0.1602  0.7805
  249MOL0     C33486   8.993   8.006   2.788 -0.4143  0.7940 -0.7135
  249MOL0     C33487   9.101   8.024   2.709  0.0752 -0.2800  0.5266
  249MOL0     O33488   9.162   8.148   2.692 -0.1878 -0.1489  0.1489
  249MOL0     C33489   9.113   8.215   2.572  0.2349  0.5561  0.2994
  249MOL0     C33490   9.220   8.322   2.550  0.8723 -0.0606  0.0334
  249MOL0     C33491   9.356   8.266   2.498  0.1924 -0.6826  0.5442
  249MOL0     C33492   9.377   8.242   2.345  0.4852 -0.3320  0.0107
  249MOL0     C33493   9.360   8.366   2.264 -0.1584  0.9244  0.4313
  249MOL0     C33494   9.474   8.474   2.292 -0.1505  1.1705 -1.2534
  249MOL0     C33495   9.486   8.586   2.169  0.6745 -0.0356  0.2677
  249MOL0     C33496   9.369   8.674   2.139 -0.7197 -0.2474 -0.5870
  249MOL0     N33497   9.348   8.756   2.259 -0.2749  0.5530 -0.1898
  249MOL0     C33498   9.237   8.755   2.322  0.0377 -0.8128  0.0874
  249MOL0     C33499   9.257   8.822   2.440  0.4603 -0.1947  0.2238
  249MOL0     C33500   9.156   8.861   2.542  0.2020 -0.2509 -0.0999
  249MOL0     C33501   9.103   8.997   2.507  0.6454 -0.0177 -0.8429
  249MOL0     C33502   9.189   9.120   2.555  0.3016 -0.1893 -1.1644
  249MOL0     C33503   9.194   9.145   2.708  0.9144  0.4241 -0.3213
  249MOL0     O33504   9.294   9.237   2.752  0.3370  0.0629 -0.4517
  249MOL0     C33505   9.415   9.195   2.791 -0.7036  0.4487  0.1159
  249MOL0     C33506   9.486   9.280   2.878  0.1019  0.7968 -0.6456
  249MOL0     C33507   9.617   9.240   2.930  0.2590 -0.2756  0.2139
  249MOL0     C33508   9.658   9.110   2.910 -0.9144  0.6571  0.6469
  249MOL0     C33509   9.782   9.069   2.976 -0.2738  0.1246  0.4625
  249MOL0     O33510   9.824   9.132   3.085  0.5353 -0.5675 -0.5890
  249MOL0     C33511   9.953   9.111   3.116 -0.5373  0.4382 -1.0895
  249MOL0     C33512   9.998   9.047   3.238  0.2934  0.4275 -0.3804
  249MOL0     C33513  10.130   9.039   3.268  0.0958  0.5725 -0.1410
  249MOL0     C33514  10.229   9.078   3.177  0.2352  0.6312  0.0230
  249MOL0     O33515  10.367   9.061   3.206  0.0902  0.6232 -0.3706
  249MOL0     C33516  10.464   9.129   3.133 -0.2973  0.3127  0.7263
  249MOL0     C33517  10.590   9.128   3.215  0.1144 -0.9124  1.0235
  249MOL0     C33518  10.681   9.244   3.176  1.3954 -0.2632  0.5502
  249MOL0     C33519  10.713   9.253   3.030 -0.8045  0.1169  1.1981
  249MOL0     C33520  10.788   9.387   2.982 -0.4135 -0.3724 -0.1046
  249MOL0     C33521  10.908   9.411   3.060 -0.8746 -0.0559  0.1360
  249MOL0     C33522  10.995   9.518   3.001 -0.0707  0.2977  0.4356
  249MOL0     C33523  11.083   9.576   3.121 -0.5680  0.3478  1.1686
  249MOL0    Cl33524  10.972   9.668   3.239 -0.1004  0.0270 -0.0294
  249MOL0     C33525  10.191   9.145   3.062  1.0482 -0.5674  0.0770
  249MOL0     C33526  10.052   9.161   3.027  0.3453  0.0190 -0.5560
  249MOL0     O33527   9.853   8.993   2.908 -0.0177 -0.3408 -0.5799
  249MOL0     C33528   9.588   9.035   2.819 -0.0486  0.1732  0.2935
  249MOL0     C33529   9.468   9.070   2.759 -0.4198  0.2966  0.3606
  249MOL0     N33530   9.395   8.864   2.445  0.4049  0.6124 -0.2751
  249MOL0     N33531   9.443   8.817   2.335  0.4043 -0.0231 -0.4433
  249MOL0     C33532   9.167   7.912   2.651  0.6543  0.6933 -0.9123
  249MOL0     C33533   9.112   7.787   2.672  0.1823  0.3942  0.7816
  249MOL0     C33534   8.820   7.454   2.809  0.2707  0.5748  0.5276
  249MOL0     C33535   8.909   7.387   2.894 -0.1290  0.3199 -0.3660
  249MOL0     C33536   8.898   7.248   2.931 -0.3109  0.5112  0.0591
  249MOL0     C33537   8.800   7.165   2.872  1.4987  0.1351  0.0564
  249MOL0     O33538   8.797   7.029   2.898  0.0916  0.4174  0.2475
  249MOL0     C33539   8.766   6.934   2.792 -0.2034  0.0065 -0.8272
  249MOL0     C33540   8.878   6.931   2.681 -0.1834  1.3454 -0.3824
  249MOL0     C33541   9.019   6.908   2.732 -0.7246  0.6093  0.7121
  249MOL0     C33542   9.046   6.780   2.810 -0.0184  0.5281  0.3356
  249MOL0     C33543   8.970   6.660   2.768  0.2207  0.0149  1.4964
  249MOL0     C33544   8.901   6.570   2.728 -0.4505  0.1449  0.0748
  249MOL0     C33545   8.707   7.232   2.796 -0.0063  0.3293 -0.3104
  249MOL0     C33546   8.711   7.370   2.759  0.1185 -0.4943 -0.5297
  249MOL0     C33547   8.613   7.427   2.654  0.5698  0.8151 -0.2564
  249MOL0     H33548   8.859   7.851   2.874 -1.4329  2.1161 -0.8330
  249MOL0     H33549   8.951   8.088   2.845  1.0998  2.0590 -1.3576
  249MOL0     H33550   9.108   8.157   2.480 -0.0979  0.9300  0.0791
  249MOL0     H33551   9.012   8.252   2.589 -0.0819  0.4692 -1.2212
  249MOL0     H33552   9.236   8.361   2.651 -0.8230 -0.0497  0.3276
  249MOL0     H33553   9.179   8.403   2.488 -1.6500 -0.4222  1.1276
  249MOL0     H33554   9.387   8.181   2.560  0.8015  0.3167  1.6585
  249MOL0     H33555   9.436   8.333   2.531  0.5471 -1.1104  0.5679
  249MOL0     H33556   9.475   8.196   2.327  2.1024  2.4654  1.1432
  249MOL0     H33557   9.298   8.173   2.312  1.4613 -3.5279  3.5729
  249MOL0     H33558   9.354   8.347   2.156 -0.0965 -0.4741  0.6603
  249MOL0     H33559   9.265   8.410   2.293 -1.5784 -0.6445 -1.5289
  249MOL0     H33560   9.454   8.526   2.386  2.2134  0.2730 -0.2057
  249MOL0     H33561   9.572   8.429   2.308 -0.4558  0.7919 -0.3871
  249MOL0     H33562   9.507   8.531   2.077  1.8110  2.9154 -1.3738
  249MOL0     H33563   9.567   8.652   2.201 -0.3030  0.5998  1.5638
  249MOL0     H33564   9.390   8.744   2.058 -0.6842 -1.0878 -1.3154
  249MOL0     H33565   9.282   8.609   2.120 -0.4056 -0.8508 -0.0151
  249MOL0     H33566   9.140   8.732   2.280  0.1745 -0.1751 -0.6080
  249MOL0     H33567   9.081   8.782   2.538 -0.0216 -0.0147 -2.8758
  249MOL0     H33568   9.194   8.859   2.644  0.9928 -1.7170 -0.3933
  249MOL0     H33569   9.073   9.013   2.403  2.5818  1.4498 -1.2476
  249MOL0     H33570   9.009   8.988   2.562  0.3301 -1.4985 -1.5728
  249MOL0     H33571   9.145   9.212   2.516  0.6810  1.0093  1.0380
  249MOL0     H33572   9.289   9.102   2.515  1.9021  1.6132  1.7178
  249MOL0     H33573   9.203   9.049   2.759 -1.7130 -0.0371 -0.5413
  249MOL0     H33574   9.094   9.171   2.745  0.3216 -2.6188  0.5071
  249MOL0     H33575   9.436   9.372   2.907 -2.9356 -0.5044 -1.3764
  249MOL0     H33576   9.663   9.316   2.992 -0.1486  0.7149 -0.6644
  249MOL0     H33577   9.924   9.010   3.308 -0.3910  1.9019 -0.2898
  249MOL0     H33578  10.160   8.988   3.359  1.6753 -0.4580 -1.1992
  249MOL0     H33579  10.470   9.066   3.044 -2.1033  2.3956 -0.9890
  249MOL0     H33580  10.433   9.227   3.096  0.9380 -0.0343 -1.3865
  249MOL0     H33581  10.552   9.144   3.316 -1.0512  1.2709  0.2979
  249MOL0     H33582  10.643   9.033   3.202  1.0344 -0.5462  1.9223
  249MOL0     H33583  10.634   9.339   3.200 -2.7705 -2.1269  0.6982
  249MOL0     H33584  10.770   9.231   3.238  1.8996 -3.1666 -0.6141
  249MOL0     H33585  10.617   9.241   2.980 -1.0279 -2.0469  2.0614
  249MOL0     H33586  10.763   9.165   2.992 -1.0294  1.0145 -1.3567
  249MOL0     H33587  10.719   9.470   3.001 -1.8451 -1.8228  1.4492
  249MOL0     H33588  10.823   9.393   2.878  0.1772  0.3554  0.1244
  249MOL0     H33589  10.886   9.436   3.164  0.5605 -1.8752  0.9111
  249MOL0     H33590  10.961   9.317   3.043 -1.7055 -0.4246 -0.5289
  249MOL0     H33591  10.925   9.596   2.969  0.4998  1.6709  2.3771
  249MOL0     H33592  11.060   9.477   2.923 -1.5434 -1.9128  0.2797
  249MOL0     H33593  11.142   9.494   3.164 -0.2541  0.2569  0.5729
  249MOL0     H33594  11.156   9.644   3.077 -0.9677  1.9313  2.8202
  249MOL0     H33595  10.259   9.196   2.994 -1.3153  2.1696 -0.4343
  249MOL0     H33596  10.037   9.214   2.934  3.0267  1.1663 -0.4375
  249MOL0     H33597   9.617   8.931   2.804  1.5007  0.8297 -1.8494
  249MOL0     H33598   9.412   9.007   2.692 -3.2712  2.4277  0.5740
  249MOL0     H33599   9.255   7.940   2.594  0.1956  5.0886  0.1977
  249MOL0     H33600   9.163   7.697   2.641  1.6450  1.1668  0.8550
  249MOL0     H33601   8.999   7.437   2.929 -0.0227 -0.3667  0.3593
  249MOL0     H33602   8.974   7.193   2.986  0.7364  0.5941 -1.2784
  249MOL0     H33603   8.671   6.948   2.739  0.3798 -0.5917 -2.0581
  249MOL0     H33604   8.761   6.836   2.841  0.2204  1.2923  2.0047
  249MOL0     H33605   8.863   7.030   2.637  0.7890  2.1176  0.9485
  249MOL0     H33606   8.848   6.859   2.604 -0.5809 -0.1010  1.0542
  249MOL0     H33607   9.056   6.988   2.797  4.7673 -0.6482 -0.4341
  249MOL0     H33608   9.087   6.907   2.647  1.1357  2.5850  2.0585
  249MOL0     H33609   9.154   6.767   2.817  0.2310  1.9680 -0.4399
  249MOL0     H33610   9.035   6.796   2.917  0.4165  1.3522  0.2705
  249MOL0     H33611   8.844   6.489   2.688 -1.6985 -0.0318  2.0762
  249MOL0     H33612   8.628   7.181   2.742 -1.3420  3.4039 -1.4749
  249MOL0     H33613   8.559   7.511   2.699  1.4476  1.4780 -0.4001
  249MOL0     H33614   8.658   7.463   2.561 -2.0046  0.2007 -1.8268
  249MOL0     H33615   8.537   7.352   2.630 -0.8144  3.0083 -3.3115
  250MOL0     O33616   4.955  10.797   9.376  0.2794  0.7233  0.4049
  250MOL0     C33617   4.988  10.910   9.355 -0.2834 -1.6284 -0.4084
  250MOL0     O33618   4.913  11.024   9.367  0.3099  0.4030  0.0681
  250MOL0     C33619   4.781  11.002   9.404 -1.0609 -1.2878 -0.9375
  250MOL0     C33620   4.738  10.930   9.517 -0.1322 -0.3240 -0.4008
  250MOL0     C33621   4.607  10.916   9.548 -0.5882  0.4484 -0.6866
  250MOL0     C33622   4.505  10.969   9.469 -0.4873  0.8724 -0.5195
  250MOL0     O33623   4.375  10.956   9.516 -0.2221  0.7915 -0.7428
  250MOL0     C33624   4.277  11.020   9.432  0.1615  0.2726  0.6641
  250MOL0     C33625   4.127  10.993   9.465  0.0776  0.5470  0.0455
  250MOL0     C33626   4.025  11.007   9.346 -0.4369  0.4493  0.3379
  250MOL0     C33627   3.894  10.944   9.389  0.5640  0.0860  0.1613
  250MOL0     C33628   3.770  10.980   9.298  0.0102 -0.0158  0.8018
  250MOL0     C33629   3.631  10.967   9.372  0.1883  0.0023  0.2196
  250MOL0     C33630   3.602  10.820   9.407  0.3254  0.0894 -0.7821
  250MOL0     C33631   3.470  10.823   9.476  0.0240 -0.4612  1.1653
  250MOL0     N33632   3.419  10.686   9.479 -0.2062  0.5106  0.1069
  250MOL0     C33633   3.395  10.603   9.370 -1.0705  0.1934  0.1328
  250MOL0     C33634   3.347  10.495   9.431  0.2039  0.5664  1.2559
  250MOL0     C33635   3.321  10.372   9.346 -0.0082  0.3395 -0.8272
  250MOL0     C33636   3.175  10.334   9.378  0.4062  0.3008  0.1544
  250MOL0     C33637   3.154  10.237   9.496 -0.8102  0.3749 -0.0947
  250MOL0     C33638   3.013  10.170   9.497 -1.0077 -0.0345 -0.5190
  250MOL0     O33639   3.001  10.074   9.392  0.6881 -0.2220 -0.5969
  250MOL0     C33640   2.908   9.976   9.421  0.3318  0.3335 -0.4059
  250MOL0     C33641   2.773  10.008   9.455 -0.2353  0.2763  0.7918
  250MOL0     C33642   2.696   9.902   9.509 -0.1606  0.2772  0.1336
  250MOL0     C33643   2.743   9.774   9.514 -0.4682  0.0401 -0.2552
  250MOL0     C33644   2.669   9.667   9.588  0.0114  0.2797 -0.1069
  250MOL0     O33645   2.547   9.710   9.634 -0.6282  0.3943 -0.1563
  250MOL0     C33646   2.458   9.629   9.703  0.2954 -0.5910  0.1505
  250MOL0     C33647   2.388   9.672   9.819 -1.0870 -0.5799  0.3012
  250MOL0     C33648   2.296   9.587   9.885  0.0528  0.0616 -0.0477
  250MOL0     C33649   2.275   9.453   9.844  0.2161 -0.4489 -0.2395
  250MOL0     O33650   2.184   9.372   9.911 -0.1625  0.4040 -0.4225
  250MOL0     C33651   2.211   9.230   9.898  0.3656 -0.6976  0.0268
  250MOL0     C33652   2.099   9.169   9.989  0.7412  0.0173  0.0352
  250MOL0     C33653   1.988   9.138   9.895 -1.0369 -0.2146  0.4690
  250MOL0     C33654   1.852   9.127   9.969 -0.6309 -0.1720 -0.8769
  250MOL0     C33655   1.730   9.109   9.867  0.1027 -0.0658  0.3834
  250MOL0     C33656   1.592   9.144   9.936 -0.1295 -0.1806  0.4064
  250MOL0     C33657   1.561   9.065  10.067 -0.2267  0.7396 -0.7724
  250MOL0     C33658   1.570   8.906  10.057  0.4605  0.5375  0.2631
  250MOL0    Cl33659   1.493   8.823   9.925  0.1157  0.4114  0.0917
  250MOL0     C33660   2.331   9.416   9.723  0.0103 -0.2795  0.2518
  250MOL0     C33661   2.415   9.506   9.658 -0.7497  0.2687  0.2361
  250MOL0     O33662   2.725   9.556   9.608  0.3710  0.8096 -0.4810
  250MOL0     C33663   2.874   9.745   9.468  0.4981  0.6191 -0.6432
  250MOL0     C33664   2.958   9.852   9.432  0.2486  0.0304  0.3808
  250MOL0     N33665   3.350  10.512   9.570  0.0861  0.4216 -0.0444
  250MOL0     N33666   3.387  10.627   9.598  0.4859 -0.9302 -0.2343
  250MOL0     C33667   4.550  11.027   9.345  0.3095  0.3711 -0.2708
  250MOL0     C33668   4.686  11.051   9.315  0.6589  0.2171 -0.5381
  250MOL0     C33669   5.133  10.930   9.325 -0.1887  1.1899 -0.6942
  250MOL0     C33670   5.182  11.055   9.330 -0.5211  0.1970 -0.0283
  250MOL0     C33671   5.316  11.092   9.300  0.4351  0.6651 -0.9425
  250MOL0     C33672   5.408  10.994   9.270 -0.3525  0.5471 -0.0352
  250MOL0     O33673   5.543  11.018   9.247  0.8821  0.0990  0.1013
  250MOL0     C33674   5.594  11.149   9.271  0.2384  0.4688 -0.0337
  250MOL0     C33675   5.626  11.163   9.416 -0.1285  0.7587  0.0387
  250MOL0     C33676   5.739  11.256   9.448  0.2834  0.2674 -0.3090
  250MOL0     C33677   5.708  11.404   9.424  0.7971 -0.0306  0.2720
  250MOL0     C33678   5.586  11.451   9.488  0.7354  0.2201 -0.7174
  250MOL0     C33679   5.501  11.512   9.556  0.1672  0.1103 -0.2044
  250MOL0     C33680   5.363  10.851   9.263 -0.1339  0.0571 -0.1814
  250MOL0     C33681   5.222  10.818   9.289 -0.0482  0.8269  0.5938
  250MOL0     C33682   5.192  10.667   9.283 -0.6727  0.3579  0.9244
  250MOL0     H33683   4.806  10.882   9.586 -0.9961 -1.2530 -0.1903
  250MOL0     H33684   4.577  10.845   9.625  0.2629  0.0506 -0.7112
  250MOL0     H33685   4.286  11.129   9.431 -1.8698  0.5100 -2.2123
  250MOL0     H33686   4.294  10.986   9.330 -1.0259  1.5732  0.0101
  250MOL0     H33687   4.093  11.062   9.543  1.2261 -0.3164  1.3547
  250MOL0     H33688   4.110  10.892   9.504 -0.4460  1.2439  1.7589
  250MOL0     H33689   4.073  10.960   9.260  1.1639  1.9396  0.3554
  250MOL0     H33690   4.015  11.112   9.316  0.3779  0.3259 -0.4130
  250MOL0     H33691   3.898  10.835   9.386 -0.9482 -0.0679  2.0069
  250MOL0     H33692   3.872  10.978   9.490  1.4609  4.1039 -0.7944
  250MOL0     H33693   3.786  11.088   9.284  1.8748 -0.4415 -0.8363
  250MOL0     H33694   3.766  10.947   9.194  0.6886  2.1292  0.0303
  250MOL0     H33695   3.648  11.028   9.461  0.3240 -0.5540  0.5802
  250MOL0     H33696   3.561  11.013   9.302  2.9797  0.5922 -2.4498
  250MOL0     H33697   3.675  10.777   9.477 -0.4483 -1.7338 -1.0226
  250MOL0     H33698   3.595  10.759   9.316 -2.4755  0.3471 -0.8147
  250MOL0     H33699   3.469  10.873   9.573 -1.6661  1.7389  0.0955
  250MOL0     H33700   3.408  10.880   9.406  0.2266  0.2959  1.5931
  250MOL0     H33701   3.427  10.626   9.269 -1.5057  3.2027  0.5957
  250MOL0     H33702   3.330  10.392   9.239  0.7078  0.0354 -0.8296
  250MOL0     H33703   3.390  10.291   9.372 -1.5545 -1.1094 -1.0253
  250MOL0     H33704   3.119  10.428   9.381 -0.8288 -0.1114 -3.6840
  250MOL0     H33705   3.132  10.273   9.298  1.4395 -2.8441  1.8566
  250MOL0     H33706   3.163  10.283   9.595  0.0330  2.2044 -0.9698
  250MOL0     H33707   3.227  10.157   9.494 -1.0561  0.1554 -0.4274
  250MOL0     H33708   2.935  10.247   9.495 -0.8081  0.2107  0.3398
  250MOL0     H33709   3.005  10.125   9.597  2.5882 -0.1004 -0.1248
  250MOL0     H33710   2.725  10.106   9.462 -0.9559 -0.1469  2.0440
  250MOL0     H33711   2.597   9.928   9.545 -0.1480  0.2572  0.1822
  250MOL0     H33712   2.417   9.772   9.851  0.6607 -0.5431 -1.2331
  250MOL0     H33713   2.235   9.625   9.967 -2.3955 -2.4203 -0.5758
  250MOL0     H33714   2.194   9.198   9.794  1.1583  2.2841 -1.1021
  250MOL0     H33715   2.313   9.210   9.932  0.4708 -0.2864 -0.0438
  250MOL0     H33716   2.139   9.081  10.039 -1.8048 -2.9155 -2.6329
  250MOL0     H33717   2.064   9.244  10.060  2.2746 -0.6520  1.5724
  250MOL0     H33718   1.980   9.217   9.820  0.2480 -3.5033 -3.4434
  250MOL0     H33719   2.017   9.056   9.829 -1.4633 -0.4034  0.5099
  250MOL0     H33720   1.840   9.210  10.038 -1.1279 -1.6571  0.9201
  250MOL0     H33721   1.854   9.037  10.032  0.6798 -0.1345 -0.8404
  250MOL0     H33722   1.716   9.003   9.843 -1.6012 -0.5755  3.2054
  250MOL0     H33723   1.754   9.172   9.781  1.1927 -0.0764  0.6596
  250MOL0     H33724   1.582   9.253   9.944  0.1059 -0.0956 -0.4221
  250MOL0     H33725   1.518   9.122   9.859 -1.5827 -0.3119  1.7742
  250MOL0     H33726   1.461   9.091  10.104  0.1071 -0.5504  1.1883
  250MOL0     H33727   1.633   9.102  10.140 -3.2508  0.5694  2.5941
  250MOL0     H33728   1.675   8.876  10.063  0.5169  0.0963 -2.0210
  250MOL0     H33729   1.524   8.873  10.150 -0.3379 -1.2900 -0.7206
  250MOL0     H33730   2.330   9.317   9.678  0.7354 -0.3500  0.3814
  250MOL0     H33731   2.465   9.468   9.570 -0.2657  0.1443  0.5631
  250MOL0     H33732   2.904   9.642   9.457 -2.2704 -0.6097  1.6976
  250MOL0     H33733   3.060   9.845   9.396  0.6264  0.4404  1.3409
  250MOL0     H33734   4.484  11.082   9.279 -2.1556 -0.1899  1.5782
  250MOL0     H33735   4.719  11.093   9.220  0.0951  0.1089 -0.7883
  250MOL0     H33736   5.113  11.135   9.356 -0.2506  0.2409  0.5653
  250MOL0     H33737   5.334  11.199   9.312 -1.0747  0.6738  2.0653
  250MOL0     H33738   5.537  11.234   9.231  2.0226  1.8464  0.2208
  250MOL0     H33739   5.678  11.152   9.201 -1.1568  0.6994 -1.7954
  250MOL0     H33740   5.657  11.064   9.450  2.3211  1.2949 -0.4352
  250MOL0     H33741   5.530  11.187   9.462 -1.1637 -0.4201 -1.3981
  250MOL0     H33742   5.833  11.230   9.399  2.2719  2.9718  1.7159
  250MOL0     H33743   5.759  11.247   9.556 -1.5273  3.4894  0.4395
  250MOL0     H33744   5.794  11.470   9.438  0.2877  0.9500 -1.0671
  250MOL0     H33745   5.689  11.405   9.317 -1.7420  0.8932  0.6847
  250MOL0     H33746   5.425  11.562   9.612  0.9852  1.7425 -0.4769
  250MOL0     H33747   5.430  10.771   9.234 -1.5814 -0.6169 -1.8580
  250MOL0     H33748   5.110  10.653   9.213  0.6567 -0.4784 -0.5162
  250MOL0     H33749   5.282  10.613   9.253 -0.4553 -1.3483  4.1669
  250MOL0     H33750   5.157  10.626   9.378 -0.0037 -0.7008  0.7277
  251MOL0     O33751   0.614   7.308   6.974  0.2928 -0.3955 -0.2466
  251MOL0     C33752   0.540   7.214   6.976 -0.2416  0.3259  0.9932
  251MOL0     O33753   0.567   7.093   6.921 -0.2853  0.3534  0.3508
  251MOL0     C33754   0.599   7.092   6.782 -0.6262 -0.1492 -0.4871
  251MOL0     C33755   0.653   6.980   6.731 -0.3847  0.3232  0.1662
  251MOL0     C33756   0.673   6.963   6.591 -0.0326  0.0419  0.5789
  251MOL0     C33757   0.636   7.059   6.503  0.5570  0.0865 -0.4431
  251MOL0     O33758   0.617   7.044   6.368 -0.5119  0.0023  0.7141
  251MOL0     C33759   0.682   6.926   6.313  0.6574 -0.2333  0.6672
  251MOL0     C33760   0.667   6.927   6.161 -0.0710  0.5814 -0.8248
  251MOL0     C33761   0.534   6.976   6.118 -0.1885 -0.7218 -0.7969
  251MOL0     C33762   0.509   6.960   5.968 -0.0987  0.9555 -0.5762
  251MOL0     C33763   0.361   6.934   5.938 -0.0718  0.0823 -0.3517
  251MOL0     C33764   0.310   6.793   5.989  0.5027  0.3293  0.4271
  251MOL0     C33765   0.170   6.771   5.924 -0.1407 -0.7869 -0.3752
  251MOL0     C33766   0.154   6.621   5.879  0.3679 -0.4351  0.9294
  251MOL0     N33767   0.134   6.530   5.997  0.3091 -0.0056  0.6221
  251MOL0     C33768   0.204   6.525   6.120  0.2215  0.2647  0.4195
  251MOL0     C33769   0.181   6.400   6.164  1.2080  1.0453 -0.1059
  251MOL0     C33770   0.226   6.351   6.303 -0.0523 -0.1622  0.0242
  251MOL0     C33771   0.137   6.246   6.369  0.3877 -0.2190  0.3390
  251MOL0     C33772   0.199   6.174   6.494 -0.3170  0.6722 -0.8269
  251MOL0     C33773   0.118   6.071   6.567  0.5495 -0.1917 -0.2526
  251MOL0     O33774   0.115   5.943   6.509  0.4674  1.0869  0.6035
  251MOL0     C33775   0.202   5.858   6.561  0.3421 -0.2697  0.0035
  251MOL0     C33776   0.333   5.855   6.512  0.0567 -0.6248 -0.4447
  251MOL0     C33777   0.421   5.788   6.589 -0.1452  0.4873 -1.1791
  251MOL0     C33778   0.387   5.730   6.715 -0.3923 -0.0445 -0.0237
  251MOL0     C33779   0.479   5.664   6.807  0.4779  0.7819  0.2596
  251MOL0     O33780   0.616   5.673   6.770  0.7915  0.0643 -0.1459
  251MOL0     C33781   0.704   5.598   6.839  0.0303  0.2743 -0.5460
  251MOL0     C33782   0.771   5.492   6.784  0.3818  0.2011 -0.1499
  251MOL0     C33783   0.865   5.421   6.854  0.2534 -0.9023 -0.3449
  251MOL0     C33784   0.893   5.444   6.986 -0.5013  0.4068 -0.3204
  251MOL0     O33785   0.996   5.358   7.030  0.1580 -0.8390 -0.4212
  251MOL0     C33786   1.040   5.374   7.165  0.9546 -0.6350 -0.0129
  251MOL0     C33787   1.123   5.255   7.211  0.2866 -0.8466 -0.5744
  251MOL0     C33788   1.261   5.256   7.170  0.0033 -0.5518 -1.3890
  251MOL0     C33789   1.330   5.121   7.167  0.8279 -0.1123 -1.3882
  251MOL0     C33790   1.478   5.135   7.131  0.1506 -0.5449  0.3560
  251MOL0     C33791   1.572   5.188   7.234 -0.7645  0.4782 -1.2166
  251MOL0     C33792   1.566   5.120   7.372 -0.3569 -0.5176  0.1520
  251MOL0     C33793   1.687   5.164   7.439 -0.1275  0.2145 -0.7868
  251MOL0    Cl33794   1.843   5.143   7.359 -0.4021 -0.0005 -0.0395
  251MOL0     C33795   0.834   5.557   7.048  0.8930 -1.2387 -0.2093
  251MOL0     C33796   0.726   5.632   6.971 -0.3650  0.0992 -0.3728
  251MOL0     O33797   0.438   5.593   6.898 -0.4802  0.3886  1.0118
  251MOL0     C33798   0.251   5.743   6.751 -0.0075  0.6238  1.1027
  251MOL0     C33799   0.159   5.802   6.674 -0.4840  0.6138  0.4754
  251MOL0     N33800   0.095   6.333   6.080 -0.1384  0.0388 -0.4399
  251MOL0     N33801   0.073   6.415   5.986  0.0360 -0.3560  0.4050
  251MOL0     C33802   0.580   7.181   6.562 -0.2634 -0.1451  0.0402
  251MOL0     C33803   0.553   7.189   6.699 -0.3019 -0.2294  0.2962
  251MOL0     C33804   0.421   7.208   7.064 -0.6922 -0.9790  0.1160
  251MOL0     C33805   0.324   7.126   7.016  0.3245 -0.0805 -0.1847
  251MOL0     C33806   0.210   7.083   7.090 -1.0025  0.7828  0.0194
  251MOL0     C33807   0.193   7.137   7.220 -0.0903 -0.2961  0.3535
  251MOL0     O33808   0.087   7.115   7.302 -0.5438 -0.2389  0.1358
  251MOL0     C33809  -0.031   7.060   7.239  0.6286  0.2353 -1.0355
  251MOL0     C33810  -0.154   7.086   7.336 -0.5323  0.2744  0.5825
  251MOL0     C33811  -0.139   7.021   7.476  0.0818 -0.9625  0.5558
  251MOL0     C33812  -0.134   6.864   7.463  0.3819 -0.9231  1.3782
  251MOL0     C33813  -0.016   6.817   7.525 -0.0516 -0.0574  0.0234
  251MOL0     C33814   0.070   6.765   7.592  0.2732  0.0912 -0.3036
  251MOL0     C33815   0.289   7.228   7.269 -0.6513  0.4754 -0.3667
  251MOL0     C33816   0.405   7.265   7.195  0.6262  0.3485 -0.1348
  251MOL0     C33817   0.516   7.339   7.262 -0.1203  0.2295  0.2984
  251MOL0     H33818   0.679   6.905   6.806  0.0153  2.0125  1.7870
  251MOL0     H33819   0.724   6.870   6.566 -1.3329 -0.9158  1.3267
  251MOL0     H33820   0.791   6.926   6.321  0.8824 -0.8917 -1.7164
  251MOL0     H33821   0.644   6.838   6.364 -1.9008  1.3545  1.7028
  251MOL0     H33822   0.678   6.825   6.125 -2.4716 -0.8834  2.0611
  251MOL0     H33823   0.738   6.996   6.115 -0.8173  1.3007 -0.9287
  251MOL0     H33824   0.532   7.081   6.146 -0.1614 -1.1335  0.8778
  251MOL0     H33825   0.445   6.932   6.165 -2.0137  0.4401 -2.9770
  251MOL0     H33826   0.556   7.043   5.914  3.4774 -1.0105 -0.7849
  251MOL0     H33827   0.579   6.886   5.927  1.3649  1.6322  0.5922
  251MOL0     H33828   0.298   7.012   5.982 -0.2590 -1.2529  1.9287
  251MOL0     H33829   0.348   6.936   5.829 -1.8550 -2.6550 -0.2802
  251MOL0     H33830   0.382   6.719   5.953 -0.6551 -0.6706  0.1154
  251MOL0     H33831   0.310   6.799   6.098 -1.2292  2.7869  0.3917
  251MOL0     H33832   0.159   6.835   5.835 -1.0893  1.0020  0.9468
  251MOL0     H33833   0.093   6.816   5.989  1.1425  1.0212 -0.0232
  251MOL0     H33834   0.063   6.615   5.818  1.9051  0.0817 -1.4990
  251MOL0     H33835   0.239   6.584   5.821 -1.4483 -1.8968 -0.9736
  251MOL0     H33836   0.270   6.595   6.170  3.0716 -3.3493  2.2433
  251MOL0     H33837   0.322   6.300   6.292  0.8032  1.6511 -1.4557
  251MOL0     H33838   0.229   6.441   6.365 -3.1570 -0.5987  0.9807
  251MOL0     H33839   0.034   6.275   6.394 -0.5739 -0.0843 -3.1419
  251MOL0     H33840   0.124   6.160   6.303 -3.4079  0.3799  0.0322
  251MOL0     H33841   0.226   6.250   6.569  0.3759 -2.3382  2.2304
  251MOL0     H33842   0.289   6.119   6.463 -1.3723 -2.0924  0.6967
  251MOL0     H33843   0.014   6.105   6.560  0.4547 -0.1935  0.9716
  251MOL0     H33844   0.130   6.069   6.676  1.2846  2.1193 -0.2399
  251MOL0     H33845   0.362   5.905   6.420  0.7784 -1.0451 -0.4570
  251MOL0     H33846   0.521   5.777   6.547 -0.2167 -1.7959 -0.8246
  251MOL0     H33847   0.756   5.473   6.678 -1.0633  0.6677 -0.0424
  251MOL0     H33848   0.899   5.330   6.805 -0.4915 -2.7693  2.3619
  251MOL0     H33849   1.095   5.467   7.181 -2.1653  0.8069  4.0444
  251MOL0     H33850   0.956   5.392   7.233  1.6601  1.0927  0.4488
  251MOL0     H33851   1.121   5.248   7.321  0.8657  0.2613 -0.4797
  251MOL0     H33852   1.071   5.165   7.176  1.4647 -3.4724  3.5967
  251MOL0     H33853   1.263   5.306   7.072  2.3704  2.6332  0.0889
  251MOL0     H33854   1.318   5.326   7.233  1.4548  0.6557 -3.8571
  251MOL0     H33855   1.280   5.059   7.092 -0.2681 -1.0564  0.0606
  251MOL0     H33856   1.318   5.081   7.268 -1.2724  1.2081 -1.0526
  251MOL0     H33857   1.484   5.184   7.033  0.7923 -0.9267  0.1978
  251MOL0     H33858   1.507   5.032   7.109  1.0392 -0.4443  1.0346
  251MOL0     H33859   1.670   5.162   7.194  0.4699 -2.8564  3.1297
  251MOL0     H33860   1.540   5.292   7.243 -1.2499  0.1837  1.1545
  251MOL0     H33861   1.586   5.012   7.366 -0.8042 -0.6850  1.4814
  251MOL0     H33862   1.479   5.144   7.433  0.8471  1.8178  1.0454
  251MOL0     H33863   1.676   5.271   7.458  0.5797  0.1741 -0.1307
  251MOL0     H33864   1.686   5.123   7.540 -1.2005  2.6466  0.2865
  251MOL0     H33865   0.862   5.597   7.145  1.0337 -2.5669  0.3268
  251MOL0     H33866   0.659   5.699   7.024  1.2337 -1.0117  3.3959
  251MOL0     H33867   0.211   5.690   6.837 -2.9150 -3.1132 -2.1514
  251MOL0     H33868   0.056   5.816   6.705 -0.0692  3.3568  0.9018
  251MOL0     H33869   0.529   7.255   6.502  0.8328  0.4348 -0.1976
  251MOL0     H33870   0.476   7.261   6.724 -0.4657 -1.3854  3.5770
  251MOL0     H33871   0.320   7.095   6.912  2.0175 -2.2639  0.3299
  251MOL0     H33872   0.137   7.015   7.048 -3.7090  3.4985  0.0662
  251MOL0     H33873  -0.021   6.953   7.219 -2.9256 -0.4803  0.2658
  251MOL0     H33874  -0.053   7.107   7.143  0.0269  0.5080 -0.7740
  251MOL0     H33875  -0.249   7.057   7.291  0.4510  0.5501 -1.8484
  251MOL0     H33876  -0.161   7.195   7.344  0.2885  0.5092 -1.3495
  251MOL0     H33877  -0.227   7.050   7.535 -1.6863  0.7074 -2.6269
  251MOL0     H33878  -0.050   7.064   7.521 -0.7516 -1.0250  2.3343
  251MOL0     H33879  -0.218   6.809   7.505  0.3594 -2.2605 -0.3000
  251MOL0     H33880  -0.126   6.841   7.356  3.7388  1.7147  0.8855
  251MOL0     H33881   0.138   6.699   7.641  0.0905 -0.1251 -0.3401
  251MOL0     H33882   0.268   7.266   7.369  1.5090  1.4772 -0.2389
  251MOL0     H33883   0.611   7.299   7.226  1.5647  3.1179  1.2419
  251MOL0     H33884   0.510   7.448   7.248  1.8311  0.8509  3.3819
  251MOL0     H33885   0.514   7.325   7.370 -0.8936 -3.3782 -0.0481
  252MOL0     O33886  10.940   1.441   2.813 -1.1311  0.3828  0.8653
  252MOL0     C33887  10.893   1.331   2.775 -0.6180 -0.0246 -0.2638
  252MOL0     O33888  10.959   1.219   2.772  0.1494  0.1381  0.6378
  252MOL0     C33889  11.080   1.204   2.838  0.3248 -0.3996 -0.6907
  252MOL0     C33890  11.182   1.159   2.760 -0.0912  0.3538 -0.0779
  252MOL0     C33891  11.306   1.131   2.797 -0.4209  0.7047 -0.1967
  252MOL0     C33892  11.341   1.132   2.934  0.1936  0.0018  0.1715
  252MOL0     O33893  11.469   1.089   2.976  0.1463  1.2243  0.4655
  252MOL0     C33894  11.549   1.206   3.015 -0.1548  0.6340 -0.2585
  252MOL0     C33895  11.691   1.176   3.053 -0.3135  0.6511 -0.1167
  252MOL0     C33896  11.776   1.291   3.101 -0.0765  0.0481 -0.9825
  252MOL0     C33897  11.744   1.335   3.246 -0.3489  0.0312  0.9930
  252MOL0     C33898  11.853   1.410   3.303 -0.8400 -0.4157  0.2506
  252MOL0     C33899  11.876   1.550   3.240  0.5052 -0.7845  0.3988
  252MOL0     C33900  11.986   1.638   3.300 -0.8436  0.2161 -0.6417
  252MOL0     C33901  12.034   1.734   3.199 -0.2622  0.4912 -0.1599
  252MOL0     N33902  12.134   1.824   3.258 -0.1387 -0.6332 -0.8098
  252MOL0     C33903  12.109   1.926   3.343  0.5871 -0.9371 -0.5136
  252MOL0     C33904  12.229   1.983   3.363  0.2542  0.6221 -0.1702
  252MOL0     C33905  12.254   2.097   3.465  0.9424 -0.5937 -0.4275
  252MOL0     C33906  12.264   2.033   3.602  0.3044  0.0531  0.8475
  252MOL0     C33907  12.412   1.994   3.620  0.0621 -0.1024 -0.5011
  252MOL0     C33908  12.420   1.936   3.763  0.0697 -0.6941 -0.0524
  252MOL0     O33909  12.536   1.854   3.785 -0.6549 -0.1441  0.6676
  252MOL0     C33910  12.661   1.916   3.774 -0.0339  0.5323 -0.2703
  252MOL0     C33911  12.764   1.821   3.777 -0.5788  0.0836  0.3790
  252MOL0     C33912  12.898   1.863   3.771 -0.5234  0.0463  0.4377
  252MOL0     C33913  12.934   2.000   3.759  0.1931  0.1925  0.3317
  252MOL0     C33914  13.072   2.042   3.750  1.0031 -0.3185  0.2333
  252MOL0     O33915  13.171   1.954   3.708 -0.1508 -0.3850  0.6194
  252MOL0     C33916  13.298   1.997   3.677 -0.9416 -0.2447 -0.1796
  252MOL0     C33917  13.360   2.119   3.715  0.4856  0.0889  0.7700
  252MOL0     C33918  13.484   2.158   3.663  0.9815  0.3473  1.1290
  252MOL0     C33919  13.555   2.066   3.586 -0.2637  0.5793 -0.0821
  252MOL0     O33920  13.678   2.087   3.548 -0.5487 -0.0551  0.7458
  252MOL0     C33921  13.774   2.008   3.626  0.1983  0.2925  0.5683
  252MOL0     C33922  13.883   1.961   3.530  1.0076  0.0157 -0.0090
  252MOL0     C33923  13.834   1.830   3.449 -0.2989 -0.9309  0.2384
  252MOL0     C33924  13.943   1.735   3.399  0.3279  0.0241  0.4822
  252MOL0     C33925  13.866   1.625   3.325 -0.0791 -0.1374 -0.0044
  252MOL0     C33926  13.837   1.671   3.185 -0.4182  0.1252  0.0531
  252MOL0     C33927  13.795   1.542   3.106  0.1553 -0.0649 -0.7903
  252MOL0     C33928  13.791   1.566   2.953  0.4886 -0.1818  0.3260
  252MOL0    Cl33929  13.647   1.669   2.923 -0.0440 -0.0253  0.0968
  252MOL0     C33930  13.493   1.939   3.552 -0.2051 -0.1563 -0.6852
  252MOL0     C33931  13.362   1.908   3.591 -1.1910  0.2904 -0.8124
  252MOL0     O33932  13.083   2.161   3.766 -0.1654  0.0541  0.1585
  252MOL0     C33933  12.828   2.089   3.762  0.2575  0.1272 -0.3671
  252MOL0     C33934  12.692   2.049   3.777  0.1097  0.0901  0.0175
  252MOL0     N33935  12.328   1.913   3.301  0.8913  0.1888 -1.1942
  252MOL0     N33936  12.269   1.819   3.242 -0.7857  0.1560  0.9826
  252MOL0     C33937  11.240   1.185   3.016  0.2920  0.1642 -0.6384
  252MOL0     C33938  11.109   1.217   2.972 -0.2950  0.2572  0.2090
  252MOL0     C33939  10.767   1.332   2.707  1.0280  0.5512 -0.0859
  252MOL0     C33940  10.666   1.406   2.759 -0.4140 -0.5687 -0.3297
  252MOL0     C33941  10.538   1.400   2.709  1.5436 -0.4939  0.2788
  252MOL0     C33942  10.510   1.321   2.603 -0.1623  0.3986  0.1294
  252MOL0     O33943  10.375   1.324   2.586 -0.4373  0.8610 -0.4025
  252MOL0     C33944  10.326   1.229   2.492  0.1458  0.4462 -0.2849
  252MOL0     C33945  10.329   1.285   2.345  0.5927  0.1247 -0.2120
  252MOL0     C33946  10.207   1.247   2.255 -1.0969 -0.4438 -0.1855
  252MOL0     C33947  10.079   1.334   2.284 -0.4289 -0.8216 -0.4478
  252MOL0     C33948   9.964   1.291   2.210  0.9079  0.1088 -0.2379
  252MOL0     C33949   9.859   1.262   2.148 -0.0322 -0.0779 -0.1549
  252MOL0     C33950  10.609   1.246   2.541  0.4357  0.0353  0.1478
  252MOL0     C33951  10.738   1.260   2.586 -0.8691 -0.2134  0.5747
  252MOL0     C33952  10.847   1.187   2.502  0.1973 -0.3090  0.3564
  252MOL0     H33953  11.163   1.135   2.656  1.0571 -0.2635 -0.1604
  252MOL0     H33954  11.379   1.103   2.721  0.0292  0.7990  0.1924
  252MOL0     H33955  11.546   1.271   2.927 -1.6079 -0.6124 -1.1777
  252MOL0     H33956  11.502   1.264   3.096 -1.2012 -0.9836  0.3320
  252MOL0     H33957  11.732   1.121   2.967  1.1110  0.6886  0.5158
  252MOL0     H33958  11.682   1.099   3.130 -3.3673 -1.9216 -2.7427
  252MOL0     H33959  11.759   1.374   3.032  0.6543  0.2208 -0.9551
  252MOL0     H33960  11.880   1.260   3.111  0.6072  2.3803 -0.3026
  252MOL0     H33961  11.648   1.387   3.246 -0.1173  0.4937 -0.0601
  252MOL0     H33962  11.743   1.237   3.294 -1.7479 -3.3469 -4.8790
  252MOL0     H33963  11.819   1.428   3.405  2.5120 -1.4315  1.6708
  252MOL0     H33964  11.950   1.361   3.311  1.4135  3.8352  3.4240
  252MOL0     H33965  11.914   1.516   3.144 -1.7882  1.8000 -1.5841
  252MOL0     H33966  11.782   1.605   3.234  1.1071  0.3385  0.9295
  252MOL0     H33967  12.068   1.581   3.346 -2.8073 -2.2431  0.0326
  252MOL0     H33968  11.946   1.702   3.378 -0.8005  2.3313 -2.2495
  252MOL0     H33969  12.080   1.677   3.118 -1.3035 -2.2706  1.0608
  252MOL0     H33970  11.946   1.788   3.163  0.9232  2.3924 -0.3556
  252MOL0     H33971  12.018   1.953   3.395  0.3005 -0.7436 -1.1000
  252MOL0     H33972  12.341   2.157   3.438 -0.8328  1.5720 -1.7178
  252MOL0     H33973  12.163   2.157   3.469  1.7141  0.5560  2.7713
  252MOL0     H33974  12.240   2.095   3.689  0.2907  1.3013 -0.0171
  252MOL0     H33975  12.204   1.942   3.599 -2.0846  1.5255 -1.9304
  252MOL0     H33976  12.481   2.079   3.615  1.1127 -0.7375  1.9737
  252MOL0     H33977  12.441   1.931   3.536  0.6897  1.8662 -1.8523
  252MOL0     H33978  12.338   1.868   3.788  0.2957 -1.3112 -0.9514
  252MOL0     H33979  12.416   2.019   3.835 -3.5054  1.0607 -2.0581
  252MOL0     H33980  12.733   1.717   3.779  0.2252 -0.2186  3.6437
  252MOL0     H33981  12.968   1.782   3.754 -0.7288  0.2698 -1.9279
  252MOL0     H33982  13.320   2.190   3.786  2.1993  0.9709  0.9101
  252MOL0     H33983  13.526   2.251   3.699 -1.6372  0.9576  2.8673
  252MOL0     H33984  13.817   2.057   3.713  1.3375 -2.8749  1.9405
  252MOL0     H33985  13.731   1.911   3.653  1.9761 -1.5568 -2.6285
  252MOL0     H33986  13.906   2.041   3.459  2.3200 -0.0324  0.3468
  252MOL0     H33987  13.960   1.936   3.603  0.1556 -2.0032  0.2510
  252MOL0     H33988  13.789   1.761   3.521  0.1365 -1.9068 -0.4098
  252MOL0     H33989  13.756   1.857   3.378 -2.2864  1.2081  2.9927
  252MOL0     H33990  14.002   1.685   3.476 -2.8299 -2.3189  1.6219
  252MOL0     H33991  14.000   1.788   3.322 -1.6101  0.6896 -0.5671
  252MOL0     H33992  13.769   1.600   3.370  0.0144 -0.2192  0.1565
  252MOL0     H33993  13.923   1.531   3.320  1.2312  0.6157  0.4456
  252MOL0     H33994  13.760   1.748   3.185 -0.0669  0.5408 -2.0604
  252MOL0     H33995  13.924   1.722   3.144 -1.4148 -0.1581 -2.6008
  252MOL0     H33996  13.694   1.521   3.141  0.7480  0.5245  1.4774
  252MOL0     H33997  13.849   1.451   3.133 -2.0149 -1.7925 -2.0205
  252MOL0     H33998  13.872   1.637   2.932 -1.0617  2.0738  1.5248
  252MOL0     H33999  13.800   1.477   2.890 -0.3387 -3.3486  4.2635
  252MOL0     H34000  13.543   1.867   3.489  0.2452  1.1201 -1.8388
  252MOL0     H34001  13.307   1.824   3.550 -1.0789 -0.2504  0.1155
  252MOL0     H34002  12.848   2.196   3.752  0.1729  0.7342  4.0772
  252MOL0     H34003  12.610   2.120   3.782  0.4178  0.3949  4.2243
  252MOL0     H34004  11.268   1.196   3.121  2.8906 -0.4906 -1.2154
  252MOL0     H34005  11.034   1.246   3.045  0.6874  1.3852  0.8070
  252MOL0     H34006  10.693   1.472   2.840 -1.3241 -1.2457  0.5564
  252MOL0     H34007  10.465   1.466   2.755  1.0760 -0.4822 -0.4718
  252MOL0     H34008  10.225   1.207   2.527  0.0370  3.2172  1.4468
  252MOL0     H34009  10.372   1.130   2.504 -1.0982  0.0268  1.4627
  252MOL0     H34010  10.413   1.241   2.290  0.0640 -1.5508  0.2455
  252MOL0     H34011  10.345   1.393   2.345 -0.1629  0.2480  0.3521
  252MOL0     H34012  10.186   1.140   2.262  1.6697 -1.0004  0.8900
  252MOL0     H34013  10.240   1.254   2.151  2.5685 -0.9890  0.8065
  252MOL0     H34014  10.043   1.338   2.387  0.5307  2.7141 -0.1447
  252MOL0     H34015  10.106   1.435   2.255  0.5116 -1.0690 -0.4529
  252MOL0     H34016   9.771   1.229   2.098  0.5287 -0.6717 -0.7713
  252MOL0     H34017  10.591   1.194   2.447 -1.7086  1.0557 -0.0707
  252MOL0     H34018  10.854   1.092   2.556  0.0876  0.1008  1.0993
  252MOL0     H34019  10.802   1.164   2.405 -2.5916  1.6572  1.0602
  252MOL0     H34020  10.950   1.219   2.486  0.5674 -0.1429  2.7342
  253MOL0     O34021   8.720   8.669   6.027 -0.2530 -0.0631  0.1189
  253MOL0     C34022   8.609   8.611   6.039 -0.3106  0.0194 -0.2799
  253MOL0     O34023   8.566   8.567   6.153  0.7654  0.1712 -0.0636
  253MOL0     C34024   8.620   8.602   6.269  0.9498  0.0389 -0.3062
  253MOL0     C34025   8.541   8.653   6.369  0.3407 -0.8907 -0.1876
  253MOL0     C34026   8.585   8.659   6.504  0.3460 -0.2767  0.5842
  253MOL0     C34027   8.714   8.614   6.534 -0.5153 -0.6952  0.2508
  253MOL0     O34028   8.749   8.624   6.668  0.0759 -0.1674 -1.0845
  253MOL0     C34029   8.740   8.754   6.733  0.1987  0.6376  0.0670
  253MOL0     C34030   8.649   8.756   6.860  0.5877  0.0614 -0.5953
  253MOL0     C34031   8.693   8.833   6.987  0.1367  0.6749 -0.3313
  253MOL0     C34032   8.729   8.972   6.941  0.4414 -1.0417 -0.2574
  253MOL0     C34033   8.745   9.066   7.061 -0.4813 -0.8572  0.3993
  253MOL0     C34034   8.889   9.061   7.114  0.2317  0.0750 -0.3733
  253MOL0     C34035   8.886   9.167   7.229  0.6105  0.0038 -1.0642
  253MOL0     C34036   9.030   9.213   7.253 -0.0677 -0.4293  0.8277
  253MOL0     N34037   9.052   9.230   7.394  0.2779 -0.1410  0.6879
  253MOL0     C34038   8.989   9.334   7.454  0.3960 -1.6659  0.3372
  253MOL0     C34039   9.016   9.308   7.585  0.4411  0.3780 -0.5689
  253MOL0     C34040   8.981   9.402   7.696  0.2751  0.5380  1.0226
  253MOL0     C34041   9.056   9.530   7.687  0.1613  0.2580  0.1019
  253MOL0     C34042   9.200   9.506   7.692  0.6152 -0.3040 -0.9609
  253MOL0     C34043   9.277   9.622   7.649 -0.3928 -0.1223 -0.1038
  253MOL0     O34044   9.245   9.651   7.512 -0.5753  0.7207 -0.8616
  253MOL0     C34045   9.343   9.730   7.456 -1.0771  0.7178  0.3006
  253MOL0     C34046   9.398   9.690   7.325  0.5691  0.7030  0.4400
  253MOL0     C34047   9.489   9.775   7.255  0.3587 -1.6298 -0.5840
  253MOL0     C34048   9.518   9.900   7.317  0.0065  0.1081 -0.1611
  253MOL0     C34049   9.600   9.990   7.239 -0.0347 -0.6058 -0.3011
  253MOL0     O34050   9.628  10.116   7.301  0.6885  0.5011 -0.5168
  253MOL0     C34051   9.727  10.190   7.254 -1.4699 -0.1937  1.2790
  253MOL0     C34052   9.699  10.259   7.130 -0.1444  0.2725  0.8032
  253MOL0     C34053   9.800  10.343   7.081  0.4742 -0.0843 -0.1453
  253MOL0     C34054   9.922  10.363   7.158  0.6097  0.0630 -0.3001
  253MOL0     O34055  10.015  10.453   7.113  0.6986 -0.0914  0.3239
  253MOL0     C34056  10.152  10.426   7.142  0.2082 -0.7867 -0.0194
  253MOL0     C34057  10.235  10.511   7.048  0.9045 -0.4552 -0.2306
  253MOL0     C34058  10.342  10.418   6.965  1.4723 -0.7337 -0.1118
  253MOL0     C34059  10.460  10.493   6.906  0.2021  0.2079  0.4510
  253MOL0     C34060  10.554  10.386   6.840  0.7360  0.2616 -0.6948
  253MOL0     C34061  10.658  10.452   6.760  0.0105  1.2430  0.3505
  253MOL0     C34062  10.744  10.344   6.697 -0.5433  0.2781 -1.1053
  253MOL0     C34063  10.870  10.411   6.644 -0.3433 -0.1571 -0.0864
  253MOL0    Cl34064  10.832  10.539   6.522 -0.5263 -0.1570 -0.4356
  253MOL0     C34065   9.942  10.287   7.275 -0.6094 -1.2849  0.0640
  253MOL0     C34066   9.844  10.200   7.326 -0.7782  0.1818  0.2362
  253MOL0     O34067   9.658   9.944   7.135  0.5093 -0.5745  0.3721
  253MOL0     C34068   9.475   9.931   7.445  0.1166  0.4865 -0.1533
  253MOL0     C34069   9.384   9.854   7.511 -0.2998  0.4699  0.5846
  253MOL0     N34070   9.103   9.200   7.594  0.7745 -0.3360  0.3935
  253MOL0     N34071   9.120   9.149   7.477 -0.5706 -0.1682  0.6421
  253MOL0     C34072   8.802   8.580   6.434 -0.4976 -0.3340 -0.2347
  253MOL0     C34073   8.753   8.567   6.306  0.8314  0.1017 -0.1339
  253MOL0     C34074   8.535   8.602   5.916 -0.3069 -0.2962  1.1872
  253MOL0     C34075   8.609   8.561   5.803  0.5757  0.6616  0.5492
  253MOL0     C34076   8.538   8.514   5.690  0.5498 -0.1179  0.5409
  253MOL0     C34077   8.399   8.506   5.681 -0.0509 -0.3948 -0.5181
  253MOL0     O34078   8.352   8.471   5.561  0.2896  0.3677  0.9171
  253MOL0     C34079   8.210   8.451   5.554  0.2829  0.0750  0.0995
  253MOL0     C34080   8.160   8.432   5.412  0.4874  0.3255 -0.2793
  253MOL0     C34081   8.012   8.414   5.391  0.9476  0.1439 -0.8669
  253MOL0     C34082   7.950   8.295   5.477 -0.5570 -0.4839  0.7371
  253MOL0     C34083   7.806   8.301   5.455  0.1256  0.5730 -0.2588
  253MOL0     C34084   7.679   8.306   5.443  0.5382  0.4686  0.4351
  253MOL0     C34085   8.332   8.539   5.794  0.1550  0.4053  0.7317
  253MOL0     C34086   8.392   8.584   5.914 -0.1299  0.5506  0.8801
  253MOL0     C34087   8.304   8.599   6.034  0.5928 -0.1499 -0.4140
  253MOL0     H34088   8.437   8.674   6.347 -0.5811 -2.1672  2.5331
  253MOL0     H34089   8.526   8.690   6.589  1.8872 -1.5368  2.1993
  253MOL0     H34090   8.843   8.773   6.765  0.3522 -0.2717  0.1508
  253MOL0     H34091   8.706   8.829   6.661  2.7477  2.6867  0.8051
  253MOL0     H34092   8.639   8.654   6.900 -0.3007  1.3352  2.7313
  253MOL0     H34093   8.546   8.784   6.836  1.6096  1.9130 -3.3114
  253MOL0     H34094   8.778   8.786   7.038 -0.0848  0.0619 -0.5289
  253MOL0     H34095   8.619   8.825   7.067  2.7869 -0.9511  2.1557
  253MOL0     H34096   8.820   8.985   6.881  0.5700  0.8884  0.2676
  253MOL0     H34097   8.645   9.012   6.884  0.0564 -0.7213  0.5281
  253MOL0     H34098   8.722   9.169   7.030  0.3976 -0.9800 -0.7083
  253MOL0     H34099   8.676   9.032   7.139  0.7616 -0.0871  1.8721
  253MOL0     H34100   8.907   8.961   7.155 -2.8134 -1.7925 -3.1265
  253MOL0     H34101   8.968   9.083   7.042 -1.4607  0.6996 -2.1153
  253MOL0     H34102   8.843   9.111   7.313  0.2366  0.0710 -1.2090
  253MOL0     H34103   8.828   9.258   7.209  1.5003  0.3819 -2.0016
  253MOL0     H34104   9.096   9.128   7.230  1.5183  0.8330  0.5150
  253MOL0     H34105   9.064   9.292   7.186 -1.1919 -1.3443 -0.9237
  253MOL0     H34106   8.922   9.411   7.416 -0.4736 -2.3137  0.5302
  253MOL0     H34107   8.873   9.418   7.696  0.2762  0.6555 -0.7620
  253MOL0     H34108   9.009   9.350   7.788  0.7205  1.5002  1.4518
  253MOL0     H34109   9.021   9.589   7.602  1.3230  2.5129  1.1037
  253MOL0     H34110   9.024   9.579   7.779  2.9083 -0.9454  1.8360
  253MOL0     H34111   9.230   9.430   7.620  3.0491 -0.4222  0.1001
  253MOL0     H34112   9.223   9.474   7.794 -0.1858  0.9161 -0.3716
  253MOL0     H34113   9.381   9.590   7.660 -0.8036 -2.2434 -1.7225
  253MOL0     H34114   9.253   9.711   7.708  1.0817  1.0607 -1.2043
  253MOL0     H34115   9.370   9.599   7.273 -0.1912  1.2374 -0.1052
  253MOL0     H34116   9.509   9.762   7.149 -3.6084  1.3104 -1.8987
  253MOL0     H34117   9.607  10.250   7.073  0.4496 -1.0471 -0.0077
  253MOL0     H34118   9.789  10.408   6.995 -0.3456  1.3223  0.9803
  253MOL0     H34119  10.176  10.431   7.249  1.7259  1.0702 -0.3994
  253MOL0     H34120  10.180  10.326   7.111 -0.6442 -0.4734 -1.9600
  253MOL0     H34121  10.177  10.571   6.977 -1.9573  0.0023  2.2527
  253MOL0     H34122  10.273  10.589   7.115 -0.7966 -0.8325  1.2766
  253MOL0     H34123  10.367  10.328   7.022 -0.6751 -2.4560 -1.7328
  253MOL0     H34124  10.292  10.379   6.876  1.6335  1.3163 -1.1776
  253MOL0     H34125  10.512  10.544   6.987 -1.0985  2.2471  0.0853
  253MOL0     H34126  10.425  10.567   6.834 -0.0617 -0.7402 -0.4242
  253MOL0     H34127  10.491  10.323   6.777  0.4558  0.4518 -0.6098
  253MOL0     H34128  10.602  10.324   6.916 -0.4138  1.7432  1.3382
  253MOL0     H34129  10.617  10.521   6.685  0.5234  1.8493  0.6201
  253MOL0     H34130  10.723  10.511   6.825  1.5836  2.0725 -1.8677
  253MOL0     H34131  10.693  10.293   6.615  0.6066 -0.4570 -1.3893
  253MOL0     H34132  10.770  10.265   6.768 -3.8937 -0.9553 -1.1019
  253MOL0     H34133  10.928  10.457   6.725  0.9828 -0.0441 -1.0690
  253MOL0     H34134  10.938  10.337   6.601 -0.4279 -2.2721  3.0775
  253MOL0     H34135  10.036  10.300   7.328  1.4775  1.5777 -3.8543
  253MOL0     H34136   9.873  10.152   7.419  0.2187 -1.2645 -0.7775
  253MOL0     H34137   9.515  10.019   7.493 -0.6033  1.8566 -1.9297
  253MOL0     H34138   9.348   9.899   7.602 -0.2600  3.1933 -0.6412
  253MOL0     H34139   8.907   8.554   6.442 -0.5828 -0.4212  0.7189
  253MOL0     H34140   8.824   8.527   6.234  0.3208  0.1121 -0.6496
  253MOL0     H34141   8.717   8.572   5.803  0.6858  0.6143 -2.8491
  253MOL0     H34142   8.579   8.469   5.599 -0.7526  0.4529 -0.3639
  253MOL0     H34143   8.156   8.541   5.587 -0.1008 -0.2257  0.3101
  253MOL0     H34144   8.180   8.366   5.617  2.6697 -0.9809 -0.1041
  253MOL0     H34145   8.207   8.345   5.365  3.8710  2.3971 -1.1076
  253MOL0     H34146   8.194   8.509   5.343 -1.4875 -0.3247 -2.0886
  253MOL0     H34147   7.991   8.385   5.287  2.2650 -0.9900 -0.8421
  253MOL0     H34148   7.957   8.507   5.409 -0.3281 -0.1278 -2.9532
  253MOL0     H34149   7.993   8.205   5.431  1.0081  1.7116 -2.4938
  253MOL0     H34150   7.984   8.295   5.581  1.2151 -1.0479  0.2014
  253MOL0     H34151   7.574   8.312   5.422 -0.2100 -2.2433  2.7361
  253MOL0     H34152   8.226   8.522   5.785  0.8268 -3.8756 -3.7801
  253MOL0     H34153   8.313   8.699   6.077 -0.1466  0.4493 -1.5721
  253MOL0     H34154   8.198   8.599   6.007  0.5271 -1.5983 -0.2476
  253MOL0     H34155   8.328   8.522   6.108 -1.4190 -2.3586 -1.9109
  254MOL0     O34156   9.203   5.018   8.126  0.8650  0.0083 -0.3852
  254MOL0     C34157   9.116   5.085   8.191  0.0518 -0.1273 -0.1345
  254MOL0     O34158   9.146   5.199   8.272 -0.4800 -0.2061 -0.6279
  254MOL0     C34159   9.282   5.230   8.277 -0.3361  0.7325  0.2223
  254MOL0     C34160   9.355   5.156   8.371 -0.0202  0.3768 -0.0092
  254MOL0     C34161   9.498   5.175   8.374 -0.7313 -0.2230  0.2112
  254MOL0     C34162   9.569   5.266   8.291 -0.9178 -0.4934 -0.0196
  254MOL0     O34163   9.708   5.267   8.285 -0.6398 -0.1044  0.6968
  254MOL0     C34164   9.784   5.232   8.405  0.4241  1.2867 -0.1133
  254MOL0     C34165   9.900   5.322   8.437  0.9078  0.3925  0.5628
  254MOL0     C34166   9.957   5.299   8.572 -1.1370  0.6944  0.4607
  254MOL0     C34167  10.068   5.404   8.595  0.9661  1.1221 -0.4374
  254MOL0     C34168  10.124   5.408   8.741  0.2299  0.2771  0.8628
  254MOL0     C34169  10.209   5.529   8.761  0.3511 -0.9152  0.1013
  254MOL0     C34170  10.339   5.532   8.681 -0.1529 -0.7450  0.7254
  254MOL0     C34171  10.442   5.429   8.740  0.3424 -0.0339  0.5896
  254MOL0     N34172  10.570   5.434   8.675 -0.6658 -1.0692  0.1773
  254MOL0     C34173  10.654   5.533   8.691 -0.5871  0.8553 -0.1204
  254MOL0     C34174  10.754   5.522   8.600 -0.8790  0.2573  0.1779
  254MOL0     C34175  10.885   5.597   8.607 -0.2853  0.4403 -0.9915
  254MOL0     C34176  10.913   5.698   8.487 -0.4963 -0.0338 -0.1021
  254MOL0     C34177  11.038   5.784   8.491  0.4451  0.1923 -0.1028
  254MOL0     C34178  11.027   5.878   8.602  0.2118 -0.2047 -0.5854
  254MOL0     O34179  11.114   5.986   8.590 -0.3899  0.3109 -0.2529
  254MOL0     C34180  11.253   5.970   8.595 -1.2443  0.0303  0.2648
  254MOL0     C34181  11.311   5.862   8.681 -0.0482 -0.4960 -1.0489
  254MOL0     C34182  11.455   5.857   8.685 -0.3250 -0.2558 -0.6310
  254MOL0     C34183  11.539   5.943   8.612  0.4429 -0.6909 -0.1978
  254MOL0     C34184  11.686   5.920   8.606 -0.4628 -0.0608  0.7819
  254MOL0     O34185  11.751   5.867   8.710  0.3631  0.0036 -0.3950
  254MOL0     C34186  11.868   5.799   8.671 -0.5185  0.0094  0.2212
  254MOL0     C34187  11.983   5.817   8.749  0.1723 -0.7321  0.1264
  254MOL0     C34188  12.106   5.766   8.717  0.6216 -0.4955 -0.0809
  254MOL0     C34189  12.119   5.679   8.605 -0.6670 -0.2270  1.0691
  254MOL0     O34190  12.235   5.614   8.562  0.5121  0.2130  0.2223
  254MOL0     C34191  12.345   5.599   8.653 -0.0078 -0.1199 -0.4008
  254MOL0     C34192  12.457   5.703   8.623 -0.6875  0.2807  0.6458
  254MOL0     C34193  12.586   5.694   8.718 -0.4709 -0.0468  0.0878
  254MOL0     C34194  12.698   5.803   8.668  0.2691 -0.4904 -0.8195
  254MOL0     C34195  12.810   5.802   8.771 -0.6408  0.0066 -0.6915
  254MOL0     C34196  12.929   5.879   8.727 -0.6149 -1.2165 -0.4400
  254MOL0     C34197  13.051   5.858   8.824 -0.8912 -0.3559  0.1198
  254MOL0     C34198  13.182   5.926   8.767 -0.5195  0.7602 -0.8425
  254MOL0    Cl34199  13.323   5.841   8.837 -0.5211 -0.4430  0.0943
  254MOL0     C34200  12.005   5.664   8.520  0.1937 -0.7582  0.8502
  254MOL0     C34201  11.882   5.725   8.554  0.4674  0.1751 -0.1580
  254MOL0     O34202  11.740   5.960   8.500 -0.4974 -0.4422 -0.1768
  254MOL0     C34203  11.475   6.047   8.537 -0.6183  0.0394 -0.1224
  254MOL0     C34204  11.333   6.061   8.537  0.2273 -0.9391 -0.0811
  254MOL0     N34205  10.737   5.402   8.534  0.4119 -0.9025 -0.0759
  254MOL0     N34206  10.613   5.357   8.567 -1.6700 -0.2165  0.0983
  254MOL0     C34207   9.487   5.350   8.213  0.5844  0.9270  0.5831
  254MOL0     C34208   9.344   5.338   8.209  0.0413  0.1123 -0.5064
  254MOL0     C34209   8.981   5.042   8.187 -0.2286  0.2814 -0.5682
  254MOL0     C34210   8.888   5.146   8.167  0.0640  0.8832 -0.1432
  254MOL0     C34211   8.750   5.129   8.164 -0.0688  0.7894  0.2373
  254MOL0     C34212   8.709   4.992   8.153 -0.8916 -0.7246  0.2849
  254MOL0     O34213   8.576   4.965   8.121 -0.2089 -0.0214  0.4279
  254MOL0     C34214   8.570   4.984   7.982  0.4420 -0.0916 -0.5417
  254MOL0     C34215   8.443   4.922   7.925 -0.8100 -0.9464  0.7636
  254MOL0     C34216   8.324   5.000   7.970  0.5846 -0.3911  0.2275
  254MOL0     C34217   8.274   4.963   8.105  0.3855  0.0973 -0.2288
  254MOL0     C34218   8.134   4.974   8.114 -0.0160  0.0514 -0.0075
  254MOL0     C34219   8.014   4.979   8.129 -0.0960 -0.3137 -0.6277
  254MOL0     C34220   8.797   4.894   8.197 -0.3852  0.2676  0.8995
  254MOL0     C34221   8.932   4.910   8.207  0.4344 -0.6156  0.5336
  254MOL0     C34222   9.018   4.791   8.251 -0.8234  0.1013 -0.5934
  254MOL0     H34223   9.292   5.091   8.430 -0.6272  0.1934 -0.8400
  254MOL0     H34224   9.551   5.103   8.435 -2.1053 -1.8626 -0.4755
  254MOL0     H34225   9.729   5.233   8.499  0.0078  0.9788 -0.3496
  254MOL0     H34226   9.816   5.129   8.386 -2.3531  0.6606 -2.0315
  254MOL0     H34227   9.865   5.425   8.435 -0.9222 -0.1853 -1.0151
  254MOL0     H34228   9.972   5.318   8.355  0.9079  1.2086  0.5224
  254MOL0     H34229  10.011   5.204   8.572  2.9540  2.6514 -3.0624
  254MOL0     H34230   9.880   5.302   8.649 -0.0466 -0.4817  1.6407
  254MOL0     H34231  10.150   5.379   8.527  1.2096  0.7137 -0.0014
  254MOL0     H34232  10.033   5.505   8.569 -0.5409  0.3888 -1.3898
  254MOL0     H34233  10.049   5.401   8.820  1.3299  1.5125  2.0846
  254MOL0     H34234  10.183   5.316   8.739 -0.4690 -0.4587 -5.0988
  254MOL0     H34235  10.147   5.613   8.730  0.2066 -0.8740  0.4973
  254MOL0     H34236  10.230   5.551   8.866  1.5359  1.1132 -0.5000
  254MOL0     H34237  10.381   5.633   8.687  0.4431 -0.9611  0.3559
  254MOL0     H34238  10.333   5.509   8.575 -0.4779 -0.1370  0.6110
  254MOL0     H34239  10.464   5.440   8.846  0.4892 -0.0327  0.5603
  254MOL0     H34240  10.411   5.325   8.730  3.0152 -0.8110 -0.5343
  254MOL0     H34241  10.653   5.618   8.759 -1.8668  1.5122 -0.8999
  254MOL0     H34242  10.881   5.662   8.695  1.2961  0.2633 -0.7668
  254MOL0     H34243  10.964   5.522   8.616 -1.5619 -0.9914 -1.2268
  254MOL0     H34244  10.922   5.631   8.401 -3.9497 -3.3478  1.8260
  254MOL0     H34245  10.832   5.772   8.476  0.9701  1.8117  0.9517
  254MOL0     H34246  11.031   5.834   8.394 -0.9489  1.3730  0.5640
  254MOL0     H34247  11.129   5.723   8.494  0.9386  0.6568 -2.6732
  254MOL0     H34248  11.047   5.815   8.689  1.0326  0.2450 -0.4322
  254MOL0     H34249  10.925   5.915   8.612  0.8659  1.4109  0.7065
  254MOL0     H34250  11.253   5.789   8.736  0.1772  0.2230  0.1624
  254MOL0     H34251  11.508   5.775   8.734  0.8212  0.2522 -0.9862
  254MOL0     H34252  11.965   5.873   8.840  1.9346 -2.1120  1.3984
  254MOL0     H34253  12.189   5.802   8.777 -0.7724  0.5826  1.3055
  254MOL0     H34254  12.313   5.603   8.757  0.9754 -0.9037 -0.0434
  254MOL0     H34255  12.392   5.502   8.634 -0.0050 -0.0277 -0.8646
  254MOL0     H34256  12.487   5.688   8.519 -1.1411  0.4805  0.4807
  254MOL0     H34257  12.402   5.797   8.617 -3.7347 -1.4219 -0.7966
  254MOL0     H34258  12.555   5.738   8.813  2.0286  1.9195  0.1213
  254MOL0     H34259  12.622   5.594   8.742 -1.8219 -0.0227  2.4976
  254MOL0     H34260  12.650   5.901   8.666 -2.1328 -1.6193 -1.1433
  254MOL0     H34261  12.731   5.782   8.566  0.9628 -1.1877 -0.4692
  254MOL0     H34262  12.833   5.699   8.798 -2.0969 -0.0504  0.4332
  254MOL0     H34263  12.758   5.845   8.858 -1.5411  1.6841 -1.9917
  254MOL0     H34264  12.942   5.843   8.624  1.1154 -3.1501  0.3832
  254MOL0     H34265  12.895   5.983   8.727 -1.1806 -1.2623  3.3980
  254MOL0     H34266  13.073   5.753   8.843 -1.0480 -0.2532  0.9141
  254MOL0     H34267  13.024   5.904   8.920 -0.1825  2.6218 -0.9978
  254MOL0     H34268  13.187   5.914   8.659  2.1759 -0.2845 -0.6847
  254MOL0     H34269  13.188   6.031   8.799  0.9753  0.3889  0.1791
  254MOL0     H34270  12.006   5.613   8.424 -0.2688  0.2877  0.2739
  254MOL0     H34271  11.803   5.700   8.484  2.3160  1.9415 -3.1503
  254MOL0     H34272  11.529   6.119   8.477 -1.2523  1.2536  0.7176
  254MOL0     H34273  11.285   6.136   8.475  1.7584 -1.5740 -2.1468
  254MOL0     H34274   9.531   5.426   8.151  0.7221  0.2602 -0.1553
  254MOL0     H34275   9.287   5.409   8.150 -2.0080 -2.3577 -1.6334
  254MOL0     H34276   8.919   5.250   8.165  1.2880  0.7049  3.2928
  254MOL0     H34277   8.677   5.209   8.155 -2.5397 -1.0431  2.3122
  254MOL0     H34278   8.648   4.919   7.942  0.8754 -2.6969  3.7896
  254MOL0     H34279   8.576   5.091   7.960 -1.0811  0.1761  0.1921
  254MOL0     H34280   8.449   4.814   7.941  2.1057 -0.7116  1.7991
  254MOL0     H34281   8.445   4.931   7.816  1.9509  1.6229  0.8764
  254MOL0     H34282   8.241   4.994   7.898  0.6582  1.4013 -0.0565
  254MOL0     H34283   8.335   5.109   7.972 -2.3187  0.0540 -1.8161
  254MOL0     H34284   8.288   4.855   8.111 -4.6255 -0.7309  1.8658
  254MOL0     H34285   8.327   5.018   8.183 -2.3062  1.1199  1.0203
  254MOL0     H34286   7.908   4.980   8.143  0.1888  1.2591  2.3876
  254MOL0     H34287   8.767   4.791   8.204  1.6242 -0.2708  3.2569
  254MOL0     H34288   9.112   4.783   8.196 -0.3244 -3.3565  0.5015
  254MOL0     H34289   9.038   4.811   8.357  1.0172  1.2604 -1.1063
  254MOL0     H34290   8.963   4.696   8.245 -3.0745  1.3322 -0.4158
  255MOL0     O34291   7.682   8.112   1.836  0.5515  0.2932  0.3335
  255MOL0     C34292   7.622   8.211   1.856  1.2327  0.5507  0.3170
  255MOL0     O34293   7.646   8.330   1.793 -0.3337 -0.2577  0.3944
  255MOL0     C34294   7.705   8.319   1.669  0.5349 -0.4469  0.7549
  255MOL0     C34295   7.622   8.348   1.557  0.6915 -0.8167  1.0602
  255MOL0     C34296   7.674   8.344   1.425 -0.4262 -0.6528  0.9022
  255MOL0     C34297   7.807   8.312   1.396  0.1928 -1.3775 -0.3910
  255MOL0     O34298   7.851   8.304   1.261 -0.0628  0.1010 -0.2248
  255MOL0     C34299   7.986   8.336   1.237  0.1944  0.5247  0.0420
  255MOL0     C34300   7.995   8.339   1.075 -0.7193 -0.2138 -0.7133
  255MOL0     C34301   8.147   8.344   1.038  0.6140 -0.9698  0.6127
  255MOL0     C34302   8.150   8.333   0.890  0.1610 -0.2980  0.4069
  255MOL0     C34303   8.289   8.307   0.831  0.4450  0.2877  0.0483
  255MOL0     C34304   8.329   8.392   0.713  0.3155  0.4541  1.5078
  255MOL0     C34305   8.440   8.338   0.626 -0.1317  0.1132  0.2126
  255MOL0     C34306   8.571   8.342   0.701 -0.2392  0.2835  0.0227
  255MOL0     N34307   8.701   8.350   0.632 -0.2478 -0.1370 -0.8926
  255MOL0     C34308   8.711   8.304   0.500  0.7007  0.1218  0.5276
  255MOL0     C34309   8.824   8.367   0.452 -0.7053 -0.8211 -0.3875
  255MOL0     C34310   8.884   8.351   0.313  0.3229 -0.4028  0.0307
  255MOL0     C34311   8.987   8.235   0.288  0.8125  0.4985 -0.3661
  255MOL0     C34312   9.090   8.228   0.400 -0.6282  0.5945  0.0517
  255MOL0     C34313   9.186   8.117   0.362 -0.2028 -0.3049 -1.0325
  255MOL0     O34314   9.233   8.134   0.222 -0.7704 -0.0269 -0.1064
  255MOL0     C34315   9.357   8.083   0.186  0.7019 -0.6935  0.1713
  255MOL0     C34316   9.460   8.046   0.273 -0.0889 -0.6339  0.3061
  255MOL0     C34317   9.594   8.015   0.225  0.1747 -0.7256  1.0522
  255MOL0     C34318   9.617   7.987   0.091  0.3671 -0.5855  1.1116
  255MOL0     C34319   9.751   7.952   0.029 -0.7690 -0.3162  0.2603
  255MOL0     O34320   9.864   7.955   0.100 -0.0144 -0.8276  0.1880
  255MOL0     C34321   9.981   7.896   0.063  0.3007  0.2786 -0.0097
  255MOL0     C34322  10.085   7.917   0.146 -1.0267  0.3955 -0.1432
  255MOL0     C34323  10.216   7.865   0.121 -0.3716  0.8156 -0.4884
  255MOL0     C34324  10.236   7.791  -0.003  0.1821  1.1033  0.0677
  255MOL0     O34325  10.358   7.737  -0.045  0.0938  0.4675  0.6604
  255MOL0     C34326  10.475   7.770   0.032  0.3208  0.3430  0.3008
  255MOL0     C34327  10.589   7.711  -0.043 -0.8108 -0.0981  0.9826
  255MOL0     C34328  10.654   7.791  -0.153  0.1859 -0.3106 -0.1701
  255MOL0     C34329  10.749   7.891  -0.099  0.1678  0.2257  0.2468
  255MOL0     C34330  10.784   7.994  -0.215 -0.0230  1.0243 -0.6077
  255MOL0     C34331  10.871   8.100  -0.154  0.2656 -0.0675  0.0625
  255MOL0     C34332  10.954   8.176  -0.261  0.3509  0.1910  0.1887
  255MOL0     C34333  11.066   8.261  -0.202  0.0745 -0.2286 -0.0200
  255MOL0    Cl34334  11.195   8.160  -0.136 -0.9102  1.0915 -0.9537
  255MOL0     C34335  10.125   7.761  -0.081 -0.0271  0.0511  0.2514
  255MOL0     C34336  10.001   7.815  -0.051 -0.0545  1.2317  0.4256
  255MOL0     O34337   9.742   7.903  -0.086  0.3822 -0.0590 -0.8183
  255MOL0     C34338   9.507   8.010  -0.002  0.3248  0.5153 -0.5345
  255MOL0     C34339   9.387   8.054   0.051  0.5967 -0.6046 -1.1741
  255MOL0     N34340   8.892   8.429   0.563  0.5179  1.0011 -0.5583
  255MOL0     N34341   8.813   8.416   0.665  0.1031 -0.7475  0.3293
  255MOL0     C34342   7.890   8.278   1.513  0.2739 -0.0145  0.5311
  255MOL0     C34343   7.835   8.288   1.642  0.4824  0.0486 -0.0715
  255MOL0     C34344   7.519   8.236   1.966  0.5461  0.1875  0.5570
  255MOL0     C34345   7.470   8.367   1.993  0.6332 -0.3907  1.1668
  255MOL0     C34346   7.379   8.390   2.091 -0.1463 -0.6223  0.6693
  255MOL0     C34347   7.333   8.293   2.178 -0.1582  0.3438 -0.6484
  255MOL0     O34348   7.247   8.322   2.282  0.4515  0.3402  0.7232
  255MOL0     C34349   7.296   8.288   2.414 -0.0555 -0.2299  0.6250
  255MOL0     C34350   7.243   8.401   2.509  0.2722  0.1032 -0.2224
  255MOL0     C34351   7.348   8.501   2.539  0.4977  0.0483  0.4776
  255MOL0     C34352   7.292   8.632   2.598 -0.1943  0.3758 -0.0780
  255MOL0     C34353   7.240   8.706   2.485  0.7962 -0.3248  0.1806
  255MOL0     C34354   7.193   8.773   2.389  0.3296 -0.3600 -1.1392
  255MOL0     C34355   7.363   8.163   2.146 -0.8837  0.5425 -0.3367
  255MOL0     C34356   7.454   8.134   2.041 -0.1334  0.0752 -0.3492
  255MOL0     C34357   7.479   7.989   2.003 -0.1680  0.7292  0.2198
  255MOL0     H34358   7.516   8.368   1.567  0.3913  0.5267 -2.9083
  255MOL0     H34359   7.613   8.378   1.342  0.4571  1.5660  1.0761
  255MOL0     H34360   8.015   8.432   1.280  1.2513 -0.8630  2.6314
  255MOL0     H34361   8.054   8.256   1.268 -2.1823 -1.7650 -0.3093
  255MOL0     H34362   7.950   8.436   1.052  2.3398  1.8613  1.2844
  255MOL0     H34363   7.951   8.246   1.039  2.1659 -1.7822 -0.5007
  255MOL0     H34364   8.184   8.254   1.088 -1.0268 -0.7974  2.2513
  255MOL0     H34365   8.198   8.434   1.072  1.3876 -0.6031 -1.4055
  255MOL0     H34366   8.089   8.246   0.864 -0.2225 -0.3794  1.5454
  255MOL0     H34367   8.094   8.416   0.846  2.3483  0.6326 -0.7855
  255MOL0     H34368   8.369   8.303   0.906 -0.6458 -0.2131  1.2278
  255MOL0     H34369   8.284   8.202   0.799 -2.5871  0.7763 -1.4880
  255MOL0     H34370   8.236   8.421   0.665  2.4776  2.5172 -1.8160
  255MOL0     H34371   8.363   8.485   0.762 -0.5379  1.8792 -0.4822
  255MOL0     H34372   8.448   8.393   0.531  1.3980 -0.3533  0.0553
  255MOL0     H34373   8.409   8.241   0.586  0.5207  0.3463 -0.9206
  255MOL0     H34374   8.564   8.434   0.759 -5.5906  0.9314 -1.1017
  255MOL0     H34375   8.577   8.261   0.774 -0.6796  0.2630  0.0391
  255MOL0     H34376   8.646   8.235   0.447  2.5149 -0.0800 -1.6188
  255MOL0     H34377   8.810   8.340   0.234  1.5724  0.7254 -1.3465
  255MOL0     H34378   8.940   8.445   0.299 -1.3811  1.5063  4.2156
  255MOL0     H34379   8.945   8.135   0.274 -0.9209  1.3939 -2.0645
  255MOL0     H34380   9.039   8.262   0.196  3.5562  0.7593  1.1344
  255MOL0     H34381   9.032   8.197   0.488 -0.4402 -4.0328 -1.2132
  255MOL0     H34382   9.141   8.324   0.411  1.5986 -0.4963 -0.1996
  255MOL0     H34383   9.140   8.018   0.372 -2.6194  0.4292 -3.7546
  255MOL0     H34384   9.265   8.124   0.438 -3.8231  1.7549  3.0385
  255MOL0     H34385   9.445   8.066   0.379 -0.9400  1.0458 -0.0955
  255MOL0     H34386   9.679   8.009   0.292  0.3625 -1.4034  0.7637
  255MOL0     H34387  10.071   7.977   0.236 -0.6557  0.8652 -0.3929
  255MOL0     H34388  10.296   7.893   0.189 -0.5178  1.6047 -0.6319
  255MOL0     H34389  10.491   7.875   0.058  2.6413  0.7317 -2.3459
  255MOL0     H34390  10.466   7.715   0.127  4.3707 -0.2856  0.4800
  255MOL0     H34391  10.672   7.707   0.028  0.9428  2.7978 -0.6914
  255MOL0     H34392  10.561   7.615  -0.088 -0.1276  0.3036 -0.3592
  255MOL0     H34393  10.698   7.735  -0.236  0.1561  1.4067 -1.3995
  255MOL0     H34394  10.576   7.842  -0.209  0.2760 -0.6097 -0.5720
  255MOL0     H34395  10.839   7.833  -0.078  0.0171  0.5470  1.9569
  255MOL0     H34396  10.723   7.932  -0.000  2.1713  1.0271  0.4793
  255MOL0     H34397  10.694   8.047  -0.248 -2.1682 -0.9408  1.7042
  255MOL0     H34398  10.829   7.943  -0.301  3.7439  1.9568  0.6322
  255MOL0     H34399  10.816   8.178  -0.101 -3.2387 -0.3264 -2.8749
  255MOL0     H34400  10.940   8.043  -0.090 -2.1951 -1.3523  1.7248
  255MOL0     H34401  10.885   8.249  -0.306  0.9412  2.3673  2.5990
  255MOL0     H34402  11.001   8.109  -0.335  1.4292  2.9342 -1.7935
  255MOL0     H34403  11.105   8.334  -0.273  0.1324  0.4122  0.6539
  255MOL0     H34404  11.019   8.313  -0.118 -1.0515 -1.5703  0.2160
  255MOL0     H34405  10.140   7.696  -0.167 -0.1750  1.0720 -0.5580
  255MOL0     H34406   9.921   7.787  -0.118  0.3247  2.4130 -0.5546
  255MOL0     H34407   9.507   7.984  -0.108  0.5620 -0.8902 -0.2039
  255MOL0     H34408   9.302   8.061  -0.016  0.4674  1.8798 -0.8287
  255MOL0     H34409   7.993   8.256   1.486  0.3371  0.9266 -0.0517
  255MOL0     H34410   7.890   8.262   1.733 -0.6965  0.4505  0.7822
  255MOL0     H34411   7.510   8.447   1.932  1.6166 -2.9119 -1.8104
  255MOL0     H34412   7.346   8.493   2.088  1.8597  0.0680 -3.1640
  255MOL0     H34413   7.404   8.282   2.434 -0.0601  2.2741  1.8757
  255MOL0     H34414   7.262   8.186   2.434  1.9000 -0.9347  0.5573
  255MOL0     H34415   7.217   8.359   2.607 -0.3651  0.1714 -0.3536
  255MOL0     H34416   7.155   8.453   2.469  0.5364  1.0945  0.4241
  255MOL0     H34417   7.398   8.526   2.445  0.0262 -0.6531  0.0252
  255MOL0     H34418   7.417   8.448   2.606  2.2048 -0.7796 -1.8126
  255MOL0     H34419   7.225   8.612   2.682  1.9292 -2.2173  1.1677
  255MOL0     H34420   7.368   8.699   2.638  1.5696 -0.4210 -1.8723
  255MOL0     H34421   7.152   8.831   2.308  3.5907 -0.2663 -2.8909
  255MOL0     H34422   7.330   8.077   2.203 -0.4605 -0.0500 -0.9656
  255MOL0     H34423   7.396   7.927   2.038 -0.3475  1.4357  1.1124
  255MOL0     H34424   7.484   7.969   1.896 -2.7660  0.7554  0.0477
  255MOL0     H34425   7.571   7.961   2.056 -0.1004  1.8567  0.7287
  256MOL0     O34426   3.680   3.609  10.316 -0.0800  0.4063  0.1946
  256MOL0     C34427   3.616   3.505  10.314 -0.5751 -0.6194  0.1614
  256MOL0     O34428   3.515   3.477  10.398  0.0753  0.4140 -0.4461
  256MOL0     C34429   3.470   3.574  10.489 -0.8527  0.5425 -0.4982
  256MOL0     C34430   3.380   3.666  10.454 -0.0582 -0.0404  0.4979
  256MOL0     C34431   3.334   3.754  10.557 -0.5430 -0.0556 -0.4086
  256MOL0     C34432   3.397   3.747  10.688  0.1865  0.7976 -0.1330
  256MOL0     O34433   3.364   3.818  10.801  0.0666 -0.2192  0.3697
  256MOL0     C34434   3.226   3.820  10.836 -0.1231  0.2978 -0.0957
  256MOL0     C34435   3.175   3.684  10.874  0.6629 -0.3253 -0.4366
  256MOL0     C34436   3.065   3.714  10.976  0.0889 -0.1720  0.5120
  256MOL0     C34437   2.969   3.595  10.959  0.5136  0.8598  0.2447
  256MOL0     C34438   2.832   3.634  11.026  0.0070 -0.2971  0.0176
  256MOL0     C34439   2.724   3.522  11.009 -0.0998 -0.6362  0.8906
  256MOL0     C34440   2.578   3.582  10.999  0.1015  0.3907 -0.1537
  256MOL0     C34441   2.482   3.468  11.008  0.4194  0.2553  0.7574
  256MOL0     N34442   2.347   3.522  10.998 -0.8109  1.1137  0.0201
  256MOL0     C34443   2.266   3.546  11.110 -0.4146  0.9437  0.3924
  256MOL0     C34444   2.142   3.579  11.059 -0.5353 -0.7754  0.2577
  256MOL0     C34445   2.018   3.598  11.135  0.4097  0.1455 -0.3105
  256MOL0     C34446   1.905   3.516  11.072 -0.7332 -0.8389 -0.0266
  256MOL0     C34447   1.936   3.366  11.098  0.7042 -0.6957  0.6424
  256MOL0     C34448   1.810   3.282  11.093 -0.8431 -0.5996 -0.0779
  256MOL0     O34449   1.735   3.316  10.974  0.0977 -0.0927  0.3764
  256MOL0     C34450   1.599   3.281  10.989 -0.3951  0.2442 -0.0117
  256MOL0     C34451   1.554   3.154  10.997 -0.7432 -0.4883 -0.0673
  256MOL0     C34452   1.415   3.121  11.011  0.5321 -0.3474  0.2745
  256MOL0     C34453   1.317   3.225  11.021  0.2436  0.5373  0.4891
  256MOL0     C34454   1.171   3.197  11.025  0.0466  0.1720 -0.7124
  256MOL0     O34455   1.101   3.314  11.026  0.6634 -0.5881  0.1678
  256MOL0     C34456   0.967   3.311  11.063  1.0086 -0.2135  0.0990
  256MOL0     C34457   0.915   3.238  11.169 -0.8675  0.2178 -0.3784
  256MOL0     C34458   0.782   3.239  11.204  1.1801  0.1266 -0.4006
  256MOL0     C34459   0.696   3.326  11.139  0.1718 -0.4183  0.0843
  256MOL0     O34460   0.571   3.346  11.185 -0.1941  0.4176  0.7902
  256MOL0     C34461   0.469   3.250  11.146  0.2188 -0.3957 -0.0004
  256MOL0     C34462   0.471   3.118  11.237 -1.0952  0.6608 -0.5771
  256MOL0     C34463   0.360   3.012  11.207  0.7611 -0.2472  0.3079
  256MOL0     C34464   0.225   3.074  11.175  0.5768 -0.4973 -0.0468
  256MOL0     C34465   0.110   2.970  11.176  0.2641  1.1443 -0.6431
  256MOL0     C34466   0.127   2.895  11.045 -0.7531  0.2135  0.4059
  256MOL0     C34467   0.017   2.780  11.038 -0.8871  0.1582  0.4472
  256MOL0     C34468  -0.124   2.841  11.014 -0.1302  0.1899  0.2630
  256MOL0    Cl34469  -0.238   2.706  10.968  0.0615  0.1192 -0.5074
  256MOL0     C34470   0.739   3.399  11.036 -1.0294 -0.0174 -0.0028
  256MOL0     C34471   0.868   3.383  10.994 -1.5215  0.6173  0.3247
  256MOL0     O34472   1.127   3.087  11.007 -0.1667  0.3402  0.5881
  256MOL0     C34473   1.358   3.352  11.014 -0.2538  0.2585  0.1452
  256MOL0     C34474   1.493   3.383  10.991  0.0551  0.3624  0.0414
  256MOL0     N34475   2.145   3.569  10.920 -0.2919  0.0864  0.0387
  256MOL0     N34476   2.268   3.531  10.886 -0.4189  0.3306 -0.5151
  256MOL0     C34477   3.497   3.647  10.717  0.2937 -0.1108  0.7076
  256MOL0     C34478   3.521   3.557  10.620 -0.1820  0.4640 -0.3790
  256MOL0     C34479   3.651   3.400  10.223  0.4721  0.4548  1.0858
  256MOL0     C34480   3.609   3.269  10.254  0.3757  0.3920 -0.6398
  256MOL0     C34481   3.644   3.171  10.155 -0.2640  0.0710 -0.3645
  256MOL0     C34482   3.705   3.190  10.032 -0.2178  0.3137 -0.4121
  256MOL0     O34483   3.744   3.096   9.944 -0.7123  0.0300  0.0642
  256MOL0     C34484   3.759   2.958   9.977 -0.2666 -0.5345 -0.9174
  256MOL0     C34485   3.780   2.858   9.857  0.3954 -0.1821  0.5220
  256MOL0     C34486   3.654   2.837   9.770 -0.6228 -0.0379  0.2053
  256MOL0     C34487   3.673   2.745   9.647  0.5886  0.1659 -0.4464
  256MOL0     C34488   3.738   2.811   9.530  0.3472  0.2669 -0.0822
  256MOL0     C34489   3.793   2.872   9.438  0.1369  1.0751  0.0847
  256MOL0     C34490   3.741   3.320  10.012 -0.5833 -0.6853 -0.0022
  256MOL0     C34491   3.726   3.428  10.102 -0.2306 -0.3460 -0.2866
  256MOL0     C34492   3.764   3.565  10.049  0.4507 -0.2474  0.2301
  256MOL0     H34493   3.341   3.657  10.353  3.0225 -1.0815 -0.7133
  256MOL0     H34494   3.266   3.837  10.545  1.9478  2.2142  0.3410
  256MOL0     H34495   3.210   3.891  10.918 -0.1327  0.4443 -0.2226
  256MOL0     H34496   3.165   3.856  10.752  0.9482 -2.0978 -2.0242
  256MOL0     H34497   3.253   3.626  10.924  0.1332 -0.1503  0.6164
  256MOL0     H34498   3.136   3.622  10.793 -2.7499  1.1694 -0.1097
  256MOL0     H34499   3.011   3.808  10.959  1.2789  0.6256  1.0030
  256MOL0     H34500   3.104   3.722  11.078 -0.0619  1.2822  0.4725
  256MOL0     H34501   2.940   3.583  10.855  0.6377 -0.4142  0.3409
  256MOL0     H34502   3.006   3.503  11.006 -1.0690 -0.5853 -1.1982
  256MOL0     H34503   2.845   3.645  11.134 -0.1119 -0.4595  0.0495
  256MOL0     H34504   2.801   3.730  10.983  1.7926 -0.3647 -1.6054
  256MOL0     H34505   2.746   3.477  10.912  0.4043  3.7186 -1.2183
  256MOL0     H34506   2.731   3.443  11.085  2.0353 -0.3211  1.0660
  256MOL0     H34507   2.565   3.647  10.912  1.9594  0.1899 -0.6189
  256MOL0     H34508   2.574   3.649  11.086  0.5873  2.5532 -1.6997
  256MOL0     H34509   2.491   3.380  10.944  0.6968 -0.1715  1.3809
  256MOL0     H34510   2.498   3.431  11.109  0.9759 -0.0720  0.5568
  256MOL0     H34511   2.294   3.525  11.213  0.1660  1.2357  0.2965
  256MOL0     H34512   2.039   3.573  11.239 -0.9415 -1.2476 -0.3343
  256MOL0     H34513   1.990   3.704  11.139  0.0986  0.0627 -0.2522
  256MOL0     H34514   1.812   3.541  11.123  0.1249 -0.8117  1.5765
  256MOL0     H34515   1.907   3.532  10.964 -0.6314  1.4455  0.2563
  256MOL0     H34516   1.976   3.361  11.200  2.8934  0.8130 -0.0689
  256MOL0     H34517   2.011   3.327  11.028  1.5752 -0.8315  1.6261
  256MOL0     H34518   1.745   3.307  11.177 -3.5549  0.4223 -2.3281
  256MOL0     H34519   1.838   3.176  11.097  0.1198 -0.3383  0.3997
  256MOL0     H34520   1.630   3.078  11.010  4.3110  4.0838  0.5480
  256MOL0     H34521   1.391   3.017  11.032  1.6857 -1.1696 -2.0938
  256MOL0     H34522   0.989   3.181  11.223 -2.2375  1.4032  2.9999
  256MOL0     H34523   0.745   3.180  11.287 -0.4286  1.1139 -0.3682
  256MOL0     H34524   0.371   3.293  11.167 -0.7755 -3.3569  2.3501
  256MOL0     H34525   0.477   3.232  11.039  3.2047  1.2615 -0.1732
  256MOL0     H34526   0.564   3.062  11.227 -1.6306 -0.8080  1.8094
  256MOL0     H34527   0.475   3.145  11.343 -1.6425 -2.5275  0.3534
  256MOL0     H34528   0.388   2.953  11.119 -1.1019  0.5326 -0.8805
  256MOL0     H34529   0.354   2.942  11.291  4.4018 -0.6485  0.3933
  256MOL0     H34530   0.233   3.121  11.077  2.2246  1.4038  0.9299
  256MOL0     H34531   0.210   3.161  11.240  0.0955  0.1887 -1.0427
  256MOL0     H34532   0.014   3.019  11.155  0.2740 -0.5102 -6.5634
  256MOL0     H34533   0.108   2.905  11.263 -0.8170 -0.0802 -1.5365
  256MOL0     H34534   0.117   2.950  10.950 -1.8151  1.3797  1.1630
  256MOL0     H34535   0.227   2.851  11.041  1.3065  4.4328 -0.2168
  256MOL0     H34536   0.019   2.712  11.123 -0.0197 -0.5156 -0.0993
  256MOL0     H34537   0.041   2.713  10.955 -2.5405  1.8756 -1.5611
  256MOL0     H34538  -0.150   2.880  11.113  1.9850 -2.7626  2.1757
  256MOL0     H34539  -0.112   2.923  10.942 -0.8775 -1.5653 -1.9642
  256MOL0     H34540   0.664   3.456  10.983 -3.0333 -1.9651  0.5770
  256MOL0     H34541   0.888   3.450  10.911 -1.4614 -1.7734 -1.7006
  256MOL0     H34542   1.292   3.439  11.011 -0.4148  0.1215 -0.5565
  256MOL0     H34543   1.529   3.483  10.966  0.6786  0.4717  1.3182
  256MOL0     H34544   3.553   3.628  10.808  1.2408  0.3593  0.2483
  256MOL0     H34545   3.587   3.473  10.640  0.2692  1.5416  3.4567
  256MOL0     H34546   3.543   3.245  10.337 -1.9108  0.3952 -2.3671
  256MOL0     H34547   3.616   3.070  10.182 -2.3450  0.5317 -0.6291
  256MOL0     H34548   3.669   2.922  10.027 -0.8401  1.2621 -0.5846
  256MOL0     H34549   3.845   2.962  10.044 -1.4295 -1.3852  0.6860
  256MOL0     H34550   3.826   2.767   9.896  2.1667  0.2854 -0.3568
  256MOL0     H34551   3.852   2.914   9.796 -1.5533  2.4239  0.4419
  256MOL0     H34552   3.617   2.933   9.732  1.3143 -0.4683 -3.2210
  256MOL0     H34553   3.577   2.796   9.836  1.7536 -1.6815  2.1496
  256MOL0     H34554   3.754   2.678   9.677  2.7470  3.1002  0.7863
  256MOL0     H34555   3.579   2.696   9.620  0.2799  1.5703 -2.0047
  256MOL0     H34556   3.838   2.925   9.358 -1.0056 -0.4857 -1.6852
  256MOL0     H34557   3.773   3.343   9.910  0.2341  0.6788  0.5385
  256MOL0     H34558   3.830   3.546   9.964  2.4700 -3.4482  2.2931
  256MOL0     H34559   3.681   3.632  10.026  1.4853  2.9941  4.4352
  256MOL0     H34560   3.814   3.625  10.126 -1.0220  0.7001  0.4899
  257MOL0     O34561   2.420   6.780   6.594 -0.1800  1.4155 -0.2575
  257MOL0     C34562   2.406   6.877   6.529 -0.1610 -0.0196 -0.3337
  257MOL0     O34563   2.303   6.963   6.536 -0.3303  0.6507 -0.7663
  257MOL0     C34564   2.212   6.933   6.626 -0.0781 -0.1757  0.9805
  257MOL0     C34565   2.083   6.908   6.587  0.4841  0.2651  0.9156
  257MOL0     C34566   1.975   6.903   6.680  0.0653 -0.1520  0.6362
  257MOL0     C34567   2.005   6.915   6.818 -0.9595 -0.4169  0.2750
  257MOL0     O34568   1.916   6.894   6.914 -0.0532  0.2336 -0.9241
  257MOL0     C34569   1.794   6.826   6.883 -0.1624  0.6780 -0.7390
  257MOL0     C34570   1.712   6.789   7.006  0.0834  0.2817 -0.9829
  257MOL0     C34571   1.640   6.905   7.072 -0.6644 -0.0990 -0.6328
  257MOL0     C34572   1.563   6.858   7.198 -0.0595 -0.6499 -1.2702
  257MOL0     C34573   1.530   6.971   7.299  0.1281 -0.1926 -0.3217
  257MOL0     C34574   1.404   7.043   7.253  0.8066  0.4968  0.2002
  257MOL0     C34575   1.381   7.171   7.330 -0.4326  0.0261  0.3710
  257MOL0     C34576   1.304   7.275   7.258 -0.2659 -0.3321  0.4205
  257MOL0     N34577   1.316   7.406   7.324 -0.2860  0.5341  0.8157
  257MOL0     C34578   1.244   7.443   7.437 -0.2388  0.8235  0.3793
  257MOL0     C34579   1.293   7.557   7.474  0.7620  0.4757  0.5185
  257MOL0     C34580   1.231   7.635   7.582  0.1012 -0.2380  0.5839
  257MOL0     C34581   1.211   7.781   7.542  0.6419  0.4843 -0.1602
  257MOL0     C34582   1.065   7.808   7.485 -0.1328  0.3125 -0.1523
  257MOL0     C34583   1.030   7.948   7.538  0.6823 -0.2171 -0.5470
  257MOL0     O34584   1.141   8.039   7.505  0.3186 -0.1293  0.0129
  257MOL0     C34585   1.120   8.153   7.433  0.1305  0.0683 -0.5455
  257MOL0     C34586   1.007   8.220   7.405  0.6815 -0.4597 -0.3463
  257MOL0     C34587   1.008   8.347   7.354  0.8594  0.2584  1.0583
  257MOL0     C34588   1.125   8.394   7.288  0.5271  0.2955  0.0269
  257MOL0     C34589   1.121   8.496   7.187 -0.4477  0.1206  0.0544
  257MOL0     O34590   1.237   8.551   7.139 -0.5183 -0.1376  0.2863
  257MOL0     C34591   1.247   8.641   7.028 -0.3551  0.1498  1.2909
  257MOL0     C34592   1.373   8.668   6.980  0.5950  0.5796 -0.6535
  257MOL0     C34593   1.399   8.741   6.869 -0.0266 -0.6477 -0.2713
  257MOL0     C34594   1.293   8.813   6.817  0.2514  0.4489 -0.0696
  257MOL0     O34595   1.311   8.903   6.715  0.4595 -0.1663  0.4275
  257MOL0     C34596   1.433   8.905   6.635  0.1123  0.1643 -0.1562
  257MOL0     C34597   1.452   9.000   6.517 -0.6656 -0.7193  0.0439
  257MOL0     C34598   1.503   9.126   6.579  0.4315  0.5987 -0.8900
  257MOL0     C34599   1.533   9.227   6.472 -0.0049 -0.6156 -0.6909
  257MOL0     C34600   1.600   9.349   6.538 -0.1952 -0.3955  0.0022
  257MOL0     C34601   1.585   9.482   6.459  0.0221  0.4669  0.6968
  257MOL0     C34602   1.634   9.600   6.547 -0.1161  0.4948  0.2677
  257MOL0     C34603   1.684   9.718   6.476 -0.3511  0.0470 -0.2265
  257MOL0    Cl34604   1.730   9.839   6.600 -0.1129 -0.2174 -0.1039
  257MOL0     C34605   1.160   8.801   6.871  0.2230 -0.2831  1.6085
  257MOL0     C34606   1.140   8.707   6.968  0.7063 -0.3181  0.4837
  257MOL0     O34607   1.006   8.540   7.158 -0.1835 -0.3598 -0.1603
  257MOL0     C34608   1.246   8.333   7.323 -0.1404 -1.5193 -0.1231
  257MOL0     C34609   1.248   8.216   7.404 -0.1293  0.3363 -0.5470
  257MOL0     N34610   1.395   7.591   7.391  0.1325  0.0336 -0.0416
  257MOL0     N34611   1.418   7.494   7.305  0.2958 -0.0085 -0.4608
  257MOL0     C34612   2.135   6.940   6.858  0.1431  0.3833 -1.2097
  257MOL0     C34613   2.233   6.946   6.770  0.3188 -0.6035 -0.2426
  257MOL0     C34614   2.512   6.911   6.431  0.6766 -1.0743  0.6793
  257MOL0     C34615   2.470   6.978   6.312 -0.1250 -0.0293  1.2313
  257MOL0     C34616   2.564   7.019   6.211  0.1610  0.6608  0.7236
  257MOL0     C34617   2.698   6.990   6.225  0.2224 -0.3688 -0.2091
  257MOL0     O34618   2.792   7.037   6.128 -0.2600  0.4816 -0.5816
  257MOL0     C34619   2.935   7.069   6.154  0.2441  0.7887  0.5579
  257MOL0     C34620   2.988   7.181   6.071 -0.2528  0.7939  0.3106
  257MOL0     C34621   3.134   7.215   6.108  0.3182  0.0156  1.1841
  257MOL0     C34622   3.185   7.318   6.007 -0.1593  0.9453  0.3402
  257MOL0     C34623   3.129   7.447   6.025 -0.4903 -0.6878  1.1546
  257MOL0     C34624   3.069   7.562   6.028  0.6985  0.7985  0.0002
  257MOL0     C34625   2.736   6.933   6.343 -0.1762  0.6125 -0.8496
  257MOL0     C34626   2.648   6.889   6.446 -0.9248  0.2245 -0.0443
  257MOL0     C34627   2.719   6.812   6.557  0.7538 -1.0281 -0.3246
  257MOL0     H34628   2.061   6.893   6.481 -1.7640  0.7994  1.2428
  257MOL0     H34629   1.882   6.867   6.638 -0.4406  0.2187  1.4378
  257MOL0     H34630   1.736   6.885   6.811  0.0714 -1.2682 -2.6122
  257MOL0     H34631   1.823   6.730   6.840  2.7065  1.2575 -0.2720
  257MOL0     H34632   1.785   6.748   7.076 -0.4306  0.9715 -0.0137
  257MOL0     H34633   1.650   6.707   6.969  0.3109 -1.2538  1.7789
  257MOL0     H34634   1.568   6.951   7.005 -0.1251  0.5921 -0.7506
  257MOL0     H34635   1.700   6.995   7.091 -1.6709  0.5857 -0.6053
  257MOL0     H34636   1.469   6.809   7.172 -0.5933  0.1884 -0.9434
  257MOL0     H34637   1.614   6.781   7.256 -1.8941  0.5495  2.2514
  257MOL0     H34638   1.523   6.941   7.404  1.2808 -0.0709 -0.1920
  257MOL0     H34639   1.617   7.036   7.285  0.7446 -1.0038 -0.3384
  257MOL0     H34640   1.415   7.072   7.148 -1.0657 -2.9133 -1.0990
  257MOL0     H34641   1.313   6.983   7.250  1.2662 -0.2060 -2.0594
  257MOL0     H34642   1.479   7.217   7.336  0.3730 -0.2745 -5.1309
  257MOL0     H34643   1.345   7.148   7.431  0.8652  1.3091  1.1495
  257MOL0     H34644   1.336   7.285   7.154  2.1683  2.3662  1.2773
  257MOL0     H34645   1.200   7.243   7.250 -0.6810  1.0233  0.0216
  257MOL0     H34646   1.167   7.388   7.490  0.3626 -1.2206 -0.7774
  257MOL0     H34647   1.136   7.583   7.600  2.2711 -4.4516  1.0205
  257MOL0     H34648   1.283   7.629   7.678 -0.7447 -3.3813  0.9528
  257MOL0     H34649   1.230   7.840   7.632 -1.6616  0.4435  0.4279
  257MOL0     H34650   1.279   7.802   7.460  2.6478 -1.5574  0.8563
  257MOL0     H34651   0.987   7.737   7.514  0.9918 -1.5728 -1.5415
  257MOL0     H34652   1.068   7.810   7.376 -1.1196  3.4249 -0.2219
  257MOL0     H34653   1.032   7.950   7.648 -0.2755 -4.3722 -0.2827
  257MOL0     H34654   0.932   7.981   7.504  0.8284  1.4877  0.5729
  257MOL0     H34655   0.908   8.182   7.431  1.2357 -1.0547  0.9591
  257MOL0     H34656   0.912   8.389   7.328 -0.0741 -2.4274 -0.2063
  257MOL0     H34657   1.453   8.617   7.034  1.0850  3.6145  1.7898
  257MOL0     H34658   1.502   8.741   6.836 -0.5119 -2.0815 -1.9381
  257MOL0     H34659   1.517   8.910   6.704 -0.1174 -0.6165  0.1856
  257MOL0     H34660   1.430   8.806   6.590 -4.3003 -0.6346  1.4622
  257MOL0     H34661   1.517   8.976   6.432  0.9358  2.6675  0.1524
  257MOL0     H34662   1.355   9.015   6.470 -0.1164 -0.7582 -1.1434
  257MOL0     H34663   1.440   9.165   6.659 -0.6359 -2.8385  0.1490
  257MOL0     H34664   1.601   9.109   6.625  1.0038  0.0807 -2.2255
  257MOL0     H34665   1.431   9.257   6.445 -0.7023  0.7592  2.9227
  257MOL0     H34666   1.598   9.189   6.393  2.0624  1.3291 -0.0123
  257MOL0     H34667   1.707   9.328   6.550 -0.5529 -1.7846  1.0942
  257MOL0     H34668   1.550   9.365   6.634 -0.1960 -0.5394  0.0267
  257MOL0     H34669   1.638   9.470   6.364 -2.2042 -0.1345 -0.5283
  257MOL0     H34670   1.480   9.489   6.431  0.4942 -1.9251 -2.2117
  257MOL0     H34671   1.711   9.560   6.614  2.8299  2.0226 -1.9647
  257MOL0     H34672   1.543   9.626   6.603 -0.0957 -0.3173  0.6977
  257MOL0     H34673   1.774   9.689   6.420  0.9503  1.7235  0.9010
  257MOL0     H34674   1.606   9.744   6.404  0.9388 -2.4636 -2.7457
  257MOL0     H34675   1.072   8.852   6.834  2.1971  0.6820 -2.3967
  257MOL0     H34676   1.037   8.700   7.002  1.2642  2.3303  3.0801
  257MOL0     H34677   1.339   8.373   7.286  0.3082 -0.9832  1.5383
  257MOL0     H34678   1.337   8.175   7.451 -0.6940 -0.5939 -0.2794
  257MOL0     H34679   2.161   6.932   6.963 -1.0470 -0.3054 -0.9469
  257MOL0     H34680   2.333   6.966   6.808 -0.1197  4.1189 -0.9376
  257MOL0     H34681   2.364   6.991   6.297  0.3000  5.1047  0.8644
  257MOL0     H34682   2.528   7.069   6.122 -2.0691 -1.2621  0.4462
  257MOL0     H34683   2.978   6.972   6.128  0.7426  0.3999  2.6810
  257MOL0     H34684   2.963   7.085   6.259 -1.3813 -0.6105  1.2449
  257MOL0     H34685   2.927   7.270   6.091 -2.2265 -0.7761  1.6103
  257MOL0     H34686   2.989   7.156   5.964  0.7979  2.4954 -0.1066
  257MOL0     H34687   3.199   7.127   6.115  1.0185  0.4088 -0.2055
  257MOL0     H34688   3.134   7.257   6.209 -1.4040 -0.9502  1.6445
  257MOL0     H34689   3.293   7.327   6.024  0.4511  0.3014 -2.5120
  257MOL0     H34690   3.167   7.281   5.905  3.5185 -3.6404  0.9956
  257MOL0     H34691   3.029   7.662   6.034 -0.0368  0.7368 -2.5947
  257MOL0     H34692   2.837   6.897   6.357 -0.3492 -0.2937 -1.8181
  257MOL0     H34693   2.697   6.856   6.655 -0.4622 -2.3009  0.0169
  257MOL0     H34694   2.685   6.708   6.567 -2.4895 -0.2138 -1.7828
  257MOL0     H34695   2.828   6.814   6.547  0.9894  3.6857  1.1257
  258MOL0     O34696   1.708   8.028   8.387 -0.4497  0.3884  0.1227
  258MOL0     C34697   1.671   7.913   8.347  0.2328  0.2872  0.2611
  258MOL0     O34698   1.603   7.885   8.244  0.1661 -0.6194  0.4139
  258MOL0     C34699   1.543   7.975   8.163  0.2315  0.2862 -0.0330
  258MOL0     C34700   1.592   7.985   8.039  0.4946 -0.0797  0.3222
  258MOL0     C34701   1.521   8.068   7.944  0.0617  0.4010 -0.0230
  258MOL0     C34702   1.413   8.139   7.992  0.7480  0.1506  1.3352
  258MOL0     O34703   1.341   8.235   7.926 -0.2231  0.5543  0.5599
  258MOL0     C34704   1.361   8.256   7.784  0.2023  0.1143  0.2367
  258MOL0     C34705   1.242   8.348   7.740  0.0301 -0.1709  0.0608
  258MOL0     C34706   1.278   8.474   7.659  0.4026 -0.1297 -0.0434
  258MOL0     C34707   1.159   8.566   7.651 -1.1879 -0.3489 -0.8658
  258MOL0     C34708   1.173   8.700   7.567 -0.2120  0.4940 -0.3349
  258MOL0     C34709   1.130   8.820   7.648  0.4553  0.0661  0.3801
  258MOL0     C34710   1.156   8.943   7.560 -0.1741 -0.0485 -1.0449
  258MOL0     C34711   1.057   9.064   7.598  0.2974 -0.1155 -0.5019
  258MOL0     N34712   1.059   9.096   7.742 -0.1054 -1.4813 -0.5574
  258MOL0     C34713   1.165   9.087   7.833 -0.4074 -0.6764  0.1570
  258MOL0     C34714   1.110   9.129   7.944  0.1658 -0.0145 -0.5820
  258MOL0     C34715   1.184   9.148   8.077  0.5185  0.7439 -0.2805
  258MOL0     C34716   1.337   9.126   8.074  0.8214 -0.0850 -0.0841
  258MOL0     C34717   1.406   9.175   8.205  0.4085  0.5730  0.1476
  258MOL0     C34718   1.557   9.177   8.212  0.5634  0.8101 -0.0766
  258MOL0     O34719   1.599   9.060   8.152 -0.0146  0.4382 -0.5549
  258MOL0     C34720   1.741   9.038   8.137  0.5656 -0.0619 -0.4850
  258MOL0     C34721   1.786   8.913   8.091  0.3617 -0.2350  0.2637
  258MOL0     C34722   1.921   8.886   8.070  1.2163 -0.1408 -0.0293
  258MOL0     C34723   2.016   8.979   8.114  1.1372 -0.0172  0.2304
  258MOL0     C34724   2.162   8.946   8.093  0.2054  0.4935 -0.7760
  258MOL0     O34725   2.248   9.020   8.167  0.0129  0.8271 -0.2542
  258MOL0     C34726   2.382   8.982   8.180  0.3736  0.2850 -0.7990
  258MOL0     C34727   2.437   8.903   8.287 -0.4184  0.3433 -0.1640
  258MOL0     C34728   2.582   8.884   8.285  0.3735 -0.2206  0.3044
  258MOL0     C34729   2.661   8.934   8.189  0.6481 -0.4298 -0.5292
  258MOL0     O34730   2.796   8.931   8.200 -0.3506  0.1373  1.1624
  258MOL0     C34731   2.832   8.800   8.162 -0.2933 -0.0492 -0.2619
  258MOL0     C34732   2.940   8.803   8.056  0.9749 -0.3093  0.2303
  258MOL0     C34733   2.961   8.654   8.003  0.4622 -0.4436  1.0062
  258MOL0     C34734   3.052   8.580   8.093 -0.3994  1.1094 -0.2197
  258MOL0     C34735   3.107   8.464   8.005 -1.0127  0.0948  0.1749
  258MOL0     C34736   3.237   8.415   8.086  1.3262 -0.2160  1.0281
  258MOL0     C34737   3.323   8.339   7.985 -0.0832 -0.5772 -0.8364
  258MOL0     C34738   3.418   8.243   8.067  0.0538 -0.3190 -0.0833
  258MOL0    Cl34739   3.554   8.180   7.965  0.0246  0.1455 -0.2736
  258MOL0     C34740   2.611   9.012   8.081  0.7154 -0.7451 -1.1438
  258MOL0     C34741   2.473   9.035   8.078  0.1010 -0.1630  0.3316
  258MOL0     O34742   2.189   8.841   8.032 -0.9687 -0.4269  0.2554
  258MOL0     C34743   1.971   9.100   8.171 -0.9076  0.2204 -0.7734
  258MOL0     C34744   1.834   9.132   8.178 -0.2619  0.1165 -0.1760
  258MOL0     N34745   0.975   9.150   7.933  0.1433  0.0728 -0.5379
  258MOL0     N34746   0.943   9.113   7.805 -0.0463  0.0930 -0.5469
  258MOL0     C34747   1.368   8.126   8.121 -0.1197  0.2735 -0.1065
  258MOL0     C34748   1.435   8.049   8.208 -0.3860 -0.4145 -0.2683
  258MOL0     C34749   1.705   7.798   8.437  0.1025  0.4559 -0.4712
  258MOL0     C34750   1.735   7.676   8.374  0.3435 -0.0211  0.7661
  258MOL0     C34751   1.773   7.561   8.440  1.1458  1.0139  0.5310
  258MOL0     C34752   1.798   7.568   8.578 -0.0350 -0.6357  0.0467
  258MOL0     O34753   1.861   7.461   8.628 -0.0046  0.1240  0.1463
  258MOL0     C34754   1.882   7.460   8.768 -0.2413 -0.6515 -0.3323
  258MOL0     C34755   1.908   7.315   8.831  0.5698  1.0306  0.6615
  258MOL0     C34756   1.989   7.224   8.741 -0.4731 -0.5016 -0.3372
  258MOL0     C34757   2.126   7.206   8.795 -0.3060  0.6196  0.2379
  258MOL0     C34758   2.205   7.333   8.815  0.4058  0.5688  0.5903
  258MOL0     C34759   2.259   7.437   8.836 -0.3376  0.0075  0.1686
  258MOL0     C34760   1.761   7.681   8.651  0.6254  0.3352  0.1564
  258MOL0     C34761   1.706   7.798   8.579 -0.4175 -0.6615  1.1785
  258MOL0     C34762   1.640   7.914   8.648 -0.1834  0.7081 -1.1722
  258MOL0     H34763   1.675   7.927   8.003 -1.9547 -2.4432 -1.9900
  258MOL0     H34764   1.578   8.065   7.852  2.4767 -0.6522  1.4152
  258MOL0     H34765   1.459   8.301   7.764  0.8440 -0.7946  1.1950
  258MOL0     H34766   1.357   8.157   7.738  1.6100  0.3616 -0.4853
  258MOL0     H34767   1.180   8.375   7.825 -3.4772  0.2330 -2.4016
  258MOL0     H34768   1.175   8.300   7.667  0.9239  3.0882 -3.2238
  258MOL0     H34769   1.308   8.447   7.558 -1.6188  0.8141 -0.9346
  258MOL0     H34770   1.360   8.527   7.708  0.0302  2.0658 -1.6578
  258MOL0     H34771   1.069   8.508   7.627 -1.5038 -1.5882  2.7098
  258MOL0     H34772   1.149   8.585   7.758  1.2179 -1.0576 -0.4708
  258MOL0     H34773   1.282   8.703   7.555 -0.3406  0.9334 -1.4921
  258MOL0     H34774   1.122   8.690   7.471  0.8447 -0.9517 -0.7792
  258MOL0     H34775   1.025   8.797   7.665  0.9538 -4.3494 -1.1620
  258MOL0     H34776   1.187   8.837   7.739  1.9849  1.7371 -0.8152
  258MOL0     H34777   1.136   8.922   7.454 -0.5448  1.9017 -1.3972
  258MOL0     H34778   1.255   8.982   7.585 -0.7490  1.9789 -1.7697
  258MOL0     H34779   1.083   9.159   7.551 -0.3230  0.3898  0.1474
  258MOL0     H34780   0.954   9.033   7.576 -0.2775  0.7023  0.8577
  258MOL0     H34781   1.268   9.062   7.808 -0.6125 -1.0457 -0.3302
  258MOL0     H34782   1.171   9.254   8.101 -3.0692  0.6061 -0.9681
  258MOL0     H34783   1.144   9.084   8.156 -1.6167  0.4909 -1.4754
  258MOL0     H34784   1.345   9.019   8.058 -2.6154 -0.1580 -2.7046
  258MOL0     H34785   1.377   9.185   7.991  0.4126  0.4408  0.0818
  258MOL0     H34786   1.373   9.107   8.284  1.0801  1.5464  1.3015
  258MOL0     H34787   1.377   9.277   8.234  4.8565  1.9206  0.5729
  258MOL0     H34788   1.606   9.191   8.309 -1.4509  1.5574  0.8930
  258MOL0     H34789   1.582   9.263   8.150  0.9885 -0.1767 -1.3052
  258MOL0     H34790   1.710   8.842   8.062  0.5272  0.3219 -1.6660
  258MOL0     H34791   1.939   8.787   8.030 -1.3576 -0.0117 -1.7216
  258MOL0     H34792   2.367   8.850   8.350  1.0221 -1.2158  0.1946
  258MOL0     H34793   2.642   8.819   8.347  2.3107  0.0761 -1.1659
  258MOL0     H34794   2.865   8.747   8.252 -3.6881 -2.4069 -0.2222
  258MOL0     H34795   2.744   8.747   8.124 -0.7309 -0.0714  0.7581
  258MOL0     H34796   2.884   8.857   7.979 -0.7855  0.5274  2.0006
  258MOL0     H34797   3.032   8.852   8.089  0.3671  0.2193  1.1813
  258MOL0     H34798   2.867   8.598   8.000 -0.2857  0.8227 -0.6504
  258MOL0     H34799   2.991   8.650   7.898 -1.5588 -0.8750  0.3891
  258MOL0     H34800   2.989   8.554   8.179 -2.7058  2.7491 -1.2986
  258MOL0     H34801   3.127   8.649   8.132  0.2499 -1.1433  2.9554
  258MOL0     H34802   3.139   8.503   7.908 -1.9179  0.1558 -0.1082
  258MOL0     H34803   3.041   8.380   7.985 -1.0739  0.3573 -0.7479
  258MOL0     H34804   3.290   8.500   8.131  0.4060  2.2923 -2.2152
  258MOL0     H34805   3.204   8.349   8.167  1.1744  0.0525  1.1882
  258MOL0     H34806   3.376   8.416   7.928  2.5444 -0.5893  1.3878
  258MOL0     H34807   3.263   8.271   7.923 -1.9160  0.0290  0.2063
  258MOL0     H34808   3.468   8.306   8.140  1.7775  1.6227 -2.7498
  258MOL0     H34809   3.360   8.157   8.101 -0.5150 -0.4823 -1.3958
  258MOL0     H34810   2.669   9.062   8.003  1.6419  2.6569  1.4780
  258MOL0     H34811   2.427   9.100   8.004  1.9343  0.1252 -0.6201
  258MOL0     H34812   2.044   9.170   8.209  0.2754 -1.4261  0.0917
  258MOL0     H34813   1.811   9.234   8.206  0.7846  0.7183 -1.4121
  258MOL0     H34814   1.287   8.191   8.152 -0.9381  0.2817 -2.1259
  258MOL0     H34815   1.404   8.037   8.311 -2.2487 -0.7382 -0.8100
  258MOL0     H34816   1.734   7.679   8.266  1.5530 -0.3026  0.7331
  258MOL0     H34817   1.826   7.486   8.383  4.3689  0.0194  4.4028
  258MOL0     H34818   1.798   7.504   8.823 -0.4117 -0.6694 -0.5785
  258MOL0     H34819   1.971   7.520   8.788  0.7605 -2.8258  2.5031
  258MOL0     H34820   1.810   7.274   8.854  1.3743 -0.2335  1.9476
  258MOL0     H34821   1.947   7.322   8.932  2.0852  0.9252  0.1100
  258MOL0     H34822   1.998   7.255   8.637  0.2415  1.6595  0.3195
  258MOL0     H34823   1.938   7.127   8.745  0.5900 -1.1076 -0.9866
  258MOL0     H34824   2.115   7.158   8.893  0.1872 -0.4884 -0.2354
  258MOL0     H34825   2.180   7.145   8.723 -0.9422  0.4136 -0.0670
  258MOL0     H34826   2.307   7.528   8.865 -1.3063  0.1496  1.3994
  258MOL0     H34827   1.778   7.697   8.757 -0.0495 -0.2484  0.3635
  258MOL0     H34828   1.564   7.961   8.586  0.1500  3.8095  0.5692
  258MOL0     H34829   1.604   7.895   8.750 -0.4097  6.1348  0.0483
  258MOL0     H34830   1.712   7.997   8.655 -1.2426  1.5491  0.4966
  259MOL0     O34831   5.231   3.954   5.381  0.4087 -0.2918  0.1947
  259MOL0     C34832   5.286   4.043   5.315  0.7754  0.4533  0.7747
  259MOL0     O34833   5.227   4.126   5.231 -0.6281 -0.0580  0.2570
  259MOL0     C34834   5.086   4.125   5.225  0.5715  0.4514  0.2527
  259MOL0     C34835   5.010   4.138   5.341 -0.0404  0.4559  0.2886
  259MOL0     C34836   4.871   4.132   5.326  0.0181 -1.2362  0.3871
  259MOL0     C34837   4.807   4.129   5.200 -0.4855  0.5967  0.5557
  259MOL0     O34838   4.667   4.146   5.209 -0.2592  0.0490  0.0464
  259MOL0     C34839   4.588   4.180   5.093 -0.2598 -0.3736  0.0661
  259MOL0     C34840   4.444   4.188   5.140  0.4427 -0.6176 -0.2127
  259MOL0     C34841   4.332   4.238   5.037 -0.3316 -0.0536 -0.9194
  259MOL0     C34842   4.306   4.144   4.928 -0.1644  0.9140  1.0222
  259MOL0     C34843   4.206   4.186   4.824 -0.1037 -0.2787 -0.6622
  259MOL0     C34844   4.050   4.149   4.874  0.1193  0.3269 -0.0898
  259MOL0     C34845   3.943   4.185   4.775  0.8556  0.2598 -0.9155
  259MOL0     C34846   3.801   4.181   4.833 -0.1138  0.2387 -0.3842
  259MOL0     N34847   3.690   4.183   4.740 -0.1146  0.2105  0.0579
  259MOL0     C34848   3.593   4.091   4.717 -0.2908  0.9015  0.4992
  259MOL0     C34849   3.520   4.144   4.611 -0.9922  0.6422 -0.5246
  259MOL0     C34850   3.396   4.098   4.557  0.9264  0.4767  0.8554
  259MOL0     C34851   3.320   4.006   4.656 -0.3703 -0.2948 -0.5629
  259MOL0     C34852   3.207   3.933   4.592 -0.5777  0.0281  0.5215
  259MOL0     C34853   3.082   4.011   4.610  1.1361  0.4356 -0.1888
  259MOL0     O34854   2.964   3.956   4.543  0.0264  0.4451 -0.1286
  259MOL0     C34855   2.964   3.941   4.408 -0.2915 -0.5480  0.4364
  259MOL0     C34856   3.030   4.024   4.325 -0.3419 -0.5505  1.3199
  259MOL0     C34857   3.027   3.991   4.188 -0.5482  0.1363 -0.6751
  259MOL0     C34858   2.931   3.905   4.136  0.2519  0.2502  0.0235
  259MOL0     C34859   2.920   3.862   3.993  0.4460  0.1194 -0.6253
  259MOL0     O34860   2.808   3.800   3.956  0.5175 -0.3515 -1.0757
  259MOL0     C34861   2.759   3.778   3.831 -0.0053  0.2663 -0.5970
  259MOL0     C34862   2.832   3.796   3.714 -0.1886  0.0097  0.1794
  259MOL0     C34863   2.765   3.778   3.594  0.7973  0.4418  0.7491
  259MOL0     C34864   2.629   3.746   3.593  1.4479  0.0797  0.1590
  259MOL0     O34865   2.557   3.731   3.481  0.0310  0.5994  0.2752
  259MOL0     C34866   2.556   3.841   3.387 -0.4706 -0.3623  0.0370
  259MOL0     C34867   2.417   3.836   3.318  0.9713 -0.4227 -0.3979
  259MOL0     C34868   2.380   3.723   3.214 -0.0779  0.4510  0.2357
  259MOL0     C34869   2.235   3.728   3.165  0.8170  0.5296  0.1483
  259MOL0     C34870   2.187   3.601   3.085 -0.5335  0.6374 -0.5395
  259MOL0     C34871   2.050   3.630   3.045  1.2901  0.1423  0.3265
  259MOL0     C34872   1.992   3.526   2.949 -0.7871  0.6789  0.3984
  259MOL0     C34873   1.844   3.551   2.906  0.1964  0.6142  0.0689
  259MOL0    Cl34874   1.793   3.418   2.805 -0.0315 -0.1347  0.0297
  259MOL0     C34875   2.557   3.718   3.710 -0.2723 -0.2009  0.0264
  259MOL0     C34876   2.620   3.748   3.829 -0.6750 -0.8694  0.2930
  259MOL0     O34877   3.008   3.904   3.918 -0.7820  0.7818 -0.2297
  259MOL0     C34878   2.856   3.830   4.226 -0.3440 -0.1023 -0.6986
  259MOL0     C34879   2.878   3.840   4.363 -0.4482  0.5716  0.3759
  259MOL0     N34880   3.581   4.263   4.575 -0.5366  0.7184 -0.2476
  259MOL0     N34881   3.683   4.286   4.652  0.1497 -0.2419  0.3898
  259MOL0     C34882   4.884   4.124   5.084  0.0099 -0.4257  0.1361
  259MOL0     C34883   5.028   4.120   5.101  0.0895 -0.1255  1.2313
  259MOL0     C34884   5.433   4.062   5.314 -0.1442  0.7057  0.4798
  259MOL0     C34885   5.488   4.189   5.309 -0.5312  0.9206  0.8093
  259MOL0     C34886   5.626   4.208   5.310 -0.3438  0.0019 -0.2959
  259MOL0     C34887   5.712   4.098   5.317 -1.0890  0.5469 -0.7173
  259MOL0     O34888   5.848   4.137   5.318  0.4839  0.3049 -0.2764
  259MOL0     C34889   5.955   4.037   5.325  1.9203 -0.6798  0.3242
  259MOL0     C34890   6.092   4.093   5.291 -0.3066  0.2066  0.0695
  259MOL0     C34891   6.104   4.144   5.145  0.2494 -0.6082  0.1078
  259MOL0     C34892   6.086   4.031   5.047 -0.0877  0.3701  0.3400
  259MOL0     C34893   6.189   3.926   5.048  0.2044  0.0467 -0.2237
  259MOL0     C34894   6.287   3.854   5.034  0.8340  0.3420 -0.3760
  259MOL0     C34895   5.667   3.969   5.332  0.2146 -0.0600  0.4077
  259MOL0     C34896   5.524   3.952   5.315 -0.0521  0.2567 -0.3100
  259MOL0     C34897   5.477   3.802   5.306 -0.1170  0.3667  0.0799
  259MOL0     H34898   5.064   4.156   5.434 -1.3057 -0.6034  1.2693
  259MOL0     H34899   4.815   4.153   5.417  4.4037  1.8396  2.7685
  259MOL0     H34900   4.611   4.275   5.044  0.2293 -2.3589 -3.9628
  259MOL0     H34901   4.597   4.106   5.013  0.9692 -0.6278  0.4208
  259MOL0     H34902   4.441   4.254   5.227 -0.5770  0.8980 -1.3616
  259MOL0     H34903   4.409   4.090   5.176 -0.0336  0.5834  2.8483
  259MOL0     H34904   4.362   4.334   4.994 -0.8924  1.0392  1.0084
  259MOL0     H34905   4.237   4.254   5.089  0.2549  1.0896 -0.1342
  259MOL0     H34906   4.404   4.124   4.885  0.1572  1.9813  1.2281
  259MOL0     H34907   4.270   4.051   4.973 -2.2942  0.3572 -1.5978
  259MOL0     H34908   4.219   4.294   4.815  1.1012 -0.2903  0.6631
  259MOL0     H34909   4.230   4.147   4.724  1.3420  2.5379 -1.5062
  259MOL0     H34910   4.036   4.041   4.885 -0.0415  0.0793 -2.2454
  259MOL0     H34911   4.028   4.198   4.969  1.7964  0.6912  0.1449
  259MOL0     H34912   3.933   4.112   4.694  0.6330 -1.9446  0.9764
  259MOL0     H34913   3.965   4.287   4.745 -0.6114  0.5858 -0.9363
  259MOL0     H34914   3.793   4.088   4.889 -1.7877 -2.1332 -4.1777
  259MOL0     H34915   3.795   4.262   4.907  2.6396  0.1030  0.1093
  259MOL0     H34916   3.577   3.995   4.765  2.7008 -0.3824 -0.7919
  259MOL0     H34917   3.329   4.181   4.534 -1.2215 -1.1695  0.8660
  259MOL0     H34918   3.400   4.045   4.461 -0.8153 -0.0682  1.0602
  259MOL0     H34919   3.375   3.925   4.704  0.4825  1.4225  1.4751
  259MOL0     H34920   3.283   4.083   4.724  1.9786  0.0501  0.3903
  259MOL0     H34921   3.191   3.839   4.645  1.1353 -1.1421 -0.9029
  259MOL0     H34922   3.236   3.910   4.489  0.8312 -1.9458  1.2950
  259MOL0     H34923   3.099   4.111   4.569 -2.3087  2.0815  1.9863
  259MOL0     H34924   3.054   4.004   4.715 -0.2921 -1.9919 -0.6564
  259MOL0     H34925   3.094   4.097   4.372 -4.3202  2.6361  2.2874
  259MOL0     H34926   3.101   4.032   4.120 -1.8587  1.0375 -1.6079
  259MOL0     H34927   2.936   3.825   3.723  0.1159 -1.1169  0.4363
  259MOL0     H34928   2.828   3.797   3.508 -0.1606 -1.5778 -0.4887
  259MOL0     H34929   2.555   3.936   3.442 -0.6176  1.1405 -2.4072
  259MOL0     H34930   2.643   3.839   3.321  2.2298 -0.4094  3.3106
  259MOL0     H34931   2.338   3.826   3.392 -0.2671  0.1302 -1.6014
  259MOL0     H34932   2.414   3.933   3.268 -1.4390 -0.6900 -0.8692
  259MOL0     H34933   2.452   3.734   3.133  2.6573  1.6799  2.6431
  259MOL0     H34934   2.408   3.630   3.265  1.7287  0.9416  0.2114
  259MOL0     H34935   2.221   3.812   3.096 -1.2380 -0.6709 -0.9935
  259MOL0     H34936   2.168   3.746   3.249 -0.1077  0.8896 -0.6474
  259MOL0     H34937   2.189   3.508   3.142 -3.2737  0.7144 -0.1911
  259MOL0     H34938   2.255   3.587   3.000  0.7848  3.9829 -0.2083
  259MOL0     H34939   1.982   3.649   3.129  1.7823  2.4776  0.2685
  259MOL0     H34940   2.046   3.725   2.991 -1.6571 -1.6872 -3.0469
  259MOL0     H34941   1.995   3.429   2.999  0.3454 -0.8548 -2.3946
  259MOL0     H34942   2.050   3.512   2.857 -1.3219  1.8271 -0.1356
  259MOL0     H34943   1.775   3.546   2.991 -2.1251  1.8189 -1.6220
  259MOL0     H34944   1.826   3.640   2.845 -2.2766 -0.4347 -0.8912
  259MOL0     H34945   2.451   3.693   3.710 -0.2534 -0.5693 -3.1120
  259MOL0     H34946   2.566   3.749   3.923 -0.4739  0.0765  0.4114
  259MOL0     H34947   2.775   3.765   4.194 -2.1166  2.6184 -2.1146
  259MOL0     H34948   2.828   3.770   4.429 -0.0755 -0.3286 -0.2795
  259MOL0     H34949   4.839   4.140   4.987 -0.7388  0.6208  0.6339
  259MOL0     H34950   5.093   4.120   5.014 -1.2222 -0.4711  0.2142
  259MOL0     H34951   5.411   4.263   5.290 -0.9662  0.1237 -0.7812
  259MOL0     H34952   5.662   4.310   5.316  2.3237 -0.9471  1.7450
  259MOL0     H34953   5.940   3.956   5.254 -0.5940  0.8115 -1.0271
  259MOL0     H34954   5.954   3.997   5.426 -1.7272 -1.7929 -0.0159
  259MOL0     H34955   6.168   4.016   5.310 -2.7871 -2.0715  1.5653
  259MOL0     H34956   6.099   4.162   5.376 -1.1662 -2.7584  2.7848
  259MOL0     H34957   6.199   4.196   5.128  1.1750 -2.5682 -1.0628
  259MOL0     H34958   6.015   4.208   5.136 -0.2408 -1.0876  1.3184
  259MOL0     H34959   5.985   3.988   5.049 -1.0735  2.6096  1.6398
  259MOL0     H34960   6.096   4.070   4.945  2.8379 -2.5334 -0.6613
  259MOL0     H34961   6.369   3.786   5.024 -1.3705 -2.5121 -0.3559
  259MOL0     H34962   5.728   3.880   5.343 -2.1258 -1.5910  2.1809
  259MOL0     H34963   5.387   3.788   5.366 -1.0132  1.3160 -0.9826
  259MOL0     H34964   5.456   3.786   5.199  1.8821  0.0318 -0.3069
  259MOL0     H34965   5.547   3.726   5.341 -1.4439  0.0415  2.1424
  260MOL0     O34966   9.444   3.645   6.772  0.4402  0.0197 -0.0899
  260MOL0     C34967   9.412   3.577   6.677  0.0770  1.3868 -0.1445
  260MOL0     O34968   9.285   3.528   6.648  0.2804 -0.5135  0.0083
  260MOL0     C34969   9.172   3.542   6.729 -1.0529 -0.2933 -0.3931
  260MOL0     C34970   9.048   3.552   6.663 -0.4706 -0.2215 -0.7010
  260MOL0     C34971   8.926   3.557   6.735 -0.6811  0.5191  0.2608
  260MOL0     C34972   8.929   3.538   6.875  0.1867 -0.3354 -1.4459
  260MOL0     O34973   8.815   3.541   6.951 -0.2729  0.6308 -0.5255
  260MOL0     C34974   8.691   3.500   6.884  0.0461 -0.4386 -0.2338
  260MOL0     C34975   8.573   3.445   6.974 -1.6747 -0.1455  0.2290
  260MOL0     C34976   8.541   3.536   7.097 -0.0669  0.5035 -0.9679
  260MOL0     C34977   8.441   3.475   7.198  0.5541  0.1031  0.4325
  260MOL0     C34978   8.478   3.359   7.292 -0.3196  0.1394  0.8372
  260MOL0     C34979   8.376   3.325   7.399 -0.8031  0.3926  1.1093
  260MOL0     C34980   8.444   3.250   7.515 -0.4752 -0.2882  0.9058
  260MOL0     C34981   8.476   3.102   7.508  0.2437 -0.6450  0.8126
  260MOL0     N34982   8.358   3.021   7.486 -0.2143 -0.2840 -0.8321
  260MOL0     C34983   8.248   2.987   7.571 -0.7031  0.4555 -0.0279
  260MOL0     C34984   8.166   2.898   7.507  0.1618 -1.0398 -0.9294
  260MOL0     C34985   8.039   2.850   7.577  0.2705 -0.7603 -0.1081
  260MOL0     C34986   8.050   2.731   7.672 -0.3572 -0.0812  0.0306
  260MOL0     C34987   8.064   2.780   7.815  0.2566 -0.5334  0.0675
  260MOL0     C34988   7.934   2.812   7.888  1.0132  0.2648  0.1186
  260MOL0     O34989   7.885   2.682   7.933  0.0549  0.6603  0.4264
  260MOL0     C34990   7.744   2.677   7.957 -0.0755 -0.2208  0.4804
  260MOL0     C34991   7.690   2.556   7.992  0.9941  1.0539 -0.2960
  260MOL0     C34992   7.556   2.546   8.036  0.1274 -0.0937  1.2016
  260MOL0     C34993   7.476   2.658   8.030  0.3235 -0.2129  0.0790
  260MOL0     C34994   7.335   2.656   8.073 -0.3242  0.0281 -0.2195
  260MOL0     O34995   7.258   2.768   8.053 -0.1692  0.6957 -0.3086
  260MOL0     C34996   7.142   2.777   8.119 -1.6115  0.1411  0.5835
  260MOL0     C34997   7.137   2.784   8.261 -0.2483 -0.3679  0.4349
  260MOL0     C34998   7.011   2.797   8.329 -0.8248  0.5581  0.7887
  260MOL0     C34999   6.895   2.799   8.249  0.5772  0.4034 -0.0750
  260MOL0     O35000   6.772   2.799   8.313  0.6627  0.9770 -0.2977
  260MOL0     C35001   6.754   2.858   8.443  0.1934  0.6521  0.2961
  260MOL0     C35002   6.601   2.894   8.442  0.2356 -0.1168 -1.3309
  260MOL0     C35003   6.560   2.987   8.329  0.0066 -0.1809  0.5284
  260MOL0     C35004   6.413   3.015   8.316 -0.3012  0.7238 -0.6261
  260MOL0     C35005   6.374   3.149   8.268 -0.6351 -0.0959 -0.3477
  260MOL0     C35006   6.239   3.196   8.284 -0.0196  0.6102  0.7081
  260MOL0     C35007   6.147   3.141   8.182  0.1829 -0.0532 -0.4941
  260MOL0     C35008   6.026   3.067   8.244  1.3627 -0.1728 -0.1649
  260MOL0    Cl35009   5.930   2.961   8.143 -0.1430  0.6185  0.3953
  260MOL0     C35010   6.896   2.797   8.115 -0.0880  0.0242 -0.0662
  260MOL0     C35011   7.028   2.790   8.054  0.7700 -1.8607 -0.4054
  260MOL0     O35012   7.290   2.547   8.112  0.0609  0.0382 -0.2083
  260MOL0     C35013   7.523   2.777   7.982 -0.0130  0.0941  0.1157
  260MOL0     C35014   7.666   2.792   7.959  0.3398  0.3240 -0.1251
  260MOL0     N35015   8.230   2.879   7.388 -0.5690  0.0144  0.7677
  260MOL0     N35016   8.331   2.961   7.369 -0.0226  0.3312 -0.1926
  260MOL0     C35017   9.058   3.544   6.936  0.0099 -0.1803 -0.0904
  260MOL0     C35018   9.177   3.549   6.870  0.5850 -0.2759  0.6923
  260MOL0     C35019   9.498   3.550   6.559 -0.5030  0.2353  0.7639
  260MOL0     C35020   9.430   3.537   6.434 -0.2311 -0.2318  0.5777
  260MOL0     C35021   9.507   3.506   6.319 -0.0769 -1.0772 -0.3820
  260MOL0     C35022   9.648   3.504   6.329  0.3529 -0.1609  0.7721
  260MOL0     O35023   9.712   3.476   6.210  0.1770  0.4854 -0.8029
  260MOL0     C35024   9.854   3.485   6.206 -0.8128 -1.4532  0.9848
  260MOL0     C35025   9.915   3.352   6.240  0.3756 -0.1642  0.2208
  260MOL0     C35026  10.059   3.347   6.198  0.0598 -0.6573 -0.4659
  260MOL0     C35027  10.117   3.218   6.252  0.6210 -0.6943  0.2201
  260MOL0     C35028  10.260   3.222   6.236  0.3369 -0.2178  0.5382
  260MOL0     C35029  10.377   3.232   6.215  0.0965 -0.0168  0.4629
  260MOL0     C35030   9.701   3.524   6.459 -0.6483  0.4678  0.0415
  260MOL0     C35031   9.633   3.540   6.573  0.1579  0.3845  0.8312
  260MOL0     C35032   9.702   3.564   6.702 -0.5599 -0.7144  0.1508
  260MOL0     H35033   9.048   3.566   6.555 -0.9178  2.1482 -0.4572
  260MOL0     H35034   8.838   3.559   6.670  0.2906  2.3541 -1.0887
  260MOL0     H35035   8.657   3.589   6.829 -0.3535 -0.4447  0.0043
  260MOL0     H35036   8.714   3.429   6.804  1.3411 -0.8574  0.4785
  260MOL0     H35037   8.601   3.348   7.015  1.4638  0.4236 -0.2932
  260MOL0     H35038   8.489   3.454   6.905 -1.7007  0.6786  0.3506
  260MOL0     H35039   8.499   3.631   7.062 -0.1621  1.1361  0.7801
  260MOL0     H35040   8.637   3.563   7.142 -0.5975 -1.7663  1.8164
  260MOL0     H35041   8.424   3.569   7.252  1.3393  1.2042 -1.1529
  260MOL0     H35042   8.345   3.460   7.148  0.9457 -2.0535  0.2306
  260MOL0     H35043   8.491   3.270   7.231 -0.8597  0.3400  0.4110
  260MOL0     H35044   8.572   3.383   7.341  0.1246  1.4944 -0.5874
  260MOL0     H35045   8.322   3.409   7.444 -2.7990 -1.5572  2.5681
  260MOL0     H35046   8.297   3.263   7.357 -0.1345  0.1984  0.1217
  260MOL0     H35047   8.371   3.264   7.596 -1.0587  0.4446  0.2637
  260MOL0     H35048   8.533   3.303   7.548 -0.9224  0.2261  1.3033
  260MOL0     H35049   8.561   3.091   7.440 -0.7666  0.3351 -0.6501
  260MOL0     H35050   8.517   3.075   7.606 -0.3208  2.2201  1.9226
  260MOL0     H35051   8.245   3.034   7.669 -0.5794  0.2829  0.0591
  260MOL0     H35052   7.977   2.934   7.612 -2.6575 -1.9140 -2.0933
  260MOL0     H35053   7.977   2.824   7.490  0.7066  1.6333 -1.2288
  260MOL0     H35054   7.960   2.668   7.662 -0.5558  0.3125 -0.8141
  260MOL0     H35055   8.135   2.666   7.648 -0.2019  0.5584 -1.2734
  260MOL0     H35056   8.127   2.869   7.822  0.1274 -0.5688  3.4869
  260MOL0     H35057   8.113   2.697   7.868 -1.9770 -2.3578 -0.5438
  260MOL0     H35058   7.865   2.861   7.818  0.9831 -0.4360 -0.3461
  260MOL0     H35059   7.951   2.872   7.978  1.8078  1.1728 -0.6016
  260MOL0     H35060   7.746   2.465   8.012 -1.0908 -1.0116 -3.0251
  260MOL0     H35061   7.518   2.450   8.067 -0.9378  0.1271  0.6265
  260MOL0     H35062   7.235   2.764   8.302  0.3225 -5.2857 -2.3989
  260MOL0     H35063   7.012   2.802   8.438 -0.4315  0.2122  0.7998
  260MOL0     H35064   6.778   2.779   8.516 -0.1507  0.9315  0.7192
  260MOL0     H35065   6.812   2.946   8.470 -0.5310  1.0810  0.4911
  260MOL0     H35066   6.532   2.809   8.447  1.0921 -0.7883 -0.1611
  260MOL0     H35067   6.574   2.954   8.529 -0.2864  0.7353 -2.0755
  260MOL0     H35068   6.608   3.086   8.336 -0.5634  0.3896 -2.1536
  260MOL0     H35069   6.594   2.956   8.230 -1.0291  2.6309 -0.8408
  260MOL0     H35070   6.364   3.010   8.414 -0.3829  4.7742 -0.3153
  260MOL0     H35071   6.371   2.941   8.247 -0.0194  1.2328 -1.3525
  260MOL0     H35072   6.405   3.153   8.163  0.9497  0.2828  0.1185
  260MOL0     H35073   6.434   3.217   8.328 -1.7498 -0.4223  1.2131
  260MOL0     H35074   6.214   3.181   8.389 -0.8387 -0.2260  0.4090
  260MOL0     H35075   6.239   3.304   8.270  0.1378  0.5176 -0.0697
  260MOL0     H35076   6.199   3.072   8.114 -0.1932 -1.3580  0.5081
  260MOL0     H35077   6.110   3.224   8.121 -0.4669  1.0462  1.3502
  260MOL0     H35078   6.049   3.011   8.336 -1.1527 -0.8909  0.1114
  260MOL0     H35079   5.956   3.142   8.282  0.3097 -0.2807 -1.8071
  260MOL0     H35080   6.809   2.815   8.053  1.5192 -0.0011 -2.4662
  260MOL0     H35081   7.042   2.784   7.946 -1.3756 -0.6398 -0.8028
  260MOL0     H35082   7.463   2.867   7.981  2.4998  1.8702 -0.3221
  260MOL0     H35083   7.699   2.893   7.936  0.6685  0.1081 -0.6041
  260MOL0     H35084   9.059   3.550   7.044  1.6662 -0.1702 -0.0896
  260MOL0     H35085   9.269   3.554   6.927 -0.4923  2.2193  2.4276
  260MOL0     H35086   9.322   3.540   6.423 -0.0385  0.1267 -1.8967
  260MOL0     H35087   9.460   3.476   6.226  0.9617  3.7961 -2.7857
  260MOL0     H35088   9.893   3.556   6.280  0.0884 -1.3044  0.3775
  260MOL0     H35089   9.885   3.518   6.106  5.4878 -2.8010  2.0667
  260MOL0     H35090   9.866   3.267   6.190 -0.8663  0.0775  0.9759
  260MOL0     H35091   9.895   3.340   6.347 -1.6620  5.1892  0.7513
  260MOL0     H35092  10.108   3.432   6.246 -0.8716 -0.3914  0.0414
  260MOL0     H35093  10.069   3.350   6.089 -1.8605 -0.8141 -0.6866
  260MOL0     H35094  10.097   3.221   6.359  0.8998 -0.1542  0.2598
  260MOL0     H35095  10.083   3.129   6.198 -2.8629  2.4467 -3.4479
  260MOL0     H35096  10.482   3.221   6.203  0.0317 -2.6534  1.6849
  260MOL0     H35097   9.806   3.508   6.484 -1.1836 -0.2009  2.1396
  260MOL0     H35098   9.811   3.565   6.693 -0.5148  2.2669  0.1808
  260MOL0     H35099   9.686   3.661   6.748 -1.0141 -0.9486  0.4952
  260MOL0     H35100   9.665   3.490   6.774 -0.9515  1.5362  2.3784
  261MOL0     O35101   4.465   9.968   3.738 -0.3945  0.6452  0.0579
  261MOL0     C35102   4.366  10.024   3.758 -0.0816 -0.1199 -0.4160
  261MOL0     O35103   4.351  10.108   3.861 -0.9398  0.6033  0.4007
  261MOL0     C35104   4.442  10.118   3.962  0.5378  0.8190  0.2271
  261MOL0     C35105   4.548  10.219   3.956  0.0395 -0.4206 -0.2170
  261MOL0     C35106   4.621  10.238   4.075  0.6456 -0.8299 -0.4792
  261MOL0     C35107   4.598  10.150   4.187  0.1163  0.4711 -0.7319
  261MOL0     O35108   4.649  10.180   4.309 -0.0466 -0.2408 -0.4290
  261MOL0     C35109   4.795  10.185   4.333  0.4863 -0.2483  0.2685
  261MOL0     C35110   4.838  10.222   4.479  0.7483  0.2142  1.0761
  261MOL0     C35111   4.762  10.142   4.590  0.7270  0.0677 -0.3356
  261MOL0     C35112   4.821  10.001   4.584  1.0957  0.2843  0.8606
  261MOL0     C35113   4.751   9.905   4.687  0.0087 -0.6860 -0.3167
  261MOL0     C35114   4.792   9.751   4.664  0.5140  0.4457  0.1177
  261MOL0     C35115   4.798   9.674   4.801  0.0401 -0.0367 -0.4127
  261MOL0     C35116   4.856   9.534   4.801 -0.4402 -0.4544  0.1635
  261MOL0     N35117   4.990   9.535   4.737  0.4746  0.0164 -0.1844
  261MOL0     C35118   5.016   9.515   4.599 -0.9741  0.3664  0.7420
  261MOL0     C35119   5.153   9.521   4.583  0.3550  0.4681 -0.4131
  261MOL0     C35120   5.236   9.549   4.457  0.2205  0.1078  0.8160
  261MOL0     C35121   5.311   9.426   4.392  0.1667 -0.7492  0.6208
  261MOL0     C35122   5.425   9.386   4.481 -0.0483  0.2784  0.0341
  261MOL0     C35123   5.481   9.251   4.434 -0.3327 -0.4218  0.1845
  261MOL0     O35124   5.591   9.219   4.521  0.4722  0.2154  0.0860
  261MOL0     C35125   5.618   9.088   4.562  0.2723 -0.0100 -0.4126
  261MOL0     C35126   5.541   8.977   4.532  0.2476 -0.3771 -0.2799
  261MOL0     C35127   5.590   8.851   4.573 -0.3334 -0.1020  0.0942
  261MOL0     C35128   5.721   8.839   4.636 -0.4844  0.2315  1.0014
  261MOL0     C35129   5.778   8.709   4.672  0.4982 -0.5699 -0.7819
  261MOL0     O35130   5.914   8.683   4.645 -0.1222  0.4091 -0.0555
  261MOL0     C35131   5.963   8.555   4.664  0.6839  0.4853 -0.1908
  261MOL0     C35132   6.063   8.516   4.571  0.6432  0.7461 -1.0799
  261MOL0     C35133   6.122   8.388   4.572 -0.1612  0.8539  0.0050
  261MOL0     C35134   6.093   8.299   4.677 -0.6982  0.7134 -0.1185
  261MOL0     O35135   6.151   8.172   4.679  0.4063 -0.1174 -0.4907
  261MOL0     C35136   6.236   8.129   4.782  0.3244 -0.5391  0.5402
  261MOL0     C35137   6.260   7.979   4.787  0.6870 -0.0898  1.1124
  261MOL0     C35138   6.127   7.903   4.794  0.4445 -0.3109  0.3952
  261MOL0     C35139   6.149   7.756   4.783  0.0278  0.4360  0.0143
  261MOL0     C35140   6.181   7.718   4.634  0.1263 -1.2592  0.4184
  261MOL0     C35141   6.191   7.565   4.610  0.8504 -0.3191  0.8154
  261MOL0     C35142   6.258   7.534   4.469 -0.2698 -0.3638  0.1917
  261MOL0     C35143   6.284   7.385   4.447 -1.1099  1.2805 -1.2073
  261MOL0    Cl35144   6.356   7.371   4.286  0.2887 -0.3248 -0.4005
  261MOL0     C35145   5.999   8.334   4.772  0.4218 -0.5386 -0.4036
  261MOL0     C35146   5.934   8.461   4.763 -0.5895  0.3725  0.2519
  261MOL0     O35147   5.706   8.631   4.733  1.0248  0.4960 -0.5909
  261MOL0     C35148   5.788   8.959   4.667 -0.4180 -0.6468 -0.1922
  261MOL0     C35149   5.740   9.077   4.622  0.3221  0.2062 -0.1490
  261MOL0     N35150   5.199   9.538   4.711  0.2914 -0.0393 -0.0588
  261MOL0     N35151   5.109   9.541   4.796  0.9578  0.3671 -0.3455
  261MOL0     C35152   4.511  10.039   4.177  0.0643 -0.2512 -0.0300
  261MOL0     C35153   4.422  10.032   4.069  0.2842  0.1020 -0.0774
  261MOL0     C35154   4.252  10.000   3.679  0.7536 -0.1605  0.3707
  261MOL0     C35155   4.143  10.096   3.680  0.9396  0.8206  0.3229
  261MOL0     C35156   4.031  10.072   3.593  0.2530  0.3365 -0.6617
  261MOL0     C35157   4.020   9.959   3.518 -0.7246 -0.6036 -1.7218
  261MOL0     O35158   3.908   9.941   3.440 -0.5599  0.4757  0.1469
  261MOL0     C35159   3.922   9.955   3.298 -0.5267  0.2426  0.5838
  261MOL0     C35160   3.985   9.839   3.212 -0.5802 -0.0865 -0.3981
  261MOL0     C35161   3.928   9.707   3.257  0.1193 -0.9420 -0.6574
  261MOL0     C35162   3.984   9.587   3.184  0.0480  0.2832 -0.1501
  261MOL0     C35163   3.895   9.475   3.214  0.0668 -0.2409 -0.1859
  261MOL0     C35164   3.818   9.384   3.226  0.2097 -0.1572 -0.3755
  261MOL0     C35165   4.114   9.864   3.529 -0.4884 -0.0979 -0.4614
  261MOL0     C35166   4.230   9.878   3.608  0.3901 -0.5408  0.1830
  261MOL0     C35167   4.338   9.769   3.597  0.5231 -1.2251 -0.9679
  261MOL0     H35168   4.575  10.275   3.867  0.4360  0.7575  0.6099
  261MOL0     H35169   4.692  10.319   4.088  0.1130 -0.1286 -1.7235
  261MOL0     H35170   4.825  10.081   4.318 -1.4792 -0.9214  0.7231
  261MOL0     H35171   4.843  10.246   4.257  3.3464 -3.8781 -1.1633
  261MOL0     H35172   4.800  10.324   4.487  0.0493  0.4109 -2.9672
  261MOL0     H35173   4.945  10.204   4.494  0.5153 -1.0652  1.3039
  261MOL0     H35174   4.653  10.134   4.583  0.8834 -1.1669 -1.8312
  261MOL0     H35175   4.790  10.181   4.688 -2.3490  2.4274 -0.2593
  261MOL0     H35176   4.809   9.962   4.483  4.8268  0.0157  0.3747
  261MOL0     H35177   4.927  10.013   4.607  0.5776 -0.2143  3.8311
  261MOL0     H35178   4.775   9.926   4.791 -1.2080  1.5222 -0.4135
  261MOL0     H35179   4.642   9.917   4.678 -0.1316 -0.5943  1.2563
  261MOL0     H35180   4.712   9.704   4.606  1.2317  1.0370 -1.4264
  261MOL0     H35181   4.883   9.736   4.605 -0.3458  0.3541 -1.2244
  261MOL0     H35182   4.695   9.675   4.839 -0.9781 -1.4325 -2.9140
  261MOL0     H35183   4.862   9.734   4.867  0.8295 -0.2676 -0.9605
  261MOL0     H35184   4.863   9.497   4.904 -1.1350  3.2470  1.6879
  261MOL0     H35185   4.802   9.460   4.741 -1.5409  1.5657 -1.4572
  261MOL0     H35186   4.944   9.513   4.517 -0.5855  2.4918  0.2901
  261MOL0     H35187   5.173   9.588   4.377  1.5078  2.2947  0.7760
  261MOL0     H35188   5.311   9.627   4.477  0.1652  0.8709 -1.6252
  261MOL0     H35189   5.228   9.355   4.388 -1.1856  0.8504 -1.5155
  261MOL0     H35190   5.343   9.445   4.289  3.1090  0.0204  1.5717
  261MOL0     H35191   5.408   9.364   4.587 -0.4486 -0.1069 -0.1089
  261MOL0     H35192   5.507   9.457   4.469 -0.4907  0.6839 -0.6328
  261MOL0     H35193   5.529   9.264   4.337 -1.8399 -0.0648 -0.5442
  261MOL0     H35194   5.404   9.176   4.412 -3.7451  3.2420 -1.7986
  261MOL0     H35195   5.450   8.991   4.473  0.3456  0.6976 -0.2000
  261MOL0     H35196   5.527   8.767   4.549 -2.5204  1.5090 -0.1354
  261MOL0     H35197   6.086   8.575   4.483  0.7199  0.5819 -1.1686
  261MOL0     H35198   6.203   8.349   4.511 -0.0883 -0.0721  0.6653
  261MOL0     H35199   6.330   8.185   4.773 -0.3256  1.4970  4.3406
  261MOL0     H35200   6.187   8.159   4.875 -0.2710 -0.9317  0.3595
  261MOL0     H35201   6.316   7.942   4.701 -0.7004  1.7079 -0.6681
  261MOL0     H35202   6.317   7.961   4.879  1.3267  2.5558  1.2964
  261MOL0     H35203   6.077   7.921   4.890 -1.1802 -0.1955 -0.4398
  261MOL0     H35204   6.060   7.935   4.714 -1.4895 -1.2675  1.5608
  261MOL0     H35205   6.054   7.703   4.795  1.7290 -3.1866 -1.1904
  261MOL0     H35206   6.208   7.705   4.860 -3.0067 -0.6398  1.8181
  261MOL0     H35207   6.274   7.772   4.613 -0.8401  0.6752  0.8279
  261MOL0     H35208   6.103   7.772   4.580  2.0287  1.2403 -0.0254
  261MOL0     H35209   6.244   7.519   4.694 -1.1798 -2.0478  1.2334
  261MOL0     H35210   6.088   7.535   4.628  0.7705 -0.6665 -0.1538
  261MOL0     H35211   6.355   7.586   4.470 -0.1714 -0.5509  0.9956
  261MOL0     H35212   6.199   7.561   4.381 -0.2638 -0.1852  0.2416
  261MOL0     H35213   6.351   7.341   4.522 -0.0842  2.1696 -1.5621
  261MOL0     H35214   6.185   7.340   4.459  0.0662 -0.7358  2.8866
  261MOL0     H35215   5.968   8.268   4.853 -2.8517  1.8976  0.5327
  261MOL0     H35216   5.863   8.484   4.842 -4.5098 -5.1580 -1.1177
  261MOL0     H35217   5.887   8.958   4.711 -0.6268 -1.9124  0.2810
  261MOL0     H35218   5.793   9.170   4.640 -1.2943  1.4124 -1.3144
  261MOL0     H35219   4.506   9.963   4.255  1.1255 -1.9775 -1.5586
  261MOL0     H35220   4.351   9.951   4.056  1.0355 -0.1180 -4.0229
  261MOL0     H35221   4.151  10.192   3.731 -1.6953  0.5028  1.5155
  261MOL0     H35222   3.954  10.148   3.599 -1.5229 -1.4986  2.2143
  261MOL0     H35223   3.983  10.042   3.271  0.0427 -1.0421 -2.6739
  261MOL0     H35224   3.821   9.977   3.263 -0.7118  0.8405  1.4521
  261MOL0     H35225   4.092   9.832   3.235 -1.1631 -1.4417  2.2463
  261MOL0     H35226   3.955   9.854   3.108 -4.0533 -0.8144  0.3984
  261MOL0     H35227   3.821   9.706   3.234  0.5344 -1.9691 -2.9314
  261MOL0     H35228   3.931   9.687   3.364 -0.4760 -0.8663 -0.6274
  261MOL0     H35229   3.982   9.599   3.075 -3.6818  0.5874 -0.1663
  261MOL0     H35230   4.085   9.573   3.224 -0.6656 -1.9000  1.0495
  261MOL0     H35231   3.754   9.302   3.249 -1.4721  1.3376  0.5298
  261MOL0     H35232   4.104   9.783   3.458  1.1858 -0.7630  0.0251
  261MOL0     H35233   4.370   9.731   3.694  0.2083  0.6560 -0.0922
  261MOL0     H35234   4.301   9.690   3.532 -2.4361 -1.1326  0.4265
  261MOL0     H35235   4.425   9.809   3.544 -0.7482  1.2762 -1.3277
  262MOL0     O35236   0.285   3.208   9.096 -0.3159  0.2978 -0.5101
  262MOL0     C35237   0.382   3.258   9.154 -0.7047  0.5704 -0.6893
  262MOL0     O35238   0.503   3.196   9.167 -0.5123 -0.1508 -0.4377
  262MOL0     C35239   0.511   3.069   9.114  0.1705  0.2821 -0.1769
  262MOL0     C35240   0.517   3.047   8.969 -0.2298  0.0611 -0.1370
  262MOL0     C35241   0.510   2.913   8.929 -0.5465 -0.0224  0.2810
  262MOL0     C35242   0.527   2.804   9.011  0.3568  0.9396  0.3653
  262MOL0     O35243   0.540   2.680   8.951 -0.2989  0.0706 -0.9304
  262MOL0     C35244   0.413   2.612   8.964 -0.4461  0.0953 -0.6659
  262MOL0     C35245   0.365   2.548   8.825  0.6983  0.0283  0.2268
  262MOL0     C35246   0.379   2.653   8.718  0.0148 -0.6462  0.7476
  262MOL0     C35247   0.341   2.600   8.581 -0.0531 -0.4645  0.1458
  262MOL0     C35248   0.268   2.717   8.511  0.1876  0.1919  1.2752
  262MOL0     C35249   0.212   2.669   8.375 -0.7005 -0.0306 -0.8562
  262MOL0     C35250   0.100   2.752   8.322 -0.2899 -0.0101 -0.1727
  262MOL0     C35251   0.079   2.752   8.169  0.3413  0.5858  0.2100
  262MOL0     N35252  -0.065   2.731   8.137  0.8387 -0.2843  0.1206
  262MOL0     C35253  -0.163   2.815   8.170  0.2688  0.5259  0.5912
  262MOL0     C35254  -0.274   2.772   8.099  1.3592  0.2148  0.3859
  262MOL0     C35255  -0.418   2.820   8.111 -0.5533 -0.0614  0.3002
  262MOL0     C35256  -0.460   2.902   7.992 -0.0652 -0.6403  0.8334
  262MOL0     C35257  -0.591   2.964   8.031 -0.4168  1.0960 -0.4611
  262MOL0     C35258  -0.670   3.048   7.926 -0.3144 -0.1669 -0.0659
  262MOL0     O35259  -0.767   3.119   8.008  0.2404  0.5294  0.2124
  262MOL0     C35260  -0.853   3.191   7.935  0.5117 -0.1725  0.4844
  262MOL0     C35261  -0.985   3.179   7.987 -0.5790 -0.3240  0.7447
  262MOL0     C35262  -1.094   3.232   7.919  1.1510 -0.7324 -1.1234
  262MOL0     C35263  -1.067   3.326   7.824 -0.0804  0.0881  0.2980
  262MOL0     C35264  -1.181   3.395   7.764  1.3171  0.8025  0.7079
  262MOL0     O35265  -1.297   3.404   7.840  0.4603  1.1821 -0.3963
  262MOL0     C35266  -1.410   3.448   7.779 -0.4839  0.0771 -0.6514
  262MOL0     C35267  -1.453   3.402   7.650  0.0804 -0.3100  0.9164
  262MOL0     C35268  -1.581   3.431   7.599 -0.0417 -0.4444  0.8897
  262MOL0     C35269  -1.667   3.512   7.672 -0.1868  0.3473  0.0719
  262MOL0     O35270  -1.781   3.545   7.609 -0.6049  0.2014 -0.2896
  262MOL0     C35271  -1.827   3.678   7.619  0.9234 -0.1634 -0.0498
  262MOL0     C35272  -1.970   3.690   7.551 -0.7083 -0.9693 -0.5967
  262MOL0     C35273  -2.096   3.715   7.637 -0.4832  0.4549  0.2446
  262MOL0     C35274  -2.145   3.598   7.708  0.0973 -0.4890 -0.5600
  262MOL0     C35275  -2.227   3.630   7.839 -1.0109 -1.0454  0.9543
  262MOL0     C35276  -2.361   3.699   7.819 -1.1020  0.0043 -0.0606
  262MOL0     C35277  -2.459   3.596   7.754  0.1715  0.0283 -0.4236
  262MOL0     C35278  -2.608   3.640   7.764  1.2234 -0.4846 -0.3263
  262MOL0    Cl35279  -2.654   3.648   7.941 -0.4106  0.0378  0.0953
  262MOL0     C35280  -1.618   3.560   7.795  0.6537  0.2158  0.2511
  262MOL0     C35281  -1.499   3.527   7.852 -0.6489  0.0341  0.1728
  262MOL0     O35282  -1.162   3.434   7.648  0.8003  0.2433 -0.2884
  262MOL0     C35283  -0.931   3.336   7.773  0.6426 -0.5342  0.0815
  262MOL0     C35284  -0.823   3.275   7.828 -0.1014 -0.4934 -0.2391
  262MOL0     N35285  -0.228   2.659   8.026 -0.2433  0.7161  0.3248
  262MOL0     N35286  -0.102   2.634   8.055  0.2016 -0.0626 -0.0543
  262MOL0     C35287   0.522   2.831   9.147  0.0425 -1.0279 -0.2859
  262MOL0     C35288   0.503   2.957   9.199  0.3474  0.4145  0.2332
  262MOL0     C35289   0.357   3.391   9.232 -0.0816 -0.5176  0.4511
  262MOL0     C35290   0.229   3.441   9.226 -0.9792 -0.7872 -1.7752
  262MOL0     C35291   0.186   3.572   9.278 -0.2858 -0.1647 -0.8745
  262MOL0     C35292   0.277   3.650   9.349 -0.1998 -0.0975  0.0055
  262MOL0     O35293   0.259   3.772   9.397 -0.2963 -0.0980  0.3267
  262MOL0     C35294   0.130   3.836   9.378  0.5349  0.6274  0.2747
  262MOL0     C35295   0.128   3.883   9.231  0.3647 -0.3394 -0.4476
  262MOL0     C35296   0.250   3.969   9.204 -0.5706 -0.9843  0.1836
  262MOL0     C35297   0.234   4.076   9.093  0.3474  0.5135 -0.5688
  262MOL0     C35298   0.187   4.014   8.967 -1.0445 -0.0280  0.4643
  262MOL0     C35299   0.149   3.966   8.864  1.0070  0.4063 -0.3355
  262MOL0     C35300   0.404   3.591   9.362 -0.7079  1.1207 -0.5619
  262MOL0     C35301   0.448   3.468   9.308 -0.4087 -0.1117  1.1029
  262MOL0     C35302   0.592   3.431   9.317 -0.1384  0.6077  0.3562
  262MOL0     H35303   0.507   3.124   8.893  0.2119 -0.8491 -1.1452
  262MOL0     H35304   0.492   2.885   8.826 -2.5135  0.3125  0.5009
  262MOL0     H35305   0.419   2.530   9.036  1.5223  0.8488  0.0651
  262MOL0     H35306   0.332   2.676   9.000  0.6387  1.5118 -0.7019
  262MOL0     H35307   0.264   2.510   8.842 -0.3254  1.5603 -2.0212
  262MOL0     H35308   0.432   2.466   8.797 -0.4978 -0.5821 -0.9241
  262MOL0     H35309   0.473   2.708   8.712 -1.8576  2.8818  0.9481
  262MOL0     H35310   0.312   2.730   8.757  2.0860  0.3109  2.6296
  262MOL0     H35311   0.425   2.572   8.517  2.0105  2.3635  1.3680
  262MOL0     H35312   0.283   2.507   8.582  0.6331 -0.8999 -0.0325
  262MOL0     H35313   0.200   2.777   8.572 -1.6014 -0.4947  0.0148
  262MOL0     H35314   0.349   2.789   8.490  0.6162 -0.3638  0.9906
  262MOL0     H35315   0.298   2.661   8.308  0.2204 -2.2999  0.4628
  262MOL0     H35316   0.176   2.569   8.403 -1.6469  0.6891  0.6124
  262MOL0     H35317   0.126   2.856   8.347  4.0903  0.0588 -3.7509
  262MOL0     H35318   0.005   2.723   8.368 -0.9986  0.5546 -1.2352
  262MOL0     H35319   0.123   2.835   8.112  1.3747 -0.0488  0.0530
  262MOL0     H35320   0.135   2.665   8.135  0.8124  0.8471  0.3023
  262MOL0     H35321  -0.148   2.888   8.249  1.1153  1.8431 -0.7339
  262MOL0     H35322  -0.488   2.737   8.107 -0.9660  0.0865  2.6737
  262MOL0     H35323  -0.415   2.887   8.198 -0.6628 -3.0005  2.7731
  262MOL0     H35324  -0.388   2.984   7.980  1.1663 -1.8678 -0.4756
  262MOL0     H35325  -0.464   2.852   7.895 -1.1828 -2.1492  1.6208
  262MOL0     H35326  -0.579   3.027   8.120 -1.6113  2.5810 -1.2962
  262MOL0     H35327  -0.656   2.880   8.060 -2.4645  2.6989 -0.1593
  262MOL0     H35328  -0.714   2.972   7.860  1.5766 -1.9104  0.5679
  262MOL0     H35329  -0.603   3.103   7.860 -0.6129 -0.5565 -0.7014
  262MOL0     H35330  -1.003   3.116   8.073 -0.9957 -0.1355  0.8035
  262MOL0     H35331  -1.194   3.194   7.938  2.0511 -1.6067  2.8642
  262MOL0     H35332  -1.387   3.336   7.595 -0.9830  0.6145 -1.6179
  262MOL0     H35333  -1.618   3.388   7.506 -1.2001  1.5890  0.3540
  262MOL0     H35334  -1.833   3.695   7.727 -0.7231  0.4800 -0.2151
  262MOL0     H35335  -1.753   3.746   7.575  0.4558  2.2594  2.6448
  262MOL0     H35336  -1.955   3.781   7.492 -1.5245 -1.6735 -1.9380
  262MOL0     H35337  -1.986   3.608   7.481  1.2876 -2.6135  0.7764
  262MOL0     H35338  -2.082   3.801   7.703 -4.7078  3.5441 -2.3464
  262MOL0     H35339  -2.176   3.748   7.570  0.0436 -1.1687 -1.2568
  262MOL0     H35340  -2.060   3.539   7.743 -0.6378  0.4345  3.2619
  262MOL0     H35341  -2.205   3.536   7.640 -1.1449  1.0707 -0.9506
  262MOL0     H35342  -2.161   3.702   7.891 -0.6675  1.7425 -2.8807
  262MOL0     H35343  -2.241   3.540   7.898 -0.4091 -1.1525  0.9476
  262MOL0     H35344  -2.389   3.744   7.914 -0.8754 -1.1381  0.5724
  262MOL0     H35345  -2.344   3.784   7.753  2.4832  0.2611  0.9426
  262MOL0     H35346  -2.447   3.501   7.808  0.9226  0.8441  0.8948
  262MOL0     H35347  -2.426   3.573   7.653  0.0279  0.3794 -0.5494
  262MOL0     H35348  -2.612   3.742   7.726  1.3683 -0.5564 -0.5333
  262MOL0     H35349  -2.674   3.578   7.703  1.6040 -0.8891 -0.3264
  262MOL0     H35350  -1.686   3.620   7.855  1.1327  1.3375 -0.3068
  262MOL0     H35351  -1.476   3.581   7.943 -1.6053 -1.1646  1.1684
  262MOL0     H35352  -0.921   3.402   7.688 -3.2560 -1.4372 -1.2995
  262MOL0     H35353  -0.721   3.292   7.794  0.2400  1.1290  1.4601
  262MOL0     H35354   0.542   2.743   9.209  2.4899 -0.4579 -0.1698
  262MOL0     H35355   0.511   2.986   9.304 -3.9604  0.0300  0.8692
  262MOL0     H35356   0.149   3.381   9.183 -1.5541 -2.2415  1.0508
  262MOL0     H35357   0.082   3.604   9.273  0.6687  3.0919 -2.4145
  262MOL0     H35358   0.130   3.919   9.450  0.4041  1.3036 -0.5011
  262MOL0     H35359   0.036   3.785   9.402 -0.5847  2.4028 -0.2371
  262MOL0     H35360   0.037   3.943   9.221  1.5299  1.5760 -0.0822
  262MOL0     H35361   0.136   3.797   9.164  3.2210  0.9476 -1.9217
  262MOL0     H35362   0.332   3.906   9.167 -1.3319 -1.2630 -1.1128
  262MOL0     H35363   0.284   4.016   9.297  2.2423 -0.1720 -1.1321
  262MOL0     H35364   0.162   4.152   9.125  1.4956  2.4266 -2.2938
  262MOL0     H35365   0.331   4.126   9.082  1.6436 -0.7790  3.2179
  262MOL0     H35366   0.107   3.943   8.769 -0.9360  2.1150  0.0383
  262MOL0     H35367   0.480   3.631   9.427 -2.4803 -0.7648  2.9417
  262MOL0     H35368   0.595   3.331   9.361 -0.0162 -0.8468 -2.6900
  262MOL0     H35369   0.635   3.431   9.216 -1.0332 -0.3100 -0.0372
  262MOL0     H35370   0.644   3.504   9.381  3.4618  0.9062 -2.5396
  263MOL0     O35371   8.346   7.048   1.266  0.0806  0.0560  0.3945
  263MOL0     C35372   8.306   6.931   1.295 -0.5346  0.4229  0.6086
  263MOL0     O35373   8.379   6.833   1.351  0.0245  0.6387  0.3549
  263MOL0     C35374   8.512   6.850   1.373 -0.8285 -0.2032  1.2435
  263MOL0     C35375   8.602   6.765   1.307 -0.0199 -0.0090  0.7786
  263MOL0     C35376   8.741   6.780   1.319  0.3529 -0.0874  0.1728
  263MOL0     C35377   8.797   6.887   1.391  1.2224 -0.6640  0.0274
  263MOL0     O35378   8.932   6.916   1.404 -0.6586  0.1544 -0.5885
  263MOL0     C35379   9.025   6.826   1.335 -0.8911  0.2861 -0.4146
  263MOL0     C35380   9.169   6.864   1.373 -0.4076  0.0185 -0.7221
  263MOL0     C35381   9.229   6.976   1.291 -0.2744 -0.1169  0.8895
  263MOL0     C35382   9.377   6.986   1.328  1.0846 -0.1446 -0.2881
  263MOL0     C35383   9.445   7.103   1.254  0.6655  0.4313 -0.3531
  263MOL0     C35384   9.594   7.111   1.299  0.0296  0.0432  0.6970
  263MOL0     C35385   9.677   7.004   1.230 -0.0308 -0.6061 -0.2027
  263MOL0     C35386   9.817   6.993   1.295  0.3542  0.9143 -0.0656
  263MOL0     N35387   9.908   6.924   1.204 -0.0854  0.1493  0.4463
  263MOL0     C35388   9.921   6.784   1.193  0.1425  0.0428 -0.2437
  263MOL0     C35389  10.042   6.760   1.143  0.2382 -0.6775  0.3665
  263MOL0     C35390  10.080   6.632   1.080 -0.1597  0.2008 -0.3173
  263MOL0     C35391  10.224   6.630   1.011  0.4056 -0.1265  0.0605
  263MOL0     C35392  10.328   6.648   1.121 -0.2122  0.4861  0.0200
  263MOL0     C35393  10.482   6.648   1.079 -0.8911 -0.7047  0.8958
  263MOL0     O35394  10.522   6.539   0.990  0.4105  0.4699  0.1842
  263MOL0     C35395  10.661   6.516   0.975  0.8972 -0.6936  0.0772
  263MOL0     C35396  10.768   6.574   1.053  0.1662  0.6780  0.8067
  263MOL0     C35397  10.900   6.545   1.025  0.2044  0.6442  0.5122
  263MOL0     C35398  10.937   6.458   0.924  0.7436 -0.6687 -0.1826
  263MOL0     C35399  11.083   6.425   0.906 -0.6128 -0.0572 -0.1932
  263MOL0     O35400  11.113   6.336   0.803 -0.4260  0.7761 -0.3778
  263MOL0     C35401  11.247   6.320   0.764 -0.1531  0.4528 -0.0932
  263MOL0     C35402  11.334   6.237   0.839 -0.0356 -0.7963  0.8420
  263MOL0     C35403  11.475   6.230   0.803 -0.0457  0.3341 -0.5707
  263MOL0     C35404  11.517   6.307   0.694 -0.2035 -0.5483  0.4220
  263MOL0     O35405  11.655   6.308   0.669  0.1300  0.4901 -0.2031
  263MOL0     C35406  11.706   6.427   0.607  0.6753 -0.2149  0.5973
  263MOL0     C35407  11.853   6.416   0.592  0.0916 -0.3578  0.0616
  263MOL0     C35408  11.902   6.291   0.516  0.3058 -0.6505 -0.0351
  263MOL0     C35409  12.031   6.323   0.438 -0.8206 -0.3546  0.1724
  263MOL0     C35410  12.167   6.330   0.509 -0.4391  0.0552  0.0761
  263MOL0     C35411  12.278   6.391   0.422 -0.0333 -0.8427 -0.1684
  263MOL0     C35412  12.413   6.357   0.487 -0.9369  0.2109 -0.1673
  263MOL0     C35413  12.524   6.404   0.395 -1.4608  0.0047  0.7927
  263MOL0    Cl35414  12.521   6.297   0.246  0.5174  0.3987  0.4315
  263MOL0     C35415  11.426   6.391   0.630 -0.3345 -0.9396  0.3176
  263MOL0     C35416  11.299   6.393   0.663  1.0752  0.6237 -0.0139
  263MOL0     O35417  11.169   6.472   0.985  0.5721 -0.5760 -0.1047
  263MOL0     C35418  10.839   6.412   0.841 -0.7598 -0.1721 -0.5532
  263MOL0     C35419  10.702   6.430   0.862  0.2526 -0.2639 -0.4713
  263MOL0     N35420  10.107   6.880   1.133 -1.1661 -0.5781 -1.4805
  263MOL0     N35421  10.030   6.972   1.171  0.1430 -0.7596  0.0300
  263MOL0     C35422   8.707   6.974   1.462 -0.2849  0.2463  0.1513
  263MOL0     C35423   8.568   6.955   1.455  1.1293 -0.3258  1.1834
  263MOL0     C35424   8.178   6.877   1.249 -0.2280 -0.1570 -0.7527
  263MOL0     C35425   8.126   6.932   1.128  0.7610 -0.8180 -0.1636
  263MOL0     C35426   8.007   6.878   1.064  0.1064 -0.8523 -0.0132
  263MOL0     C35427   7.936   6.782   1.136  0.3596 -0.1523  0.5243
  263MOL0     O35428   7.831   6.721   1.072 -0.2682 -0.1961 -0.2868
  263MOL0     C35429   7.861   6.608   0.989 -0.8578  0.5182 -0.2177
  263MOL0     C35430   7.869   6.485   1.062  0.4004  0.3618 -0.6970
  263MOL0     C35431   7.732   6.440   1.113  0.0570 -0.1201 -0.2123
  263MOL0     C35432   7.749   6.329   1.207 -0.9920  0.8850 -0.1479
  263MOL0     C35433   7.807   6.373   1.339 -1.0469 -0.1703 -0.1765
  263MOL0     C35434   7.842   6.400   1.442 -0.0331 -0.1091 -0.6105
  263MOL0     C35435   7.977   6.742   1.261 -0.2121 -0.3204 -0.2236
  263MOL0     C35436   8.103   6.785   1.319  0.2857  0.1734  0.0957
  263MOL0     C35437   8.140   6.717   1.449  0.2566 -0.2203 -0.4435
  263MOL0     H35438   8.569   6.672   1.262 -0.0745 -1.8110  4.1706
  263MOL0     H35439   8.809   6.717   1.263  1.6442  2.8276 -1.8298
  263MOL0     H35440   8.997   6.724   1.364 -2.1326  1.0915  1.4917
  263MOL0     H35441   9.014   6.832   1.227  0.8062  1.6988 -0.5467
  263MOL0     H35442   9.224   6.770   1.364 -3.3230 -2.0281  0.8025
  263MOL0     H35443   9.170   6.906   1.474  2.3239  1.7639 -1.3832
  263MOL0     H35444   9.159   7.060   1.294 -3.6873 -2.6708  0.1981
  263MOL0     H35445   9.231   6.952   1.184 -0.5683  1.8211  0.4143
  263MOL0     H35446   9.393   6.973   1.436  1.1769 -1.1312 -0.4122
  263MOL0     H35447   9.422   6.893   1.291 -0.2945 -0.5897 -0.8973
  263MOL0     H35448   9.427   7.083   1.148  1.0538  3.8695 -1.1844
  263MOL0     H35449   9.399   7.201   1.271  0.8084  1.0522 -3.0585
  263MOL0     H35450   9.645   7.202   1.267  2.2817 -0.7111  1.9413
  263MOL0     H35451   9.603   7.106   1.407 -0.3122 -4.6741  0.7133
  263MOL0     H35452   9.691   7.033   1.125 -0.9826  0.3981 -0.0713
  263MOL0     H35453   9.637   6.902   1.234 -0.6485 -0.3315  1.0507
  263MOL0     H35454   9.852   7.097   1.292  0.7290  0.7745 -0.9670
  263MOL0     H35455   9.817   6.958   1.398 -1.2161 -2.0738 -0.9609
  263MOL0     H35456   9.839   6.715   1.208 -0.3687  0.9262  1.2302
  263MOL0     H35457  10.073   6.560   1.162  1.4814  0.2234 -0.1251
  263MOL0     H35458  10.004   6.601   1.008 -0.7305  2.7439 -0.9086
  263MOL0     H35459  10.233   6.528   0.972  0.0216 -0.0728 -0.1789
  263MOL0     H35460  10.237   6.708   0.935  3.5696  1.3081  1.8612
  263MOL0     H35461  10.326   6.571   1.198  0.1541 -0.4963 -0.9386
  263MOL0     H35462  10.301   6.735   1.183 -0.1539  2.2589 -2.2914
  263MOL0     H35463  10.538   6.648   1.173 -0.7920  5.6736  1.2331
  263MOL0     H35464  10.497   6.746   1.033 -1.4825 -0.0448  2.0814
  263MOL0     H35465  10.733   6.631   1.138 -1.3705 -1.3332  1.6268
  263MOL0     H35466  10.973   6.589   1.092 -1.7496  1.1970  2.4066
  263MOL0     H35467  11.292   6.190   0.927  0.0818 -0.0648  1.3019
  263MOL0     H35468  11.543   6.175   0.868 -0.8643  1.1803  1.0804
  263MOL0     H35469  11.659   6.431   0.509  0.7292 -0.7402  0.5495
  263MOL0     H35470  11.684   6.515   0.669 -0.3034 -0.1437  0.1556
  263MOL0     H35471  11.883   6.508   0.540 -1.3921  0.1806  0.1186
  263MOL0     H35472  11.906   6.423   0.688 -1.1691 -3.1854  1.0798
  263MOL0     H35473  11.919   6.210   0.588 -0.7213  0.7677  1.8867
  263MOL0     H35474  11.816   6.267   0.452  0.3881 -0.6665 -0.1403
  263MOL0     H35475  12.009   6.419   0.391 -3.7983 -0.9620  0.1490
  263MOL0     H35476  12.055   6.246   0.364  2.5785  3.4477 -3.1241
  263MOL0     H35477  12.204   6.228   0.514 -0.8546 -0.1986 -1.4606
  263MOL0     H35478  12.156   6.381   0.605  0.1671 -1.0723  0.7597
  263MOL0     H35479  12.271   6.347   0.322  0.1212 -1.8815  0.2577
  263MOL0     H35480  12.268   6.500   0.419  0.9980 -0.6092  2.3372
  263MOL0     H35481  12.434   6.251   0.502 -1.3974 -0.1108 -1.6690
  263MOL0     H35482  12.434   6.411   0.581 -1.1465  1.4509 -0.8113
  263MOL0     H35483  12.508   6.500   0.346 -2.5822 -0.4745  0.1695
  263MOL0     H35484  12.621   6.405   0.445  0.6274 -3.0978 -2.5857
  263MOL0     H35485  11.463   6.473   0.570  0.6749 -0.7275  1.1967
  263MOL0     H35486  11.235   6.460   0.605 -1.5712 -2.2913 -0.7378
  263MOL0     H35487  10.877   6.348   0.762  2.2173  0.2552  0.4274
  263MOL0     H35488  10.626   6.378   0.805 -1.7076  1.6376  0.2596
  263MOL0     H35489   8.741   7.069   1.502 -1.4956  1.2632 -1.1456
  263MOL0     H35490   8.503   7.025   1.506 -0.0428 -0.7920  0.3862
  263MOL0     H35491   8.176   7.015   1.079  2.1367 -0.1654  2.2293
  263MOL0     H35492   7.959   6.913   0.973 -0.4384 -1.6038 -0.0285
  263MOL0     H35493   7.959   6.615   0.942 -1.9296 -0.4726 -2.7917
  263MOL0     H35494   7.796   6.601   0.902 -0.7850 -1.9409 -0.1450
  263MOL0     H35495   7.940   6.487   1.145 -0.0024 -3.7145 -0.0234
  263MOL0     H35496   7.914   6.410   0.997 -3.0160 -2.8923  0.3124
  263MOL0     H35497   7.679   6.404   1.024  2.6514  0.2378 -2.0310
  263MOL0     H35498   7.680   6.521   1.164  2.3249 -0.1897  2.4352
  263MOL0     H35499   7.659   6.269   1.224  1.5430 -4.0446 -1.9343
  263MOL0     H35500   7.803   6.248   1.155 -2.5362  0.2257 -0.7909
  263MOL0     H35501   7.867   6.418   1.544  0.9327 -3.3484 -0.1657
  263MOL0     H35502   7.923   6.677   1.329  2.6400 -1.2889  1.2900
  263MOL0     H35503   8.184   6.784   1.523 -0.5568 -1.6800  1.4655
  263MOL0     H35504   8.052   6.672   1.496  0.6684 -1.2423 -0.6084
  263MOL0     H35505   8.212   6.637   1.429 -0.0988 -0.3430 -1.2471
  264MOL0     O35506   7.048   5.742   6.661  0.1260 -0.3818  0.3385
  264MOL0     C35507   6.986   5.653   6.609  0.3928  1.0184 -0.0285
  264MOL0     O35508   7.027   5.527   6.593  0.2001  0.0280  0.6472
  264MOL0     C35509   7.159   5.502   6.591  0.5864  0.0283 -0.7296
  264MOL0     C35510   7.258   5.545   6.681 -0.0052  0.4312 -0.3267
  264MOL0     C35511   7.395   5.494   6.674 -0.0741  0.5553  0.5224
  264MOL0     C35512   7.440   5.409   6.572  1.2722 -0.4444  0.5829
  264MOL0     O35513   7.568   5.359   6.545 -0.0535  0.8797 -1.0355
  264MOL0     C35514   7.681   5.398   6.614 -0.6841 -0.4712  0.2080
  264MOL0     C35515   7.771   5.496   6.538  0.4510  0.5235 -0.8627
  264MOL0     C35516   7.806   5.456   6.395  0.6623  0.1180  0.2064
  264MOL0     C35517   7.944   5.510   6.353 -0.1246 -0.3965  0.0542
  264MOL0     C35518   7.986   5.648   6.402 -0.9497 -0.0175 -0.1158
  264MOL0     C35519   8.109   5.719   6.333 -0.4544 -1.2972 -1.0183
  264MOL0     C35520   8.234   5.640   6.341 -0.6525 -0.0361 -0.1853
  264MOL0     C35521   8.353   5.729   6.289 -0.1369  0.0452  0.6516
  264MOL0     N35522   8.461   5.733   6.390  0.1478  0.4713 -0.1706
  264MOL0     C35523   8.512   5.614   6.449 -0.2235 -0.3350 -0.0651
  264MOL0     C35524   8.589   5.663   6.550  0.3125  0.4230  0.7179
  264MOL0     C35525   8.663   5.586   6.662  1.2986 -0.1062  0.2067
  264MOL0     C35526   8.626   5.439   6.659  0.6760 -0.1858  0.6276
  264MOL0     C35527   8.709   5.363   6.568  0.2656 -1.1851  0.3224
  264MOL0     C35528   8.681   5.214   6.585 -0.0302  0.8230  0.6310
  264MOL0     O35529   8.697   5.163   6.713 -0.1991  0.6815  0.0598
  264MOL0     C35530   8.826   5.112   6.750 -0.0991 -0.1473  0.0614
  264MOL0     C35531   8.941   5.140   6.682  0.0169 -0.4609  0.7850
  264MOL0     C35532   9.064   5.079   6.720 -0.4515  0.2765  0.8540
  264MOL0     C35533   9.076   4.994   6.835  0.2189  0.6582  0.2997
  264MOL0     C35534   9.210   4.922   6.867  0.7572 -1.1799  0.3585
  264MOL0     O35535   9.219   4.875   6.993  0.4135 -0.4869 -1.0276
  264MOL0     C35536   9.328   4.796   7.018 -0.0465  0.3258 -0.0658
  264MOL0     C35537   9.329   4.658   6.972 -0.5739  0.6723  0.0105
  264MOL0     C35538   9.444   4.586   6.988  0.0594  0.3994  0.7806
  264MOL0     C35539   9.553   4.628   7.060 -0.2182  0.8440 -0.0403
  264MOL0     O35540   9.675   4.559   7.053 -0.4901  0.2616 -0.7051
  264MOL0     C35541   9.713   4.485   6.937  0.3826  0.7191  0.0922
  264MOL0     C35542   9.758   4.568   6.815 -0.3849  0.2403  0.5687
  264MOL0     C35543   9.734   4.483   6.683 -0.8687 -0.4884 -0.1175
  264MOL0     C35544   9.598   4.522   6.622 -0.4099 -0.1001 -0.0110
  264MOL0     C35545   9.543   4.399   6.546  0.3253  0.1973 -0.2002
  264MOL0     C35546   9.632   4.376   6.422  0.0755 -0.1689  0.3153
  264MOL0     C35547   9.552   4.301   6.320  0.2482 -0.7654  0.4222
  264MOL0     C35548   9.631   4.237   6.198  0.6119  0.3787 -0.0886
  264MOL0    Cl35549   9.750   4.355   6.133  0.2544 -0.1709  0.3244
  264MOL0     C35550   9.542   4.756   7.125 -0.2925 -0.2793 -0.4741
  264MOL0     C35551   9.437   4.842   7.093  0.6650 -0.4206  0.5784
  264MOL0     O35552   9.280   4.899   6.773 -0.3539 -0.3284 -0.0437
  264MOL0     C35553   8.957   4.968   6.908 -0.7017  0.2730 -0.1940
  264MOL0     C35554   8.840   5.025   6.867  0.4398 -0.4169  0.4630
  264MOL0     N35555   8.596   5.801   6.536 -0.6682 -0.5921 -0.6508
  264MOL0     N35556   8.522   5.842   6.442 -0.0598  0.2956  0.7752
  264MOL0     C35557   7.333   5.376   6.478 -0.0390 -1.2656  0.3790
  264MOL0     C35558   7.202   5.416   6.493  0.4920 -0.1668  0.3161
  264MOL0     C35559   6.844   5.676   6.574  0.0916  0.4330  0.3113
  264MOL0     C35560   6.767   5.779   6.649  0.3844 -0.4331 -0.0361
  264MOL0     C35561   6.629   5.804   6.612  0.3080  0.9433 -0.7817
  264MOL0     C35562   6.573   5.740   6.509 -0.0455 -0.3333  0.5773
  264MOL0     O35563   6.442   5.756   6.469  0.0923  0.1667  0.3709
  264MOL0     C35564   6.378   5.667   6.375  0.2420  0.0955 -0.0805
  264MOL0     C35565   6.245   5.716   6.336 -0.7403 -1.0430 -0.6675
  264MOL0     C35566   6.161   5.637   6.243 -0.4827 -0.2899  0.2411
  264MOL0     C35567   6.052   5.722   6.167  0.7952 -0.2072 -1.2402
  264MOL0     C35568   6.020   5.652   6.044  0.4449 -1.6451 -0.8825
  264MOL0     C35569   6.026   5.587   5.942  0.0517 -0.6778 -0.3823
  264MOL0     C35570   6.649   5.644   6.437 -0.0039 -0.2851 -0.8726
  264MOL0     C35571   6.781   5.601   6.465 -1.2566  1.4747 -0.6859
  264MOL0     C35572   6.827   5.479   6.383 -0.4379 -0.5493 -0.5179
  264MOL0     H35573   7.236   5.601   6.771 -0.2915 -2.5635  1.5988
  264MOL0     H35574   7.468   5.531   6.745 -0.5424 -1.7700  2.3666
  264MOL0     H35575   7.669   5.442   6.713  0.5534 -1.7811  0.9838
  264MOL0     H35576   7.727   5.299   6.624 -0.7062 -0.4315  0.7025
  264MOL0     H35577   7.863   5.505   6.597  0.2595  2.3374 -0.7635
  264MOL0     H35578   7.736   5.600   6.541  1.2848  0.8126 -0.7585
  264MOL0     H35579   7.743   5.508   6.322  1.0621 -0.1913 -0.3662
  264MOL0     H35580   7.783   5.351   6.373 -0.5398  0.2818  0.5982
  264MOL0     H35581   8.017   5.439   6.394 -0.5426 -1.2447 -0.6349
  264MOL0     H35582   7.957   5.502   6.245  1.0479  0.8560  0.0760
  264MOL0     H35583   7.917   5.733   6.393  0.8210  1.8753  2.7120
  264MOL0     H35584   8.006   5.632   6.508  1.9872 -1.8900 -0.8260
  264MOL0     H35585   8.082   5.755   6.233  1.4625  0.4811 -0.9612
  264MOL0     H35586   8.125   5.808   6.395 -0.8979 -1.5485 -0.5393
  264MOL0     H35587   8.220   5.546   6.288  0.0979  0.5128 -1.4061
  264MOL0     H35588   8.253   5.616   6.446 -0.5971 -1.3560 -0.4805
  264MOL0     H35589   8.402   5.690   6.200  2.4609  1.3387  1.4155
  264MOL0     H35590   8.320   5.826   6.252 -2.3105 -1.4387 -1.5852
  264MOL0     H35591   8.471   5.517   6.422 -1.3682  0.1087  0.0340
  264MOL0     H35592   8.770   5.596   6.642  1.1064 -1.0334 -1.5202
  264MOL0     H35593   8.629   5.629   6.756  2.5058 -0.7825  0.9781
  264MOL0     H35594   8.616   5.393   6.757 -1.3429 -0.0847  0.5153
  264MOL0     H35595   8.524   5.429   6.619  0.1335 -0.6234  2.0890
  264MOL0     H35596   8.812   5.388   6.596 -0.2225  1.9153 -0.2155
  264MOL0     H35597   8.689   5.386   6.463  2.1191 -1.6762 -0.1669
  264MOL0     H35598   8.737   5.154   6.513 -1.1308  2.5361 -1.7904
  264MOL0     H35599   8.579   5.195   6.550  0.8727  2.1379 -3.1896
  264MOL0     H35600   8.950   5.191   6.587 -0.4464 -1.7315  0.0280
  264MOL0     H35601   9.151   5.088   6.656 -0.0604 -2.3934  0.8879
  264MOL0     H35602   9.255   4.608   6.912 -1.1103  1.0867  0.3186
  264MOL0     H35603   9.442   4.492   6.934  1.8983 -1.2499  3.3296
  264MOL0     H35604   9.798   4.426   6.972 -0.9522 -0.1914  1.9515
  264MOL0     H35605   9.630   4.414   6.927 -0.1787  0.3611  4.9823
  264MOL0     H35606   9.705   4.663   6.815 -0.4355  0.3457 -2.6959
  264MOL0     H35607   9.861   4.599   6.830  0.2128 -1.6929  0.7874
  264MOL0     H35608   9.814   4.521   6.618 -0.2336  1.7141  1.8558
  264MOL0     H35609   9.759   4.379   6.708  3.8252  1.3564  4.6983
  264MOL0     H35610   9.605   4.604   6.550  0.2315 -0.1000  0.0426
  264MOL0     H35611   9.533   4.553   6.704 -0.9087  0.5083 -0.6251
  264MOL0     H35612   9.440   4.418   6.515  0.1116 -1.8275 -0.8808
  264MOL0     H35613   9.534   4.309   6.609  0.1724  0.6126  0.3769
  264MOL0     H35614   9.674   4.471   6.387 -1.5753  1.9378  3.4745
  264MOL0     H35615   9.714   4.310   6.453  1.1663  0.0274 -1.9647
  264MOL0     H35616   9.493   4.382   6.276  3.5867  1.9827  0.5691
  264MOL0     H35617   9.483   4.232   6.370 -2.6120  0.2456 -1.8157
  264MOL0     H35618   9.686   4.151   6.238  1.6433  1.1760  0.2445
  264MOL0     H35619   9.560   4.198   6.125  1.2347 -1.2019  0.0999
  264MOL0     H35620   9.619   4.807   7.183  0.5762 -0.9348 -1.0453
  264MOL0     H35621   9.422   4.943   7.129 -0.7722 -1.7007  3.9603
  264MOL0     H35622   8.950   4.904   6.995  1.8417  1.2292  0.7876
  264MOL0     H35623   8.746   5.007   6.919 -0.4841 -0.7106 -1.2530
  264MOL0     H35624   7.349   5.309   6.395 -0.5879 -2.2129  1.0239
  264MOL0     H35625   7.131   5.376   6.421  2.1546 -0.7900 -1.0665
  264MOL0     H35626   6.802   5.833   6.736  0.9372  0.7977 -0.9940
  264MOL0     H35627   6.562   5.873   6.662 -0.6606  1.9438 -3.2985
  264MOL0     H35628   6.368   5.572   6.427 -3.4976  0.5106  0.2270
  264MOL0     H35629   6.433   5.665   6.280  0.7018  4.0688 -0.0779
  264MOL0     H35630   6.279   5.793   6.266  2.6450 -3.1287 -1.5624
  264MOL0     H35631   6.184   5.740   6.423 -0.0479 -0.6178 -0.2883
  264MOL0     H35632   6.111   5.562   6.305  1.4295  1.3534  4.1066
  264MOL0     H35633   6.213   5.590   6.159 -0.4698  3.3393 -2.0405
  264MOL0     H35634   5.959   5.736   6.222  1.4966  0.9263 -0.2970
  264MOL0     H35635   6.085   5.823   6.140 -1.6027  1.6805  2.2207
  264MOL0     H35636   6.049   5.516   5.866  2.0473 -1.5113  0.9097
  264MOL0     H35637   6.608   5.595   6.350  2.1431  0.4907 -2.3978
  264MOL0     H35638   6.911   5.516   6.322  0.9899 -1.6571  0.6912
  264MOL0     H35639   6.865   5.394   6.440  0.6177  1.3942  1.9180
  264MOL0     H35640   6.743   5.447   6.322  0.1656 -2.0237 -0.6203
  265MOL0     O35641   5.322   1.955   5.607 -0.2074 -0.4661  0.3601
  265MOL0     C35642   5.325   1.989   5.725  0.3250 -0.3513 -0.4833
  265MOL0     O35643   5.374   2.101   5.775  1.0214  0.4128 -0.1180
  265MOL0     C35644   5.418   2.193   5.680 -0.6656 -0.3759  0.2860
  265MOL0     C35645   5.340   2.291   5.619  0.8265  0.0619 -0.3314
  265MOL0     C35646   5.409   2.381   5.539  1.0513 -0.2984  1.1324
  265MOL0     C35647   5.543   2.378   5.506  0.4456 -0.6151  1.3281
  265MOL0     O35648   5.599   2.466   5.423  0.4345  0.5547 -0.2135
  265MOL0     C35649   5.697   2.410   5.332 -0.1354 -0.1545  0.0998
  265MOL0     C35650   5.844   2.451   5.366 -0.2054  0.0342  0.2005
  265MOL0     C35651   5.852   2.599   5.382  0.0965 -0.4484  0.4608
  265MOL0     C35652   5.989   2.661   5.406 -0.1275  1.3261  0.0560
  265MOL0     C35653   5.978   2.801   5.469  0.7613 -0.0955  0.1528
  265MOL0     C35654   5.915   2.904   5.368  0.3408  0.1312 -0.3201
  265MOL0     C35655   5.997   2.925   5.245 -0.0946 -0.2117  0.2743
  265MOL0     C35656   5.949   3.059   5.182 -0.4054 -0.6323  0.3065
  265MOL0     N35657   6.022   3.083   5.060  0.1227  0.3127 -0.1507
  265MOL0     C35658   6.003   3.001   4.958 -0.5393 -0.8485  0.0643
  265MOL0     C35659   6.064   3.064   4.859 -0.3740 -0.3060  0.9327
  265MOL0     C35660   6.078   3.040   4.712 -0.1425  0.5093 -0.6199
  265MOL0     C35661   6.216   2.986   4.670  0.4641  0.1865 -0.5285
  265MOL0     C35662   6.318   3.099   4.647 -0.9695 -0.0325 -0.2000
  265MOL0     C35663   6.450   3.046   4.602 -0.5219  0.2948 -0.6875
  265MOL0     O35664   6.539   3.147   4.562 -0.9384  0.1146 -1.2945
  265MOL0     C35665   6.650   3.113   4.490  0.0547 -0.2120  0.5304
  265MOL0     C35666   6.704   2.981   4.476 -0.4791 -1.0428  0.8255
  265MOL0     C35667   6.803   2.958   4.379 -1.0014  0.4576 -0.2481
  265MOL0     C35668   6.855   3.064   4.301  0.0190 -1.0263 -0.4063
  265MOL0     C35669   6.963   3.031   4.203  0.8698  0.1910  0.2245
  265MOL0     O35670   6.975   2.900   4.175 -0.2931 -0.6804  0.0784
  265MOL0     C35671   7.081   2.862   4.095 -0.3249 -0.2194 -0.5650
  265MOL0     C35672   7.110   2.899   3.966  0.9718 -0.1357 -0.1370
  265MOL0     C35673   7.202   2.852   3.886 -0.2258 -0.1466  0.3211
  265MOL0     C35674   7.295   2.765   3.943  0.1207 -0.6494  0.5650
  265MOL0     O35675   7.408   2.717   3.885  0.8078 -0.4558 -0.3448
  265MOL0     C35676   7.430   2.718   3.745 -0.7072  0.5815  0.0121
  265MOL0     C35677   7.533   2.598   3.732 -0.0635 -0.7225 -0.1570
  265MOL0     C35678   7.673   2.645   3.746  0.1277 -0.4764 -0.1742
  265MOL0     C35679   7.763   2.550   3.811 -0.0290 -0.5454  0.3648
  265MOL0     C35680   7.903   2.529   3.744  0.2026 -0.3726 -0.7320
  265MOL0     C35681   7.980   2.403   3.790  0.4921  0.5477  0.4114
  265MOL0     C35682   8.132   2.413   3.745 -0.1823  0.1854 -0.9803
  265MOL0     C35683   8.231   2.324   3.828 -0.5305  1.0977 -0.0994
  265MOL0    Cl35684   8.207   2.156   3.792 -0.3306  0.0928  0.3577
  265MOL0     C35685   7.281   2.732   4.077 -0.4065  0.0790  0.4095
  265MOL0     C35686   7.166   2.771   4.150 -0.9504  0.9196 -0.5086
  265MOL0     O35687   7.025   3.122   4.147  0.2696 -0.2441 -0.3820
  265MOL0     C35688   6.809   3.188   4.324  0.3793  0.4741 -0.4997
  265MOL0     C35689   6.702   3.215   4.413 -0.3608 -0.2703 -1.3189
  265MOL0     N35690   6.110   3.187   4.901  0.1265  0.7806 -0.4586
  265MOL0     N35691   6.081   3.201   5.029  0.0048 -0.3778  0.4768
  265MOL0     C35692   5.615   2.269   5.566  0.6456  0.2515  0.1331
  265MOL0     C35693   5.558   2.182   5.658 -0.2391 -0.8650 -0.5044
  265MOL0     C35694   5.299   1.891   5.837 -0.4656 -0.0372  0.0101
  265MOL0     C35695   5.367   1.903   5.963 -1.1799  0.7191 -0.5957
  265MOL0     C35696   5.356   1.805   6.061  0.4396  0.2939 -0.3944
  265MOL0     C35697   5.281   1.684   6.048  0.6066  0.1259  0.3686
  265MOL0     O35698   5.268   1.591   6.145  0.1708  0.0472 -0.3906
  265MOL0     C35699   5.184   1.475   6.136 -0.3569 -0.1774  0.4527
  265MOL0     C35700   5.189   1.390   6.261 -0.9420  0.5102 -0.2077
  265MOL0     C35701   5.120   1.256   6.228 -0.4733 -0.1551 -0.5902
  265MOL0     C35702   5.095   1.195   6.366  0.4218  0.6487  0.7431
  265MOL0     C35703   5.018   1.070   6.343 -1.0765 -0.0746  0.0018
  265MOL0     C35704   4.985   0.957   6.325  0.3675 -0.0427 -0.1066
  265MOL0     C35705   5.205   1.680   5.926  0.3615  0.7121  0.0189
  265MOL0     C35706   5.218   1.776   5.820 -0.5566  0.9592 -0.1991
  265MOL0     C35707   5.143   1.744   5.694 -0.2761  0.0859 -0.3197
  265MOL0     H35708   5.234   2.305   5.635 -0.0039 -4.8374 -0.1517
  265MOL0     H35709   5.346   2.459   5.497  0.7168 -0.6614  0.9646
  265MOL0     H35710   5.693   2.301   5.319 -0.1504 -0.2069  0.5251
  265MOL0     H35711   5.667   2.454   5.237 -1.1368 -2.6427 -0.8288
  265MOL0     H35712   5.903   2.419   5.280 -0.5935  2.4151 -1.0193
  265MOL0     H35713   5.873   2.413   5.464 -0.6756 -0.7990  0.0306
  265MOL0     H35714   5.777   2.627   5.457 -1.4044 -1.7589 -0.5046
  265MOL0     H35715   5.808   2.645   5.293 -0.2300 -0.7116  0.4852
  265MOL0     H35716   6.037   2.602   5.484 -2.9519 -0.6723  0.4334
  265MOL0     H35717   6.055   2.662   5.318  1.0947 -0.0739  0.9313
  265MOL0     H35718   5.921   2.794   5.562 -4.0300  1.6933 -2.3206
  265MOL0     H35719   6.079   2.835   5.494  1.4143 -0.9807 -1.1447
  265MOL0     H35720   5.816   2.873   5.332 -0.2527  1.5911 -0.0269
  265MOL0     H35721   5.900   3.000   5.419  0.4752 -0.1900  0.3273
  265MOL0     H35722   6.004   2.838   5.179  1.1809  0.2007 -0.1559
  265MOL0     H35723   6.101   2.940   5.276  0.2138  1.2647 -1.3093
  265MOL0     H35724   5.847   3.052   5.143  0.3283 -2.8973 -1.4359
  265MOL0     H35725   5.947   3.150   5.241 -3.0061  0.5978 -1.4989
  265MOL0     H35726   5.944   2.911   4.947 -0.3576 -0.6723 -3.5680
  265MOL0     H35727   5.996   2.977   4.674 -1.1047  1.0185  0.5298
  265MOL0     H35728   6.057   3.135   4.662  1.2290  2.8125  2.8173
  265MOL0     H35729   6.255   2.922   4.749 -0.8866  1.3291  1.1523
  265MOL0     H35730   6.202   2.922   4.583 -1.7764  0.5121 -0.4660
  265MOL0     H35731   6.341   3.152   4.740  2.4429 -0.1377 -0.8556
  265MOL0     H35732   6.279   3.169   4.572 -5.4963  2.0698  3.5833
  265MOL0     H35733   6.438   2.978   4.516  1.5961  1.4637 -2.0231
  265MOL0     H35734   6.498   2.987   4.681  0.9947  1.0747 -0.9834
  265MOL0     H35735   6.650   2.901   4.525 -1.1057  0.3915  2.6127
  265MOL0     H35736   6.832   2.854   4.368 -1.3529  0.2109  1.0107
  265MOL0     H35737   7.043   2.978   3.934  1.9432  2.4026  3.5413
  265MOL0     H35738   7.196   2.881   3.781 -2.3082 -3.6155 -0.7086
  265MOL0     H35739   7.346   2.704   3.677 -0.3686  4.9160 -1.6227
  265MOL0     H35740   7.489   2.808   3.723  2.9879 -1.2529  1.5052
  265MOL0     H35741   7.509   2.523   3.808 -1.0272 -2.2452 -1.8938
  265MOL0     H35742   7.529   2.541   3.639 -0.3417 -2.8130  1.0797
  265MOL0     H35743   7.712   2.674   3.648 -0.8090  2.5331  0.2647
  265MOL0     H35744   7.687   2.733   3.810  0.6122 -1.0060  0.4672
  265MOL0     H35745   7.729   2.446   3.813  2.8539 -1.6041 -0.5219
  265MOL0     H35746   7.768   2.588   3.914 -0.5035 -1.0238  0.5722
  265MOL0     H35747   7.971   2.612   3.765  1.1983 -1.3416 -0.0264
  265MOL0     H35748   7.895   2.514   3.636  2.9488  3.5525 -1.6832
  265MOL0     H35749   7.974   2.387   3.898  2.4092 -2.1488  0.2219
  265MOL0     H35750   7.929   2.319   3.742  0.1263  0.2160  1.3612
  265MOL0     H35751   8.170   2.516   3.751 -0.5612  0.3772 -1.8579
  265MOL0     H35752   8.134   2.373   3.644  1.2842  0.0061 -0.9024
  265MOL0     H35753   8.336   2.343   3.802 -0.4957  1.9686  0.6366
  265MOL0     H35754   8.225   2.339   3.936  2.0384  3.3971 -0.1535
  265MOL0     H35755   7.355   2.673   4.130  0.0206  2.4582  2.6686
  265MOL0     H35756   7.149   2.746   4.254 -1.5469 -0.8735 -0.9957
  265MOL0     H35757   6.839   3.264   4.252  2.2980 -0.8827 -1.1969
  265MOL0     H35758   6.662   3.316   4.419 -0.7131 -0.4992  0.4547
  265MOL0     H35759   5.715   2.232   5.548 -0.6260 -3.7367  0.4148
  265MOL0     H35760   5.601   2.098   5.712  0.2038 -0.6428 -0.5031
  265MOL0     H35761   5.439   1.982   5.982 -1.6831  1.4721 -1.7336
  265MOL0     H35762   5.415   1.825   6.150  1.5200  1.9875 -1.4444
  265MOL0     H35763   5.204   1.413   6.049 -1.3870 -0.2804  0.2671
  265MOL0     H35764   5.083   1.518   6.133 -1.0994 -1.8348  0.5867
  265MOL0     H35765   5.152   1.431   6.355  2.4451 -0.1027  1.5732
  265MOL0     H35766   5.297   1.372   6.267 -1.0849 -0.6172 -0.6174
  265MOL0     H35767   5.184   1.200   6.160  0.1960  0.0439 -0.1347
  265MOL0     H35768   5.022   1.277   6.184 -1.7227  0.9543  2.4356
  265MOL0     H35769   5.188   1.169   6.418  0.8947  0.7872 -0.0165
  265MOL0     H35770   5.030   1.260   6.426  0.7632 -0.2291  2.1114
  265MOL0     H35771   4.938   0.861   6.317 -0.8384 -0.2308  5.4360
  265MOL0     H35772   5.152   1.589   5.902  2.1420 -0.1226 -0.9360
  265MOL0     H35773   5.076   1.826   5.664 -0.3804 -0.0673 -0.5093
  265MOL0     H35774   5.214   1.730   5.612  0.1563  0.2723  0.0152
  265MOL0     H35775   5.094   1.647   5.702  0.6118 -0.3693 -0.2384
  266MOL0     O35776   4.229   9.819   8.640 -0.2065 -0.7627 -0.1929
  266MOL0     C35777   4.155   9.826   8.540 -0.4209  0.0748  0.2509
  266MOL0     O35778   4.196   9.819   8.411  0.0914  0.9568 -0.1308
  266MOL0     C35779   4.287   9.717   8.385 -0.5506 -0.2630 -1.1262
  266MOL0     C35780   4.252   9.598   8.328 -0.0507 -0.6510  0.3678
  266MOL0     C35781   4.343   9.495   8.302  0.8348 -0.0610 -0.7210
  266MOL0     C35782   4.483   9.513   8.325  0.5304 -0.2056 -0.2077
  266MOL0     O35783   4.580   9.419   8.310  0.0699 -0.0735 -0.3385
  266MOL0     C35784   4.614   9.399   8.176 -0.7137  0.0055  0.0341
  266MOL0     C35785   4.765   9.437   8.162  1.1066 -0.2365  0.1704
  266MOL0     C35786   4.869   9.357   8.239  0.0512  0.4145 -1.0033
  266MOL0     C35787   5.014   9.391   8.188 -0.5175  0.0764  0.4402
  266MOL0     C35788   5.101   9.297   8.263  0.4010 -0.2567  0.4068
  266MOL0     C35789   5.248   9.293   8.225 -0.1852 -0.1524  0.4491
  266MOL0     C35790   5.319   9.182   8.299 -0.1958  0.2881  0.1631
  266MOL0     C35791   5.451   9.143   8.230  0.2917 -0.3717 -0.5265
  266MOL0     N35792   5.547   9.254   8.267 -0.9519 -0.0677 -0.2037
  266MOL0     C35793   5.585   9.367   8.185  0.3071  0.3273 -0.0746
  266MOL0     C35794   5.657   9.442   8.268 -0.8460 -0.6918 -0.1039
  266MOL0     C35795   5.733   9.567   8.235  0.9364  0.4444 -0.1795
  266MOL0     C35796   5.834   9.610   8.353 -0.4542 -0.1542  0.3769
  266MOL0     C35797   5.973   9.553   8.325  0.2522  0.6217  0.1475
  266MOL0     C35798   6.072   9.633   8.410 -0.4312  0.0887  0.0511
  266MOL0     O35799   6.070   9.775   8.375  0.0703  0.0035 -0.0533
  266MOL0     C35800   6.186   9.840   8.400  0.1301 -1.2902  0.6934
  266MOL0     C35801   6.261   9.814   8.521  1.0999  0.2359 -1.1895
  266MOL0     C35802   6.377   9.892   8.560 -0.9912 -0.0525  0.2200
  266MOL0     C35803   6.415   9.994   8.471 -0.1905  0.9965 -0.5585
  266MOL0     C35804   6.537  10.072   8.504 -0.4171 -0.0946  0.0109
  266MOL0     O35805   6.602  10.023   8.610  0.1758 -0.5340  0.0051
  266MOL0     C35806   6.709  10.084   8.677 -0.8400  1.4598 -0.3113
  266MOL0     C35807   6.699  10.222   8.704 -0.0466  1.2922 -0.0602
  266MOL0     C35808   6.798  10.280   8.782 -0.1215 -0.9478 -0.3777
  266MOL0     C35809   6.901  10.209   8.841 -1.2617  0.5893  0.2225
  266MOL0     O35810   6.993  10.253   8.934  0.2533 -0.2780  0.7560
  266MOL0     C35811   7.050  10.379   8.911  0.1724 -0.0151  0.3407
  266MOL0     C35812   7.189  10.387   8.962 -0.6034 -0.8050  0.6884
  266MOL0     C35813   7.297  10.353   8.863  0.9665 -0.3612  0.5190
  266MOL0     C35814   7.443  10.358   8.924 -0.1130 -0.4937 -0.0697
  266MOL0     C35815   7.545  10.389   8.810  0.4008 -0.2377 -0.3763
  266MOL0     C35816   7.682  10.386   8.874 -1.2095  0.2739 -0.4773
  266MOL0     C35817   7.786  10.410   8.760  0.3251 -0.3667 -0.2005
  266MOL0     C35818   7.933  10.410   8.814  0.1734 -0.1201 -1.0061
  266MOL0    Cl35819   7.971  10.554   8.912 -0.1056 -0.1241  0.5191
  266MOL0     C35820   6.901  10.073   8.820 -0.4031 -0.1737  0.6773
  266MOL0     C35821   6.807  10.015   8.733 -0.3325  0.6220  0.5509
  266MOL0     O35822   6.563  10.178   8.447 -0.0359 -0.6446  0.9740
  266MOL0     C35823   6.337  10.023   8.361 -0.6171  0.3504 -0.1391
  266MOL0     C35824   6.223   9.953   8.324 -0.5941  0.2065  0.3600
  266MOL0     N35825   5.650   9.387   8.402  0.2712  0.0936  0.8358
  266MOL0     N35826   5.597   9.268   8.396 -0.7309 -0.1012  0.3222
  266MOL0     C35827   4.521   9.637   8.378 -0.3308 -0.0537  0.5899
  266MOL0     C35828   4.423   9.735   8.396  0.0016  0.2314 -0.1638
  266MOL0     C35829   4.021   9.876   8.562 -0.6334  0.3171 -0.2746
  266MOL0     C35830   3.975   9.971   8.477 -0.4907  0.4403  0.0889
  266MOL0     C35831   3.854  10.031   8.489  0.1695 -0.5211  0.7728
  266MOL0     C35832   3.775  10.000   8.591  0.3925  0.2004 -0.3210
  266MOL0     O35833   3.668  10.093   8.593 -0.1394 -0.7564 -0.8077
  266MOL0     C35834   3.585  10.076   8.711  0.5954  0.7694 -0.1519
  266MOL0     C35835   3.473   9.970   8.699 -0.4281 -0.3895 -0.3039
  266MOL0     C35836   3.355  10.015   8.614  0.2567 -0.3310  0.1340
  266MOL0     C35837   3.373  10.008   8.467 -0.8768  0.2353 -0.3912
  266MOL0     C35838   3.259  10.059   8.397  0.7450  1.1941  0.0559
  266MOL0     C35839   3.155  10.094   8.355  0.5676 -0.2163  0.7110
  266MOL0     C35840   3.813   9.899   8.681  0.5393  1.0963  0.1586
  266MOL0     C35841   3.937   9.840   8.670  0.1357  0.2993 -0.2940
  266MOL0     C35842   3.971   9.749   8.779 -0.5971  0.4114  0.2062
  266MOL0     H35843   4.151   9.564   8.308 -0.4779  0.9522 -0.3288
  266MOL0     H35844   4.302   9.401   8.266  1.6233 -0.7999  0.2230
  266MOL0     H35845   4.591   9.298   8.139 -0.6474 -0.0986  0.2735
  266MOL0     H35846   4.557   9.463   8.108 -0.3357  0.5203  0.1970
  266MOL0     H35847   4.766   9.540   8.197 -2.8525  0.5421 -1.5298
  266MOL0     H35848   4.786   9.436   8.054 -1.8197  0.1967 -0.4810
  266MOL0     H35849   4.840   9.253   8.225 -1.3515  0.3133  1.9133
  266MOL0     H35850   4.866   9.377   8.346  2.0172 -1.7288 -0.4797
  266MOL0     H35851   5.031   9.383   8.080  0.4475 -2.3656  0.7171
  266MOL0     H35852   5.037   9.496   8.211  0.3172  0.1521 -0.6660
  266MOL0     H35853   5.103   9.330   8.367  4.3505  1.9613 -0.1568
  266MOL0     H35854   5.049   9.203   8.244  0.7268  0.1158 -3.0016
  266MOL0     H35855   5.253   9.266   8.119 -1.5770 -2.2269  0.8389
  266MOL0     H35856   5.293   9.391   8.244 -0.9863  0.7535 -2.0011
  266MOL0     H35857   5.261   9.089   8.289  2.2667 -1.1984 -1.5298
  266MOL0     H35858   5.338   9.199   8.405 -0.0158 -3.1669  0.8183
  266MOL0     H35859   5.496   9.052   8.269  2.0619  1.0299  0.8850
  266MOL0     H35860   5.441   9.143   8.121  0.8638  1.8528 -0.6416
  266MOL0     H35861   5.554   9.382   8.082  0.8086 -3.6852 -0.9664
  266MOL0     H35862   5.786   9.560   8.140 -0.2462  0.7699 -0.8907
  266MOL0     H35863   5.653   9.639   8.215  0.1256  0.0108  1.3680
  266MOL0     H35864   5.834   9.720   8.355 -0.9578  0.0193 -3.1867
  266MOL0     H35865   5.804   9.578   8.453 -0.4768 -0.4863  0.2632
  266MOL0     H35866   6.014   9.560   8.223  2.3786  2.2603  1.0388
  266MOL0     H35867   5.972   9.446   8.349 -1.0723  0.2807 -1.2758
  266MOL0     H35868   6.169   9.587   8.387 -0.4177 -0.4319  1.1272
  266MOL0     H35869   6.052   9.639   8.517 -1.2525  2.9320 -0.1711
  266MOL0     H35870   6.221   9.735   8.584  0.5409 -0.2051 -2.0858
  266MOL0     H35871   6.440   9.871   8.645 -2.7496 -1.5001  1.2249
  266MOL0     H35872   6.600  10.257   8.678 -1.0158 -1.6621 -0.7486
  266MOL0     H35873   6.788  10.386   8.805  1.4613 -0.1015 -3.1235
  266MOL0     H35874   7.064  10.407   8.806  4.3995 -2.4396  0.0182
  266MOL0     H35875   6.989  10.448   8.969 -2.2062 -1.1360 -0.6924
  266MOL0     H35876   7.198  10.494   8.980  0.1359 -0.5909 -0.8068
  266MOL0     H35877   7.196  10.333   9.057  0.6497 -3.7287 -0.9213
  266MOL0     H35878   7.300  10.249   8.831  2.8329  0.0859 -0.9345
  266MOL0     H35879   7.283  10.420   8.778  0.2447  0.6512  1.3987
  266MOL0     H35880   7.469  10.267   8.978 -1.5331 -0.7245  0.2588
  266MOL0     H35881   7.463  10.437   8.998  3.9210 -0.7014 -0.7292
  266MOL0     H35882   7.521  10.489   8.773 -1.9176  0.1502  1.9217
  266MOL0     H35883   7.546  10.322   8.724  0.6138 -0.1279 -0.4599
  266MOL0     H35884   7.688  10.465   8.949  0.0670  1.0824 -1.3754
  266MOL0     H35885   7.698  10.288   8.920 -0.3776 -0.3483 -2.0073
  266MOL0     H35886   7.754  10.492   8.695  0.8284 -0.6866 -0.8571
  266MOL0     H35887   7.786  10.320   8.698  1.2174  0.7014 -1.8277
  266MOL0     H35888   7.948  10.323   8.878  0.5278  2.3229  2.4753
  266MOL0     H35889   7.997  10.404   8.725  0.5410  2.5138 -0.9879
  266MOL0     H35890   6.981  10.022   8.872  0.3891 -1.1020 -1.3260
  266MOL0     H35891   6.823   9.909   8.715  0.9763  0.9594 -0.3943
  266MOL0     H35892   6.364  10.111   8.305 -0.6994 -0.0945 -0.8891
  266MOL0     H35893   6.162   9.966   8.236  0.5923 -0.9365 -0.6836
  266MOL0     H35894   4.629   9.645   8.376 -0.0447 -2.8388 -2.2028
  266MOL0     H35895   4.461   9.836   8.409 -0.4035  0.1580  2.0257
  266MOL0     H35896   4.038  10.011   8.398  1.0954  1.4772  1.7584
  266MOL0     H35897   3.819  10.112   8.426 -0.1881 -0.1854  1.3951
  266MOL0     H35898   3.523  10.163   8.735 -1.1641 -1.0295  2.2346
  266MOL0     H35899   3.650  10.052   8.795  1.5155 -0.7636 -1.2468
  266MOL0     H35900   3.431   9.947   8.798 -1.9401  0.0011 -0.8217
  266MOL0     H35901   3.521   9.880   8.660 -0.5740 -1.1007  1.0879
  266MOL0     H35902   3.341  10.123   8.627  3.9013  0.0688  1.8046
  266MOL0     H35903   3.264   9.958   8.636  0.1059 -0.1790 -0.1006
  266MOL0     H35904   3.461  10.064   8.435 -0.7840 -0.4378 -1.3464
  266MOL0     H35905   3.380   9.903   8.436 -0.4935  0.2627 -0.3980
  266MOL0     H35906   3.056  10.114   8.320  1.2370  0.1510 -1.0657
  266MOL0     H35907   3.755   9.877   8.770  0.6535 -0.7145 -0.1686
  266MOL0     H35908   4.066   9.695   8.767 -0.6990  0.1988  0.3455
  266MOL0     H35909   3.973   9.805   8.873  0.0778 -0.6003  0.8108
  266MOL0     H35910   3.901   9.666   8.792  2.7190 -2.5916  0.3530
  267MOL0     O35911   2.709   5.842   9.156 -1.0221  0.0920 -0.0789
  267MOL0     C35912   2.633   5.830   9.054 -0.0547 -0.2905  0.4216
  267MOL0     O35913   2.674   5.826   8.930  0.2824 -0.3653  0.0692
  267MOL0     C35914   2.813   5.834   8.917 -0.0054  0.1304 -0.1664
  267MOL0     C35915   2.913   5.935   8.945  0.7146 -0.4165 -0.4975
  267MOL0     C35916   3.047   5.919   8.921 -0.4390  0.0194  0.7593
  267MOL0     C35917   3.095   5.814   8.841  0.1778 -0.3790 -0.5967
  267MOL0     O35918   3.224   5.810   8.801  0.2073 -0.0576  0.0821
  267MOL0     C35919   3.313   5.825   8.906 -0.3255  0.1635 -0.9100
  267MOL0     C35920   3.449   5.771   8.869 -0.2245 -0.7659  0.8620
  267MOL0     C35921   3.544   5.758   8.992  0.0201  0.0727  0.4454
  267MOL0     C35922   3.690   5.711   8.964 -0.6060  0.4616 -0.1914
  267MOL0     C35923   3.765   5.688   9.095 -0.5024 -0.2311 -1.1494
  267MOL0     C35924   3.882   5.596   9.081  0.1196  0.0956  0.2941
  267MOL0     C35925   3.982   5.588   9.189 -0.2062 -0.7849 -0.0816
  267MOL0     C35926   4.084   5.474   9.186  0.1829 -0.7852  0.8088
  267MOL0     N35927   4.206   5.530   9.112  0.0956 -0.5207  0.4406
  267MOL0     C35928   4.227   5.522   8.973  0.5798  0.0371  0.0057
  267MOL0     C35929   4.343   5.581   8.948 -0.3076  0.3149 -0.0148
  267MOL0     C35930   4.405   5.594   8.812  0.7347  1.5980  0.3432
  267MOL0     C35931   4.549   5.539   8.814  0.8637 -0.9159  0.5715
  267MOL0     C35932   4.637   5.619   8.718  0.0429  0.1436  0.2732
  267MOL0     C35933   4.777   5.603   8.775  0.2468 -0.3044 -0.0783
  267MOL0     O35934   4.832   5.472   8.751  0.2029  0.4465  0.6601
  267MOL0     C35935   4.966   5.457   8.767 -1.3274 -0.8280 -0.9885
  267MOL0     C35936   5.029   5.338   8.726 -1.0389 -0.2140  0.0633
  267MOL0     C35937   5.165   5.317   8.746  0.0771  0.0795  0.4236
  267MOL0     C35938   5.242   5.413   8.815  0.2414 -0.0538 -1.2529
  267MOL0     C35939   5.381   5.391   8.836 -0.6302 -0.0882 -0.4346
  267MOL0     O35940   5.428   5.272   8.805  0.4585 -0.2413 -0.2234
  267MOL0     C35941   5.556   5.231   8.831  1.3122 -0.1409  0.4335
  267MOL0     C35942   5.634   5.182   8.724  0.4486 -0.0321 -0.4123
  267MOL0     C35943   5.765   5.165   8.749 -0.3565 -0.1353  0.3496
  267MOL0     C35944   5.820   5.173   8.877 -0.2511 -0.3253 -0.5962
  267MOL0     O35945   5.952   5.150   8.907 -0.2499  0.2775  0.2485
  267MOL0     C35946   6.037   5.087   8.810  0.9086 -0.2807 -0.2993
  267MOL0     C35947   6.174   5.074   8.865 -0.7116 -0.1142  0.1145
  267MOL0     C35948   6.260   4.989   8.775 -0.0354  0.3819  0.5605
  267MOL0     C35949   6.276   5.038   8.634  0.3082  0.8359 -0.0330
  267MOL0     C35950   6.329   5.178   8.604 -0.3643  0.2514  0.2494
  267MOL0     C35951   6.383   5.175   8.462  1.2597 -0.2518 -0.0621
  267MOL0     C35952   6.466   5.300   8.445  0.5387  0.3721 -0.5105
  267MOL0     C35953   6.545   5.307   8.308  0.7302 -1.3576  0.2815
  267MOL0    Cl35954   6.436   5.323   8.164  0.0426 -0.1912  0.3009
  267MOL0     C35955   5.741   5.208   8.985 -0.5287  0.3769  0.0768
  267MOL0     C35956   5.611   5.235   8.960 -0.2612 -0.3320  0.6773
  267MOL0     O35957   5.449   5.483   8.885  0.8646 -0.5099  0.6763
  267MOL0     C35958   5.178   5.520   8.872  0.8131  0.3879  0.2695
  267MOL0     C35959   5.038   5.537   8.854  0.6270  0.0983 -0.6507
  267MOL0     N35960   4.401   5.624   9.066 -0.1820  0.7288 -0.3551
  267MOL0     N35961   4.313   5.597   9.157  0.0826 -0.2194 -0.1682
  267MOL0     C35962   3.004   5.718   8.805  0.1582  0.1376  0.0445
  267MOL0     C35963   2.867   5.722   8.848 -0.3859 -0.5569 -0.5031
  267MOL0     C35964   2.492   5.822   9.076 -0.0462  0.5840  0.0968
  267MOL0     C35965   2.449   5.808   9.213  0.3081 -0.3188  0.1807
  267MOL0     C35966   2.317   5.803   9.238  0.0336 -0.1413 -0.0166
  267MOL0     C35967   2.217   5.798   9.143 -0.4839 -0.2128  0.6771
  267MOL0     O35968   2.072   5.792   9.160 -0.1599  0.4029 -0.6919
  267MOL0     C35969   2.035   5.697   9.261 -0.2207 -1.8151  0.5247
  267MOL0     C35970   1.969   5.573   9.206 -0.0050 -0.6140 -0.6719
  267MOL0     C35971   1.815   5.566   9.241 -0.2072 -0.1371 -0.2703
  267MOL0     C35972   1.726   5.649   9.146  1.3657  0.5623 -0.6343
  267MOL0     C35973   1.583   5.608   9.170  0.3819 -0.0808  0.3595
  267MOL0     C35974   1.463   5.587   9.182  0.0941 -0.1810 -0.4542
  267MOL0     C35975   2.262   5.814   9.013 -0.2305  0.0324  0.2393
  267MOL0     C35976   2.398   5.833   8.974  0.2740 -0.5025  0.0520
  267MOL0     C35977   2.427   5.835   8.822  0.1434 -0.1317  0.1733
  267MOL0     H35978   2.879   6.029   8.988 -2.1898  0.4702 -4.1319
  267MOL0     H35979   3.103   6.004   8.956  3.1143 -0.7180 -2.4448
  267MOL0     H35980   3.309   5.933   8.919 -3.2721  0.2027 -1.3163
  267MOL0     H35981   3.275   5.771   8.994 -0.0888 -2.2891 -2.2278
  267MOL0     H35982   3.487   5.818   8.777 -3.3248  0.7532  0.2271
  267MOL0     H35983   3.422   5.670   8.836 -1.4565 -1.0331  2.5496
  267MOL0     H35984   3.491   5.685   9.055 -1.1944 -0.3976 -1.0579
  267MOL0     H35985   3.539   5.845   9.057  1.0149  0.1008  0.4987
  267MOL0     H35986   3.690   5.616   8.908  1.0668  0.8193 -0.8574
  267MOL0     H35987   3.746   5.780   8.900  0.3895 -0.7117 -0.6409
  267MOL0     H35988   3.813   5.783   9.119  1.3198 -1.0797 -1.3010
  267MOL0     H35989   3.688   5.657   9.167 -0.8092  1.4153 -0.7262
  267MOL0     H35990   3.842   5.494   9.071  0.0141 -0.1581  2.7407
  267MOL0     H35991   3.944   5.619   8.994  0.7930 -2.6228 -0.0580
  267MOL0     H35992   3.929   5.565   9.282 -0.5494 -0.2135 -0.1344
  267MOL0     H35993   4.029   5.686   9.193 -3.0802  0.6888  0.2219
  267MOL0     H35994   4.118   5.446   9.286  1.4895 -2.2409  0.0073
  267MOL0     H35995   4.037   5.384   9.144  1.9600 -1.3600 -0.0632
  267MOL0     H35996   4.156   5.487   8.899 -0.4158 -0.6163  1.2121
  267MOL0     H35997   4.361   5.539   8.729  3.3608  0.7623 -0.6245
  267MOL0     H35998   4.414   5.700   8.785  1.0058  1.4183 -0.2782
  267MOL0     H35999   4.592   5.549   8.913  2.7388  4.0234 -0.4440
  267MOL0     H36000   4.549   5.436   8.778  0.1301 -0.9211  0.5682
  267MOL0     H36001   4.607   5.724   8.707 -1.1303 -0.2827 -0.7789
  267MOL0     H36002   4.635   5.580   8.616  1.8192 -2.1969  1.0409
  267MOL0     H36003   4.785   5.628   8.881 -4.8147 -1.5231  0.8489
  267MOL0     H36004   4.843   5.670   8.718 -2.6979  0.8493 -2.3857
  267MOL0     H36005   4.983   5.264   8.662  0.3672 -0.4491 -0.7169
  267MOL0     H36006   5.215   5.230   8.706  2.3777  0.1821  2.7922
  267MOL0     H36007   5.610   5.194   8.619  1.1674  0.1475 -0.5660
  267MOL0     H36008   5.834   5.136   8.670  1.1885  0.6852  1.3263
  267MOL0     H36009   5.989   4.996   8.771 -1.2095  1.2077 -1.3490
  267MOL0     H36010   6.039   5.157   8.726 -3.4613 -2.4136 -2.5468
  267MOL0     H36011   6.210   5.178   8.860 -1.2574  0.0427 -0.7372
  267MOL0     H36012   6.175   5.038   8.969  3.3866  1.8485  0.9869
  267MOL0     H36013   6.357   4.996   8.825 -0.5409 -1.2811  1.8787
  267MOL0     H36014   6.223   4.886   8.771 -0.7396  0.6790 -1.7794
  267MOL0     H36015   6.174   5.044   8.595 -0.4348  0.1439  1.6962
  267MOL0     H36016   6.331   4.965   8.573  1.1822  1.4648 -0.0151
  267MOL0     H36017   6.403   5.198   8.681 -2.0330  0.6766  1.8150
  267MOL0     H36018   6.258   5.261   8.609 -1.2691 -0.3219 -1.7664
  267MOL0     H36019   6.444   5.084   8.453  3.9452  1.3661  0.4694
  267MOL0     H36020   6.303   5.168   8.388 -1.2797  1.8154  2.2872
  267MOL0     H36021   6.548   5.304   8.517 -1.7119  2.4504  2.2126
  267MOL0     H36022   6.408   5.393   8.452  0.5335  0.6762 -3.5208
  267MOL0     H36023   6.609   5.395   8.315 -3.4700  2.0092  0.2835
  267MOL0     H36024   6.608   5.219   8.290  0.8775 -1.4581  1.2714
  267MOL0     H36025   5.789   5.230   9.080  0.5335  5.3269 -1.3573
  267MOL0     H36026   5.552   5.269   9.044  2.8159  0.5379  2.5981
  267MOL0     H36027   5.234   5.597   8.924 -1.0741  1.1239  1.3277
  267MOL0     H36028   4.998   5.623   8.908  4.9296  4.5528 -3.6999
  267MOL0     H36029   3.043   5.635   8.747  0.0664  0.2083 -0.1193
  267MOL0     H36030   2.798   5.640   8.830 -2.5484  1.0819 -0.1761
  267MOL0     H36031   2.526   5.795   9.289  0.3635  2.0169  0.6108
  267MOL0     H36032   2.300   5.784   9.344  0.7076  1.5003  0.4164
  267MOL0     H36033   1.972   5.754   9.330  2.3064  0.9360  0.7555
  267MOL0     H36034   2.121   5.657   9.314  3.4406  3.4914 -0.6100
  267MOL0     H36035   2.029   5.490   9.244  2.9659  0.2629 -3.0516
  267MOL0     H36036   1.980   5.562   9.097  2.8866  2.4201 -0.8621
  267MOL0     H36037   1.785   5.604   9.339  0.1471 -0.8354  0.1122
  267MOL0     H36038   1.773   5.467   9.220 -1.9988  0.2961  1.0097
  267MOL0     H36039   1.736   5.756   9.167  0.7505  0.6438 -0.7494
  267MOL0     H36040   1.752   5.621   9.043 -1.0386  1.6444 -1.6100
  267MOL0     H36041   1.356   5.575   9.178 -0.1372  0.7375  1.7193
  267MOL0     H36042   2.193   5.802   8.931 -0.2962  0.3333  0.2529
  267MOL0     H36043   2.342   5.845   8.753  3.1300  2.2131 -3.5546
  267MOL0     H36044   2.490   5.921   8.799  0.6453  0.1941  2.5235
  267MOL0     H36045   2.487   5.746   8.800  0.7617 -0.7814  3.7708
  268MOL0     O36046   0.591   1.655  10.198 -0.3064  0.0836  0.5038
  268MOL0     C36047   0.560   1.663  10.081 -0.3934  0.2454  0.6961
  268MOL0     O36048   0.632   1.713   9.978  0.3813  1.0348  0.2105
  268MOL0     C36049   0.750   1.790   9.987  0.0479  0.7743  0.6366
  268MOL0     C36050   0.870   1.731   9.933  1.0661 -0.0950 -0.5287
  268MOL0     C36051   0.991   1.802   9.956  0.3776 -0.2012  0.3046
  268MOL0     C36052   0.990   1.913  10.038  0.7973 -0.2730  0.8678
  268MOL0     O36053   1.108   1.972  10.042  0.0095  0.0610 -0.0696
  268MOL0     C36054   1.191   1.946  10.151  0.0721  0.8816  0.5246
  268MOL0     C36055   1.184   2.063  10.251  0.8348 -0.2425  0.2437
  268MOL0     C36056   1.242   2.183  10.181 -0.1728 -0.5245 -0.0676
  268MOL0     C36057   1.275   2.302  10.270  1.2102 -0.2458 -0.3295
  268MOL0     C36058   1.353   2.416  10.197 -0.7057  0.4497 -0.3219
  268MOL0     C36059   1.353   2.544  10.277 -0.4396 -1.1198 -0.7045
  268MOL0     C36060   1.466   2.642  10.232 -0.5306 -0.3008  0.2556
  268MOL0     C36061   1.446   2.779  10.302 -0.3950  0.6335 -0.2325
  268MOL0     N36062   1.549   2.865  10.262  0.2312 -0.0225  0.1818
  268MOL0     C36063   1.548   2.935  10.136  0.1734 -0.0902  0.2245
  268MOL0     C36064   1.676   2.975  10.129 -0.0208  0.1842 -0.6091
  268MOL0     C36065   1.759   3.030  10.017  0.2706 -0.1797 -0.7082
  268MOL0     C36066   1.686   3.147   9.953 -0.3806  0.2685  0.7278
  268MOL0     C36067   1.756   3.189   9.825 -0.1890  0.7875 -1.0285
  268MOL0     C36068   1.673   3.265   9.746 -0.0538 -0.4151 -0.3055
  268MOL0     O36069   1.651   3.405   9.795  0.1668 -0.0645 -0.3445
  268MOL0     C36070   1.761   3.475   9.824  0.1914 -0.4112  0.3463
  268MOL0     C36071   1.862   3.511   9.734 -0.1356 -0.1851 -0.2053
  268MOL0     C36072   1.975   3.592   9.765  0.4452  0.1786 -0.6591
  268MOL0     C36073   1.975   3.652   9.893  0.5459 -0.0259 -0.6844
  268MOL0     C36074   2.085   3.743   9.929 -0.1593  0.4708 -1.0283
  268MOL0     O36075   2.187   3.755   9.852  0.1930 -0.6094  0.5925
  268MOL0     C36076   2.236   3.882   9.825  0.2171  0.7396 -0.5255
  268MOL0     C36077   2.319   3.943   9.919 -0.0340 -0.0765  0.0184
  268MOL0     C36078   2.368   4.070   9.894  0.9208  0.0710 -0.0757
  268MOL0     C36079   2.338   4.138   9.774 -0.3179  0.4806 -0.0010
  268MOL0     O36080   2.384   4.265   9.737 -0.1685 -0.3184  0.1231
  268MOL0     C36081   2.463   4.335   9.833 -0.3881 -0.2024  0.2535
  268MOL0     C36082   2.603   4.279   9.823 -0.6506  1.0482  0.2397
  268MOL0     C36083   2.725   4.368   9.857  0.2333  0.6506 -1.0948
  268MOL0     C36084   2.750   4.461   9.739 -0.8933 -0.0297  0.3791
  268MOL0     C36085   2.871   4.557   9.758  0.1401 -0.1273  0.1392
  268MOL0     C36086   3.011   4.499   9.766 -0.1898  0.4134  0.0663
  268MOL0     C36087   3.032   4.410   9.639 -0.3051 -0.2199 -0.1900
  268MOL0     C36088   3.170   4.356   9.645 -0.5538  0.4321 -1.2926
  268MOL0    Cl36089   3.208   4.239   9.775 -0.2771 -0.1252 -0.2987
  268MOL0     C36090   2.245   4.076   9.686 -0.4351  0.0396 -0.5496
  268MOL0     C36091   2.196   3.948   9.713 -0.8012 -0.0026 -1.5640
  268MOL0     O36092   2.071   3.806  10.037  0.7653  0.5608  0.0914
  268MOL0     C36093   1.875   3.617   9.989 -0.4973  0.4472  0.2172
  268MOL0     C36094   1.768   3.531   9.952  0.1391 -0.6087  0.3222
  268MOL0     N36095   1.743   2.939  10.247  0.2146 -0.0280 -0.2744
  268MOL0     N36096   1.663   2.886  10.331  0.2328 -0.1856 -0.4062
  268MOL0     C36097   0.867   1.969  10.083  1.1912 -0.3191 -0.0724
  268MOL0     C36098   0.744   1.907  10.054 -0.2348  0.8464 -0.0208
  268MOL0     C36099   0.432   1.593  10.049 -0.4699  0.1536 -0.9104
  268MOL0     C36100   0.420   1.547   9.919 -0.6588  0.2803 -0.8848
  268MOL0     C36101   0.306   1.474   9.877 -0.1090  0.0840  1.2723
  268MOL0     C36102   0.197   1.459   9.964  0.2839 -0.5878 -0.1723
  268MOL0     O36103   0.077   1.407   9.909 -0.8043  0.1996 -0.0549
  268MOL0     C36104   0.082   1.266   9.888 -0.5525  0.3199 -0.2107
  268MOL0     C36105   0.091   1.187  10.028 -0.9741 -0.2675 -0.2858
  268MOL0     C36106  -0.013   1.215  10.132 -0.0957 -0.3880  0.7237
  268MOL0     C36107   0.009   1.142  10.265  0.7800 -0.2890 -0.2783
  268MOL0     C36108   0.116   1.211  10.342 -0.3672 -0.4853 -0.6236
  268MOL0     C36109   0.195   1.271  10.409  0.1115  0.5015  0.2117
  268MOL0     C36110   0.206   1.507  10.095  1.1917 -0.4447  0.4701
  268MOL0     C36111   0.315   1.578  10.137 -1.4411 -0.1316  0.6746
  268MOL0     C36112   0.308   1.663  10.265  0.1958 -0.0708 -0.3368
  268MOL0     H36113   0.860   1.652   9.859 -0.9466  2.2886 -2.9656
  268MOL0     H36114   1.080   1.747   9.927  0.0337  0.2889 -1.8586
  268MOL0     H36115   1.177   1.850  10.202  0.6890  0.3668 -0.2494
  268MOL0     H36116   1.294   1.945  10.115 -0.9915 -0.4599 -2.8232
  268MOL0     H36117   1.239   2.036  10.341  1.0171 -0.8975 -0.0573
  268MOL0     H36118   1.079   2.082  10.274  0.6800 -0.4365 -0.2809
  268MOL0     H36119   1.182   2.216  10.095 -2.3925  0.8468  1.8861
  268MOL0     H36120   1.337   2.160  10.131  0.2776 -0.2560  0.6574
  268MOL0     H36121   1.182   2.344  10.308 -0.4896  0.1282 -4.3164
  268MOL0     H36122   1.325   2.278  10.364  0.1880 -0.0001  0.2921
  268MOL0     H36123   1.455   2.399  10.160  0.1259  2.3812  0.9271
  268MOL0     H36124   1.294   2.439  10.108 -0.7675  1.3350 -0.0564
  268MOL0     H36125   1.254   2.590  10.268 -0.2089 -0.6477 -0.8204
  268MOL0     H36126   1.373   2.513  10.380 -0.7751 -0.3612 -0.4007
  268MOL0     H36127   1.458   2.654  10.123 -1.3633 -2.3965  0.0433
  268MOL0     H36128   1.566   2.607  10.257 -0.7123  0.0206  1.4825
  268MOL0     H36129   1.351   2.819  10.264  0.0439  2.3384  0.3505
  268MOL0     H36130   1.436   2.766  10.410 -1.8829  0.6395 -0.3388
  268MOL0     H36131   1.481   2.948  10.052  1.9892 -2.7331 -1.7987
  268MOL0     H36132   1.858   3.061  10.052  0.4730 -0.8701 -0.6436
  268MOL0     H36133   1.791   2.953   9.946  0.4707  2.1921 -3.3832
  268MOL0     H36134   1.579   3.135   9.932 -0.6529  0.8863  1.6807
  268MOL0     H36135   1.698   3.235  10.017  1.5639  1.8008 -1.5714
  268MOL0     H36136   1.786   3.102   9.766  4.6520  2.3032 -1.2916
  268MOL0     H36137   1.854   3.231   9.849  0.2616 -0.0161 -1.4327
  268MOL0     H36138   1.571   3.224   9.741  0.8275 -3.1160  1.5338
  268MOL0     H36139   1.722   3.259   9.649  0.8670 -1.6866  0.2194
  268MOL0     H36140   1.851   3.473   9.633 -2.5494  0.7565 -0.3494
  268MOL0     H36141   2.058   3.589   9.695  0.8206 -2.1869 -0.2076
  268MOL0     H36142   2.340   3.904  10.018 -1.0290 -0.1525  0.2137
  268MOL0     H36143   2.427   4.111   9.975 -0.3962  1.5077  0.2023
  268MOL0     H36144   2.467   4.441   9.809 -1.9469 -0.0955  0.4271
  268MOL0     H36145   2.420   4.305   9.928 -2.4157 -1.4156 -0.9726
  268MOL0     H36146   2.604   4.193   9.890 -0.0218  0.2195 -0.7926
  268MOL0     H36147   2.629   4.248   9.721 -1.1863  2.2330 -0.2747
  268MOL0     H36148   2.707   4.430   9.945  2.8265 -0.0047  0.0107
  268MOL0     H36149   2.814   4.308   9.880 -1.8043 -1.1409  3.1686
  268MOL0     H36150   2.656   4.515   9.726 -1.5458 -0.9408  1.1478
  268MOL0     H36151   2.762   4.402   9.648  1.3576 -2.6043  2.1806
  268MOL0     H36152   2.854   4.631   9.837  1.4960  2.8373 -2.1518
  268MOL0     H36153   2.868   4.630   9.677  0.6856  3.6214  3.2216
  268MOL0     H36154   3.086   4.578   9.771 -0.2391  0.4083  1.0196
  268MOL0     H36155   3.016   4.445   9.860  1.3449  4.2363  2.4016
  268MOL0     H36156   3.016   4.452   9.539 -0.1286  0.5584  0.1067
  268MOL0     H36157   2.966   4.322   9.647  2.4047 -2.3048  0.6812
  268MOL0     H36158   3.187   4.300   9.553 -1.3733  1.7791 -2.3049
  268MOL0     H36159   3.242   4.437   9.656  1.1167 -1.3381  2.6775
  268MOL0     H36160   2.201   4.134   9.605 -3.6189 -0.1231  0.9146
  268MOL0     H36161   2.122   3.900   9.650 -1.5207  0.6600 -1.2307
  268MOL0     H36162   1.870   3.644  10.094 -4.6629  0.9193  0.0724
  268MOL0     H36163   1.685   3.519  10.021  1.3832 -1.9613  1.6601
  268MOL0     H36164   0.872   2.060  10.143  1.7183  0.8842 -1.8649
  268MOL0     H36165   0.655   1.950  10.098  1.0455  1.5546  2.0746
  268MOL0     H36166   0.498   1.547   9.844  0.4629  0.2096  0.2375
  268MOL0     H36167   0.315   1.438   9.775 -2.1985 -0.4367  1.2332
  268MOL0     H36168   0.172   1.233   9.835  0.5629  0.3667  1.5646
  268MOL0     H36169  -0.006   1.243   9.826 -1.9885  1.8483  1.1630
  268MOL0     H36170   0.190   1.217  10.065 -1.3239  1.4897 -0.7061
  268MOL0     H36171   0.084   1.079  10.015  2.0066 -0.6491  0.4455
  268MOL0     H36172  -0.101   1.178  10.079  1.4862 -0.9629 -1.6637
  268MOL0     H36173  -0.033   1.322  10.143  0.5509 -0.5724  5.5139
  268MOL0     H36174  -0.082   1.143  10.324  2.3851 -1.2004  2.3980
  268MOL0     H36175   0.024   1.035  10.253 -3.8988 -1.2450  0.7628
  268MOL0     H36176   0.264   1.330  10.466 -1.3911 -0.1851  2.9444
  268MOL0     H36177   0.120   1.489  10.159 -2.2586  0.6454 -3.4571
  268MOL0     H36178   0.302   1.771  10.246  2.0438  0.0416 -0.5090
  268MOL0     H36179   0.214   1.625  10.307  0.6854 -5.4149 -3.3185
  268MOL0     H36180   0.388   1.641  10.336  0.1126  0.3525 -0.1033
  269MOL0     O36181   4.633   8.373   8.053 -0.4310 -0.1938 -0.2866
  269MOL0     C36182   4.700   8.443   8.125 -0.3230 -0.4868 -0.5135
  269MOL0     O36183   4.738   8.573   8.102  0.2826 -0.7420  0.0892
  269MOL0     C36184   4.720   8.630   7.984  0.5698 -0.2505 -0.5081
  269MOL0     C36185   4.810   8.602   7.882 -0.3683 -0.2111  1.1038
  269MOL0     C36186   4.769   8.640   7.745  0.0774 -0.0593 -0.2221
  269MOL0     C36187   4.650   8.716   7.718  0.4456 -0.0868  0.1664
  269MOL0     O36188   4.616   8.782   7.600  0.2615 -0.5776 -0.4366
  269MOL0     C36189   4.662   8.719   7.484 -0.2662  0.3698  0.7118
  269MOL0     C36190   4.581   8.759   7.369 -0.4040 -0.3356  0.4906
  269MOL0     C36191   4.626   8.704   7.226 -0.5023 -0.1359 -1.3731
  269MOL0     C36192   4.532   8.750   7.114  0.1428 -0.4324  0.0615
  269MOL0     C36193   4.585   8.721   6.962 -0.7430 -0.3841 -0.1827
  269MOL0     C36194   4.523   8.796   6.850 -0.1616 -1.3137  0.0110
  269MOL0     C36195   4.597   8.778   6.719 -0.2019  0.7744  0.6733
  269MOL0     C36196   4.529   8.861   6.611 -1.0372  0.0814 -0.2980
  269MOL0     N36197   4.443   8.786   6.520 -0.4098  0.5475 -0.6364
  269MOL0     C36198   4.405   8.821   6.399  0.4650 -0.2561  0.3055
  269MOL0     C36199   4.331   8.722   6.357 -0.5785  0.5723 -0.6398
  269MOL0     C36200   4.248   8.700   6.227 -0.6021  0.4315 -0.2971
  269MOL0     C36201   4.196   8.837   6.176 -0.1622  0.2025 -0.3055
  269MOL0     C36202   4.165   8.830   6.033 -0.2882 -0.2817 -0.5231
  269MOL0     C36203   4.102   8.965   5.974 -1.1887 -0.0581 -0.2185
  269MOL0     O36204   4.081   8.926   5.835  0.4177 -0.8009  0.4977
  269MOL0     C36205   4.021   9.024   5.755  0.2673  0.4197  0.5727
  269MOL0     C36206   3.950   9.137   5.810 -0.0500 -0.2571 -0.5210
  269MOL0     C36207   3.907   9.234   5.730 -0.7516 -0.4603 -0.8881
  269MOL0     C36208   3.926   9.230   5.589 -1.0146 -0.5836 -0.5705
  269MOL0     C36209   3.873   9.342   5.504  0.2191  0.1495 -0.2867
  269MOL0     O36210   3.912   9.356   5.374 -0.0385  0.0232 -0.2935
  269MOL0     C36211   3.844   9.452   5.301  0.2959 -0.0810 -0.5650
  269MOL0     C36212   3.737   9.409   5.223  0.3612  0.2446 -0.0714
  269MOL0     C36213   3.689   9.488   5.117 -0.3195  0.5266 -0.0169
  269MOL0     C36214   3.741   9.621   5.099  0.1563  0.7369  0.1240
  269MOL0     O36215   3.705   9.698   4.987 -0.6392 -0.5793 -0.2258
  269MOL0     C36216   3.563   9.689   4.961  0.0471 -0.2636  1.1087
  269MOL0     C36217   3.508   9.792   4.872 -0.0766 -0.0208 -0.4171
  269MOL0     C36218   3.466   9.924   4.943  0.4612 -0.7058  0.2736
  269MOL0     C36219   3.368   9.910   5.065  0.1814 -0.4652 -0.1919
  269MOL0     C36220   3.332  10.055   5.103  0.3359 -0.5964  0.6408
  269MOL0     C36221   3.423  10.127   5.206 -0.9723  1.1851  0.6074
  269MOL0     C36222   3.382  10.267   5.233  0.3816  0.8463 -0.1214
  269MOL0     C36223   3.446  10.327   5.353 -0.2627 -0.5342 -0.4369
  269MOL0    Cl36224   3.439  10.504   5.359  0.1237  0.0033  0.4412
  269MOL0     C36225   3.836   9.670   5.189 -0.0015  0.0160 -0.3346
  269MOL0     C36226   3.891   9.585   5.285 -0.4251  0.7365 -0.2014
  269MOL0     O36227   3.794   9.416   5.569 -0.7941 -0.1980  0.5917
  269MOL0     C36228   3.999   9.123   5.533  0.3250  0.7657  0.7608
  269MOL0     C36229   4.039   9.015   5.615 -0.3138 -0.5439 -0.9278
  269MOL0     N36230   4.320   8.627   6.455 -0.2013 -0.4143  0.0054
  269MOL0     N36231   4.393   8.670   6.558  0.3720 -0.0929  0.0676
  269MOL0     C36232   4.567   8.740   7.829  1.0023 -0.3751  1.0829
  269MOL0     C36233   4.601   8.705   7.958  0.2302  0.7192 -0.3078
  269MOL0     C36234   4.774   8.392   8.247 -1.1451 -0.3635 -0.0122
  269MOL0     C36235   4.903   8.447   8.276 -0.1928  0.2633  0.3975
  269MOL0     C36236   4.985   8.405   8.381  0.1999 -0.0136 -1.0241
  269MOL0     C36237   4.946   8.296   8.461 -0.1942 -0.5256 -0.0137
  269MOL0     O36238   5.029   8.260   8.566 -0.5798 -0.4356 -0.1025
  269MOL0     C36239   5.033   8.126   8.608 -0.7581  0.3398 -0.5944
  269MOL0     C36240   5.118   8.125   8.734 -0.0751  0.5792 -0.8416
  269MOL0     C36241   5.268   8.134   8.695  0.3123  1.2269  0.2604
  269MOL0     C36242   5.362   8.065   8.809  0.1999 -0.4147  0.2198
  269MOL0     C36243   5.333   8.136   8.939 -0.5441  0.1709  1.0245
  269MOL0     C36244   5.321   8.198   9.036  0.0407 -0.0280 -0.4611
  269MOL0     C36245   4.821   8.241   8.443  0.8054  0.2960 -0.6840
  269MOL0     C36246   4.733   8.277   8.329 -0.1374 -0.1258  0.3535
  269MOL0     C36247   4.613   8.205   8.326  1.1691 -0.4509  0.1017
  269MOL0     H36248   4.902   8.551   7.910 -2.5834 -4.2322  1.8009
  269MOL0     H36249   4.841   8.609   7.669  1.0351  0.6259  0.3812
  269MOL0     H36250   4.757   8.765   7.455 -1.4717  3.9229  1.7815
  269MOL0     H36251   4.660   8.611   7.498  1.5910  0.4440  2.0086
  269MOL0     H36252   4.584   8.868   7.360 -2.5356 -0.2688 -0.1005
  269MOL0     H36253   4.480   8.722   7.390 -1.6410  2.4011 -0.1584
  269MOL0     H36254   4.637   8.596   7.238  1.3263  0.3237  2.4347
  269MOL0     H36255   4.722   8.750   7.202  0.8623  0.0180  3.3451
  269MOL0     H36256   4.435   8.699   7.121 -1.4770  2.2268 -1.1221
  269MOL0     H36257   4.505   8.856   7.119 -0.0939 -0.5163  0.5806
  269MOL0     H36258   4.693   8.725   6.974 -0.9267  2.8006  1.3929
  269MOL0     H36259   4.564   8.615   6.945 -1.8285 -0.3083  0.5615
  269MOL0     H36260   4.416   8.780   6.834 -1.3625  1.3672  3.7989
  269MOL0     H36261   4.524   8.904   6.868 -0.1580 -1.0044 -1.6667
  269MOL0     H36262   4.595   8.670   6.701 -2.3839  1.0373 -1.1849
  269MOL0     H36263   4.701   8.812   6.718  0.2752 -0.3109 -3.1804
  269MOL0     H36264   4.468   8.945   6.644 -0.3666  1.1114 -1.5759
  269MOL0     H36265   4.607   8.906   6.548 -2.2901  2.6751 -0.1151
  269MOL0     H36266   4.443   8.907   6.345  0.2123 -2.3649 -3.5926
  269MOL0     H36267   4.308   8.645   6.153 -0.0273 -1.3125  1.3802
  269MOL0     H36268   4.161   8.637   6.247 -0.1153  0.3876  1.8524
  269MOL0     H36269   4.106   8.855   6.236  0.2247 -0.7429  0.5808
  269MOL0     H36270   4.277   8.910   6.189  0.4790 -0.9397  3.1183
  269MOL0     H36271   4.092   8.749   6.024 -0.8656  0.1682 -0.0145
  269MOL0     H36272   4.254   8.801   5.976 -0.4513  0.2697 -1.0760
  269MOL0     H36273   4.163   9.056   5.975  1.5621 -1.7549  1.6393
  269MOL0     H36274   4.011   8.994   6.027 -1.7310  2.2242 -2.2720
  269MOL0     H36275   3.936   9.153   5.916  0.3522  1.9147 -0.7396
  269MOL0     H36276   3.858   9.315   5.784 -1.8845 -1.8283  0.2388
  269MOL0     H36277   3.706   9.307   5.241  0.4486  0.5237  1.9486
  269MOL0     H36278   3.625   9.433   5.049 -1.2693  2.2185 -0.5495
  269MOL0     H36279   3.541   9.588   4.925  2.2152 -1.4656  2.8907
  269MOL0     H36280   3.503   9.690   5.052  1.4702 -1.2707  2.0944
  269MOL0     H36281   3.578   9.824   4.794  0.3594 -0.8226 -0.3622
  269MOL0     H36282   3.422   9.744   4.824  0.1881 -1.1213  0.1742
  269MOL0     H36283   3.560   9.962   4.982 -0.3712 -1.5301  3.3070
  269MOL0     H36284   3.421   9.991   4.869 -1.4931 -0.9083  1.2212
  269MOL0     H36285   3.399   9.862   5.158  1.4183  1.2207  0.3260
  269MOL0     H36286   3.292   9.845   5.021  0.2652 -0.6757 -0.0255
  269MOL0     H36287   3.228  10.057   5.137  0.7304  1.0043  1.8661
  269MOL0     H36288   3.343  10.118   5.014  3.1703 -1.4856  0.2523
  269MOL0     H36289   3.439  10.057   5.288 -1.3449 -0.7345 -0.8724
  269MOL0     H36290   3.513  10.149   5.147 -1.9477  1.8395 -0.7022
  269MOL0     H36291   3.274  10.269   5.245  0.3443  1.0386 -0.4907
  269MOL0     H36292   3.398  10.320   5.139  1.4185 -2.6908 -2.1172
  269MOL0     H36293   3.394  10.298   5.445  0.2061  3.7361  1.4162
  269MOL0     H36294   3.549  10.291   5.363 -0.2269 -1.1896 -2.7183
  269MOL0     H36295   3.871   9.771   5.174  0.3384  0.0822  0.7964
  269MOL0     H36296   3.975   9.618   5.345  1.3330  1.7966 -3.0617
  269MOL0     H36297   4.007   9.103   5.427 -0.1714 -0.5067  0.9355
  269MOL0     H36298   4.081   8.923   5.576  0.0377 -1.3471  1.2134
  269MOL0     H36299   4.476   8.792   7.802 -0.4873 -1.3863  3.7986
  269MOL0     H36300   4.543   8.737   8.044 -0.3920 -1.0796 -0.0199
  269MOL0     H36301   4.928   8.533   8.216 -1.1899  1.1850  1.2364
  269MOL0     H36302   5.077   8.461   8.391  0.6530  0.4355 -5.5147
  269MOL0     H36303   5.086   8.063   8.536  1.1952 -0.5548  1.4645
  269MOL0     H36304   4.933   8.088   8.631 -1.4396  2.7282  0.7309
  269MOL0     H36305   5.108   8.040   8.803  0.0365  1.2451  0.0241
  269MOL0     H36306   5.086   8.201   8.807  1.0865 -1.4567  1.9505
  269MOL0     H36307   5.289   8.239   8.672  3.0525  1.1657  2.0652
  269MOL0     H36308   5.280   8.084   8.599 -3.8890 -1.1067  0.7079
  269MOL0     H36309   5.362   7.956   8.810  1.9004 -0.4628 -0.8480
  269MOL0     H36310   5.466   8.091   8.787 -0.3871  1.8721 -0.1094
  269MOL0     H36311   5.311   8.261   9.123 -0.9169  0.1165 -0.6625
  269MOL0     H36312   4.797   8.161   8.512  0.4579 -0.2961 -1.4653
  269MOL0     H36313   4.623   8.098   8.344 -0.8442 -0.7469 -0.2655
  269MOL0     H36314   4.547   8.243   8.404 -0.8287 -0.4351 -1.5103
  269MOL0     H36315   4.562   8.215   8.230 -0.5947 -1.9905  0.8116
  270MOL0     O36316   5.348   8.829   3.515 -0.0957 -0.2849 -0.4447
  270MOL0     C36317   5.256   8.745   3.531 -0.1340  0.1778  0.1852
  270MOL0     O36318   5.284   8.612   3.572 -0.3815  0.6549 -0.4677
  270MOL0     C36319   5.409   8.578   3.617  0.1816 -0.3382  0.3112
  270MOL0     C36320   5.446   8.642   3.735 -0.1247 -0.9997  0.2117
  270MOL0     C36321   5.555   8.595   3.817  0.7499 -1.0396  0.2961
  270MOL0     C36322   5.634   8.482   3.768 -0.6777  1.0952  0.0897
  270MOL0     O36323   5.749   8.444   3.836 -0.1800 -0.8574 -0.4933
  270MOL0     C36324   5.721   8.432   3.978 -0.9264 -0.2155 -0.6418
  270MOL0     C36325   5.831   8.350   4.043 -0.4198 -0.0795 -0.1782
  270MOL0     C36326   5.977   8.381   3.996 -0.6248  0.7781  0.0431
  270MOL0     C36327   6.068   8.411   4.100 -0.5893  1.3095 -0.4203
  270MOL0     C36328   6.218   8.397   4.057 -0.4783  0.3365 -0.2631
  270MOL0     C36329   6.295   8.425   4.193 -0.2743 -0.2323  0.5658
  270MOL0     C36330   6.448   8.444   4.172  0.6185  0.4027 -0.0824
  270MOL0     C36331   6.532   8.437   4.298  0.0447 -0.3176 -0.0186
  270MOL0     N36332   6.493   8.545   4.389 -0.4714  0.3840  0.3888
  270MOL0     C36333   6.531   8.676   4.386 -0.3432  0.8776  0.3688
  270MOL0     C36334   6.480   8.746   4.487 -0.3968  0.6096  0.0004
  270MOL0     C36335   6.501   8.895   4.498 -0.5026  0.5733 -0.5040
  270MOL0     C36336   6.408   8.982   4.418  1.0048 -1.0927  0.1003
  270MOL0     C36337   6.266   8.977   4.483  0.1411  0.7918  0.2088
  270MOL0     C36338   6.165   9.020   4.379  0.1154 -0.3471 -0.0587
  270MOL0     O36339   6.040   9.015   4.444  0.0247  0.5430 -0.0967
  270MOL0     C36340   5.948   9.074   4.356  0.3664  0.0677 -0.3556
  270MOL0     C36341   5.944   9.215   4.337  0.0567 -0.8646 -0.1241
  270MOL0     C36342   5.860   9.279   4.252  0.9156 -0.6226 -0.4055
  270MOL0     C36343   5.780   9.196   4.166  0.3295 -0.6076 -0.6285
  270MOL0     C36344   5.709   9.270   4.059  0.1665  0.0512  1.1927
  270MOL0     O36345   5.713   9.203   3.940 -0.1438  0.2019  0.6433
  270MOL0     C36346   5.654   9.245   3.828 -0.3629 -0.5833  0.5911
  270MOL0     C36347   5.543   9.167   3.778 -0.8411 -1.1428 -0.7448
  270MOL0     C36348   5.490   9.183   3.646 -0.0841 -0.4051  0.8149
  270MOL0     C36349   5.528   9.307   3.588  0.3135  0.2780  0.0978
  270MOL0     O36350   5.465   9.339   3.473  0.5360  0.1279 -0.2005
  270MOL0     C36351   5.484   9.264   3.347  0.4871  0.5003 -0.4209
  270MOL0     C36352   5.357   9.288   3.277  0.0116  0.2428 -0.1070
  270MOL0     C36353   5.353   9.249   3.127  0.5505  0.3879 -0.1432
  270MOL0     C36354   5.387   9.367   3.030  0.7323  0.1857  0.3607
  270MOL0     C36355   5.377   9.322   2.882 -0.6758  0.1916 -0.2306
  270MOL0     C36356   5.399   9.438   2.780  0.0082  0.0511  0.3340
  270MOL0     C36357   5.543   9.473   2.764  0.2906 -0.4344  0.7648
  270MOL0     C36358   5.644   9.360   2.714  0.9689 -0.3830 -0.3233
  270MOL0    Cl36359   5.714   9.269   2.847 -0.1057 -0.3422 -0.2414
  270MOL0     C36360   5.625   9.401   3.640  0.7532  0.0152  0.3657
  270MOL0     C36361   5.695   9.362   3.755 -0.2367 -0.0892 -0.3612
  270MOL0     O36362   5.672   9.384   4.083 -1.2537 -0.8383 -0.1626
  270MOL0     C36363   5.774   9.059   4.186 -0.7221 -0.3651  0.3538
  270MOL0     C36364   5.855   9.002   4.287 -0.0444 -0.1303 -0.1015
  270MOL0     N36365   6.398   8.655   4.542  1.0425  0.5490 -0.7819
  270MOL0     N36366   6.403   8.531   4.491  0.4781 -0.9103 -0.3689
  270MOL0     C36367   5.609   8.423   3.644  0.1650 -1.0811  0.1374
  270MOL0     C36368   5.492   8.477   3.568 -0.0648 -0.4724 -0.0710
  270MOL0     C36369   5.118   8.788   3.519  0.0572  0.0970 -0.6735
  270MOL0     C36370   5.016   8.687   3.559 -0.2722  0.0659  0.3490
  270MOL0     C36371   4.880   8.719   3.560 -0.6869 -0.3691 -0.8303
  270MOL0     C36372   4.838   8.844   3.513  1.0701  0.2681  0.2403
  270MOL0     O36373   4.709   8.888   3.511  0.6989  0.0609 -0.0478
  270MOL0     C36374   4.602   8.815   3.581  0.6824 -0.0070  0.1277
  270MOL0     C36375   4.467   8.888   3.568  0.5020 -0.5112  0.2249
  270MOL0     C36376   4.432   8.977   3.692  0.3576 -0.5558  0.2510
  270MOL0     C36377   4.298   9.055   3.660  0.1256 -0.5868  0.2730
  270MOL0     C36378   4.287   9.173   3.747  1.2260  0.0185 -0.4413
  270MOL0     C36379   4.289   9.268   3.824  0.3554 -0.2891  0.7083
  270MOL0     C36380   4.927   8.942   3.475  0.8676 -0.2053  0.5762
  270MOL0     C36381   5.067   8.916   3.476 -0.2542 -0.3588 -0.5320
  270MOL0     C36382   5.151   9.026   3.420  0.2985 -0.0670 -0.2972
  270MOL0     H36383   5.394   8.733   3.765  3.2338  2.1186 -2.5209
  270MOL0     H36384   5.577   8.639   3.914 -0.3404  1.3401 -0.4730
  270MOL0     H36385   5.705   8.529   4.025 -1.5927 -0.3058 -0.6678
  270MOL0     H36386   5.626   8.379   3.993 -2.3558  2.0841 -1.0660
  270MOL0     H36387   5.807   8.249   4.008 -0.0543 -0.7645  1.4348
  270MOL0     H36388   5.827   8.356   4.152 -0.7692  2.4769 -0.2642
  270MOL0     H36389   5.969   8.460   3.921 -3.1598  1.6147  1.0882
  270MOL0     H36390   6.015   8.304   3.928 -0.9870  0.8232 -0.2144
  270MOL0     H36391   6.056   8.517   4.126  1.3937  0.9983  2.1413
  270MOL0     H36392   6.046   8.353   4.190 -0.8527  2.6941  0.4387
  270MOL0     H36393   6.239   8.293   4.031 -3.2242 -0.7873  1.5975
  270MOL0     H36394   6.244   8.470   3.980  1.9565  0.0854  0.2550
  270MOL0     H36395   6.266   8.525   4.228  3.0351  0.2244  2.4463
  270MOL0     H36396   6.268   8.353   4.271  1.2584 -1.0018  0.4260
  270MOL0     H36397   6.465   8.545   4.132 -1.9253  1.6219  1.6211
  270MOL0     H36398   6.476   8.366   4.101 -3.1892 -4.7730  3.3932
  270MOL0     H36399   6.513   8.347   4.357 -2.3048  1.8128  2.7865
  270MOL0     H36400   6.640   8.446   4.283 -0.1151 -1.0129 -1.8189
  270MOL0     H36401   6.596   8.715   4.309 -2.5072  2.8090 -0.5949
  270MOL0     H36402   6.489   8.925   4.603  2.1779  0.7345 -0.1839
  270MOL0     H36403   6.602   8.921   4.465  0.4834  0.5718  2.2626
  270MOL0     H36404   6.436   9.088   4.415 -3.2324  0.2310 -3.2082
  270MOL0     H36405   6.399   8.947   4.315 -2.3033  0.5069 -0.2555
  270MOL0     H36406   6.275   9.032   4.577  1.6115  0.5993  0.1963
  270MOL0     H36407   6.237   8.875   4.507 -2.7319  1.9238  2.2082
  270MOL0     H36408   6.178   8.946   4.299  0.7629  0.8415 -1.0876
  270MOL0     H36409   6.187   9.115   4.328  1.9008 -1.7553 -2.1354
  270MOL0     H36410   6.008   9.269   4.407 -3.1729 -0.7894  3.0292
  270MOL0     H36411   5.874   9.386   4.246  0.0140 -0.4193  0.9348
  270MOL0     H36412   5.521   9.092   3.853 -0.4339 -0.1979  0.3527
  270MOL0     H36413   5.420   9.109   3.608 -0.7393  1.7083 -2.4609
  270MOL0     H36414   5.562   9.309   3.284  1.0857 -1.0326 -0.8087
  270MOL0     H36415   5.507   9.160   3.371 -2.8293  0.2353  2.4051
  270MOL0     H36416   5.278   9.221   3.312 -0.6062  1.4563  0.9354
  270MOL0     H36417   5.318   9.389   3.294 -1.3595 -0.3415  0.4031
  270MOL0     H36418   5.415   9.160   3.118  1.3729  0.7001  1.9014
  270MOL0     H36419   5.251   9.218   3.103  0.5601  0.0218  0.2906
  270MOL0     H36420   5.491   9.393   3.054  0.5519 -0.5284  2.0275
  270MOL0     H36421   5.326   9.455   3.048  0.5824  0.3465 -0.8589
  270MOL0     H36422   5.284   9.273   2.853 -0.3444  1.0061 -2.9691
  270MOL0     H36423   5.462   9.254   2.873 -0.2644  0.9448 -4.7657
  270MOL0     H36424   5.349   9.416   2.686  1.4062  0.5060 -0.5360
  270MOL0     H36425   5.358   9.524   2.833  0.4830 -1.4118  3.3003
  270MOL0     H36426   5.563   9.513   2.864 -3.4787  0.7448  1.2118
  270MOL0     H36427   5.547   9.551   2.688 -2.0075 -1.2420 -0.3036
  270MOL0     H36428   5.594   9.294   2.642  1.0717  0.6591 -1.3675
  270MOL0     H36429   5.723   9.415   2.662 -0.1938  0.5227 -1.1902
  270MOL0     H36430   5.637   9.495   3.587 -0.3431  0.6796  1.2703
  270MOL0     H36431   5.784   9.413   3.790  0.6667 -2.0311  0.3170
  270MOL0     H36432   5.710   8.988   4.135  0.7269 -0.6069 -1.2369
  270MOL0     H36433   5.861   8.894   4.298 -1.0894 -0.1483  0.4319
  270MOL0     H36434   5.676   8.348   3.603  0.8154  0.3892 -1.5999
  270MOL0     H36435   5.456   8.447   3.470 -0.4887  1.7433 -0.6460
  270MOL0     H36436   5.037   8.588   3.598  0.4424  0.0407 -0.0880
  270MOL0     H36437   4.807   8.644   3.588 -2.0715  0.8515 -0.9923
  270MOL0     H36438   4.627   8.794   3.685  0.0653  1.7189  0.6606
  270MOL0     H36439   4.583   8.725   3.523 -0.9300  2.3871 -3.4404
  270MOL0     H36440   4.387   8.814   3.560  0.5032 -0.6003  0.9850
  270MOL0     H36441   4.472   8.952   3.479  1.1162  3.9820  3.1565
  270MOL0     H36442   4.510   9.050   3.718 -0.7165  1.0997 -0.9680
  270MOL0     H36443   4.414   8.918   3.782 -2.1839  1.6327  1.3060
  270MOL0     H36444   4.296   9.081   3.554  3.0257 -1.4849 -0.1022
  270MOL0     H36445   4.213   8.989   3.676 -0.5716  0.3030  0.3125
  270MOL0     H36446   4.279   9.356   3.885  1.3127  0.6637 -0.4739
  270MOL0     H36447   4.880   9.039   3.467 -3.1390 -2.0315 -0.2233
  270MOL0     H36448   5.185   9.005   3.318 -0.3075 -1.3478 -0.2520
  270MOL0     H36449   5.084   9.112   3.422  1.3047  0.7673 -1.4309
  270MOL0     H36450   5.235   9.055   3.484  0.9750  1.6765 -1.8711
  271MOL0     O36451   7.605   1.381   3.749  0.6818  0.4948  0.0843
  271MOL0     C36452   7.676   1.431   3.666 -0.3298  0.3187 -0.2246
  271MOL0     O36453   7.809   1.410   3.660 -0.0902 -0.4189  0.0257
  271MOL0     C36454   7.862   1.304   3.734  0.0477  0.3423  0.6910
  271MOL0     C36455   7.955   1.344   3.824  0.0497  0.7898  0.2882
  271MOL0     C36456   8.023   1.254   3.908  0.1556  0.1612 -0.6163
  271MOL0     C36457   7.994   1.115   3.902 -0.0814 -0.3652 -0.8029
  271MOL0     O36458   8.065   1.015   3.967 -0.4725  0.1375 -1.2544
  271MOL0     C36459   8.201   1.032   4.013 -0.4283 -0.3996 -0.2471
  271MOL0     C36460   8.201   1.064   4.166 -0.1068  0.1835  0.2331
  271MOL0     C36461   8.331   1.140   4.211  0.5349 -0.3115  0.1287
  271MOL0     C36462   8.297   1.290   4.237  0.0703  0.9157  0.0710
  271MOL0     C36463   8.424   1.367   4.261 -0.2633 -0.6248  0.1184
  271MOL0     C36464   8.466   1.400   4.407  0.1283  0.2305  0.1152
  271MOL0     C36465   8.352   1.461   4.493 -0.0675  0.1089 -0.0501
  271MOL0     C36466   8.310   1.600   4.441  1.1706 -1.7080 -0.1926
  271MOL0     N36467   8.209   1.679   4.527 -0.3011 -0.4620  0.5537
  271MOL0     C36468   8.091   1.627   4.581 -0.5701  0.5711 -0.1815
  271MOL0     C36469   8.022   1.738   4.627 -1.0591  0.9271 -0.1088
  271MOL0     C36470   7.904   1.741   4.710  0.4016  0.2164  0.3197
  271MOL0     C36471   7.775   1.674   4.650 -0.1544  0.0357  0.0182
  271MOL0     C36472   7.661   1.683   4.753 -0.2976 -0.4358  1.6301
  271MOL0     C36473   7.527   1.650   4.678  0.3496  0.2435  0.3393
  271MOL0     O36474   7.424   1.622   4.773  0.1808 -0.5724  0.6260
  271MOL0     C36475   7.312   1.561   4.729  0.6989  0.3881  0.7319
  271MOL0     C36476   7.217   1.518   4.829 -0.0143 -0.4096  1.1166
  271MOL0     C36477   7.100   1.454   4.805  0.1429  0.2824  0.2390
  271MOL0     C36478   7.059   1.456   4.681 -0.3597 -0.4749  0.1597
  271MOL0     C36479   6.925   1.402   4.641  1.1359 -0.4493  0.8432
  271MOL0     O36480   6.893   1.390   4.504  0.7044 -0.4682  0.5532
  271MOL0     C36481   6.784   1.326   4.447 -0.1581 -0.6315  0.1333
  271MOL0     C36482   6.650   1.362   4.484  1.0898 -0.0731 -0.1866
  271MOL0     C36483   6.543   1.281   4.430  0.5908 -0.1597 -0.5865
  271MOL0     C36484   6.564   1.168   4.349 -0.2600  0.1740  0.1395
  271MOL0     O36485   6.462   1.087   4.310  0.8550  0.2539  0.4165
  271MOL0     C36486   6.347   1.097   4.400 -0.6793 -0.0391 -0.8479
  271MOL0     C36487   6.253   0.980   4.392  0.4800  0.0584  0.2615
  271MOL0     C36488   6.118   0.996   4.462 -0.2522  1.0157 -0.8912
  271MOL0     C36489   6.026   0.872   4.435 -0.5824  0.5518 -0.4588
  271MOL0     C36490   5.896   0.889   4.512 -0.2348  0.0735 -0.1807
  271MOL0     C36491   5.810   0.768   4.509 -0.2898  0.3846  0.2473
  271MOL0     C36492   5.721   0.766   4.379 -0.8134  0.4371 -0.1309
  271MOL0     C36493   5.628   0.652   4.395  0.4812  0.0648 -0.1252
  271MOL0    Cl36494   5.531   0.650   4.244 -0.4150 -0.2533 -0.0006
  271MOL0     C36495   6.695   1.134   4.309  0.2020 -0.8738  0.0862
  271MOL0     C36496   6.802   1.217   4.356  0.0281  0.5051  0.4339
  271MOL0     O36497   6.845   1.368   4.723 -0.2888 -0.7859 -0.5303
  271MOL0     C36498   7.148   1.485   4.575 -0.0428 -0.1086  0.0479
  271MOL0     C36499   7.276   1.533   4.601  0.1950 -0.3542  0.1487
  271MOL0     N36500   8.104   1.849   4.586 -0.1699  1.1726 -0.6078
  271MOL0     N36501   8.213   1.808   4.535 -0.1990 -0.0827  0.1647
  271MOL0     C36502   7.908   1.073   3.808 -1.1924  0.4797  0.0008
  271MOL0     C36503   7.844   1.161   3.724  0.6692  0.7091  0.7630
  271MOL0     C36504   7.629   1.534   3.568 -0.0926 -0.0976 -0.3401
  271MOL0     C36505   7.727   1.601   3.493  0.0148 -1.2339  0.6629
  271MOL0     C36506   7.696   1.697   3.400  0.4077 -0.4978  0.1793
  271MOL0     C36507   7.561   1.739   3.402  0.1201 -0.2813 -0.0423
  271MOL0     O36508   7.509   1.827   3.303  0.7233 -0.0371 -1.1826
  271MOL0     C36509   7.586   1.849   3.184  0.4696 -0.1514 -0.0156
  271MOL0     C36510   7.625   1.726   3.098 -0.5350 -0.7865 -0.2471
  271MOL0     C36511   7.652   1.761   2.951 -0.1586 -0.9522 -0.1543
  271MOL0     C36512   7.627   1.652   2.853  0.2074 -0.7777  0.4320
  271MOL0     C36513   7.731   1.543   2.871 -1.2681  0.0620  0.8762
  271MOL0     C36514   7.814   1.458   2.904  0.4972 -0.3854  0.2233
  271MOL0     C36515   7.462   1.680   3.484 -0.4493 -1.2415 -0.5581
  271MOL0     C36516   7.489   1.574   3.561 -0.3393  0.3087 -0.3581
  271MOL0     C36517   7.381   1.509   3.641  0.9060 -0.3696  0.3969
  271MOL0     H36518   7.970   1.451   3.836 -1.2080  1.5882 -3.6817
  271MOL0     H36519   8.097   1.283   3.983 -0.4702  0.7564 -0.2089
  271MOL0     H36520   8.257   0.940   4.000 -1.5730 -1.1388 -0.0874
  271MOL0     H36521   8.241   1.113   3.952 -1.9559 -1.8740 -3.3985
  271MOL0     H36522   8.195   0.969   4.220  5.4437 -0.8173 -0.3217
  271MOL0     H36523   8.119   1.130   4.197 -0.3234 -0.4568  1.0597
  271MOL0     H36524   8.411   1.126   4.137 -0.4954 -0.7381 -0.9316
  271MOL0     H36525   8.369   1.099   4.305  2.3270  1.4208  0.2365
  271MOL0     H36526   8.252   1.332   4.147  1.6931 -2.4399 -2.5107
  271MOL0     H36527   8.216   1.307   4.309 -1.4294 -0.6319 -1.1692
  271MOL0     H36528   8.507   1.325   4.204 -0.0370 -0.5200  0.3665
  271MOL0     H36529   8.403   1.463   4.214  4.8296  1.6589  1.7512
  271MOL0     H36530   8.496   1.303   4.448  0.3997 -0.8170 -2.4120
  271MOL0     H36531   8.551   1.468   4.397  1.8352 -1.6575  1.0296
  271MOL0     H36532   8.389   1.489   4.592 -0.4406  2.4139 -0.4875
  271MOL0     H36533   8.268   1.392   4.494  0.1129 -0.2187 -2.3943
  271MOL0     H36534   8.402   1.661   4.435  1.9137 -2.2191  3.4842
  271MOL0     H36535   8.263   1.578   4.345 -3.3280  2.4885  0.6578
  271MOL0     H36536   8.074   1.522   4.601 -2.7074  1.1850  1.6602
  271MOL0     H36537   7.935   1.686   4.799 -0.0782 -1.8525 -0.7358
  271MOL0     H36538   7.890   1.844   4.746 -1.1035 -0.1963  0.9755
  271MOL0     H36539   7.749   1.718   4.553 -0.3815  0.5096  0.2925
  271MOL0     H36540   7.797   1.568   4.635  1.9918  0.4130  0.2546
  271MOL0     H36541   7.656   1.789   4.781  0.0882  1.7546 -4.8106
  271MOL0     H36542   7.680   1.615   4.836  0.2712 -0.6072  1.3635
  271MOL0     H36543   7.539   1.566   4.608 -1.5654  0.1958  0.0199
  271MOL0     H36544   7.505   1.730   4.606  1.5696 -1.3499 -1.9471
  271MOL0     H36545   7.254   1.547   4.926 -1.5301 -0.9405  1.8907
  271MOL0     H36546   7.042   1.412   4.887 -1.5123 -1.3365 -1.6483
  271MOL0     H36547   6.628   1.456   4.534  2.3318  1.9392 -3.1515
  271MOL0     H36548   6.445   1.326   4.447 -0.6017 -3.5920  3.2049
  271MOL0     H36549   6.374   1.092   4.506 -3.4343 -3.9853 -0.0944
  271MOL0     H36550   6.290   1.185   4.370  2.0433  0.6327 -4.9185
  271MOL0     H36551   6.231   0.958   4.288 -0.8960 -0.0965  0.5638
  271MOL0     H36552   6.301   0.893   4.437  1.2757  0.3315 -0.0360
  271MOL0     H36553   6.132   1.020   4.568 -0.6359  0.9980 -0.8323
  271MOL0     H36554   6.063   1.082   4.422  2.4882  2.4884 -1.7552
  271MOL0     H36555   6.072   0.778   4.466  0.2159  0.7835 -0.9067
  271MOL0     H36556   6.019   0.891   4.327 -1.7176  2.5003 -0.0876
  271MOL0     H36557   5.851   0.979   4.468  0.1088  0.4112  0.1430
  271MOL0     H36558   5.920   0.912   4.616 -3.5685  0.4458  0.6215
  271MOL0     H36559   5.866   0.674   4.511 -2.0233 -0.7096 -0.5045
  271MOL0     H36560   5.750   0.769   4.600  4.1935  3.5744  3.5918
  271MOL0     H36561   5.787   0.746   4.294  1.5334  1.5346  1.3241
  271MOL0     H36562   5.663   0.858   4.375 -0.3901  0.6930 -0.3927
  271MOL0     H36563   5.684   0.560   4.416  1.8873  0.9100 -0.0481
  271MOL0     H36564   5.566   0.656   4.485  0.8197 -1.4987  0.2089
  271MOL0     H36565   6.718   1.046   4.251 -2.5696 -0.1371 -2.4397
  271MOL0     H36566   6.901   1.193   4.321  0.4290  1.8577  0.5727
  271MOL0     H36567   7.121   1.484   4.470  1.2998 -2.8018 -0.3277
  271MOL0     H36568   7.343   1.562   4.521  0.6884 -0.7462  0.4147
  271MOL0     H36569   7.890   0.966   3.810 -0.8617  0.4086  2.3602
  271MOL0     H36570   7.776   1.129   3.647  1.6610 -0.5756  0.3875
  271MOL0     H36571   7.830   1.583   3.522 -0.1509 -1.1160  1.3605
  271MOL0     H36572   7.783   1.744   3.356  0.7407 -0.9404  0.3528
  271MOL0     H36573   7.681   1.891   3.220  3.1839 -3.1710 -3.0129
  271MOL0     H36574   7.531   1.920   3.122 -1.6014  0.2746  2.1527
  271MOL0     H36575   7.540   1.658   3.106 -0.8310 -0.1969  2.9312
  271MOL0     H36576   7.714   1.670   3.125 -1.0641 -1.2547  0.5528
  271MOL0     H36577   7.753   1.797   2.927  1.4234 -2.6500  3.2590
  271MOL0     H36578   7.583   1.841   2.922 -2.1859 -1.8314  1.9707
  271MOL0     H36579   7.526   1.610   2.863 -1.4792  2.1046 -2.4124
  271MOL0     H36580   7.622   1.685   2.749  0.1339  0.3376  0.7823
  271MOL0     H36581   7.866   1.373   2.944  0.6606  0.3565  1.6429
  271MOL0     H36582   7.361   1.719   3.492  0.1161 -0.0441  1.3831
  271MOL0     H36583   7.364   1.404   3.616  0.7679  0.4258 -3.4223
  271MOL0     H36584   7.399   1.528   3.747  1.3940  1.3863  0.0270
  271MOL0     H36585   7.282   1.547   3.617 -0.5697 -2.2337  3.0085
  272MOL0     O36586   3.567   3.595   8.725 -0.1978 -0.6021 -0.5573
  272MOL0     C36587   3.591   3.541   8.623 -0.0953  0.5605  0.3467
  272MOL0     O36588   3.528   3.562   8.503 -0.0551 -0.3812  0.8575
  272MOL0     C36589   3.464   3.678   8.468  0.2259 -0.3937  0.4814
  272MOL0     C36590   3.537   3.785   8.410  0.5871 -0.3827  0.5645
  272MOL0     C36591   3.469   3.905   8.390 -1.0691  0.7719 -0.1310
  272MOL0     C36592   3.331   3.923   8.412  0.1458  0.4684  0.0738
  272MOL0     O36593   3.262   4.044   8.402  0.3082  0.4814  0.0171
  272MOL0     C36594   3.336   4.163   8.413 -0.1339 -0.2059  0.2833
  272MOL0     C36595   3.412   4.214   8.287 -0.2261  0.6120 -0.1556
  272MOL0     C36596   3.482   4.346   8.297 -0.3191 -0.0775  0.3266
  272MOL0     C36597   3.548   4.366   8.438  0.4543  0.7248  0.8172
  272MOL0     C36598   3.651   4.470   8.427 -0.2358 -0.1638  1.3106
  272MOL0     C36599   3.604   4.615   8.393 -0.3081 -0.1115  0.0138
  272MOL0     C36600   3.718   4.716   8.356 -0.3327 -0.2445 -0.5672
  272MOL0     C36601   3.818   4.728   8.475 -0.4900  0.4825  0.0056
  272MOL0     N36602   3.926   4.808   8.430 -0.9710 -0.2881 -0.1878
  272MOL0     C36603   4.054   4.759   8.416  0.1702 -0.0614 -0.0510
  272MOL0     C36604   4.128   4.872   8.401  0.1885  0.6395  0.2621
  272MOL0     C36605   4.277   4.863   8.387 -0.8375  0.0531  0.3462
  272MOL0     C36606   4.332   4.978   8.301  0.4578 -0.3938  1.0640
  272MOL0     C36607   4.486   4.962   8.291  0.6017  0.1067 -1.1513
  272MOL0     C36608   4.552   5.086   8.231 -0.4424 -0.1074  0.1154
  272MOL0     O36609   4.676   5.115   8.310  0.5209  0.1078 -0.1590
  272MOL0     C36610   4.799   5.085   8.269  0.8015  0.2245  0.4970
  272MOL0     C36611   4.829   5.044   8.133  0.5298  0.0873 -0.1979
  272MOL0     C36612   4.962   5.033   8.098  0.6543 -0.8338  0.6852
  272MOL0     C36613   5.067   5.075   8.194  1.2884  1.1631 -0.8477
  272MOL0     C36614   5.211   5.077   8.154 -0.4986 -0.4081  0.5543
  272MOL0     O36615   5.231   5.085   8.021  0.0191  0.1178  0.0053
  272MOL0     C36616   5.352   5.113   7.967  0.2050 -1.4236  0.2371
  272MOL0     C36617   5.422   5.040   7.867 -0.7226  0.1349 -0.4038
  272MOL0     C36618   5.545   5.082   7.816 -0.5602  0.4227  0.4469
  272MOL0     C36619   5.613   5.196   7.875  0.2861 -0.4533 -0.7887
  272MOL0     O36620   5.737   5.226   7.826 -0.2306 -1.0801  0.6764
  272MOL0     C36621   5.772   5.370   7.815 -0.6871  1.1105  0.2252
  272MOL0     C36622   5.919   5.368   7.753 -0.7320  0.0978  0.8280
  272MOL0     C36623   6.016   5.343   7.869 -0.2996 -0.6055 -0.0397
  272MOL0     C36624   6.158   5.291   7.840 -0.1290 -0.1696 -0.4128
  272MOL0     C36625   6.148   5.141   7.806 -0.0097  0.2455 -1.2749
  272MOL0     C36626   6.294   5.082   7.791  0.2936  0.4720 -0.1968
  272MOL0     C36627   6.282   4.925   7.759  0.5574 -0.7942  0.5563
  272MOL0     C36628   6.417   4.892   7.689  0.2823 -0.2271 -0.5380
  272MOL0    Cl36629   6.572   4.947   7.763  0.4128  0.7465 -0.2782
  272MOL0     C36630   5.550   5.265   7.984 -0.1041 -0.1083 -0.3495
  272MOL0     C36631   5.420   5.227   8.020 -0.0454  0.6861  0.1033
  272MOL0     O36632   5.302   5.088   8.241  0.4198  0.5640  0.6418
  272MOL0     C36633   5.029   5.094   8.327  0.5349  0.3140  0.6702
  272MOL0     C36634   4.893   5.111   8.361 -0.0372 -0.7517 -0.4286
  272MOL0     N36635   4.051   4.985   8.395  0.2458 -0.1845  1.1186
  272MOL0     N36636   3.929   4.949   8.418  0.0457 -0.8145 -0.8492
  272MOL0     C36637   3.257   3.810   8.465  0.1567 -0.0033 -0.5283
  272MOL0     C36638   3.327   3.697   8.492  0.1142 -0.7542  0.1703
  272MOL0     C36639   3.677   3.423   8.627 -0.0311  0.6527  0.4078
  272MOL0     C36640   3.763   3.403   8.518  0.8119 -0.6642  1.0201
  272MOL0     C36641   3.848   3.291   8.513  0.8315 -1.3430 -0.0215
  272MOL0     C36642   3.859   3.210   8.620  1.3082  0.5971  0.8179
  272MOL0     O36643   3.939   3.095   8.610 -0.2653  0.0237  0.7804
  272MOL0     C36644   3.962   3.005   8.724  0.8477 -0.1223 -0.2209
  272MOL0     C36645   4.059   3.076   8.830  0.7479  0.0104 -0.2299
  272MOL0     C36646   4.102   2.994   8.948 -0.0839  0.1270  0.1347
  272MOL0     C36647   3.989   2.900   8.999 -0.8877  0.9330  0.3009
  272MOL0     C36648   4.034   2.830   9.122  0.6691  0.9136  0.0307
  272MOL0     C36649   4.084   2.768   9.209 -1.3918 -0.6431  0.1154
  272MOL0     C36650   3.776   3.228   8.728 -0.0643 -0.0306  0.0992
  272MOL0     C36651   3.688   3.336   8.739  0.3073  0.5072 -0.0385
  272MOL0     C36652   3.606   3.348   8.866 -0.3532 -0.6390  0.2109
  272MOL0     H36653   3.643   3.771   8.389  0.2667 -1.8330 -0.2857
  272MOL0     H36654   3.539   3.979   8.355 -0.8048 -0.4287 -2.3312
  272MOL0     H36655   3.265   4.238   8.450 -0.9331 -1.6510  1.8325
  272MOL0     H36656   3.397   4.146   8.502  0.8699  1.1835 -0.1157
  272MOL0     H36657   3.334   4.230   8.212  1.0502  4.4719 -0.8986
  272MOL0     H36658   3.477   4.135   8.249 -2.2817 -1.7613  1.0074
  272MOL0     H36659   3.416   4.428   8.266 -0.0836  0.1680  0.4670
  272MOL0     H36660   3.557   4.340   8.217 -2.8923  1.3872 -2.4017
  272MOL0     H36661   3.468   4.399   8.505 -2.9940 -2.3704 -1.3941
  272MOL0     H36662   3.592   4.271   8.472 -1.8120 -0.7110 -0.0417
  272MOL0     H36663   3.696   4.477   8.526 -2.3347  0.7503  2.2689
  272MOL0     H36664   3.726   4.441   8.353 -1.0087 -3.5680  1.6988
  272MOL0     H36665   3.544   4.619   8.302 -1.8563  1.4283  1.0504
  272MOL0     H36666   3.553   4.663   8.477  1.6342  2.2568 -0.0118
  272MOL0     H36667   3.683   4.819   8.347 -0.3616 -0.3193 -1.3350
  272MOL0     H36668   3.763   4.685   8.262 -0.8251 -0.9252 -0.5837
  272MOL0     H36669   3.765   4.781   8.555 -4.7372 -2.5647 -0.4399
  272MOL0     H36670   3.861   4.643   8.527  2.1518  3.1335  2.5408
  272MOL0     H36671   4.088   4.656   8.423  0.2401  0.0602  2.8110
  272MOL0     H36672   4.313   4.865   8.490 -0.9983  1.4401  0.3993
  272MOL0     H36673   4.308   4.760   8.367 -1.0800 -0.1041  0.7667
  272MOL0     H36674   4.285   4.984   8.203  0.9710  4.4603  0.8463
  272MOL0     H36675   4.319   5.074   8.353 -0.8226  0.1035 -0.1229
  272MOL0     H36676   4.496   4.879   8.220 -0.0909  1.5769 -3.0589
  272MOL0     H36677   4.533   4.933   8.386 -3.1185 -0.1410  0.8094
  272MOL0     H36678   4.499   5.181   8.246  2.7922  2.5595 -3.2693
  272MOL0     H36679   4.567   5.074   8.123  0.6250  0.2735  0.2084
  272MOL0     H36680   4.748   5.016   8.067  0.5504  0.8696 -0.5716
  272MOL0     H36681   4.992   5.000   7.999 -1.1475 -0.8861  0.1045
  272MOL0     H36682   5.385   4.951   7.816  1.8854  0.9186 -4.0906
  272MOL0     H36683   5.594   5.027   7.736  3.6797  1.1620  2.2344
  272MOL0     H36684   5.715   5.424   7.739  0.9261  1.1333 -1.0206
  272MOL0     H36685   5.769   5.414   7.915  0.6434 -1.5764  1.5677
  272MOL0     H36686   5.923   5.285   7.681 -3.8954 -0.8587  1.6158
  272MOL0     H36687   5.927   5.461   7.697 -0.0843 -0.1624  0.4647
  272MOL0     H36688   6.017   5.439   7.923 -0.4868 -1.3249  1.3021
  272MOL0     H36689   5.968   5.273   7.939  1.3522  0.1867  1.9910
  272MOL0     H36690   6.227   5.296   7.924 -1.2637  1.9516  0.4813
  272MOL0     H36691   6.211   5.354   7.768  2.6468 -2.6728 -0.7329
  272MOL0     H36692   6.093   5.129   7.713 -0.2997 -0.2327 -1.0421
  272MOL0     H36693   6.082   5.092   7.877  0.0117 -0.9210 -2.0388
  272MOL0     H36694   6.355   5.138   7.720  2.7136 -0.5662  0.9344
  272MOL0     H36695   6.342   5.092   7.889 -0.1856  1.2816 -0.0314
  272MOL0     H36696   6.206   4.922   7.680  2.2514 -1.7482 -1.1143
  272MOL0     H36697   6.268   4.861   7.847 -1.2009 -0.1068  0.8179
  272MOL0     H36698   6.428   4.783   7.685  2.1812 -0.1524  1.3287
  272MOL0     H36699   6.393   4.911   7.584 -0.7950  2.0019  0.0495
  272MOL0     H36700   5.600   5.346   8.036  1.0082  0.5785 -2.3880
  272MOL0     H36701   5.365   5.290   8.089 -0.9747 -0.2775  0.2710
  272MOL0     H36702   5.108   5.111   8.399 -0.1016  1.1967  1.1782
  272MOL0     H36703   4.871   5.147   8.461  0.0499  3.6837 -1.7675
  272MOL0     H36704   3.152   3.823   8.487  0.2205 -0.2462 -0.0831
  272MOL0     H36705   3.274   3.618   8.544 -2.0121 -0.4346 -1.3743
  272MOL0     H36706   3.783   3.476   8.440  0.9287  0.4008  2.0148
  272MOL0     H36707   3.904   3.277   8.421  0.5250 -4.0481  0.1025
  272MOL0     H36708   4.002   2.910   8.687 -0.1301  0.1269 -2.0016
  272MOL0     H36709   3.863   2.974   8.760  0.2113  1.1467 -0.8447
  272MOL0     H36710   4.015   3.168   8.869 -3.1691 -1.4220 -0.7378
  272MOL0     H36711   4.147   3.117   8.781  0.7356  1.4477  0.8887
  272MOL0     H36712   4.143   3.062   9.023  1.7626 -0.1439 -0.5796
  272MOL0     H36713   4.176   2.929   8.901 -1.2289  0.1701 -1.8503
  272MOL0     H36714   3.892   2.951   9.006 -2.2596 -1.4863 -0.0940
  272MOL0     H36715   3.962   2.827   8.921  0.4464  0.6833  0.0503
  272MOL0     H36716   4.108   2.709   9.295 -0.7787 -1.4716 -0.6218
  272MOL0     H36717   3.782   3.160   8.813  2.1695  0.5489  0.4722
  272MOL0     H36718   3.636   3.265   8.930  2.6486  0.9328  1.0194
  272MOL0     H36719   3.627   3.441   8.919 -0.4401 -0.8706  0.6596
  272MOL0     H36720   3.498   3.353   8.846  0.0602  1.4259 -2.0649
  273MOL0     O36721   1.141   8.244   0.897 -0.6765  0.3497 -0.0788
  273MOL0     C36722   1.125   8.169   0.994 -0.9591  0.0740 -0.0559
  273MOL0     O36723   1.227   8.129   1.081  0.5687 -0.3340  0.1259
  273MOL0     C36724   1.355   8.174   1.049  0.6416  0.1087 -0.0310
  273MOL0     C36725   1.384   8.314   1.068 -0.2576  0.7605 -0.4157
  273MOL0     C36726   1.496   8.371   1.010  0.0437  0.3103 -0.1913
  273MOL0     C36727   1.603   8.294   0.970  0.3764 -0.0150 -0.2881
  273MOL0     O36728   1.724   8.351   0.934 -0.0707 -0.0991 -0.1046
  273MOL0     C36729   1.841   8.289   1.000 -0.1364 -0.7349 -0.5867
  273MOL0     C36730   1.815   8.292   1.148 -0.1473 -0.0126 -0.5459
  273MOL0     C36731   1.939   8.267   1.234 -0.0566  0.5773 -0.6647
  273MOL0     C36732   2.029   8.391   1.269 -0.6086 -0.2231 -0.0622
  273MOL0     C36733   2.157   8.353   1.348 -0.3411 -0.0223  0.2921
  273MOL0     C36734   2.121   8.311   1.491  1.3405 -0.1118 -0.5400
  273MOL0     C36735   2.242   8.314   1.583 -0.2329  0.3145  0.8688
  273MOL0     C36736   2.217   8.269   1.734  0.3992  0.6516 -0.0148
  273MOL0     N36737   2.157   8.379   1.813 -0.5557 -0.2723 -0.5420
  273MOL0     C36738   2.192   8.515   1.806 -0.1539  0.3116  1.2872
  273MOL0     C36739   2.119   8.581   1.890 -0.1475  0.0987  0.4789
  273MOL0     C36740   2.130   8.720   1.923  0.1902  0.4157  0.1955
  273MOL0     C36741   2.029   8.799   1.847 -0.7022 -0.0264  0.2526
  273MOL0     C36742   2.050   8.842   1.702  0.2770 -0.4185  0.0297
  273MOL0     C36743   2.169   8.929   1.677 -0.3194  0.3622 -0.3102
  273MOL0     O36744   2.138   9.061   1.691  0.3428  0.2247  0.4114
  273MOL0     C36745   2.224   9.163   1.654 -0.0501  0.0237 -0.2361
  273MOL0     C36746   2.363   9.142   1.629  0.4225  0.4793 -0.7874
  273MOL0     C36747   2.446   9.241   1.585  0.0182 -0.7757  0.0606
  273MOL0     C36748   2.396   9.371   1.561 -0.1781  0.4478 -0.1652
  273MOL0     C36749   2.500   9.479   1.535  1.1829 -0.2371  0.2958
  273MOL0     O36750   2.450   9.610   1.531  0.3975  0.0881 -0.7080
  273MOL0     C36751   2.539   9.712   1.529 -0.1114  0.1085  1.0936
  273MOL0     C36752   2.538   9.795   1.417 -0.9484  0.1997  0.8364
  273MOL0     C36753   2.632   9.900   1.404 -0.4206  0.5836  0.1813
  273MOL0     C36754   2.695   9.955   1.517  0.1015  0.1307 -0.1205
  273MOL0     O36755   2.729  10.088   1.528 -0.0470  0.1387 -0.1099
  273MOL0     C36756   2.791  10.151   1.414 -0.0123  0.3605  0.4604
  273MOL0     C36757   2.851  10.277   1.455  0.3509  0.5296 -0.2234
  273MOL0     C36758   2.977  10.279   1.536  0.1515  0.3226  1.0187
  273MOL0     C36759   3.085  10.207   1.456  0.8086 -0.9042 -0.6455
  273MOL0     C36760   3.113  10.267   1.318  0.5919  0.0930 -0.3918
  273MOL0     C36761   3.240  10.205   1.267 -0.7074 -0.2230 -0.2504
  273MOL0     C36762   3.304  10.283   1.150  0.2897 -0.3213  0.1335
  273MOL0     C36763   3.429  10.204   1.103  0.4328  1.3848 -0.4990
  273MOL0    Cl36764   3.524  10.307   0.990 -0.1777 -0.1120  0.1268
  273MOL0     C36765   2.681   9.881   1.636 -0.8398  0.3224 -0.4027
  273MOL0     C36766   2.608   9.752   1.645 -0.1345  0.1303 -0.1249
  273MOL0     O36767   2.616   9.445   1.514 -0.4626  0.2992 -0.8111
  273MOL0     C36768   2.257   9.388   1.582 -1.6370 -0.2977  1.3425
  273MOL0     C36769   2.171   9.284   1.620 -0.3069  0.1290 -0.1239
  273MOL0     N36770   2.035   8.489   1.948  1.0678  1.1637  0.4922
  273MOL0     N36771   2.058   8.370   1.912  0.2007  1.3644  0.8133
  273MOL0     C36772   1.576   8.160   0.963 -0.0113  0.2022 -0.8909
  273MOL0     C36773   1.459   8.095   0.996  0.5410  0.0757  1.2156
  273MOL0     C36774   0.994   8.101   0.993  0.0429  0.1676 -0.8623
  273MOL0     C36775   0.982   7.967   1.044 -0.8452 -0.7175 -0.5911
  273MOL0     C36776   0.867   7.891   1.043  0.0208  0.0182  0.9585
  273MOL0     C36777   0.754   7.947   0.982 -0.8104  0.4576 -0.6644
  273MOL0     O36778   0.638   7.870   0.983  0.9490  0.4705 -0.1863
  273MOL0     C36779   0.515   7.922   0.932 -0.3341  0.2110  0.1917
  273MOL0     C36780   0.446   7.996   1.048 -0.4204  0.1619 -0.3908
  273MOL0     C36781   0.296   8.024   1.025  0.1991 -0.2405  0.4448
  273MOL0     C36782   0.275   8.156   0.957  1.1299  0.1547  1.1021
  273MOL0     C36783   0.122   8.173   0.946 -0.5965  0.3395  0.0883
  273MOL0     C36784   0.006   8.175   0.928  0.5151 -0.8789  0.2794
  273MOL0     C36785   0.766   8.079   0.936  0.3785 -0.4614  0.0169
  273MOL0     C36786   0.873   8.161   0.946 -0.4410 -0.2767 -0.6417
  273MOL0     C36787   0.866   8.312   0.916  0.3470  0.3395  0.1132
  273MOL0     H36788   1.306   8.374   1.113 -3.3496 -1.5439 -2.3439
  273MOL0     H36789   1.528   8.475   1.013 -1.7641  1.0578 -2.9944
  273MOL0     H36790   1.861   8.183   0.979  0.1346 -0.5881 -1.0985
  273MOL0     H36791   1.940   8.334   0.986  1.7133 -3.3175  2.7722
  273MOL0     H36792   1.742   8.217   1.179  1.2882 -0.9323  0.6648
  273MOL0     H36793   1.769   8.390   1.166  0.6140  0.5084 -1.3340
  273MOL0     H36794   2.006   8.195   1.184  0.0145 -2.2482  3.0649
  273MOL0     H36795   1.899   8.210   1.318 -2.3229 -0.2702 -2.2236
  273MOL0     H36796   2.057   8.435   1.173  2.2705 -1.7095 -0.0047
  273MOL0     H36797   1.968   8.470   1.314  1.0224  1.1018 -0.0738
  273MOL0     H36798   2.213   8.276   1.295 -0.0399  2.1110 -2.7638
  273MOL0     H36799   2.210   8.449   1.347 -0.2321 -0.0842  0.1003
  273MOL0     H36800   2.061   8.390   1.536  0.3590 -2.1687  2.0193
  273MOL0     H36801   2.064   8.218   1.499 -0.2249  0.9747  4.5524
  273MOL0     H36802   2.295   8.408   1.568 -2.6885  1.3678 -2.3656
  273MOL0     H36803   2.304   8.237   1.537 -3.5033  0.1672 -4.0158
  273MOL0     H36804   2.155   8.181   1.716  1.4601  0.2907 -2.3139
  273MOL0     H36805   2.300   8.232   1.795 -0.4851 -1.1489  0.1794
  273MOL0     H36806   2.267   8.559   1.740 -1.0070  1.0667  0.8058
  273MOL0     H36807   2.111   8.732   2.031 -0.2372  0.1206  0.1529
  273MOL0     H36808   2.228   8.762   1.901 -0.3870  2.1625  0.7328
  273MOL0     H36809   1.928   8.759   1.852 -1.3668  1.2357 -2.0451
  273MOL0     H36810   2.022   8.896   1.898  0.1207  1.7824 -2.8297
  273MOL0     H36811   1.970   8.910   1.673  2.3786  1.4454 -1.7198
  273MOL0     H36812   2.045   8.757   1.633 -0.1992 -0.3980  0.0333
  273MOL0     H36813   2.181   8.916   1.569 -1.5163  0.6377 -0.4881
  273MOL0     H36814   2.258   8.895   1.731 -0.2728  0.6984 -0.1718
  273MOL0     H36815   2.408   9.045   1.644 -0.3717  0.5442  2.9338
  273MOL0     H36816   2.552   9.224   1.569  0.5392  2.8125 -1.3671
  273MOL0     H36817   2.477   9.769   1.331  0.0470 -2.2487  0.8000
  273MOL0     H36818   2.642   9.955   1.310  2.2843  4.0640  2.2386
  273MOL0     H36819   2.862  10.077   1.377 -0.8413 -0.2132 -0.0193
  273MOL0     H36820   2.716  10.164   1.335  0.8235  0.6888 -0.2915
  273MOL0     H36821   2.866  10.332   1.362  1.4086 -0.4840 -0.6679
  273MOL0     H36822   2.779  10.334   1.515  1.5549  0.7636  1.0278
  273MOL0     H36823   2.997  10.385   1.553 -2.7031  2.3958 -5.3079
  273MOL0     H36824   2.953  10.227   1.629  2.3323 -1.4793  0.6623
  273MOL0     H36825   3.070  10.099   1.448 -0.0384 -0.8136 -0.4414
  273MOL0     H36826   3.168  10.212   1.527 -0.0929  0.7711  0.3787
  273MOL0     H36827   3.121  10.376   1.326 -0.1967  0.3144 -2.1493
  273MOL0     H36828   3.031  10.244   1.249 -0.3506  0.2634  0.6289
  273MOL0     H36829   3.313  10.194   1.348 -0.7799  4.3375  0.7038
  273MOL0     H36830   3.212  10.107   1.227  3.1589  0.0493 -4.3703
  273MOL0     H36831   3.343  10.379   1.186  1.6853 -0.1435 -1.7357
  273MOL0     H36832   3.235  10.301   1.067 -2.8825 -0.5716  2.4996
  273MOL0     H36833   3.483  10.169   1.192 -4.5827 -2.4948  1.5484
  273MOL0     H36834   3.396  10.112   1.053  3.0335  0.4567 -0.6299
  273MOL0     H36835   2.702   9.934   1.729 -2.5443 -2.1310  1.5376
  273MOL0     H36836   2.597   9.709   1.744 -2.3428 -0.5603 -0.6105
  273MOL0     H36837   2.201   9.480   1.570 -4.0234 -1.6877  1.3317
  273MOL0     H36838   2.063   9.287   1.631 -0.2810  0.9778 -0.0113
  273MOL0     H36839   1.648   8.095   0.913  2.5725 -1.2195  4.0398
  273MOL0     H36840   1.441   7.990   0.976 -2.8782  0.6392  0.7502
  273MOL0     H36841   1.067   7.925   1.097  1.7000  1.5210 -2.5899
  273MOL0     H36842   0.858   7.794   1.091 -1.1919 -0.3105  0.1067
  273MOL0     H36843   0.453   7.834   0.909  1.0085 -0.7791  0.2630
  273MOL0     H36844   0.529   7.985   0.844 -0.2965  0.0572  0.0877
  273MOL0     H36845   0.493   8.093   1.071  0.3129 -0.7502  2.3764
  273MOL0     H36846   0.449   7.937   1.140 -3.0258  3.0185  1.7265
  273MOL0     H36847   0.241   8.022   1.119 -1.3642 -0.0349 -0.4329
  273MOL0     H36848   0.247   7.942   0.972 -2.4304  1.0446  0.7325
  273MOL0     H36849   0.315   8.237   1.019  1.8737  1.2217 -0.6882
  273MOL0     H36850   0.326   8.163   0.860 -1.0309 -4.0206 -0.5998
  273MOL0     H36851  -0.100   8.166   0.914  0.0615  1.1345  1.8490
  273MOL0     H36852   0.675   8.121   0.893 -1.6747 -1.1177  3.3497
  273MOL0     H36853   0.927   8.334   0.828  0.9157  0.4668  0.5403
  273MOL0     H36854   0.762   8.340   0.895 -1.1054 -2.2032  3.0008
  273MOL0     H36855   0.899   8.374   0.999  0.2280 -3.1127  2.9968
  274MOL0     O36856   4.699   9.336   3.458  0.3348  0.6750 -0.5858
  274MOL0     C36857   4.646   9.425   3.388  0.7650  0.8463 -0.0761
  274MOL0     O36858   4.589   9.536   3.434  0.1762  0.9711  0.3230
  274MOL0     C36859   4.589   9.560   3.564 -0.1925 -1.1811  0.0720
  274MOL0     C36860   4.657   9.680   3.607 -0.5692 -0.4393  0.1445
  274MOL0     C36861   4.667   9.724   3.731 -0.2854 -0.1585 -0.6371
  274MOL0     C36862   4.607   9.646   3.835  0.1051 -0.0809  0.2382
  274MOL0     O36863   4.599   9.678   3.971  0.0314  0.0934  0.9510
  274MOL0     C36864   4.710   9.753   4.021  0.8152 -1.0488  0.0890
  274MOL0     C36865   4.840   9.667   4.037 -0.3584 -0.0385  0.4193
  274MOL0     C36866   4.803   9.560   4.143 -0.8224 -0.8749  0.7780
  274MOL0     C36867   4.908   9.444   4.144 -0.2816  0.2625  0.1683
  274MOL0     C36868   4.860   9.329   4.234 -0.5633  0.5636  0.9120
  274MOL0     C36869   4.974   9.222   4.241  0.3430  0.4551 -0.3465
  274MOL0     C36870   4.926   9.084   4.291 -0.4889 -0.5704 -0.7772
  274MOL0     C36871   4.895   9.081   4.443 -0.2555 -0.2389  0.7927
  274MOL0     N36872   5.019   9.105   4.514 -0.0054 -0.4098 -0.8460
  274MOL0     C36873   5.021   9.153   4.652 -0.3601 -0.1702 -0.1624
  274MOL0     C36874   5.152   9.145   4.697 -0.1139  0.2289 -0.3511
  274MOL0     C36875   5.211   9.193   4.822 -0.1835 -0.3477  0.0063
  274MOL0     C36876   5.114   9.186   4.942 -0.4751  0.2408 -0.0492
  274MOL0     C36877   5.152   9.267   5.079  0.8168 -0.2231 -0.2321
  274MOL0     C36878   5.083   9.187   5.192 -0.4858  0.0675 -0.2550
  274MOL0     O36879   4.939   9.176   5.181  0.6777  0.2413 -0.2915
  274MOL0     C36880   4.862   9.291   5.185  0.8669  0.8312 -0.1825
  274MOL0     C36881   4.899   9.424   5.228 -0.3814  0.8966 -0.4737
  274MOL0     C36882   4.804   9.532   5.238  0.8055  0.9688  0.8733
  274MOL0     C36883   4.673   9.508   5.194 -0.1151 -0.6228 -1.2659
  274MOL0     C36884   4.563   9.604   5.214 -0.2721  0.3003 -0.9879
  274MOL0     O36885   4.459   9.603   5.122  0.5193 -0.3659  0.5342
  274MOL0     C36886   4.391   9.721   5.119  0.2967  0.0323  0.6211
  274MOL0     C36887   4.251   9.708   5.103 -0.5089 -0.2280 -0.4135
  274MOL0     C36888   4.174   9.823   5.100  0.2893 -0.0955 -0.0489
  274MOL0     C36889   4.228   9.948   5.130  0.3473  0.7551  0.4017
  274MOL0     O36890   4.144  10.061   5.145 -0.1327  1.0468 -0.2375
  274MOL0     C36891   4.200  10.192   5.155  0.9388 -0.6922  0.5624
  274MOL0     C36892   4.070  10.273   5.190  0.3471 -0.6678 -0.8752
  274MOL0     C36893   4.074  10.417   5.124 -0.2011 -0.3243 -0.0109
  274MOL0     C36894   3.967  10.512   5.184 -1.2351  0.4277 -0.8160
  274MOL0     C36895   3.861  10.549   5.089  0.4403  0.9826 -0.1741
  274MOL0     C36896   3.753  10.623   5.163 -0.3165  0.5857 -0.9950
  274MOL0     C36897   3.642  10.660   5.066  0.0253 -0.3615  0.3011
  274MOL0     C36898   3.554  10.774   5.115  0.4475 -0.2296 -0.5366
  274MOL0    Cl36899   3.385  10.760   5.041  0.0996  0.3887 -0.7275
  274MOL0     C36900   4.366   9.960   5.131 -0.1596  0.2013 -0.5117
  274MOL0     C36901   4.449   9.852   5.124  0.1714 -0.8018 -0.1553
  274MOL0     O36902   4.577   9.680   5.316  0.6815  0.3542 -0.4197
  274MOL0     C36903   4.637   9.381   5.142  0.3842 -0.0430  0.0907
  274MOL0     C36904   4.728   9.272   5.141 -0.1554 -0.1669 -0.4917
  274MOL0     N36905   5.222   9.078   4.599 -0.3115 -0.6477 -0.1205
  274MOL0     N36906   5.142   9.058   4.498 -0.6287  0.4664 -0.3147
  274MOL0     C36907   4.534   9.531   3.797  0.1770 -0.1441 -0.5394
  274MOL0     C36908   4.520   9.481   3.664  0.4499 -0.9126 -0.6393
  274MOL0     C36909   4.655   9.414   3.246  0.7015 -0.4670  0.0376
  274MOL0     C36910   4.613   9.288   3.194  0.0689 -0.3468  0.5991
  274MOL0     C36911   4.595   9.272   3.057  0.4049 -1.0200  0.5598
  274MOL0     C36912   4.599   9.375   2.967  0.1490 -0.5759  0.2608
  274MOL0     O36913   4.556   9.389   2.837 -0.3170 -0.0595 -0.0942
  274MOL0     C36914   4.555   9.288   2.739 -0.9573  0.6093  0.2391
  274MOL0     C36915   4.414   9.247   2.707 -0.5141  0.4619  0.0033
  274MOL0     C36916   4.404   9.121   2.627  0.4238 -0.6848  0.7369
  274MOL0     C36917   4.265   9.061   2.636  0.4272  0.9788  1.4353
  274MOL0     C36918   4.249   8.956   2.530 -0.5844  0.8711  0.0249
  274MOL0     C36919   4.231   8.885   2.433  0.5943  0.2506 -0.3550
  274MOL0     C36920   4.645   9.498   3.021  0.1346  0.6088 -0.8248
  274MOL0     C36921   4.674   9.521   3.155  0.0576  0.9923  0.3594
  274MOL0     C36922   4.708   9.660   3.207 -0.8335  0.1363  0.0769
  274MOL0     H36923   4.700   9.740   3.527 -0.1664  0.8435  1.2835
  274MOL0     H36924   4.706   9.823   3.751 -1.5284  0.1286  0.5981
  274MOL0     H36925   4.734   9.846   3.970 -0.8259 -1.1905 -1.0050
  274MOL0     H36926   4.676   9.780   4.121 -1.3594 -1.2781 -0.5440
  274MOL0     H36927   4.918   9.735   4.073  0.7652 -0.6825 -0.7065
  274MOL0     H36928   4.870   9.608   3.950  1.8500 -1.6354  2.1414
  274MOL0     H36929   4.715   9.503   4.113  0.2200 -2.3888  0.5137
  274MOL0     H36930   4.780   9.619   4.233 -1.4956  2.6634 -1.5091
  274MOL0     H36931   4.939   9.406   4.046  1.2455  0.5878  0.4999
  274MOL0     H36932   5.006   9.484   4.171  0.1484  0.3408 -1.4081
  274MOL0     H36933   4.836   9.361   4.336 -2.0191 -0.1589  0.8194
  274MOL0     H36934   4.767   9.300   4.185  0.6691  0.2027 -1.3561
  274MOL0     H36935   5.027   9.202   4.147  1.5691  1.6527  0.0561
  274MOL0     H36936   5.046   9.263   4.312  1.3686 -1.5061 -0.1795
  274MOL0     H36937   5.002   9.008   4.272  1.0858  0.3529  1.3503
  274MOL0     H36938   4.836   9.045   4.244 -1.8334  2.3509 -0.8347
  274MOL0     H36939   4.813   9.149   4.466 -0.0406  0.9471 -1.6219
  274MOL0     H36940   4.863   8.983   4.479 -3.1613  0.3534  0.0978
  274MOL0     H36941   4.938   9.196   4.706 -0.8279  2.6667 -2.8444
  274MOL0     H36942   5.303   9.133   4.831  2.5331  3.4982  0.4662
  274MOL0     H36943   5.247   9.296   4.813  3.2974 -1.4704 -0.4182
  274MOL0     H36944   5.011   9.205   4.910 -1.4787 -1.3141  1.9872
  274MOL0     H36945   5.121   9.078   4.957 -1.7858 -0.2794 -2.5609
  274MOL0     H36946   5.103   9.363   5.055  0.3336 -0.3848  0.0866
  274MOL0     H36947   5.261   9.272   5.082  0.7764  0.2029  1.4806
  274MOL0     H36948   5.109   9.231   5.289 -0.9121 -2.2592  0.9810
  274MOL0     H36949   5.130   9.088   5.187  0.2322  0.4464 -1.4553
  274MOL0     H36950   5.000   9.431   5.267 -1.6598  2.1123  3.0671
  274MOL0     H36951   4.814   9.627   5.289 -2.9143  1.3470  1.1561
  274MOL0     H36952   4.201   9.612   5.106  0.3578 -0.7161 -1.1824
  274MOL0     H36953   4.068   9.802   5.085  0.1112  1.9408 -2.3557
  274MOL0     H36954   4.273  10.206   5.235  0.5460 -0.1097  0.8294
  274MOL0     H36955   4.246  10.232   5.065 -0.2732  0.0736  0.2561
  274MOL0     H36956   3.984  10.211   5.166  0.9738 -1.9691  0.1177
  274MOL0     H36957   4.071  10.295   5.297  1.3899  1.5591 -1.2675
  274MOL0     H36958   4.169  10.464   5.150 -1.3107  1.6870  0.6502
  274MOL0     H36959   4.068  10.408   5.015 -0.6999  0.3648 -0.0452
  274MOL0     H36960   4.025  10.598   5.218  0.3539 -0.8532 -0.1907
  274MOL0     H36961   3.927  10.453   5.267  0.3533 -2.3802 -1.9158
  274MOL0     H36962   3.825  10.454   5.049  1.6216  0.2781  0.3716
  274MOL0     H36963   3.906  10.610   5.010 -0.1246 -0.3626 -1.6053
  274MOL0     H36964   3.720  10.560   5.246  0.9041  1.6956  0.3823
  274MOL0     H36965   3.807  10.713   5.191  1.5528 -1.2279  1.7400
  274MOL0     H36966   3.587  10.566   5.055  0.7622 -0.7654  0.0114
  274MOL0     H36967   3.671  10.692   4.966 -2.4221  0.0719 -0.3210
  274MOL0     H36968   3.536  10.742   5.218 -0.7561 -2.3407 -1.3272
  274MOL0     H36969   3.609  10.868   5.110 -2.0980  1.4302  0.2515
  274MOL0     H36970   4.422  10.053   5.140  0.1090  0.2149 -2.0978
  274MOL0     H36971   4.555   9.872   5.136 -0.0888  0.6430 -0.0847
  274MOL0     H36972   4.542   9.354   5.098  0.6095 -0.7978  0.0521
  274MOL0     H36973   4.698   9.172   5.111 -0.1214 -0.1929 -0.4394
  274MOL0     H36974   4.491   9.480   3.882 -3.1145  1.1937 -1.2233
  274MOL0     H36975   4.466   9.388   3.646 -1.1097 -0.1333 -0.1258
  274MOL0     H36976   4.606   9.201   3.258  0.4940 -1.9511 -1.4350
  274MOL0     H36977   4.564   9.174   3.020 -0.8247 -0.3553 -0.2508
  274MOL0     H36978   4.611   9.204   2.780  2.6853  2.9838  0.6607
  274MOL0     H36979   4.605   9.325   2.649 -3.7621  3.4263 -0.3477
  274MOL0     H36980   4.374   9.328   2.645  2.6930  1.6368 -0.7379
  274MOL0     H36981   4.354   9.229   2.796 -0.9733 -1.2687 -0.6125
  274MOL0     H36982   4.463   9.049   2.684  1.7458  0.4850  0.9226
  274MOL0     H36983   4.447   9.136   2.527  1.7261  0.3493  1.4157
  274MOL0     H36984   4.246   9.028   2.738 -2.1307  0.1780  0.7751
  274MOL0     H36985   4.188   9.137   2.618 -0.9211 -0.4344  0.9722
  274MOL0     H36986   4.210   8.834   2.341 -0.1195  0.2411 -0.1853
  274MOL0     H36987   4.641   9.576   2.946  1.0840 -0.4287 -2.0068
  274MOL0     H36988   4.609   9.699   3.236 -1.0181  0.0597 -0.4414
  274MOL0     H36989   4.782   9.646   3.286 -0.9472 -0.1823  0.1296
  274MOL0     H36990   4.751   9.719   3.126  0.7733 -0.5240  0.4278
  275MOL0     O36991   0.564   2.284   3.670 -0.0057 -0.2184  0.2393
  275MOL0     C36992   0.546   2.390   3.612  1.0661 -0.0490 -0.2168
  275MOL0     O36993   0.636   2.488   3.587 -0.1601  0.7036  0.4155
  275MOL0     C36994   0.760   2.453   3.632 -0.1647 -0.1587 -0.5461
  275MOL0     C36995   0.793   2.453   3.767  0.0937 -0.3030 -0.5815
  275MOL0     C36996   0.927   2.427   3.807 -0.0391 -0.3963 -0.0621
  275MOL0     C36997   1.029   2.409   3.713 -0.4454 -0.7877  0.1118
  275MOL0     O36998   1.155   2.387   3.759 -0.8461 -0.3708  0.0262
  275MOL0     C36999   1.264   2.429   3.673  0.1906  0.7984  0.3040
  275MOL0     C37000   1.374   2.488   3.759  0.0414  0.0038 -0.0194
  275MOL0     C37001   1.360   2.631   3.803  0.1754 -0.4405 -0.1169
  275MOL0     C37002   1.428   2.683   3.934  0.0900 -0.0674  0.7052
  275MOL0     C37003   1.395   2.838   3.959  0.2431  0.5501 -0.0259
  275MOL0     C37004   1.487   2.917   4.054  0.3486 -0.2752 -2.2914
  275MOL0     C37005   1.467   3.074   4.073  0.4781  0.4512  0.4963
  275MOL0     C37006   1.567   3.132   4.171  0.1656 -1.0428 -0.1040
  275MOL0     N37007   1.539   3.274   4.202  0.6746  0.6033  0.6815
  275MOL0     C37008   1.603   3.376   4.144 -0.2272 -0.0101  0.1289
  275MOL0     C37009   1.559   3.488   4.202 -0.2202 -0.0669 -0.3033
  275MOL0     C37010   1.616   3.625   4.168 -0.0824  0.6417  0.2034
  275MOL0     C37011   1.620   3.720   4.287 -0.2747 -0.3044  0.6469
  275MOL0     C37012   1.704   3.670   4.400 -0.0935  0.0511  0.4522
  275MOL0     C37013   1.788   3.783   4.473 -0.0252 -0.0036 -0.2596
  275MOL0     O37014   1.707   3.883   4.534  0.7512 -0.2489 -0.3320
  275MOL0     C37015   1.764   3.978   4.624 -0.9525  0.7999 -0.5225
  275MOL0     C37016   1.904   4.003   4.641  0.0839  0.1078 -0.6896
  275MOL0     C37017   1.954   4.077   4.751 -0.6822  0.7231  0.1306
  275MOL0     C37018   1.870   4.143   4.839  1.0574 -0.2546 -0.0901
  275MOL0     C37019   1.925   4.205   4.954 -0.8886  0.9077 -0.1404
  275MOL0     O37020   1.848   4.302   5.009  0.4557  0.1415  0.2676
  275MOL0     C37021   1.863   4.372   5.127  0.5829 -0.2685 -0.5942
  275MOL0     C37022   1.775   4.484   5.145 -0.4728  0.6515  0.4414
  275MOL0     C37023   1.765   4.543   5.267 -0.6845  0.4447 -0.2077
  275MOL0     C37024   1.845   4.497   5.381  0.5267  0.5067 -0.9999
  275MOL0     O37025   1.851   4.560   5.504 -0.3782  1.0074  0.3116
  275MOL0     C37026   1.773   4.682   5.524  0.1935 -0.0448 -0.3752
  275MOL0     C37027   1.758   4.747   5.668 -0.0635  1.1543 -0.1221
  275MOL0     C37028   1.651   4.678   5.755 -1.0966  0.0018  0.2229
  275MOL0     C37029   1.665   4.717   5.891 -0.5271 -0.0839  0.4367
  275MOL0     C37030   1.560   4.653   5.983 -0.3509 -0.1768 -0.3898
  275MOL0     C37031   1.562   4.731   6.112 -0.1154  0.6112 -0.4283
  275MOL0     C37032   1.450   4.681   6.200  0.0330 -0.9089 -1.1589
  275MOL0     C37033   1.418   4.774   6.316 -0.0986  0.4148  0.0517
  275MOL0    Cl37034   1.254   4.726   6.392 -0.5916  0.1780  0.0124
  275MOL0     C37035   1.934   4.387   5.362  0.3111 -0.6060 -0.4606
  275MOL0     C37036   1.930   4.324   5.244 -0.6670  0.1631  0.0436
  275MOL0     O37037   2.044   4.184   4.988  0.3037  0.7776 -0.0444
  275MOL0     C37038   1.730   4.139   4.814  0.2106  0.8727  0.6197
  275MOL0     C37039   1.677   4.051   4.705 -0.3093 -0.6429  0.2880
  275MOL0     N37040   1.472   3.444   4.305 -0.4138  0.8178  0.0493
  275MOL0     N37041   1.462   3.312   4.307 -0.5214  0.1059 -0.0101
  275MOL0     C37042   0.992   2.408   3.574  0.3422  0.1346 -0.4336
  275MOL0     C37043   0.860   2.437   3.531 -0.8663  0.7074 -0.2520
  275MOL0     C37044   0.421   2.421   3.536  0.3731  0.0474  0.3148
  275MOL0     C37045   0.385   2.546   3.506  0.1322 -0.3789  0.0062
  275MOL0     C37046   0.258   2.577   3.454  0.1126  0.6254 -0.0305
  275MOL0     C37047   0.167   2.477   3.428  0.3844 -0.2212 -0.2106
  275MOL0     O37048   0.040   2.519   3.383 -0.2814  0.2857 -0.6209
  275MOL0     C37049  -0.053   2.421   3.346  0.9112  0.0862  0.1307
  275MOL0     C37050  -0.182   2.494   3.291 -0.0461 -0.8096 -0.1018
  275MOL0     C37051  -0.280   2.517   3.406  0.4439 -0.9669 -0.5302
  275MOL0     C37052  -0.393   2.616   3.381  0.0311  0.3547  0.8633
  275MOL0     C37053  -0.342   2.746   3.340  0.4447 -0.4689  0.1009
  275MOL0     C37054  -0.299   2.858   3.318 -0.2177  0.4082 -0.4008
  275MOL0     C37055   0.206   2.339   3.449  0.4151  0.0586  0.4920
  275MOL0     C37056   0.333   2.312   3.503  0.5064  0.9725  1.2371
  275MOL0     C37057   0.378   2.172   3.502 -0.5562  0.3531  0.4675
  275MOL0     H37058   0.723   2.484   3.843  1.1507  2.1247 -0.5200
  275MOL0     H37059   0.955   2.428   3.912  0.7566  0.0143 -0.2672
  275MOL0     H37060   1.291   2.342   3.613  1.0047  0.8997  0.5019
  275MOL0     H37061   1.224   2.501   3.601 -4.9573 -2.0239 -0.1617
  275MOL0     H37062   1.470   2.479   3.707  0.5867  1.6197  0.6493
  275MOL0     H37063   1.376   2.424   3.847 -2.3793 -0.4482 -0.2369
  275MOL0     H37064   1.255   2.656   3.817  0.2591  1.8276 -2.5219
  275MOL0     H37065   1.396   2.697   3.722 -0.4867 -1.9650 -1.7111
  275MOL0     H37066   1.399   2.621   4.019 -2.4834 -1.9250 -1.3854
  275MOL0     H37067   1.537   2.682   3.926  0.1676  2.5978  0.5459
  275MOL0     H37068   1.420   2.885   3.863  2.3773 -3.9316 -1.9803
  275MOL0     H37069   1.289   2.852   3.980 -0.0641  0.7402 -1.5638
  275MOL0     H37070   1.466   2.870   4.151  0.8130  2.3470 -0.8189
  275MOL0     H37071   1.592   2.900   4.030  1.0927  0.1008  0.3272
  275MOL0     H37072   1.367   3.095   4.112  0.5049  1.1322  0.2026
  275MOL0     H37073   1.479   3.128   3.979  0.1038 -5.1053 -3.2234
  275MOL0     H37074   1.573   3.064   4.257  1.6123 -1.9859 -0.9184
  275MOL0     H37075   1.666   3.110   4.130 -0.4507  1.0191 -3.0561
  275MOL0     H37076   1.667   3.375   4.057 -2.1706  1.6630 -1.4168
  275MOL0     H37077   1.718   3.608   4.131  0.1540 -0.1789  1.1675
  275MOL0     H37078   1.553   3.663   4.087  1.5233  3.4954  0.1577
  275MOL0     H37079   1.672   3.812   4.258 -0.5888  0.2074  1.6467
  275MOL0     H37080   1.524   3.755   4.327 -0.2499 -1.1141  1.4363
  275MOL0     H37081   1.762   3.579   4.383 -2.3991 -1.5741  0.8676
  275MOL0     H37082   1.636   3.630   4.476  1.2861  0.5710  2.0079
  275MOL0     H37083   1.855   3.838   4.405 -0.4423  0.1288 -0.5637
  275MOL0     H37084   1.844   3.720   4.543  0.7155 -0.9682 -1.6859
  275MOL0     H37085   1.978   3.954   4.578  1.2591 -1.3031  1.6597
  275MOL0     H37086   2.061   4.089   4.758 -0.7071  0.8391  0.3152
  275MOL0     H37087   1.708   4.515   5.065  1.1573  0.3915 -1.1013
  275MOL0     H37088   1.694   4.625   5.270 -0.6157  0.6416 -2.2113
  275MOL0     H37089   1.824   4.764   5.472  0.1387  1.2910  1.5432
  275MOL0     H37090   1.668   4.671   5.499  0.1307 -0.6578  0.1295
  275MOL0     H37091   1.854   4.730   5.717 -0.4375  0.6718  0.4609
  275MOL0     H37092   1.740   4.855   5.664  0.7782  1.3640  1.1751
  275MOL0     H37093   1.556   4.712   5.713 -0.4758  1.5707  0.0160
  275MOL0     H37094   1.663   4.569   5.757  3.1364  0.3007  0.2883
  275MOL0     H37095   1.651   4.826   5.888 -0.8671 -0.0826  1.4372
  275MOL0     H37096   1.762   4.690   5.933 -2.2718 -0.3782  4.8778
  275MOL0     H37097   1.590   4.549   6.000  1.6316  0.2819 -0.8468
  275MOL0     H37098   1.466   4.662   5.928  0.3972  0.2050 -1.6679
  275MOL0     H37099   1.651   4.722   6.175 -1.0532  0.3792  0.8996
  275MOL0     H37100   1.536   4.836   6.091  1.2565  0.8760 -0.9365
  275MOL0     H37101   1.456   4.576   6.228  0.1353 -0.6217 -0.0849
  275MOL0     H37102   1.361   4.704   6.141  1.0211  1.0228 -2.0102
  275MOL0     H37103   1.501   4.774   6.387 -0.4436 -0.7615  0.4736
  275MOL0     H37104   1.410   4.877   6.280 -1.3063 -0.4937 -2.5209
  275MOL0     H37105   1.986   4.349   5.450 -0.5135  1.2703  0.9139
  275MOL0     H37106   1.994   4.237   5.246  1.6214  1.7798  2.0781
  275MOL0     H37107   1.658   4.196   4.871 -0.6178  1.5564 -1.0523
  275MOL0     H37108   1.572   4.032   4.691 -0.5067  0.7244 -0.2819
  275MOL0     H37109   1.066   2.398   3.495  1.3389  0.6376  0.4170
  275MOL0     H37110   0.835   2.442   3.426 -0.0617  1.5035 -0.4141
  275MOL0     H37111   0.446   2.633   3.531 -0.5569  0.4910 -1.2014
  275MOL0     H37112   0.238   2.681   3.431 -0.6983  0.2674 -1.0567
  275MOL0     H37113  -0.073   2.352   3.428  0.6565  0.0303  0.0203
  275MOL0     H37114  -0.018   2.352   3.269  1.5066  0.7474 -0.2039
  275MOL0     H37115  -0.235   2.449   3.207  0.3820 -1.9862  0.2443
  275MOL0     H37116  -0.145   2.593   3.261  1.8403 -1.1860  0.8081
  275MOL0     H37117  -0.214   2.552   3.486  0.6431 -0.8457 -0.7460
  275MOL0     H37118  -0.313   2.420   3.444 -1.8292  0.5976  1.8516
  275MOL0     H37119  -0.449   2.570   3.299 -0.0642 -1.4991  1.9222
  275MOL0     H37120  -0.465   2.618   3.463  1.8304 -3.0250  2.7609
  275MOL0     H37121  -0.248   2.950   3.296 -0.3469  0.4574 -0.4975
  275MOL0     H37122   0.129   2.263   3.435 -1.9206  2.0950  1.5100
  275MOL0     H37123   0.458   2.154   3.430 -0.4592 -3.6483  1.3002
  275MOL0     H37124   0.411   2.134   3.599 -2.3465 -1.2967  0.4989
  275MOL0     H37125   0.294   2.106   3.475  0.9899 -1.0233 -1.2052
  276MOL0     O37126  10.417   8.116   0.241 -0.2379  0.8292 -0.2612
  276MOL0     C37127  10.457   8.230   0.280  0.6486  0.1343 -0.2456
  276MOL0     O37128  10.370   8.327   0.315 -0.0324  0.1251  0.3610
  276MOL0     C37129  10.229   8.312   0.322 -0.5883  0.8825 -0.0444
  276MOL0     C37130  10.148   8.266   0.214 -1.4989  0.5343  0.0083
  276MOL0     C37131  10.009   8.257   0.239  0.5352  0.6514 -0.3519
  276MOL0     C37132   9.949   8.295   0.365 -0.0821  0.1540 -0.6293
  276MOL0     O37133   9.811   8.294   0.372 -0.2458 -0.8786 -0.1247
  276MOL0     C37134   9.749   8.336   0.496 -1.1550  0.1427  0.0192
  276MOL0     C37135   9.604   8.296   0.474  0.3602  0.4515 -0.2385
  276MOL0     C37136   9.532   8.369   0.367 -0.0753  0.7567  0.2474
  276MOL0     C37137   9.506   8.520   0.381 -0.1367  0.3561  0.4244
  276MOL0     C37138   9.455   8.572   0.503  0.9243 -0.0895 -0.3054
  276MOL0     C37139   9.306   8.522   0.519 -0.0350 -0.5185  0.1329
  276MOL0     C37140   9.230   8.615   0.606 -0.8573 -0.2610  0.5177
  276MOL0     C37141   9.276   8.626   0.749  0.6878  0.7538 -0.0795
  276MOL0     N37142   9.266   8.492   0.807  0.8235  0.1433  0.7473
  276MOL0     C37143   9.158   8.447   0.869 -0.7945 -0.1438  0.0601
  276MOL0     C37144   9.191   8.338   0.938 -0.4810 -0.0701  0.3019
  276MOL0     C37145   9.098   8.234   0.994  0.8483 -0.4161  0.1589
  276MOL0     C37146   8.984   8.177   0.906 -0.7405  0.3899  0.2330
  276MOL0     C37147   8.904   8.073   0.985  0.0291  0.1861 -0.9911
  276MOL0     C37148   8.758   8.046   0.936 -0.0961  0.1007 -1.3074
  276MOL0     O37149   8.679   7.999   1.051  0.4122  0.4267  0.9662
  276MOL0     C37150   8.591   8.078   1.111 -0.6851  0.7087  0.2604
  276MOL0     C37151   8.598   8.224   1.125 -0.2856 -0.0139 -0.3957
  276MOL0     C37152   8.512   8.300   1.205  0.6741 -0.4165  0.1675
  276MOL0     C37153   8.411   8.238   1.277 -0.1449 -0.3677  0.6456
  276MOL0     C37154   8.323   8.310   1.372  0.1108  0.0497 -0.1272
  276MOL0     O37155   8.339   8.446   1.389  0.4340  0.1341 -0.4826
  276MOL0     C37156   8.274   8.519   1.492  0.4327  0.6820  0.8164
  276MOL0     C37157   8.264   8.656   1.468  0.0013  0.0459 -0.6390
  276MOL0     C37158   8.201   8.740   1.562  1.2775  1.3591  0.2884
  276MOL0     C37159   8.160   8.694   1.685  0.5586  0.0714  0.1656
  276MOL0     O37160   8.113   8.785   1.775  0.5121  0.2653 -0.3837
  276MOL0     C37161   8.183   8.810   1.898 -0.6271  0.4496  0.2809
  276MOL0     C37162   8.318   8.880   1.867  1.0833 -0.2205  0.6870
  276MOL0     C37163   8.307   9.020   1.805  0.4791  0.6464  0.1970
  276MOL0     C37164   8.430   9.052   1.720  0.4104 -0.5398 -0.3215
  276MOL0     C37165   8.431   9.205   1.692 -1.0051 -0.0948 -0.4625
  276MOL0     C37166   8.512   9.234   1.570  0.3057  0.1600  0.5018
  276MOL0     C37167   8.522   9.389   1.532 -0.4072  0.7243  0.4335
  276MOL0     C37168   8.517   9.493   1.639  0.8725 -0.2435  0.0768
  276MOL0    Cl37169   8.666   9.515   1.724  0.4254  0.5032 -0.0622
  276MOL0     C37170   8.165   8.551   1.712 -0.0506  0.7082  0.1565
  276MOL0     C37171   8.218   8.469   1.608  0.8879  0.7101  0.9516
  276MOL0     O37172   8.238   8.236   1.428  0.6212 -0.0824 -0.0544
  276MOL0     C37173   8.400   8.096   1.260 -0.2184  0.3828  0.2409
  276MOL0     C37174   8.491   8.018   1.189  0.1802 -0.4190  0.6755
  276MOL0     N37175   9.332   8.327   0.923  0.0931  0.2643 -0.4285
  276MOL0     N37176   9.375   8.425   0.851  0.6659  0.2257  0.4151
  276MOL0     C37177  10.036   8.352   0.459  0.0115 -0.2502 -0.0127
  276MOL0     C37178  10.174   8.347   0.445 -0.6190 -0.1902  1.0266
  276MOL0     C37179  10.601   8.259   0.263 -0.4541 -0.4066 -0.3245
  276MOL0     C37180  10.694   8.159   0.218 -0.9089  0.0047  0.6000
  276MOL0     C37181  10.831   8.185   0.195  0.5634  0.2200 -0.9611
  276MOL0     C37182  10.882   8.307   0.221 -0.0492 -1.2508 -0.1819
  276MOL0     O37183  11.012   8.348   0.235 -0.5647 -0.1955  0.9419
  276MOL0     C37184  11.103   8.239   0.249  1.5259  0.6802  0.4489
  276MOL0     C37185  11.228   8.275   0.313  0.5813 -0.6836 -0.0847
  276MOL0     C37186  11.337   8.168   0.347 -0.4011  1.0361 -0.3241
  276MOL0     C37187  11.466   8.216   0.417  0.3505  1.1398 -0.5733
  276MOL0     C37188  11.510   8.348   0.377  0.3522  0.1082 -0.2903
  276MOL0     C37189  11.557   8.457   0.356 -0.0512 -0.1121 -0.6062
  276MOL0     C37190  10.792   8.411   0.263 -0.3644 -0.4055  0.0332
  276MOL0     C37191  10.650   8.392   0.274  0.5873 -1.2147  0.4496
  276MOL0     C37192  10.577   8.529   0.298 -0.1035  0.2771  0.2503
  276MOL0     H37193  10.208   8.235   0.129 -1.1295  0.5798  0.2486
  276MOL0     H37194   9.958   8.206   0.158  1.2373 -0.4128 -0.1331
  276MOL0     H37195   9.795   8.286   0.582  0.2110 -1.3335 -1.5164
  276MOL0     H37196   9.756   8.444   0.515 -3.4533  0.5803 -1.2922
  276MOL0     H37197   9.551   8.328   0.564  0.9231  0.9125 -0.0648
  276MOL0     H37198   9.590   8.189   0.456 -3.1387  1.2485 -3.5680
  276MOL0     H37199   9.442   8.309   0.350  1.4459 -1.2057 -1.5268
  276MOL0     H37200   9.596   8.370   0.278  1.1923  1.4993  1.1395
  276MOL0     H37201   9.598   8.576   0.361 -0.6718  0.6169 -1.4623
  276MOL0     H37202   9.445   8.544   0.293  1.1754 -0.2555 -0.6868
  276MOL0     H37203   9.522   8.554   0.587  1.6931  0.1902 -0.8513
  276MOL0     H37204   9.453   8.678   0.477 -0.8109 -0.4409 -1.8432
  276MOL0     H37205   9.249   8.524   0.426 -0.8974 -0.9489  0.6431
  276MOL0     H37206   9.298   8.421   0.560 -3.8493 -0.7372 -0.7965
  276MOL0     H37207   9.126   8.581   0.603 -1.4915  1.5689  0.5556
  276MOL0     H37208   9.236   8.717   0.567  1.6994  0.1380  1.7281
  276MOL0     H37209   9.379   8.665   0.753  0.5504  1.3805 -1.6949
  276MOL0     H37210   9.218   8.699   0.806 -3.1514 -1.6845 -0.5659
  276MOL0     H37211   9.056   8.483   0.860 -0.4114  1.7256  2.3229
  276MOL0     H37212   9.155   8.160   1.052 -1.3091 -1.6561  0.8316
  276MOL0     H37213   9.052   8.294   1.074  1.2984  1.3468 -0.8694
  276MOL0     H37214   8.919   8.261   0.881 -0.7364 -0.2037 -2.0529
  276MOL0     H37215   9.033   8.127   0.821  1.1146  0.3521  1.2849
  276MOL0     H37216   8.897   8.125   1.081 -0.1835  0.5062 -1.1778
  276MOL0     H37217   8.958   7.978   0.989 -1.7160 -0.8270 -0.1910
  276MOL0     H37218   8.756   7.956   0.874 -1.8051 -0.5240 -0.4164
  276MOL0     H37219   8.707   8.123   0.877 -0.9509 -0.7802 -1.7573
  276MOL0     H37220   8.686   8.265   1.077  0.7422  1.4840  2.4755
  276MOL0     H37221   8.526   8.407   1.211  0.7781 -0.3033 -1.6604
  276MOL0     H37222   8.283   8.698   1.370 -2.1332  2.1607 -0.2325
  276MOL0     H37223   8.198   8.842   1.527  1.0742  0.7646 -1.5466
  276MOL0     H37224   8.126   8.873   1.967  1.9820  1.4957  1.6179
  276MOL0     H37225   8.215   8.721   1.953  2.9682 -0.4516 -2.8113
  276MOL0     H37226   8.370   8.900   1.961 -0.2794  1.4667  1.1240
  276MOL0     H37227   8.384   8.816   1.807 -1.0429 -2.3609  0.4509
  276MOL0     H37228   8.215   9.025   1.746  0.2064  1.5698  0.6852
  276MOL0     H37229   8.298   9.097   1.882 -2.7371  0.1275  0.4986
  276MOL0     H37230   8.419   9.010   1.619 -0.5260  1.6353 -1.2039
  276MOL0     H37231   8.520   9.006   1.761 -0.9443 -2.1776  0.9343
  276MOL0     H37232   8.463   9.264   1.779 -3.6723 -0.8748  1.1752
  276MOL0     H37233   8.327   9.238   1.685 -0.9033  1.0446  2.1757
  276MOL0     H37234   8.613   9.202   1.596  0.5880  1.0164  0.5084
  276MOL0     H37235   8.478   9.177   1.483  0.6940 -0.2777  0.6308
  276MOL0     H37236   8.443   9.403   1.458  0.3155 -0.3179 -0.5697
  276MOL0     H37237   8.617   9.409   1.482 -1.7592  0.2367 -2.5392
  276MOL0     H37238   8.488   9.584   1.585 -1.5347 -1.5448 -0.9484
  276MOL0     H37239   8.441   9.470   1.714  1.0229  3.9528  1.7644
  276MOL0     H37240   8.129   8.503   1.803 -1.0356  2.0840  0.5334
  276MOL0     H37241   8.215   8.361   1.617 -1.4049  0.8680  2.9215
  276MOL0     H37242   8.318   8.050   1.315 -3.1335  0.3439 -3.6539
  276MOL0     H37243   8.459   7.914   1.197 -3.8437  0.6252  0.4699
  276MOL0     H37244  10.004   8.391   0.555  3.2610  2.1611  0.2581
  276MOL0     H37245  10.252   8.395   0.505 -0.0700 -1.6708  1.5454
  276MOL0     H37246  10.654   8.060   0.198  1.5641 -1.6164  3.0129
  276MOL0     H37247  10.896   8.101   0.176  2.4078  1.1438  0.8921
  276MOL0     H37248  11.131   8.209   0.147 -1.4974 -0.9402 -0.0316
  276MOL0     H37249  11.066   8.154   0.306  2.4430 -2.1033 -2.7912
  276MOL0     H37250  11.202   8.320   0.409  3.1131 -0.9062  0.7779
  276MOL0     H37251  11.278   8.351   0.252  5.8845 -3.3775  0.2939
  276MOL0     H37252  11.373   8.113   0.260  0.7546  2.0555 -0.5141
  276MOL0     H37253  11.296   8.099   0.422  0.2694 -0.5794 -1.4080
  276MOL0     H37254  11.446   8.225   0.525 -0.0348  5.0282 -0.8350
  276MOL0     H37255  11.550   8.152   0.388 -0.3017 -0.7902  1.4786
  276MOL0     H37256  11.615   8.544   0.331 -0.2222 -0.0301 -0.7222
  276MOL0     H37257  10.839   8.507   0.280 -0.6675 -0.0771 -0.8745
  276MOL0     H37258  10.570   8.552   0.404  1.1234  2.8402 -0.1557
  276MOL0     H37259  10.626   8.608   0.241  2.4669 -1.8554 -0.7245
  276MOL0     H37260  10.478   8.533   0.251 -0.5005 -1.8775  0.7940
  277MOL0     O37261   1.424   4.185   5.729 -0.8286 -1.4224  0.3973
  277MOL0     C37262   1.471   4.073   5.731 -0.0653  1.3915  0.3048
  277MOL0     O37263   1.432   3.975   5.819 -0.5013 -0.6878 -0.2527
  277MOL0     C37264   1.338   4.005   5.912 -0.1765  0.9153 -0.0537
  277MOL0     C37265   1.346   4.078   6.025 -0.2335 -0.2119  0.0790
  277MOL0     C37266   1.243   4.090   6.118  0.4485  0.2537  1.0886
  277MOL0     C37267   1.120   4.034   6.102  0.7216 -0.2645  0.3921
  277MOL0     O37268   1.023   4.066   6.198  0.1433 -0.0052  0.7920
  277MOL0     C37269   0.888   4.083   6.146  0.1323  0.8037  0.0320
  277MOL0     C37270   0.792   4.147   6.249  0.9265 -0.8282  0.1341
  277MOL0     C37271   0.654   4.187   6.191 -0.5680 -0.1372 -0.1440
  277MOL0     C37272   0.565   4.060   6.167 -0.8111 -0.4256 -0.4922
  277MOL0     C37273   0.433   4.093   6.103  0.8574  0.5193 -0.6019
  277MOL0     C37274   0.358   3.967   6.080 -0.3170 -0.3246  0.2473
  277MOL0     C37275   0.297   3.907   6.215 -0.4600 -0.8340  1.3365
  277MOL0     C37276   0.182   3.809   6.184  0.2534  0.9683  1.2500
  277MOL0     N37277   0.049   3.881   6.173 -0.9983  0.0999 -0.1323
  277MOL0     C37278   0.000   3.966   6.079 -0.7539 -0.4548 -0.2004
  277MOL0     C37279  -0.135   3.970   6.082 -0.6210  0.1213  0.1711
  277MOL0     C37280  -0.226   4.039   5.993  0.5070  0.5212 -0.2256
  277MOL0     C37281  -0.346   3.945   5.956  1.0013 -0.0818 -0.1768
  277MOL0     C37282  -0.303   3.802   5.906 -0.1627 -0.2761 -0.4569
  277MOL0     C37283  -0.294   3.807   5.747  0.9720 -0.1652  0.4063
  277MOL0     O37284  -0.188   3.891   5.708  0.5931  1.1303  0.4197
  277MOL0     C37285  -0.060   3.852   5.727 -0.0068  0.0221  0.2198
  277MOL0     C37286  -0.019   3.720   5.753 -0.1384  0.1619  0.1558
  277MOL0     C37287   0.113   3.674   5.765  0.0866  0.2503 -0.8355
  277MOL0     C37288   0.213   3.768   5.754 -0.9661 -0.1104  0.9677
  277MOL0     C37289   0.352   3.725   5.743 -0.1795 -0.4992 -0.0918
  277MOL0     O37290   0.445   3.818   5.763  0.0220  0.0269 -0.1434
  277MOL0     C37291   0.571   3.797   5.695  0.3742  0.7521 -0.3972
  277MOL0     C37292   0.691   3.823   5.759 -0.2752 -0.3416 -0.0976
  277MOL0     C37293   0.810   3.824   5.691 -0.1128 -0.1152  0.4038
  277MOL0     C37294   0.820   3.798   5.553  0.5516  0.1129  0.1687
  277MOL0     O37295   0.926   3.816   5.467 -0.8838  0.2774  0.2133
  277MOL0     C37296   1.035   3.897   5.521  0.8001  0.4222 -0.5002
  277MOL0     C37297   1.150   3.926   5.425  0.0258  0.4340  0.4022
  277MOL0     C37298   1.239   3.799   5.391  1.3593 -0.6773 -0.3097
  277MOL0     C37299   1.173   3.711   5.277  0.1435 -0.9772 -0.8526
  277MOL0     C37300   1.242   3.582   5.251  0.2305 -0.2510 -0.2534
  277MOL0     C37301   1.385   3.586   5.191  0.0952 -0.5812  0.5538
  277MOL0     C37302   1.448   3.450   5.175  0.7837  0.0241  0.4278
  277MOL0     C37303   1.460   3.368   5.300  0.5342 -1.4428 -0.5115
  277MOL0    Cl37304   1.532   3.216   5.247 -0.0776  0.7074  0.4233
  277MOL0     C37305   0.704   3.771   5.482 -0.5099 -0.1022  0.2711
  277MOL0     C37306   0.580   3.769   5.549  0.1792 -0.6811  0.0717
  277MOL0     O37307   0.374   3.605   5.725  0.3640  0.3753  0.1482
  277MOL0     C37308   0.173   3.900   5.738  0.0650 -0.1935  0.3112
  277MOL0     C37309   0.039   3.944   5.717  0.5008  0.6674  0.3133
  277MOL0     N37310  -0.165   3.903   6.200 -0.0273  0.6321  0.0164
  277MOL0     N37311  -0.054   3.855   6.256  0.0745 -0.3888 -0.4778
  277MOL0     C37312   1.109   3.956   5.985  0.7150 -0.2683  0.2250
  277MOL0     C37313   1.205   3.943   5.890  0.6537  0.3011 -0.2284
  277MOL0     C37314   1.576   4.029   5.638 -1.5544 -0.1180 -0.7916
  277MOL0     C37315   1.572   3.894   5.607  0.2104  0.3053 -0.6286
  277MOL0     C37316   1.662   3.838   5.516  0.8330 -0.0155 -0.6570
  277MOL0     C37317   1.754   3.916   5.455  0.5472 -0.2083  0.7467
  277MOL0     O37318   1.840   3.863   5.365  0.6484  0.6127  0.7000
  277MOL0     C37319   1.882   3.945   5.255 -0.5398  0.3346 -0.3623
  277MOL0     C37320   1.935   3.859   5.129  0.3016  0.6092 -0.4145
  277MOL0     C37321   1.827   3.765   5.065 -0.4815  0.1847  0.3608
  277MOL0     C37322   1.783   3.642   5.152 -0.5370  0.3089  0.5607
  277MOL0     C37323   1.901   3.550   5.171  0.3702 -0.6700 -0.5560
  277MOL0     C37324   1.992   3.468   5.176  0.7594  0.3385 -0.1439
  277MOL0     C37325   1.756   4.048   5.490  0.2427  0.0880 -0.2040
  277MOL0     C37326   1.682   4.108   5.592  0.3452  0.1935  0.3783
  277MOL0     C37327   1.728   4.243   5.654  0.7560  0.5154  0.8606
  277MOL0     H37328   1.443   4.116   6.053 -0.1531 -0.4038  0.0640
  277MOL0     H37329   1.248   4.141   6.213  2.2292 -0.3712  1.3639
  277MOL0     H37330   0.902   4.143   6.056 -0.2328 -1.1049 -1.3424
  277MOL0     H37331   0.850   3.986   6.113 -0.7579  1.5751 -1.3034
  277MOL0     H37332   0.843   4.233   6.293 -0.1749 -0.5243  0.8568
  277MOL0     H37333   0.775   4.074   6.328 -1.0446  2.5868  3.1548
  277MOL0     H37334   0.666   4.244   6.099  0.8722 -0.9222 -0.4703
  277MOL0     H37335   0.592   4.245   6.260  2.1286  1.6458  0.9300
  277MOL0     H37336   0.616   3.991   6.099  0.6163 -1.0925  1.1738
  277MOL0     H37337   0.553   4.015   6.266 -0.8776 -0.1808 -0.3887
  277MOL0     H37338   0.384   4.156   6.179  0.1227 -0.8115  0.0666
  277MOL0     H37339   0.450   4.154   6.014  0.4962  1.5651  0.0272
  277MOL0     H37340   0.270   3.991   6.020 -0.5976  0.0879  0.8133
  277MOL0     H37341   0.421   3.890   6.034 -2.2785 -3.6119  2.6155
  277MOL0     H37342   0.272   3.987   6.286  1.9178  1.1037  0.1522
  277MOL0     H37343   0.383   3.851   6.252  1.2466 -1.0409 -2.5104
  277MOL0     H37344   0.200   3.765   6.085 -0.1408 -0.0855  1.6313
  277MOL0     H37345   0.179   3.731   6.260 -0.3458 -2.5945 -2.0616
  277MOL0     H37346   0.058   4.007   5.997  0.7704  1.7373  1.8346
  277MOL0     H37347  -0.254   4.130   6.046 -2.9564 -0.1728 -0.5968
  277MOL0     H37348  -0.183   4.059   5.894  0.0806  0.8897 -0.3420
  277MOL0     H37349  -0.402   3.923   6.047  1.4565 -2.9658 -0.4872
  277MOL0     H37350  -0.414   3.991   5.884 -0.4211 -0.9871  0.5379
  277MOL0     H37351  -0.362   3.714   5.937  0.8818 -0.0880  2.3610
  277MOL0     H37352  -0.202   3.784   5.944 -0.3027  0.1426  0.1226
  277MOL0     H37353  -0.389   3.843   5.706 -0.5119 -2.5550  1.5403
  277MOL0     H37354  -0.296   3.708   5.701 -2.6306 -0.1314  0.1647
  277MOL0     H37355  -0.099   3.647   5.748 -3.1471  2.9745  2.3451
  277MOL0     H37356   0.116   3.566   5.772 -1.1833  0.2886  1.0851
  277MOL0     H37357   0.686   3.854   5.863 -0.1647  0.1472 -0.2372
  277MOL0     H37358   0.895   3.853   5.753  0.9533 -0.4986 -0.8271
  277MOL0     H37359   0.994   3.989   5.564 -2.7838 -0.9600 -0.6242
  277MOL0     H37360   1.075   3.837   5.604  0.7439 -0.7053 -1.2595
  277MOL0     H37361   1.116   3.965   5.328 -3.9626 -2.5984  0.3114
  277MOL0     H37362   1.217   4.000   5.469  1.6099  0.8278 -2.4107
  277MOL0     H37363   1.340   3.827   5.363  1.7019 -0.8475  0.6964
  277MOL0     H37364   1.240   3.741   5.484  1.2733  2.5214  1.8398
  277MOL0     H37365   1.172   3.772   5.186  1.0141 -0.1532 -0.3222
  277MOL0     H37366   1.074   3.678   5.311  2.0387 -3.7334  2.6684
  277MOL0     H37367   1.181   3.531   5.175 -2.7723  3.1542 -0.3774
  277MOL0     H37368   1.242   3.524   5.344  0.5475 -2.4209 -1.5266
  277MOL0     H37369   1.381   3.641   5.096 -1.3765  0.4865  1.1836
  277MOL0     H37370   1.451   3.644   5.256 -2.1367  0.2660  2.2350
  277MOL0     H37371   1.545   3.438   5.126  1.4983 -3.1639  2.3044
  277MOL0     H37372   1.381   3.388   5.115  0.6650 -0.2152  0.7993
  277MOL0     H37373   1.541   3.409   5.362  0.3012 -3.5569  1.3233
  277MOL0     H37374   1.368   3.347   5.356 -0.3377  0.0108 -1.3558
  277MOL0     H37375   0.719   3.748   5.377 -0.0761  1.4141 -0.0375
  277MOL0     H37376   0.507   3.744   5.473  0.5416  0.4909 -0.6955
  277MOL0     H37377   0.241   3.984   5.729  0.5308 -0.5362  0.5566
  277MOL0     H37378   0.018   4.047   5.694  1.6392  1.3166  1.9730
  277MOL0     H37379   1.009   3.915   5.973  0.8493 -1.4998  2.6751
  277MOL0     H37380   1.186   3.878   5.805 -3.1219  1.7705 -0.6880
  277MOL0     H37381   1.510   3.824   5.661 -0.2617  2.9763  2.6139
  277MOL0     H37382   1.647   3.732   5.495  0.1967  0.0825 -0.7100
  277MOL0     H37383   1.968   4.009   5.275 -0.0918 -0.4104  0.1809
  277MOL0     H37384   1.814   4.026   5.228  1.4834  1.4507 -2.5250
  277MOL0     H37385   2.020   3.803   5.169 -0.6676 -0.0432  0.8037
  277MOL0     H37386   1.970   3.920   5.045 -3.8008 -0.6452 -3.3101
  277MOL0     H37387   1.861   3.719   4.972 -0.8123 -2.9578  1.6821
  277MOL0     H37388   1.744   3.832   5.040 -1.1822 -0.5772  0.6145
  277MOL0     H37389   1.738   3.672   5.247 -1.7669 -1.5384  0.6345
  277MOL0     H37390   1.718   3.575   5.094 -1.5373  0.9246  0.9553
  277MOL0     H37391   2.059   3.385   5.181  0.6511  0.3005  3.7375
  277MOL0     H37392   1.831   4.109   5.441 -0.2818 -1.9114 -3.8133
  277MOL0     H37393   1.759   4.226   5.757 -0.6105 -1.3958  1.0121
  277MOL0     H37394   1.805   4.279   5.585  1.1967 -2.3589 -0.3253
  277MOL0     H37395   1.640   4.307   5.667  0.4004  0.2759 -0.2462
  278MOL0     O37396  11.405   2.244   1.174  0.5971 -0.4480 -0.3968
  278MOL0     C37397  11.348   2.352   1.174 -0.9261 -0.7209 -0.4571
  278MOL0     O37398  11.405   2.481   1.190  0.4582 -0.0445 -0.1055
  278MOL0     C37399  11.536   2.481   1.226 -0.0174 -0.3786  0.0235
  278MOL0     C37400  11.632   2.524   1.139  1.0467 -0.4661  0.0114
  278MOL0     C37401  11.766   2.533   1.174 -0.5465 -1.0269  0.1301
  278MOL0     C37402  11.809   2.493   1.303 -0.2719  0.1383  0.6278
  278MOL0     O37403  11.940   2.495   1.342  0.3887  0.5213  0.5121
  278MOL0     C37404  12.044   2.450   1.255 -1.1043 -0.1321 -0.2794
  278MOL0     C37405  12.130   2.568   1.227  1.0147 -1.0299  0.4604
  278MOL0     C37406  12.223   2.604   1.346  0.4679 -0.1521 -0.5515
  278MOL0     C37407  12.315   2.733   1.315 -0.2814  0.5783  0.0481
  278MOL0     C37408  12.438   2.738   1.405 -0.0920 -0.1740  0.2947
  278MOL0     C37409  12.510   2.875   1.390  0.1335 -0.4467 -0.7294
  278MOL0     C37410  12.626   2.880   1.498  0.2818  0.4857  0.5263
  278MOL0     C37411  12.739   2.990   1.487 -0.6321  0.1830 -0.0202
  278MOL0     N37412  12.800   2.991   1.354 -0.1899  0.3856  0.2077
  278MOL0     C37413  12.889   2.900   1.294  0.8887 -0.4692  0.0150
  278MOL0     C37414  12.926   2.961   1.179 -0.5277  0.5083 -1.0346
  278MOL0     C37415  13.010   2.880   1.079  0.2147  0.5195 -0.7823
  278MOL0     C37416  12.925   2.762   1.030  0.5873 -0.1309 -0.6216
  278MOL0     C37417  12.830   2.795   0.902 -0.2615 -0.4868 -1.1506
  278MOL0     C37418  12.722   2.888   0.953 -0.5377 -0.5671 -0.0141
  278MOL0     O37419  12.604   2.899   0.867  0.3710  0.3947  0.2806
  278MOL0     C37420  12.490   2.942   0.913 -0.0448  0.2728 -1.6479
  278MOL0     C37421  12.380   2.865   0.858 -0.1081  0.7540  0.6401
  278MOL0     C37422  12.254   2.867   0.926  0.4181 -0.5019  1.4288
  278MOL0     C37423  12.229   2.966   1.032  0.5612 -0.0965  0.5242
  278MOL0     C37424  12.086   2.985   1.083 -0.9608 -0.1004  0.9862
  278MOL0     O37425  11.997   2.877   1.073 -0.3025  0.1132  0.3007
  278MOL0     C37426  11.880   2.874   1.142 -0.3732  0.4426  0.2805
  278MOL0     C37427  11.880   2.868   1.286  0.1628 -0.7329 -0.2889
  278MOL0     C37428  11.753   2.864   1.353 -0.7012 -0.6760  0.2652
  278MOL0     C37429  11.631   2.860   1.293  0.1547  0.6580  0.2257
  278MOL0     O37430  11.523   2.837   1.373  0.0152 -0.1874 -0.1772
  278MOL0     C37431  11.398   2.791   1.314 -0.0333  0.2778 -0.1682
  278MOL0     C37432  11.320   2.925   1.279  0.9711  0.2379  0.4871
  278MOL0     C37433  11.185   2.876   1.218 -0.1095 -0.0113  0.2052
  278MOL0     C37434  11.132   2.967   1.111 -0.3847 -0.7168 -0.0229
  278MOL0     C37435  11.011   2.906   1.038  0.2702  0.6388 -0.5655
  278MOL0     C37436  10.973   2.985   0.907  0.2810  0.4192  0.6153
  278MOL0     C37437  10.985   3.129   0.924  0.3216 -1.1154 -0.7871
  278MOL0     C37438  10.903   3.189   0.804 -0.2200 -0.6424  0.8382
  278MOL0    Cl37439  10.727   3.183   0.836 -0.0390  0.1343  0.3606
  278MOL0     C37440  11.630   2.850   1.151  0.4742 -0.5034  0.4219
  278MOL0     C37441  11.756   2.864   1.082 -0.1059  0.2206  0.5751
  278MOL0     O37442  12.055   3.092   1.122 -0.0986 -0.0502 -0.7940
  278MOL0     C37443  12.338   3.032   1.087 -1.3304 -0.1683 -0.4816
  278MOL0     C37444  12.464   3.017   1.036  0.1205 -0.0108  0.4881
  278MOL0     N37445  12.864   3.081   1.170  0.4685 -0.2076 -0.9417
  278MOL0     N37446  12.791   3.099   1.273  0.4274 -0.0416 -0.1147
  278MOL0     C37447  11.711   2.462   1.397  0.2299  0.2022  0.3214
  278MOL0     C37448  11.578   2.454   1.355  0.3004  0.0756  0.3802
  278MOL0     C37449  11.212   2.358   1.118  0.7309 -0.0632 -0.0985
  278MOL0     C37450  11.121   2.437   1.191  0.1381 -0.0657 -0.0738
  278MOL0     C37451  10.997   2.468   1.153  0.1425 -0.1603 -0.1017
  278MOL0     C37452  10.940   2.408   1.035 -0.2229 -0.3114  0.1516
  278MOL0     O37453  10.817   2.415   0.977 -0.0688  0.2098  0.6653
  278MOL0     C37454  10.717   2.475   1.067  0.8253  0.1954 -0.2118
  278MOL0     C37455  10.712   2.622   1.057  0.0188 -1.7239 -0.4753
  278MOL0     C37456  10.604   2.676   0.967  0.1522  0.2260 -0.0882
  278MOL0     C37457  10.609   2.822   0.951  0.0067  0.7814  0.3188
  278MOL0     C37458  10.494   2.881   0.886  0.3216  0.6939  0.2059
  278MOL0     C37459  10.396   2.939   0.846 -0.3381 -0.0409  0.9416
  278MOL0     C37460  11.029   2.315   0.964 -0.3983  0.9712 -0.7383
  278MOL0     C37461  11.162   2.289   1.008  0.7796  0.5679 -0.2725
  278MOL0     C37462  11.247   2.195   0.936  0.7029  0.0728 -0.2743
  278MOL0     H37463  11.590   2.538   1.040 -2.0148 -0.7878  1.1700
  278MOL0     H37464  11.839   2.562   1.099 -1.4947 -0.0518 -0.4351
  278MOL0     H37465  12.109   2.378   1.307  0.3925  1.2501 -0.1339
  278MOL0     H37466  11.997   2.404   1.168 -2.0238 -1.5343  0.9248
  278MOL0     H37467  12.064   2.648   1.192  1.8833 -1.6283 -2.9482
  278MOL0     H37468  12.190   2.542   1.139 -1.3264 -0.6803 -1.3608
  278MOL0     H37469  12.289   2.520   1.369 -0.9589 -1.0174  0.5079
  278MOL0     H37470  12.163   2.634   1.432  1.7168  2.2079 -0.4317
  278MOL0     H37471  12.347   2.724   1.210 -2.2082  1.6509 -0.6780
  278MOL0     H37472  12.249   2.820   1.314 -2.7068 -1.1626 -1.7577
  278MOL0     H37473  12.409   2.709   1.506  0.3003  0.3716  0.5714
  278MOL0     H37474  12.508   2.657   1.387 -0.7108 -1.0188  1.5148
  278MOL0     H37475  12.554   2.877   1.291  2.2527  1.2594  0.1667
  278MOL0     H37476  12.446   2.962   1.407  1.9579  0.9372 -0.7181
  278MOL0     H37477  12.677   2.784   1.486  0.2005  0.5061  0.0080
  278MOL0     H37478  12.570   2.896   1.591 -2.9195  2.0274 -1.5212
  278MOL0     H37479  12.685   3.079   1.518 -3.4288 -0.6142 -2.2015
  278MOL0     H37480  12.820   2.977   1.560 -1.3862  1.6193  1.1229
  278MOL0     H37481  12.913   2.801   1.333  2.3749 -0.1087  0.0766
  278MOL0     H37482  13.045   2.938   0.992 -3.5192 -0.1034 -2.9178
  278MOL0     H37483  13.083   2.826   1.140 -2.6729 -2.3929  0.4167
  278MOL0     H37484  12.990   2.678   1.005 -1.6480 -1.8202 -1.1341
  278MOL0     H37485  12.855   2.721   1.103 -0.7103 -0.1819 -1.8544
  278MOL0     H37486  12.778   2.704   0.870 -0.7051 -0.7835  0.3430
  278MOL0     H37487  12.889   2.836   0.820  1.0473  0.8703  0.3999
  278MOL0     H37488  12.764   2.985   0.978 -1.9809 -0.1774  1.0241
  278MOL0     H37489  12.680   2.849   1.046  0.1817  1.9982  1.4647
  278MOL0     H37490  12.397   2.806   0.769 -1.5979  3.1835 -1.4005
  278MOL0     H37491  12.171   2.813   0.881 -0.7714  3.3378 -1.4924
  278MOL0     H37492  11.973   2.878   1.339  0.7567 -0.1726 -1.4105
  278MOL0     H37493  11.758   2.854   1.461  0.0131  0.6972  0.3856
  278MOL0     H37494  11.407   2.725   1.227 -2.9619  0.1083 -0.4363
  278MOL0     H37495  11.342   2.730   1.385  1.6529 -0.3395  0.6967
  278MOL0     H37496  11.298   2.980   1.371 -1.1766  1.2785 -0.5692
  278MOL0     H37497  11.379   2.978   1.205 -0.4931 -0.3637 -1.1815
  278MOL0     H37498  11.204   2.779   1.172  0.5785  0.8846 -1.4734
  278MOL0     H37499  11.109   2.870   1.297  0.1726  3.1182  0.8805
  278MOL0     H37500  11.207   2.986   1.034 -4.3539  0.7149 -3.9401
  278MOL0     H37501  11.102   3.064   1.151  2.8463  0.0542  0.8358
  278MOL0     H37502  10.927   2.907   1.107  1.4306 -0.1201  0.9338
  278MOL0     H37503  11.039   2.808   0.998  1.0614  1.8292 -3.1837
  278MOL0     H37504  11.027   2.958   0.816 -0.7687  2.4398 -0.6697
  278MOL0     H37505  10.871   2.962   0.876  0.1222  0.2981  1.2122
  278MOL0     H37506  11.086   3.170   0.929 -1.5659  4.0498  4.0079
  278MOL0     H37507  10.935   3.165   1.014 -0.6494 -2.5690 -0.7129
  278MOL0     H37508  10.932   3.294   0.796  1.4978 -1.1467 -0.4553
  278MOL0     H37509  10.916   3.145   0.704 -2.3485 -2.3600  1.2529
  278MOL0     H37510  11.546   2.819   1.089  0.0129 -0.4526  1.0129
  278MOL0     H37511  11.760   2.867   0.973 -0.2771  1.5062  0.5831
  278MOL0     H37512  12.321   3.082   1.181 -2.5315  0.1605 -0.8504
  278MOL0     H37513  12.552   3.061   1.082  2.4117 -0.2661 -3.2355
  278MOL0     H37514  11.731   2.428   1.498 -2.2199 -2.4317  0.0481
  278MOL0     H37515  11.500   2.425   1.426  1.1949 -2.0133  0.5935
  278MOL0     H37516  11.156   2.478   1.286  2.8659 -2.1476 -0.0412
  278MOL0     H37517  10.931   2.528   1.214 -0.3185  0.5417 -1.2499
  278MOL0     H37518  10.738   2.439   1.168  1.6541  1.1333 -0.0372
  278MOL0     H37519  10.621   2.427   1.047  1.2778 -0.0277 -2.0302
  278MOL0     H37520  10.810   2.658   1.025  0.5590 -1.4224  1.4150
  278MOL0     H37521  10.682   2.662   1.154 -0.5216  0.6882 -1.5693
  278MOL0     H37522  10.518   2.638   1.021  0.6683 -1.1109 -0.1732
  278MOL0     H37523  10.610   2.628   0.869  2.3799  2.5107 -1.1983
  278MOL0     H37524  10.614   2.860   1.053 -0.5452 -0.0276  0.6568
  278MOL0     H37525  10.698   2.844   0.891 -0.9844 -2.4671 -2.7373
  278MOL0     H37526  10.305   2.988   0.818 -1.1724 -2.0856 -0.0964
  278MOL0     H37527  10.998   2.276   0.868  0.3133  1.6227 -1.2369
  278MOL0     H37528  11.191   2.160   0.849 -0.5857  0.2698  0.4416
  278MOL0     H37529  11.343   2.243   0.915  2.0496 -1.8424  1.0970
  278MOL0     H37530  11.263   2.103   0.993 -2.8242 -1.0658 -0.8866
  279MOL0     O37531   5.039   5.799  10.009 -0.1810 -0.0700  0.7387
  279MOL0     C37532   5.040   5.676  10.025 -0.5810 -0.3344 -0.2768
  279MOL0     O37533   4.942   5.602  10.063 -0.5413 -0.2865 -0.9068
  279MOL0     C37534   4.817   5.627  10.026  0.2571  0.8438 -0.3007
  279MOL0     C37535   4.713   5.599  10.114  0.4610  0.6653 -0.9999
  279MOL0     C37536   4.582   5.631  10.085  1.4382  0.7427  0.1493
  279MOL0     C37537   4.543   5.663   9.954 -0.7773  0.2661 -0.7315
  279MOL0     O37538   4.412   5.696   9.937 -0.3317  0.5314  0.1160
  279MOL0     C37539   4.319   5.611  10.007  0.3938 -0.2898  0.0133
  279MOL0     C37540   4.187   5.631   9.933 -0.2087  0.2510  0.5623
  279MOL0     C37541   4.070   5.570  10.012 -1.1013 -0.6721  0.3490
  279MOL0     C37542   3.937   5.602   9.951 -0.0319 -0.7496  0.0995
  279MOL0     C37543   3.836   5.519  10.027 -0.5638 -0.4609  0.3292
  279MOL0     C37544   3.695   5.527   9.958 -0.6144 -0.0862 -0.0943
  279MOL0     C37545   3.591   5.590  10.050 -0.7637  0.5887 -1.0726
  279MOL0     C37546   3.564   5.484  10.169  0.1738  0.4199 -0.3613
  279MOL0     N37547   3.421   5.509  10.204 -0.3180  0.3361 -0.2467
  279MOL0     C37548   3.306   5.456  10.141 -1.4136 -0.1349  0.6382
  279MOL0     C37549   3.207   5.479  10.224  0.0082 -1.6317  0.0762
  279MOL0     C37550   3.062   5.440  10.187  1.5155 -0.4358 -0.5680
  279MOL0     C37551   3.037   5.304  10.139  1.0637  0.9509 -0.2148
  279MOL0     C37552   3.086   5.194  10.222 -0.6078  0.0934  0.0436
  279MOL0     C37553   3.089   5.058  10.136 -0.5561 -0.4571  0.8860
  279MOL0     O37554   3.177   5.078  10.024  1.2939  0.4636 -0.0481
  279MOL0     C37555   3.313   5.093  10.031  0.0488 -0.4297 -0.2120
  279MOL0     C37556   3.396   5.052  10.136  0.4899 -0.5377  0.7788
  279MOL0     C37557   3.533   5.072  10.126  0.2946 -0.4711 -0.0273
  279MOL0     C37558   3.585   5.109   9.998  0.2362 -0.1154 -0.0058
  279MOL0     C37559   3.726   5.119   9.988 -0.2951 -0.4362 -0.0712
  279MOL0     O37560   3.785   5.065   9.875  0.0852  0.0446  0.8844
  279MOL0     C37561   3.920   5.103   9.849 -0.5442  0.0214 -0.4529
  279MOL0     C37562   3.952   5.236   9.795 -0.2443  0.5793 -0.0427
  279MOL0     C37563   4.079   5.267   9.759 -0.2006  0.7280 -0.8871
  279MOL0     C37564   4.187   5.187   9.795  0.6968  0.2138  0.0695
  279MOL0     O37565   4.317   5.213   9.777 -0.4979 -0.3484  0.2630
  279MOL0     C37566   4.355   5.342   9.717 -0.8808  0.8092 -0.6753
  279MOL0     C37567   4.488   5.338   9.653 -0.6760  0.2492  1.2409
  279MOL0     C37568   4.616   5.348   9.744 -0.1296 -0.7577  0.0875
  279MOL0     C37569   4.718   5.401   9.641  0.1174  0.7636 -1.0971
  279MOL0     C37570   4.857   5.398   9.707 -0.5270 -0.2783 -0.1982
  279MOL0     C37571   4.964   5.464   9.619  0.9179 -0.0165  0.2850
  279MOL0     C37572   5.101   5.464   9.693  0.5427  0.3689 -0.1553
  279MOL0     C37573   5.210   5.474   9.584  0.8522 -0.7810  0.2999
  279MOL0    Cl37574   5.371   5.470   9.661 -0.2612  0.4991  0.5401
  279MOL0     C37575   4.156   5.067   9.861  0.2303 -1.4379  0.0842
  279MOL0     C37576   4.025   5.020   9.873 -0.2666 -1.1889  0.5434
  279MOL0     O37577   3.788   5.184  10.078 -0.2752  0.0809  0.2760
  279MOL0     C37578   3.499   5.137   9.886  1.2561  1.4983 -0.7369
  279MOL0     C37579   3.358   5.129   9.908 -1.2119  0.3820  0.3776
  279MOL0     N37580   3.255   5.566  10.325 -0.6295  0.3056  0.1346
  279MOL0     N37581   3.379   5.593  10.306  0.0225 -0.0013  0.2905
  279MOL0     C37582   4.647   5.689   9.865 -0.6194  0.3904  0.1531
  279MOL0     C37583   4.785   5.675   9.899 -0.5996  0.0204  0.1943
  279MOL0     C37584   5.180   5.617  10.036 -0.4824 -0.5681 -0.3330
  279MOL0     C37585   5.187   5.483  10.085 -0.1984  0.5439  0.6152
  279MOL0     C37586   5.310   5.412  10.084 -0.4571 -0.0618 -0.0778
  279MOL0     C37587   5.432   5.475  10.059 -0.1134  0.1583 -0.6307
  279MOL0     O37588   5.560   5.415  10.072  0.5463 -0.4784  0.7967
  279MOL0     C37589   5.555   5.301  10.164 -0.4473  1.2329 -0.4440
  279MOL0     C37590   5.696   5.245  10.188 -1.0197  0.2923  0.5758
  279MOL0     C37591   5.693   5.132  10.286 -0.5183 -0.5376  0.3474
  279MOL0     C37592   5.789   5.019  10.252 -0.9252  0.0746 -0.1096
  279MOL0     C37593   5.925   5.055  10.296 -0.0346  0.9114  0.0441
  279MOL0     C37594   6.038   5.070  10.321 -0.4742 -0.0734 -0.6762
  279MOL0     C37595   5.426   5.605  10.006 -0.2669  0.4186 -0.5122
  279MOL0     C37596   5.305   5.676   9.993  0.3727  0.2944 -0.3922
  279MOL0     C37597   5.314   5.805   9.918  0.6073  0.1166 -0.1618
  279MOL0     H37598   4.745   5.558  10.209 -0.3798  1.3103 -0.4314
  279MOL0     H37599   4.512   5.626  10.168 -1.1790  3.0122 -1.7274
  279MOL0     H37600   4.362   5.511  10.004 -0.6782 -0.7838  0.7612
  279MOL0     H37601   4.307   5.636  10.113 -0.5941 -1.7597  0.2712
  279MOL0     H37602   4.189   5.583   9.834 -0.4036 -0.5239  0.9242
  279MOL0     H37603   4.158   5.735   9.914  0.2685  0.2119 -0.4389
  279MOL0     H37604   4.067   5.604  10.116 -1.6207  0.4968 -0.0354
  279MOL0     H37605   4.081   5.461  10.011  3.1401 -0.4074 -0.3076
  279MOL0     H37606   3.908   5.707   9.962 -1.8385 -0.7998 -2.9424
  279MOL0     H37607   3.934   5.575   9.845 -3.4224 -2.3082  0.4507
  279MOL0     H37608   3.865   5.414  10.017 -0.6924 -0.6137  1.4314
  279MOL0     H37609   3.840   5.539  10.135 -3.6104  3.1629 -0.0280
  279MOL0     H37610   3.680   5.561   9.855 -0.9454 -1.4940 -0.5334
  279MOL0     H37611   3.660   5.424   9.945 -0.3561  0.0840 -2.8344
  279MOL0     H37612   3.499   5.594   9.990  0.5579 -1.5769 -3.4394
  279MOL0     H37613   3.609   5.691  10.088 -1.5083  1.0919 -2.0246
  279MOL0     H37614   3.568   5.384  10.125 -1.7674  0.5175 -0.8393
  279MOL0     H37615   3.639   5.499  10.248 -1.2299 -0.3210  1.1536
  279MOL0     H37616   3.307   5.394  10.052  1.0990  0.0407  0.4496
  279MOL0     H37617   2.995   5.435  10.274  0.8499  1.1085 -0.9505
  279MOL0     H37618   3.019   5.511  10.116 -1.1167 -0.3566  0.9282
  279MOL0     H37619   2.929   5.288  10.137  0.8094  2.2187  1.3961
  279MOL0     H37620   3.076   5.303  10.036 -0.8769 -1.8319 -1.0540
  279MOL0     H37621   3.019   5.172  10.306  0.0532 -0.8028  0.3483
  279MOL0     H37622   3.188   5.211  10.258 -1.0637 -1.6164  2.3694
  279MOL0     H37623   2.991   5.032  10.096 -0.7627  0.2847  0.8853
  279MOL0     H37624   3.125   4.971  10.191 -0.0342 -1.1962 -0.5735
  279MOL0     H37625   3.349   4.999  10.218 -1.1704 -1.9445 -0.9937
  279MOL0     H37626   3.601   5.059  10.210  2.7840  0.8207 -1.7463
  279MOL0     H37627   3.870   5.300   9.764 -0.6995 -0.2206 -0.5282
  279MOL0     H37628   4.083   5.370   9.724 -2.1380  1.4924  0.9191
  279MOL0     H37629   4.296   5.369   9.629 -0.5266  0.1569 -1.1230
  279MOL0     H37630   4.342   5.419   9.793 -1.5563  2.2436 -2.1860
  279MOL0     H37631   4.506   5.258   9.580  1.5706 -0.5050  2.5435
  279MOL0     H37632   4.489   5.432   9.595 -2.5934 -0.9705 -0.9408
  279MOL0     H37633   4.601   5.421   9.824  1.1204 -3.2907  2.8482
  279MOL0     H37634   4.636   5.246   9.780 -0.9122 -1.0589 -0.3042
  279MOL0     H37635   4.705   5.506   9.613  0.4396  0.8478 -0.9296
  279MOL0     H37636   4.720   5.341   9.549 -1.8133 -0.8089 -0.1952
  279MOL0     H37637   4.885   5.294   9.728 -0.4147 -0.7603 -2.4777
  279MOL0     H37638   4.865   5.453   9.802  2.6144 -0.4906 -0.2475
  279MOL0     H37639   4.961   5.406   9.526  2.3625 -1.2540  0.9649
  279MOL0     H37640   4.940   5.570   9.604  0.3674 -0.4395 -2.2980
  279MOL0     H37641   5.114   5.365   9.737  1.0136 -1.3243 -3.7657
  279MOL0     H37642   5.114   5.540   9.770  0.0238  0.6455 -0.3361
  279MOL0     H37643   5.200   5.404   9.501  3.0009  1.9567 -2.5230
  279MOL0     H37644   5.209   5.576   9.543 -0.1772 -0.7457  0.3892
  279MOL0     H37645   4.231   5.005   9.909  0.2119 -3.0869 -1.8820
  279MOL0     H37646   4.004   4.927   9.925  2.7704 -1.8370  0.8015
  279MOL0     H37647   3.539   5.153   9.786  0.6005 -1.5379 -1.6034
  279MOL0     H37648   3.288   5.142   9.826  1.1037 -0.4084 -1.8699
  279MOL0     H37649   4.630   5.729   9.765  0.4888  0.7798  0.1069
  279MOL0     H37650   4.848   5.698   9.813  0.1536  0.4204  0.8366
  279MOL0     H37651   5.095   5.431  10.110  0.2736 -0.7296 -0.1845
  279MOL0     H37652   5.308   5.309  10.119 -1.3607  0.2774  0.9326
  279MOL0     H37653   5.497   5.218  10.122 -3.5026  3.4595 -0.9428
  279MOL0     H37654   5.520   5.329  10.264 -2.5399 -0.6360 -0.5901
  279MOL0     H37655   5.766   5.325  10.213 -4.2459  4.2223 -1.6296
  279MOL0     H37656   5.735   5.204  10.095 -1.1688 -0.0649  0.6675
  279MOL0     H37657   5.593   5.088  10.282 -1.2800  1.1402 -1.5186
  279MOL0     H37658   5.708   5.177  10.385 -3.8383  1.8553 -0.0340
  279MOL0     H37659   5.765   4.936  10.320  3.3727 -1.0574  0.3272
  279MOL0     H37660   5.786   4.993  10.146  0.0839  1.0943 -0.4101
  279MOL0     H37661   6.140   5.104  10.325 -0.3035 -0.5300 -1.0899
  279MOL0     H37662   5.525   5.639   9.975  0.0592  2.3283  2.2600
  279MOL0     H37663   5.259   5.874   9.983 -1.1506 -3.6582  2.7882
  279MOL0     H37664   5.409   5.853   9.897  0.3007 -0.0988 -2.2679
  279MOL0     H37665   5.267   5.792   9.820 -1.2160 -0.3051  0.7224
  280MOL0     O37666   6.748   5.047   1.572 -0.8930  0.4042 -0.1840
  280MOL0     C37667   6.685   4.959   1.635 -0.2924  0.5328 -0.1249
  280MOL0     O37668   6.742   4.852   1.700 -0.0226 -0.3806 -0.3157
  280MOL0     C37669   6.874   4.842   1.673  0.5827  0.4789 -0.2127
  280MOL0     C37670   6.916   4.748   1.575  0.6113  0.3952  1.1190
  280MOL0     C37671   7.055   4.735   1.538 -0.4972 -0.4554  0.5612
  280MOL0     C37672   7.152   4.797   1.617  0.3805 -0.1566  0.8615
  280MOL0     O37673   7.289   4.789   1.579 -0.3637  0.5305  0.1663
  280MOL0     C37674   7.384   4.813   1.689  0.3727  0.3352  0.0777
  280MOL0     C37675   7.510   4.743   1.667 -0.1761  0.9953  0.5792
  280MOL0     C37676   7.570   4.782   1.526 -0.9387 -0.3369  0.1530
  280MOL0     C37677   7.693   4.686   1.497 -0.2341 -0.5703  0.5894
  280MOL0     C37678   7.782   4.745   1.384 -0.9907 -0.3403  0.3116
  280MOL0     C37679   7.922   4.670   1.356  0.4708  0.4608  0.2982
  280MOL0     C37680   7.917   4.510   1.365 -0.0918  0.2047 -0.3616
  280MOL0     C37681   7.925   4.451   1.508 -0.3875 -0.4008  1.2412
  280MOL0     N37682   7.960   4.311   1.496 -0.6350 -0.2315 -0.5071
  280MOL0     C37683   8.093   4.268   1.492 -0.1727 -0.0965 -0.3177
  280MOL0     C37684   8.078   4.141   1.450 -0.8379 -0.2876 -0.3270
  280MOL0     C37685   8.199   4.056   1.434  1.5189  0.5690 -0.2496
  280MOL0     C37686   8.267   4.067   1.295  0.1430  1.1555 -0.1948
  280MOL0     C37687   8.255   3.943   1.206 -0.4836 -0.2761 -0.1093
  280MOL0     C37688   8.117   3.914   1.151  0.1039 -0.0273  0.1655
  280MOL0     O37689   8.105   3.776   1.106  0.1432 -0.3274  0.5632
  280MOL0     C37690   8.088   3.679   1.201  0.4157 -1.0309  0.7162
  280MOL0     C37691   8.141   3.562   1.153 -0.0469 -0.0014 -0.2800
  280MOL0     C37692   8.154   3.450   1.233  0.1886 -0.0787 -0.1408
  280MOL0     C37693   8.103   3.452   1.368 -0.1864 -0.5704  0.6796
  280MOL0     C37694   8.084   3.327   1.446 -0.8256  0.9394  1.3096
  280MOL0     O37695   8.174   3.227   1.411 -0.1348 -0.4514 -0.2621
  280MOL0     C37696   8.146   3.101   1.450  1.0181 -0.3700  0.4021
  280MOL0     C37697   8.192   3.052   1.572  0.3447 -0.2513 -0.0403
  280MOL0     C37698   8.150   2.926   1.632  0.4294 -0.8016  0.1358
  280MOL0     C37699   8.051   2.852   1.564  0.2152 -0.1597  0.1240
  280MOL0     O37700   7.999   2.734   1.616  0.4502  0.0520 -0.1819
  280MOL0     C37701   8.090   2.650   1.696  0.3155  0.2889  0.5730
  280MOL0     C37702   8.213   2.602   1.617  0.8766 -0.0825 -0.0698
  280MOL0     C37703   8.325   2.564   1.720  0.9503 -0.1803 -0.6077
  280MOL0     C37704   8.314   2.418   1.779  0.1720 -0.4798 -0.0135
  280MOL0     C37705   8.419   2.401   1.894  0.7536  0.4613  0.3996
  280MOL0     C37706   8.441   2.253   1.934 -0.2955 -0.9465  0.0876
  280MOL0     C37707   8.352   2.226   2.054  0.4469  0.3473 -0.0285
  280MOL0     C37708   8.374   2.086   2.107  0.5313  0.5758  0.1559
  280MOL0    Cl37709   8.529   2.036   2.165  0.0651 -0.4829  0.0588
  280MOL0     C37710   7.993   2.900   1.442  0.1519  0.0938 -0.0735
  280MOL0     C37711   8.038   3.021   1.396 -0.2678 -0.1435 -0.0843
  280MOL0     O37712   7.987   3.319   1.512  0.6878  0.2493 -0.3571
  280MOL0     C37713   8.050   3.572   1.411  0.5136 -0.4474  0.5365
  280MOL0     C37714   8.040   3.689   1.332 -0.1085 -0.2988 -0.5207
  280MOL0     N37715   7.950   4.100   1.442 -0.2486  1.2740 -1.2597
  280MOL0     N37716   7.880   4.210   1.466  0.1324  0.3798  0.4835
  280MOL0     C37717   7.103   4.897   1.706 -1.0001 -0.2160  0.2774
  280MOL0     C37718   6.971   4.914   1.739 -0.0963  0.8322 -0.3029
  280MOL0     C37719   6.543   4.991   1.662 -0.3371  0.4248 -0.4526
  280MOL0     C37720   6.472   5.066   1.564 -0.4254  0.1600 -1.1288
  280MOL0     C37721   6.343   5.111   1.575 -0.3624 -0.6296  0.3505
  280MOL0     C37722   6.267   5.089   1.684 -0.3479 -0.6213  0.2254
  280MOL0     O37723   6.139   5.127   1.669  0.2482  0.7882 -0.1294
  280MOL0     C37724   6.064   5.166   1.793  0.4213  0.4109 -0.2326
  280MOL0     C37725   5.948   5.062   1.795  0.5108  0.1064 -0.4131
  280MOL0     C37726   5.882   5.046   1.932  0.0537  0.3209  0.0807
  280MOL0     C37727   5.835   5.166   2.001 -0.0848 -0.3096  0.6504
  280MOL0     C37728   5.785   5.133   2.134  0.5932  0.9908 -0.5140
  280MOL0     C37729   5.746   5.073   2.232  0.0120  0.4400  1.1897
  280MOL0     C37730   6.335   5.020   1.790  0.1352 -0.0972 -0.8698
  280MOL0     C37731   6.470   4.975   1.783  0.0777  0.5831  0.0437
  280MOL0     C37732   6.511   4.899   1.914  0.6652 -0.5183 -0.3191
  280MOL0     H37733   6.844   4.695   1.513 -0.3597  2.6124  0.2370
  280MOL0     H37734   7.084   4.666   1.460 -3.1174 -1.5155  0.4181
  280MOL0     H37735   7.394   4.922   1.697 -0.7384  0.3366  2.1546
  280MOL0     H37736   7.342   4.764   1.777 -1.2376 -4.1290 -2.8320
  280MOL0     H37737   7.502   4.635   1.679  0.9963  0.8937  0.5632
  280MOL0     H37738   7.590   4.769   1.738  1.0146  1.5663 -0.9035
  280MOL0     H37739   7.593   4.889   1.522 -0.4687 -0.4372  0.0931
  280MOL0     H37740   7.494   4.768   1.449 -0.5389 -0.8967 -0.1526
  280MOL0     H37741   7.751   4.686   1.590  0.3874 -1.0804  0.2075
  280MOL0     H37742   7.664   4.586   1.464 -0.7595  0.3487 -1.9084
  280MOL0     H37743   7.713   4.740   1.299 -2.3740 -0.4286  1.3889
  280MOL0     H37744   7.812   4.849   1.400  1.2573 -0.8011 -0.6443
  280MOL0     H37745   7.953   4.692   1.253 -0.2356 -1.9152 -0.4803
  280MOL0     H37746   8.004   4.713   1.414 -0.9185  5.7356 -1.0792
  280MOL0     H37747   8.008   4.470   1.319 -0.0059  0.0694 -0.0735
  280MOL0     H37748   7.834   4.486   1.297  1.8172  2.8455 -3.9600
  280MOL0     H37749   8.001   4.500   1.569 -1.1893  4.9564 -1.5008
  280MOL0     H37750   7.829   4.461   1.559 -0.5284  1.9590  0.6231
  280MOL0     H37751   8.178   4.334   1.504  0.0352 -0.2615 -0.8826
  280MOL0     H37752   8.278   4.087   1.503  2.1417  1.4659 -1.3334
  280MOL0     H37753   8.166   3.959   1.472 -1.8779  2.5387  2.4697
  280MOL0     H37754   8.219   4.144   1.234 -4.3252 -0.4080  1.0049
  280MOL0     H37755   8.373   4.091   1.311  0.0352  0.3930  2.1470
  280MOL0     H37756   8.302   3.870   1.273  0.4787  1.5342  1.2963
  280MOL0     H37757   8.313   3.964   1.116 -2.0212 -0.3688 -1.1627
  280MOL0     H37758   8.097   3.975   1.063 -0.4100 -2.2183 -1.3104
  280MOL0     H37759   8.039   3.942   1.222  1.7310 -0.0170  2.0407
  280MOL0     H37760   8.193   3.571   1.058  0.1923  2.8627  0.0479
  280MOL0     H37761   8.198   3.361   1.189  0.4570 -0.3621  0.6808
  280MOL0     H37762   8.271   3.110   1.620 -0.3070  1.4114 -0.9269
  280MOL0     H37763   8.186   2.905   1.732  0.3167 -1.5393  0.0286
  280MOL0     H37764   8.115   2.700   1.790 -2.1022  1.7285  0.5416
  280MOL0     H37765   8.042   2.558   1.731  1.8506 -0.2242  1.4096
  280MOL0     H37766   8.190   2.508   1.566  1.8638 -0.6437  0.5029
  280MOL0     H37767   8.259   2.673   1.547  2.2849 -0.3812  0.5188
  280MOL0     H37768   8.423   2.553   1.674  0.8605 -2.0444 -0.4157
  280MOL0     H37769   8.316   2.634   1.803  1.2430  0.5082 -1.1436
  280MOL0     H37770   8.331   2.353   1.693 -0.8820 -0.5216 -0.2016
  280MOL0     H37771   8.211   2.398   1.806  0.3563 -0.9246  0.3700
  280MOL0     H37772   8.386   2.469   1.973 -0.4704  0.0360  0.2820
  280MOL0     H37773   8.514   2.444   1.860  0.2145  0.5099 -1.1444
  280MOL0     H37774   8.418   2.191   1.847  0.1349 -1.1004  0.0822
  280MOL0     H37775   8.545   2.250   1.968 -0.6727  2.5850  2.1844
  280MOL0     H37776   8.245   2.244   2.043 -0.4933 -3.5024  1.1843
  280MOL0     H37777   8.376   2.293   2.137 -0.9087 -0.1650  0.8106
  280MOL0     H37778   8.300   2.085   2.188  1.2973 -1.1990  0.8721
  280MOL0     H37779   8.340   2.011   2.035 -0.7181 -0.0718  1.3747
  280MOL0     H37780   7.913   2.852   1.386  0.7267 -1.8680  0.7083
  280MOL0     H37781   7.984   3.061   1.312 -1.5962 -3.2066 -0.8334
  280MOL0     H37782   8.000   3.559   1.507  0.2272 -1.1695  0.2968
  280MOL0     H37783   8.006   3.782   1.377  2.5680  0.1984  0.6683
  280MOL0     H37784   7.181   4.965   1.740 -2.7239  0.6329  2.8066
  280MOL0     H37785   6.944   4.985   1.817  0.8800  0.5691  0.2938
  280MOL0     H37786   6.528   5.098   1.477 -1.4098  0.8074 -1.5465
  280MOL0     H37787   6.297   5.168   1.495 -0.2176  2.5620  2.3515
  280MOL0     H37788   6.018   5.264   1.777 -1.3817  0.2714  3.2668
  280MOL0     H37789   6.125   5.169   1.883  0.5426 -1.2776 -0.2182
  280MOL0     H37790   5.990   4.965   1.770 -1.3324 -0.6211 -0.8654
  280MOL0     H37791   5.877   5.088   1.715 -1.7519  0.5912  1.6506
  280MOL0     H37792   5.970   5.018   1.990  0.0904  1.6554  0.6872
  280MOL0     H37793   5.800   4.974   1.942  0.5337  0.1248  4.2621
  280MOL0     H37794   5.911   5.243   2.012 -0.8125  0.3256  1.4037
  280MOL0     H37795   5.760   5.215   1.937 -1.0820 -1.2528  1.0594
  280MOL0     H37796   5.716   5.023   2.322 -0.3492 -0.5374  0.5379
  280MOL0     H37797   6.269   4.994   1.871 -3.0870  0.6746 -3.0603
  280MOL0     H37798   6.452   4.928   2.002  2.2714 -3.5095  1.9195
  280MOL0     H37799   6.499   4.793   1.891  2.7971 -0.6314 -1.1345
  280MOL0     H37800   6.615   4.912   1.945  0.1727 -2.6449  2.6916
  281MOL0     O37801   6.950   7.745   1.273 -0.5163 -0.1976 -0.1787
  281MOL0     C37802   7.005   7.769   1.376 -1.0617 -0.1174  0.2017
  281MOL0     O37803   6.942   7.779   1.495 -0.2302 -0.3125  0.3748
  281MOL0     C37804   6.806   7.785   1.503  0.7038 -0.6414  0.7642
  281MOL0     C37805   6.746   7.885   1.434 -0.7905  0.0189  1.5811
  281MOL0     C37806   6.603   7.899   1.458 -1.1289 -0.6442  0.6458
  281MOL0     C37807   6.533   7.817   1.531  0.4988  0.4115 -0.0317
  281MOL0     O37808   6.396   7.828   1.527 -0.4207  0.6563 -0.1764
  281MOL0     C37809   6.306   7.785   1.631 -0.1778 -0.5709  0.2806
  281MOL0     C37810   6.160   7.804   1.580 -0.7766  1.3004 -0.3432
  281MOL0     C37811   6.129   7.727   1.447  0.9244 -0.5656 -0.0310
  281MOL0     C37812   6.033   7.809   1.357  0.6806 -0.3235 -0.3221
  281MOL0     C37813   6.000   7.720   1.233  0.5774 -0.0491 -0.2608
  281MOL0     C37814   5.903   7.614   1.242 -0.0114  1.2272  0.1654
  281MOL0     C37815   5.910   7.518   1.126  0.3067  1.1860  0.0103
  281MOL0     C37816   5.865   7.590   0.996  0.1732  0.2665 -0.2697
  281MOL0     N37817   5.835   7.492   0.889  0.1880 -0.0711 -0.5209
  281MOL0     C37818   5.854   7.356   0.889 -0.3031  1.0605  0.6073
  281MOL0     C37819   5.792   7.306   0.772 -1.4899  0.1721 -1.1447
  281MOL0     C37820   5.776   7.160   0.745  0.3175  0.5617 -0.0261
  281MOL0     C37821   5.642   7.114   0.804 -0.4672 -0.0675  0.5746
  281MOL0     C37822   5.595   6.985   0.730  0.1972 -0.3860 -0.9400
  281MOL0     C37823   5.466   6.950   0.790  0.7887 -0.1566 -0.0120
  281MOL0     O37824   5.423   6.817   0.740 -1.2113  0.3659 -0.0510
  281MOL0     C37825   5.287   6.791   0.729 -0.6053  0.5198 -0.7052
  281MOL0     C37826   5.178   6.874   0.751  0.4056  0.1070 -0.7384
  281MOL0     C37827   5.053   6.833   0.731 -0.0356 -0.0052 -0.2360
  281MOL0     C37828   5.024   6.708   0.677  0.1458  0.0565  0.2142
  281MOL0     C37829   4.888   6.665   0.644  0.4436  0.4715 -0.8238
  281MOL0     O37830   4.861   6.535   0.621 -0.1024  0.2768  0.2159
  281MOL0     C37831   4.738   6.508   0.565 -0.6720  0.0934 -0.0673
  281MOL0     C37832   4.706   6.556   0.436 -0.2382  0.6607  0.4910
  281MOL0     C37833   4.575   6.548   0.389 -0.1035  0.0776 -0.0519
  281MOL0     C37834   4.476   6.480   0.468 -0.2011 -0.5658 -0.8832
  281MOL0     O37835   4.352   6.436   0.430 -0.7439 -0.5281  0.6840
  281MOL0     C37836   4.260   6.538   0.395  0.0287  0.1033 -0.1111
  281MOL0     C37837   4.122   6.497   0.417  0.4943  0.5935 -0.2845
  281MOL0     C37838   4.098   6.449   0.557 -0.2577 -0.2106 -0.3112
  281MOL0     C37839   3.944   6.424   0.588 -0.8394 -0.4197 -0.5220
  281MOL0     C37840   3.942   6.369   0.723 -0.1129  0.1182  0.2193
  281MOL0     C37841   3.796   6.338   0.766 -0.0150  0.1498  0.6853
  281MOL0     C37842   3.735   6.465   0.822 -0.5744 -0.5083 -0.1667
  281MOL0     C37843   3.604   6.424   0.888  0.2160 -0.7091 -0.0079
  281MOL0    Cl37844   3.529   6.579   0.931  0.5245 -0.0377  0.0765
  281MOL0     C37845   4.508   6.441   0.599  0.4347  0.2769 -0.5935
  281MOL0     C37846   4.639   6.443   0.640  0.0892  0.3018  0.2769
  281MOL0     O37847   4.800   6.748   0.645  0.5052  0.9370 -0.7086
  281MOL0     C37848   5.135   6.624   0.650 -0.9985 -0.0934  0.6412
  281MOL0     C37849   5.267   6.667   0.674 -0.1722  0.7790  1.4062
  281MOL0     N37850   5.744   7.419   0.701  0.4833 -0.7738 -0.1218
  281MOL0     N37851   5.780   7.526   0.768 -0.1817 -0.0778 -0.6534
  281MOL0     C37852   6.601   7.714   1.603  0.0034 -0.3762 -0.3574
  281MOL0     C37853   6.736   7.698   1.585 -0.4123 -0.4378 -0.1617
  281MOL0     C37854   7.156   7.797   1.373  0.0202  0.5152 -0.9365
  281MOL0     C37855   7.223   7.807   1.498  0.2050  1.0373  0.1254
  281MOL0     C37856   7.363   7.824   1.503  0.0418  0.6058 -0.2313
  281MOL0     C37857   7.433   7.842   1.381 -1.0403 -0.3102 -1.2623
  281MOL0     O37858   7.574   7.876   1.381 -0.1301  0.6659  1.0120
  281MOL0     C37859   7.630   7.924   1.506 -0.2361  0.0592  0.5351
  281MOL0     C37860   7.787   7.940   1.504  0.5300  0.1739 -0.0112
  281MOL0     C37861   7.836   7.793   1.511  0.3103  0.3201  0.4347
  281MOL0     C37862   7.990   7.798   1.520 -0.7241  0.5241  0.8291
  281MOL0     C37863   8.026   7.668   1.571  0.0967 -0.2313 -0.1298
  281MOL0     C37864   8.067   7.558   1.613 -0.7404  0.4399 -0.8060
  281MOL0     C37865   7.371   7.821   1.264  0.0631  0.0969 -0.1994
  281MOL0     C37866   7.232   7.797   1.251 -0.8502  0.7187 -0.4011
  281MOL0     C37867   7.189   7.793   1.108  0.5352  0.4984  1.0056
  281MOL0     H37868   6.799   7.958   1.374 -2.4386  0.6748  0.8678
  281MOL0     H37869   6.549   7.979   1.407 -0.7953  0.1069  1.4397
  281MOL0     H37870   6.319   7.680   1.659 -0.2376 -0.3787  1.0504
  281MOL0     H37871   6.325   7.851   1.716  0.3113 -0.2353 -0.0830
  281MOL0     H37872   6.154   7.909   1.551 -2.5655  0.8135 -1.9198
  281MOL0     H37873   6.090   7.785   1.662  0.1620 -2.4548 -0.2620
  281MOL0     H37874   6.095   7.626   1.470  2.0475 -1.4758 -2.1089
  281MOL0     H37875   6.222   7.725   1.389 -0.0628  3.3263 -2.0499
  281MOL0     H37876   5.951   7.843   1.421  1.4348 -0.7326  0.9065
  281MOL0     H37877   6.083   7.893   1.308  1.8590 -1.7805 -1.7197
  281MOL0     H37878   5.971   7.782   1.147  1.7139  1.4215  0.3648
  281MOL0     H37879   6.093   7.675   1.197  2.3441 -0.6062  4.2978
  281MOL0     H37880   5.926   7.556   1.332  0.7518 -0.2105 -0.9171
  281MOL0     H37881   5.802   7.653   1.259 -0.6237  0.7852 -2.1623
  281MOL0     H37882   5.844   7.435   1.155  1.5240 -0.0267 -0.5643
  281MOL0     H37883   6.010   7.474   1.130 -0.3285 -0.2898  0.4483
  281MOL0     H37884   5.775   7.649   1.015 -1.1840 -2.4236  2.6364
  281MOL0     H37885   5.948   7.655   0.967  1.8817 -1.0175  1.4526
  281MOL0     H37886   5.913   7.296   0.958 -1.8194 -0.5213  0.6120
  281MOL0     H37887   5.781   7.135   0.639 -0.3723 -3.7917  0.7728
  281MOL0     H37888   5.858   7.109   0.796 -0.6938 -0.0770  1.0184
  281MOL0     H37889   5.649   7.096   0.912 -4.3644  5.9387  2.3066
  281MOL0     H37890   5.576   7.200   0.790 -0.4865  0.0223  1.1942
  281MOL0     H37891   5.652   6.895   0.756 -0.6306 -0.7068 -0.1783
  281MOL0     H37892   5.581   7.001   0.623  0.9893  1.5884 -0.7869
  281MOL0     H37893   5.391   7.027   0.769  0.5476 -0.7521 -1.4238
  281MOL0     H37894   5.472   6.925   0.897  0.9947 -1.8612 -0.3995
  281MOL0     H37895   5.194   6.978   0.778  2.0276 -0.3530  0.1418
  281MOL0     H37896   4.966   6.897   0.743  2.2828  3.3421  0.2661
  281MOL0     H37897   4.776   6.603   0.367  0.7492 -0.6754  0.5530
  281MOL0     H37898   4.560   6.570   0.284 -2.1992 -2.8504 -0.5143
  281MOL0     H37899   4.275   6.632   0.450  2.0235 -0.3042  0.1272
  281MOL0     H37900   4.278   6.560   0.289 -0.3709  0.0952 -0.1804
  281MOL0     H37901   4.048   6.576   0.400 -0.5772 -0.5141 -0.8909
  281MOL0     H37902   4.114   6.412   0.350  2.3426 -0.1396  0.3741
  281MOL0     H37903   4.155   6.358   0.576 -0.9120 -0.3063  1.4478
  281MOL0     H37904   4.134   6.525   0.628  0.3295 -1.9559  1.3568
  281MOL0     H37905   3.889   6.363   0.515 -1.6787  2.6198 -2.6367
  281MOL0     H37906   3.903   6.525   0.583 -2.6559 -1.1561 -1.2472
  281MOL0     H37907   3.991   6.430   0.799 -1.2764 -1.1857  2.0951
  281MOL0     H37908   3.995   6.273   0.728 -0.7597 -0.2496  0.0250
  281MOL0     H37909   3.744   6.299   0.678  1.9769  1.4560 -1.2040
  281MOL0     H37910   3.786   6.259   0.840 -2.6969  1.1476  1.5252
  281MOL0     H37911   3.710   6.538   0.745 -0.5088 -0.8157 -0.4843
  281MOL0     H37912   3.807   6.507   0.892  2.1364 -1.7836 -2.0136
  281MOL0     H37913   3.535   6.358   0.835  0.0613 -0.1581 -0.5039
  281MOL0     H37914   3.622   6.362   0.977  0.5617 -0.0139  0.4193
  281MOL0     H37915   4.444   6.384   0.666  1.7007 -0.0726  0.3578
  281MOL0     H37916   4.661   6.414   0.743  0.4936  1.1449  0.4352
  281MOL0     H37917   5.120   6.525   0.607 -0.0309  0.1822 -0.3654
  281MOL0     H37918   5.350   6.598   0.659 -1.3611 -0.6827  1.3284
  281MOL0     H37919   6.534   7.657   1.667 -0.4158 -2.8093 -2.8000
  281MOL0     H37920   6.782   7.606   1.619  0.1722  0.3690  1.3147
  281MOL0     H37921   7.166   7.792   1.590  1.6975  1.5971  1.1873
  281MOL0     H37922   7.412   7.816   1.599 -0.2163  0.0060 -0.1504
  281MOL0     H37923   7.601   7.847   1.577  0.2611 -1.2694 -0.6566
  281MOL0     H37924   7.574   8.014   1.532 -0.7433  0.2062 -0.9719
  281MOL0     H37925   7.826   8.000   1.586 -0.3895 -1.8894  2.0291
  281MOL0     H37926   7.809   7.984   1.406 -0.0080 -0.2179 -0.3147
  281MOL0     H37927   7.793   7.733   1.429 -2.3113 -0.6554  2.3614
  281MOL0     H37928   7.797   7.750   1.604  1.0919  0.5163  0.8560
  281MOL0     H37929   8.026   7.805   1.417 -1.4600 -1.1400  0.4218
  281MOL0     H37930   8.037   7.868   1.589  1.5226 -0.2581  0.1739
  281MOL0     H37931   8.115   7.466   1.641 -1.6462  0.3146  0.4232
  281MOL0     H37932   7.442   7.826   1.182  2.4006 -0.1833  1.6767
  281MOL0     H37933   7.261   7.841   1.041 -2.9580  1.6341 -2.2884
  281MOL0     H37934   7.171   7.694   1.065  1.8662  1.5375 -2.2005
  281MOL0     H37935   7.091   7.840   1.092  0.2095 -0.5923 -0.3519
  282MOL0     O37936   9.577   9.238   8.979  0.4618 -0.0385 -0.2737
  282MOL0     C37937   9.492   9.224   9.068 -0.0436  0.1974  0.1506
  282MOL0     O37938   9.516   9.167   9.187 -0.2940 -0.4369 -0.2654
  282MOL0     C37939   9.646   9.131   9.227  0.0974 -0.9089 -0.1545
  282MOL0     C37940   9.674   9.000   9.265 -1.2876  0.9382 -0.5588
  282MOL0     C37941   9.805   8.972   9.316  0.6244  0.2505  0.3221
  282MOL0     C37942   9.895   9.076   9.349 -0.2662 -0.0959 -0.6992
  282MOL0     O37943  10.004   9.068   9.432  0.8768 -0.0582  0.7938
  282MOL0     C37944  10.055   8.935   9.475  0.1716 -0.1327  0.2826
  282MOL0     C37945  10.076   8.957   9.630 -0.1142  0.0227  0.5333
  282MOL0     C37946   9.942   8.991   9.701 -0.5688  0.1326  0.7509
  282MOL0     C37947   9.952   8.996   9.855  0.1877 -0.5491 -0.0411
  282MOL0     C37948   9.854   9.100   9.913  0.3204  0.1125 -0.5365
  282MOL0     C37949   9.703   9.067   9.898 -0.2825 -1.3119  0.4225
  282MOL0     C37950   9.664   8.931   9.954 -0.3347 -0.2143  0.5189
  282MOL0     C37951   9.518   8.921  10.001  0.0595 -0.5433  0.0962
  282MOL0     N37952   9.497   8.993  10.132 -0.2378  0.2059  0.5672
  282MOL0     C37953   9.555   8.947  10.244  0.6625 -0.4128  0.1917
  282MOL0     C37954   9.559   9.040  10.338 -0.0964  0.8200 -0.2421
  282MOL0     C37955   9.635   9.027  10.473 -0.1394  0.0342  0.4467
  282MOL0     C37956   9.788   9.082  10.470  0.9759  0.5982 -0.3311
  282MOL0     C37957   9.859   9.021  10.360  0.2944 -0.1719 -1.5231
  282MOL0     C37958  10.009   9.058  10.383  0.2409 -0.0048  0.4475
  282MOL0     O37959  10.064   9.002  10.501 -0.1609  0.1255 -0.0705
  282MOL0     C37960  10.199   8.970  10.498 -1.0678 -1.0221  0.3624
  282MOL0     C37961  10.304   9.008  10.407  0.3549 -0.1827 -0.5632
  282MOL0     C37962  10.436   8.968  10.430 -0.1559 -0.2949  0.3340
  282MOL0     C37963  10.476   8.891  10.536 -0.9560 -0.3747  0.2798
  282MOL0     C37964  10.622   8.852  10.541  0.1557 -0.1763  0.0010
  282MOL0     O37965  10.694   8.848  10.428  0.4680  0.1615  0.2649
  282MOL0     C37966  10.829   8.840  10.431 -0.8318 -0.6278 -0.7501
  282MOL0     C37967  10.897   8.726  10.486 -0.1843 -0.1472 -0.4649
  282MOL0     C37968  11.035   8.718  10.485  0.1070  0.4531  0.0657
  282MOL0     C37969  11.106   8.823  10.425  0.8837 -0.0590 -0.0671
  282MOL0     O37970  11.240   8.832  10.417  0.4870 -0.6016 -0.3243
  282MOL0     C37971  11.327   8.924  10.350  0.7177 -0.4654  0.2498
  282MOL0     C37972  11.474   8.897  10.385  0.2349  0.1294 -0.2521
  282MOL0     C37973  11.507   8.758  10.327  0.4471 -0.0012 -0.4337
  282MOL0     C37974  11.662   8.743  10.349 -0.2816 -0.6676  0.4998
  282MOL0     C37975  11.716   8.625  10.248 -0.4773 -1.0359 -1.0798
  282MOL0     C37976  11.767   8.658  10.112 -0.2756  0.4623  0.8251
  282MOL0     C37977  11.668   8.738  10.023 -0.8955  0.3317  0.2321
  282MOL0     C37978  11.751   8.784   9.910  0.7996 -1.1414  0.3158
  282MOL0    Cl37979  11.773   8.638   9.816  0.1096 -0.0984  0.2866
  282MOL0     C37980  11.038   8.925  10.364 -0.1679 -0.2877 -0.2925
  282MOL0     C37981  10.905   8.932  10.361 -0.3785 -0.2594  0.0272
  282MOL0     O37982  10.663   8.805  10.647  0.2519 -0.1316  0.3084
  282MOL0     C37983  10.376   8.849  10.628  0.3088 -0.1898  0.5120
  282MOL0     C37984  10.239   8.888  10.607 -0.5764  0.0042  0.1395
  282MOL0     N37985   9.505   9.153  10.278 -0.4115  0.0390  0.6096
  282MOL0     N37986   9.458   9.121  10.164 -0.4171  0.1197  0.6782
  282MOL0     C37987   9.863   9.209   9.305  0.1841  0.1251 -0.1757
  282MOL0     C37988   9.742   9.229   9.246 -0.5009  0.6714 -0.2850
  282MOL0     C37989   9.352   9.275   9.052 -0.2075  0.7166 -0.0834
  282MOL0     C37990   9.264   9.275   9.163  0.4179 -0.7537 -0.7545
  282MOL0     C37991   9.126   9.316   9.156 -0.1190 -0.2600  0.0029
  282MOL0     C37992   9.077   9.348   9.035 -0.3888 -0.1767  0.5301
  282MOL0     O37993   8.951   9.395   8.999 -0.5894 -0.5194 -0.0688
  282MOL0     C37994   8.841   9.412   9.101  0.2443  0.4529 -0.3860
  282MOL0     C37995   8.782   9.272   9.145 -0.0082  0.4308 -0.3644
  282MOL0     C37996   8.671   9.283   9.249  0.2343 -0.0242 -0.8216
  282MOL0     C37997   8.539   9.327   9.199 -0.6390  0.2216  0.0235
  282MOL0     C37998   8.422   9.248   9.239 -0.2942  1.0623 -0.2793
  282MOL0     C37999   8.339   9.160   9.264  1.0667  0.4849  0.0535
  282MOL0     C38000   9.155   9.334   8.920 -0.2597 -0.3086  0.7723
  282MOL0     C38001   9.294   9.308   8.923 -0.5103  0.3191 -0.2340
  282MOL0     C38002   9.365   9.315   8.798  0.4684 -0.2052  0.2941
  282MOL0     H38003   9.602   8.920   9.273  1.7410 -1.7954  1.6608
  282MOL0     H38004   9.825   8.870   9.347 -1.6037 -0.2355  0.3609
  282MOL0     H38005   9.989   8.850   9.454  1.0065 -1.2553  1.9967
  282MOL0     H38006  10.152   8.922   9.426  0.7040  0.2321  1.2219
  282MOL0     H38007  10.149   9.038   9.639  1.5599 -1.2905 -0.5493
  282MOL0     H38008  10.132   8.876   9.678  0.7221  0.0254 -0.3911
  282MOL0     H38009   9.866   8.914   9.683  0.6879 -1.0171  0.1819
  282MOL0     H38010   9.911   9.089   9.663  1.5279 -0.6383 -3.5064
  282MOL0     H38011   9.934   8.894   9.889 -1.8114 -1.5566 -3.5236
  282MOL0     H38012  10.055   9.018   9.883 -0.1921  1.1322  0.1735
  282MOL0     H38013   9.876   9.109  10.019 -2.2929 -0.8151  0.1515
  282MOL0     H38014   9.876   9.199   9.872  0.0556  0.7824  0.8791
  282MOL0     H38015   9.641   9.142   9.948  0.8694  1.6237 -2.2667
  282MOL0     H38016   9.669   9.081   9.795  2.1456  1.5540 -0.1074
  282MOL0     H38017   9.733   8.891  10.029  0.0585 -0.7208 -0.0983
  282MOL0     H38018   9.669   8.864   9.867  0.2017  2.1721 -1.4000
  282MOL0     H38019   9.453   8.971   9.929 -0.3071  1.8822  1.9717
  282MOL0     H38020   9.490   8.816  10.011  1.4814 -0.7893  2.0031
  282MOL0     H38021   9.571   8.841  10.256 -0.8517 -0.4378  2.7532
  282MOL0     H38022   9.585   9.097  10.541 -1.3399  2.6326 -2.8184
  282MOL0     H38023   9.635   8.926  10.515  2.4442 -0.5698 -0.8101
  282MOL0     H38024   9.788   9.191  10.458  0.3289  0.7398  0.8530
  282MOL0     H38025   9.828   9.066  10.570  0.7310 -2.7842 -0.6612
  282MOL0     H38026   9.827   9.070  10.267  0.3108  2.3457 -0.2993
  282MOL0     H38027   9.870   8.914  10.344 -0.9529 -0.0707 -3.3464
  282MOL0     H38028  10.028   9.165  10.391 -1.4438  0.4313 -0.6331
  282MOL0     H38029  10.072   9.016  10.303 -0.9185 -3.1891  1.0475
  282MOL0     H38030  10.292   9.070  10.318 -0.9310 -0.3331 -0.5218
  282MOL0     H38031  10.504   9.014  10.360 -0.8400 -0.0165 -0.1513
  282MOL0     H38032  10.849   8.640  10.531 -0.5765 -0.3566 -1.2699
  282MOL0     H38033  11.093   8.638  10.530  2.9442 -0.2578 -4.2809
  282MOL0     H38034  11.315   8.911  10.242 -3.7408  2.2326  0.1697
  282MOL0     H38035  11.295   9.026  10.373 -0.9443 -0.6774 -0.9496
  282MOL0     H38036  11.535   8.982  10.353  0.3454  0.7887  1.5659
  282MOL0     H38037  11.498   8.886  10.491 -0.9119  2.2767  0.2948
  282MOL0     H38038  11.453   8.696  10.398 -2.7988  3.2533  0.2355
  282MOL0     H38039  11.480   8.746  10.221  2.8093  0.9960 -1.2191
  282MOL0     H38040  11.689   8.739  10.455  0.8049  1.5763  0.3731
  282MOL0     H38041  11.717   8.831  10.315  0.4424 -0.6332  1.7015
  282MOL0     H38042  11.640   8.546  10.251 -2.9945  1.1582  2.8852
  282MOL0     H38043  11.805   8.588  10.299  0.2356  2.0239  0.0951
  282MOL0     H38044  11.860   8.713  10.131 -0.1330 -0.2844  2.4394
  282MOL0     H38045  11.801   8.568  10.060  0.7293  1.3585 -0.1318
  282MOL0     H38046  11.628   8.829  10.068 -4.2781 -1.1238  0.5391
  282MOL0     H38047  11.575   8.689   9.992 -2.0722  1.5639  1.6471
  282MOL0     H38048  11.690   8.862   9.865 -0.0711 -1.7894  0.3521
  282MOL0     H38049  11.842   8.834   9.944  0.4233 -0.6053  0.5481
  282MOL0     H38050  11.083   9.005  10.306  2.2095 -2.0455 -1.0197
  282MOL0     H38051  10.852   9.014  10.313  1.2442  0.8276  0.0567
  282MOL0     H38052  10.410   8.785  10.708  0.3199  1.5038  1.9080
  282MOL0     H38053  10.172   8.864  10.688 -3.4749  0.5431 -1.9401
  282MOL0     H38054   9.938   9.283   9.331  0.8136 -0.0885 -1.3149
  282MOL0     H38055   9.710   9.331   9.226  1.0398  1.3661  0.6298
  282MOL0     H38056   9.287   9.249   9.266  0.2754 -1.5355 -0.9117
  282MOL0     H38057   9.076   9.304   9.251  3.5993 -4.2743  1.8065
  282MOL0     H38058   8.756   9.456   9.047 -1.0519 -2.4575 -0.8869
  282MOL0     H38059   8.871   9.469   9.189 -2.6477 -0.5028  1.3805
  282MOL0     H38060   8.868   9.214   9.179  0.6196  1.6343  0.1380
  282MOL0     H38061   8.735   9.217   9.062 -0.6683 -1.5636  1.2339
  282MOL0     H38062   8.699   9.353   9.328 -1.1703  0.8757 -1.0914
  282MOL0     H38063   8.651   9.186   9.297 -0.1298 -0.3073 -1.5344
  282MOL0     H38064   8.524   9.431   9.229  0.2042  0.5409 -0.6033
  282MOL0     H38065   8.534   9.322   9.090  0.3588 -1.3254  0.0245
  282MOL0     H38066   8.250   9.101   9.265  1.8862 -0.7936 -0.0938
  282MOL0     H38067   9.102   9.348   8.826 -3.7793 -1.5620  2.3832
  282MOL0     H38068   9.375   9.217   8.751 -1.4412 -0.8804  1.1792
  282MOL0     H38069   9.319   9.386   8.729  0.6833  1.0844  1.4297
  282MOL0     H38070   9.467   9.351   8.814  0.5210 -0.3793  0.3484
  283MOL0     O38071   6.659   5.714   2.737  1.0592 -0.4658  0.4244
  283MOL0     C38072   6.712   5.721   2.850  0.0735  0.1938 -0.7320
  283MOL0     O38073   6.797   5.619   2.901  0.2431 -0.4383  0.1953
  283MOL0     C38074   6.847   5.526   2.817  0.0010 -0.2531 -0.0019
  283MOL0     C38075   6.815   5.386   2.825  0.4805 -0.2074 -0.0211
  283MOL0     C38076   6.880   5.296   2.743  0.1356  0.6058 -0.9023
  283MOL0     C38077   6.991   5.335   2.661  0.6803 -0.6032 -0.0461
  283MOL0     O38078   7.059   5.254   2.575  0.1538  0.3769 -0.5617
  283MOL0     C38079   7.049   5.116   2.602 -0.0448 -0.1770  0.1382
  283MOL0     C38080   7.161   5.029   2.537 -0.3978  0.1918 -0.8671
  283MOL0     C38081   7.110   4.885   2.548  0.2691  0.9036 -0.0887
  283MOL0     C38082   7.227   4.781   2.527  0.6183 -0.2657  0.0298
  283MOL0     C38083   7.160   4.643   2.553 -0.0246 -0.3223  0.5626
  283MOL0     C38084   7.258   4.521   2.536 -0.2904 -0.3082 -0.0240
  283MOL0     C38085   7.268   4.482   2.391 -1.3270  0.5214  1.0505
  283MOL0     C38086   7.391   4.548   2.321  0.4547  0.1173  0.3157
  283MOL0     N38087   7.394   4.531   2.172  0.5176 -0.2679 -0.0584
  283MOL0     C38088   7.354   4.435   2.084 -0.0239 -0.2735  0.0798
  283MOL0     C38089   7.392   4.485   1.963 -0.5590  0.0114  1.0106
  283MOL0     C38090   7.358   4.411   1.843  0.0351  0.3549 -0.1811
  283MOL0     C38091   7.235   4.459   1.761 -0.3597  0.2881 -0.3363
  283MOL0     C38092   7.122   4.501   1.851  0.0144  0.0311 -1.2116
  283MOL0     C38093   6.993   4.488   1.768 -0.5588 -0.3258 -0.7181
  283MOL0     O38094   6.958   4.353   1.767  0.7343  0.1075  0.6992
  283MOL0     C38095   6.823   4.328   1.750 -0.6713  0.2732 -0.7247
  283MOL0     C38096   6.772   4.232   1.838  0.4471 -0.6718 -0.4426
  283MOL0     C38097   6.637   4.185   1.819  0.2708 -0.2956 -0.3984
  283MOL0     C38098   6.559   4.258   1.729  0.8795 -0.0558  0.3443
  283MOL0     C38099   6.430   4.199   1.701  0.8650  0.5567  0.6775
  283MOL0     O38100   6.374   4.216   1.574  0.5154  0.4143  0.9272
  283MOL0     C38101   6.255   4.150   1.547  0.3141 -0.5844  0.0975
  283MOL0     C38102   6.232   4.010   1.562  1.2088  0.5506  0.2307
  283MOL0     C38103   6.107   3.951   1.533 -0.3149  0.0092 -0.3882
  283MOL0     C38104   6.002   4.028   1.496 -0.0520 -0.6429  0.3511
  283MOL0     O38105   5.873   3.980   1.493 -0.7789 -0.1798  0.0956
  283MOL0     C38106   5.859   3.848   1.425  0.3426 -0.5527 -0.8819
  283MOL0     C38107   5.717   3.825   1.373 -0.0564 -0.0856  0.5547
  283MOL0     C38108   5.667   3.941   1.285 -0.1183 -0.5537 -0.0500
  283MOL0     C38109   5.538   3.904   1.220 -0.1883  0.1331  0.8766
  283MOL0     C38110   5.500   3.976   1.090  0.7160 -0.3273 -0.7687
  283MOL0     C38111   5.565   3.961   0.953  0.6270  0.1783 -0.3184
  283MOL0     C38112   5.505   4.067   0.858 -0.4849 -0.6724  0.0685
  283MOL0     C38113   5.606   4.178   0.817  0.3623 -0.0648  0.3127
  283MOL0    Cl38114   5.615   4.306   0.945  0.6712  0.1930  0.3921
  283MOL0     C38115   6.017   4.163   1.482 -0.2390  0.0233  0.3470
  283MOL0     C38116   6.136   4.226   1.519  0.5996 -0.8003  0.4197
  283MOL0     O38117   6.367   4.131   1.789 -0.6232  0.2939 -0.3587
  283MOL0     C38118   6.613   4.358   1.647  0.2378 -0.6991  0.2454
  283MOL0     C38119   6.747   4.391   1.655 -0.4053 -0.4025  0.3049
  283MOL0     N38120   7.456   4.606   1.974 -0.0290 -0.6023  0.7549
  283MOL0     N38121   7.456   4.627   2.102  0.1741  0.0925 -0.0945
  283MOL0     C38122   7.009   5.475   2.637 -0.1712  0.0269 -0.1431
  283MOL0     C38123   6.937   5.566   2.717  1.0103  0.0168 -0.7872
  283MOL0     C38124   6.677   5.828   2.954  0.2493  0.2153 -0.1950
  283MOL0     C38125   6.722   5.817   3.087 -0.8323  0.2250  0.2214
  283MOL0     C38126   6.699   5.917   3.183 -0.3990  0.0554  0.2580
  283MOL0     C38127   6.623   6.028   3.147  0.1980 -1.0026 -0.2224
  283MOL0     O38128   6.608   6.118   3.257  0.6283 -0.2010  0.8619
  283MOL0     C38129   6.578   6.257   3.223  0.3611 -0.7924 -0.1743
  283MOL0     C38130   6.569   6.350   3.350 -0.3864  0.0808  0.5421
  283MOL0     C38131   6.706   6.389   3.400 -0.1503  0.8240  1.4906
  283MOL0     C38132   6.769   6.299   3.509  0.3444 -0.0491 -1.0978
  283MOL0     C38133   6.890   6.353   3.566  0.0940 -0.7394 -0.1743
  283MOL0     C38134   6.981   6.413   3.623  0.1183 -0.1094 -0.7702
  283MOL0     C38135   6.582   6.048   3.014 -0.7114  0.3370 -0.6287
  283MOL0     C38136   6.609   5.950   2.909  0.5272 -0.6676  0.6864
  283MOL0     C38137   6.564   5.971   2.763  0.2934  0.4116  0.6059
  283MOL0     H38138   6.744   5.362   2.904 -0.2844  0.7084 -0.4095
  283MOL0     H38139   6.858   5.189   2.748  0.9295  0.3651 -2.0345
  283MOL0     H38140   7.045   5.108   2.712 -0.4735  2.7092  0.4134
  283MOL0     H38141   6.947   5.086   2.574  1.2832 -5.8772  0.1721
  283MOL0     H38142   7.256   5.038   2.589  0.2042 -1.6989 -1.5346
  283MOL0     H38143   7.177   5.050   2.431  0.7871 -3.9835 -1.7227
  283MOL0     H38144   7.043   4.865   2.463  0.2991 -1.0485  0.3023
  283MOL0     H38145   7.054   4.865   2.640 -0.3400  0.8848 -0.4586
  283MOL0     H38146   7.261   4.804   2.425  0.3914  3.1421  0.5940
  283MOL0     H38147   7.316   4.806   2.586  1.3556  0.4531 -1.3357
  283MOL0     H38148   7.134   4.653   2.659 -0.6355 -1.0589  0.4944
  283MOL0     H38149   7.077   4.631   2.483 -0.2293 -2.1892  1.0653
  283MOL0     H38150   7.356   4.540   2.579 -0.3424  1.8432 -0.7481
  283MOL0     H38151   7.211   4.446   2.601 -0.6539 -2.5864 -2.6958
  283MOL0     H38152   7.181   4.509   2.330  0.5244 -0.3094 -2.2102
  283MOL0     H38153   7.284   4.374   2.385 -1.5538  0.4848  1.0741
  283MOL0     H38154   7.402   4.656   2.330 -2.5752  0.5523 -0.1007
  283MOL0     H38155   7.479   4.504   2.368  0.2436  1.1018  1.6841
  283MOL0     H38156   7.290   4.349   2.099  0.2706 -0.9959 -2.3649
  283MOL0     H38157   7.443   4.424   1.775 -1.4038  2.3223 -1.7257
  283MOL0     H38158   7.339   4.304   1.859 -0.7480  0.6673  1.0975
  283MOL0     H38159   7.255   4.542   1.692 -0.3890  2.0531  1.6958
  283MOL0     H38160   7.198   4.374   1.702  0.3206 -2.8975  3.3950
  283MOL0     H38161   7.145   4.606   1.873  1.2218 -0.7224  1.5239
  283MOL0     H38162   7.109   4.439   1.940 -0.2834  0.3402 -1.0382
  283MOL0     H38163   6.992   4.524   1.665 -0.3194 -2.7002 -1.6198
  283MOL0     H38164   6.918   4.538   1.829  1.5582  1.2577  0.7203
  283MOL0     H38165   6.842   4.195   1.912 -1.0768 -2.1801  0.3226
  283MOL0     H38166   6.596   4.109   1.885  2.3254 -0.0891  1.2465
  283MOL0     H38167   6.317   3.950   1.592  1.8360  0.9902 -0.6035
  283MOL0     H38168   6.087   3.846   1.550 -1.6419  0.3661  0.4143
  283MOL0     H38169   5.924   3.829   1.339  0.5420 -1.3449 -0.5664
  283MOL0     H38170   5.869   3.768   1.499  1.5525  0.9000  0.5691
  283MOL0     H38171   5.720   3.725   1.329  0.4810 -0.6522  1.8183
  283MOL0     H38172   5.660   3.803   1.464  2.2408  1.2684  2.4674
  283MOL0     H38173   5.657   4.029   1.351 -0.5992 -0.7122  0.0945
  283MOL0     H38174   5.742   3.959   1.208 -1.2072 -0.5029 -1.1170
  283MOL0     H38175   5.458   3.904   1.294  0.8247 -2.5163  2.1388
  283MOL0     H38176   5.552   3.798   1.196 -1.7515  0.2072 -0.5416
  283MOL0     H38177   5.503   4.080   1.124  1.0545 -0.7357  0.4885
  283MOL0     H38178   5.395   3.950   1.076  0.6305 -1.1179  1.1285
  283MOL0     H38179   5.672   3.981   0.956  0.7032  0.2394 -2.4338
  283MOL0     H38180   5.539   3.861   0.917  2.4881 -0.8710  1.0872
  283MOL0     H38181   5.429   4.120   0.915  1.6325 -0.8802  3.3298
  283MOL0     H38182   5.480   4.009   0.769  0.6402 -0.8515 -0.1488
  283MOL0     H38183   5.700   4.137   0.780  0.3073  1.4119 -1.5735
  283MOL0     H38184   5.563   4.224   0.728  3.4258 -1.8360 -2.2532
  283MOL0     H38185   5.933   4.221   1.447  0.2029  0.0777 -0.6662
  283MOL0     H38186   6.141   4.334   1.510  0.1245 -0.9581 -3.2484
  283MOL0     H38187   6.549   4.401   1.570 -1.5815 -1.0222  1.4985
  283MOL0     H38188   6.776   4.459   1.576  2.5284 -2.0724 -0.2040
  283MOL0     H38189   7.086   5.512   2.571  0.3531 -0.7263  0.0341
  283MOL0     H38190   6.953   5.673   2.708 -3.3401  1.5022  3.8698
  283MOL0     H38191   6.782   5.732   3.118 -1.7244  0.2581  2.2230
  283MOL0     H38192   6.722   5.902   3.288 -0.1539 -0.2212  0.1670
  283MOL0     H38193   6.475   6.261   3.186  1.5047  0.4916 -3.7157
  283MOL0     H38194   6.639   6.311   3.150  1.7925 -0.9879  0.8409
  283MOL0     H38195   6.502   6.298   3.419  0.5254  0.1533  1.5165
  283MOL0     H38196   6.524   6.447   3.326  1.6507  1.0665  0.4490
  283MOL0     H38197   6.692   6.484   3.453  1.4758  1.4296  0.9114
  283MOL0     H38198   6.773   6.392   3.314 -1.6159 -0.9276  0.2220
  283MOL0     H38199   6.695   6.272   3.584  1.5855  0.9815  0.5563
  283MOL0     H38200   6.794   6.200   3.469  0.3795 -0.8530  0.8201
  283MOL0     H38201   7.060   6.473   3.664  1.0746 -1.3358 -0.7652
  283MOL0     H38202   6.527   6.133   2.975 -0.7048 -0.3997 -2.3325
  283MOL0     H38203   6.648   5.972   2.693 -0.3830 -1.7614 -0.3211
  283MOL0     H38204   6.485   5.898   2.744 -1.8139  2.2917  1.7779
  283MOL0     H38205   6.532   6.075   2.772 -3.8309 -0.5779 -0.3808
  284MOL0     O38206   8.484   5.078   7.499 -0.4850  0.6461  0.9133
  284MOL0     C38207   8.519   5.190   7.474  0.5578 -0.6437 -0.3926
  284MOL0     O38208   8.642   5.247   7.508 -0.3806 -0.1760 -0.4010
  284MOL0     C38209   8.738   5.183   7.589  0.4373 -0.7115  0.0532
  284MOL0     C38210   8.864   5.176   7.530 -0.0022  0.4377 -0.1551
  284MOL0     C38211   8.967   5.143   7.616  0.2032  0.3604  0.2797
  284MOL0     C38212   8.936   5.093   7.744 -1.0678  0.3091  0.4829
  284MOL0     O38213   9.033   5.030   7.821  0.2731  0.1092  0.1295
  284MOL0     C38214   9.170   5.061   7.805  0.7717 -0.0281  0.3136
  284MOL0     C38215   9.208   5.206   7.815  0.6586  0.4418 -0.1789
  284MOL0     C38216   9.351   5.222   7.853 -0.1296  0.8088  0.3083
  284MOL0     C38217   9.445   5.200   7.731  0.5128  0.1718  0.2260
  284MOL0     C38218   9.594   5.240   7.742 -0.7423 -0.2640  0.2822
  284MOL0     C38219   9.664   5.155   7.847  0.8190 -0.7118  0.1893
  284MOL0     C38220   9.662   5.001   7.815 -0.8419 -0.2128  0.3605
  284MOL0     C38221   9.789   4.916   7.853 -0.0543  0.4320 -0.1974
  284MOL0     N38222   9.763   4.773   7.819 -0.1193 -0.7121 -0.2462
  284MOL0     C38223   9.760   4.726   7.692  0.7744 -0.0332 -0.1260
  284MOL0     C38224   9.797   4.603   7.700  0.5075 -0.7840  0.2282
  284MOL0     C38225   9.815   4.520   7.575  0.5624  0.0459  0.2216
  284MOL0     C38226   9.953   4.559   7.519 -1.0817 -0.8070  0.4655
  284MOL0     C38227   9.986   4.456   7.409  0.7440  0.5772 -0.9463
  284MOL0     C38228  10.111   4.385   7.426  0.0430 -0.0113 -0.2597
  284MOL0     O38229  10.218   4.476   7.410 -0.5865  0.1748  0.4182
  284MOL0     C38230  10.342   4.422   7.438  1.2020  0.4095 -1.0589
  284MOL0     C38231  10.444   4.508   7.454 -0.8450  0.2561 -0.3600
  284MOL0     C38232  10.567   4.465   7.497 -0.1903 -0.1439  0.0454
  284MOL0     C38233  10.587   4.333   7.546 -0.1014 -0.5276  0.0995
  284MOL0     C38234  10.705   4.306   7.623 -0.6141 -0.0851  0.4440
  284MOL0     O38235  10.729   4.177   7.631 -0.0163  0.2472 -0.6289
  284MOL0     C38236  10.853   4.134   7.674 -0.0641  0.0948  0.6150
  284MOL0     C38237  10.873   4.064   7.788  0.7810 -0.1690  0.0225
  284MOL0     C38238  11.004   4.017   7.822  0.5495  0.3364 -0.3175
  284MOL0     C38239  11.104   4.029   7.732 -0.5958 -0.2426 -0.4473
  284MOL0     O38240  11.228   3.975   7.765 -0.1046 -0.1763  0.5815
  284MOL0     C38241  11.326   4.080   7.789 -0.4841  0.3577 -0.1077
  284MOL0     C38242  11.428   4.026   7.890 -0.4772  0.6216  0.2850
  284MOL0     C38243  11.547   4.123   7.897  0.3440  0.1051 -0.7687
  284MOL0     C38244  11.629   4.114   8.026 -0.4569 -0.9122 -0.5705
  284MOL0     C38245  11.746   4.202   8.010  0.3415 -0.4121 -0.6119
  284MOL0     C38246  11.861   4.179   8.091  0.3176  0.5040 -0.0149
  284MOL0     C38247  11.903   4.032   8.111 -0.5475 -0.4539 -0.2482
  284MOL0     C38248  12.038   4.019   8.175 -0.0690  0.1409  0.6724
  284MOL0    Cl38249  12.176   4.033   8.046 -0.2918 -0.5087 -0.6177
  284MOL0     C38250  11.098   4.119   7.626  0.1786 -0.4345 -0.1351
  284MOL0     C38251  10.966   4.171   7.590  0.9199 -0.1870 -0.2577
  284MOL0     O38252  10.777   4.395   7.651 -0.1218  0.0467  0.1365
  284MOL0     C38253  10.481   4.245   7.522  0.0218  0.6692 -0.5598
  284MOL0     C38254  10.359   4.288   7.476 -0.3228 -1.0931  0.4436
  284MOL0     N38255   9.813   4.574   7.835  0.2093 -0.6131  0.5224
  284MOL0     N38256   9.800   4.679   7.910 -0.1862  0.0826  0.4727
  284MOL0     C38257   8.812   5.107   7.797 -0.0361  0.5327 -0.2686
  284MOL0     C38258   8.707   5.155   7.722  0.4420  0.5482  0.3908
  284MOL0     C38259   8.432   5.288   7.406 -0.6645  0.7785  0.6735
  284MOL0     C38260   8.487   5.419   7.376 -0.6131 -0.6762  0.7565
  284MOL0     C38261   8.417   5.524   7.316  0.5045  0.4452 -0.5091
  284MOL0     C38262   8.284   5.486   7.267 -0.1350 -0.6653  0.2909
  284MOL0     O38263   8.200   5.582   7.213 -1.1951 -0.4263 -0.1047
  284MOL0     C38264   8.260   5.704   7.158  1.4815 -0.4395  0.1435
  284MOL0     C38265   8.159   5.797   7.116  0.1750  0.0168  0.6070
  284MOL0     C38266   8.095   5.877   7.232  0.1497 -0.1237  0.1405
  284MOL0     C38267   8.172   6.003   7.267 -0.0575  0.1394  0.3199
  284MOL0     C38268   8.108   6.074   7.377 -0.6034  1.2826  0.4499
  284MOL0     C38269   8.036   6.139   7.452 -0.3155  0.1761 -0.0138
  284MOL0     C38270   8.229   5.370   7.294  0.2314  0.0810  1.2694
  284MOL0     C38271   8.290   5.268   7.370  0.1213  0.1624  0.6457
  284MOL0     C38272   8.209   5.144   7.388 -0.2547 -0.2647  0.7126
  284MOL0     H38273   8.884   5.222   7.434 -0.2485 -0.9555 -0.8919
  284MOL0     H38274   9.067   5.156   7.574 -0.0607 -1.8168 -1.1622
  284MOL0     H38275   9.232   4.997   7.870  0.5894  0.7384  1.2616
  284MOL0     H38276   9.200   5.026   7.706  0.0540  2.2277 -0.7540
  284MOL0     H38277   9.141   5.254   7.887 -0.8416 -2.7539  0.7304
  284MOL0     H38278   9.186   5.248   7.716 -1.5332 -0.4771 -0.1275
  284MOL0     H38279   9.385   5.170   7.944 -0.3066  1.3490  0.6885
  284MOL0     H38280   9.373   5.316   7.906 -0.2313  2.3652 -2.2679
  284MOL0     H38281   9.437   5.091   7.717 -1.6403  0.3493 -0.3767
  284MOL0     H38282   9.405   5.258   7.647 -1.6749 -2.3989 -0.6808
  284MOL0     H38283   9.649   5.240   7.648  0.8244 -2.3924  1.0984
  284MOL0     H38284   9.609   5.342   7.777  1.1508 -0.5348  0.3650
  284MOL0     H38285   9.770   5.182   7.850  1.4194 -2.9538  0.9113
  284MOL0     H38286   9.628   5.173   7.948  1.7720  1.4333  0.2208
  284MOL0     H38287   9.653   4.995   7.706  0.5952  0.3573  0.1907
  284MOL0     H38288   9.577   4.953   7.866 -0.6081 -3.0475 -1.7305
  284MOL0     H38289   9.879   4.940   7.795  1.1904 -3.9922 -0.4426
  284MOL0     H38290   9.810   4.929   7.959 -2.4519 -0.6129  0.4512
  284MOL0     H38291   9.729   4.783   7.605  1.6700  2.3441  1.0398
  284MOL0     H38292   9.797   4.416   7.604 -0.8018  0.1490 -0.1798
  284MOL0     H38293   9.740   4.540   7.498 -0.3462  1.1366  1.3518
  284MOL0     H38294   9.971   4.664   7.493 -1.3131 -0.2928  2.2508
  284MOL0     H38295  10.024   4.541   7.601 -0.3438  2.1304  0.5912
  284MOL0     H38296   9.991   4.507   7.313 -0.8331 -0.8566 -1.8522
  284MOL0     H38297   9.902   4.385   7.402  1.0696 -0.1326  1.3153
  284MOL0     H38298  10.122   4.307   7.350 -0.7199 -0.1932 -0.1870
  284MOL0     H38299  10.115   4.332   7.521 -4.8374 -0.2337  0.0717
  284MOL0     H38300  10.435   4.612   7.424 -0.2197  0.7523  1.0656
  284MOL0     H38301  10.649   4.535   7.489 -0.1631 -0.2047 -0.2202
  284MOL0     H38302  10.792   4.054   7.859 -0.4219  0.8038 -1.1714
  284MOL0     H38303  11.028   3.973   7.918  1.1492  1.3227  0.0013
  284MOL0     H38304  11.374   4.114   7.697  3.1020 -0.8268  1.1519
  284MOL0     H38305  11.296   4.171   7.841  3.0604  1.7423 -0.1927
  284MOL0     H38306  11.377   4.014   7.986 -4.1498  2.3577 -1.2634
  284MOL0     H38307  11.459   3.925   7.862  3.2078  1.3249  1.3623
  284MOL0     H38308  11.612   4.096   7.813  1.4309  1.4046 -0.3753
  284MOL0     H38309  11.496   4.219   7.885 -0.4841 -0.3643 -1.0776
  284MOL0     H38310  11.647   4.007   8.042 -0.3436 -1.1545 -2.1608
  284MOL0     H38311  11.570   4.133   8.116 -1.8960 -0.0951 -1.6398
  284MOL0     H38312  11.715   4.306   8.025  0.4600 -0.4000 -0.4404
  284MOL0     H38313  11.774   4.184   7.906 -0.6181 -0.9103 -0.7921
  284MOL0     H38314  11.944   4.234   8.046 -1.9788  1.6301 -3.1881
  284MOL0     H38315  11.858   4.217   8.194  2.0454 -0.3580  0.4155
  284MOL0     H38316  11.892   3.989   8.011 -1.9891 -0.6163 -0.0348
  284MOL0     H38317  11.830   3.980   8.173  0.7211  1.0626  2.7373
  284MOL0     H38318  12.047   4.086   8.261 -2.1373  1.7213 -0.2431
  284MOL0     H38319  12.048   3.921   8.221  1.1752  1.5648  3.6556
  284MOL0     H38320  11.193   4.135   7.577  1.3179 -3.6147  0.7891
  284MOL0     H38321  10.941   4.233   7.504  0.1015 -3.1311 -2.3065
  284MOL0     H38322  10.477   4.145   7.564 -1.3334 -0.0356 -2.2464
  284MOL0     H38323  10.277   4.217   7.471 -2.3005  1.0221  0.9108
  284MOL0     H38324   8.792   5.080   7.901 -1.3726  2.5558  0.0525
  284MOL0     H38325   8.604   5.160   7.757 -0.1551  1.7370 -1.3449
  284MOL0     H38326   8.593   5.437   7.395 -0.1268 -1.7376 -0.6806
  284MOL0     H38327   8.454   5.625   7.321  2.5145 -0.2276  3.9527
  284MOL0     H38328   8.326   5.675   7.075  0.8406 -1.6230  0.0333
  284MOL0     H38329   8.329   5.759   7.222  1.0051  0.5255 -0.1587
  284MOL0     H38330   8.081   5.740   7.065  0.6494  0.0429 -0.1590
  284MOL0     H38331   8.208   5.857   7.038  1.2896 -0.7220  0.7129
  284MOL0     H38332   8.086   5.811   7.320  2.3403  1.7292  1.8940
  284MOL0     H38333   7.992   5.905   7.207 -0.1594 -1.9979 -0.8772
  284MOL0     H38334   8.278   5.985   7.287 -0.4699 -0.7700  1.8552
  284MOL0     H38335   8.141   6.067   7.184 -0.6842  0.4366  0.7780
  284MOL0     H38336   7.974   6.202   7.513  0.1768  1.0232 -0.3750
  284MOL0     H38337   8.128   5.357   7.256  0.8983 -0.1101 -0.5747
  284MOL0     H38338   8.223   5.075   7.304  1.2384  1.8510 -0.8617
  284MOL0     H38339   8.240   5.091   7.479 -0.2179 -2.2852 -0.4124
  284MOL0     H38340   8.102   5.166   7.396 -0.4537  0.1086 -2.0656
  285MOL0     O38341   2.131  11.386   0.675  0.3241 -0.7900  0.0572
  285MOL0     C38342   2.120  11.312   0.579 -0.7462 -0.1585  0.5290
  285MOL0     O38343   2.221  11.283   0.489 -0.0839  0.0036  0.6963
  285MOL0     C38344   2.319  11.383   0.495  0.9475 -0.4520  0.6256
  285MOL0     C38345   2.294  11.514   0.444  0.3075  0.2951  0.2404
  285MOL0     C38346   2.384  11.615   0.460  0.0758 -0.1625  0.9087
  285MOL0     C38347   2.510  11.594   0.524  0.3508 -0.1422 -0.3413
  285MOL0     O38348   2.577  11.713   0.539  0.1615 -0.4724 -0.2346
  285MOL0     C38349   2.691  11.718   0.626 -0.5132 -0.4223  0.9936
  285MOL0     C38350   2.731  11.869   0.625  0.8797  0.7577 -0.0417
  285MOL0     C38351   2.867  11.893   0.685  0.9906  0.2657  1.0343
  285MOL0     C38352   2.919  12.031   0.657 -0.8536 -1.2154  0.6098
  285MOL0     C38353   3.076  12.046   0.669 -0.7267 -0.9226 -0.1781
  285MOL0     C38354   3.137  12.006   0.804 -0.0908 -0.0967  0.4237
  285MOL0     C38355   3.183  11.869   0.828  0.5371  0.0918  0.0775
  285MOL0     C38356   3.205  11.825   0.971  0.2960 -0.6599  0.0572
  285MOL0     N38357   3.253  11.688   0.982 -0.1784  0.0663  0.0961
  285MOL0     C38358   3.159  11.584   1.003 -0.7198 -0.7282  1.0695
  285MOL0     C38359   3.239  11.471   1.003  0.2101 -0.9975 -0.1131
  285MOL0     C38360   3.175  11.335   1.014 -0.2082 -0.9313 -0.5353
  285MOL0     C38361   3.151  11.297   1.161 -0.3618  1.2439 -0.5019
  285MOL0     C38362   3.127  11.149   1.177 -0.6450  0.0538 -0.1562
  285MOL0     C38363   3.078  11.117   1.311  0.3408 -0.0046  0.2832
  285MOL0     O38364   2.952  11.182   1.320  0.4188  0.7071 -0.0461
  285MOL0     C38365   2.832  11.122   1.364  0.0728 -0.2756 -0.0407
  285MOL0     C38366   2.713  11.189   1.347 -0.6917  0.0083  0.5545
  285MOL0     C38367   2.594  11.145   1.400 -0.6920  1.1893 -0.2536
  285MOL0     C38368   2.582  11.026   1.466 -0.2870  0.4291 -0.1935
  285MOL0     C38369   2.451  10.984   1.528 -0.2127 -0.9289  0.4378
  285MOL0     O38370   2.444  10.858   1.583  0.5602 -0.6443 -0.7081
  285MOL0     C38371   2.337  10.811   1.657  0.1508 -0.5781 -0.0215
  285MOL0     C38372   2.338  10.674   1.692  0.0696  0.0178  0.5843
  285MOL0     C38373   2.245  10.601   1.752  0.6120 -0.2381  1.2777
  285MOL0     C38374   2.138  10.667   1.806  0.6388  0.2965 -1.3045
  285MOL0     O38375   2.022  10.596   1.848  0.1130 -0.2034  0.3324
  285MOL0     C38376   2.041  10.458   1.891 -0.2323 -0.9765 -0.3999
  285MOL0     C38377   1.902  10.396   1.892 -0.0904  0.2920  0.0453
  285MOL0     C38378   1.800  10.483   1.962  0.0332 -0.7670  0.0458
  285MOL0     C38379   1.668  10.416   1.975  0.1956 -0.8029  0.1432
  285MOL0     C38380   1.649  10.300   2.074 -0.2828  0.3391 -0.5591
  285MOL0     C38381   1.499  10.248   2.076 -0.8707  0.2254 -0.1870
  285MOL0     C38382   1.493  10.125   2.159  0.6749 -0.7441 -0.0258
  285MOL0     C38383   1.354  10.068   2.146 -0.6504  0.3500 -0.2882
  285MOL0    Cl38384   1.331   9.936   2.273 -0.1614  0.4768  0.6765
  285MOL0     C38385   2.120  10.806   1.774  0.4009 -0.0679 -0.2523
  285MOL0     C38386   2.223  10.876   1.708 -0.1190 -0.1007 -0.3336
  285MOL0     O38387   2.358  11.058   1.498  0.5677  1.0774  0.0130
  285MOL0     C38388   2.702  10.948   1.479  0.3455 -0.1044  0.5325
  285MOL0     C38389   2.819  10.997   1.423 -0.8250 -1.3969  0.2073
  285MOL0     N38390   3.377  11.508   0.984 -0.4936 -0.0650 -0.6700
  285MOL0     N38391   3.382  11.637   0.970 -0.2717  0.2465  0.4195
  285MOL0     C38392   2.547  11.457   0.558  0.1449 -0.6209  0.1852
  285MOL0     C38393   2.443  11.363   0.552  0.1453  0.6712 -1.0431
  285MOL0     C38394   1.993  11.247   0.545 -0.0490 -0.2162  0.1280
  285MOL0     C38395   1.985  11.159   0.436  0.2304 -1.5070  0.2668
  285MOL0     C38396   1.864  11.119   0.375  0.2087  0.0044 -0.3790
  285MOL0     C38397   1.753  11.183   0.413 -0.5685  0.2405  0.3084
  285MOL0     O38398   1.641  11.152   0.342 -0.0933 -0.1996 -0.1047
  285MOL0     C38399   1.533  11.247   0.341  0.4697 -0.0732 -0.0998
  285MOL0     C38400   1.448  11.210   0.222  0.2633  0.0940 -0.4207
  285MOL0     C38401   1.318  11.292   0.208 -0.2183  0.4862  0.2777
  285MOL0     C38402   1.208  11.252   0.305  0.3114 -0.9073  0.9944
  285MOL0     C38403   1.073  11.285   0.258  0.2567 -0.3542 -0.1409
  285MOL0     C38404   0.955  11.315   0.229 -0.6738 -0.4955  0.6586
  285MOL0     C38405   1.752  11.254   0.539 -1.1064  0.1977 -0.4382
  285MOL0     C38406   1.870  11.287   0.605  0.1759  0.0346 -1.0541
  285MOL0     C38407   1.859  11.373   0.731 -0.6316  0.1869  0.9271
  285MOL0     H38408   2.200  11.543   0.399  0.2967  1.0697  0.7360
  285MOL0     H38409   2.351  11.717   0.443 -2.1634 -1.3491 -3.4014
  285MOL0     H38410   2.660  11.681   0.725 -2.1964  2.6627  1.7488
  285MOL0     H38411   2.777  11.663   0.587 -0.2428  1.5491 -1.3410
  285MOL0     H38412   2.659  11.932   0.677  0.9372 -1.5983  3.2066
  285MOL0     H38413   2.728  11.916   0.526 -1.4841 -1.8210 -1.3527
  285MOL0     H38414   2.931  11.816   0.642  2.0629  1.9083 -0.4368
  285MOL0     H38415   2.856  11.871   0.792  2.1820 -0.3841  1.0292
  285MOL0     H38416   2.873  12.051   0.561  0.4024 -0.6878  0.0905
  285MOL0     H38417   2.868  12.107   0.717 -2.2530 -0.1479 -1.7782
  285MOL0     H38418   3.115  11.991   0.583 -2.1183 -0.4025 -1.1847
  285MOL0     H38419   3.082  12.154   0.657 -2.3332 -0.8248 -0.3259
  285MOL0     H38420   3.221  12.075   0.816 -1.2796  1.3119  1.0353
  285MOL0     H38421   3.058  12.038   0.873 -1.1418  1.3198 -1.3413
  285MOL0     H38422   3.276  11.855   0.772 -0.1266  1.2580 -1.3824
  285MOL0     H38423   3.113  11.801   0.779  1.9780 -1.1942 -0.2778
  285MOL0     H38424   3.284  11.891   1.008 -0.4461  0.7635 -0.8457
  285MOL0     H38425   3.119  11.841   1.036 -0.6076  0.4628 -1.3725
  285MOL0     H38426   3.052  11.600   1.007 -1.0049 -1.3747 -1.9458
  285MOL0     H38427   3.078  11.324   0.965 -0.5872 -1.2465  0.2531
  285MOL0     H38428   3.236  11.259   0.963  0.6528  0.0821 -1.0476
  285MOL0     H38429   3.241  11.324   1.217 -0.1733  2.5527 -1.3794
  285MOL0     H38430   3.072  11.364   1.197 -1.9851 -0.7991 -0.0666
  285MOL0     H38431   3.208  11.077   1.160  0.3254  0.8971  0.7711
  285MOL0     H38432   3.054  11.127   1.098 -0.5042  1.5475 -0.7314
  285MOL0     H38433   3.155  11.147   1.382 -0.1794  2.6004 -0.1534
  285MOL0     H38434   3.062  11.008   1.306 -4.2036  0.4816 -0.4073
  285MOL0     H38435   2.719  11.282   1.290 -0.6716 -1.3992 -1.8459
  285MOL0     H38436   2.516  11.215   1.368 -0.5661  1.6034  0.3427
  285MOL0     H38437   2.419  10.615   1.649 -1.9989 -0.9327 -2.3664
  285MOL0     H38438   2.269  10.495   1.752  0.5818 -0.3035 -1.1235
  285MOL0     H38439   2.098  10.393   1.824 -0.6143 -2.7349  0.8990
  285MOL0     H38440   2.083  10.451   1.992  2.2365 -1.4146 -1.3794
  285MOL0     H38441   1.867  10.378   1.790  0.9594 -3.4864  0.1977
  285MOL0     H38442   1.898  10.295   1.934  0.3922  0.3155  0.1514
  285MOL0     H38443   1.832  10.514   2.063 -0.5578  1.3876 -0.3643
  285MOL0     H38444   1.782  10.577   1.909 -0.6565 -0.2140  1.2046
  285MOL0     H38445   1.631  10.385   1.877 -1.9445 -1.8732  1.1997
  285MOL0     H38446   1.592  10.486   2.010 -0.9231 -2.2352  0.7031
  285MOL0     H38447   1.693  10.324   2.171 -0.6565  1.7562 -0.7172
  285MOL0     H38448   1.709  10.215   2.040 -1.7142 -1.9383  2.1885
  285MOL0     H38449   1.445  10.328   2.128  0.9878  0.5266  1.3869
  285MOL0     H38450   1.448  10.233   1.980 -0.7125 -0.6535 -0.1436
  285MOL0     H38451   1.501  10.151   2.265 -1.1168 -0.2724  0.0333
  285MOL0     H38452   1.565  10.044   2.144  0.2593 -1.2113  0.4471
  285MOL0     H38453   1.279  10.146   2.161 -2.4604 -1.5122  0.8259
  285MOL0     H38454   1.342  10.028   2.045  1.7076 -0.6806 -0.2183
  285MOL0     H38455   2.028  10.853   1.807 -0.7258 -1.5555 -1.1356
  285MOL0     H38456   2.206  10.982   1.691  3.2378  0.6342  0.2324
  285MOL0     H38457   2.693  10.851   1.527 -0.3785  0.1794  0.9795
  285MOL0     H38458   2.913  10.945   1.435  1.0308  1.6879 -0.0928
  285MOL0     H38459   2.638  11.429   0.609 -0.0205 -0.6689  0.4536
  285MOL0     H38460   2.463  11.267   0.600  0.2101  1.6964  1.1344
  285MOL0     H38461   2.075  11.131   0.382  0.2331  1.8595 -1.7564
  285MOL0     H38462   1.873  11.039   0.302 -0.3962  1.9153 -2.6801
  285MOL0     H38463   1.570  11.349   0.330  4.4534 -1.4700 -1.7545
  285MOL0     H38464   1.476  11.237   0.433 -0.9769  4.0382 -0.3475
  285MOL0     H38465   1.425  11.103   0.227  1.9194 -0.2572  0.0387
  285MOL0     H38466   1.497  11.231   0.127 -0.4758 -0.5944 -0.9727
  285MOL0     H38467   1.281  11.275   0.107 -2.5749  2.3407  0.6959
  285MOL0     H38468   1.335  11.400   0.221 -0.2306  0.6394 -0.8984
  285MOL0     H38469   1.220  11.145   0.326  1.1109 -0.8098  1.0612
  285MOL0     H38470   1.214  11.299   0.403  2.8668  0.6879  0.1673
  285MOL0     H38471   0.851  11.333   0.210  0.1142  3.5596 -0.7978
  285MOL0     H38472   1.663  11.310   0.564 -1.7566 -0.0389 -2.0588
  285MOL0     H38473   1.755  11.370   0.765 -1.1871  1.7792 -0.5179
  285MOL0     H38474   1.922  11.320   0.804  2.3490 -2.5665 -3.1734
  285MOL0     H38475   1.885  11.479   0.720  0.0205  0.4675  4.1871
  286MOL0     O38476  10.902   7.096   0.578  0.0196  0.4164 -0.2889
  286MOL0     C38477  10.823   7.106   0.677  0.1791 -0.1271 -0.3707
  286MOL0     O38478  10.839   7.055   0.808 -0.5633 -0.2664 -0.0958
  286MOL0     C38479  10.972   7.043   0.841 -0.5600  0.4854 -0.1503
  286MOL0     C38480  11.011   6.915   0.878 -0.0682  0.6117 -0.5566
  286MOL0     C38481  11.148   6.895   0.911  0.0721  0.1776  0.3266
  286MOL0     C38482  11.254   6.996   0.898  0.0048 -0.4868  0.3417
  286MOL0     O38483  11.388   6.997   0.924  0.2268  0.3580  0.1035
  286MOL0     C38484  11.448   6.868   0.922  0.4279  0.2117 -0.1972
  286MOL0     C38485  11.602   6.870   0.939  0.9422 -0.7446 -0.5024
  286MOL0     C38486  11.669   6.952   0.823 -0.6739 -0.2445 -0.3200
  286MOL0     C38487  11.823   6.940   0.826 -0.5215  0.2966 -0.0081
  286MOL0     C38488  11.876   6.831   0.739 -0.5152 -1.0032  0.3962
  286MOL0     C38489  12.030   6.820   0.765  0.0321  0.0859 -0.1463
  286MOL0     C38490  12.066   6.708   0.679 -0.1884 -0.4774  0.4815
  286MOL0     C38491  12.223   6.693   0.697 -0.0389  0.1755 -0.0597
  286MOL0     N38492  12.303   6.820   0.679  1.0030  1.0985 -1.0002
  286MOL0     C38493  12.383   6.876   0.779  0.6178 -0.7868  0.5921
  286MOL0     C38494  12.423   6.992   0.720  0.2255  0.3046 -0.3926
  286MOL0     C38495  12.516   7.099   0.787  0.1519  0.8839 -0.5199
  286MOL0     C38496  12.643   7.036   0.813  0.1468  1.3607 -0.1645
  286MOL0     C38497  12.750   7.136   0.866 -0.4345 -0.3316 -0.8210
  286MOL0     C38498  12.885   7.079   0.825 -0.0987 -0.2470  0.1488
  286MOL0     O38499  12.987   7.142   0.912  0.0183  0.4782 -0.3123
  286MOL0     C38500  13.118   7.152   0.857  0.3250  0.5679  0.7851
  286MOL0     C38501  13.175   7.059   0.767  0.1777  1.0281 -0.3115
  286MOL0     C38502  13.311   7.069   0.727  0.2973 -0.9748  0.3368
  286MOL0     C38503  13.390   7.178   0.768  0.3567 -0.2508 -0.7292
  286MOL0     C38504  13.518   7.204   0.701  0.5886  0.8926  1.0222
  286MOL0     O38505  13.547   7.110   0.609 -0.6550  0.2562  0.0225
  286MOL0     C38506  13.680   7.068   0.592  0.0014  0.1529 -0.0565
  286MOL0     C38507  13.702   7.025   0.461 -0.2145 -0.5598  0.7010
  286MOL0     C38508  13.837   6.993   0.435  0.5487 -1.1700 -0.1396
  286MOL0     C38509  13.951   7.011   0.525  0.5623 -0.3858 -0.9822
  286MOL0     O38510  14.076   6.979   0.484 -0.4730  0.5485  0.1097
  286MOL0     C38511  14.180   6.967   0.581 -0.1758 -0.3342 -0.1992
  286MOL0     C38512  14.246   7.097   0.596  0.6107 -0.6042  0.0081
  286MOL0     C38513  14.317   7.128   0.473  0.1232 -0.3245  1.2826
  286MOL0     C38514  14.359   7.279   0.460 -1.2427  0.0377  0.2772
  286MOL0     C38515  14.433   7.318   0.329  0.9334 -0.9746  0.1636
  286MOL0     C38516  14.520   7.206   0.261  0.3732 -0.2919 -0.7287
  286MOL0     C38517  14.542   7.227   0.113 -0.2102  0.3366  0.1612
  286MOL0     C38518  14.612   7.359   0.072  1.5533  0.4782  0.1483
  286MOL0    Cl38519  14.749   7.402   0.193 -0.7815  0.2528  0.3848
  286MOL0     C38520  13.921   7.056   0.653  0.5112 -0.4033 -0.3632
  286MOL0     C38521  13.782   7.074   0.686 -0.3341 -0.0150 -0.6724
  286MOL0     O38522  13.588   7.290   0.739  0.5242 -0.7722 -0.0581
  286MOL0     C38523  13.328   7.278   0.852 -1.3059 -0.3910 -0.0260
  286MOL0     C38524  13.196   7.263   0.890  0.2510 -1.4243  0.2397
  286MOL0     N38525  12.351   7.011   0.600  0.0232  0.3680  0.2324
  286MOL0     N38526  12.295   6.907   0.577 -0.3666  0.8793 -0.4957
  286MOL0     C38527  11.207   7.125   0.863 -0.5500 -0.1338 -0.1727
  286MOL0     C38528  11.070   7.141   0.833  0.2346  0.1109 -1.0212
  286MOL0     C38529  10.691   7.164   0.661  0.7281 -0.3729 -0.1511
  286MOL0     C38530  10.592   7.078   0.609  0.4108 -0.0577 -0.8995
  286MOL0     C38531  10.462   7.130   0.597 -1.0608  0.8468 -0.4039
  286MOL0     C38532  10.429   7.257   0.643  0.4736 -0.1345  0.7302
  286MOL0     O38533  10.310   7.318   0.635  0.2694 -0.0317  0.2218
  286MOL0     C38534  10.183   7.248   0.601  0.0585  0.3135  0.0981
  286MOL0     C38535  10.140   7.155   0.718  0.0295  0.8168  0.1166
  286MOL0     C38536   9.993   7.117   0.713 -0.0823  0.5425 -0.6509
  286MOL0     C38537   9.984   7.024   0.833 -0.2623  0.2255 -0.0420
  286MOL0     C38538   9.839   7.002   0.860  0.1658 -0.0908 -0.7181
  286MOL0     C38539   9.716   6.975   0.883 -0.5907  0.0612 -0.1712
  286MOL0     C38540  10.527   7.339   0.692 -0.4559 -0.3912 -0.2964
  286MOL0     C38541  10.660   7.296   0.701 -0.5957 -0.2724 -0.0377
  286MOL0     C38542  10.774   7.385   0.769  0.7416 -0.7001  0.3748
  286MOL0     H38543  10.937   6.837   0.868 -0.0610  0.6010 -0.5263
  286MOL0     H38544  11.170   6.795   0.945  1.6358  0.1718 -0.6040
  286MOL0     H38545  11.397   6.822   1.008  1.4171  1.7363  1.2667
  286MOL0     H38546  11.414   6.821   0.829 -3.1910  1.0685  0.5152
  286MOL0     H38547  11.638   6.767   0.944  0.1266 -0.9898  0.7774
  286MOL0     H38548  11.622   6.912   1.037  2.0315 -0.3248 -0.8851
  286MOL0     H38549  11.642   7.057   0.835 -1.7383 -0.6680  1.5277
  286MOL0     H38550  11.632   6.923   0.725 -0.1455  1.7613 -1.1597
  286MOL0     H38551  11.862   7.033   0.784 -3.9588  1.8081 -0.1721
  286MOL0     H38552  11.859   6.927   0.929  2.0769  2.2152 -0.5799
  286MOL0     H38553  11.830   6.738   0.771 -0.2455 -1.3075 -0.0922
  286MOL0     H38554  11.858   6.861   0.635  1.5572 -0.5726  0.0960
  286MOL0     H38555  12.067   6.921   0.741  0.6232  0.5176  2.3266
  286MOL0     H38556  12.054   6.790   0.867 -1.3940  1.8871  0.7740
  286MOL0     H38557  12.057   6.746   0.577  0.7972  1.4053  1.0481
  286MOL0     H38558  12.006   6.620   0.702 -2.5651  1.5260  2.5809
  286MOL0     H38559  12.251   6.658   0.797  2.9247 -0.8384 -1.1271
  286MOL0     H38560  12.264   6.619   0.628  2.1550 -0.7400  2.0635
  286MOL0     H38561  12.401   6.830   0.875 -2.6629 -0.4129  1.5190
  286MOL0     H38562  12.520   7.186   0.720  1.6735  3.3374  2.5084
  286MOL0     H38563  12.466   7.120   0.882 -0.6016 -1.8999 -0.2341
  286MOL0     H38564  12.624   6.960   0.890  0.7786  0.6120 -0.7336
  286MOL0     H38565  12.677   6.985   0.723  0.8291  0.1319  0.7641
  286MOL0     H38566  12.748   7.132   0.976 -0.0939 -1.6461 -0.8376
  286MOL0     H38567  12.728   7.239   0.838 -0.6767 -0.1811 -0.1251
  286MOL0     H38568  12.907   7.108   0.722 -0.4824 -0.6512 -0.0499
  286MOL0     H38569  12.891   6.970   0.831 -2.0011 -0.3625  0.4829
  286MOL0     H38570  13.134   6.974   0.715  3.7358  0.2359 -2.1656
  286MOL0     H38571  13.346   6.991   0.661 -0.4028 -1.6784  0.7826
  286MOL0     H38572  13.622   7.010   0.389  0.5995 -3.6357  0.3040
  286MOL0     H38573  13.865   6.954   0.337  0.2683 -1.0230 -0.2811
  286MOL0     H38574  14.137   6.930   0.675  1.9698 -0.2146  0.9177
  286MOL0     H38575  14.251   6.892   0.545  0.9320  0.5910 -0.0261
  286MOL0     H38576  14.170   7.176   0.605  1.1548  0.0663 -1.0817
  286MOL0     H38577  14.318   7.101   0.678  2.7243 -0.7878 -1.7297
  286MOL0     H38578  14.401   7.059   0.469  0.9103  0.4705  2.9291
  286MOL0     H38579  14.256   7.109   0.384  3.1415 -2.4990 -0.5016
  286MOL0     H38580  14.427   7.309   0.540  1.6907  2.2145 -2.7338
  286MOL0     H38581  14.274   7.346   0.477 -0.1355  1.4306  0.5194
  286MOL0     H38582  14.505   7.400   0.342  0.0116 -0.2476  0.8811
  286MOL0     H38583  14.363   7.344   0.249  2.7185 -0.3876 -1.2918
  286MOL0     H38584  14.619   7.196   0.305  1.1580  2.5757 -1.5823
  286MOL0     H38585  14.472   7.109   0.274 -0.6157  0.6284  4.8850
  286MOL0     H38586  14.453   7.225   0.049  1.0135  2.4167 -1.7428
  286MOL0     H38587  14.603   7.140   0.086 -2.1475 -1.1212  0.2854
  286MOL0     H38588  14.634   7.336  -0.032 -2.8648 -2.9220 -0.3187
  286MOL0     H38589  14.541   7.442   0.072  0.5194 -0.3927 -0.3530
  286MOL0     H38590  13.994   7.077   0.730 -1.3978 -1.3936  1.8570
  286MOL0     H38591  13.752   7.112   0.783  0.0960 -1.3928  0.0252
  286MOL0     H38592  13.401   7.351   0.886 -0.4928 -0.6231 -1.1969
  286MOL0     H38593  13.154   7.334   0.959 -2.0136 -2.7088  0.2869
  286MOL0     H38594  11.282   7.200   0.841 -0.8944 -0.2736 -1.9420
  286MOL0     H38595  11.023   7.224   0.782 -2.4718 -0.0108  1.0250
  286MOL0     H38596  10.620   6.979   0.575  0.9220  0.4814 -2.1305
  286MOL0     H38597  10.392   7.057   0.557 -2.5086  2.8284 -1.7034
  286MOL0     H38598  10.203   7.178   0.519  1.6073 -0.7126  1.3024
  286MOL0     H38599  10.102   7.312   0.564  2.2038  0.9259 -4.1471
  286MOL0     H38600  10.166   7.216   0.805  3.6418  0.1372 -0.3287
  286MOL0     H38601  10.206   7.068   0.722  1.2172  1.6734 -0.3582
  286MOL0     H38602   9.961   7.072   0.619 -3.2795  1.9225 -0.3383
  286MOL0     H38603   9.930   7.206   0.715 -0.4694  0.2608  0.3503
  286MOL0     H38604  10.040   6.932   0.814  1.0750  0.4059  2.4848
  286MOL0     H38605  10.034   7.066   0.921  1.5127 -0.4156 -0.7063
  286MOL0     H38606   9.612   6.958   0.902 -0.7880  0.7156 -0.6281
  286MOL0     H38607  10.506   7.438   0.733  0.3783 -0.4609  0.3344
  286MOL0     H38608  10.759   7.390   0.877  0.7699  0.0462  0.3449
  286MOL0     H38609  10.875   7.350   0.747 -0.0761 -3.0034 -0.0961
  286MOL0     H38610  10.764   7.486   0.728  0.5215 -1.7725 -2.4375
  287MOL0     O38611   9.429   5.085  11.000  0.4228  0.2570  0.0706
  287MOL0     C38612   9.518   5.082  10.914  0.6820 -0.6618  0.8912
  287MOL0     O38613   9.490   5.073  10.776 -1.0931 -0.7180 -0.3626
  287MOL0     C38614   9.358   5.063  10.742  0.0767  0.6179 -0.7864
  287MOL0     C38615   9.323   5.145  10.642  0.4365  0.4349 -0.0213
  287MOL0     C38616   9.199   5.133  10.572 -0.6856  0.0382  0.2236
  287MOL0     C38617   9.095   5.050  10.621  0.0972 -0.5446  0.6941
  287MOL0     O38618   8.973   5.040  10.570  0.8392  0.6061  0.6866
  287MOL0     C38619   8.965   5.037  10.424  0.3230  0.5737 -0.9055
  287MOL0     C38620   8.856   4.943  10.373  0.3950  0.6605  0.1208
  287MOL0     C38621   8.853   4.807  10.444 -0.3251 -1.4449  0.3106
  287MOL0     C38622   8.737   4.724  10.373  0.1081  0.3990 -0.2533
  287MOL0     C38623   8.700   4.601  10.436  0.6514  0.5438 -0.5259
  287MOL0     C38624   8.666   4.611  10.589  0.7609 -1.1869  0.1761
  287MOL0     C38625   8.539   4.690  10.619 -0.3451 -0.1416 -0.0002
  287MOL0     C38626   8.497   4.688  10.762  0.3130 -1.1206  1.2503
  287MOL0     N38627   8.351   4.709  10.778  0.4173 -0.2213 -0.2970
  287MOL0     C38628   8.279   4.823  10.796  1.3077 -1.1688 -0.5141
  287MOL0     C38629   8.161   4.771  10.842 -0.3677 -0.4069 -0.0823
  287MOL0     C38630   8.060   4.862  10.908  0.4138  0.2913 -0.1596
  287MOL0     C38631   8.077   4.844  11.054 -0.8398 -0.8039  0.2069
  287MOL0     C38632   8.015   4.714  11.113  0.1987  0.2004  0.0789
  287MOL0     C38633   7.998   4.699  11.271 -0.0185  0.3007 -0.1599
  287MOL0     O38634   7.907   4.795  11.331 -0.0486  0.3718  0.6607
  287MOL0     C38635   7.771   4.773  11.348 -0.9858 -0.4512  0.1524
  287MOL0     C38636   7.702   4.857  11.430 -0.7842  0.1494  0.4331
  287MOL0     C38637   7.558   4.832  11.428  0.2025  0.1332 -1.7107
  287MOL0     C38638   7.502   4.725  11.359  0.5801  0.5989 -0.7879
  287MOL0     C38639   7.357   4.700  11.344  0.3285  0.0612 -0.4975
  287MOL0     O38640   7.315   4.638  11.223  0.3646  0.3964 -0.2948
  287MOL0     C38641   7.179   4.627  11.187  0.0642 -0.2613  0.0120
  287MOL0     C38642   7.147   4.613  11.047 -0.6898  0.1797 -0.0267
  287MOL0     C38643   7.021   4.574  11.013 -0.1939  0.8973 -0.6324
  287MOL0     C38644   6.918   4.567  11.108  0.9730 -0.5276  0.1977
  287MOL0     O38645   6.796   4.532  11.050 -0.4455 -0.5722 -0.6608
  287MOL0     C38646   6.703   4.460  11.114 -0.1874  1.0801 -0.3657
  287MOL0     C38647   6.576   4.547  11.104 -0.9017 -0.5728  0.1125
  287MOL0     C38648   6.449   4.470  11.142 -0.0104 -1.0836  0.3810
  287MOL0     C38649   6.331   4.565  11.158 -0.2286 -0.4689 -0.7500
  287MOL0     C38650   6.197   4.494  11.187  0.2351  0.0521 -0.0441
  287MOL0     C38651   6.145   4.406  11.065 -0.6741 -0.4728  0.1412
  287MOL0     C38652   6.155   4.258  11.106  0.0997 -0.4030 -0.0575
  287MOL0     C38653   6.059   4.169  11.014 -1.3457 -0.1221 -0.0767
  287MOL0    Cl38654   5.892   4.201  11.049 -0.1385  0.4550 -0.4670
  287MOL0     C38655   6.950   4.593  11.245 -0.3471  0.6686 -0.0211
  287MOL0     C38656   7.081   4.606  11.282 -0.4906 -0.4488  0.7661
  287MOL0     O38657   7.287   4.741  11.436 -0.4585 -0.8885 -0.0729
  287MOL0     C38658   7.586   4.643  11.282  0.1307  0.3487  0.2650
  287MOL0     C38659   7.715   4.673  11.271 -0.1110 -0.0776  0.2680
  287MOL0     N38660   8.145   4.635  10.809  0.2013  0.4040  0.4511
  287MOL0     N38661   8.259   4.600  10.775  0.0093  0.5337  0.2509
  287MOL0     C38662   9.136   4.975  10.727  0.5513 -0.5019 -0.0465
  287MOL0     C38663   9.259   4.969  10.789 -1.0488  0.7440 -0.1787
  287MOL0     C38664   9.657   5.089  10.953  0.2307 -0.1501 -0.0960
  287MOL0     C38665   9.744   5.159  10.856 -0.4117  0.7319  0.2430
  287MOL0     C38666   9.877   5.164  10.881  0.2988 -0.8392 -0.3324
  287MOL0     C38667   9.940   5.098  10.982  0.4721  0.4388 -0.4164
  287MOL0     O38668  10.078   5.095  10.997 -0.1513 -0.9605 -0.2656
  287MOL0     C38669  10.142   5.059  11.119 -0.0359  0.5269  0.2501
  287MOL0     C38670  10.294   5.080  11.094  0.6858 -0.6536  0.2835
  287MOL0     C38671  10.371   5.016  11.207  0.1723 -0.0794  0.1668
  287MOL0     C38672  10.372   4.861  11.191 -0.4074  0.2308 -0.0879
  287MOL0     C38673  10.480   4.802  11.109  0.5638 -0.7121 -0.1838
  287MOL0     C38674  10.555   4.763  11.024 -0.3369 -0.8753  0.5518
  287MOL0     C38675   9.858   5.027  11.070 -0.9444  0.1904 -0.1825
  287MOL0     C38676   9.717   5.028  11.066 -0.4167  0.1648  0.0810
  287MOL0     C38677   9.633   4.955  11.170 -0.0631  0.1367 -0.7000
  287MOL0     H38678   9.389   5.220  10.598 -1.8485  2.1017 -0.7968
  287MOL0     H38679   9.173   5.202  10.493 -1.5385  0.1813  0.6218
  287MOL0     H38680   8.945   5.137  10.385 -0.2280  0.2727 -1.4348
  287MOL0     H38681   9.055   5.002  10.372 -1.4829 -2.2476 -2.4814
  287MOL0     H38682   8.878   4.920  10.269 -5.0896  0.3185 -1.2602
  287MOL0     H38683   8.756   4.987  10.377  0.0540 -0.0087 -0.6788
  287MOL0     H38684   8.817   4.829  10.545  1.5457  0.5892  0.6040
  287MOL0     H38685   8.954   4.765  10.440  0.9710  1.3894  0.8355
  287MOL0     H38686   8.640   4.772  10.358 -1.8771 -1.8469  3.8616
  287MOL0     H38687   8.769   4.699  10.271 -0.8223 -2.9410  0.1667
  287MOL0     H38688   8.611   4.557  10.389  0.5207 -0.9877  1.0265
  287MOL0     H38689   8.780   4.529  10.413  1.5012  0.8144  1.4128
  287MOL0     H38690   8.638   4.508  10.614  0.5781 -0.7252  2.0362
  287MOL0     H38691   8.749   4.641  10.653 -1.0128  0.6368  1.7627
  287MOL0     H38692   8.455   4.654  10.560 -0.3678  0.0496 -0.0821
  287MOL0     H38693   8.560   4.792  10.586  1.7555 -0.6074 -0.2305
  287MOL0     H38694   8.536   4.604  10.819  4.4574 -0.6491 -0.5184
  287MOL0     H38695   8.545   4.772  10.814 -1.2667 -1.2130  2.9418
  287MOL0     H38696   8.327   4.920  10.802 -0.1298 -0.4141 -0.6692
  287MOL0     H38697   8.076   4.968  10.883  0.2350  1.1381  2.8528
  287MOL0     H38698   7.963   4.826  10.874  1.8889 -2.5305 -1.6746
  287MOL0     H38699   8.181   4.852  11.089 -1.2552  0.7848  1.2239
  287MOL0     H38700   8.031   4.928  11.107  0.2084  1.5331 -2.3461
  287MOL0     H38701   8.078   4.631  11.080  0.0646  0.1032  0.0613
  287MOL0     H38702   7.925   4.675  11.065  2.8253 -1.5759 -3.8951
  287MOL0     H38703   8.101   4.717  11.304 -0.2642  0.5771  0.4879
  287MOL0     H38704   7.981   4.596  11.304  2.5512 -0.4196 -0.7840
  287MOL0     H38705   7.754   4.930  11.491  1.1688  0.0356 -1.0330
  287MOL0     H38706   7.502   4.890  11.502  1.1425  0.1582 -0.9999
  287MOL0     H38707   7.219   4.626  10.967 -1.1807 -0.7771 -0.6348
  287MOL0     H38708   6.997   4.560  10.908  0.4338  7.0652 -1.9660
  287MOL0     H38709   6.686   4.365  11.063 -1.5328  1.8247 -1.3730
  287MOL0     H38710   6.716   4.429  11.218 -0.7559 -0.1216 -0.6387
  287MOL0     H38711   6.602   4.637  11.161 -1.2610 -1.4688  1.7605
  287MOL0     H38712   6.551   4.574  11.001 -3.0983  1.1329  1.0117
  287MOL0     H38713   6.431   4.407  11.054  3.0430 -0.9518 -0.4485
  287MOL0     H38714   6.471   4.421  11.237  2.5828  0.5200  0.7081
  287MOL0     H38715   6.333   4.641  11.080  5.8239  1.6746  0.9022
  287MOL0     H38716   6.369   4.616  11.248 -0.1103  1.9281 -2.0847
  287MOL0     H38717   6.127   4.575  11.210  2.7354  2.0596  0.9995
  287MOL0     H38718   6.219   4.438  11.278 -0.6999  0.8335  0.6938
  287MOL0     H38719   6.045   4.439  11.039  0.4495  2.3658 -0.9539
  287MOL0     H38720   6.205   4.430  10.977  0.1008  0.8822  0.9936
  287MOL0     H38721   6.111   4.243  11.205 -2.1040 -0.3303 -0.9671
  287MOL0     H38722   6.258   4.220  11.104 -0.3111 -1.5948 -2.6154
  287MOL0     H38723   6.076   4.213  10.915 -0.8860 -2.2518 -1.0160
  287MOL0     H38724   6.089   4.064  11.024 -1.2547  0.0669  2.0523
  287MOL0     H38725   6.880   4.606  11.326  0.0874  1.7730  0.1895
  287MOL0     H38726   7.102   4.614  11.388 -0.8050 -3.3501  1.1396
  287MOL0     H38727   7.542   4.572  11.213 -1.1742  1.8992 -0.5794
  287MOL0     H38728   7.767   4.614  11.196 -0.4932  1.5440 -1.3501
  287MOL0     H38729   9.059   4.905  10.760  0.0860 -0.5822 -1.2431
  287MOL0     H38730   9.286   4.904  10.872  0.1597  0.7769 -0.5233
  287MOL0     H38731   9.709   5.209  10.766  0.3402  1.3730  0.2886
  287MOL0     H38732   9.947   5.214  10.815 -0.5787 -0.4006 -0.9430
  287MOL0     H38733  10.118   4.954  11.138  0.4318  0.2945 -0.4073
  287MOL0     H38734  10.107   5.119  11.204 -0.2197 -1.4400  1.6361
  287MOL0     H38735  10.314   5.185  11.119 -0.0925 -0.1380 -1.1159
  287MOL0     H38736  10.331   5.058  10.993  1.9384 -1.3562  0.8777
  287MOL0     H38737  10.330   5.031  11.307 -3.3442 -1.7265 -0.8830
  287MOL0     H38738  10.469   5.066  11.198  0.3682 -0.4237  0.3668
  287MOL0     H38739  10.392   4.830  11.294  0.0334 -3.2314 -1.0713
  287MOL0     H38740  10.275   4.819  11.164 -0.9891  1.1236  0.5753
  287MOL0     H38741  10.626   4.734  10.949  0.8948  3.2740 -0.1234
  287MOL0     H38742   9.908   4.986  11.157 -2.1400 -2.3442 -0.5912
  287MOL0     H38743   9.578   4.868  11.134 -0.6066  1.3028 -2.8907
  287MOL0     H38744   9.700   4.924  11.251  2.9258  2.3504 -2.1125
  287MOL0     H38745   9.563   5.027  11.215  0.7042  1.2582 -1.2575
  288MOL0     O38746   5.487   2.476   4.385 -0.4870 -0.0817  0.4824
  288MOL0     C38747   5.545   2.541   4.474  0.3568  0.4302  0.4736
  288MOL0     O38748   5.498   2.561   4.604 -0.1770 -0.4003  0.0609
  288MOL0     C38749   5.362   2.536   4.616 -0.5249 -0.2194 -0.1352
  288MOL0     C38750   5.318   2.400   4.639 -0.3294 -0.6093  0.8751
  288MOL0     C38751   5.181   2.382   4.674  0.0643  0.2426  0.1178
  288MOL0     C38752   5.095   2.488   4.683  0.0593 -0.5562  0.3337
  288MOL0     O38753   4.964   2.455   4.733 -0.2003 -0.9372  0.7435
  288MOL0     C38754   4.857   2.542   4.702  0.6863  0.3462  0.0194
  288MOL0     C38755   4.814   2.564   4.550  0.0463  0.0855  0.2940
  288MOL0     C38756   4.778   2.443   4.479 -0.1369  0.4856  0.3831
  288MOL0     C38757   4.771   2.461   4.320 -0.6655 -0.0159  0.2617
  288MOL0     C38758   4.664   2.562   4.259 -0.7751  0.8653 -0.0926
  288MOL0     C38759   4.523   2.541   4.300 -0.0399  0.0946 -0.0650
  288MOL0     C38760   4.445   2.449   4.201 -0.1780 -0.5434  0.6778
  288MOL0     C38761   4.310   2.424   4.266 -0.7272 -0.1052  0.3887
  288MOL0     N38762   4.328   2.337   4.382 -0.0404 -1.2440 -0.2455
  288MOL0     C38763   4.272   2.368   4.502  0.4696  0.6215 -1.1921
  288MOL0     C38764   4.260   2.248   4.569  0.4410  0.5073  0.6281
  288MOL0     C38765   4.227   2.216   4.719  0.3448 -0.1288 -0.0249
  288MOL0     C38766   4.078   2.176   4.739  0.0570 -0.0649  0.4548
  288MOL0     C38767   4.051   2.144   4.891  0.4902 -0.0307  0.2160
  288MOL0     C38768   3.911   2.129   4.908  0.3711 -0.2023 -0.3620
  288MOL0     O38769   3.849   2.260   4.930 -0.4457 -0.2051 -1.3694
  288MOL0     C38770   3.720   2.265   4.976 -0.0222  0.5692  0.1351
  288MOL0     C38771   3.646   2.363   4.912 -0.3529 -0.0053 -0.8997
  288MOL0     C38772   3.511   2.390   4.957  1.0715  0.3826 -0.2395
  288MOL0     C38773   3.451   2.307   5.050  0.0621  0.3259  0.5386
  288MOL0     C38774   3.305   2.318   5.072 -0.5465  0.0757 -0.6593
  288MOL0     O38775   3.246   2.245   5.164  0.8778  1.0852  0.5042
  288MOL0     C38776   3.126   2.293   5.205  0.7660  0.8477 -0.5399
  288MOL0     C38777   3.094   2.353   5.329 -0.1369  0.0374  0.4536
  288MOL0     C38778   2.968   2.394   5.369  0.1906 -0.0298  0.0656
  288MOL0     C38779   2.870   2.381   5.277 -0.0428 -0.1531 -0.4211
  288MOL0     O38780   2.749   2.418   5.317  0.0740  0.0138  0.1929
  288MOL0     C38781   2.677   2.305   5.363  0.1325  0.2836  0.4188
  288MOL0     C38782   2.545   2.318   5.294 -0.6075  0.3027  0.8240
  288MOL0     C38783   2.437   2.206   5.313 -1.2198 -0.1251  0.2013
  288MOL0     C38784   2.308   2.211   5.234 -0.3311  0.4482  0.1462
  288MOL0     C38785   2.205   2.134   5.300 -0.4399  0.2590 -0.0792
  288MOL0     C38786   2.077   2.133   5.226 -0.2777  0.4543 -0.2569
  288MOL0     C38787   1.959   2.060   5.302 -0.1743 -0.3061  1.1424
  288MOL0     C38788   1.846   2.057   5.197 -0.0925  0.3919  0.3369
  288MOL0    Cl38789   1.698   1.994   5.254 -0.0649 -0.2429  0.1111
  288MOL0     C38790   2.895   2.329   5.145 -0.1462 -0.4147 -0.1164
  288MOL0     C38791   3.022   2.283   5.111 -0.5187  1.0063 -0.3513
  288MOL0     O38792   3.255   2.421   5.026 -0.2050 -0.4288 -0.1276
  288MOL0     C38793   3.532   2.206   5.114 -0.0535 -0.1160  0.8015
  288MOL0     C38794   3.665   2.193   5.083  0.0293 -0.6054  1.0874
  288MOL0     N38795   4.304   2.152   4.481  0.2793 -0.3821  0.1080
  288MOL0     N38796   4.344   2.207   4.372  0.2374 -1.1892  0.0685
  288MOL0     C38797   5.145   2.619   4.644 -0.7607 -0.1345 -0.3544
  288MOL0     C38798   5.277   2.644   4.616  0.3113 -0.1968 -0.2853
  288MOL0     C38799   5.689   2.575   4.452 -0.6137  0.3826  0.9629
  288MOL0     C38800   5.771   2.612   4.569  0.1258 -0.0427 -0.7023
  288MOL0     C38801   5.906   2.647   4.544 -0.6622 -0.2588 -0.0500
  288MOL0     C38802   5.962   2.651   4.419  0.2347 -0.2114 -0.1819
  288MOL0     O38803   6.091   2.709   4.411  0.0319  0.1532 -0.0870
  288MOL0     C38804   6.168   2.706   4.292 -0.8271 -1.1081 -0.2852
  288MOL0     C38805   6.282   2.797   4.314 -0.8520 -0.4905 -0.0081
  288MOL0     C38806   6.389   2.800   4.208 -0.2376 -0.1689 -0.0677
  288MOL0     C38807   6.528   2.865   4.228 -0.6288 -0.0108 -0.8221
  288MOL0     C38808   6.616   2.825   4.114  0.0525  0.9863  0.6183
  288MOL0     C38809   6.718   2.803   4.042  0.2939 -0.1780  0.9637
  288MOL0     C38810   5.891   2.598   4.314 -0.8083  0.4683 -0.5939
  288MOL0     C38811   5.754   2.567   4.326 -0.2871  0.1120  0.0715
  288MOL0     C38812   5.687   2.548   4.196 -0.0845 -0.0109  0.6177
  288MOL0     H38813   5.382   2.313   4.639  1.7500  0.7476  4.1522
  288MOL0     H38814   5.154   2.280   4.699 -1.5946  0.0748 -2.0403
  288MOL0     H38815   4.768   2.501   4.752 -0.1206  3.1916  1.0780
  288MOL0     H38816   4.877   2.642   4.740 -3.1188  1.3633 -0.2212
  288MOL0     H38817   4.890   2.615   4.490 -0.6726  0.8112 -0.0156
  288MOL0     H38818   4.721   2.621   4.555 -0.7109 -1.1264  0.4025
  288MOL0     H38819   4.685   2.403   4.521  0.4103 -1.8904 -0.4698
  288MOL0     H38820   4.848   2.361   4.500 -1.0723 -0.1458  1.1150
  288MOL0     H38821   4.870   2.496   4.289 -0.9359  0.4676 -0.0694
  288MOL0     H38822   4.760   2.365   4.270 -0.0965  0.4313 -0.7664
  288MOL0     H38823   4.695   2.657   4.304  2.8149  0.0853 -0.6525
  288MOL0     H38824   4.672   2.578   4.151 -2.9764  2.4247 -0.1018
  288MOL0     H38825   4.510   2.503   4.402 -3.9378 -0.9857 -0.7833
  288MOL0     H38826   4.472   2.638   4.295  0.1805  0.1721 -0.9340
  288MOL0     H38827   4.506   2.363   4.173 -0.2858  0.7203 -4.3184
  288MOL0     H38828   4.438   2.493   4.101  1.0930  0.3772  0.9771
  288MOL0     H38829   4.268   2.519   4.297  4.8505  1.8670  3.3466
  288MOL0     H38830   4.249   2.377   4.188 -0.6955  0.9622 -0.2916
  288MOL0     H38831   4.246   2.464   4.547 -2.9104 -0.6837 -0.0328
  288MOL0     H38832   4.293   2.140   4.761 -1.5815 -1.9750 -0.2141
  288MOL0     H38833   4.228   2.306   4.782  0.5769  0.1739 -0.4605
  288MOL0     H38834   4.014   2.262   4.716 -3.1693 -2.3480  0.0975
  288MOL0     H38835   4.052   2.099   4.665  0.7134  0.8923 -0.8099
  288MOL0     H38836   4.090   2.214   4.966 -0.9237 -1.4723  2.4490
  288MOL0     H38837   4.101   2.051   4.923 -0.2820 -0.8120 -0.7989
  288MOL0     H38838   3.887   2.068   4.995  0.6205 -1.4942 -1.1592
  288MOL0     H38839   3.865   2.069   4.829 -1.0320 -1.0365  1.0386
  288MOL0     H38840   3.699   2.432   4.847  1.7063  1.3468  2.0228
  288MOL0     H38841   3.449   2.469   4.915 -1.3648 -1.0944  0.3678
  288MOL0     H38842   3.170   2.359   5.407 -0.0123 -0.2131  0.3547
  288MOL0     H38843   2.944   2.424   5.470 -1.5156 -1.1866  0.0464
  288MOL0     H38844   2.730   2.211   5.343  0.1105  0.1467  0.9903
  288MOL0     H38845   2.647   2.299   5.467 -1.2855 -1.2968 -0.0316
  288MOL0     H38846   2.506   2.415   5.325 -0.7709  1.3290 -2.2565
  288MOL0     H38847   2.569   2.319   5.187  1.2940 -1.1318  1.1911
  288MOL0     H38848   2.496   2.116   5.291  0.7826  1.6743 -2.4202
  288MOL0     H38849   2.407   2.192   5.418 -1.8310  0.2725  0.0852
  288MOL0     H38850   2.331   2.193   5.129  0.5524  0.0603  0.3974
  288MOL0     H38851   2.271   2.312   5.251  1.8719  1.3942 -0.3278
  288MOL0     H38852   2.177   2.175   5.397 -0.8615 -0.9255  0.3183
  288MOL0     H38853   2.230   2.030   5.321  2.8043  1.2199  1.5235
  288MOL0     H38854   2.045   2.236   5.207 -1.2775  0.3233  0.5925
  288MOL0     H38855   2.092   2.096   5.124 -0.5486 -0.2092 -0.0592
  288MOL0     H38856   1.935   2.119   5.390  1.5699 -2.5313  3.2643
  288MOL0     H38857   1.971   1.957   5.338 -1.2658 -0.4560  1.1008
  288MOL0     H38858   1.836   2.159   5.160  1.4400  1.3957  2.4480
  288MOL0     H38859   1.866   1.998   5.107 -3.1554  0.6025 -0.5923
  288MOL0     H38860   2.818   2.330   5.069  0.6599 -0.1335 -0.9428
  288MOL0     H38861   3.033   2.228   5.019 -2.9366  1.2778 -0.8883
  288MOL0     H38862   3.486   2.137   5.184  1.0045 -0.5060  1.1402
  288MOL0     H38863   3.727   2.127   5.143  1.6523  0.4160  0.5735
  288MOL0     H38864   5.072   2.699   4.650 -0.3113  0.2283  0.4231
  288MOL0     H38865   5.314   2.740   4.582  1.1518  0.2902  1.8614
  288MOL0     H38866   5.742   2.600   4.673  2.6929  0.8654  0.1972
  288MOL0     H38867   5.973   2.677   4.624 -0.6834  1.5551 -0.6818
  288MOL0     H38868   6.110   2.736   4.204  1.9202 -1.2279 -2.2700
  288MOL0     H38869   6.192   2.602   4.267  0.6027 -0.7453 -0.5402
  288MOL0     H38870   6.335   2.769   4.406  0.9064 -0.0410 -0.8677
  288MOL0     H38871   6.252   2.899   4.338  1.6943  0.5177 -0.9254
  288MOL0     H38872   6.342   2.856   4.127  2.3012  2.7803  0.3594
  288MOL0     H38873   6.408   2.700   4.167 -1.6077 -0.7535  0.6399
  288MOL0     H38874   6.522   2.974   4.236 -0.3076 -0.0000 -0.7148
  288MOL0     H38875   6.574   2.839   4.324  1.4722  5.7202  0.1390
  288MOL0     H38876   6.786   2.784   3.962  0.7388  1.4886  0.8964
  288MOL0     H38877   5.936   2.581   4.217  2.9819  1.2170  0.8942
  288MOL0     H38878   5.603   2.618   4.187  1.0694  1.3893  0.4563
  288MOL0     H38879   5.756   2.564   4.113 -1.0747 -2.9174 -0.9196
  288MOL0     H38880   5.655   2.443   4.192  0.8656 -0.2655 -1.0311
  289MOL0     O38881   5.992   0.398   3.440  0.8035 -0.0859  0.3531
  289MOL0     C38882   6.010   0.355   3.552 -0.1371 -0.4679 -0.0146
  289MOL0     O38883   5.909   0.324   3.639  0.0790 -0.0812  0.2872
  289MOL0     C38884   5.780   0.325   3.586  0.6229 -0.0025 -0.2724
  289MOL0     C38885   5.706   0.447   3.586  0.6349 -0.0224  0.8274
  289MOL0     C38886   5.570   0.453   3.553 -0.5483 -0.0361  0.4872
  289MOL0     C38887   5.504   0.330   3.518 -0.0784 -0.2748  0.4273
  289MOL0     O38888   5.369   0.331   3.481 -0.2857  0.2492  0.5804
  289MOL0     C38889   5.267   0.380   3.582 -0.0919  0.2729 -0.2042
  289MOL0     C38890   5.235   0.277   3.690 -1.4269  0.7947 -0.3494
  289MOL0     C38891   5.205   0.130   3.636 -0.7359 -0.5036 -0.6633
  289MOL0     C38892   5.235   0.027   3.751 -0.2323 -0.0014 -0.1870
  289MOL0     C38893   5.229  -0.125   3.717 -0.3500 -0.2596 -0.1110
  289MOL0     C38894   5.312  -0.164   3.595  1.2907  0.9725  0.2594
  289MOL0     C38895   5.458  -0.153   3.597 -1.1470 -0.6713  0.6894
  289MOL0     C38896   5.525  -0.155   3.458 -0.7121  0.3877  0.2852
  289MOL0     N38897   5.560  -0.288   3.399  0.6576  0.0485 -1.2834
  289MOL0     C38898   5.483  -0.408   3.423  0.3960 -0.1491 -0.0292
  289MOL0     C38899   5.536  -0.501   3.350 -0.0963  0.3889 -0.7734
  289MOL0     C38900   5.500  -0.646   3.353  1.1991  0.2368 -0.2247
  289MOL0     C38901   5.498  -0.713   3.497 -0.4674 -0.8560  0.9820
  289MOL0     C38902   5.495  -0.868   3.485  0.7459  0.5198 -0.2535
  289MOL0     C38903   5.554  -0.935   3.614  0.3956  0.1876 -1.2038
  289MOL0     O38904   5.496  -0.870   3.730  0.1165  0.4149  0.0958
  289MOL0     C38905   5.481  -0.923   3.852  0.0483  0.1636 -0.4617
  289MOL0     C38906   5.403  -0.852   3.934 -0.5855  0.0855  0.2534
  289MOL0     C38907   5.381  -0.899   4.066 -0.1290 -0.1822 -0.7849
  289MOL0     C38908   5.435  -1.024   4.110 -0.3851  0.2036  0.1440
  289MOL0     C38909   5.425  -1.057   4.256 -0.0364  0.5100  0.4054
  289MOL0     O38910   5.299  -1.063   4.311 -0.1865 -0.2616 -0.7827
  289MOL0     C38911   5.279  -1.025   4.442 -0.9085  0.3867  0.5891
  289MOL0     C38912   5.146  -1.006   4.479 -0.4441 -0.7763 -0.7851
  289MOL0     C38913   5.111  -0.954   4.601 -0.0343  0.0778 -0.2545
  289MOL0     C38914   5.208  -0.907   4.690  0.8879 -0.3261  0.5876
  289MOL0     O38915   5.171  -0.842   4.795 -0.2026 -0.2969 -0.6849
  289MOL0     C38916   5.060  -0.748   4.793  0.0084  0.6333  0.2847
  289MOL0     C38917   5.084  -0.648   4.906  0.0078 -0.4827 -1.5879
  289MOL0     C38918   4.961  -0.569   4.925  0.2210  0.2535 -0.6534
  289MOL0     C38919   4.953  -0.484   5.053  0.9444  0.4929  0.7487
  289MOL0     C38920   4.927  -0.566   5.176  0.5858  0.6323 -0.4942
  289MOL0     C38921   4.781  -0.612   5.203  0.6600 -0.7374 -0.0494
  289MOL0     C38922   4.679  -0.501   5.238  0.8394 -0.0705  0.6460
  289MOL0     C38923   4.664  -0.474   5.394  0.4342 -0.3397  0.6468
  289MOL0    Cl38924   4.808  -0.382   5.440  0.1155 -0.4007  0.0175
  289MOL0     C38925   5.340  -0.922   4.657  0.5247 -0.4239 -0.0402
  289MOL0     C38926   5.373  -0.979   4.531 -0.3617  0.4444 -0.3278
  289MOL0     O38927   5.528  -1.118   4.294 -0.1709  0.0201 -0.0428
  289MOL0     C38928   5.523  -1.095   4.017  0.4133  0.2146  0.1839
  289MOL0     C38929   5.532  -1.047   3.891 -0.8657  0.3943  0.1929
  289MOL0     N38930   5.633  -0.445   3.268 -0.9200  0.0117 -0.0759
  289MOL0     N38931   5.647  -0.313   3.295  0.2182  0.2341  0.1654
  289MOL0     C38932   5.577   0.211   3.510 -0.0037 -0.4227  0.2904
  289MOL0     C38933   5.717   0.211   3.550  0.6528  0.3946 -0.3222
  289MOL0     C38934   6.149   0.349   3.592 -0.2164  0.0895 -0.3221
  289MOL0     C38935   6.242   0.324   3.491  0.6879  0.8784 -0.4290
  289MOL0     C38936   6.376   0.296   3.529 -0.3500  0.4898  0.5273
  289MOL0     C38937   6.422   0.299   3.658 -0.0511 -0.7580 -0.9113
  289MOL0     O38938   6.552   0.249   3.689  0.3020  0.6697 -0.9647
  289MOL0     C38939   6.603   0.283   3.823 -0.0384  0.3638  0.5111
  289MOL0     C38940   6.746   0.235   3.838  0.0746  0.1764 -0.0453
  289MOL0     C38941   6.786   0.202   3.989 -0.4672 -0.0921  0.0356
  289MOL0     C38942   6.910   0.108   3.999 -0.5226  0.2494  0.1993
  289MOL0     C38943   7.024   0.166   3.942 -1.1611 -0.3172  0.3256
  289MOL0     C38944   7.127   0.225   3.906 -0.1337 -0.4340 -0.2519
  289MOL0     C38945   6.328   0.343   3.760  0.0924 -0.4040  0.3472
  289MOL0     C38946   6.193   0.369   3.729 -0.2311  0.6692  0.4794
  289MOL0     C38947   6.103   0.400   3.842  0.3448  0.7144 -0.2390
  289MOL0     H38948   5.756   0.540   3.614 -0.4326  0.7864  0.1440
  289MOL0     H38949   5.516   0.546   3.569  1.1023  1.6761 -2.8906
  289MOL0     H38950   5.290   0.478   3.624  1.4282  0.5631 -1.5950
  289MOL0     H38951   5.177   0.403   3.523 -0.2621  0.1769  0.0157
  289MOL0     H38952   5.147   0.316   3.742 -2.0957  0.2858 -1.0702
  289MOL0     H38953   5.321   0.270   3.756  1.7374  0.1774 -4.1312
  289MOL0     H38954   5.270   0.116   3.549 -2.5047  3.5347 -2.9469
  289MOL0     H38955   5.102   0.115   3.600 -0.1560 -1.3025 -2.0739
  289MOL0     H38956   5.331   0.049   3.801 -2.1585 -0.7916  4.4027
  289MOL0     H38957   5.175   0.059   3.837  2.0053  0.3256  1.3764
  289MOL0     H38958   5.275  -0.179   3.801 -0.4458  0.0626  0.1492
  289MOL0     H38959   5.125  -0.156   3.703 -0.0096 -1.6979  0.3792
  289MOL0     H38960   5.280  -0.268   3.578 -1.0455  1.8738 -1.2382
  289MOL0     H38961   5.275  -0.101   3.514 -1.0141  1.1166  1.3403
  289MOL0     H38962   5.504  -0.222   3.668  0.2154  0.5967  1.0931
  289MOL0     H38963   5.465  -0.051   3.634 -0.7023 -1.3303  2.5005
  289MOL0     H38964   5.465  -0.106   3.381  1.1226 -0.1711 -1.6060
  289MOL0     H38965   5.629  -0.122   3.455  0.4812 -2.9703 -0.2117
  289MOL0     H38966   5.401  -0.428   3.491 -0.1487 -0.1274 -0.6605
  289MOL0     H38967   5.401  -0.658   3.307  0.8435  1.2613  0.2494
  289MOL0     H38968   5.579  -0.690   3.292  0.0326  1.8618 -3.0895
  289MOL0     H38969   5.581  -0.686   3.562 -1.3918  1.4493  1.2885
  289MOL0     H38970   5.408  -0.675   3.546 -0.5457  0.7035 -0.3062
  289MOL0     H38971   5.546  -0.900   3.393  0.5416 -4.5226  1.0619
  289MOL0     H38972   5.391  -0.897   3.469  0.6466 -1.3559  2.9114
  289MOL0     H38973   5.661  -0.914   3.626  0.2367 -0.1849  1.3639
  289MOL0     H38974   5.554  -1.044   3.624  0.3651  0.3893  2.1958
  289MOL0     H38975   5.343  -0.770   3.896 -0.4655  0.3954  0.7383
  289MOL0     H38976   5.321  -0.832   4.127  2.5723  0.8710  0.8938
  289MOL0     H38977   5.074  -1.032   4.402 -0.5889  2.0997 -1.7421
  289MOL0     H38978   5.005  -0.943   4.626  0.0878  0.7464 -0.0022
  289MOL0     H38979   5.053  -0.701   4.694 -0.4274 -1.6228 -0.8456
  289MOL0     H38980   4.962  -0.798   4.799  1.4762 -2.6239 -0.4855
  289MOL0     H38981   5.105  -0.709   4.994  1.3926 -0.1299 -1.6435
  289MOL0     H38982   5.170  -0.588   4.876 -0.5258  0.4669 -1.2627
  289MOL0     H38983   4.946  -0.509   4.835  2.0079  0.2258 -1.0099
  289MOL0     H38984   4.879  -0.641   4.919 -0.5379  1.0254  0.1533
  289MOL0     H38985   4.869  -0.415   5.047  0.0042 -0.5114  1.9666
  289MOL0     H38986   5.043  -0.423   5.071  1.9512 -0.2599 -1.3371
  289MOL0     H38987   4.967  -0.510   5.262  2.4999 -1.6043  0.1836
  289MOL0     H38988   4.984  -0.659   5.174  0.7655  0.7231  0.0872
  289MOL0     H38989   4.732  -0.651   5.113 -2.5802  1.4251  0.5950
  289MOL0     H38990   4.765  -0.680   5.288 -3.3554  0.3837  0.3020
  289MOL0     H38991   4.584  -0.539   5.199  0.9893 -2.7054  2.5080
  289MOL0     H38992   4.712  -0.409   5.188  3.7160 -1.1268  0.3679
  289MOL0     H38993   4.571  -0.419   5.411 -1.3078 -2.9986  0.2458
  289MOL0     H38994   4.659  -0.571   5.443 -0.4017  0.0344  1.3370
  289MOL0     H38995   5.415  -0.887   4.727  1.6528 -0.5444 -1.1542
  289MOL0     H38996   5.480  -0.981   4.514 -0.0823  0.4998  1.2114
  289MOL0     H38997   5.582  -1.183   4.037 -0.3313 -0.7709 -1.7435
  289MOL0     H38998   5.592  -1.099   3.817 -0.4276  1.0047  0.1138
  289MOL0     H38999   5.517   0.128   3.473  0.4215  0.6230 -3.0209
  289MOL0     H39000   5.777   0.120   3.554  0.0608 -0.0056 -0.4293
  289MOL0     H39001   6.212   0.298   3.390  0.1833 -0.4440  0.0364
  289MOL0     H39002   6.448   0.257   3.457 -1.9190 -1.3060 -0.1567
  289MOL0     H39003   6.534   0.238   3.896 -2.5770  1.8053 -0.8757
  289MOL0     H39004   6.604   0.392   3.830 -2.7163  0.7097 -2.3856
  289MOL0     H39005   6.800   0.323   3.802 -1.9746  1.9102  0.9235
  289MOL0     H39006   6.759   0.152   3.767  2.2253 -0.0729  0.5646
  289MOL0     H39007   6.706   0.146   4.039  2.0116 -3.6480  0.4661
  289MOL0     H39008   6.813   0.293   4.043  4.5023  0.1694 -2.2761
  289MOL0     H39009   6.933   0.076   4.101 -0.3624  0.5684  0.2653
  289MOL0     H39010   6.884   0.014   3.950  1.9098 -0.1131 -0.5203
  289MOL0     H39011   7.217   0.273   3.872 -0.1006 -0.0094  0.4238
  289MOL0     H39012   6.348   0.372   3.863 -2.5928  1.4124  0.4540
  289MOL0     H39013   6.154   0.453   3.922  1.0145  0.8240 -0.7293
  289MOL0     H39014   6.031   0.471   3.799 -0.3918  0.7781  1.0597
  289MOL0     H39015   6.060   0.313   3.892  2.0550 -0.2975 -0.4563
  290MOL0     O39016   9.748   3.350   8.147 -0.6247  0.8807  0.0837
  290MOL0     C39017   9.803   3.438   8.211 -0.1236 -0.1457  0.0033
  290MOL0     O39018   9.935   3.465   8.227 -0.0589 -0.2618  0.8444
  290MOL0     C39019  10.033   3.375   8.190  0.0702 -1.1724  0.9987
  290MOL0     C39020  10.150   3.393   8.266 -0.7356  1.2393 -0.1181
  290MOL0     C39021  10.232   3.272   8.284  0.6927 -0.0941 -0.0006
  290MOL0     C39022  10.197   3.150   8.232 -0.7514  0.1454 -0.2239
  290MOL0     O39023  10.281   3.049   8.277 -0.1970 -0.5151 -0.1278
  290MOL0     C39024  10.229   2.919   8.262 -0.3760 -0.3295 -0.3209
  290MOL0     C39025  10.316   2.795   8.310  0.5769  0.0115  0.4138
  290MOL0     C39026  10.466   2.819   8.308  0.6301  0.8684 -0.7400
  290MOL0     C39027  10.551   2.695   8.284 -0.3242  0.8152 -0.7530
  290MOL0     C39028  10.536   2.604   8.408  0.1546 -0.4271  0.5784
  290MOL0     C39029  10.593   2.467   8.390 -0.8872 -0.4039  0.3208
  290MOL0     C39030  10.745   2.482   8.375 -0.9526 -1.0936  1.1111
  290MOL0     C39031  10.819   2.346   8.351 -0.3627  0.2560  0.0964
  290MOL0     N39032  10.821   2.248   8.463  0.9518 -0.1924 -0.5351
  290MOL0     C39033  10.873   2.261   8.588 -0.2270 -0.1607  0.2939
  290MOL0     C39034  10.865   2.139   8.646 -0.1454 -0.5287  1.1238
  290MOL0     C39035  10.916   2.105   8.786 -0.2854  0.7365  1.2632
  290MOL0     C39036  10.961   1.959   8.793  0.5988 -0.1705 -0.4159
  290MOL0     C39037  11.028   1.921   8.924 -0.5613 -0.4770  0.2136
  290MOL0     C39038  11.172   1.966   8.910 -0.9836  0.0527 -0.5910
  290MOL0     O39039  11.250   1.946   9.029  0.3159 -0.6973  0.0386
  290MOL0     C39040  11.227   2.038   9.126 -0.1214 -0.7881  0.0316
  290MOL0     C39041  11.158   2.162   9.106  0.3026  0.3136 -0.1302
  290MOL0     C39042  11.164   2.264   9.200 -0.4709 -1.2977  0.5246
  290MOL0     C39043  11.237   2.251   9.318 -0.2591 -0.2071  0.0187
  290MOL0     C39044  11.255   2.369   9.412  0.9396  0.5075  0.1128
  290MOL0     O39045  11.203   2.488   9.369 -0.2541 -0.1684 -0.5373
  290MOL0     C39046  11.201   2.595   9.452 -0.4977 -0.3524 -0.2347
  290MOL0     C39047  11.317   2.675   9.452  0.5990 -1.4655 -0.6176
  290MOL0     C39048  11.321   2.800   9.524  0.1107  0.1202 -0.4075
  290MOL0     C39049  11.200   2.838   9.581 -0.2710  0.0040 -0.3072
  290MOL0     O39050  11.193   2.949   9.659 -0.6906  0.6507 -0.2359
  290MOL0     C39051  11.136   2.941   9.789  0.0714 -0.0981 -0.2791
  290MOL0     C39052  11.003   3.004   9.786  0.2473 -1.4555  0.4513
  290MOL0     C39053  10.901   2.942   9.881  0.0709 -0.1740 -0.3472
  290MOL0     C39054  10.806   3.049   9.944  0.0482  0.0959  0.0052
  290MOL0     C39055  10.716   2.968  10.036  1.2224  0.4966 -0.3327
  290MOL0     C39056  10.610   2.893   9.961  0.7712 -0.1385 -0.2694
  290MOL0     C39057  10.521   2.802  10.048 -0.3575  0.1425 -1.0706
  290MOL0     C39058  10.420   2.874  10.140 -0.1957 -0.1259 -0.1530
  290MOL0    Cl39059  10.274   2.926  10.046  0.0710 -0.0407 -0.2229
  290MOL0     C39060  11.090   2.760   9.582 -0.1690 -0.0746 -0.2799
  290MOL0     C39061  11.086   2.635   9.519  0.3081 -0.1519  0.3975
  290MOL0     O39062  11.296   2.353   9.529  0.1184 -0.0644  0.1783
  290MOL0     C39063  11.292   2.127   9.344  0.2501 -0.5296 -0.7244
  290MOL0     C39064  11.295   2.019   9.249  0.5194  0.1242 -0.1847
  290MOL0     N39065  10.825   2.048   8.548 -0.0443  0.1682 -0.2514
  290MOL0     N39066  10.795   2.114   8.444  0.3375 -0.2591 -0.1836
  290MOL0     C39067  10.092   3.143   8.146 -0.4056 -0.0845  0.5019
  290MOL0     C39068  10.010   3.251   8.122 -0.3788  0.0295  0.3307
  290MOL0     C39069   9.714   3.521   8.296  0.1573  0.6304  0.0187
  290MOL0     C39070   9.769   3.604   8.396  0.7640 -0.1893  0.1483
  290MOL0     C39071   9.698   3.693   8.477 -0.1191  0.3791  0.3848
  290MOL0     C39072   9.561   3.685   8.472  0.3069 -0.2467  0.3360
  290MOL0     O39073   9.475   3.767   8.536 -0.3070  0.3292 -0.4567
  290MOL0     C39074   9.531   3.881   8.597  0.6885 -0.8364 -0.7053
  290MOL0     C39075   9.570   3.995   8.494  0.7258  1.0909 -0.5762
  290MOL0     C39076   9.667   4.087   8.561  0.9550 -0.2075  0.1114
  290MOL0     C39077   9.705   4.206   8.472  0.2820  0.4860 -0.2429
  290MOL0     C39078   9.758   4.163   8.353 -0.1916  0.5163 -0.0134
  290MOL0     C39079   9.809   4.157   8.243 -0.1710  1.0096  0.2053
  290MOL0     C39080   9.495   3.592   8.398  0.0036 -0.0442 -0.5132
  290MOL0     C39081   9.565   3.517   8.305 -0.6829 -0.0391  0.5197
  290MOL0     C39082   9.477   3.449   8.199 -0.2116 -0.0219  0.3131
  290MOL0     H39083  10.166   3.485   8.322  0.4044  0.4878  0.8144
  290MOL0     H39084  10.317   3.272   8.351 -0.9812 -0.2290  2.2458
  290MOL0     H39085  10.134   2.928   8.315 -0.6606 -0.5634 -0.7833
  290MOL0     H39086  10.208   2.900   8.156  1.1957 -0.6586 -0.5942
  290MOL0     H39087  10.289   2.709   8.249 -1.7974  1.0922 -0.1756
  290MOL0     H39088  10.283   2.769   8.411  0.5578 -1.6509  0.0062
  290MOL0     H39089  10.489   2.863   8.406 -1.9039  1.2586 -0.2622
  290MOL0     H39090  10.488   2.891   8.228  0.4646 -0.7475 -2.3127
  290MOL0     H39091  10.517   2.630   8.203 -0.4099 -0.9069  0.6093
  290MOL0     H39092  10.654   2.733   8.278 -0.1861  0.8409  1.0454
  290MOL0     H39093  10.587   2.634   8.499  2.2508 -0.7021 -0.4437
  290MOL0     H39094  10.430   2.598   8.433 -0.1487  1.2845 -0.1558
  290MOL0     H39095  10.581   2.410   8.483 -1.0059 -0.5935  0.1882
  290MOL0     H39096  10.560   2.417   8.299  0.4166 -0.7843  0.0395
  290MOL0     H39097  10.787   2.534   8.461 -1.3249 -0.8146  1.1295
  290MOL0     H39098  10.776   2.541   8.288  0.2167 -3.2322 -0.0014
  290MOL0     H39099  10.786   2.287   8.266 -1.2365  1.3735 -0.3720
  290MOL0     H39100  10.925   2.372   8.339 -0.2962  1.2676  2.2397
  290MOL0     H39101  10.920   2.353   8.622  1.7754 -0.4209 -1.5631
  290MOL0     H39102  11.000   2.174   8.796 -1.6439  2.3285  2.0354
  290MOL0     H39103  10.838   2.112   8.862 -0.1712 -3.7304  2.0512
  290MOL0     H39104  10.872   1.897   8.777 -0.6691  1.5723 -0.3549
  290MOL0     H39105  11.038   1.957   8.715  2.1117  0.7063  0.9998
  290MOL0     H39106  11.026   1.813   8.939 -0.4184 -0.9127 -2.3715
  290MOL0     H39107  10.988   1.974   9.010 -0.5585  1.6049 -0.9970
  290MOL0     H39108  11.184   2.069   8.875  0.9211  0.9810  2.3897
  290MOL0     H39109  11.220   1.907   8.830  0.8276  2.0223 -1.0453
  290MOL0     H39110  11.088   2.182   9.025 -0.0629 -0.3809  0.0096
  290MOL0     H39111  11.106   2.352   9.172 -0.8561 -1.8131 -0.3235
  290MOL0     H39112  11.401   2.667   9.382  0.9756  1.6236 -0.6871
  290MOL0     H39113  11.412   2.860   9.522 -1.0083  1.9324  0.0302
  290MOL0     H39114  11.132   2.839   9.828 -0.2658 -0.7356 -1.8957
  290MOL0     H39115  11.191   3.006   9.858 -1.5416 -0.6868  1.6509
  290MOL0     H39116  11.018   3.111   9.801  1.9019 -1.2183 -2.2762
  290MOL0     H39117  10.962   3.004   9.684  0.6839 -0.9040  0.2703
  290MOL0     H39118  10.847   2.877   9.812  0.5501  0.5701 -1.4571
  290MOL0     H39119  10.958   2.886   9.957  1.2201 -0.2618 -1.2465
  290MOL0     H39120  10.743   3.089   9.864  0.5928 -0.4143 -0.6875
  290MOL0     H39121  10.861   3.119  10.007 -2.0204 -0.3820  2.5058
  290MOL0     H39122  10.683   3.028  10.121 -0.3127 -1.5194  0.6084
  290MOL0     H39123  10.778   2.890  10.081  2.7073  2.1225  0.4990
  290MOL0     H39124  10.540   2.966   9.919 -0.4141  0.7170  2.8976
  290MOL0     H39125  10.636   2.832   9.875  0.1502 -0.9421  0.0999
  290MOL0     H39126  10.583   2.738  10.113  1.8781  3.1723  0.0530
  290MOL0     H39127  10.454   2.735   9.993  0.5520 -3.4753  1.7856
  290MOL0     H39128  10.395   2.813  10.227  1.4883  1.6994  1.7084
  290MOL0     H39129  10.469   2.964  10.178  2.8783 -1.1582 -1.3830
  290MOL0     H39130  10.996   2.779   9.631 -0.6525 -2.5628 -0.1017
  290MOL0     H39131  11.000   2.568   9.518  1.6868 -1.9903 -0.2945
  290MOL0     H39132  11.325   2.106   9.445  2.3127  1.4625 -0.8837
  290MOL0     H39133  11.330   1.918   9.262 -3.5548 -1.4448 -0.0026
  290MOL0     H39134  10.061   3.049   8.102 -2.0590 -1.0194  3.3818
  290MOL0     H39135   9.932   3.236   8.048  0.0075 -1.3819  0.1757
  290MOL0     H39136   9.878   3.606   8.398  0.7689 -0.7736  1.1782
  290MOL0     H39137   9.755   3.769   8.529 -0.2625 -0.1190  1.2982
  290MOL0     H39138   9.619   3.866   8.661 -0.1352 -1.6987  0.2523
  290MOL0     H39139   9.456   3.938   8.651  1.6410  3.1270 -3.1722
  290MOL0     H39140   9.480   4.050   8.465 -0.5403 -0.6251 -0.0118
  290MOL0     H39141   9.617   3.963   8.400  1.8462  1.6373 -0.2225
  290MOL0     H39142   9.754   4.029   8.594 -0.7196 -3.8183 -1.2133
  290MOL0     H39143   9.620   4.132   8.649 -0.7024  1.5641 -1.5693
  290MOL0     H39144   9.629   4.285   8.470 -2.0374 -1.5527  1.1772
  290MOL0     H39145   9.774   4.261   8.538  0.5921 -0.2158  0.0331
  290MOL0     H39146   9.849   4.141   8.145  2.4629 -3.1966  1.6797
  290MOL0     H39147   9.387   3.602   8.402 -0.5816 -2.7492 -4.1913
  290MOL0     H39148   9.507   3.344   8.191  0.3089  0.2684 -4.6513
  290MOL0     H39149   9.368   3.451   8.208 -0.7236 -2.8427 -3.1949
  290MOL0     H39150   9.492   3.485   8.097 -1.0498 -1.2873 -0.2836
  291MOL0     O39151   3.627   7.718   4.276 -0.3131 -0.5128  0.8781
  291MOL0     C39152   3.581   7.799   4.356 -0.7122  0.9632 -0.3016
  291MOL0     O39153   3.661   7.876   4.428 -0.9506 -0.3593 -0.0699
  291MOL0     C39154   3.797   7.888   4.391 -0.4264 -0.0430 -0.1209
  291MOL0     C39155   3.888   7.784   4.384  0.4410  0.3132  0.9302
  291MOL0     C39156   4.023   7.802   4.344  0.2971 -0.4614 -1.0163
  291MOL0     C39157   4.070   7.935   4.320  0.4305 -0.5596 -0.3795
  291MOL0     O39158   4.203   7.959   4.315  0.1787 -0.1079  0.6076
  291MOL0     C39159   4.244   7.938   4.177 -0.8962 -0.0414 -0.8482
  291MOL0     C39160   4.398   7.907   4.163 -0.0315  0.1850 -0.2832
  291MOL0     C39161   4.476   8.036   4.210  0.9775  0.4778  0.1414
  291MOL0     C39162   4.627   8.023   4.183  0.2119  0.2594  0.3287
  291MOL0     C39163   4.703   8.154   4.216  0.7807  0.3258  0.1321
  291MOL0     C39164   4.851   8.140   4.212 -0.3115  0.5512 -0.2676
  291MOL0     C39165   4.916   8.256   4.296  0.1867 -0.4050 -0.1185
  291MOL0     C39166   5.068   8.281   4.250  0.0423 -1.4095  0.6274
  291MOL0     N39167   5.157   8.180   4.301  0.1558  0.0586 -0.0687
  291MOL0     C39168   5.204   8.069   4.243  0.1927  0.9268  0.2695
  291MOL0     C39169   5.293   8.013   4.329  0.1343 -0.4560  0.0137
  291MOL0     C39170   5.359   7.893   4.296  0.3934  0.1219 -0.5695
  291MOL0     C39171   5.502   7.906   4.337 -0.1920  1.3898  0.0678
  291MOL0     C39172   5.587   7.985   4.247  0.6844  0.1066  0.3095
  291MOL0     C39173   5.724   7.982   4.293  0.1208 -0.6383 -1.1788
  291MOL0     O39174   5.829   8.018   4.203  0.0702 -0.3100  0.4298
  291MOL0     C39175   5.956   8.029   4.240  0.4070  0.4774  0.8586
  291MOL0     C39176   6.044   8.041   4.134 -0.4018  0.2727  0.5709
  291MOL0     C39177   6.181   8.069   4.154 -0.0092 -0.6810  0.2262
  291MOL0     C39178   6.228   8.069   4.286 -0.1862  0.5830 -0.6152
  291MOL0     C39179   6.372   8.081   4.310  0.2841  0.1722  0.0278
  291MOL0     O39180   6.404   8.061   4.439 -0.2184 -0.2584  0.7301
  291MOL0     C39181   6.533   8.047   4.469  0.4195 -0.1433  0.5702
  291MOL0     C39182   6.597   8.142   4.545  0.4574  0.0780 -0.2059
  291MOL0     C39183   6.743   8.143   4.560  0.3210 -0.6562  0.8488
  291MOL0     C39184   6.815   8.043   4.493 -0.0630  0.0399  0.0542
  291MOL0     O39185   6.955   8.042   4.499 -0.2019 -0.2067  0.3870
  291MOL0     C39186   7.013   8.127   4.397  0.2844  0.2738  0.2113
  291MOL0     C39187   7.166   8.122   4.412 -0.1145 -0.6165  0.7323
  291MOL0     C39188   7.238   8.243   4.351  0.2700 -0.1773  0.8962
  291MOL0     C39189   7.201   8.379   4.417  0.2214  0.8468 -0.1223
  291MOL0     C39190   7.283   8.492   4.345 -0.6552  0.2099  0.8254
  291MOL0     C39191   7.250   8.629   4.389 -0.2633  0.0969 -0.1346
  291MOL0     C39192   7.315   8.758   4.330  0.8904  0.6229  0.4354
  291MOL0     C39193   7.471   8.759   4.322  0.0652 -0.2053 -0.3833
  291MOL0    Cl39194   7.552   8.755   4.490  0.6370  0.0658 -0.2975
  291MOL0     C39195   6.753   7.931   4.442  0.5268 -0.6127 -0.4407
  291MOL0     C39196   6.619   7.939   4.425  0.2376 -0.2075  0.0755
  291MOL0     O39197   6.458   8.119   4.228 -0.2746 -0.0016 -0.4259
  291MOL0     C39198   6.134   8.044   4.389  0.0094  0.4842 -0.2180
  291MOL0     C39199   5.994   8.035   4.371  0.0186 -0.6664  0.1330
  291MOL0     N39200   5.288   8.088   4.449 -0.4098  0.1259  0.2361
  291MOL0     N39201   5.208   8.192   4.427  0.1275  0.1992  0.3493
  291MOL0     C39202   3.977   8.035   4.316  0.3270  0.2595  0.1368
  291MOL0     C39203   3.845   8.013   4.350  0.7700  0.6427 -0.4488
  291MOL0     C39204   3.433   7.821   4.377  0.0464 -0.5922  0.4335
  291MOL0     C39205   3.403   7.916   4.474 -0.0492  0.2492 -0.0439
  291MOL0     C39206   3.271   7.949   4.505  0.0634  0.0896  0.7347
  291MOL0     C39207   3.160   7.883   4.441 -0.3488  0.4627 -0.4850
  291MOL0     O39208   3.022   7.905   4.472  0.2097 -0.3097  0.8368
  291MOL0     C39209   3.012   8.006   4.571  0.8510 -0.1260 -1.0283
  291MOL0     C39210   2.862   8.042   4.596 -0.3086  0.6693 -1.0229
  291MOL0     C39211   2.816   8.123   4.475 -0.4127 -0.2176 -0.4316
  291MOL0     C39212   2.666   8.136   4.474  0.2428  0.7167 -0.0574
  291MOL0     C39213   2.623   8.227   4.579  1.0543  1.2159 -0.1229
  291MOL0     C39214   2.571   8.304   4.660 -0.4632  1.0215  0.2469
  291MOL0     C39215   3.190   7.778   4.353 -0.1436 -0.9860  0.4305
  291MOL0     C39216   3.321   7.742   4.324 -0.6384  0.6325  0.3198
  291MOL0     C39217   3.337   7.628   4.220 -0.5386 -1.0776  0.0201
  291MOL0     H39218   3.857   7.684   4.415  1.8630  0.4337  2.9309
  291MOL0     H39219   4.088   7.716   4.355  1.6768  0.7196  0.6627
  291MOL0     H39220   4.204   7.845   4.137 -0.0123  0.0646 -2.0268
  291MOL0     H39221   4.212   8.027   4.122 -1.6905  0.8188  0.9019
  291MOL0     H39222   4.425   7.891   4.058  3.1496  3.6432 -0.2081
  291MOL0     H39223   4.426   7.827   4.231  1.6311  2.3659  1.7924
  291MOL0     H39224   4.456   8.068   4.312  0.8158 -3.2119  1.4103
  291MOL0     H39225   4.446   8.121   4.148 -0.1378 -0.6848 -0.9774
  291MOL0     H39226   4.671   7.940   4.240 -0.2349 -1.6177 -1.9271
  291MOL0     H39227   4.644   7.989   4.081  0.4800 -2.7039  1.2412
  291MOL0     H39228   4.659   8.227   4.148  0.3085 -1.2033 -1.2496
  291MOL0     H39229   4.670   8.179   4.317 -0.9692 -1.9855  0.2240
  291MOL0     H39230   4.885   8.050   4.264  0.1141  1.2732  0.7598
  291MOL0     H39231   4.889   8.138   4.110 -0.1734  1.6345 -0.2572
  291MOL0     H39232   4.902   8.235   4.402 -3.5539 -0.5833 -0.5135
  291MOL0     H39233   4.853   8.341   4.265 -1.4744 -1.7918 -0.7446
  291MOL0     H39234   5.068   8.282   4.140  1.7806 -1.0247  0.6113
  291MOL0     H39235   5.107   8.380   4.276  0.8693 -1.1797 -1.3287
  291MOL0     H39236   5.189   8.043   4.139 -0.2859  1.8524  0.0980
  291MOL0     H39237   5.312   7.800   4.330 -2.3843  2.5746  3.0642
  291MOL0     H39238   5.351   7.872   4.189  2.1623  0.0525 -0.7069
  291MOL0     H39239   5.515   7.944   4.439 -2.6465  2.1665  0.1600
  291MOL0     H39240   5.526   7.800   4.327 -3.1773  0.8558 -2.9123
  291MOL0     H39241   5.562   8.091   4.243  2.4062  0.5249 -1.2657
  291MOL0     H39242   5.589   7.953   4.142  2.7339  0.6694  0.1347
  291MOL0     H39243   5.737   7.888   4.348 -1.1121  0.1792  0.5738
  291MOL0     H39244   5.733   8.057   4.372  3.2812  3.2582 -4.7147
  291MOL0     H39245   6.008   8.022   4.033 -1.6142  0.1770  1.0014
  291MOL0     H39246   6.254   8.064   4.074  0.3421 -1.3261  0.5730
  291MOL0     H39247   6.535   8.223   4.582  2.1336  0.5764  1.6714
  291MOL0     H39248   6.796   8.207   4.629  1.0350 -1.0939  0.7154
  291MOL0     H39249   6.966   8.098   4.302  1.4007 -2.5238  0.4221
  291MOL0     H39250   6.969   8.224   4.421  1.4777  0.6903  0.8155
  291MOL0     H39251   7.205   8.107   4.513  3.9881  1.5117 -0.2834
  291MOL0     H39252   7.191   8.027   4.364  1.5209 -1.3621  2.9141
  291MOL0     H39253   7.338   8.211   4.380 -0.2234 -3.8027 -0.7968
  291MOL0     H39254   7.234   8.255   4.242  1.2324 -1.5170  0.6961
  291MOL0     H39255   7.218   8.370   4.525 -1.8604  0.0744  0.1892
  291MOL0     H39256   7.095   8.408   4.412  0.6686  3.5911  2.8614
  291MOL0     H39257   7.251   8.481   4.241  0.0850 -4.0342  0.8614
  291MOL0     H39258   7.390   8.472   4.358 -1.0578 -1.2112  2.2998
  291MOL0     H39259   7.142   8.649   4.385  0.0970  2.1031 -0.6873
  291MOL0     H39260   7.268   8.636   4.497  0.3619  0.5731 -0.2659
  291MOL0     H39261   7.272   8.848   4.376 -1.3025 -1.3910  2.6185
  291MOL0     H39262   7.280   8.749   4.227 -0.3165  2.4355  0.6219
  291MOL0     H39263   7.501   8.680   4.252 -0.5385  1.4651 -2.6409
  291MOL0     H39264   7.497   8.845   4.260  0.9510 -0.7139 -0.7441
  291MOL0     H39265   6.805   7.845   4.400  2.3282 -0.1789  0.7728
  291MOL0     H39266   6.563   7.861   4.373 -1.3164  0.4780  0.6611
  291MOL0     H39267   6.173   8.045   4.490  0.3019  0.1514 -0.3260
  291MOL0     H39268   5.928   8.033   4.457 -1.5150 -3.5688 -0.9944
  291MOL0     H39269   4.016   8.134   4.291 -1.7590  0.7510 -1.4854
  291MOL0     H39270   3.777   8.097   4.345 -1.0137 -0.8034 -1.5785
  291MOL0     H39271   3.477   7.955   4.543 -0.6974  1.3902  0.0303
  291MOL0     H39272   3.255   8.033   4.572  0.0972 -0.2819  1.2173
  291MOL0     H39273   3.064   8.095   4.536  0.0885 -0.8909 -4.4227
  291MOL0     H39274   3.049   7.964   4.666 -1.3448 -0.5355 -0.2923
  291MOL0     H39275   2.854   8.105   4.685  0.4565 -4.4209  3.1643
  291MOL0     H39276   2.801   7.955   4.624  0.1673  0.9504  1.0003
  291MOL0     H39277   2.852   8.061   4.392 -0.4747 -3.2086  1.6016
  291MOL0     H39278   2.864   8.220   4.465  0.7543 -0.8609 -1.2526
  291MOL0     H39279   2.622   8.169   4.380 -2.7939  0.6184  1.2172
  291MOL0     H39280   2.611   8.047   4.506 -0.5359  1.0126 -0.5518
  291MOL0     H39281   2.535   8.365   4.741  1.0482  0.2379  1.5550
  291MOL0     H39282   3.105   7.723   4.317  0.7689 -2.4669  0.4700
  291MOL0     H39283   3.412   7.665   4.148 -0.8038 -2.6002 -1.0914
  291MOL0     H39284   3.376   7.536   4.264 -0.3253 -0.6569  0.7236
  291MOL0     H39285   3.241   7.611   4.170  1.5262 -2.4879 -3.9324
  292MOL0     O39286   8.244   9.110   4.898 -0.0167 -0.2640 -1.1016
  292MOL0     C39287   8.135   9.078   4.950 -0.2453  0.2535  0.9447
  292MOL0     O39288   8.028   9.159   4.966 -0.2401  0.0727  1.3328
  292MOL0     C39289   8.056   9.292   4.930 -0.1320 -0.0843 -0.4623
  292MOL0     C39290   8.136   9.371   5.010  0.1464  0.6191 -0.3048
  292MOL0     C39291   8.127   9.513   4.991 -0.6274  1.9843  0.2337
  292MOL0     C39292   8.037   9.572   4.906  0.5188 -1.5056  0.4239
  292MOL0     O39293   8.001   9.704   4.913  0.6361 -0.4997 -0.0552
  292MOL0     C39294   7.967   9.762   5.045 -0.3622 -0.0468 -0.3173
  292MOL0     C39295   7.821   9.731   5.083  0.2588 -0.0501 -0.0939
  292MOL0     C39296   7.746   9.840   5.155  0.3726 -0.5079 -1.2815
  292MOL0     C39297   7.599   9.807   5.169 -0.1163  0.0624 -0.5247
  292MOL0     C39298   7.528   9.922   5.221 -0.8602 -0.1829 -0.1874
  292MOL0     C39299   7.382   9.887   5.253  0.1430  0.4065 -0.8151
  292MOL0     C39300   7.374   9.795   5.381  0.3978 -0.9526 -0.0744
  292MOL0     C39301   7.228   9.808   5.431 -0.3753 -0.3927 -0.7016
  292MOL0     N39302   7.199   9.944   5.493  0.2368 -0.7041 -0.4329
  292MOL0     C39303   7.239   9.971   5.623  1.2968 -0.2083  0.1027
  292MOL0     C39304   7.200  10.102   5.635  0.4567 -0.4180 -0.2632
  292MOL0     C39305   7.226  10.171   5.759  0.2147 -0.9268 -0.6581
  292MOL0     C39306   7.268  10.317   5.735  0.1833  0.4136  0.8291
  292MOL0     C39307   7.269  10.401   5.871  0.3080 -0.3363  0.3956
  292MOL0     C39308   7.326  10.345   6.002  0.2247  0.2462  0.3351
  292MOL0     O39309   7.445  10.273   5.978 -0.4757  0.1654  0.6196
  292MOL0     C39310   7.519  10.238   6.086 -0.7375  0.7725  0.1775
  292MOL0     C39311   7.468  10.172   6.194  0.0582 -0.9052  0.5312
  292MOL0     C39312   7.549  10.154   6.307  0.5182  0.4021 -0.0170
  292MOL0     C39313   7.690  10.171   6.307  0.0269 -0.7780  0.0995
  292MOL0     C39314   7.781  10.119   6.419  0.2376  0.7175  0.5941
  292MOL0     O39315   7.709  10.048   6.514  0.6713 -0.7577  0.4524
  292MOL0     C39316   7.752   9.972   6.614 -0.1505  0.2081 -0.4527
  292MOL0     C39317   7.665   9.875   6.668 -0.4867 -0.0692 -0.1251
  292MOL0     C39318   7.717   9.797   6.772  0.6849  0.4992 -0.3147
  292MOL0     C39319   7.846   9.808   6.821 -0.1502  0.0845 -0.4862
  292MOL0     O39320   7.867   9.728   6.929 -0.0817 -0.5947 -0.9266
  292MOL0     C39321   7.981   9.760   7.010 -0.5581  0.4294  0.3438
  292MOL0     C39322   7.981   9.703   7.149  0.5434  0.1652 -0.1749
  292MOL0     C39323   7.989   9.546   7.136  0.0663  0.8311  0.6133
  292MOL0     C39324   7.850   9.485   7.115  0.2819  0.1063  0.1942
  292MOL0     C39325   7.844   9.361   7.014 -0.0027 -0.4951 -0.4639
  292MOL0     C39326   7.895   9.397   6.869  0.3743  0.9184  0.9334
  292MOL0     C39327   7.868   9.283   6.770  0.3410 -1.1717  0.3580
  292MOL0     C39328   7.909   9.331   6.635  0.1324  0.4675 -0.1033
  292MOL0    Cl39329   7.804   9.471   6.576 -0.2040  0.4301 -0.3100
  292MOL0     C39330   7.931   9.900   6.767 -1.0403 -0.1240  0.0251
  292MOL0     C39331   7.885   9.982   6.668 -0.0962 -0.2816  0.6664
  292MOL0     O39332   7.904  10.120   6.401  0.1682  0.8674 -0.1587
  292MOL0     C39333   7.744  10.247   6.197 -0.0939  0.5842 -0.6902
  292MOL0     C39334   7.662  10.268   6.086  0.4200 -0.9496 -0.2636
  292MOL0     N39335   7.142  10.154   5.517  0.1560  0.5319  0.4484
  292MOL0     N39336   7.146  10.062   5.427  0.4159 -0.2297  0.5318
  292MOL0     C39337   7.979   9.491   4.817  0.1639  0.2050  0.1055
  292MOL0     C39338   7.972   9.348   4.832  0.4479 -0.3362  1.1027
  292MOL0     C39339   8.113   8.931   4.967  0.5236  0.6979 -0.1787
  292MOL0     C39340   7.982   8.881   4.942 -0.0089  0.6015  0.3719
  292MOL0     C39341   7.940   8.750   4.959 -1.0803  0.4617 -0.6526
  292MOL0     C39342   8.030   8.652   5.001  0.5957  0.5751  0.1998
  292MOL0     O39343   8.003   8.519   5.032  0.3517 -0.1199 -0.4864
  292MOL0     C39344   7.894   8.462   4.958  0.5391 -0.6140 -0.6450
  292MOL0     C39345   7.766   8.495   5.044  0.0225 -0.2781 -0.7819
  292MOL0     C39346   7.640   8.473   4.961  0.3412 -0.1795  0.8766
  292MOL0     C39347   7.614   8.581   4.856 -0.3335  0.7491  0.3091
  292MOL0     C39348   7.495   8.541   4.783 -0.4066 -0.6886 -0.2391
  292MOL0     C39349   7.385   8.535   4.741 -0.1380  0.7253  1.0781
  292MOL0     C39350   8.158   8.697   5.022  1.0339 -0.3857 -0.5053
  292MOL0     C39351   8.199   8.835   5.012 -0.3468  0.7725 -0.0727
  292MOL0     C39352   8.340   8.857   5.050 -0.1473 -0.4170 -0.5874
  292MOL0     H39353   8.185   9.343   5.103  0.1238  0.0178 -0.4701
  292MOL0     H39354   8.186   9.582   5.051  0.8540 -0.8084  2.1605
  292MOL0     H39355   8.026   9.727   5.131  1.8728 -0.8042 -2.0458
  292MOL0     H39356   7.975   9.870   5.034  1.4915 -0.2885 -2.1081
  292MOL0     H39357   7.826   9.632   5.131  3.2463  0.5637  1.1225
  292MOL0     H39358   7.767   9.711   4.991 -0.1326  0.2601  0.0654
  292MOL0     H39359   7.766   9.936   5.107 -0.9107  1.2747  1.4943
  292MOL0     H39360   7.789   9.846   5.256 -2.1949  3.3167 -0.2286
  292MOL0     H39361   7.556   9.790   5.069 -1.9064  3.1475 -0.4085
  292MOL0     H39362   7.575   9.720   5.230 -0.2240  1.8749  2.1533
  292MOL0     H39363   7.591   9.947   5.307 -2.1643 -0.8621  1.0266
  292MOL0     H39364   7.538  10.005   5.150  0.1447 -2.9590 -3.5614
  292MOL0     H39365   7.329   9.982   5.257 -2.6667 -1.0134 -1.9333
  292MOL0     H39366   7.344   9.836   5.164  0.0578 -1.0410  0.0175
  292MOL0     H39367   7.447   9.839   5.450  0.1055  0.0505 -0.3849
  292MOL0     H39368   7.393   9.688   5.368 -0.3622 -1.4171  2.1676
  292MOL0     H39369   7.166   9.795   5.342 -0.9422  1.3441 -0.6009
  292MOL0     H39370   7.213   9.736   5.511 -0.7449 -1.3097 -1.5711
  292MOL0     H39371   7.293   9.910   5.695  1.8573 -1.5313 -1.3781
  292MOL0     H39372   7.137  10.173   5.822  1.0146 -1.0320  0.5199
  292MOL0     H39373   7.305  10.125   5.820 -0.7660 -0.1455  1.3065
  292MOL0     H39374   7.370  10.317   5.696 -0.3907 -0.8113 -0.7930
  292MOL0     H39375   7.195  10.365   5.669  0.2105  0.8294  1.1013
  292MOL0     H39376   7.165  10.428   5.890 -0.7287 -1.1380 -3.3361
  292MOL0     H39377   7.305  10.499   5.839  2.7266 -1.7510 -1.5915
  292MOL0     H39378   7.248  10.277   6.036  1.5795 -1.8990 -0.6468
  292MOL0     H39379   7.348  10.421   6.078 -0.1486  1.0712 -0.3617
  292MOL0     H39380   7.365  10.139   6.203 -0.4336  0.6130  0.7825
  292MOL0     H39381   7.508  10.103   6.394  3.8859 -2.5299  0.0567
  292MOL0     H39382   7.567   9.850   6.630  0.4388 -0.2387 -2.5523
  292MOL0     H39383   7.653   9.722   6.818  0.9109  0.7389  0.4190
  292MOL0     H39384   8.069   9.716   6.964 -1.9787 -0.4328 -1.6769
  292MOL0     H39385   7.992   9.868   7.017 -0.8376  0.6702 -2.1552
  292MOL0     H39386   8.071   9.753   7.186  1.2309  2.4614 -4.3944
  292MOL0     H39387   7.899   9.734   7.214  0.8057  1.5841 -0.5027
  292MOL0     H39388   8.062   9.520   7.059  3.3046  1.4832  3.2389
  292MOL0     H39389   8.039   9.496   7.220  2.5309 -1.9035 -2.2131
  292MOL0     H39390   7.777   9.556   7.075 -0.8824 -0.3194  1.4825
  292MOL0     H39391   7.812   9.450   7.211  1.6005  0.4944  0.8729
  292MOL0     H39392   7.743   9.320   7.009 -0.2898  0.2076 -0.5351
  292MOL0     H39393   7.913   9.281   7.041  1.3014  0.4496 -0.9141
  292MOL0     H39394   7.847   9.491   6.837 -0.5982 -0.6699 -2.7292
  292MOL0     H39395   8.004   9.398   6.877  0.4780 -0.3949  0.0084
  292MOL0     H39396   7.759   9.269   6.771  0.0380  0.8549  1.1270
  292MOL0     H39397   7.917   9.190   6.802 -2.0038 -2.7083 -0.2624
  292MOL0     H39398   8.008   9.378   6.638  0.8476 -0.7890 -2.3208
  292MOL0     H39399   7.924   9.257   6.556  0.9115 -0.5331  0.9438
  292MOL0     H39400   8.028   9.919   6.813 -0.1898 -0.4940 -1.5670
  292MOL0     H39401   7.961  10.056   6.644  0.5937 -0.2004  2.8156
  292MOL0     H39402   7.847  10.274   6.181  0.1586  1.5015  2.0278
  292MOL0     H39403   7.715  10.311   6.001  1.1572  0.1043  0.6947
  292MOL0     H39404   7.906   9.534   4.749  0.1579 -2.0752 -1.4619
  292MOL0     H39405   7.899   9.290   4.776 -0.8228  3.3397 -1.3747
  292MOL0     H39406   7.909   8.948   4.900  2.0527  0.9997 -2.9202
  292MOL0     H39407   7.833   8.733   4.946 -1.0122 -0.2423 -0.3395
  292MOL0     H39408   7.902   8.353   4.952 -0.6598 -0.6833 -1.1402
  292MOL0     H39409   7.890   8.491   4.853 -2.3728 -4.0904 -1.6844
  292MOL0     H39410   7.763   8.601   5.070  0.8258 -0.0935 -1.3902
  292MOL0     H39411   7.762   8.431   5.132  1.8048  0.9281  0.2409
  292MOL0     H39412   7.548   8.468   5.020 -1.5758 -1.9777 -2.0159
  292MOL0     H39413   7.656   8.382   4.903 -1.7897  0.0017 -0.0719
  292MOL0     H39414   7.594   8.671   4.915 -0.4326  0.5832  0.5275
  292MOL0     H39415   7.696   8.595   4.785 -0.6659  2.1354  0.1623
  292MOL0     H39416   7.289   8.545   4.694  1.2512 -1.6384 -2.6965
  292MOL0     H39417   8.224   8.614   5.045  0.9932 -0.6926 -1.4429
  292MOL0     H39418   8.345   8.905   5.148 -4.3585  1.0716 -0.9325
  292MOL0     H39419   8.396   8.763   5.051 -2.2456 -1.7785 -2.1586
  292MOL0     H39420   8.390   8.918   4.974 -1.6451 -0.2698 -1.4941
  293MOL0     O39421   2.388   9.344   7.977  0.3646  0.2271  0.4214
  293MOL0     C39422   2.265   9.338   7.948  0.9119  0.9094 -0.3307
  293MOL0     O39423   2.209   9.307   7.826 -0.4028 -0.3383  0.2616
  293MOL0     C39424   2.282   9.235   7.731 -0.0116 -0.2367 -0.2482
  293MOL0     C39425   2.247   9.106   7.701 -0.0398 -0.5494 -0.4376
  293MOL0     C39426   2.317   9.033   7.606 -1.0629  0.1664  0.0183
  293MOL0     C39427   2.415   9.092   7.515 -0.8571  0.0211  0.2544
  293MOL0     O39428   2.484   9.030   7.410  0.2973  0.3693 -0.9645
  293MOL0     C39429   2.494   8.886   7.408  1.0790 -0.8939 -0.4688
  293MOL0     C39430   2.557   8.830   7.286 -0.2945  0.3817  0.1708
  293MOL0     C39431   2.561   8.673   7.292  0.4320  0.9938  0.3455
  293MOL0     C39432   2.679   8.606   7.360 -0.3520 -0.9000 -0.1121
  293MOL0     C39433   2.803   8.611   7.264  0.7315  0.4602  1.2733
  293MOL0     C39434   2.930   8.553   7.310  0.0068 -0.0077 -0.5289
  293MOL0     C39435   3.053   8.645   7.354  1.3450 -0.8082  0.6762
  293MOL0     C39436   3.179   8.562   7.355 -0.9302  0.5358  0.1352
  293MOL0     N39437   3.181   8.453   7.463 -0.0046  0.1963 -0.0631
  293MOL0     C39438   3.238   8.328   7.459  0.3103  0.6209  0.0572
  293MOL0     C39439   3.242   8.289   7.582 -0.3183  0.4600 -1.2445
  293MOL0     C39440   3.324   8.168   7.614  0.0230  0.5089  0.3771
  293MOL0     C39441   3.242   8.061   7.685  0.7199 -0.2120  0.1828
  293MOL0     C39442   3.323   7.956   7.771 -1.1576 -0.9943  1.3439
  293MOL0     C39443   3.402   7.859   7.675 -0.0051 -0.1739  0.8560
  293MOL0     O39444   3.318   7.820   7.576 -0.5756  0.5916 -0.3855
  293MOL0     C39445   3.372   7.774   7.454  0.0596 -0.0169 -0.0563
  293MOL0     C39446   3.508   7.753   7.433 -0.1717  0.6737 -0.1579
  293MOL0     C39447   3.562   7.706   7.313 -0.5698  0.2418  0.8874
  293MOL0     C39448   3.476   7.693   7.200 -1.0032  0.1981 -0.3626
  293MOL0     C39449   3.527   7.656   7.059  0.1176 -0.1440  0.2402
  293MOL0     O39450   3.659   7.675   7.048  0.1559  1.2036 -0.1510
  293MOL0     C39451   3.714   7.658   6.925  0.7638 -0.1789  0.2996
  293MOL0     C39452   3.739   7.531   6.871  0.3934 -0.2663  0.8742
  293MOL0     C39453   3.799   7.514   6.744 -0.1210 -0.3524  0.1359
  293MOL0     C39454   3.817   7.633   6.667 -0.1591 -0.3269  0.3023
  293MOL0     O39455   3.886   7.627   6.552 -0.2925  0.3173 -0.4823
  293MOL0     C39456   4.024   7.671   6.556  0.6205  0.6082 -0.1000
  293MOL0     C39457   4.066   7.716   6.416 -0.5431  0.0659  0.2602
  293MOL0     C39458   4.220   7.749   6.423  0.2296 -0.1658 -0.5485
  293MOL0     C39459   4.265   7.800   6.288 -0.8476  0.4088 -0.0348
  293MOL0     C39460   4.416   7.832   6.282  0.0650 -0.8696  0.2992
  293MOL0     C39461   4.515   7.708   6.296  0.8014 -0.4908 -0.5779
  293MOL0     C39462   4.652   7.770   6.328  0.1836 -0.5738  0.1927
  293MOL0     C39463   4.744   7.662   6.350 -0.9368  0.2381  0.0597
  293MOL0    Cl39464   4.704   7.596   6.504  0.3382  0.1564 -0.0221
  293MOL0     C39465   3.784   7.759   6.724  0.1730  0.1932  0.9794
  293MOL0     C39466   3.729   7.772   6.846 -0.1743 -0.3844  0.5316
  293MOL0     O39467   3.453   7.627   6.965  0.1271  0.5584 -0.3677
  293MOL0     C39468   3.340   7.704   7.218  0.9335 -0.4661  0.3484
  293MOL0     C39469   3.285   7.735   7.346  0.2822  0.4674 -0.1165
  293MOL0     N39470   3.200   8.383   7.674 -0.5267 -0.6280  0.6715
  293MOL0     N39471   3.165   8.481   7.594 -0.1833 -0.6382  1.2788
  293MOL0     C39472   2.438   9.226   7.544 -0.4655 -0.0817 -0.1614
  293MOL0     C39473   2.387   9.295   7.655 -0.1718  0.0616  0.2997
  293MOL0     C39474   2.171   9.381   8.059 -0.7649 -0.3613 -0.6064
  293MOL0     C39475   2.038   9.412   8.023 -0.3027 -0.7936  0.1991
  293MOL0     C39476   1.937   9.442   8.115  0.8940 -0.1054  0.2301
  293MOL0     C39477   1.959   9.465   8.247  0.5620  0.4762 -0.3631
  293MOL0     O39478   1.856   9.510   8.328 -0.6300  0.3327 -0.2526
  293MOL0     C39479   1.882   9.552   8.463  0.6693  0.1553 -0.3058
  293MOL0     C39480   1.754   9.604   8.520  0.4114 -0.1637 -1.0818
  293MOL0     C39481   1.778   9.639   8.671 -0.6827  0.1967 -0.7307
  293MOL0     C39482   1.644   9.686   8.730 -0.4118  0.2340 -1.3518
  293MOL0     C39483   1.604   9.820   8.698  0.0158 -0.1019  0.0886
  293MOL0     C39484   1.586   9.930   8.647  1.3968  0.9067 -0.5379
  293MOL0     C39485   2.098   9.455   8.279 -0.4416 -0.1404 -0.2576
  293MOL0     C39486   2.201   9.410   8.195  0.0130  0.1907  0.5873
  293MOL0     C39487   2.339   9.409   8.255 -0.4529 -0.2026 -0.1826
  293MOL0     H39488   2.176   9.060   7.769  1.3851  1.1893  2.4311
  293MOL0     H39489   2.306   8.925   7.604  4.1457 -0.8714  4.0515
  293MOL0     H39490   2.548   8.846   7.494 -0.2117  0.0568  0.8396
  293MOL0     H39491   2.393   8.846   7.421  2.0519 -3.2100  0.5082
  293MOL0     H39492   2.653   8.881   7.273 -0.1131  0.1468  0.5940
  293MOL0     H39493   2.510   8.869   7.195  1.9358  2.3861 -0.2319
  293MOL0     H39494   2.565   8.635   7.189 -1.0462 -2.3387  1.3869
  293MOL0     H39495   2.471   8.638   7.342  0.8843 -2.1796 -0.8066
  293MOL0     H39496   2.695   8.661   7.453 -3.0835  2.3979 -1.3749
  293MOL0     H39497   2.671   8.498   7.376  3.2292 -1.1942  0.7096
  293MOL0     H39498   2.789   8.555   7.171  2.5815  1.3265  0.4166
  293MOL0     H39499   2.818   8.711   7.221 -1.3486 -0.4753 -2.0526
  293MOL0     H39500   2.911   8.498   7.403 -0.4300  0.0345 -0.5903
  293MOL0     H39501   2.971   8.480   7.240  0.5233 -0.5863  0.3468
  293MOL0     H39502   3.040   8.690   7.453  0.3407 -0.2022  0.2890
  293MOL0     H39503   3.056   8.732   7.288  0.6593  0.2532  1.9854
  293MOL0     H39504   3.207   8.530   7.255 -2.3919  0.2449 -0.1878
  293MOL0     H39505   3.260   8.628   7.388 -1.4775  2.3558 -1.9612
  293MOL0     H39506   3.278   8.300   7.363 -0.9260  1.5878 -0.7756
  293MOL0     H39507   3.366   8.118   7.526  1.8175  3.0461 -0.3290
  293MOL0     H39508   3.415   8.197   7.668 -0.5120 -3.5587  3.9491
  293MOL0     H39509   3.179   8.100   7.766  0.3925  0.1739 -0.2598
  293MOL0     H39510   3.186   8.003   7.611  0.0091  0.9813 -0.2429
  293MOL0     H39511   3.253   7.892   7.825 -5.3424  0.9327 -1.2907
  293MOL0     H39512   3.395   8.010   7.834 -1.2956  0.1224  0.5624
  293MOL0     H39513   3.442   7.768   7.721  0.6879  0.4287  1.4597
  293MOL0     H39514   3.484   7.913   7.628  0.1318 -0.2565  0.9997
  293MOL0     H39515   3.580   7.727   7.510 -0.8773 -2.7200 -0.4762
  293MOL0     H39516   3.668   7.699   7.292 -1.2522 -1.1808 -2.9072
  293MOL0     H39517   3.737   7.440   6.929 -0.8521 -0.0123  1.2639
  293MOL0     H39518   3.841   7.415   6.726  1.5482  0.6937 -2.0936
  293MOL0     H39519   4.035   7.756   6.623 -1.7665 -1.3762  3.0875
  293MOL0     H39520   4.087   7.590   6.594  0.4087  0.1789 -0.6424
  293MOL0     H39521   4.051   7.632   6.347  1.5945  2.8963 -4.1355
  293MOL0     H39522   4.010   7.804   6.385 -1.1819 -0.6332 -0.6013
  293MOL0     H39523   4.234   7.836   6.489  1.9886 -1.3642  0.7661
  293MOL0     H39524   4.275   7.666   6.468  2.4458  2.4420  2.0186
  293MOL0     H39525   4.217   7.892   6.253 -0.7765 -0.8702 -3.9223
  293MOL0     H39526   4.238   7.727   6.211 -0.3926  2.5732 -2.4042
  293MOL0     H39527   4.439   7.908   6.357  1.1508  0.6077 -1.4538
  293MOL0     H39528   4.427   7.875   6.183  1.9460 -1.5773  0.1557
  293MOL0     H39529   4.480   7.654   6.385  1.0255  0.1169 -0.1216
  293MOL0     H39530   4.505   7.657   6.199  0.4476 -0.3851 -0.6004
  293MOL0     H39531   4.638   7.838   6.412  1.3813  0.3008 -0.2900
  293MOL0     H39532   4.686   7.833   6.245 -2.0689  0.9797  0.3318
  293MOL0     H39533   4.729   7.576   6.283  0.1661 -1.1814  1.5399
  293MOL0     H39534   4.847   7.698   6.343 -0.1095 -2.0318 -0.5931
  293MOL0     H39535   3.804   7.849   6.666 -0.9648 -0.8124 -1.0949
  293MOL0     H39536   3.710   7.863   6.902 -1.3766 -0.8231  0.8502
  293MOL0     H39537   3.266   7.692   7.139  1.4625 -1.8327  0.0335
  293MOL0     H39538   3.177   7.747   7.351  0.4286  2.1961 -0.6011
  293MOL0     H39539   2.515   9.289   7.499  0.1402 -1.4729 -1.1422
  293MOL0     H39540   2.417   9.398   7.672  0.6357 -0.0783 -0.2566
  293MOL0     H39541   2.024   9.424   7.916  3.7121  1.2137 -0.2866
  293MOL0     H39542   1.836   9.458   8.079  1.3504  3.1960  0.1032
  293MOL0     H39543   1.954   9.633   8.455  0.3434  0.6180  1.0478
  293MOL0     H39544   1.939   9.476   8.519  0.1187 -0.3997 -0.4867
  293MOL0     H39545   1.675   9.529   8.512 -2.4675  2.1352  2.5206
  293MOL0     H39546   1.725   9.692   8.462 -1.9790  0.0599  0.3292
  293MOL0     H39547   1.863   9.705   8.685 -0.1409 -0.9456  1.8675
  293MOL0     H39548   1.788   9.545   8.725  0.6999  0.1519 -1.0414
  293MOL0     H39549   1.562   9.623   8.697  1.4150 -2.1482 -1.5788
  293MOL0     H39550   1.647   9.671   8.838 -0.8571 -1.0997 -1.5141
  293MOL0     H39551   1.569  10.025   8.600  3.1644  0.5413 -2.0205
  293MOL0     H39552   2.122   9.476   8.382 -2.9855 -2.4578  0.9497
  293MOL0     H39553   2.392   9.314   8.249 -0.2910 -0.0258 -2.1121
  293MOL0     H39554   2.399   9.488   8.209  0.2753 -0.0698  0.9745
  293MOL0     H39555   2.343   9.443   8.359  0.6831  2.1832 -0.9336
  294MOL0     O39556   8.293   3.620   8.565 -0.8269  0.0176 -0.4974
  294MOL0     C39557   8.193   3.554   8.582  0.4141 -0.5984 -0.5608
  294MOL0     O39558   8.181   3.422   8.562  0.2241 -0.2113 -0.2096
  294MOL0     C39559   8.295   3.353   8.515  0.9857  0.0893 -0.1689
  294MOL0     C39560   8.361   3.389   8.390 -0.4621 -0.1761 -0.1721
  294MOL0     C39561   8.453   3.302   8.336  0.6491  0.2421  0.2046
  294MOL0     C39562   8.478   3.176   8.394 -0.5170 -0.4848 -0.7445
  294MOL0     O39563   8.560   3.077   8.373  0.3535  0.5400  0.7521
  294MOL0     C39564   8.656   3.095   8.272 -0.0646 -0.0936 -0.0620
  294MOL0     C39565   8.785   3.163   8.317 -0.0229 -0.7145  0.0950
  294MOL0     C39566   8.894   3.136   8.212  0.9480 -0.2450 -0.0852
  294MOL0     C39567   8.978   3.264   8.179 -0.1639  0.6586  0.0522
  294MOL0     C39568   9.078   3.252   8.062  0.2586 -0.6842 -0.4878
  294MOL0     C39569   9.165   3.128   8.088  0.3062  0.8384  0.4398
  294MOL0     C39570   9.266   3.100   7.979 -0.3040  0.1802 -0.0497
  294MOL0     C39571   9.349   2.968   7.996  0.4193 -0.3628 -0.2428
  294MOL0     N39572   9.441   2.984   8.114 -0.2858 -0.2391 -0.2627
  294MOL0     C39573   9.556   3.051   8.133  1.0784  0.1558  0.1130
  294MOL0     C39574   9.594   3.019   8.258 -0.2457 -0.1664 -0.4823
  294MOL0     C39575   9.717   3.078   8.317  0.7951  0.3854 -0.0722
  294MOL0     C39576   9.799   2.998   8.415  0.6659 -0.7894  0.6634
  294MOL0     C39577   9.815   2.851   8.373  0.7734 -0.1774  0.0462
  294MOL0     C39578   9.891   2.765   8.478 -0.5465 -0.1931  0.7054
  294MOL0     O39579   9.917   2.636   8.417 -0.4524 -0.0581  0.0245
  294MOL0     C39580  10.010   2.549   8.469 -0.0218 -0.2107  0.4646
  294MOL0     C39581  10.094   2.578   8.576 -0.6283  0.7362 -0.4498
  294MOL0     C39582  10.206   2.501   8.610  0.7132  0.4415  0.2217
  294MOL0     C39583  10.230   2.388   8.527  0.3380  0.5603  0.4070
  294MOL0     C39584  10.341   2.292   8.560 -1.2404 -1.0340  1.1790
  294MOL0     O39585  10.418   2.331   8.664 -0.2447 -0.1727  0.4129
  294MOL0     C39586  10.475   2.226   8.734 -0.3423 -0.8073 -0.1387
  294MOL0     C39587  10.462   2.247   8.868 -0.1791  1.5766 -0.1431
  294MOL0     C39588  10.502   2.151   8.959 -0.0566  0.3938  0.5400
  294MOL0     C39589  10.563   2.032   8.923 -1.1010  0.1124  0.2751
  294MOL0     O39590  10.613   1.951   9.024 -0.3045  0.3909 -0.0627
  294MOL0     C39591  10.592   1.813   9.001  0.1077 -0.3065 -0.4578
  294MOL0     C39592  10.451   1.757   9.042 -0.2155  0.2201  0.1574
  294MOL0     C39593  10.433   1.782   9.196 -0.1116  0.4271 -0.6686
  294MOL0     C39594  10.476   1.657   9.275  0.3828 -0.1111 -1.3523
  294MOL0     C39595  10.465   1.692   9.427  0.6811 -0.2808  0.2241
  294MOL0     C39596  10.541   1.603   9.519 -0.4389  0.2939 -1.0408
  294MOL0     C39597  10.538   1.659   9.665 -0.8406 -0.3000  0.1348
  294MOL0     C39598  10.677   1.722   9.696  0.1441 -0.5851 -0.6937
  294MOL0    Cl39599  10.713   1.873   9.617  0.2448  0.1286  0.0122
  294MOL0     C39600  10.573   2.015   8.785 -0.5222  0.6060 -0.8162
  294MOL0     C39601  10.540   2.111   8.688  0.5687 -0.6968 -0.2776
  294MOL0     O39602  10.354   2.190   8.500  0.2766 -0.1145  0.9264
  294MOL0     C39603  10.129   2.346   8.434 -0.2550  0.5553  0.4983
  294MOL0     C39604  10.025   2.430   8.403 -0.3794  0.0417 -0.5142
  294MOL0     N39605   9.504   2.938   8.313 -0.4592  0.3384  0.4002
  294MOL0     N39606   9.415   2.909   8.225 -0.1539 -0.0939  0.2591
  294MOL0     C39607   8.412   3.143   8.516  0.2185  0.4430 -0.5866
  294MOL0     C39608   8.319   3.232   8.576 -0.3789 -0.0438 -0.1446
  294MOL0     C39609   8.064   3.625   8.611  1.5234 -0.8661  0.2607
  294MOL0     C39610   7.957   3.538   8.641  0.9376  0.2214 -0.5446
  294MOL0     C39611   7.829   3.592   8.680 -0.1118  0.7971 -0.1257
  294MOL0     C39612   7.808   3.731   8.687 -0.4798 -0.4088  0.3715
  294MOL0     O39613   7.680   3.758   8.724 -0.0703 -0.4154  0.8629
  294MOL0     C39614   7.676   3.882   8.796  0.8884 -0.1181 -0.7496
  294MOL0     C39615   7.530   3.903   8.806 -0.7851 -0.3529 -0.0442
  294MOL0     C39616   7.476   3.943   8.661  0.0218  0.4344 -0.3275
  294MOL0     C39617   7.334   4.008   8.654  0.4029  0.8506  0.6389
  294MOL0     C39618   7.290   4.037   8.517  0.3193 -0.4632  0.4809
  294MOL0     C39619   7.263   4.076   8.404  0.5901  0.7808 -0.3220
  294MOL0     C39620   7.925   3.817   8.675  0.4036 -0.7156  0.3338
  294MOL0     C39621   8.045   3.763   8.619  0.8870  0.2393 -0.0911
  294MOL0     C39622   8.150   3.863   8.581 -0.0406  0.3202 -0.6762
  294MOL0     H39623   8.338   3.476   8.330 -4.4314 -1.7704 -1.2746
  294MOL0     H39624   8.495   3.329   8.240  0.7595 -3.8986 -1.1061
  294MOL0     H39625   8.676   2.996   8.230  1.0343  1.1995 -2.8521
  294MOL0     H39626   8.609   3.145   8.186  0.0791  0.2256  0.0413
  294MOL0     H39627   8.816   3.119   8.412 -0.1739  2.9207  2.0207
  294MOL0     H39628   8.784   3.270   8.342 -1.6419 -0.7368  0.2340
  294MOL0     H39629   8.851   3.096   8.120 -0.4831  3.6109 -1.3356
  294MOL0     H39630   8.966   3.065   8.253  2.5001 -0.0867 -2.3207
  294MOL0     H39631   8.911   3.347   8.156  0.1406  0.8176 -0.2858
  294MOL0     H39632   9.030   3.303   8.267 -0.9185  1.8315 -0.0029
  294MOL0     H39633   9.021   3.244   7.970  0.0577 -4.2906 -0.2096
  294MOL0     H39634   9.138   3.342   8.047 -1.4405  0.4205 -0.8297
  294MOL0     H39635   9.205   3.134   8.190 -1.6352  1.0747  1.2224
  294MOL0     H39636   9.097   3.042   8.087  0.1217  0.9872 -0.4506
  294MOL0     H39637   9.338   3.183   7.977  0.2826 -0.1751  2.6143
  294MOL0     H39638   9.209   3.113   7.887 -1.8976  1.4984  1.0664
  294MOL0     H39639   9.275   2.891   8.020  0.3689  0.1087  1.1898
  294MOL0     H39640   9.403   2.958   7.901  1.1794  3.2832 -0.3706
  294MOL0     H39641   9.601   3.107   8.052 -1.8651  0.1685 -1.6667
  294MOL0     H39642   9.777   3.105   8.230  0.9058  0.4092  0.0118
  294MOL0     H39643   9.685   3.169   8.367 -2.2984 -0.6250  0.0235
  294MOL0     H39644   9.898   3.042   8.433  1.1387 -1.4346 -0.2361
  294MOL0     H39645   9.742   2.998   8.508 -0.6249  0.0711 -0.0943
  294MOL0     H39646   9.868   2.849   8.277  1.5283 -1.7528  0.4557
  294MOL0     H39647   9.717   2.806   8.355  0.4120 -0.2491  1.9551
  294MOL0     H39648   9.838   2.746   8.571 -1.6736  1.3628  0.4076
  294MOL0     H39649   9.983   2.824   8.491  1.0154 -1.9723 -1.3309
  294MOL0     H39650  10.071   2.670   8.629  0.3711  0.3041  0.7833
  294MOL0     H39651  10.279   2.533   8.684  0.5575 -1.9979  1.5062
  294MOL0     H39652  10.442   2.343   8.916 -0.1812 -0.0175  3.4052
  294MOL0     H39653  10.503   2.159   9.067 -0.0410 -0.3904  0.6039
  294MOL0     H39654  10.631   1.773   8.907 -0.3946 -2.5981  0.2336
  294MOL0     H39655  10.656   1.762   9.074  0.6054 -1.3387 -1.5629
  294MOL0     H39656  10.379   1.803   8.974  1.9875 -0.5069 -2.8645
  294MOL0     H39657  10.442   1.653   9.011  0.7412  1.1817 -4.0721
  294MOL0     H39658  10.484   1.869   9.239  3.6579 -2.8221  2.2659
  294MOL0     H39659  10.327   1.785   9.221  0.6135  2.0745  2.8680
  294MOL0     H39660  10.578   1.625   9.252  1.2617  2.8876 -2.1335
  294MOL0     H39661  10.416   1.572   9.242 -2.6717  2.3341 -2.6010
  294MOL0     H39662  10.360   1.694   9.456  1.3133  0.5398  2.6366
  294MOL0     H39663  10.505   1.793   9.439  0.6981 -0.2162 -0.3578
  294MOL0     H39664  10.502   1.502   9.535 -2.4835  1.3782  1.6033
  294MOL0     H39665  10.639   1.569   9.485 -0.9302  0.2080 -2.4719
  294MOL0     H39666  10.510   1.581   9.737 -2.7525  1.2623  1.1870
  294MOL0     H39667  10.463   1.737   9.681  0.8861  1.6726 -0.9281
  294MOL0     H39668  10.675   1.745   9.803 -1.0373  3.6302 -1.4593
  294MOL0     H39669  10.750   1.643   9.676  0.2575 -0.9596  0.9990
  294MOL0     H39670  10.629   1.925   8.761 -0.9070  0.2233 -0.3024
  294MOL0     H39671  10.557   2.105   8.581 -1.8428  0.3205 -0.7924
  294MOL0     H39672  10.132   2.249   8.387 -2.2236  0.4957  0.4163
  294MOL0     H39673   9.948   2.398   8.333  0.5186 -1.5022 -0.8271
  294MOL0     H39674   8.423   3.051   8.573  1.8524  0.6378 -0.5597
  294MOL0     H39675   8.264   3.197   8.662  0.5353 -2.7187 -0.5643
  294MOL0     H39676   7.949   3.429   8.644 -3.1724  0.3617 -0.5913
  294MOL0     H39677   7.739   3.532   8.685  0.9712 -0.9241 -0.3771
  294MOL0     H39678   7.730   3.970   8.760  1.9915  0.1787  1.4384
  294MOL0     H39679   7.716   3.855   8.894 -0.2948 -2.0508 -0.7530
  294MOL0     H39680   7.510   3.988   8.871 -0.7063  1.4833 -2.2885
  294MOL0     H39681   7.487   3.808   8.838 -1.0582  0.3385  1.7165
  294MOL0     H39682   7.480   3.850   8.605 -0.5886 -0.9727  1.8171
  294MOL0     H39683   7.544   4.019   8.623  1.0180  0.0389  0.6152
  294MOL0     H39684   7.259   3.936   8.688 -0.4647  0.6998 -1.4396
  294MOL0     H39685   7.326   4.101   8.711  0.3282  0.3714  1.4244
  294MOL0     H39686   7.214   4.109   8.315 -4.1895 -0.7903  1.3790
  294MOL0     H39687   7.921   3.925   8.688 -1.1864 -0.6774 -0.2332
  294MOL0     H39688   8.101   3.960   8.567  1.0969  1.7894  3.7930
  294MOL0     H39689   8.214   3.868   8.670  2.3819 -3.8380 -1.9393
  294MOL0     H39690   8.213   3.835   8.497 -0.4281 -0.6045 -0.6751
  295MOL0     O39691   8.080   2.958   3.057  0.6205 -0.6850  0.5448
  295MOL0     C39692   8.103   3.018   2.950 -1.0781 -0.3209 -0.6754
  295MOL0     O39693   8.061   3.143   2.923 -0.0296  0.3427  0.7289
  295MOL0     C39694   8.041   3.242   3.012  0.0296  1.3143  0.7009
  295MOL0     C39695   8.115   3.353   3.004  0.4461  0.1669  0.1786
  295MOL0     C39696   8.106   3.456   3.102  0.1142  0.2516 -0.4303
  295MOL0     C39697   8.023   3.441   3.223 -0.5125  0.2815 -0.7905
  295MOL0     O39698   8.018   3.523   3.334 -0.4125 -0.1410  0.6817
  295MOL0     C39699   8.057   3.654   3.320  0.4597 -0.3173  0.1178
  295MOL0     C39700   8.200   3.665   3.365  0.2115  0.6254 -0.7297
  295MOL0     C39701   8.240   3.811   3.379  0.5576 -0.0834  1.3624
  295MOL0     C39702   8.222   3.875   3.512  0.1210 -0.4818 -1.1869
  295MOL0     C39703   8.331   3.855   3.616  1.0019  0.5745 -0.2515
  295MOL0     C39704   8.291   3.920   3.750  0.4236  0.2827  0.1599
  295MOL0     C39705   8.386   3.885   3.870  0.0672 -0.1854 -0.8494
  295MOL0     C39706   8.531   3.940   3.857 -1.0295  0.0152 -0.0121
  295MOL0     N39707   8.603   3.889   3.980  0.3254  0.2398 -0.2523
  295MOL0     C39708   8.706   3.799   3.986  0.4030  0.6258  0.0963
  295MOL0     C39709   8.741   3.791   4.118 -0.4463 -1.0455  0.2795
  295MOL0     C39710   8.858   3.709   4.154  0.7469 -1.3295 -0.2429
  295MOL0     C39711   8.810   3.568   4.179  0.5069 -0.9015  0.2517
  295MOL0     C39712   8.914   3.493   4.263  0.3835 -0.6565 -0.4556
  295MOL0     C39713   9.043   3.469   4.183 -0.4791  0.3288 -1.0203
  295MOL0     O39714   9.125   3.397   4.276  0.7465  0.9358  0.4302
  295MOL0     C39715   9.237   3.330   4.226  0.8808  0.6299  0.6392
  295MOL0     C39716   9.271   3.314   4.093 -0.2299  0.2719 -0.0001
  295MOL0     C39717   9.397   3.259   4.053 -0.3375 -0.1709 -0.8609
  295MOL0     C39718   9.492   3.230   4.150  0.1553 -0.5586 -0.6557
  295MOL0     C39719   9.622   3.169   4.111 -0.6155  0.9515  0.7073
  295MOL0     O39720   9.709   3.139   4.220  0.7861 -0.2402  0.6332
  295MOL0     C39721   9.833   3.092   4.197 -0.7683 -0.1797  0.7090
  295MOL0     C39722   9.853   2.951   4.175 -0.2677  0.0432  0.8692
  295MOL0     C39723   9.988   2.905   4.165  1.1216 -0.3666 -0.6146
  295MOL0     C39724  10.096   2.986   4.169  0.7239  0.0842 -1.4711
  295MOL0     O39725  10.229   2.935   4.161 -0.1070  0.2424 -0.4920
  295MOL0     C39726  10.264   2.846   4.051 -0.2994  0.0596 -0.5419
  295MOL0     C39727  10.227   2.909   3.922  1.2726  0.6227  0.8556
  295MOL0     C39728  10.312   2.860   3.807 -0.3929  0.1019  0.2591
  295MOL0     C39729  10.300   2.954   3.683 -0.7809  0.6744 -0.2597
  295MOL0     C39730  10.341   2.898   3.552 -0.2929  0.1951 -0.0924
  295MOL0     C39731  10.490   2.848   3.567  1.1297 -0.3014 -0.1684
  295MOL0     C39732  10.499   2.698   3.573 -0.7120  0.7830  0.2272
  295MOL0     C39733  10.631   2.654   3.633  0.3645 -0.2973  0.2343
  295MOL0    Cl39734  10.652   2.484   3.681 -0.0550  0.0375 -0.1106
  295MOL0     C39735  10.075   3.122   4.205  0.0386 -0.4114 -0.0656
  295MOL0     C39736   9.946   3.185   4.210 -1.0150 -0.0278 -0.0298
  295MOL0     O39737   9.633   3.131   3.995  0.3974  0.6291  0.0555
  295MOL0     C39738   9.464   3.262   4.287  0.3550  0.6001  0.5461
  295MOL0     C39739   9.334   3.309   4.325  0.1746 -0.0980  0.2984
  295MOL0     N39740   8.659   3.880   4.185 -0.6795  0.0207 -0.1840
  295MOL0     N39741   8.580   3.935   4.103 -0.2589 -0.5699 -1.0549
  295MOL0     C39742   7.940   3.322   3.223  0.3571 -0.3582  1.3393
  295MOL0     C39743   7.942   3.227   3.111  1.0007  0.5786  0.0420
  295MOL0     C39744   8.203   2.952   2.869 -0.2941 -0.4076 -0.3504
  295MOL0     C39745   8.278   3.038   2.791  0.0200 -0.5755 -0.1148
  295MOL0     C39746   8.387   2.994   2.716  0.2199  0.4258  0.6340
  295MOL0     C39747   8.432   2.855   2.741 -0.2653 -0.2586  0.5694
  295MOL0     O39748   8.540   2.793   2.684  0.7333  0.4680 -0.2861
  295MOL0     C39749   8.540   2.816   2.542 -0.3925  0.9562  0.6005
  295MOL0     C39750   8.404   2.808   2.472  0.2648 -0.1151  0.1179
  295MOL0     C39751   8.421   2.865   2.327 -0.6513 -0.3347 -0.4679
  295MOL0     C39752   8.316   2.814   2.224  0.1659  0.3665 -0.0823
  295MOL0     C39753   8.376   2.828   2.089  0.1793  0.9406 -0.1131
  295MOL0     C39754   8.435   2.841   1.984  0.8047 -0.6137 -1.3178
  295MOL0     C39755   8.353   2.769   2.823 -0.6306  0.0424 -0.3904
  295MOL0     C39756   8.244   2.813   2.887  0.3050 -0.0834  0.0166
  295MOL0     C39757   8.169   2.716   2.983 -0.1956  0.2184 -0.2853
  295MOL0     H39758   8.188   3.359   2.924 -1.1768  1.6328 -1.2847
  295MOL0     H39759   8.177   3.536   3.085  0.0072  0.2396 -0.9435
  295MOL0     H39760   8.040   3.686   3.217 -3.0176 -0.8379  0.4326
  295MOL0     H39761   7.979   3.714   3.368  0.2359 -0.4602 -0.0652
  295MOL0     H39762   8.266   3.608   3.300 -1.7473  0.1670 -2.4386
  295MOL0     H39763   8.202   3.617   3.463  1.5604 -0.0305 -1.0605
  295MOL0     H39764   8.199   3.879   3.303  2.7928 -1.0175 -0.8241
  295MOL0     H39765   8.346   3.806   3.352 -0.1123 -0.3843 -1.5968
  295MOL0     H39766   8.227   3.983   3.498  0.2611 -0.2474  0.4624
  295MOL0     H39767   8.124   3.843   3.551  0.5217 -0.1783  0.1250
  295MOL0     H39768   8.341   3.747   3.629  0.6987  0.5469 -0.2471
  295MOL0     H39769   8.426   3.899   3.585  1.2589 -1.6402 -3.0603
  295MOL0     H39770   8.288   4.029   3.736  0.0398  0.4477  1.3544
  295MOL0     H39771   8.189   3.887   3.773 -0.6715  3.4608  0.4592
  295MOL0     H39772   8.389   3.776   3.878  1.9412 -0.1287 -0.1876
  295MOL0     H39773   8.349   3.914   3.969 -0.5750  0.4057 -1.2502
  295MOL0     H39774   8.584   3.902   3.769  0.3147 -0.5597  1.0086
  295MOL0     H39775   8.528   4.049   3.849  1.5105  0.0446 -1.3781
  295MOL0     H39776   8.756   3.762   3.897  0.9243 -0.9004  0.9879
  295MOL0     H39777   8.932   3.705   4.073 -0.2483  0.5484 -1.3168
  295MOL0     H39778   8.907   3.756   4.239  0.6042 -1.1668 -0.2509
  295MOL0     H39779   8.717   3.568   4.236  0.8917 -0.2203  0.9050
  295MOL0     H39780   8.795   3.507   4.090 -1.5987  1.4933 -1.1669
  295MOL0     H39781   8.865   3.403   4.302 -0.2538  0.8467  2.5261
  295MOL0     H39782   8.934   3.538   4.360 -0.0144 -4.1424  1.4261
  295MOL0     H39783   9.098   3.562   4.164  1.6251 -0.5690  0.3285
  295MOL0     H39784   9.030   3.415   4.089 -0.7084  1.3270 -1.5725
  295MOL0     H39785   9.218   3.346   4.004  0.9667 -0.5761 -1.0720
  295MOL0     H39786   9.416   3.249   3.947 -3.4344 -2.8372 -1.3143
  295MOL0     H39787   9.779   2.872   4.167 -0.6781  0.4206  0.9112
  295MOL0     H39788  10.015   2.802   4.143 -1.7131 -1.2058 -0.6479
  295MOL0     H39789  10.372   2.835   4.053  0.0364  2.8224  1.1270
  295MOL0     H39790  10.227   2.744   4.066  2.3704 -1.1287 -1.3577
  295MOL0     H39791  10.122   2.888   3.900  1.6948 -0.5843 -0.1577
  295MOL0     H39792  10.246   3.015   3.937  1.5292  0.5954  0.7249
  295MOL0     H39793  10.415   2.880   3.837 -0.3093 -0.2441  0.2088
  295MOL0     H39794  10.284   2.760   3.774 -2.6264  0.1215  1.8840
  295MOL0     H39795  10.365   3.040   3.698 -3.2149  2.2608  2.2641
  295MOL0     H39796  10.198   2.995   3.686 -0.7733  0.8110  3.7134
  295MOL0     H39797  10.342   2.979   3.479  1.6133 -0.1984 -0.5668
  295MOL0     H39798  10.269   2.819   3.527  2.6135 -2.4684 -0.7042
  295MOL0     H39799  10.553   2.861   3.478  0.0930 -3.3894 -1.5026
  295MOL0     H39800  10.525   2.901   3.656 -1.0483  0.2254  0.4231
  295MOL0     H39801  10.494   2.657   3.472 -0.7689 -3.3615  1.7129
  295MOL0     H39802  10.410   2.661   3.625 -0.6050  1.3348  0.8090
  295MOL0     H39803  10.699   2.669   3.549 -0.0639  0.4245  0.0000
  295MOL0     H39804  10.651   2.721   3.717  1.2642 -1.3071  0.8475
  295MOL0     H39805  10.172   3.168   4.215  0.9903 -1.4870 -3.1849
  295MOL0     H39806   9.939   3.293   4.222  2.0060  0.1709  0.4997
  295MOL0     H39807   9.525   3.264   4.377 -0.5196  0.1746  1.1733
  295MOL0     H39808   9.309   3.339   4.427  1.0732  2.3433 -0.1321
  295MOL0     H39809   7.878   3.327   3.312 -1.3179 -2.5423  0.3830
  295MOL0     H39810   7.869   3.146   3.109  0.4718  1.0614 -0.4706
  295MOL0     H39811   8.257   3.144   2.780  3.4927  0.2478 -0.0322
  295MOL0     H39812   8.449   3.060   2.656 -0.2021 -0.6296 -1.0252
  295MOL0     H39813   8.595   2.737   2.490  0.8964  3.0813 -1.4638
  295MOL0     H39814   8.597   2.908   2.526 -0.4157  0.8830  0.0635
  295MOL0     H39815   8.319   2.854   2.524  0.4757  1.2007 -0.6421
  295MOL0     H39816   8.385   2.701   2.460 -1.9861 -0.0771  2.4924
  295MOL0     H39817   8.520   2.841   2.287 -1.0511 -5.6932  1.0093
  295MOL0     H39818   8.428   2.973   2.342  3.4903 -0.8840  3.8318
  295MOL0     H39819   8.293   2.709   2.242  1.2071  0.2361  0.5713
  295MOL0     H39820   8.223   2.872   2.232  0.7569  1.0927  3.3420
  295MOL0     H39821   8.482   2.843   1.888  3.0584  2.0007 -0.2680
  295MOL0     H39822   8.399   2.671   2.818  2.5867  1.4685 -1.1864
  295MOL0     H39823   8.185   2.614   2.948  0.9427  1.4725 -3.9452
  295MOL0     H39824   8.211   2.731   3.083 -3.5065  0.7343  1.1602
  295MOL0     H39825   8.064   2.746   2.994 -0.2942  0.0890 -0.8390
  296MOL0     O39826  10.195   8.746   8.602 -0.4291  0.0748  0.7234
  296MOL0     C39827  10.103   8.691   8.545 -0.5447  0.3398 -0.1815
  296MOL0     O39828  10.130   8.576   8.479  0.6957  0.4854 -0.0183
  296MOL0     C39829  10.251   8.516   8.480 -0.2506  0.4753 -0.0283
  296MOL0     C39830  10.298   8.458   8.362  0.4028  0.3929 -0.3293
  296MOL0     C39831  10.406   8.372   8.369 -0.0174 -1.0718 -0.5691
  296MOL0     C39832  10.476   8.349   8.496 -0.1233 -0.3724  0.3791
  296MOL0     O39833  10.580   8.259   8.491 -0.7593 -0.6576 -0.0520
  296MOL0     C39834  10.665   8.250   8.609 -0.2829  0.3319  0.9483
  296MOL0     C39835  10.777   8.150   8.570 -0.8332  1.1609 -0.2822
  296MOL0     C39836  10.876   8.139   8.693  0.2894  0.6041  0.3587
  296MOL0     C39837  10.992   8.232   8.674 -0.3970  0.2820 -0.0403
  296MOL0     C39838  11.093   8.227   8.795  0.4112  0.8334 -0.5207
  296MOL0     C39839  11.167   8.093   8.810 -0.8934  0.3530 -0.6249
  296MOL0     C39840  11.267   8.108   8.926 -0.1506  1.1071  0.6380
  296MOL0     C39841  11.352   7.984   8.954 -0.0077  0.5702 -0.0497
  296MOL0     N39842  11.441   7.950   8.836  1.0238  0.5214  1.3044
  296MOL0     C39843  11.576   7.966   8.825 -0.3990  0.2339 -0.2329
  296MOL0     C39844  11.610   7.887   8.714 -1.0276  0.7539  0.6286
  296MOL0     C39845  11.740   7.870   8.645  0.2562 -0.3009  0.1354
  296MOL0     C39846  11.815   7.738   8.690 -1.0578  0.6468 -0.5559
  296MOL0     C39847  11.949   7.726   8.609 -0.3138  0.4294 -0.4399
  296MOL0     C39848  12.035   7.627   8.671 -0.7591 -0.1803 -0.1177
  296MOL0     O39849  11.975   7.503   8.644  0.1183 -1.0379  0.0378
  296MOL0     C39850  12.014   7.431   8.537 -0.3192  0.1813  0.0411
  296MOL0     C39851  12.106   7.454   8.433 -1.0694  1.0535 -0.5901
  296MOL0     C39852  12.124   7.352   8.340  0.6327  0.1680 -0.4962
  296MOL0     C39853  12.045   7.237   8.338  0.5226  0.3761 -0.8620
  296MOL0     C39854  12.055   7.128   8.235 -0.2159 -0.9897 -0.1259
  296MOL0     O39855  12.149   7.143   8.141  0.0551 -0.2555  0.0253
  296MOL0     C39856  12.158   7.053   8.032  0.5263  0.6202 -1.1813
  296MOL0     C39857  12.227   7.092   7.917 -0.6294 -0.3766 -0.7174
  296MOL0     C39858  12.263   7.004   7.810  0.5811 -0.2866  0.2259
  296MOL0     C39859  12.210   6.872   7.801  0.2805 -0.3093 -0.1456
  296MOL0     O39860  12.228   6.797   7.690 -0.0651  0.0967  0.3518
  296MOL0     C39861  12.218   6.658   7.694  0.2166  0.4333  0.4626
  296MOL0     C39862  12.274   6.608   7.570 -0.3261 -0.6280  0.4170
  296MOL0     C39863  12.186   6.647   7.449  0.5836  0.4464 -0.0398
  296MOL0     C39864  12.230   6.590   7.311  0.5127 -0.0782  0.1887
  296MOL0     C39865  12.127   6.616   7.196  0.2475 -0.1435  0.6858
  296MOL0     C39866  12.183   6.548   7.067 -0.4140 -0.6632 -0.4368
  296MOL0     C39867  12.092   6.552   6.952  0.6114  0.6298  0.4632
  296MOL0     C39868  12.162   6.527   6.824  0.9994 -0.9515  0.0614
  296MOL0    Cl39869  12.247   6.663   6.753 -0.3209 -0.2171  0.1281
  296MOL0     C39870  12.142   6.832   7.920 -1.0401 -0.2086  0.5039
  296MOL0     C39871  12.114   6.916   8.032 -0.5570 -0.4334 -0.9184
  296MOL0     O39872  11.974   7.036   8.241  0.6656 -0.1052 -0.2084
  296MOL0     C39873  11.951   7.220   8.436  0.3980 -0.6950 -0.4003
  296MOL0     C39874  11.934   7.313   8.535 -0.9082  0.4177  0.2371
  296MOL0     N39875  11.495   7.827   8.671  0.2906 -0.3001 -0.8515
  296MOL0     N39876  11.395   7.872   8.732  0.5279 -1.0613 -0.7861
  296MOL0     C39877  10.427   8.406   8.614  1.0620  0.2164 -0.1116
  296MOL0     C39878  10.316   8.490   8.602  0.4580 -1.2928 -0.2894
  296MOL0     C39879   9.965   8.745   8.535 -0.1649 -0.1444  0.1684
  296MOL0     C39880   9.863   8.657   8.504 -0.6586  0.6496 -0.0520
  296MOL0     C39881   9.735   8.698   8.501  0.6197 -1.4391  1.2324
  296MOL0     C39882   9.698   8.829   8.506  0.2855 -0.0477  0.1296
  296MOL0     O39883   9.566   8.879   8.492 -0.6286 -0.2104  0.2565
  296MOL0     C39884   9.469   8.800   8.411 -0.3114 -0.4297  0.5551
  296MOL0     C39885   9.352   8.892   8.362 -0.5759  0.0845 -0.6050
  296MOL0     C39886   9.256   8.915   8.490  0.9376  0.2635 -0.2398
  296MOL0     C39887   9.174   9.046   8.482  0.4242  0.1849  0.2842
  296MOL0     C39888   9.037   9.035   8.437  0.5927 -0.3057 -0.2395
  296MOL0     C39889   8.922   9.056   8.393 -0.1956  0.0479 -0.4937
  296MOL0     C39890   9.795   8.917   8.536  0.2210 -0.3709  0.1064
  296MOL0     C39891   9.930   8.878   8.560  0.4174 -0.3250  1.1006
  296MOL0     C39892  10.038   8.990   8.583 -0.0470 -0.4084 -0.1149
  296MOL0     H39893  10.248   8.488   8.270 -4.4186 -0.4507  1.6952
  296MOL0     H39894  10.449   8.332   8.278  1.0382  0.9420 -1.0239
  296MOL0     H39895  10.717   8.346   8.617 -0.5012  0.5985 -0.4948
  296MOL0     H39896  10.624   8.226   8.707  1.5341 -0.2974  1.5965
  296MOL0     H39897  10.826   8.171   8.475 -1.2191 -1.1483 -1.0511
  296MOL0     H39898  10.734   8.051   8.554  1.5719 -0.2871  1.5681
  296MOL0     H39899  10.907   8.035   8.708  0.0745  0.5950  0.7562
  296MOL0     H39900  10.815   8.166   8.779  0.8112  4.8076 -0.4042
  296MOL0     H39901  11.042   8.200   8.582  1.3612  3.9532 -0.5458
  296MOL0     H39902  10.969   8.337   8.656  3.6154  1.6306  1.6597
  296MOL0     H39903  11.167   8.307   8.784  1.9163 -0.4658 -0.2750
  296MOL0     H39904  11.035   8.250   8.885 -0.0407  3.4214 -1.3839
  296MOL0     H39905  11.097   8.014   8.837 -0.6106  0.3316  0.0602
  296MOL0     H39906  11.209   8.063   8.714  1.5069 -0.4627  0.5935
  296MOL0     H39907  11.201   8.131   9.010 -1.1349  0.5652  0.0272
  296MOL0     H39908  11.338   8.189   8.905 -0.1058  0.9730  0.2636
  296MOL0     H39909  11.414   8.009   9.041 -2.2110  1.5574  1.3199
  296MOL0     H39910  11.298   7.896   8.990 -0.8694  0.2724 -1.9660
  296MOL0     H39911  11.636   8.025   8.894 -1.9107  1.6497 -0.0735
  296MOL0     H39912  11.724   7.872   8.537  1.8058 -1.7035 -0.1598
  296MOL0     H39913  11.798   7.959   8.673  0.0510 -0.3298  0.6769
  296MOL0     H39914  11.833   7.724   8.797  1.0573 -0.8004 -1.0361
  296MOL0     H39915  11.759   7.649   8.660 -0.3362  0.4985 -1.5168
  296MOL0     H39916  11.999   7.823   8.605 -1.3432  0.9644 -0.6274
  296MOL0     H39917  11.929   7.695   8.506  3.7900 -0.6040 -1.1169
  296MOL0     H39918  12.051   7.640   8.778  0.9428 -0.4466 -0.3253
  296MOL0     H39919  12.126   7.635   8.612 -0.2269  0.3712  0.7600
  296MOL0     H39920  12.171   7.540   8.427  0.7750 -0.2840 -0.6864
  296MOL0     H39921  12.192   7.368   8.257  1.5427  1.6266  0.4739
  296MOL0     H39922  12.273   7.190   7.925  0.0434 -0.7621  0.3680
  296MOL0     H39923  12.327   7.038   7.729  0.6314 -1.0373 -0.0525
  296MOL0     H39924  12.283   6.624   7.776 -0.1365 -0.0942  0.5301
  296MOL0     H39925  12.113   6.630   7.705 -0.4603  2.8552  0.7032
  296MOL0     H39926  12.373   6.650   7.548 -0.6195 -0.4136 -0.5363
  296MOL0     H39927  12.284   6.499   7.570  0.0619 -0.6409 -1.6945
  296MOL0     H39928  12.086   6.608   7.469  1.6706 -2.9387 -0.5560
  296MOL0     H39929  12.177   6.756   7.436  0.5252  0.2033 -2.6990
  296MOL0     H39930  12.246   6.482   7.325 -0.2646 -0.1003  1.0187
  296MOL0     H39931  12.328   6.630   7.285  1.3670 -3.1097 -1.8994
  296MOL0     H39932  12.106   6.722   7.177 -0.0610 -0.6398 -2.3782
  296MOL0     H39933  12.042   6.551   7.219 -0.6635  0.5219 -0.6187
  296MOL0     H39934  12.273   6.598   7.030  0.2841 -2.3584 -1.1014
  296MOL0     H39935  12.217   6.446   7.085  2.4886  0.1276 -0.8908
  296MOL0     H39936  12.039   6.648   6.946 -0.0298  0.2040 -2.8203
  296MOL0     H39937  12.022   6.469   6.961  0.8899  0.0471 -1.9205
  296MOL0     H39938  12.230   6.445   6.846  2.2221 -0.4809 -1.7128
  296MOL0     H39939  12.089   6.491   6.751  1.7526 -1.6524 -0.3560
  296MOL0     H39940  12.096   6.733   7.923  0.3120 -1.1508 -3.7574
  296MOL0     H39941  12.074   6.871   8.122  0.5980  0.8402  0.2669
  296MOL0     H39942  11.893   7.129   8.446 -0.3042 -0.0067  2.5806
  296MOL0     H39943  11.869   7.280   8.616 -1.7295  0.9742 -0.1803
  296MOL0     H39944  10.476   8.396   8.710 -1.5651 -1.2529  1.2163
  296MOL0     H39945  10.292   8.532   8.699  2.3856  2.1558 -1.1659
  296MOL0     H39946   9.882   8.551   8.486 -0.4488  0.6020  0.4465
  296MOL0     H39947   9.656   8.624   8.489  0.9287 -1.6556  0.4609
  296MOL0     H39948   9.430   8.716   8.469  1.5839 -0.1052  2.4130
  296MOL0     H39949   9.518   8.768   8.319  1.6767  4.0001 -0.2165
  296MOL0     H39950   9.300   8.848   8.276 -1.8688  1.5448 -0.6161
  296MOL0     H39951   9.398   8.987   8.331  1.1401 -0.6584 -0.4721
  296MOL0     H39952   9.323   8.911   8.577 -0.5168 -2.8284  0.9083
  296MOL0     H39953   9.197   8.823   8.498 -0.2932  0.4350 -4.8792
  296MOL0     H39954   9.174   9.082   8.585 -1.7140  0.3982  0.2471
  296MOL0     H39955   9.226   9.126   8.429 -0.8373 -1.4416 -3.7871
  296MOL0     H39956   8.829   9.083   8.347 -1.1879  1.3267  2.0733
  296MOL0     H39957   9.767   9.020   8.555  1.8473 -0.2605  2.4344
  296MOL0     H39958   9.986   9.086   8.597 -1.4826 -0.5459 -3.4643
  296MOL0     H39959  10.102   8.966   8.668 -1.6488 -0.4629  1.1425
  296MOL0     H39960  10.089   8.980   8.487 -0.9447  0.0561 -0.6617
  297MOL0     O39961   9.567   5.603  10.308 -0.2580 -0.1009  0.1962
  297MOL0     C39962   9.655   5.521  10.265  1.6603 -0.4967  0.0627
  297MOL0     O39963   9.770   5.556  10.191  0.8403 -0.9603  0.5515
  297MOL0     C39964   9.802   5.686  10.172 -0.4959 -0.2632 -0.0610
  297MOL0     C39965   9.796   5.777  10.271 -0.0172 -0.0267  1.1508
  297MOL0     C39966   9.843   5.910  10.241 -0.5031 -0.2414 -0.2303
  297MOL0     C39967   9.904   5.942  10.125  0.4983  0.7935  0.6484
  297MOL0     O39968   9.946   6.067  10.110  0.4379 -0.3669  0.2151
  297MOL0     C39969  10.063   6.078  10.018  0.4819 -0.0776 -0.0674
  297MOL0     C39970  10.121   6.214  10.022  0.5312  0.8293  0.2490
  297MOL0     C39971  10.038   6.313   9.943 -0.3418 -0.3988  0.3076
  297MOL0     C39972  10.117   6.443   9.913  0.0727 -0.5230  0.0160
  297MOL0     C39973  10.029   6.538   9.834 -0.3013  0.3075  0.8003
  297MOL0     C39974   9.906   6.585   9.911  0.3654  0.6478 -0.3255
  297MOL0     C39975   9.849   6.696   9.818 -0.0822  0.8222 -0.2586
  297MOL0     C39976   9.803   6.646   9.677  0.2898  0.6321 -0.6763
  297MOL0     N39977   9.770   6.764   9.598 -0.0525  0.2889 -0.2854
  297MOL0     C39978   9.842   6.879   9.593 -0.4964  0.0333 -0.9181
  297MOL0     C39979   9.779   6.959   9.502 -0.5492 -0.6496  0.3253
  297MOL0     C39980   9.825   7.104   9.475  0.3507  1.0934 -0.7149
  297MOL0     C39981   9.960   7.092   9.397  0.4549 -0.2369 -1.0480
  297MOL0     C39982   9.944   7.025   9.261 -0.4823 -0.1019  0.8598
  297MOL0     C39983  10.076   7.001   9.187  0.0979  0.2665 -0.0763
  297MOL0     O39984  10.124   7.134   9.159 -0.1279  0.7290 -0.2880
  297MOL0     C39985  10.226   7.165   9.068 -0.4330  0.5539 -0.4419
  297MOL0     C39986  10.239   7.294   9.028  0.1715 -0.2347  0.0216
  297MOL0     C39987  10.323   7.334   8.929 -0.3014 -0.2471  0.4858
  297MOL0     C39988  10.418   7.239   8.888  0.3790 -0.5221 -0.7218
  297MOL0     C39989  10.538   7.286   8.804  0.3011  0.9178  0.0099
  297MOL0     O39990  10.544   7.418   8.779  0.7735  0.0300 -0.6897
  297MOL0     C39991  10.620   7.463   8.675  0.6343 -0.1124 -0.3314
  297MOL0     C39992  10.726   7.544   8.706 -0.4347 -0.4211 -0.0345
  297MOL0     C39993  10.804   7.600   8.604  0.4092  0.5366  1.4384
  297MOL0     C39994  10.759   7.577   8.464 -0.1446  0.9528  0.3113
  297MOL0     O39995  10.822   7.648   8.370 -0.0656  0.1786  0.7537
  297MOL0     C39996  10.764   7.779   8.345 -1.0102  0.4493 -0.2498
  297MOL0     C39997  10.762   7.807   8.197 -0.1004  0.1865 -0.3196
  297MOL0     C39998  10.687   7.931   8.144  0.0305 -0.3601 -0.0919
  297MOL0     C39999  10.774   8.063   8.148  0.6733  0.1422 -0.1718
  297MOL0     C40000  10.897   8.066   8.063  1.0905 -0.7316 -0.4197
  297MOL0     C40001  10.952   8.205   8.063 -0.4636 -0.7817 -0.5643
  297MOL0     C40002  11.089   8.210   7.998 -0.0581 -0.1713  0.1415
  297MOL0     C40003  11.153   8.341   8.000 -0.1613 -0.2191 -0.1469
  297MOL0    Cl40004  11.301   8.360   7.898 -0.3005 -0.1901 -0.1575
  297MOL0     C40005  10.636   7.502   8.432 -0.0767  0.0214  0.0788
  297MOL0     C40006  10.566   7.455   8.543 -0.5131  0.4248 -0.1418
  297MOL0     O40007  10.613   7.204   8.760  0.7564 -1.3923  0.3235
  297MOL0     C40008  10.413   7.107   8.940 -0.1161 -0.0483 -0.0756
  297MOL0     C40009  10.310   7.069   9.024  0.3593  0.2008 -0.0104
  297MOL0     N40010   9.666   6.899   9.465 -0.7576  0.2463 -0.2128
  297MOL0     N40011   9.663   6.774   9.512 -0.3356 -0.2634  0.0094
  297MOL0     C40012   9.921   5.837  10.032  0.7225  0.7812  0.3556
  297MOL0     C40013   9.871   5.713  10.053 -0.2022 -0.2712 -0.0795
  297MOL0     C40014   9.652   5.380  10.309  0.7667 -0.5922 -0.7743
  297MOL0     C40015   9.765   5.328  10.371 -0.4466  0.6328  0.0389
  297MOL0     C40016   9.756   5.203  10.433  0.0175  0.0796 -0.4883
  297MOL0     C40017   9.649   5.118  10.422  0.1557  0.6059  0.4853
  297MOL0     O40018   9.633   4.999  10.490  0.7484  0.1445 -0.1506
  297MOL0     C40019   9.747   4.925  10.531 -0.3400 -0.6829 -0.8134
  297MOL0     C40020   9.709   4.782  10.549  0.5458  0.6863 -0.2844
  297MOL0     C40021   9.821   4.684  10.543  0.1296 -1.0405 -0.4129
  297MOL0     C40022   9.787   4.540  10.574  0.1744  0.1572  0.1357
  297MOL0     C40023   9.718   4.468  10.460  0.1793  0.1306  0.0136
  297MOL0     C40024   9.649   4.396  10.386  0.0516 -0.3715 -0.0260
  297MOL0     C40025   9.535   5.167  10.353 -0.7544  0.3948 -0.1788
  297MOL0     C40026   9.536   5.302  10.294 -0.5316  0.0544 -0.5440
  297MOL0     C40027   9.405   5.338  10.224  0.7914  0.2038  0.5715
  297MOL0     H40028   9.759   5.733  10.363 -1.2733  1.7553  1.5436
  297MOL0     H40029   9.845   5.988  10.317  0.7366 -0.3536 -0.1312
  297MOL0     H40030  10.146   6.009  10.034 -0.4217 -1.8035 -2.2871
  297MOL0     H40031  10.028   6.049   9.919 -0.8833 -0.4185  0.4901
  297MOL0     H40032  10.212   6.211   9.962 -1.2500 -2.2684 -2.6380
  297MOL0     H40033  10.128   6.249  10.126  1.9806 -1.7209  1.0997
  297MOL0     H40034   9.959   6.350  10.009 -1.0091  0.1274 -0.7583
  297MOL0     H40035   9.989   6.264   9.858  0.2002 -2.0441  0.8994
  297MOL0     H40036  10.171   6.492   9.994  0.2895  0.6260 -0.7989
  297MOL0     H40037  10.210   6.421   9.860  0.1910  0.5718 -0.2633
  297MOL0     H40038  10.088   6.627   9.808  0.8081 -0.8658 -0.9820
  297MOL0     H40039  10.003   6.478   9.745 -0.0547 -1.7366  2.0380
  297MOL0     H40040   9.830   6.508   9.926  0.7011  0.5950  1.2134
  297MOL0     H40041   9.946   6.624  10.005 -1.8257  1.1819  0.4571
  297MOL0     H40042   9.918   6.780   9.804 -0.2519  0.7380 -1.7299
  297MOL0     H40043   9.768   6.739   9.876  1.9812  3.1774  1.0889
  297MOL0     H40044   9.888   6.604   9.622  2.6592  1.4949  2.0746
  297MOL0     H40045   9.722   6.574   9.692  2.8181 -1.7094  3.9308
  297MOL0     H40046   9.938   6.901   9.639 -0.5280  0.6399 -1.1392
  297MOL0     H40047   9.759   7.166   9.414  3.4576  3.2092 -2.2199
  297MOL0     H40048   9.832   7.150   9.575 -2.4292 -0.5938  0.3665
  297MOL0     H40049  10.005   7.191   9.403  1.1330 -0.6147  1.3142
  297MOL0     H40050  10.032   7.032   9.455  0.8462 -1.8229 -3.0434
  297MOL0     H40051   9.882   7.090   9.198 -1.6667  0.0821  2.1577
  297MOL0     H40052   9.901   6.927   9.284  2.2676 -2.5424 -3.2313
  297MOL0     H40053  10.056   6.953   9.091  1.3276  1.7463 -1.1199
  297MOL0     H40054  10.138   6.941   9.254 -0.1322  1.1323  0.9363
  297MOL0     H40055  10.167   7.367   9.064 -4.4528 -3.6197 -1.3691
  297MOL0     H40056  10.321   7.440   8.907 -1.7135 -0.1236  1.0790
  297MOL0     H40057  10.754   7.551   8.811 -2.0780 -0.5024  0.4338
  297MOL0     H40058  10.896   7.655   8.622  2.8052 -0.4938 -4.8373
  297MOL0     H40059  10.658   7.784   8.371 -1.1647  0.8244 -0.9339
  297MOL0     H40060  10.830   7.852   8.393 -1.0024 -0.0472  0.5176
  297MOL0     H40061  10.867   7.803   8.168  0.3886  0.0785  1.4027
  297MOL0     H40062  10.726   7.716   8.148  4.0380  0.1205 -3.8696
  297MOL0     H40063  10.663   7.907   8.040  2.0078 -0.0383 -0.6653
  297MOL0     H40064  10.599   7.938   8.208 -0.6073 -2.3065 -0.7117
  297MOL0     H40065  10.800   8.084   8.252  2.5593 -0.2363 -0.5170
  297MOL0     H40066  10.702   8.134   8.107 -2.6759 -3.8894 -2.1471
  297MOL0     H40067  10.874   8.036   7.961  2.1694  0.8234 -1.1577
  297MOL0     H40068  10.963   7.992   8.109  0.3545 -1.7327 -0.9456
  297MOL0     H40069  10.890   8.267   7.997 -1.1783 -1.6453 -0.7254
  297MOL0     H40070  10.964   8.246   8.164  5.5533  1.2383 -1.7158
  297MOL0     H40071  11.079   8.172   7.896  3.1130 -1.1379  0.0851
  297MOL0     H40072  11.153   8.139   8.051 -1.2370 -0.8544  0.6968
  297MOL0     H40073  11.082   8.414   7.960  0.7112 -0.7517 -2.9373
  297MOL0     H40074  11.171   8.367   8.105 -2.1540  0.4735  0.0649
  297MOL0     H40075  10.598   7.487   8.332 -1.7987 -4.1511  1.1313
  297MOL0     H40076  10.465   7.423   8.517 -0.1146  0.3532 -1.7111
  297MOL0     H40077  10.479   7.028   8.904 -1.2183 -0.2782 -1.6625
  297MOL0     H40078  10.302   6.963   9.048  1.1964  0.2254  0.4086
  297MOL0     H40079   9.969   5.854   9.936 -0.9390 -0.9618 -0.8641
  297MOL0     H40080   9.891   5.630   9.986  4.2231 -1.5858  2.4787
  297MOL0     H40081   9.854   5.388  10.386  2.0133 -2.6595 -0.3376
  297MOL0     H40082   9.844   5.170  10.488  2.1815  1.2166 -3.0238
  297MOL0     H40083   9.798   4.952  10.624 -1.5756 -2.2983  0.3935
  297MOL0     H40084   9.814   4.915  10.445  0.2446 -3.7737 -0.1083
  297MOL0     H40085   9.637   4.759  10.469  2.5014 -0.9190 -1.6932
  297MOL0     H40086   9.663   4.776  10.648  0.4596 -0.1075 -0.3628
  297MOL0     H40087   9.908   4.722  10.598 -0.5302  2.9455 -1.7408
  297MOL0     H40088   9.866   4.690  10.443  1.8749  2.1615  0.4134
  297MOL0     H40089   9.877   4.482  10.599 -0.3141 -1.0400 -0.7643
  297MOL0     H40090   9.714   4.543  10.656 -3.1546  0.8087 -2.6362
  297MOL0     H40091   9.589   4.336  10.320 -1.2758  1.8109 -0.9279
  297MOL0     H40092   9.445   5.107  10.354 -0.3624 -0.2060 -0.0709
  297MOL0     H40093   9.315   5.321  10.284 -0.3579 -1.8692 -1.5526
  297MOL0     H40094   9.413   5.443  10.194  3.0899  0.2631  1.2718
  297MOL0     H40095   9.398   5.275  10.135  1.3149  0.5684  0.2693
  298MOL0     O40096   6.329   2.094   1.299  0.6291 -1.3101  0.6808
  298MOL0     C40097   6.224   2.043   1.282  0.6195 -1.2129 -1.2991
  298MOL0     O40098   6.187   1.960   1.185 -0.1737  0.5626  0.8118
  298MOL0     C40099   6.285   1.866   1.146 -0.1475 -0.9078  0.1991
  298MOL0     C40100   6.326   1.862   1.010  0.1608  1.0655 -0.8407
  298MOL0     C40101   6.417   1.764   0.959 -0.4089 -0.4251  0.3408
  298MOL0     C40102   6.473   1.674   1.047 -0.8397  1.0496 -0.9971
  298MOL0     O40103   6.554   1.572   1.006 -0.5165  1.0834 -0.6304
  298MOL0     C40104   6.672   1.618   0.938 -1.5491  0.3126 -0.1522
  298MOL0     C40105   6.789   1.531   0.990  0.1176 -0.6015 -0.1695
  298MOL0     C40106   6.884   1.598   1.099  0.3597 -0.1031  0.4753
  298MOL0     C40107   6.988   1.512   1.169 -0.3645 -0.4859 -0.7262
  298MOL0     C40108   7.112   1.461   1.093  0.0706 -0.0668  0.8949
  298MOL0     C40109   7.205   1.386   1.187 -0.1112 -0.5418 -0.2451
  298MOL0     C40110   7.130   1.281   1.266  1.1694 -0.0879  0.8364
  298MOL0     C40111   7.223   1.153   1.278 -0.1159  0.1542  0.6789
  298MOL0     N40112   7.357   1.186   1.329  0.4305  0.4935 -0.5799
  298MOL0     C40113   7.406   1.289   1.410  0.4458 -0.4955  0.1398
  298MOL0     C40114   7.529   1.252   1.442 -0.1903  0.5734 -0.2884
  298MOL0     C40115   7.625   1.333   1.528 -0.0650 -0.4637 -0.0758
  298MOL0     C40116   7.619   1.352   1.679  0.7457  0.1261  0.1160
  298MOL0     C40117   7.689   1.240   1.753 -0.0893  0.7167  0.2317
  298MOL0     C40118   7.838   1.254   1.770  0.0990  0.6730 -0.2383
  298MOL0     O40119   7.894   1.155   1.861  0.0846 -0.7765 -0.6712
  298MOL0     C40120   8.030   1.167   1.878  0.1522  0.9568  0.1662
  298MOL0     C40121   8.117   1.238   1.796 -0.4096  0.5858  0.1693
  298MOL0     C40122   8.253   1.243   1.824 -0.3732  0.2390  0.7149
  298MOL0     C40123   8.328   1.166   1.905 -0.3406  0.1443 -0.5437
  298MOL0     C40124   8.477   1.180   1.913 -0.0580  0.1111 -0.5947
  298MOL0     O40125   8.530   1.262   1.813 -0.6399 -0.5510 -0.2612
  298MOL0     C40126   8.670   1.282   1.802 -0.4344  0.3227  0.4697
  298MOL0     C40127   8.774   1.183   1.801 -0.5443  0.6673 -0.6290
  298MOL0     C40128   8.904   1.226   1.781 -0.8461 -1.3298  0.3550
  298MOL0     C40129   8.936   1.361   1.754 -0.7082 -0.0755 -0.8733
  298MOL0     O40130   9.060   1.413   1.728 -0.0457 -0.6246 -0.9830
  298MOL0     C40131   9.168   1.342   1.791  0.5365 -0.1396  1.0579
  298MOL0     C40132   9.297   1.409   1.746 -0.0132  0.4254  0.8961
  298MOL0     C40133   9.356   1.363   1.611 -0.6896 -0.5330  0.7633
  298MOL0     C40134   9.437   1.482   1.553  0.4861 -0.2112 -0.2911
  298MOL0     C40135   9.484   1.458   1.412 -1.3788  0.8865  0.2124
  298MOL0     C40136   9.570   1.591   1.364  0.6759 -0.1630  0.4601
  298MOL0     C40137   9.659   1.548   1.250 -0.1201 -1.0871  0.0621
  298MOL0     C40138   9.726   1.674   1.185 -0.0512 -0.4752 -0.5119
  298MOL0    Cl40139   9.600   1.770   1.093  0.2826  0.2334  0.1374
  298MOL0     C40140   8.832   1.455   1.750 -0.1754  0.1641 -0.0787
  298MOL0     C40141   8.702   1.411   1.774 -0.3630  0.1915  0.0228
  298MOL0     O40142   8.541   1.143   2.002 -0.4368  0.0739 -0.1821
  298MOL0     C40143   8.249   1.093   1.997  0.5684 -0.2787 -0.6973
  298MOL0     C40144   8.103   1.107   1.991 -1.2841 -0.3069  1.3223
  298MOL0     N40145   7.552   1.129   1.395 -0.3949 -0.7440 -0.2282
  298MOL0     N40146   7.455   1.092   1.320  0.2810  0.0515  0.4412
  298MOL0     C40147   6.422   1.667   1.177 -0.4569  0.7555  1.0359
  298MOL0     C40148   6.335   1.770   1.228 -0.0062  0.4552  0.2636
  298MOL0     C40149   6.121   2.113   1.362  0.0416 -0.8900 -0.0252
  298MOL0     C40150   6.006   2.150   1.297 -0.0523 -0.2034 -0.9039
  298MOL0     C40151   5.907   2.229   1.354 -0.4054 -0.7913 -0.0596
  298MOL0     C40152   5.932   2.286   1.480  0.6219 -0.6628  0.4089
  298MOL0     O40153   5.858   2.380   1.544  1.3232  0.0696 -0.4310
  298MOL0     C40154   5.731   2.430   1.487 -0.0099 -0.3282  0.7435
  298MOL0     C40155   5.620   2.368   1.565 -0.6674 -0.9130  0.5497
  298MOL0     C40156   5.489   2.389   1.489 -0.5596  0.2640 -0.0595
  298MOL0     C40157   5.436   2.529   1.540  0.4849  0.2399  0.2683
  298MOL0     C40158   5.317   2.586   1.476 -1.0382  0.1087  0.6080
  298MOL0     C40159   5.215   2.622   1.427  0.5740 -0.9620  0.2380
  298MOL0     C40160   6.050   2.249   1.544  0.2336  0.8032  0.1029
  298MOL0     C40161   6.144   2.153   1.495  0.9327 -0.2835 -0.5504
  298MOL0     C40162   6.266   2.113   1.575 -0.1652 -1.0612  0.8784
  298MOL0     H40163   6.283   1.930   0.937 -3.5601 -0.2353 -0.0701
  298MOL0     H40164   6.451   1.776   0.857 -2.6428  0.1238 -0.3972
  298MOL0     H40165   6.662   1.613   0.829  0.2037  0.2667 -0.3364
  298MOL0     H40166   6.687   1.720   0.973  0.6407 -0.2863  0.7929
  298MOL0     H40167   6.839   1.486   0.904  2.1163 -3.8780  2.4000
  298MOL0     H40168   6.738   1.450   1.044  1.8769  0.1661  2.9114
  298MOL0     H40169   6.818   1.639   1.176  2.2059  0.1299  2.0015
  298MOL0     H40170   6.923   1.692   1.060 -3.7356  1.0699 -1.3547
  298MOL0     H40171   7.034   1.571   1.250  0.7265 -2.3887  0.1084
  298MOL0     H40172   6.936   1.428   1.216  1.4817 -1.4721 -0.3369
  298MOL0     H40173   7.088   1.401   1.005 -0.5304 -0.3171  1.2258
  298MOL0     H40174   7.152   1.556   1.055  0.1588 -0.3016  0.3925
  298MOL0     H40175   7.279   1.337   1.123 -0.7616 -2.2093  0.2348
  298MOL0     H40176   7.250   1.467   1.246 -0.4381  1.4430 -2.5284
  298MOL0     H40177   7.037   1.240   1.225  1.4362 -1.3452  1.4647
  298MOL0     H40178   7.108   1.316   1.367  0.6478  0.4592  0.5405
  298MOL0     H40179   7.171   1.070   1.327  0.9358 -1.6728 -1.1242
  298MOL0     H40180   7.231   1.116   1.176 -0.8987  1.3127  0.1776
  298MOL0     H40181   7.361   1.381   1.444  0.0557 -1.1015  1.3151
  298MOL0     H40182   7.722   1.281   1.519  0.5158  0.8291 -1.7452
  298MOL0     H40183   7.623   1.430   1.479  0.8757 -0.3502  0.0884
  298MOL0     H40184   7.656   1.450   1.710 -1.0704  0.1736  2.4787
  298MOL0     H40185   7.516   1.352   1.718  0.7956 -2.9259  0.4854
  298MOL0     H40186   7.658   1.147   1.704  2.2716  0.4261 -0.8670
  298MOL0     H40187   7.640   1.231   1.851 -0.7809 -2.5305 -0.2991
  298MOL0     H40188   7.852   1.355   1.810 -1.2008  0.3168  1.2408
  298MOL0     H40189   7.873   1.247   1.667 -2.5199  0.2553 -1.1911
  298MOL0     H40190   8.083   1.293   1.708  1.8066  0.8117 -0.6243
  298MOL0     H40191   8.310   1.307   1.756  0.0827 -1.5311 -0.6607
  298MOL0     H40192   8.746   1.080   1.822  1.2186  0.3915  0.5590
  298MOL0     H40193   8.990   1.160   1.784  1.4461  1.4886  1.2090
  298MOL0     H40194   9.158   1.351   1.900  0.4342  0.8552  0.9778
  298MOL0     H40195   9.170   1.234   1.775  2.0580 -0.0889  0.7827
  298MOL0     H40196   9.279   1.517   1.739 -1.6551  0.0733 -2.4924
  298MOL0     H40197   9.373   1.388   1.822 -1.8736 -0.4841  2.6146
  298MOL0     H40198   9.417   1.274   1.627  1.6126  0.5204 -1.4603
  298MOL0     H40199   9.270   1.335   1.550  0.3860 -0.6692 -0.7303
  298MOL0     H40200   9.520   1.496   1.624  2.2313  0.5844 -2.3530
  298MOL0     H40201   9.374   1.571   1.542  0.8893  0.2155  0.6502
  298MOL0     H40202   9.398   1.444   1.345 -1.0035 -3.7471  0.4061
  298MOL0     H40203   9.536   1.362   1.410 -0.7230  1.2275  0.4690
  298MOL0     H40204   9.506   1.675   1.335  1.0446  0.6570  1.9572
  298MOL0     H40205   9.631   1.627   1.447 -0.6410  2.1657  0.5049
  298MOL0     H40206   9.608   1.487   1.175  0.8197  1.3257 -2.7356
  298MOL0     H40207   9.736   1.485   1.297  0.0362  0.6781  2.3426
  298MOL0     H40208   9.750   1.745   1.265 -4.4345  0.0675  0.6299
  298MOL0     H40209   9.812   1.662   1.119  1.1928  0.7010  0.8165
  298MOL0     H40210   8.867   1.557   1.740 -1.4350  0.5564 -0.7736
  298MOL0     H40211   8.630   1.492   1.779  0.6353  1.1807 -0.7272
  298MOL0     H40212   8.302   1.026   2.064 -0.0539  1.4024  1.5765
  298MOL0     H40213   8.040   1.042   2.051  0.0094 -3.2855 -0.3242
  298MOL0     H40214   6.473   1.590   1.235  3.2919  0.8834 -1.7488
  298MOL0     H40215   6.324   1.752   1.334  1.1818  0.1046  0.3442
  298MOL0     H40216   5.993   2.124   1.193 -0.9105 -0.0621 -0.8448
  298MOL0     H40217   5.827   2.251   1.284 -0.9490 -1.1076  0.4541
  298MOL0     H40218   5.713   2.405   1.382 -2.1256  1.6657  0.5301
  298MOL0     H40219   5.721   2.538   1.476 -1.5147 -0.5714 -0.6549
  298MOL0     H40220   5.625   2.403   1.669  1.5216  1.8276 -0.3502
  298MOL0     H40221   5.631   2.260   1.566 -1.9045 -1.0624 -0.4668
  298MOL0     H40222   5.415   2.313   1.515 -1.1892  0.7620 -0.3700
  298MOL0     H40223   5.502   2.371   1.382 -0.4465 -0.9325  0.1471
  298MOL0     H40224   5.405   2.527   1.645 -0.8320  0.9648 -0.0839
  298MOL0     H40225   5.521   2.597   1.531  1.5938 -0.9755  1.1389
  298MOL0     H40226   5.124   2.666   1.390  1.3523  2.7046  2.2397
  298MOL0     H40227   6.078   2.300   1.636 -0.0635 -0.1221  0.7206
  298MOL0     H40228   6.289   2.007   1.582 -0.1523 -1.0120  1.7272
  298MOL0     H40229   6.357   2.157   1.533 -1.0632 -1.0219 -1.1313
  298MOL0     H40230   6.247   2.144   1.678 -2.5410 -0.8792  0.4398
  299MOL0     O40231   2.002   6.341   5.752 -0.3372  0.4067  0.4729
  299MOL0     C40232   2.018   6.441   5.814  0.2248 -0.4707 -0.3493
  299MOL0     O40233   2.127   6.517   5.808 -0.6626 -0.1944  1.1151
  299MOL0     C40234   2.242   6.468   5.747 -0.0869  0.0417  0.1086
  299MOL0     C40235   2.295   6.343   5.767 -0.9110  0.2469  0.0823
  299MOL0     C40236   2.416   6.300   5.699 -0.2408  0.0869 -0.9168
  299MOL0     C40237   2.479   6.381   5.607 -1.5695  0.1724 -0.2608
  299MOL0     O40238   2.578   6.329   5.529 -0.0643  0.1457 -0.3735
  299MOL0     C40239   2.604   6.387   5.407 -0.7657 -0.5707  0.3474
  299MOL0     C40240   2.718   6.303   5.354 -0.2466 -0.2364  0.4720
  299MOL0     C40241   2.732   6.327   5.202  0.1893 -0.5054  0.5263
  299MOL0     C40242   2.840   6.242   5.145  0.0658  0.4320 -0.5467
  299MOL0     C40243   2.992   6.284   5.176  0.0643 -0.0583 -0.8029
  299MOL0     C40244   3.084   6.171   5.114  0.2334 -0.1109  0.1973
  299MOL0     C40245   3.224   6.215   5.094  0.6598  1.3030 -0.0720
  299MOL0     C40246   3.304   6.110   5.023 -0.0049  0.1394  0.3510
  299MOL0     N40247   3.451   6.149   5.012 -0.2863 -0.4328  0.1096
  299MOL0     C40248   3.506   6.220   4.909 -0.2369 -0.9248  0.8527
  299MOL0     C40249   3.626   6.257   4.946 -0.7780 -0.3845 -0.8493
  299MOL0     C40250   3.724   6.333   4.863  0.1996  0.0344  0.3677
  299MOL0     C40251   3.822   6.240   4.781 -0.2519  0.4788 -0.4912
  299MOL0     C40252   3.931   6.301   4.698 -0.1915  0.1435 -1.0310
  299MOL0     C40253   3.988   6.428   4.758  1.0018  0.2709  0.1807
  299MOL0     O40254   4.110   6.449   4.685  0.3348 -0.4450  1.0212
  299MOL0     C40255   4.185   6.559   4.729 -0.4628  0.5371  0.6645
  299MOL0     C40256   4.290   6.594   4.642  0.2097  0.0071 -0.6672
  299MOL0     C40257   4.370   6.700   4.681 -0.1422  0.2574 -0.2225
  299MOL0     C40258   4.342   6.785   4.793 -0.6036  0.0472  0.5328
  299MOL0     C40259   4.427   6.910   4.817  0.3244 -1.1777  0.6254
  299MOL0     O40260   4.524   6.949   4.719 -0.0070  0.4244 -0.6953
  299MOL0     C40261   4.605   7.058   4.752  0.2703  0.7401  0.4482
  299MOL0     C40262   4.600   7.165   4.670  0.6402 -0.7376  0.4376
  299MOL0     C40263   4.666   7.287   4.691  0.9491 -0.0632 -0.1404
  299MOL0     C40264   4.757   7.291   4.795 -0.0045 -0.7980 -0.6545
  299MOL0     O40265   4.831   7.402   4.831  0.1326 -0.5865 -0.7325
  299MOL0     C40266   4.794   7.536   4.797 -0.1264 -0.4144  0.2129
  299MOL0     C40267   4.794   7.608   4.928  0.0846 -0.0180 -1.1042
  299MOL0     C40268   4.717   7.738   4.928 -0.6272 -0.5297 -0.9504
  299MOL0     C40269   4.772   7.819   5.050 -0.6025 -0.3345  0.6925
  299MOL0     C40270   4.662   7.925   5.068 -0.1235  0.3802  0.0956
  299MOL0     C40271   4.703   8.034   5.172  1.2935 -0.5051 -0.0158
  299MOL0     C40272   4.623   8.010   5.304 -0.2017 -0.6287  0.5907
  299MOL0     C40273   4.691   8.092   5.408 -0.5396  0.1895  0.2558
  299MOL0    Cl40274   4.699   8.268   5.384  0.6218  0.3711 -0.0760
  299MOL0     C40275   4.764   7.180   4.887 -0.0118 -0.4163  0.5895
  299MOL0     C40276   4.691   7.065   4.867  0.5030 -0.2499 -0.0818
  299MOL0     O40277   4.395   6.976   4.914  0.0085  0.3872 -0.6034
  299MOL0     C40278   4.242   6.741   4.882  0.4182 -0.7107 -0.3906
  299MOL0     C40279   4.154   6.635   4.843  0.4603 -0.1273  0.3450
  299MOL0     N40280   3.658   6.208   5.076  0.0474 -0.1453 -0.0252
  299MOL0     N40281   3.552   6.140   5.105  0.3867  0.8157 -0.9452
  299MOL0     C40282   2.427   6.505   5.584 -0.7104 -0.5579  0.0279
  299MOL0     C40283   2.307   6.551   5.651  0.2126  0.0140 -0.2227
  299MOL0     C40284   1.900   6.495   5.886 -0.3450 -0.3889 -0.4263
  299MOL0     C40285   1.871   6.630   5.861  0.7675  0.5814  0.1865
  299MOL0     C40286   1.748   6.690   5.901 -0.9198 -0.0038  0.3300
  299MOL0     C40287   1.660   6.613   5.972 -0.8662  0.0534 -0.0937
  299MOL0     O40288   1.535   6.653   6.013  0.8117  0.1552 -0.1508
  299MOL0     C40289   1.470   6.779   5.977 -0.1078  0.6172  0.8775
  299MOL0     C40290   1.337   6.791   6.048  0.1147 -0.1205  0.2666
  299MOL0     C40291   1.258   6.918   5.998 -0.5944  0.2890 -0.2524
  299MOL0     C40292   1.146   6.925   6.095  0.3112 -0.2540  0.7593
  299MOL0     C40293   1.050   7.019   6.033  0.0053 -0.9221 -0.7946
  299MOL0     C40294   0.973   7.088   5.965 -0.4528 -0.3509  0.0583
  299MOL0     C40295   1.684   6.476   5.981 -0.3163 -0.0851 -0.2349
  299MOL0     C40296   1.810   6.422   5.954  0.2743  0.7812  0.0622
  299MOL0     C40297   1.836   6.282   6.001  0.4111  0.6088  0.0976
  299MOL0     H40298   2.249   6.270   5.832 -2.1188  0.5781 -0.3742
  299MOL0     H40299   2.471   6.213   5.733 -1.9054 -0.3295  0.8949
  299MOL0     H40300   2.517   6.392   5.340 -0.5448 -1.5311 -0.0257
  299MOL0     H40301   2.648   6.486   5.424  1.6189 -1.5864  0.3782
  299MOL0     H40302   2.711   6.195   5.373 -2.6455 -0.6557 -2.2447
  299MOL0     H40303   2.811   6.343   5.398 -2.5650  4.8770  1.3935
  299MOL0     H40304   2.748   6.435   5.192  1.9779 -0.1988  4.5737
  299MOL0     H40305   2.636   6.297   5.159 -1.0078 -0.9522  3.2660
  299MOL0     H40306   2.830   6.148   5.200 -0.5083  1.6446  1.5490
  299MOL0     H40307   2.829   6.232   5.037  2.2549 -0.5402 -0.7095
  299MOL0     H40308   3.008   6.386   5.141 -1.5763  0.5784  0.1472
  299MOL0     H40309   3.008   6.280   5.284  0.7359 -0.2242 -0.9045
  299MOL0     H40310   3.094   6.093   5.190 -1.7530  0.6786  1.3557
  299MOL0     H40311   3.043   6.140   5.017  0.0465  2.2592 -0.5377
  299MOL0     H40312   3.269   6.250   5.187 -1.1006  0.7531  1.0359
  299MOL0     H40313   3.223   6.302   5.026 -0.6804  0.3300 -1.3528
  299MOL0     H40314   3.298   6.018   5.083  0.4073  0.4446  0.8741
  299MOL0     H40315   3.257   6.086   4.928  0.7591 -1.0088  0.2471
  299MOL0     H40316   3.448   6.238   4.819  0.3620 -1.4133  0.3654
  299MOL0     H40317   3.675   6.400   4.792 -1.2408  1.4534  2.5987
  299MOL0     H40318   3.781   6.392   4.935 -1.4264 -0.1021  1.8188
  299MOL0     H40319   3.878   6.188   4.861  1.8500  0.6638 -1.7596
  299MOL0     H40320   3.769   6.163   4.725 -2.2968  0.6480  1.1133
  299MOL0     H40321   3.892   6.313   4.597 -0.6080 -1.0511 -1.0314
  299MOL0     H40322   4.010   6.226   4.698  1.1551  1.5036 -1.7686
  299MOL0     H40323   3.996   6.430   4.867 -0.6736  1.3975  0.3327
  299MOL0     H40324   3.919   6.507   4.726  0.2113 -1.3944 -2.5859
  299MOL0     H40325   4.298   6.545   4.546  1.3265 -0.3704 -0.4007
  299MOL0     H40326   4.449   6.729   4.613 -0.1972 -1.5589 -1.1214
  299MOL0     H40327   4.531   7.170   4.586  0.5558 -0.8109  0.5022
  299MOL0     H40328   4.648   7.373   4.627  1.2857 -0.4000 -0.6886
  299MOL0     H40329   4.865   7.577   4.725 -1.7876  0.8326 -0.7950
  299MOL0     H40330   4.699   7.545   4.743  1.0734  1.5110 -1.7275
  299MOL0     H40331   4.747   7.542   5.002 -0.8591  1.5045 -0.2916
  299MOL0     H40332   4.900   7.632   4.941 -0.4772  1.4107  1.7835
  299MOL0     H40333   4.721   7.796   4.835  0.3039  0.4612 -0.3197
  299MOL0     H40334   4.611   7.713   4.932 -1.4965  2.8146 -0.8255
  299MOL0     H40335   4.871   7.855   5.021 -1.2547  0.5108 -0.5864
  299MOL0     H40336   4.794   7.752   5.133  4.1809  2.0425  1.7232
  299MOL0     H40337   4.568   7.884   5.106  0.8892  0.8743  3.4399
  299MOL0     H40338   4.643   7.985   4.979  2.5289 -0.2237 -0.9548
  299MOL0     H40339   4.811   8.035   5.187  1.0203  1.5366  2.4382
  299MOL0     H40340   4.674   8.132   5.134  1.5446 -0.7431 -0.8489
  299MOL0     H40341   4.628   7.903   5.328 -2.9768 -1.3739 -1.6426
  299MOL0     H40342   4.520   8.039   5.286  0.4798  1.8543  0.2575
  299MOL0     H40343   4.641   8.080   5.504  2.3728  1.6929  2.0933
  299MOL0     H40344   4.792   8.054   5.424 -0.9680 -2.1211 -1.8150
  299MOL0     H40345   4.832   7.206   4.967  2.3227 -0.9072 -1.1564
  299MOL0     H40346   4.708   6.979   4.931  0.5838 -2.6568 -3.0914
  299MOL0     H40347   4.225   6.800   4.971  0.2912  2.4602 -2.3695
  299MOL0     H40348   4.072   6.611   4.910 -2.1324 -0.7110 -2.7705
  299MOL0     H40349   2.467   6.574   5.511  0.6631 -0.4072  0.8767
  299MOL0     H40350   2.264   6.649   5.635 -3.4076 -1.1002  1.7419
  299MOL0     H40351   1.942   6.690   5.807  1.5115 -1.5373 -1.3044
  299MOL0     H40352   1.727   6.794   5.876 -1.8014  0.7079  3.5264
  299MOL0     H40353   1.449   6.765   5.871 -2.4616 -3.6331  1.6891
  299MOL0     H40354   1.543   6.859   5.987 -0.6221  1.2055  0.0078
  299MOL0     H40355   1.376   6.798   6.149  3.6520 -2.2125 -0.7889
  299MOL0     H40356   1.286   6.694   6.037 -2.8819  1.4811 -0.9464
  299MOL0     H40357   1.225   6.901   5.895  1.1716 -3.3696 -0.3755
  299MOL0     H40358   1.321   7.007   5.993  2.0160 -1.2609  1.8222
  299MOL0     H40359   1.098   6.827   6.100 -1.1992  0.3301 -1.1053
  299MOL0     H40360   1.179   6.958   6.194 -0.2276  0.1201  0.8189
  299MOL0     H40361   0.908   7.149   5.905  0.8195  3.7904  2.5635
  299MOL0     H40362   1.612   6.404   6.020 -0.0508 -0.6856 -0.8227
  299MOL0     H40363   1.764   6.208   5.966  0.3938 -0.8683  2.9456
  299MOL0     H40364   1.936   6.246   5.975 -0.9871 -2.3087 -1.7201
  299MOL0     H40365   1.824   6.283   6.109  0.2406 -0.9920  0.1106
  300MOL0     O40366   0.579   7.646   0.009  0.6879 -0.2840  0.7916
  300MOL0     C40367   0.530   7.721   0.091 -0.2932 -0.0102 -1.4017
  300MOL0     O40368   0.588   7.836   0.136  0.1588  0.2215 -0.0615
  300MOL0     C40369   0.698   7.890   0.062  0.4284 -0.4941  0.1207
  300MOL0     C40370   0.776   7.985   0.127 -0.4405 -0.6566 -0.1321
  300MOL0     C40371   0.886   8.050   0.068 -0.2230  0.3143  0.1208
  300MOL0     C40372   0.912   8.029  -0.068 -0.2244 -0.3430 -0.3086
  300MOL0     O40373   1.025   8.083  -0.112 -0.3356  0.1307  0.6353
  300MOL0     C40374   1.007   8.159  -0.232  0.6632 -0.2443 -0.4296
  300MOL0     C40375   1.057   8.088  -0.357  0.7214  0.3079  0.6058
  300MOL0     C40376   1.208   8.077  -0.350 -0.2898  0.9525  0.0209
  300MOL0     C40377   1.265   8.032  -0.484 -0.1310  0.1727 -0.5335
  300MOL0     C40378   1.407   7.985  -0.467 -0.8012  0.5520  0.3281
  300MOL0     C40379   1.505   8.094  -0.444  0.6776  0.2933 -0.3710
  300MOL0     C40380   1.649   8.057  -0.456 -0.2447 -0.7397  0.1390
  300MOL0     C40381   1.698   8.054  -0.604  1.0563  0.3414  0.5369
  300MOL0     N40382   1.841   8.020  -0.600 -0.5046 -0.1229  0.8963
  300MOL0     C40383   1.940   8.113  -0.578  0.2061  0.3165  0.5933
  300MOL0     C40384   2.050   8.055  -0.642  0.5648  0.8990 -0.0928
  300MOL0     C40385   2.188   8.113  -0.635 -0.9174  0.7452 -0.1094
  300MOL0     C40386   2.291   8.004  -0.682 -0.0755  1.1279  0.2395
  300MOL0     C40387   2.433   8.058  -0.661 -0.2466  0.3263 -0.1265
  300MOL0     C40388   2.536   7.939  -0.682  0.7927 -1.1009  0.2189
  300MOL0     O40389   2.670   7.993  -0.684  0.6240 -0.0566  0.2170
  300MOL0     C40390   2.777   7.913  -0.671 -0.8411 -0.0091 -0.5725
  300MOL0     C40391   2.842   7.873  -0.792  0.5121  0.5249  0.2312
  300MOL0     C40392   2.946   7.781  -0.798  0.8212  0.1500  0.6121
  300MOL0     C40393   2.987   7.731  -0.677  0.4668 -0.4539 -0.4229
  300MOL0     C40394   3.098   7.644  -0.673  0.7839  0.0294  0.3427
  300MOL0     O40395   3.174   7.646  -0.783  0.0040 -0.3165  0.5261
  300MOL0     C40396   3.303   7.614  -0.776 -0.4739 -0.9240 -0.7313
  300MOL0     C40397   3.356   7.509  -0.694  0.8507  0.4037  0.0817
  300MOL0     C40398   3.487   7.475  -0.705 -0.0641 -0.1888  0.1701
  300MOL0     C40399   3.576   7.545  -0.789  0.3229  0.2615  0.0892
  300MOL0     O40400   3.711   7.513  -0.802 -0.0491 -0.5464  0.2633
  300MOL0     C40401   3.797   7.575  -0.706  0.2579 -0.6261 -0.3573
  300MOL0     C40402   3.918   7.501  -0.667 -0.5212 -0.4812  0.0548
  300MOL0     C40403   4.030   7.524  -0.764 -0.6000  0.0854  0.0448
  300MOL0     C40404   4.148   7.432  -0.718 -0.6311  0.5242  0.8045
  300MOL0     C40405   4.268   7.446  -0.820  0.0058 -0.5544  0.5294
  300MOL0     C40406   4.316   7.585  -0.866 -0.4287  0.4817 -0.0507
  300MOL0     C40407   4.348   7.671  -0.742 -0.1409  0.4135  0.2789
  300MOL0     C40408   4.404   7.806  -0.784 -0.5226  0.5966  0.2541
  300MOL0    Cl40409   4.339   7.953  -0.676  0.2019  0.2831 -0.0123
  300MOL0     C40410   3.523   7.648  -0.873 -1.0691  0.0466 -1.1263
  300MOL0     C40411   3.386   7.680  -0.867  0.4046  0.4191 -0.6665
  300MOL0     O40412   3.115   7.585  -0.565 -0.2764 -0.0723  0.1083
  300MOL0     C40413   2.930   7.778  -0.553  0.9041  0.0005 -0.1774
  300MOL0     C40414   2.818   7.865  -0.549  0.4117 -0.0458 -0.0498
  300MOL0     N40415   2.009   7.944  -0.704 -0.0046  0.0852 -0.4529
  300MOL0     N40416   1.885   7.917  -0.681 -0.2082 -0.2044 -0.4928
  300MOL0     C40417   0.834   7.944  -0.139 -0.0808  0.1351  0.4954
  300MOL0     C40418   0.735   7.874  -0.077 -0.6241  0.8912  0.2078
  300MOL0     C40419   0.391   7.692   0.152 -0.1336 -0.3685 -0.1111
  300MOL0     C40420   0.327   7.796   0.228  0.3113  0.1039  0.7716
  300MOL0     C40421   0.195   7.780   0.280 -0.1838 -0.0369  0.3099
  300MOL0     C40422   0.121   7.667   0.255  0.2118 -0.5214  0.5962
  300MOL0     O40423  -0.016   7.651   0.284 -0.0093  0.2098 -0.2734
  300MOL0     C40424  -0.097   7.758   0.336  0.1280  0.9858  0.2788
  300MOL0     C40425  -0.157   7.824   0.212  0.6156 -0.2001 -0.2045
  300MOL0     C40426  -0.263   7.727   0.150 -0.5138 -0.7582  0.3857
  300MOL0     C40427  -0.404   7.794   0.130 -0.6418  0.0562  0.2089
  300MOL0     C40428  -0.479   7.829   0.254 -0.2517  0.1391  0.0066
  300MOL0     C40429  -0.528   7.864   0.358  0.6325  0.5785 -0.4058
  300MOL0     C40430   0.183   7.573   0.179 -0.2660  0.2796 -0.2576
  300MOL0     C40431   0.316   7.574   0.139  0.4562 -1.3508  0.2012
  300MOL0     C40432   0.377   7.449   0.087  0.6367 -0.0893  0.9436
  300MOL0     H40433   0.748   8.014   0.228 -0.7773 -0.7595 -0.1974
  300MOL0     H40434   0.945   8.118   0.127 -1.0193 -0.4752  1.8861
  300MOL0     H40435   0.902   8.189  -0.233  0.4336 -0.9054  0.7221
  300MOL0     H40436   1.068   8.249  -0.222 -2.4270  1.8339  1.5576
  300MOL0     H40437   1.023   8.154  -0.437 -1.1688 -0.3095  0.8286
  300MOL0     H40438   1.016   7.986  -0.363  0.4083  0.4935 -0.6017
  300MOL0     H40439   1.237   8.007  -0.271  1.7973  1.2271 -0.4523
  300MOL0     H40440   1.253   8.174  -0.326 -0.6881  1.4712 -1.2880
  300MOL0     H40441   1.213   7.944  -0.522  4.1018 -1.1305 -4.2131
  300MOL0     H40442   1.255   8.111  -0.559 -1.0833 -2.3316 -3.2397
  300MOL0     H40443   1.415   7.912  -0.385 -0.4298 -1.2939 -1.2774
  300MOL0     H40444   1.435   7.929  -0.557 -0.8932 -0.2056  0.7617
  300MOL0     H40445   1.485   8.176  -0.514 -0.8718  1.5843  1.4630
  300MOL0     H40446   1.491   8.143  -0.347 -2.2644 -0.4292 -0.3424
  300MOL0     H40447   1.660   7.956  -0.416  0.2088 -1.9002 -2.6904
  300MOL0     H40448   1.716   8.127  -0.406 -0.4525 -1.7718  1.9523
  300MOL0     H40449   1.641   7.977  -0.656  0.7015  1.1007 -0.2132
  300MOL0     H40450   1.688   8.151  -0.653  2.3226 -0.4884 -1.4633
  300MOL0     H40451   1.933   8.207  -0.525 -2.0748  0.1093  0.7752
  300MOL0     H40452   2.195   8.195  -0.708 -0.2846 -0.4319 -1.4103
  300MOL0     H40453   2.207   8.162  -0.539 -0.4686  0.3469  0.0070
  300MOL0     H40454   2.276   7.907  -0.634 -1.2743  1.3465  0.3147
  300MOL0     H40455   2.272   7.981  -0.787 -0.8978  1.5120  0.3008
  300MOL0     H40456   2.442   8.087  -0.555 -1.0634 -3.5252  1.1652
  300MOL0     H40457   2.458   8.142  -0.726  0.5054  0.6894  0.6036
  300MOL0     H40458   2.509   7.884  -0.773 -1.1544 -2.5045  1.5451
  300MOL0     H40459   2.515   7.877  -0.594 -1.8476 -0.7796 -0.1005
  300MOL0     H40460   2.792   7.914  -0.879 -2.4857 -0.3016  1.4204
  300MOL0     H40461   2.987   7.739  -0.890  1.0265 -1.8485  1.5553
  300MOL0     H40462   3.291   7.457  -0.625  0.5291  2.4977  1.4461
  300MOL0     H40463   3.518   7.389  -0.647  2.2582 -0.3706 -1.2092
  300MOL0     H40464   3.824   7.675  -0.740 -0.9788 -0.5251 -1.0754
  300MOL0     H40465   3.732   7.592  -0.620  0.0858 -0.7188 -0.4686
  300MOL0     H40466   3.957   7.535  -0.571 -0.2943  3.5114 -1.2715
  300MOL0     H40467   3.889   7.395  -0.666  0.6295 -0.8089 -0.1158
  300MOL0     H40468   3.995   7.489  -0.862  1.9024 -1.8197 -0.2726
  300MOL0     H40469   4.053   7.631  -0.760 -4.4655  1.0151  2.5116
  300MOL0     H40470   4.116   7.328  -0.714  2.9329 -0.6655  2.7380
  300MOL0     H40471   4.182   7.459  -0.617 -1.5575  0.0083  1.2621
  300MOL0     H40472   4.241   7.405  -0.918  1.0351 -2.4097  0.9874
  300MOL0     H40473   4.361   7.393  -0.798  0.1673 -0.0936  0.9707
  300MOL0     H40474   4.406   7.584  -0.929  1.2984  1.2893  2.2826
  300MOL0     H40475   4.235   7.640  -0.916 -1.5999 -1.7198 -0.7001
  300MOL0     H40476   4.427   7.621  -0.686 -1.5089  0.2198  2.1525
  300MOL0     H40477   4.262   7.689  -0.677 -0.2866 -0.6159  0.3775
  300MOL0     H40478   4.511   7.796  -0.766 -0.5699  2.2433  1.7297
  300MOL0     H40479   4.384   7.828  -0.889 -0.6449  2.2743  0.6056
  300MOL0     H40480   3.585   7.693  -0.949  1.2554 -2.9580 -1.2039
  300MOL0     H40481   3.342   7.757  -0.930 -1.7962  0.0023  0.2640
  300MOL0     H40482   2.974   7.736  -0.464 -1.0732 -0.5393  0.6019
  300MOL0     H40483   2.771   7.897  -0.457 -1.5521  0.4594 -1.1648
  300MOL0     H40484   0.855   7.937  -0.245 -1.3158  0.4759  0.2093
  300MOL0     H40485   0.666   7.821  -0.142 -0.6904  3.1976 -1.7202
  300MOL0     H40486   0.385   7.884   0.249  1.1526  0.4340 -2.3817
  300MOL0     H40487   0.156   7.865   0.336  0.1759  0.6419 -0.4498
  300MOL0     H40488  -0.042   7.824   0.403 -1.3483  0.8858  1.6520
  300MOL0     H40489  -0.177   7.716   0.398  2.3742 -2.6180  1.0989
  300MOL0     H40490  -0.077   7.842   0.140 -2.2592 -1.9293 -4.2318
  300MOL0     H40491  -0.196   7.923   0.238 -0.6638  0.6611 -4.6480
  300MOL0     H40492  -0.261   7.631   0.202 -2.0840 -2.4931 -2.5401
  300MOL0     H40493  -0.228   7.700   0.050  1.9697  0.4285  0.8642
  300MOL0     H40494  -0.388   7.886   0.073 -1.1478  0.5198  0.7909
  300MOL0     H40495  -0.463   7.731   0.062  2.0449 -1.1717 -1.1270
  300MOL0     H40496  -0.585   7.896   0.444  2.3165  1.1993  0.5167
  300MOL0     H40497   0.140   7.477   0.152 -1.8541  1.1915 -1.1148
  300MOL0     H40498   0.396   7.457  -0.020 -1.3473  0.3088  0.5721
  300MOL0     H40499   0.468   7.429   0.144  0.5698 -0.7440  0.8179
  300MOL0     H40500   0.315   7.361   0.105 -0.4677  0.8841  2.1509
  301MOL0     O40501   8.648   2.990   6.805 -0.2319 -0.3508 -0.5830
  301MOL0     C40502   8.565   3.077   6.773 -1.5559 -0.1160 -0.0575
  301MOL0     O40503   8.587   3.172   6.669 -0.4810 -0.4837 -0.3693
  301MOL0     C40504   8.694   3.154   6.590  0.0817 -0.6798  0.7244
  301MOL0     C40505   8.826   3.190   6.639  0.3277 -0.0213 -0.2550
  301MOL0     C40506   8.943   3.180   6.561 -0.4028 -0.3052  0.5421
  301MOL0     C40507   8.928   3.130   6.428  0.4392 -0.2110 -0.3534
  301MOL0     O40508   9.031   3.124   6.339 -0.2838 -0.1271  0.1760
  301MOL0     C40509   9.167   3.160   6.377 -0.0442 -0.0905  1.0314
  301MOL0     C40510   9.267   3.152   6.255 -0.5986 -0.6164  0.3882
  301MOL0     C40511   9.310   3.012   6.220  0.2251 -0.7145  0.4604
  301MOL0     C40512   9.189   2.914   6.211 -0.1973 -0.4983 -0.8659
  301MOL0     C40513   9.245   2.771   6.188  0.3403  0.7754 -0.6181
  301MOL0     C40514   9.120   2.673   6.159 -1.0320  0.3686  0.0963
  301MOL0     C40515   9.166   2.517   6.150 -0.0374 -1.0779  0.5185
  301MOL0     C40516   9.277   2.506   6.044 -0.8088  0.1478  0.6116
  301MOL0     N40517   9.289   2.366   5.999  0.3882  0.0939  0.4669
  301MOL0     C40518   9.368   2.278   6.056 -0.4586  0.1966 -0.1844
  301MOL0     C40519   9.359   2.166   5.981 -0.2390 -0.7191 -0.4168
  301MOL0     C40520   9.404   2.025   6.028  0.1562  0.2088  0.7317
  301MOL0     C40521   9.374   1.907   5.933  0.4834  0.1763 -0.3479
  301MOL0     C40522   9.447   1.913   5.793 -0.0920  0.0737  0.3968
  301MOL0     C40523   9.452   1.766   5.749 -0.5258 -0.3655 -0.9680
  301MOL0     O40524   9.510   1.741   5.625 -0.3095 -0.1696  0.0068
  301MOL0     C40525   9.647   1.765   5.620 -0.1331 -0.7024  0.7658
  301MOL0     C40526   9.692   1.809   5.492  0.1741  1.3307 -0.4025
  301MOL0     C40527   9.824   1.839   5.465 -0.0906  0.1385  0.0745
  301MOL0     C40528   9.919   1.822   5.556 -0.8405  0.5906  0.4409
  301MOL0     C40529  10.073   1.841   5.529 -0.1560 -0.2631 -0.5777
  301MOL0     O40530  10.165   1.819   5.634  0.2392 -0.7216  0.8167
  301MOL0     C40531  10.298   1.830   5.597 -0.3598  0.3385  0.3206
  301MOL0     C40532  10.374   1.947   5.624 -0.3435 -0.1344 -0.3252
  301MOL0     C40533  10.500   1.955   5.581 -0.4027 -0.8141  0.7805
  301MOL0     C40534  10.568   1.843   5.516 -0.9951 -0.6512 -0.8427
  301MOL0     O40535  10.695   1.836   5.476 -0.6893  0.7485 -0.9536
  301MOL0     C40536  10.782   1.932   5.540 -0.9046  0.8992  0.3329
  301MOL0     C40537  10.923   1.906   5.514 -0.5766  0.2257  0.4872
  301MOL0     C40538  10.966   1.766   5.549  0.4991 -0.4853 -0.5004
  301MOL0     C40539  11.117   1.756   5.519  0.4495  0.6231 -0.6384
  301MOL0     C40540  11.182   1.610   5.538  0.6403 -0.1537 -0.7804
  301MOL0     C40541  11.148   1.536   5.677  0.6258 -0.0648  0.4715
  301MOL0     C40542  11.197   1.591   5.804 -0.0232 -0.2007 -0.3334
  301MOL0     C40543  11.175   1.480   5.913 -0.9212 -0.2766  0.3192
  301MOL0    Cl40544  11.177   1.562   6.076  0.2052  0.3472  0.1236
  301MOL0     C40545  10.487   1.741   5.477 -0.3038 -0.1797  0.5608
  301MOL0     C40546  10.351   1.731   5.518  0.1272 -0.0142 -0.2390
  301MOL0     O40547  10.096   1.880   5.414 -0.7709 -0.2900 -0.3282
  301MOL0     C40548   9.873   1.783   5.689 -0.6142  0.1314  0.4829
  301MOL0     C40549   9.743   1.753   5.713  0.8906 -0.5576  0.4654
  301MOL0     N40550   9.271   2.189   5.878 -0.5320  0.0408  0.2907
  301MOL0     N40551   9.229   2.307   5.887 -0.5112 -0.5372 -0.6472
  301MOL0     C40552   8.795   3.092   6.379 -0.3049 -0.1337 -0.0380
  301MOL0     C40553   8.678   3.110   6.459  0.7764 -0.1195 -0.5304
  301MOL0     C40554   8.432   3.089   6.831 -0.1452  0.3272 -0.6510
  301MOL0     C40555   8.360   3.209   6.819  0.0381 -0.3280  0.3029
  301MOL0     C40556   8.243   3.226   6.890  0.2966  0.3219 -0.3732
  301MOL0     C40557   8.193   3.125   6.968  0.4528  0.1718  0.2975
  301MOL0     O40558   8.064   3.149   7.020  0.1957  0.2160  0.3731
  301MOL0     C40559   8.029   3.061   7.125 -0.3815 -0.0899 -0.8994
  301MOL0     C40560   7.894   3.107   7.180  0.4042  1.0162 -0.1360
  301MOL0     C40561   7.865   3.025   7.311 -0.1871  0.2275  0.2926
  301MOL0     C40562   7.726   3.057   7.365  0.1042 -0.0308 -0.5460
  301MOL0     C40563   7.700   2.977   7.491  0.4471  0.1526  1.0370
  301MOL0     C40564   7.692   2.909   7.586 -0.0301 -0.0538 -0.3971
  301MOL0     C40565   8.247   3.004   6.965  0.4969  0.3748  0.5946
  301MOL0     C40566   8.360   2.985   6.906 -0.1398 -0.8499  0.7440
  301MOL0     C40567   8.427   2.850   6.931  0.1819 -0.2669 -0.4009
  301MOL0     H40568   8.835   3.238   6.736  0.6021  0.1952 -0.3855
  301MOL0     H40569   9.034   3.231   6.592 -0.0281 -0.0669 -0.8734
  301MOL0     H40570   9.168   3.262   6.417 -1.2332 -0.3514  1.7881
  301MOL0     H40571   9.196   3.089   6.454  1.0465 -0.0280  0.6959
  301MOL0     H40572   9.353   3.216   6.275 -0.3468  1.3908 -5.2370
  301MOL0     H40573   9.222   3.191   6.162 -1.5084  2.4962  1.9960
  301MOL0     H40574   9.381   2.985   6.299  1.7458  1.1627 -0.1719
  301MOL0     H40575   9.359   3.013   6.122  0.4872  2.8287  0.4994
  301MOL0     H40576   9.134   2.904   6.305  3.3079 -0.9202  1.3475
  301MOL0     H40577   9.113   2.940   6.137 -0.5432 -2.7615 -1.3998
  301MOL0     H40578   9.315   2.771   6.104  0.0535  2.1193 -0.8708
  301MOL0     H40579   9.308   2.755   6.277  2.5298  3.5737 -1.5119
  301MOL0     H40580   9.044   2.693   6.235 -0.4139  1.4296  0.4636
  301MOL0     H40581   9.093   2.707   6.058  0.0073  1.6929  0.2346
  301MOL0     H40582   9.076   2.463   6.119  0.1990 -1.7142  0.9374
  301MOL0     H40583   9.199   2.472   6.244 -0.0406  2.4204  2.3799
  301MOL0     H40584   9.253   2.579   5.966  0.3455 -0.3960 -0.2679
  301MOL0     H40585   9.372   2.543   6.083 -0.9024  0.7381  0.2931
  301MOL0     H40586   9.434   2.302   6.139 -1.9908  2.9128  0.3786
  301MOL0     H40587   9.511   2.038   6.049  0.6290 -2.3209  0.2343
  301MOL0     H40588   9.353   2.009   6.123 -0.9330  3.9784  0.9367
  301MOL0     H40589   9.391   1.812   5.984  0.2629 -1.1636 -2.6069
  301MOL0     H40590   9.266   1.908   5.921  0.3764  0.3793  0.5649
  301MOL0     H40591   9.550   1.949   5.802  0.3394 -1.4694  2.5264
  301MOL0     H40592   9.395   1.975   5.720  0.7190 -0.4898 -0.7022
  301MOL0     H40593   9.349   1.730   5.752 -1.0223  0.9460  2.8168
  301MOL0     H40594   9.502   1.709   5.828 -0.2058  0.9684 -0.1664
  301MOL0     H40595   9.614   1.821   5.417 -1.9253  1.9246  1.7386
  301MOL0     H40596   9.847   1.880   5.368 -1.2594  1.8656  0.4666
  301MOL0     H40597  10.326   2.035   5.664 -1.0094 -0.9988  0.8385
  301MOL0     H40598  10.552   2.046   5.610  0.8013 -0.3039 -2.4863
  301MOL0     H40599  10.767   2.036   5.510  1.4292  1.3223  0.4410
  301MOL0     H40600  10.766   1.927   5.648 -4.8018 -1.4937 -0.1885
  301MOL0     H40601  10.952   1.906   5.408 -1.7940  0.0114  0.1375
  301MOL0     H40602  10.994   1.975   5.561  1.7882 -0.9418 -1.1864
  301MOL0     H40603  10.956   1.755   5.657 -0.7002 -1.0442 -0.6488
  301MOL0     H40604  10.906   1.691   5.497  0.5045 -2.3470  1.9882
  301MOL0     H40605  11.174   1.827   5.579  2.1639  0.3649 -1.8882
  301MOL0     H40606  11.140   1.788   5.417  0.8255  0.3663 -0.6357
  301MOL0     H40607  11.289   1.625   5.524  0.2959  0.7134 -3.0156
  301MOL0     H40608  11.146   1.548   5.455 -0.2085 -1.4419  0.5144
  301MOL0     H40609  11.039   1.543   5.681  0.6735  0.0533  1.9422
  301MOL0     H40610  11.180   1.432   5.663 -1.7324 -0.7347 -0.4689
  301MOL0     H40611  11.143   1.683   5.830 -2.7142 -0.8323 -3.1175
  301MOL0     H40612  11.303   1.617   5.798 -0.2417  1.0120  0.5250
  301MOL0     H40613  11.083   1.422   5.902 -0.3744 -1.7216  2.6473
  301MOL0     H40614  11.250   1.400   5.911  1.6833  1.9990 -0.0254
  301MOL0     H40615  10.522   1.672   5.401  0.0312  2.1241 -1.5282
  301MOL0     H40616  10.291   1.654   5.471  1.2019  0.1402 -1.9684
  301MOL0     H40617   9.935   1.769   5.777  0.4996  1.3189 -0.0598
  301MOL0     H40618   9.723   1.708   5.810  0.0194 -1.6454 -0.1964
  301MOL0     H40619   8.794   3.046   6.281 -1.5958 -0.4366  0.0946
  301MOL0     H40620   8.583   3.088   6.412  1.2284  1.7463 -2.4588
  301MOL0     H40621   8.380   3.298   6.760 -5.6988  0.5837 -0.8529
  301MOL0     H40622   8.195   3.323   6.877 -0.6835 -0.2316 -1.0763
  301MOL0     H40623   8.108   3.056   7.200  0.9031  0.3434 -2.1890
  301MOL0     H40624   8.010   2.960   7.085  0.9387 -0.2650 -1.1329
  301MOL0     H40625   7.824   3.083   7.100  2.0291 -2.0690 -0.7562
  301MOL0     H40626   7.892   3.215   7.197 -0.0899  1.0787 -0.5889
  301MOL0     H40627   7.943   3.049   7.385  1.8268 -0.2050 -1.5913
  301MOL0     H40628   7.867   2.917   7.298 -0.2376 -0.0776  2.3961
  301MOL0     H40629   7.721   3.157   7.409  2.7539 -1.3006  3.1932
  301MOL0     H40630   7.638   3.052   7.300 -0.9793  1.5067  0.7236
  301MOL0     H40631   7.700   2.848   7.674 -0.7276  2.0700  1.2253
  301MOL0     H40632   8.207   2.912   7.005  1.1866  0.6450  1.9696
  301MOL0     H40633   8.361   2.773   6.890 -1.4596 -0.5078  2.4653
  301MOL0     H40634   8.531   2.821   6.910  0.2442  1.0442 -2.1450
  301MOL0     H40635   8.426   2.837   7.039 -2.7949  3.2359  0.1753
  302MOL0     O40636   2.519   8.619   9.517 -0.1702 -0.7372  0.1378
  302MOL0     C40637   2.431   8.668   9.449  0.2750 -0.2478 -0.3086
  302MOL0     O40638   2.433   8.683   9.313  0.0175 -0.4698 -0.6026
  302MOL0     C40639   2.536   8.630   9.241  0.4035  1.2800 -0.1798
  302MOL0     C40640   2.651   8.717   9.228 -0.3648  0.4158 -0.2985
  302MOL0     C40641   2.762   8.684   9.143  0.1116 -0.1610 -0.6575
  302MOL0     C40642   2.759   8.561   9.081 -0.4250  0.4198 -0.5621
  302MOL0     O40643   2.873   8.529   9.007 -0.2532  0.0385 -0.6779
  302MOL0     C40644   2.920   8.397   9.022 -0.6776  0.0915 -0.6611
  302MOL0     C40645   3.069   8.401   9.025  0.2997 -0.2226 -0.3389
  302MOL0     C40646   3.130   8.267   9.072  0.1346 -0.1346 -0.2608
  302MOL0     C40647   3.284   8.268   9.036  0.2501 -0.6085  0.3413
  302MOL0     C40648   3.350   8.137   9.094 -0.2577 -0.2404 -0.4091
  302MOL0     C40649   3.382   8.130   9.245  0.8846 -0.4858 -0.1045
  302MOL0     C40650   3.424   7.995   9.312  0.4175 -0.2889  0.1323
  302MOL0     C40651   3.571   7.960   9.280  0.0372  0.3106 -0.2107
  302MOL0     N40652   3.673   8.059   9.311  0.5101  0.0899  0.6688
  302MOL0     C40653   3.749   8.118   9.209  0.4981  0.5273 -0.0032
  302MOL0     C40654   3.832   8.196   9.277  0.2335 -0.4846  0.2815
  302MOL0     C40655   3.931   8.293   9.204  0.1322  0.8883 -0.0317
  302MOL0     C40656   4.066   8.245   9.180 -0.1806 -0.3551  1.1749
  302MOL0     C40657   4.140   8.208   9.310 -0.4104 -0.2200  0.7163
  302MOL0     C40658   4.290   8.175   9.297  0.1699  0.2650 -0.2405
  302MOL0     O40659   4.311   8.052   9.235  0.8213 -0.1438  0.0694
  302MOL0     C40660   4.447   8.019   9.230 -0.2453 -0.1697  0.6650
  302MOL0     C40661   4.554   8.094   9.277 -0.1934 -0.9007  0.2062
  302MOL0     C40662   4.684   8.040   9.258 -0.1434  0.6215 -0.6073
  302MOL0     C40663   4.709   7.912   9.198 -1.0756 -0.3933 -0.1442
  302MOL0     C40664   4.849   7.853   9.207  0.2318  0.5151  1.1187
  302MOL0     O40665   4.945   7.932   9.253 -0.4241 -0.4126 -0.8168
  302MOL0     C40666   5.076   7.893   9.248 -0.8797 -0.2507 -0.8039
  302MOL0     C40667   5.148   7.891   9.131  0.2796 -0.0916  0.8045
  302MOL0     C40668   5.273   7.852   9.122  1.1166  0.0951 -0.2227
  302MOL0     C40669   5.356   7.822   9.233  0.5966  0.1851 -0.3524
  302MOL0     O40670   5.485   7.778   9.230 -0.5474  0.5359 -0.1617
  302MOL0     C40671   5.561   7.780   9.102 -0.4799  0.2191  0.6958
  302MOL0     C40672   5.718   7.785   9.128 -0.2909  1.1077  0.8081
  302MOL0     C40673   5.789   7.910   9.183 -0.3038 -0.8998 -0.2699
  302MOL0     C40674   5.806   8.034   9.092  0.2224 -0.4106  0.1811
  302MOL0     C40675   5.864   8.163   9.156 -0.5868  0.6906  0.4825
  302MOL0     C40676   6.009   8.146   9.209  0.8150 -0.4523  0.5380
  302MOL0     C40677   6.049   8.262   9.298  0.0998  0.0777  1.0817
  302MOL0     C40678   6.192   8.256   9.347 -0.0884 -0.0606  0.6640
  302MOL0    Cl40679   6.248   8.399   9.435  0.5175  0.0050  0.1655
  302MOL0     C40680   5.292   7.832   9.351 -0.0956 -0.1257 -0.9269
  302MOL0     C40681   5.153   7.862   9.362 -0.4057 -0.1569  0.0810
  302MOL0     O40682   4.859   7.741   9.156  0.2855  0.5243 -0.3807
  302MOL0     C40683   4.597   7.843   9.146 -0.4053  0.6505  0.1804
  302MOL0     C40684   4.473   7.900   9.162 -0.7434 -0.4530 -0.1661
  302MOL0     N40685   3.813   8.171   9.412 -0.3272  0.7535  0.1023
  302MOL0     N40686   3.716   8.088   9.432 -0.5187 -0.0941 -0.3667
  302MOL0     C40687   2.653   8.474   9.098 -0.2237 -0.5522 -0.2036
  302MOL0     C40688   2.541   8.499   9.182 -0.3092 -0.5631  0.5668
  302MOL0     C40689   2.312   8.707   9.534 -0.6060 -0.2833 -0.5892
  302MOL0     C40690   2.331   8.756   9.662  0.3175 -0.3499 -0.5369
  302MOL0     C40691   2.228   8.806   9.736 -0.6930  0.6158 -1.3013
  302MOL0     C40692   2.101   8.780   9.692 -0.0261 -0.4747 -0.1972
  302MOL0     O40693   1.993   8.806   9.770  0.8375 -0.3592 -0.0655
  302MOL0     C40694   2.002   8.782   9.911  0.9955  0.7406 -0.2469
  302MOL0     C40695   2.013   8.628   9.932 -0.0703  0.2943  0.4208
  302MOL0     C40696   1.925   8.548   9.845 -0.6197  0.1676  0.0185
  302MOL0     C40697   1.774   8.588   9.856  0.5071  0.5012 -0.2396
  302MOL0     C40698   1.731   8.582   9.994  0.2367 -0.1805  1.0358
  302MOL0     C40699   1.695   8.574  10.109  0.2850 -0.5060 -0.1719
  302MOL0     C40700   2.077   8.734   9.565  0.2638 -0.0354 -0.0164
  302MOL0     C40701   2.179   8.692   9.484 -0.5068 -0.0521 -0.7287
  302MOL0     C40702   2.135   8.645   9.357  0.0065  0.7754  0.6054
  302MOL0     H40703   2.655   8.813   9.278  0.7833  1.2730 -1.9392
  302MOL0     H40704   2.855   8.741   9.147  0.7275 -0.9668 -2.3588
  302MOL0     H40705   2.891   8.355   9.118  3.1866  0.4129  0.8506
  302MOL0     H40706   2.891   8.326   8.944 -1.2519 -0.8947  0.4296
  302MOL0     H40707   3.102   8.491   9.077  1.1307  0.3005 -1.6977
  302MOL0     H40708   3.099   8.410   8.920 -4.3933 -1.9533 -2.0778
  302MOL0     H40709   3.087   8.179   9.023  1.5260 -0.3929 -1.0955
  302MOL0     H40710   3.118   8.259   9.181 -0.9496 -0.7362 -0.4148
  302MOL0     H40711   3.313   8.279   8.932  2.6599  0.2778  1.0473
  302MOL0     H40712   3.338   8.358   9.068  0.9937  0.1482 -2.7352
  302MOL0     H40713   3.289   8.049   9.069 -1.1130  0.8264 -2.2303
  302MOL0     H40714   3.446   8.119   9.046  0.1589 -0.0120  0.3246
  302MOL0     H40715   3.458   8.208   9.256  1.4273 -0.8832 -0.9486
  302MOL0     H40716   3.290   8.158   9.297 -2.2877 -3.1122 -3.7999
  302MOL0     H40717   3.367   7.914   9.266  2.9257 -1.8716 -0.4446
  302MOL0     H40718   3.396   7.991   9.418 -1.0737 -4.0658 -0.2627
  302MOL0     H40719   3.589   7.865   9.332  0.0637  1.8760  2.7974
  302MOL0     H40720   3.578   7.947   9.171 -0.5686 -0.1383 -0.2004
  302MOL0     H40721   3.746   8.104   9.102 -2.0931 -1.7749  0.2569
  302MOL0     H40722   3.893   8.320   9.105 -1.1018  2.8004  0.9021
  302MOL0     H40723   3.942   8.383   9.265 -2.7168  0.1413  1.8018
  302MOL0     H40724   4.074   8.158   9.115  2.2275  1.5918 -1.3881
  302MOL0     H40725   4.111   8.329   9.127 -1.4962 -0.1043  0.3974
  302MOL0     H40726   4.096   8.112   9.341  0.4947 -0.5520  1.0075
  302MOL0     H40727   4.132   8.278   9.393  0.4296  2.2204 -1.1296
  302MOL0     H40728   4.317   8.176   9.403  0.2966  0.6060 -0.2751
  302MOL0     H40729   4.343   8.247   9.234  2.1659  0.8327  1.9631
  302MOL0     H40730   4.554   8.191   9.326 -1.0738  0.2855 -1.9921
  302MOL0     H40731   4.765   8.097   9.303 -2.1272  1.5144  2.1127
  302MOL0     H40732   5.098   7.924   9.040 -0.9789 -0.4012  1.3545
  302MOL0     H40733   5.325   7.850   9.026  2.1948  0.8575  0.3213
  302MOL0     H40734   5.523   7.692   9.049 -2.4405  1.5706 -0.2618
  302MOL0     H40735   5.521   7.868   9.051 -2.7545 -0.3268  1.4258
  302MOL0     H40736   5.737   7.704   9.199  0.5794 -2.4091 -3.0594
  302MOL0     H40737   5.783   7.762   9.043 -1.5597  1.5172 -0.3011
  302MOL0     H40738   5.733   7.949   9.269 -0.7303 -0.2583 -0.8249
  302MOL0     H40739   5.890   7.888   9.217  0.8411  2.6396 -0.8923
  302MOL0     H40740   5.710   8.052   9.043  1.4909  5.0402 -0.9732
  302MOL0     H40741   5.873   8.010   9.008 -2.1631 -1.0756 -1.6512
  302MOL0     H40742   5.794   8.198   9.232 -0.7331  2.4325 -0.4009
  302MOL0     H40743   5.854   8.242   9.081 -3.3304 -0.1804 -0.1642
  302MOL0     H40744   6.029   8.054   9.265  2.5985 -0.2703  0.2531
  302MOL0     H40745   6.080   8.129   9.127  1.3241 -0.5816  1.0019
  302MOL0     H40746   5.978   8.264   9.381 -1.9024  2.2912 -0.5467
  302MOL0     H40747   6.033   8.354   9.241 -1.0490 -2.5604 -3.4184
  302MOL0     H40748   6.214   8.162   9.398  0.9201  0.1290  0.5927
  302MOL0     H40749   6.261   8.259   9.263  0.2601 -2.1185  0.8442
  302MOL0     H40750   5.356   7.811   9.437  0.6833  0.0764 -1.4529
  302MOL0     H40751   5.124   7.880   9.465 -1.3955  3.1358 -0.6777
  302MOL0     H40752   4.613   7.750   9.092  1.0800 -1.6838  4.1351
  302MOL0     H40753   4.385   7.851   9.121 -1.9587  1.5646 -0.1255
  302MOL0     H40754   2.648   8.375   9.055 -4.6314 -1.1469  1.1445
  302MOL0     H40755   2.460   8.428   9.193  0.9145 -1.8995  1.2646
  302MOL0     H40756   2.431   8.785   9.695 -0.3240  4.5997 -2.1196
  302MOL0     H40757   2.250   8.855   9.831 -0.6494 -1.6511 -0.0775
  302MOL0     H40758   1.912   8.813   9.964  0.1999 -0.0680 -1.0860
  302MOL0     H40759   2.090   8.820   9.964  0.0496  1.2643  1.0007
  302MOL0     H40760   2.009   8.611  10.040  1.9053  0.5798  0.5834
  302MOL0     H40761   2.111   8.592   9.900 -0.2979  0.2481 -0.2376
  302MOL0     H40762   1.948   8.446   9.878 -0.1254  0.4285  0.5051
  302MOL0     H40763   1.954   8.547   9.740 -1.7435 -1.8866 -0.3265
  302MOL0     H40764   1.746   8.682   9.807  1.5750 -0.2960 -2.5375
  302MOL0     H40765   1.717   8.515   9.798  1.0667  0.1064 -0.3043
  302MOL0     H40766   1.665   8.552  10.209  0.0197 -0.8323 -0.3201
  302MOL0     H40767   1.980   8.739   9.516  1.3552 -0.1892 -2.3379
  302MOL0     H40768   2.037   8.598   9.359  0.2358  0.2337 -0.2965
  302MOL0     H40769   2.135   8.727   9.283  0.2311  0.6644  0.4805
  302MOL0     H40770   2.214   8.580   9.317  1.7278  3.3351 -0.4573
  303MOL0     O40771   2.413   6.912   8.284 -0.4651  0.1962  0.1619
  303MOL0     C40772   2.378   6.857   8.390 -1.2645  0.5488 -0.3275
  303MOL0     O40773   2.471   6.803   8.481  0.1917 -0.0083  0.3410
  303MOL0     C40774   2.609   6.806   8.470 -0.6967  0.2206  0.4445
  303MOL0     C40775   2.683   6.694   8.509 -1.3215 -0.5439  0.3252
  303MOL0     C40776   2.820   6.690   8.483 -0.2427  0.4150  0.8533
  303MOL0     C40777   2.889   6.805   8.440 -0.2911 -0.2865  0.3574
  303MOL0     O40778   3.027   6.790   8.414  0.6010  0.3593 -0.5614
  303MOL0     C40779   3.095   6.906   8.423 -0.4827 -0.8193  0.4860
  303MOL0     C40780   3.236   6.862   8.494 -0.2644 -0.1912  1.2877
  303MOL0     C40781   3.218   6.777   8.617  0.9584  0.4497  0.2497
  303MOL0     C40782   3.122   6.853   8.714  0.1598  0.3059  0.6638
  303MOL0     C40783   3.102   6.781   8.851 -0.2401 -0.3431  0.0499
  303MOL0     C40784   3.029   6.860   8.954  0.2326  0.2683  0.1938
  303MOL0     C40785   3.007   6.768   9.075  0.3517  0.7246  0.0335
  303MOL0     C40786   2.895   6.662   9.071 -0.2556  0.9057 -0.2305
  303MOL0     N40787   2.768   6.729   9.056  0.8111  0.4290 -0.1713
  303MOL0     C40788   2.697   6.803   9.147  0.7023 -0.3032 -0.7170
  303MOL0     C40789   2.579   6.844   9.082 -0.2140  1.0668 -0.1528
  303MOL0     C40790   2.459   6.904   9.140 -0.0376  0.0249 -1.0479
  303MOL0     C40791   2.345   6.800   9.154  0.1831  0.9396  0.3078
  303MOL0     C40792   2.389   6.674   9.237  0.3622  0.0934 -0.1337
  303MOL0     C40793   2.268   6.587   9.271  0.4417  0.2272 -0.2522
  303MOL0     O40794   2.194   6.657   9.377 -0.4715 -0.2086 -0.2598
  303MOL0     C40795   2.069   6.614   9.413 -0.2908 -0.1826  1.1286
  303MOL0     C40796   1.979   6.525   9.347 -0.5244  0.5287  0.0446
  303MOL0     C40797   1.850   6.499   9.405  0.7047 -0.2188 -0.3885
  303MOL0     C40798   1.811   6.570   9.521 -0.5145 -0.2874  0.0036
  303MOL0     C40799   1.683   6.537   9.581  0.0266  0.6210 -0.0100
  303MOL0     O40800   1.646   6.603   9.696  0.6381  0.5867 -0.2024
  303MOL0     C40801   1.532   6.580   9.774 -0.4810  1.3175  0.5963
  303MOL0     C40802   1.501   6.679   9.872  0.3598 -0.1927  0.0358
  303MOL0     C40803   1.395   6.666   9.960 -0.5648  1.2531  0.1531
  303MOL0     C40804   1.320   6.542   9.965 -0.6733  0.2206  0.8853
  303MOL0     O40805   1.220   6.518  10.056  0.1197 -0.0937  0.0756
  303MOL0     C40806   1.151   6.631  10.117 -1.1115 -0.4386  0.3233
  303MOL0     C40807   1.016   6.579  10.173 -0.6774  0.7727  0.3529
  303MOL0     C40808   0.911   6.690  10.212 -0.3770 -0.0409 -0.1438
  303MOL0     C40809   0.963   6.795  10.303  0.2464 -0.3547 -0.3875
  303MOL0     C40810   0.872   6.919  10.347 -0.4184  0.2588 -0.3608
  303MOL0     C40811   0.831   7.018  10.235  0.0583 -1.0948  0.0902
  303MOL0     C40812   0.752   7.146  10.285 -0.0640  0.0728 -0.4029
  303MOL0     C40813   0.690   7.205  10.155 -0.0131  0.4679 -0.6806
  303MOL0    Cl40814   0.563   7.317  10.204 -0.5084  0.1775 -0.4581
  303MOL0     C40815   1.367   6.439   9.884  0.6319 -0.4372 -0.2266
  303MOL0     C40816   1.461   6.457   9.784 -0.8383 -0.5184  0.6427
  303MOL0     O40817   1.617   6.455   9.520  0.2379 -0.5715  0.3155
  303MOL0     C40818   1.901   6.661   9.584 -0.2577  0.2485  1.5170
  303MOL0     C40819   2.024   6.683   9.520 -0.0310 -1.0264 -0.5842
  303MOL0     N40820   2.599   6.805   8.947 -0.9811  0.5523 -0.3940
  303MOL0     N40821   2.712   6.737   8.933 -0.5294  0.6454  0.1250
  303MOL0     C40822   2.813   6.910   8.399 -0.2698 -0.2668  0.4468
  303MOL0     C40823   2.679   6.920   8.419  0.8895  0.2819  0.6490
  303MOL0     C40824   2.238   6.847   8.431  0.0215 -0.0637 -0.1593
  303MOL0     C40825   2.212   6.867   8.569 -0.2042  0.2227 -0.0392
  303MOL0     C40826   2.080   6.850   8.623 -0.1032 -0.5028  0.7077
  303MOL0     C40827   1.968   6.836   8.535  0.1071 -0.1441  0.3024
  303MOL0     O40828   1.847   6.826   8.603 -0.0693 -0.4844  0.1614
  303MOL0     C40829   1.726   6.876   8.538  0.6739  0.1296 -0.3435
  303MOL0     C40830   1.698   7.025   8.567  0.0676  0.2486  0.5599
  303MOL0     C40831   1.551   7.073   8.527 -1.2077  0.5542  0.0046
  303MOL0     C40832   1.453   7.064   8.637  0.2727 -0.2604  0.0064
  303MOL0     C40833   1.360   6.954   8.610 -0.7699 -0.2820 -0.3242
  303MOL0     C40834   1.296   6.859   8.571 -0.0130 -0.7040 -0.1006
  303MOL0     C40835   1.998   6.812   8.396  0.3186  0.0130 -0.3958
  303MOL0     C40836   2.130   6.814   8.340  0.0506  0.2870 -0.0485
  303MOL0     C40837   2.154   6.778   8.195 -1.1462  0.3584  0.4508
  303MOL0     H40838   2.640   6.600   8.544  2.6026 -2.0899  1.6018
  303MOL0     H40839   2.880   6.605   8.513 -0.7633 -1.6741 -3.2494
  303MOL0     H40840   3.105   6.940   8.320 -0.0359  1.5330  1.2342
  303MOL0     H40841   3.053   6.980   8.492 -1.0108 -1.4739  0.8841
  303MOL0     H40842   3.293   6.954   8.509 -2.6300  2.8760 -4.9597
  303MOL0     H40843   3.287   6.805   8.417 -1.1932  2.2118 -1.2859
  303MOL0     H40844   3.312   6.768   8.672  2.1719  1.4820 -1.5469
  303MOL0     H40845   3.176   6.679   8.590  0.3755  0.3650  1.3681
  303MOL0     H40846   3.171   6.948   8.738  0.9151 -0.6189  3.1222
  303MOL0     H40847   3.025   6.887   8.679  0.6691  2.5923  1.3338
  303MOL0     H40848   3.038   6.694   8.835 -1.7874  0.6722  0.4865
  303MOL0     H40849   3.199   6.761   8.898 -0.1821  1.9105  1.0219
  303MOL0     H40850   3.084   6.951   8.980 -1.2418  1.4579 -0.6638
  303MOL0     H40851   2.939   6.909   8.916  0.1931  0.3490  0.3888
  303MOL0     H40852   2.987   6.832   9.161 -0.5570  2.7781 -1.6390
  303MOL0     H40853   3.099   6.714   9.099 -0.1285 -0.7344 -1.1997
  303MOL0     H40854   2.914   6.590   8.991 -4.3305 -2.9139  1.7870
  303MOL0     H40855   2.897   6.604   9.164 -2.4063  0.5863 -0.3335
  303MOL0     H40856   2.722   6.813   9.252  1.0107 -0.4605 -0.7741
  303MOL0     H40857   2.484   6.939   9.241  0.5868  1.5700 -1.7035
  303MOL0     H40858   2.426   6.993   9.085 -0.3229  1.4233  1.2624
  303MOL0     H40859   2.262   6.856   9.197 -1.2049 -1.6311  1.1692
  303MOL0     H40860   2.309   6.762   9.057  3.0920 -1.9675  0.1666
  303MOL0     H40861   2.439   6.717   9.324  1.9587 -1.4918 -0.2043
  303MOL0     H40862   2.459   6.609   9.183 -1.4475 -1.2019 -1.0284
  303MOL0     H40863   2.280   6.482   9.300 -2.1025  0.2836  1.3560
  303MOL0     H40864   2.202   6.582   9.183  1.1360  0.9745 -0.8244
  303MOL0     H40865   2.010   6.483   9.252 -1.8995 -0.3868 -0.0321
  303MOL0     H40866   1.781   6.429   9.358 -0.1838  0.6232 -0.3452
  303MOL0     H40867   1.547   6.777   9.871 -0.3423  0.1682  1.2682
  303MOL0     H40868   1.375   6.750  10.025  0.6972  0.9388  0.9671
  303MOL0     H40869   1.219   6.667  10.194 -0.8085 -3.2227  1.4895
  303MOL0     H40870   1.135   6.709  10.041  0.9199 -0.1283  0.1519
  303MOL0     H40871   0.972   6.526  10.088  1.0700 -0.9434  0.4622
  303MOL0     H40872   1.026   6.509  10.256  0.9051 -2.8193 -2.6152
  303MOL0     H40873   0.864   6.731  10.122 -2.8398  2.3509  2.0536
  303MOL0     H40874   0.833   6.636  10.267 -0.9068  0.1133 -0.7341
  303MOL0     H40875   1.053   6.840  10.259 -1.9599  3.8612 -1.1256
  303MOL0     H40876   0.995   6.740  10.392  1.5088 -3.0319 -2.3529
  303MOL0     H40877   0.934   6.982  10.412  0.6955 -0.0851 -1.0654
  303MOL0     H40878   0.782   6.892  10.403 -0.5737  0.8182 -0.3340
  303MOL0     H40879   0.921   7.046  10.179 -0.3423 -2.0137 -1.0433
  303MOL0     H40880   0.767   6.960  10.168 -0.6926  0.8124 -0.9158
  303MOL0     H40881   0.832   7.201  10.335  0.3649 -1.7988  1.1046
  303MOL0     H40882   0.676   7.137  10.362 -0.6649 -0.5159 -1.0407
  303MOL0     H40883   0.763   7.250  10.087 -1.4549  1.2791 -1.7415
  303MOL0     H40884   0.638   7.128  10.097  2.4116 -1.3211 -0.6300
  303MOL0     H40885   1.330   6.339   9.904  0.0017  0.1417  1.8414
  303MOL0     H40886   1.473   6.377   9.712 -3.2740 -0.1968 -0.2079
  303MOL0     H40887   1.869   6.704   9.679  0.7472  4.0127  0.3249
  303MOL0     H40888   2.094   6.756   9.560 -1.8587  0.7514 -0.5010
  303MOL0     H40889   2.865   6.996   8.360 -0.7793  2.7093  5.4330
  303MOL0     H40890   2.629   7.010   8.387 -0.0892 -0.5286 -0.1735
  303MOL0     H40891   2.299   6.895   8.626  1.0679 -3.5381  0.1182
  303MOL0     H40892   2.076   6.860   8.731  4.4300 -0.2378  1.0521
  303MOL0     H40893   1.643   6.813   8.570 -0.6508  0.4415 -2.8660
  303MOL0     H40894   1.733   6.868   8.429  0.1196  1.8352 -0.5229
  303MOL0     H40895   1.765   7.093   8.512 -0.3746  1.6852  1.7083
  303MOL0     H40896   1.721   7.058   8.669 -2.3096  1.7960  0.6792
  303MOL0     H40897   1.521   7.022   8.435 -1.5437  3.4193 -1.5868
  303MOL0     H40898   1.551   7.174   8.487  1.1987  1.0774  1.1589
  303MOL0     H40899   1.504   7.044   8.732 -0.5037  0.3054  0.5559
  303MOL0     H40900   1.392   7.154   8.650  0.8327  0.0754  0.3776
  303MOL0     H40901   1.243   6.779   8.523 -2.5363  1.1894 -0.6331
  303MOL0     H40902   1.918   6.798   8.324 -2.5025  1.4414  2.2140
  303MOL0     H40903   2.080   6.712   8.148  1.0320 -0.5019 -1.9724
  303MOL0     H40904   2.168   6.872   8.140 -0.0326  0.6678  1.2281
  303MOL0     H40905   2.247   6.722   8.199 -1.1329  0.4559  1.9970
  304MOL0     O40906   0.082   2.849  10.570 -0.3469  0.5065 -0.2212
  304MOL0     C40907   0.029   2.772  10.487 -0.3257  0.4738  0.4096
  304MOL0     O40908   0.086   2.719  10.383 -0.4358  0.0475 -0.3565
  304MOL0     C40909   0.220   2.729  10.370 -0.2972  0.3991 -0.3241
  304MOL0     C40910   0.287   2.855  10.356  0.4718 -0.8742 -0.1116
  304MOL0     C40911   0.426   2.854  10.329  0.2400 -0.0656  0.9095
  304MOL0     C40912   0.499   2.741  10.321  1.7263  0.6515  0.5675
  304MOL0     O40913   0.635   2.730  10.303 -0.5148  0.0358  0.0834
  304MOL0     C40914   0.722   2.841  10.282  0.5914  0.0186 -0.3071
  304MOL0     C40915   0.834   2.806  10.186 -0.6271 -0.7167  0.6364
  304MOL0     C40916   0.923   2.926  10.149 -0.5042  0.3830  0.8621
  304MOL0     C40917   1.035   2.890  10.059  0.4548 -1.1797  0.5036
  304MOL0     C40918   1.095   3.027  10.002  0.3325  1.0405 -0.6555
  304MOL0     C40919   1.162   3.123  10.099  0.1424 -0.1835  0.6403
  304MOL0     C40920   1.202   3.254  10.033  0.0953 -0.3725  0.6145
  304MOL0     C40921   1.275   3.335  10.139  0.2158  0.6293  0.5199
  304MOL0     N40922   1.273   3.472  10.110 -0.0041  0.3908 -0.6253
  304MOL0     C40923   1.341   3.549  10.023  0.7778  0.4282 -0.2118
  304MOL0     C40924   1.310   3.675  10.057  0.0400 -0.0291  0.6698
  304MOL0     C40925   1.387   3.799  10.006 -0.0417  0.1652  0.1399
  304MOL0     C40926   1.388   3.913  10.112 -0.2989 -0.6546 -1.4897
  304MOL0     C40927   1.456   4.044  10.063  0.6154  0.4651 -0.6295
  304MOL0     C40928   1.610   4.046  10.067  0.0041  0.3690  0.5789
  304MOL0     O40929   1.655   4.146  10.154  1.0305 -0.3055 -0.2854
  304MOL0     C40930   1.785   4.165  10.187 -0.4038  0.4430 -1.0860
  304MOL0     C40931   1.885   4.086  10.130  0.5439  0.4461 -0.1233
  304MOL0     C40932   2.018   4.108  10.163 -0.3130 -0.3965 -0.9650
  304MOL0     C40933   2.054   4.214  10.255  1.1160  0.3197 -0.9043
  304MOL0     C40934   2.198   4.246  10.273 -0.2671  0.1846 -0.0568
  304MOL0     O40935   2.285   4.150  10.220 -0.4830 -0.0396 -0.0211
  304MOL0     C40936   2.421   4.162  10.228  0.1382  0.8160  0.0863
  304MOL0     C40937   2.488   4.272  10.201 -0.7669 -0.6513  0.1491
  304MOL0     C40938   2.625   4.276  10.213 -0.0699  0.0344 -1.0954
  304MOL0     C40939   2.701   4.167  10.265 -0.4765  0.1650 -0.1805
  304MOL0     O40940   2.831   4.179  10.310 -0.0513  0.6650  0.3057
  304MOL0     C40941   2.915   4.272  10.234  0.1954  1.2848  0.3664
  304MOL0     C40942   2.949   4.206  10.099 -0.0584 -1.0958 -0.2655
  304MOL0     C40943   3.064   4.099  10.109 -0.2718  0.5957  0.4443
  304MOL0     C40944   3.208   4.146  10.134  0.0727 -0.1814  0.1378
  304MOL0     C40945   3.295   4.016  10.151 -0.3977 -0.0748 -0.0290
  304MOL0     C40946   3.440   4.047  10.155  0.4010 -0.1051 -0.4223
  304MOL0     C40947   3.535   3.932  10.193 -0.6059  0.5789 -0.3600
  304MOL0     C40948   3.683   3.978  10.220  0.0985  0.4549  0.7597
  304MOL0    Cl40949   3.763   4.039  10.070  0.0574  0.0072 -0.0032
  304MOL0     C40950   2.632   4.045  10.292 -0.5532 -0.0109 -0.4771
  304MOL0     C40951   2.496   4.052  10.258 -0.0114 -0.0269  0.0950
  304MOL0     O40952   2.219   4.335  10.351  0.7762  0.1585  0.2007
  304MOL0     C40953   1.949   4.294  10.307  0.3094  0.4025  0.6421
  304MOL0     C40954   1.814   4.263  10.276 -0.1292 -1.0357 -0.2280
  304MOL0     N40955   1.216   3.677  10.153  0.3970  0.3360 -0.0978
  304MOL0     N40956   1.188   3.553  10.184  0.4691  0.1407  0.3821
  304MOL0     C40957   0.430   2.621  10.338  0.1086  0.6187 -0.0500
  304MOL0     C40958   0.294   2.613  10.360 -0.6665 -0.2177  0.1598
  304MOL0     C40959  -0.105   2.731  10.520  1.0284  0.4548 -0.7777
  304MOL0     C40960  -0.186   2.819  10.594 -0.3153  1.2553  0.7779
  304MOL0     C40961  -0.316   2.782  10.641  0.4613 -0.6680 -0.2573
  304MOL0     C40962  -0.383   2.660  10.601  0.4787 -0.3121  0.1734
  304MOL0     O40963  -0.515   2.613  10.625 -0.4020 -0.6112  1.1770
  304MOL0     C40964  -0.549   2.595  10.767  0.1435  0.5220  0.6476
  304MOL0     C40965  -0.495   2.461  10.837  0.9213 -0.5632 -0.1831
  304MOL0     C40966  -0.525   2.339  10.751 -0.5738 -0.2736  0.1356
  304MOL0     C40967  -0.666   2.315  10.723  0.4736  0.5159 -0.4968
  304MOL0     C40968  -0.747   2.306  10.845  0.0300 -0.0070  0.8505
  304MOL0     C40969  -0.803   2.310  10.952 -1.1324  1.0925 -0.4219
  304MOL0     C40970  -0.302   2.576  10.526  0.7841 -0.0086 -0.1108
  304MOL0     C40971  -0.171   2.602  10.485  0.1316  0.0230 -0.9741
  304MOL0     C40972  -0.106   2.500  10.398 -0.0809 -0.1435 -0.1072
  304MOL0     H40973   0.237   2.951  10.362  0.2698 -1.0709  3.3228
  304MOL0     H40974   0.477   2.950  10.322  0.0171 -0.0352 -0.4869
  304MOL0     H40975   0.670   2.930  10.245 -1.8804 -2.0510 -2.1113
  304MOL0     H40976   0.773   2.857  10.378  0.9727 -2.9816  0.0707
  304MOL0     H40977   0.793   2.773  10.091  3.2891  0.1699 -1.5828
  304MOL0     H40978   0.896   2.727  10.228 -0.7374 -2.0564 -1.5927
  304MOL0     H40979   0.968   2.971  10.238  0.7765 -1.7049  1.3219
  304MOL0     H40980   0.856   2.995  10.095 -0.6759  0.3669  1.0540
  304MOL0     H40981   1.104   2.835  10.124  1.0042 -1.1292 -0.0291
  304MOL0     H40982   0.990   2.826   9.983 -1.2332 -2.8111  2.7164
  304MOL0     H40983   1.173   3.004   9.929  0.0418 -0.4911 -0.5246
  304MOL0     H40984   1.012   3.080   9.954 -0.7462  0.7006  0.7688
  304MOL0     H40985   1.104   3.140  10.191  1.3870 -0.3868  1.4825
  304MOL0     H40986   1.248   3.068  10.138  0.6289  0.2204  0.1478
  304MOL0     H40987   1.112   3.309  10.003 -0.9346 -1.6558  1.1963
  304MOL0     H40988   1.259   3.242   9.940 -4.3195 -2.5111 -2.2038
  304MOL0     H40989   1.245   3.321  10.243  1.9176  3.0900  1.4437
  304MOL0     H40990   1.379   3.301  10.129  0.3485  0.3971  2.4359
  304MOL0     H40991   1.402   3.511   9.941 -0.6795  1.9087 -2.0828
  304MOL0     H40992   1.491   3.777   9.981  0.2660  3.0295 -1.6791
  304MOL0     H40993   1.338   3.845   9.919 -1.4372  1.3347  1.4835
  304MOL0     H40994   1.282   3.929  10.135  0.9441  1.4257  4.2111
  304MOL0     H40995   1.442   3.872  10.197 -2.8361 -3.5498 -1.0976
  304MOL0     H40996   1.417   4.132  10.115  1.4519 -0.3669  1.5140
  304MOL0     H40997   1.428   4.061   9.959  0.9194 -2.2538 -1.2106
  304MOL0     H40998   1.652   4.061   9.967 -0.6450  0.3053  0.2906
  304MOL0     H40999   1.635   3.944  10.095 -3.6927 -1.7430 -2.7549
  304MOL0     H41000   1.861   3.994  10.078 -0.9822  1.7258 -1.8104
  304MOL0     H41001   2.093   4.040  10.123  0.5654 -1.9336  2.8942
  304MOL0     H41002   2.423   4.351  10.164  1.0830  1.6196  1.4716
  304MOL0     H41003   2.671   4.369  10.183 -0.8613  0.8566  0.1468
  304MOL0     H41004   2.879   4.371  10.207 -0.2603  0.6735 -1.4402
  304MOL0     H41005   2.997   4.291  10.304 -0.7338 -0.6991  2.1163
  304MOL0     H41006   2.853   4.171  10.060 -1.1216  0.8062  0.5462
  304MOL0     H41007   2.999   4.286  10.043  0.7650 -1.0228  0.5491
  304MOL0     H41008   3.042   4.019  10.180 -0.0910  1.7231  1.8072
  304MOL0     H41009   3.062   4.053  10.009  2.1558  1.5311 -0.1252
  304MOL0     H41010   3.214   4.203  10.228 -0.1598  1.8996 -1.0445
  304MOL0     H41011   3.252   4.205  10.053  0.3742  0.9174  1.0693
  304MOL0     H41012   3.277   3.945  10.071  3.7795 -0.1877 -1.0522
  304MOL0     H41013   3.276   3.979  10.253  2.6405 -0.9338  0.3052
  304MOL0     H41014   3.467   4.087  10.056  0.2991  1.7841  0.2676
  304MOL0     H41015   3.441   4.134  10.222 -4.2830 -1.8202  2.3158
  304MOL0     H41016   3.532   3.850  10.121 -5.8310 -0.7701  0.9831
  304MOL0     H41017   3.508   3.886  10.288  4.7040 -1.4244  0.5392
  304MOL0     H41018   3.671   4.055  10.297  2.7950 -1.0324  2.7938
  304MOL0     H41019   3.741   3.893  10.257  0.9397 -0.2653 -1.9760
  304MOL0     H41020   2.676   3.957  10.337 -0.1975  0.2270 -0.3640
  304MOL0     H41021   2.438   3.965  10.285  0.8365 -1.1302 -1.4529
  304MOL0     H41022   1.970   4.374  10.376 -1.1783  1.0834  0.3430
  304MOL0     H41023   1.734   4.322  10.320  1.3941 -0.3807  1.8357
  304MOL0     H41024   0.485   2.530  10.315  0.9841  0.5883  1.9609
  304MOL0     H41025   0.247   2.516  10.370 -0.7661 -0.1525  0.3265
  304MOL0     H41026  -0.152   2.918  10.621  1.7020  1.1545 -1.0946
  304MOL0     H41027  -0.369   2.852  10.705 -3.3536 -3.6343  0.1653
  304MOL0     H41028  -0.658   2.597  10.764  0.1473  0.2762 -1.6935
  304MOL0     H41029  -0.516   2.682  10.825  0.3944  0.1950  1.0009
  304MOL0     H41030  -0.536   2.439  10.936  0.9898 -2.1248 -0.4792
  304MOL0     H41031  -0.389   2.477  10.857  0.4170  2.9843  0.2865
  304MOL0     H41032  -0.496   2.252  10.812 -3.0626 -0.8709  0.5817
  304MOL0     H41033  -0.466   2.341  10.659  0.1629 -0.7048  0.5855
  304MOL0     H41034  -0.706   2.400  10.667  0.8455 -0.3803 -2.2107
  304MOL0     H41035  -0.688   2.229  10.658 -0.8489 -0.2675  0.9132
  304MOL0     H41036  -0.843   2.309  11.051  2.1495  0.3205  1.0597
  304MOL0     H41037  -0.343   2.479  10.501 -3.2856  1.6118 -0.5105
  304MOL0     H41038  -0.050   2.427  10.457  1.9805  1.6395  0.2879
  304MOL0     H41039  -0.179   2.463  10.325 -2.2621  1.9043  0.9005
  304MOL0     H41040  -0.037   2.542  10.324 -0.2492 -1.5150 -1.0881
  305MOL0     O41041   8.728   3.673   9.813  0.3957 -0.6945  0.3426
  305MOL0     C41042   8.674   3.641   9.703  0.1090 -0.2178 -0.9811
  305MOL0     O41043   8.735   3.626   9.584 -0.6952  0.4297  0.8374
  305MOL0     C41044   8.867   3.639   9.575 -0.1179 -1.0610  0.3661
  305MOL0     C41045   8.951   3.556   9.639  0.2976  0.7266 -0.0447
  305MOL0     C41046   9.081   3.589   9.627  0.5271 -0.4688 -0.0861
  305MOL0     C41047   9.124   3.704   9.546  0.0469  0.9833 -0.1926
  305MOL0     O41048   9.258   3.721   9.559  0.5819 -0.0005 -0.2375
  305MOL0     C41049   9.329   3.816   9.478 -1.5881 -0.4185 -0.3250
  305MOL0     C41050   9.446   3.863   9.564 -0.1217  0.6782 -0.5345
  305MOL0     C41051   9.535   3.745   9.581  0.1104 -0.2454  0.0908
  305MOL0     C41052   9.673   3.795   9.639  0.2762  0.3385 -0.4068
  305MOL0     C41053   9.787   3.689   9.645  0.0409 -0.4922  0.3182
  305MOL0     C41054   9.923   3.757   9.685  0.1344 -1.1749 -0.0382
  305MOL0     C41055  10.044   3.656   9.677  0.7108 -0.0778 -0.4014
  305MOL0     C41056  10.181   3.725   9.678  0.6065 -0.4316 -0.2461
  305MOL0     N41057  10.211   3.789   9.805  0.0276  1.3142 -0.4241
  305MOL0     C41058  10.204   3.712   9.919 -0.9244  0.3224 -0.4612
  305MOL0     C41059  10.251   3.792  10.019  0.6781  0.4868  1.2632
  305MOL0     C41060  10.253   3.773  10.166 -0.2474 -0.4492  0.4779
  305MOL0     C41061  10.389   3.779  10.235 -0.4215  0.3919 -0.0915
  305MOL0     C41062  10.493   3.665  10.199 -0.1499  0.1274 -0.4446
  305MOL0     C41063  10.606   3.659  10.308 -0.1938  0.0788  0.3166
  305MOL0     O41064  10.660   3.783  10.350  0.0233  0.0756  0.0152
  305MOL0     C41065  10.765   3.841  10.275  0.3596  0.7016  0.1273
  305MOL0     C41066  10.820   3.780  10.166 -0.2478 -0.5480  0.6584
  305MOL0     C41067  10.913   3.857  10.086  0.7178 -0.1613  0.3012
  305MOL0     C41068  10.965   3.980  10.129 -0.0270 -0.2644  1.0033
  305MOL0     C41069  11.064   4.052  10.048 -0.3556 -0.0663  0.6579
  305MOL0     O41070  11.096   4.179  10.097  0.5252 -0.6333 -0.2549
  305MOL0     C41071  11.198   4.268  10.061 -0.3241 -0.1540  0.7323
  305MOL0     C41072  11.238   4.298   9.933  0.2030  0.4926  0.0145
  305MOL0     C41073  11.348   4.379   9.913 -0.4598  0.7409  0.5974
  305MOL0     C41074  11.417   4.439  10.018 -0.1627 -0.1804  0.0355
  305MOL0     O41075  11.525   4.508   9.971 -0.1520  0.2754  0.6996
  305MOL0     C41076  11.570   4.616  10.050 -0.1202 -0.5977  0.4077
  305MOL0     C41077  11.722   4.642  10.041 -0.2746 -0.2922  0.2420
  305MOL0     C41078  11.784   4.513  10.086  0.4249  0.4837  0.2626
  305MOL0     C41079  11.929   4.535  10.131  0.2271  0.8662 -0.4243
  305MOL0     C41080  11.938   4.621  10.255 -0.1630 -0.8768  0.3686
  305MOL0     C41081  12.071   4.610  10.317 -0.6930  0.0092  0.1306
  305MOL0     C41082  12.084   4.719  10.425  0.5300 -0.4256 -0.8165
  305MOL0     C41083  12.230   4.739  10.453  0.3272  0.7607  0.0220
  305MOL0    Cl41084  12.262   4.882  10.568  0.4256  0.0349  0.1633
  305MOL0     C41085  11.380   4.410  10.147  0.4120  0.9740  0.0972
  305MOL0     C41086  11.278   4.320  10.163  0.7952 -0.0253 -0.5444
  305MOL0     O41087  11.116   3.997   9.952 -0.3914 -0.2449  0.1083
  305MOL0     C41088  10.905   4.038  10.239  0.5434  0.2117 -1.1636
  305MOL0     C41089  10.806   3.967  10.312  0.5946 -0.5975  0.4316
  305MOL0     N41090  10.269   3.920   9.960 -0.2434  0.5401  1.1255
  305MOL0     N41091  10.243   3.916   9.833  0.2019  0.7861 -0.3736
  305MOL0     C41092   9.029   3.777   9.483 -0.8043  0.0036  1.0375
  305MOL0     C41093   8.897   3.742   9.489 -0.3032  0.6757 -1.6386
  305MOL0     C41094   8.531   3.653   9.682 -0.2754 -0.2352 -0.0962
  305MOL0     C41095   8.484   3.719   9.566  0.2259 -0.1536  0.1038
  305MOL0     C41096   8.346   3.729   9.541  0.0890 -0.0659  0.5716
  305MOL0     C41097   8.251   3.677   9.624  0.4167 -0.7154 -0.1637
  305MOL0     O41098   8.121   3.678   9.608  0.4934  0.9466 -0.3353
  305MOL0     C41099   8.063   3.785   9.525  0.5355 -0.2730 -0.5729
  305MOL0     C41100   7.912   3.782   9.524  0.5564  0.0262  0.9799
  305MOL0     C41101   7.861   3.789   9.666  0.1082 -0.3771  0.2083
  305MOL0     C41102   7.737   3.874   9.676  0.5531  0.3525  0.8570
  305MOL0     C41103   7.609   3.808   9.637 -0.0311 -1.5845 -0.7182
  305MOL0     C41104   7.506   3.752   9.617  0.2656 -0.3738 -0.3305
  305MOL0     C41105   8.297   3.610   9.732  0.2035  1.0558  0.5968
  305MOL0     C41106   8.433   3.596   9.765 -0.5227  0.0835 -0.0982
  305MOL0     C41107   8.460   3.518   9.899  0.4234  0.8020 -0.1806
  305MOL0     H41108   8.927   3.470   9.701  0.7097 -0.8617 -2.0040
  305MOL0     H41109   9.146   3.530   9.690  0.1173  0.4473  1.2396
  305MOL0     H41110   9.359   3.784   9.378 -0.0135  1.3559 -0.4706
  305MOL0     H41111   9.263   3.901   9.461  0.7307  0.9356 -3.5620
  305MOL0     H41112   9.413   3.901   9.661  1.4132  1.5770 -0.3287
  305MOL0     H41113   9.501   3.945   9.518  0.6136  0.3750 -0.2103
  305MOL0     H41114   9.549   3.688   9.488 -1.8867 -3.4148  1.5541
  305MOL0     H41115   9.488   3.677   9.652  0.3836 -2.0843 -1.3860
  305MOL0     H41116   9.706   3.873   9.569  0.4569 -0.0718 -0.7807
  305MOL0     H41117   9.666   3.842   9.737  0.6052 -2.2693  0.9528
  305MOL0     H41118   9.760   3.602   9.706  0.8455 -1.8036 -1.1326
  305MOL0     H41119   9.806   3.653   9.543  0.6114 -0.7772  0.5219
  305MOL0     H41120   9.936   3.846   9.622 -0.7145 -0.2537  1.0459
  305MOL0     H41121   9.910   3.793   9.787 -3.1165  0.3886 -0.8869
  305MOL0     H41122  10.042   3.597   9.585 -1.0914 -3.7195  1.7546
  305MOL0     H41123  10.029   3.581   9.755  1.0470 -1.8606 -1.9638
  305MOL0     H41124  10.251   3.642   9.669  1.6563  0.5696 -1.8378
  305MOL0     H41125  10.186   3.794   9.593  0.5706  1.3520  1.1222
  305MOL0     H41126  10.161   3.613   9.928 -0.2320 -0.1692 -2.2090
  305MOL0     H41127  10.202   3.865  10.195  1.2011  0.1500  1.2187
  305MOL0     H41128  10.206   3.677  10.189 -2.2091  0.4408  0.4535
  305MOL0     H41129  10.436   3.875  10.209  2.4828 -1.1826 -1.0885
  305MOL0     H41130  10.354   3.769  10.338 -1.5172 -3.3795 -0.6816
  305MOL0     H41131  10.523   3.687  10.096 -2.7233  0.0893 -1.2800
  305MOL0     H41132  10.443   3.567  10.199 -0.6554  0.3692  1.1508
  305MOL0     H41133  10.685   3.589  10.279  1.5582  2.8334 -2.1011
  305MOL0     H41134  10.556   3.608  10.391  0.7173 -0.9695  0.2440
  305MOL0     H41135  10.776   3.692  10.122 -1.5634  0.8257 -0.9215
  305MOL0     H41136  10.939   3.829   9.984 -3.5936  0.5822 -1.2088
  305MOL0     H41137  11.170   4.261   9.857 -0.7200  1.9701  0.0834
  305MOL0     H41138  11.371   4.401   9.809 -0.9881  2.6437  0.8402
  305MOL0     H41139  11.504   4.691  10.005 -1.1903 -0.9988  1.2569
  305MOL0     H41140  11.542   4.614  10.156 -2.8379  1.2717 -0.1614
  305MOL0     H41141  11.753   4.677   9.942  1.0423 -0.7418  0.4669
  305MOL0     H41142  11.752   4.727  10.102  3.5080 -0.7779 -0.6689
  305MOL0     H41143  11.728   4.467  10.168  0.2344 -0.3381 -0.3163
  305MOL0     H41144  11.789   4.436  10.009  3.2285 -0.2924  1.0994
  305MOL0     H41145  11.987   4.574  10.046  0.7013 -1.5787 -1.2901
  305MOL0     H41146  11.980   4.439  10.143  0.7273  1.0646 -0.8970
  305MOL0     H41147  11.867   4.597  10.335 -1.2725 -0.1834 -0.3833
  305MOL0     H41148  11.912   4.722  10.221 -1.8131 -2.2312 -2.8087
  305MOL0     H41149  12.100   4.512  10.356 -1.8659  0.7718  3.3031
  305MOL0     H41150  12.140   4.621  10.233 -3.5243  1.9314 -2.1457
  305MOL0     H41151  12.037   4.683  10.517 -3.3103 -3.7864 -3.6801
  305MOL0     H41152  12.037   4.814  10.398 -2.4872 -1.7248 -0.5927
  305MOL0     H41153  12.270   4.647  10.497  0.8252  0.9959  0.0748
  305MOL0     H41154  12.289   4.754  10.362  1.4011 -0.2036  0.5359
  305MOL0     H41155  11.441   4.455  10.226 -1.5986  2.7978  0.7058
  305MOL0     H41156  11.251   4.276  10.258  0.6042  0.1677 -0.5072
  305MOL0     H41157  10.927   4.133  10.286 -1.6539 -0.9533  2.6353
  305MOL0     H41158  10.760   4.022  10.393 -0.1410  0.7691 -0.8686
  305MOL0     H41159   9.046   3.867   9.425 -0.2973  0.0328  1.2225
  305MOL0     H41160   8.816   3.801   9.449 -0.6970  1.3100  0.0498
  305MOL0     H41161   8.552   3.766   9.495 -1.3833  1.1047 -0.6594
  305MOL0     H41162   8.323   3.786   9.452 -2.7311 -1.3427  0.3993
  305MOL0     H41163   8.098   3.779   9.422  0.6526  1.5469 -0.6655
  305MOL0     H41164   8.092   3.880   9.571 -0.1960 -0.6269  0.6723
  305MOL0     H41165   7.889   3.682   9.486  0.9420  1.1386 -2.5359
  305MOL0     H41166   7.870   3.863   9.463  1.1311  0.9389  1.7698
  305MOL0     H41167   7.936   3.841   9.726 -1.7232 -1.4858  3.7552
  305MOL0     H41168   7.854   3.687   9.705 -0.3242 -0.4016  0.0622
  305MOL0     H41169   7.719   3.909   9.778 -0.3094 -2.4601  1.7667
  305MOL0     H41170   7.744   3.968   9.620  0.7142 -0.4073 -0.4335
  305MOL0     H41171   7.413   3.704   9.595 -1.1238  1.3961  1.4333
  305MOL0     H41172   8.224   3.557   9.793 -1.1774  0.3641 -1.5668
  305MOL0     H41173   8.555   3.464   9.889 -0.8324 -1.1375 -2.5686
  305MOL0     H41174   8.459   3.587   9.984 -1.2247 -1.6702  1.9915
  305MOL0     H41175   8.380   3.445   9.914  1.1359 -0.2904 -1.5202
  306MOL0     O41176   9.010   5.742   3.456 -1.5482 -0.8390 -0.2174
  306MOL0     C41177   8.917   5.690   3.504  0.9307  0.8465  1.1502
  306MOL0     O41178   8.875   5.562   3.479 -0.3579 -0.0657 -0.2266
  306MOL0     C41179   8.949   5.473   3.408  0.4471  0.2568  0.1218
  306MOL0     C41180   9.096   5.462   3.412 -0.9604 -0.4406 -0.3341
  306MOL0     C41181   9.156   5.371   3.328  0.0279  0.5278  0.7398
  306MOL0     C41182   9.086   5.285   3.244 -0.1492  0.1811  0.1028
  306MOL0     O41183   9.168   5.196   3.177  0.3753  0.4712  0.1725
  306MOL0     C41184   9.106   5.089   3.099 -0.0377  0.8079 -0.1026
  306MOL0     C41185   9.211   4.976   3.096 -0.2671  0.0533  0.0882
  306MOL0     C41186   9.240   4.920   3.228  0.0570  0.2138 -0.2926
  306MOL0     C41187   9.137   4.814   3.271  0.6514 -0.0683 -0.3394
  306MOL0     C41188   9.136   4.802   3.425 -0.4493 -0.3157 -0.1904
  306MOL0     C41189   9.025   4.721   3.484 -0.8183 -0.3179 -0.1606
  306MOL0     C41190   9.084   4.599   3.548 -0.5847 -0.5463  0.3210
  306MOL0     C41191   8.982   4.501   3.599  0.2915 -0.3593 -1.0657
  306MOL0     N41192   8.906   4.557   3.715  0.9389 -0.1124 -0.4560
  306MOL0     C41193   8.957   4.627   3.825  0.1509 -0.8816  0.6032
  306MOL0     C41194   8.845   4.651   3.894  0.9281  1.1513 -0.6534
  306MOL0     C41195   8.853   4.723   4.028  0.2986  0.7184  0.5819
  306MOL0     C41196   8.836   4.876   4.004 -0.5143  0.1451 -0.3867
  306MOL0     C41197   8.714   4.907   3.911 -0.4797 -0.1937 -0.6085
  306MOL0     C41198   8.575   4.895   3.974  0.1727  0.5007  0.1729
  306MOL0     O41199   8.569   4.980   4.094  0.3135  0.9007 -0.0502
  306MOL0     C41200   8.447   4.975   4.166  0.3975 -0.0482  0.4948
  306MOL0     C41201   8.339   4.900   4.141 -0.1081  0.8243 -0.0763
  306MOL0     C41202   8.218   4.909   4.208 -0.1864  0.7025  0.6531
  306MOL0     C41203   8.195   5.014   4.295 -0.8910  0.3991 -1.0670
  306MOL0     C41204   8.068   5.028   4.374 -0.0513 -0.1624  0.0988
  306MOL0     O41205   8.067   5.136   4.463 -0.0287  0.1503 -0.2304
  306MOL0     C41206   7.970   5.158   4.550  0.6174  0.5651 -1.1352
  306MOL0     C41207   7.950   5.296   4.578 -0.6370 -0.2753 -0.0004
  306MOL0     C41208   7.855   5.333   4.671  0.8017 -0.5524 -0.6573
  306MOL0     C41209   7.779   5.238   4.728 -0.4341 -0.0691 -0.1682
  306MOL0     O41210   7.688   5.278   4.821 -0.4454 -0.8589 -0.1124
  306MOL0     C41211   7.549   5.277   4.791 -0.1016  0.3786  0.3821
  306MOL0     C41212   7.477   5.307   4.918 -0.0217 -0.8002 -0.2532
  306MOL0     C41213   7.441   5.464   4.925 -0.0155  0.2764 -0.4764
  306MOL0     C41214   7.338   5.513   5.026 -0.4546 -0.0012 -0.6710
  306MOL0     C41215   7.405   5.495   5.161 -0.1030 -0.0133 -0.4192
  306MOL0     C41216   7.348   5.595   5.264  0.3758 -0.3743 -0.0106
  306MOL0     C41217   7.420   5.590   5.392 -0.0028  0.8552 -0.1694
  306MOL0     C41218   7.393   5.705   5.486 -0.6560 -0.0057 -0.4751
  306MOL0    Cl41219   7.446   5.657   5.644 -0.0877  0.0974 -0.1173
  306MOL0     C41220   7.785   5.104   4.691  0.3087 -0.3897 -0.0948
  306MOL0     C41221   7.895   5.060   4.615 -0.9043 -0.4709 -0.4465
  306MOL0     O41222   7.981   4.947   4.351 -0.2998  0.0220 -0.0250
  306MOL0     C41223   8.304   5.103   4.321  0.3148 -0.2725  0.8272
  306MOL0     C41224   8.426   5.087   4.258 -0.6438  0.0794  0.7477
  306MOL0     N41225   8.735   4.591   3.835 -0.3080 -0.5413  0.7301
  306MOL0     N41226   8.773   4.549   3.721  0.0432 -0.4113 -0.5772
  306MOL0     C41227   8.952   5.293   3.238 -0.7604 -0.1966 -0.5759
  306MOL0     C41228   8.882   5.387   3.312  0.3115 -0.1989 -0.1599
  306MOL0     C41229   8.854   5.764   3.616  0.6121 -0.1325  0.4424
  306MOL0     C41230   8.715   5.772   3.621 -0.3206 -1.0355  0.7711
  306MOL0     C41231   8.647   5.823   3.734 -0.0053  0.2641 -0.0466
  306MOL0     C41232   8.713   5.869   3.849  0.0286  0.1374  0.3380
  306MOL0     O41233   8.665   5.918   3.967  0.8736 -0.0394  1.0601
  306MOL0     C41234   8.523   5.933   3.989  0.4624 -0.2840 -0.2840
  306MOL0     C41235   8.474   6.061   3.950  0.3290 -0.0570  0.7278
  306MOL0     C41236   8.505   6.161   4.064 -0.0468 -0.3487 -0.9299
  306MOL0     C41237   8.559   6.286   4.001 -1.3946  0.1320 -0.6806
  306MOL0     C41238   8.493   6.337   3.884 -0.1867 -0.5411 -0.2570
  306MOL0     C41239   8.434   6.377   3.788  0.5599  0.7861 -0.5616
  306MOL0     C41240   8.852   5.859   3.841  0.0609 -0.1774  0.7743
  306MOL0     C41241   8.927   5.805   3.732 -0.1109 -0.4145 -0.4236
  306MOL0     C41242   9.073   5.788   3.744  0.1811  0.2705  1.0172
  306MOL0     H41243   9.142   5.537   3.476  0.6869 -1.5261 -0.2008
  306MOL0     H41244   9.264   5.365   3.339  0.6057  1.3619 -3.1192
  306MOL0     H41245   9.031   5.040   3.162  1.6816 -0.7028  0.8453
  306MOL0     H41246   9.066   5.115   3.000  2.7442  0.0455 -1.5247
  306MOL0     H41247   9.300   5.030   3.063  0.0214  0.9488  2.1379
  306MOL0     H41248   9.181   4.891   3.034 -2.9270  0.9660 -0.0282
  306MOL0     H41249   9.257   5.003   3.297  0.4326 -1.5723  1.8971
  306MOL0     H41250   9.334   4.864   3.234 -0.0516  0.1062  0.5342
  306MOL0     H41251   9.032   4.826   3.241  0.1722 -1.1704  0.7875
  306MOL0     H41252   9.162   4.716   3.229  0.5575  0.2406 -1.1325
  306MOL0     H41253   9.236   4.774   3.459  0.1957  1.2734 -0.6954
  306MOL0     H41254   9.125   4.904   3.464 -1.3231 -0.5057  0.0852
  306MOL0     H41255   8.970   4.779   3.559  1.0488  1.5668 -0.1432
  306MOL0     H41256   8.952   4.693   3.408 -0.8305 -2.5967  0.6139
  306MOL0     H41257   9.157   4.622   3.626  0.1655 -1.3621 -0.1116
  306MOL0     H41258   9.155   4.551   3.480  1.9832  0.7549  1.9268
  306MOL0     H41259   8.912   4.471   3.520 -2.3291  4.5887 -1.0456
  306MOL0     H41260   9.030   4.408   3.630 -2.3454 -0.9466  1.6961
  306MOL0     H41261   9.061   4.647   3.848  0.6139 -1.9205 -0.4878
  306MOL0     H41262   8.780   4.692   4.103  2.0471 -0.1435  2.0119
  306MOL0     H41263   8.952   4.706   4.072  0.2005 -1.5276  0.0720
  306MOL0     H41264   8.835   4.942   4.091 -2.3591 -0.2863 -0.0459
  306MOL0     H41265   8.926   4.891   3.942 -0.4743 -0.1796 -0.4116
  306MOL0     H41266   8.722   4.862   3.811  1.5971  0.8055 -0.9486
  306MOL0     H41267   8.732   5.009   3.874 -0.4917 -0.4834 -1.4385
  306MOL0     H41268   8.573   4.790   4.003  1.6643  1.0475  2.4798
  306MOL0     H41269   8.499   4.922   3.900  1.7374 -1.2392 -2.2527
  306MOL0     H41270   8.343   4.818   4.070 -2.2407 -0.6247  1.3285
  306MOL0     H41271   8.146   4.831   4.185  1.5567 -1.0695  0.8937
  306MOL0     H41272   8.010   5.367   4.522 -1.5413  0.2439 -0.3450
  306MOL0     H41273   7.850   5.435   4.707 -0.0687 -0.0193 -2.1696
  306MOL0     H41274   7.528   5.349   4.712 -3.6785 -0.6567  0.2153
  306MOL0     H41275   7.527   5.176   4.755  0.5591 -0.2410  1.6437
  306MOL0     H41276   7.373   5.271   4.919 -0.8912  1.4676  2.1827
  306MOL0     H41277   7.532   5.272   5.005 -0.9416 -0.0422  0.6664
  306MOL0     H41278   7.531   5.526   4.923  0.2105 -0.0623 -1.6090
  306MOL0     H41279   7.388   5.486   4.831  0.9154 -1.2928 -1.4208
  306MOL0     H41280   7.240   5.465   5.026 -1.4548  1.8794  0.8942
  306MOL0     H41281   7.314   5.619   5.010  0.8059 -0.0376 -3.2847
  306MOL0     H41282   7.510   5.523   5.151 -0.0211  0.3261  1.1425
  306MOL0     H41283   7.399   5.394   5.203 -1.6067  0.7206  1.2509
  306MOL0     H41284   7.357   5.702   5.245 -1.4961 -0.1131  0.4187
  306MOL0     H41285   7.243   5.581   5.288 -0.2082  2.4110 -0.5969
  306MOL0     H41286   7.527   5.585   5.373  1.0137 -1.3175  4.5593
  306MOL0     H41287   7.386   5.501   5.447  0.3116  0.5819 -0.4172
  306MOL0     H41288   7.455   5.787   5.447 -0.9426  0.1191 -0.6705
  306MOL0     H41289   7.291   5.738   5.506 -0.7240  0.3237 -1.3091
  306MOL0     H41290   7.721   5.032   4.742 -0.7724 -0.0638 -0.9475
  306MOL0     H41291   7.889   4.953   4.599 -2.0286 -0.6875  1.1824
  306MOL0     H41292   8.297   5.181   4.396 -0.1996 -0.9780  1.5324
  306MOL0     H41293   8.505   5.161   4.269 -3.2924  2.9984  1.6939
  306MOL0     H41294   8.902   5.228   3.167  1.4034 -1.0774 -1.3828
  306MOL0     H41295   8.774   5.377   3.306 -0.1575  3.8114 -1.2745
  306MOL0     H41296   8.656   5.732   3.539 -1.2146 -1.3890  1.5648
  306MOL0     H41297   8.539   5.817   3.739  0.1174 -2.3214  1.0703
  306MOL0     H41298   8.509   5.916   4.096 -1.1408 -0.5822 -0.5223
  306MOL0     H41299   8.461   5.856   3.942 -0.7204  0.2085  0.4204
  306MOL0     H41300   8.364   6.056   3.948  0.3028  0.0109  1.5758
  306MOL0     H41301   8.498   6.092   3.848 -0.8524  0.8588  0.6977
  306MOL0     H41302   8.572   6.117   4.138  0.4650  0.4660 -0.8894
  306MOL0     H41303   8.410   6.179   4.115  0.3049 -0.6472 -0.1576
  306MOL0     H41304   8.552   6.366   4.075 -1.1029 -1.2995  0.9564
  306MOL0     H41305   8.663   6.260   3.981 -1.4020 -0.3120 -0.1601
  306MOL0     H41306   8.385   6.411   3.699  2.9238  2.0593 -1.4658
  306MOL0     H41307   8.905   5.896   3.929 -1.5344  0.8266  1.3466
  306MOL0     H41308   9.107   5.821   3.843 -1.2787 -2.4265  2.5334
  306MOL0     H41309   9.106   5.691   3.706 -0.6515  0.0716  0.7934
  306MOL0     H41310   9.120   5.853   3.669 -2.7318  2.2358  0.7366
  307MOL0     O41311   3.826   1.627   1.442 -0.3402 -0.2448  0.0395
  307MOL0     C41312   3.759   1.613   1.540  0.0850  0.2265 -1.3066
  307MOL0     O41313   3.638   1.551   1.546  0.1576  0.3268  0.8013
  307MOL0     C41314   3.590   1.472   1.442 -0.0905 -0.6496 -0.2201
  307MOL0     C41315   3.460   1.500   1.390 -0.1286 -0.2392  0.1938
  307MOL0     C41316   3.407   1.432   1.273 -0.8053  0.9596  0.5171
  307MOL0     C41317   3.490   1.337   1.207 -0.1735 -0.1641  0.5501
  307MOL0     O41318   3.458   1.263   1.091  1.1805 -0.3754 -0.1225
  307MOL0     C41319   3.368   1.320   0.993  0.1214 -0.3897 -1.2478
  307MOL0     C41320   3.244   1.231   0.984  0.3685 -0.1879 -0.0679
  307MOL0     C41321   3.275   1.077   0.969 -0.2624 -0.0296  0.1464
  307MOL0     C41322   3.360   1.038   0.845 -0.8154 -0.4397 -0.3486
  307MOL0     C41323   3.409   0.904   0.843  0.0634  0.4398  0.6341
  307MOL0     C41324   3.443   0.877   0.692  0.0106  0.0050  1.0615
  307MOL0     C41325   3.486   0.735   0.672  1.1261  0.4424 -0.2879
  307MOL0     C41326   3.465   0.691   0.523 -0.2316  0.3495  0.1993
  307MOL0     N41327   3.520   0.795   0.433  0.6522 -0.7959  0.4710
  307MOL0     C41328   3.644   0.799   0.372 -0.5324  0.1290  0.8918
  307MOL0     C41329   3.632   0.907   0.288 -0.8231  0.3160  0.7953
  307MOL0     C41330   3.729   0.964   0.195 -0.8654 -0.1041 -0.3271
  307MOL0     C41331   3.858   0.999   0.277 -0.4830  0.5863 -0.3903
  307MOL0     C41332   3.961   1.067   0.190  0.9321  0.5624 -0.0643
  307MOL0     C41333   3.906   1.187   0.101  0.8664  0.1288 -0.4714
  307MOL0     O41334   4.018   1.258   0.050 -0.6008  0.7475  0.0910
  307MOL0     C41335   4.102   1.330   0.130  0.4480 -0.1792  0.2257
  307MOL0     C41336   4.088   1.351   0.265  0.3882  0.4389 -0.2187
  307MOL0     C41337   4.186   1.422   0.341 -0.1372 -0.0689 -0.5058
  307MOL0     C41338   4.306   1.459   0.279  0.4631  0.4855 -0.6146
  307MOL0     C41339   4.401   1.550   0.356 -0.6436  0.2815  0.1405
  307MOL0     O41340   4.516   1.581   0.295  0.0248 -0.2601 -0.2098
  307MOL0     C41341   4.608   1.674   0.343 -0.5943 -0.1657  0.3795
  307MOL0     C41342   4.561   1.814   0.352 -0.8940  0.8073 -0.7389
  307MOL0     C41343   4.660   1.914   0.380 -0.5587  0.6398 -0.2925
  307MOL0     C41344   4.796   1.875   0.396  0.0322  0.1781  0.2555
  307MOL0     O41345   4.893   1.968   0.413 -0.0728 -0.5665  0.1308
  307MOL0     C41346   4.954   2.008   0.286 -0.0311  0.2527  1.1882
  307MOL0     C41347   5.066   2.112   0.302 -0.1287  1.1323 -1.2972
  307MOL0     C41348   5.023   2.246   0.362  0.0626 -0.5047  1.2567
  307MOL0     C41349   5.131   2.358   0.348 -0.0884 -0.4219 -0.1742
  307MOL0     C41350   5.123   2.441   0.222  0.3373 -0.4723  0.4614
  307MOL0     C41351   5.229   2.552   0.201  0.5550 -0.8765 -0.3588
  307MOL0     C41352   5.355   2.500   0.138  0.1796  0.0796  0.1153
  307MOL0     C41353   5.460   2.609   0.127  0.4360 -0.3457 -0.3360
  307MOL0    Cl41354   5.550   2.658   0.273  0.0508  0.2538 -0.0897
  307MOL0     C41355   4.836   1.749   0.392  0.2099  0.1609 -0.4323
  307MOL0     C41356   4.744   1.644   0.363 -0.4803 -0.3159  0.3525
  307MOL0     O41357   4.386   1.574   0.477 -0.2812  0.2305 -1.0610
  307MOL0     C41358   4.323   1.428   0.143 -0.4022  1.0201 -0.2465
  307MOL0     C41359   4.222   1.363   0.078  0.6004  0.3876  0.1103
  307MOL0     N41360   3.509   0.967   0.311  0.4910 -0.7955 -0.0470
  307MOL0     N41361   3.441   0.902   0.393  0.0882 -0.9148  0.5630
  307MOL0     C41362   3.611   1.307   1.271 -0.1426  0.4483  0.1653
  307MOL0     C41363   3.669   1.378   1.380  0.4747  0.9236  0.3795
  307MOL0     C41364   3.801   1.665   1.678 -0.1057 -0.8020 -0.4154
  307MOL0     C41365   3.726   1.632   1.789  1.0723 -0.3343  0.3385
  307MOL0     C41366   3.751   1.668   1.915  0.0639  0.3650  0.2136
  307MOL0     C41367   3.872   1.724   1.946  0.4730 -0.7661  0.1023
  307MOL0     O41368   3.900   1.760   2.077 -0.1403  0.4656 -0.2911
  307MOL0     C41369   3.952   1.647   2.149  0.8295  0.0617  0.1431
  307MOL0     C41370   4.008   1.667   2.287 -0.3192  0.9253  0.6954
  307MOL0     C41371   4.066   1.527   2.340 -0.1824 -0.7833  0.5716
  307MOL0     C41372   3.956   1.432   2.387 -0.4634  0.3966  0.0320
  307MOL0     C41373   3.878   1.474   2.507  0.3502  0.2328 -0.2264
  307MOL0     C41374   3.813   1.506   2.603 -0.6262  0.2214  0.4532
  307MOL0     C41375   3.954   1.755   1.842  0.6489 -0.1296 -0.6164
  307MOL0     C41376   3.924   1.729   1.706  0.0361 -0.1525 -0.5842
  307MOL0     C41377   4.025   1.754   1.595  0.3462  0.6389 -0.6636
  307MOL0     H41378   3.401   1.578   1.436 -1.9015 -0.1720 -2.0253
  307MOL0     H41379   3.300   1.442   1.253 -0.7499 -0.0838 -0.3473
  307MOL0     H41380   3.339   1.423   1.016  0.2592  0.2131 -3.5131
  307MOL0     H41381   3.414   1.318   0.894  1.0711  1.1797 -0.8946
  307MOL0     H41382   3.185   1.267   0.900 -3.1881  2.0154  3.0436
  307MOL0     H41383   3.184   1.241   1.075  1.7657 -0.6042  0.9424
  307MOL0     H41384   3.182   1.022   0.956  0.5450 -1.3751 -0.1438
  307MOL0     H41385   3.314   1.031   1.061 -0.1049  0.6868  0.4484
  307MOL0     H41386   3.313   1.082   0.756  0.9960  0.4777 -0.9030
  307MOL0     H41387   3.447   1.105   0.844 -0.4109 -0.9664 -0.7613
  307MOL0     H41388   3.496   0.892   0.907  0.3622  3.5982  0.9799
  307MOL0     H41389   3.332   0.831   0.870  2.9154 -1.4451  4.4444
  307MOL0     H41390   3.354   0.905   0.635  0.5567  3.7940  1.8019
  307MOL0     H41391   3.524   0.944   0.660  0.0655  0.5369  2.2555
  307MOL0     H41392   3.425   0.676   0.739  1.2251  0.0526 -0.5391
  307MOL0     H41393   3.590   0.726   0.707  0.3260  0.2982  2.2308
  307MOL0     H41394   3.517   0.596   0.507  3.2363  2.3753 -2.0748
  307MOL0     H41395   3.357   0.679   0.520 -0.3942  1.5860  0.3586
  307MOL0     H41396   3.720   0.722   0.367 -0.9694 -0.2346 -2.3001
  307MOL0     H41397   3.744   0.891   0.115  0.7391  1.0895 -1.1792
  307MOL0     H41398   3.683   1.056   0.160 -0.3847  0.8161  1.3378
  307MOL0     H41399   3.832   1.056   0.366  0.8863 -0.2796  0.6215
  307MOL0     H41400   3.892   0.904   0.319 -0.5959  1.4326  1.6983
  307MOL0     H41401   4.009   0.991   0.128  0.7954  1.3187 -1.1157
  307MOL0     H41402   4.042   1.109   0.251  2.0693  0.5869 -1.5242
  307MOL0     H41403   3.854   1.263   0.160  1.8747  0.5674 -0.1165
  307MOL0     H41404   3.838   1.155   0.022  0.0014 -2.3142  1.1406
  307MOL0     H41405   3.995   1.320   0.312  0.3755 -0.7413 -0.9992
  307MOL0     H41406   4.158   1.463   0.438  0.8963  2.4302 -1.1717
  307MOL0     H41407   4.457   1.844   0.337 -3.2046 -3.0169  4.6626
  307MOL0     H41408   4.640   2.020   0.382 -0.2813  0.7030 -0.6838
  307MOL0     H41409   4.995   1.922   0.232  1.2970  2.4086 -1.4612
  307MOL0     H41410   4.869   2.049   0.231 -0.7614 -2.1108  0.4159
  307MOL0     H41411   5.144   2.072   0.367  0.1448  1.7801 -1.2170
  307MOL0     H41412   5.113   2.130   0.205  1.7822 -0.2234 -0.6802
  307MOL0     H41413   4.934   2.278   0.308  1.2859 -1.6363 -1.6393
  307MOL0     H41414   5.004   2.233   0.469  2.8452 -0.8874  1.7763
  307MOL0     H41415   5.229   2.312   0.365 -0.7738 -2.1393 -0.6438
  307MOL0     H41416   5.115   2.429   0.430 -0.7854  0.0658 -0.7133
  307MOL0     H41417   5.021   2.477   0.204 -0.0796 -1.4733  0.7504
  307MOL0     H41418   5.142   2.375   0.137  0.4655 -0.6723  0.6466
  307MOL0     H41419   5.184   2.634   0.142  0.2113 -0.2475  0.7546
  307MOL0     H41420   5.249   2.590   0.301  0.1506 -2.4424  0.3355
  307MOL0     H41421   5.324   2.458   0.041 -0.0270  2.0836 -0.7314
  307MOL0     H41422   5.410   2.439   0.210  2.1229  3.0990  1.3774
  307MOL0     H41423   5.547   2.570   0.073  1.8665 -0.2853  1.7732
  307MOL0     H41424   5.420   2.696   0.075  0.4907  1.2738  2.1589
  307MOL0     H41425   4.943   1.727   0.387  0.2233  0.4282 -1.4230
  307MOL0     H41426   4.780   1.546   0.332  2.0171  1.0781 -1.5039
  307MOL0     H41427   4.415   1.457   0.094 -0.5848 -0.4923 -1.5336
  307MOL0     H41428   4.250   1.325  -0.020  1.1602 -2.7070  1.3595
  307MOL0     H41429   3.673   1.226   1.233 -2.2033 -1.2648  0.2413
  307MOL0     H41430   3.767   1.350   1.417  0.6061 -1.3706 -1.4660
  307MOL0     H41431   3.634   1.574   1.785  1.3723 -0.8972  1.3015
  307MOL0     H41432   3.672   1.657   1.990  2.6052  0.0098  3.0134
  307MOL0     H41433   4.020   1.586   2.090 -0.2428  0.4285 -1.5493
  307MOL0     H41434   3.867   1.579   2.149  2.8531 -2.6016 -0.2003
  307MOL0     H41435   3.926   1.691   2.356  0.3550 -3.7759  3.5488
  307MOL0     H41436   4.088   1.742   2.290  2.7170 -2.1274  2.2326
  307MOL0     H41437   4.136   1.551   2.420  0.1347 -0.3241  0.1642
  307MOL0     H41438   4.125   1.481   2.260 -1.1750 -2.3024  0.6602
  307MOL0     H41439   3.884   1.401   2.311  0.1058 -2.3308  0.4796
  307MOL0     H41440   4.008   1.338   2.410  1.5067  0.3267 -3.9460
  307MOL0     H41441   3.742   1.513   2.683 -0.5856  1.9571  0.3575
  307MOL0     H41442   4.045   1.803   1.877  0.1519 -0.3618  1.0957
  307MOL0     H41443   3.983   1.813   1.513 -0.6472 -0.4525 -0.9711
  307MOL0     H41444   4.103   1.814   1.643 -0.0248  1.1900 -0.7409
  307MOL0     H41445   4.072   1.659   1.565  1.4595 -0.5109  3.9891
  308MOL0     O41446  10.389   8.764   7.257  0.0656  0.1391 -0.5494
  308MOL0     C41447  10.369   8.846   7.345  0.4101  0.7954  0.8199
  308MOL0     O41448  10.461   8.888   7.449 -0.4957  0.3347 -0.1334
  308MOL0     C41449  10.586   8.836   7.476 -0.0402 -0.5075  0.3452
  308MOL0     C41450  10.638   8.860   7.601  0.5431  0.9025  0.0310
  308MOL0     C41451  10.763   8.821   7.640 -0.7286  0.0517 -0.2006
  308MOL0     C41452  10.850   8.758   7.552 -0.6613 -0.1260  0.9359
  308MOL0     O41453  10.965   8.712   7.614  0.4727 -0.2402  0.1890
  308MOL0     C41454  11.045   8.620   7.543  0.7548 -0.3399  0.6708
  308MOL0     C41455  11.135   8.547   7.644 -0.0273  0.0894  0.6906
  308MOL0     C41456  11.229   8.651   7.710 -0.1241  0.6948 -0.2941
  308MOL0     C41457  11.361   8.671   7.625 -0.2760 -0.4654 -0.9904
  308MOL0     C41458  11.471   8.716   7.729  0.1587 -0.4380  0.1855
  308MOL0     C41459  11.545   8.585   7.784  0.4665  0.2685 -0.2082
  308MOL0     C41460  11.600   8.608   7.918 -0.1178 -0.2540 -0.4085
  308MOL0     C41461  11.612   8.473   7.994  0.0540  1.0459 -0.5404
  308MOL0     N41462  11.693   8.480   8.117 -0.4826 -0.0072  0.5210
  308MOL0     C41463  11.798   8.392   8.158  0.6455  0.0351  0.4750
  308MOL0     C41464  11.796   8.415   8.292  0.1798  0.2969 -0.7410
  308MOL0     C41465  11.870   8.321   8.384  0.3885  0.3710  0.2396
  308MOL0     C41466  12.010   8.368   8.379  0.4402  0.0512  1.1152
  308MOL0     C41467  12.036   8.491   8.465 -0.0344 -0.1445  0.3124
  308MOL0     C41468  12.159   8.564   8.413 -0.1444 -0.0547 -0.4182
  308MOL0     O41469  12.258   8.475   8.359  0.3840 -0.2918 -0.1270
  308MOL0     C41470  12.392   8.504   8.390  0.1062  0.4695  0.0059
  308MOL0     C41471  12.446   8.603   8.473 -0.7114  0.5421 -0.6750
  308MOL0     C41472  12.575   8.599   8.516  0.5022 -1.8540 -0.8929
  308MOL0     C41473  12.663   8.503   8.481 -0.5446 -0.3410  0.4855
  308MOL0     C41474  12.797   8.509   8.540 -1.1585  1.2410 -0.2696
  308MOL0     O41475  12.863   8.393   8.562 -0.1594 -0.3985  0.2253
  308MOL0     C41476  12.984   8.380   8.626 -0.6132 -0.6602 -1.1277
  308MOL0     C41477  13.015   8.440   8.748  0.5197  0.9176 -0.6499
  308MOL0     C41478  13.143   8.423   8.802 -0.6671  0.1825 -0.0854
  308MOL0     C41479  13.240   8.344   8.742  0.0918  0.2976 -1.0396
  308MOL0     O41480  13.360   8.320   8.806  0.3974 -0.8071 -0.1622
  308MOL0     C41481  13.355   8.254   8.929 -0.1202 -0.2997 -0.4270
  308MOL0     C41482  13.473   8.156   8.927 -0.7363 -0.1854 -0.1432
  308MOL0     C41483  13.466   8.052   8.815 -0.2738  0.1000  0.1267
  308MOL0     C41484  13.606   7.993   8.802 -0.6836 -0.1568 -0.3112
  308MOL0     C41485  13.617   7.881   8.692 -1.1721  0.9858 -0.5296
  308MOL0     C41486  13.759   7.821   8.685  0.1201 -1.2297  0.2765
  308MOL0     C41487  13.780   7.745   8.562  0.1718  0.3615  0.3688
  308MOL0     C41488  13.904   7.668   8.556 -0.8536 -0.4963 -0.6292
  308MOL0    Cl41489  14.055   7.749   8.585  0.1526 -0.0850  0.1627
  308MOL0     C41490  13.203   8.278   8.628  0.3744 -0.0794 -0.5955
  308MOL0     C41491  13.080   8.297   8.567 -1.0804 -0.0243  0.6699
  308MOL0     O41492  12.847   8.622   8.575 -0.3376  0.4134 -0.1872
  308MOL0     C41493  12.617   8.404   8.398 -0.3431 -0.1519  0.7122
  308MOL0     C41494  12.482   8.400   8.359  0.3562  0.2069 -0.2218
  308MOL0     N41495  11.703   8.500   8.339  0.1603  0.6353 -0.4057
  308MOL0     N41496  11.651   8.549   8.229  0.1401 -0.0824 -0.3858
  308MOL0     C41497  10.807   8.741   7.417  0.6363 -0.2055  0.5050
  308MOL0     C41498  10.669   8.767   7.381  0.1493 -0.0011  0.4699
  308MOL0     C41499  10.243   8.926   7.340  0.6313  0.3356  0.2122
  308MOL0     C41500  10.123   8.852   7.313 -0.1214  0.1545 -0.1241
  308MOL0     C41501   9.993   8.918   7.301 -0.1983 -0.9522 -0.0238
  308MOL0     C41502   9.982   9.054   7.317  0.6354 -0.1684 -0.6127
  308MOL0     O41503   9.851   9.100   7.306 -0.0346  0.1988  0.2363
  308MOL0     C41504   9.840   9.240   7.326  0.5981 -0.1208 -0.2946
  308MOL0     C41505   9.702   9.297   7.301 -1.0009  0.2431  0.3291
  308MOL0     C41506   9.591   9.224   7.364  0.3916  0.1918  0.1846
  308MOL0     C41507   9.456   9.300   7.358 -0.9371  0.0053 -1.6031
  308MOL0     C41508   9.415   9.301   7.222  0.1581 -0.1297  0.2830
  308MOL0     C41509   9.356   9.303   7.114  0.4194 -0.3206 -0.9819
  308MOL0     C41510  10.103   9.120   7.345  0.1043 -0.3348 -0.0014
  308MOL0     C41511  10.226   9.062   7.362  0.4662  0.2977  0.1352
  308MOL0     C41512  10.346   9.147   7.378 -0.7164  0.2787  0.2227
  308MOL0     H41513  10.583   8.927   7.667  0.3057  1.0719 -0.3371
  308MOL0     H41514  10.783   8.840   7.745  0.1526  2.8841 -0.7982
  308MOL0     H41515  10.987   8.539   7.497  0.5139  0.7627 -1.0449
  308MOL0     H41516  11.105   8.667   7.466  1.6261 -1.6898  0.4955
  308MOL0     H41517  11.190   8.473   7.586  0.2327  2.3987 -2.2549
  308MOL0     H41518  11.076   8.493   7.719  0.8540 -0.3832  1.0615
  308MOL0     H41519  11.267   8.618   7.808 -1.1360  0.9250  0.1829
  308MOL0     H41520  11.178   8.746   7.723  0.6191  0.9679  0.7895
  308MOL0     H41521  11.390   8.577   7.577  2.7817  0.7498 -1.7615
  308MOL0     H41522  11.350   8.755   7.555 -0.0505  2.6606  2.4391
  308MOL0     H41523  11.542   8.784   7.680  2.3017 -1.6247  1.4897
  308MOL0     H41524  11.421   8.785   7.798  1.6551  0.3514  0.5258
  308MOL0     H41525  11.469   8.506   7.781  0.7244 -0.0849  1.5021
  308MOL0     H41526  11.627   8.561   7.716  0.0785  2.1556 -1.4193
  308MOL0     H41527  11.533   8.677   7.970  0.5107 -0.3870  0.6267
  308MOL0     H41528  11.699   8.654   7.908 -0.0280 -0.3338  0.0772
  308MOL0     H41529  11.517   8.433   8.031  0.3114  0.8940 -0.0229
  308MOL0     H41530  11.663   8.411   7.920 -0.9163 -0.2807 -0.1452
  308MOL0     H41531  11.848   8.314   8.102 -2.4377 -2.7839  1.3235
  308MOL0     H41532  11.841   8.326   8.490  1.3501  0.4038  0.5091
  308MOL0     H41533  11.865   8.218   8.347  0.5639  0.0909  0.9699
  308MOL0     H41534  12.078   8.291   8.419  1.8983 -0.1835 -1.5883
  308MOL0     H41535  12.035   8.385   8.274 -2.6347 -2.7127 -0.2416
  308MOL0     H41536  12.062   8.459   8.566 -0.6130  2.5348  1.3895
  308MOL0     H41537  11.950   8.559   8.464  0.6345  0.7085  0.3252
  308MOL0     H41538  12.194   8.615   8.503  0.2993 -1.4046  0.1961
  308MOL0     H41539  12.131   8.630   8.330 -1.8485  1.1727  1.0507
  308MOL0     H41540  12.386   8.682   8.518 -1.0600 -0.6426  1.0245
  308MOL0     H41541  12.601   8.683   8.580 -1.1518 -0.3755 -2.0613
  308MOL0     H41542  12.944   8.502   8.803 -2.0574  0.8482 -3.6152
  308MOL0     H41543  13.155   8.478   8.895 -1.2579 -0.4609  0.3796
  308MOL0     H41544  13.368   8.323   9.013 -2.5095 -0.3377  0.0562
  308MOL0     H41545  13.256   8.209   8.939 -0.7886  1.4689  1.6538
  308MOL0     H41546  13.561   8.219   8.912 -0.4022 -0.6437 -0.1220
  308MOL0     H41547  13.490   8.102   9.021 -2.4860  0.8031  0.7911
  308MOL0     H41548  13.387   7.982   8.844 -0.5909  0.5032  0.2458
  308MOL0     H41549  13.450   8.109   8.723  5.7211  0.9768 -0.7278
  308MOL0     H41550  13.631   7.950   8.900 -0.4265  1.4777  0.3916
  308MOL0     H41551  13.681   8.072   8.786 -0.7727 -0.0941 -0.4211
  308MOL0     H41552  13.593   7.932   8.598 -1.0219  0.4411 -0.8664
  308MOL0     H41553  13.552   7.793   8.698 -0.1000  0.0986 -1.3909
  308MOL0     H41554  13.830   7.904   8.682  2.3097 -2.7827  3.3651
  308MOL0     H41555  13.784   7.757   8.770  0.6590  1.2254  2.0868
  308MOL0     H41556  13.792   7.819   8.482  1.5052 -0.5216 -0.2875
  308MOL0     H41557  13.695   7.677   8.558  0.9466 -0.5971 -0.5512
  308MOL0     H41558  13.905   7.584   8.627 -0.6468  0.8394  0.9966
  308MOL0     H41559  13.910   7.619   8.458 -1.7748 -0.6013 -0.6399
  308MOL0     H41560  13.277   8.217   8.578 -2.0516 -3.5102 -0.3811
  308MOL0     H41561  13.048   8.252   8.474 -0.9343  0.3625  0.4296
  308MOL0     H41562  12.688   8.327   8.371 -1.7523 -2.1473  2.4101
  308MOL0     H41563  12.438   8.321   8.298  0.1254 -0.6032  0.9681
  308MOL0     H41564  10.872   8.700   7.341  0.1542 -0.5869  0.2952
  308MOL0     H41565  10.630   8.757   7.280 -0.3018  0.7569  0.5621
  308MOL0     H41566  10.118   8.745   7.302  1.9677 -0.3589  2.8025
  308MOL0     H41567   9.899   8.867   7.285 -0.4412 -0.4897 -0.0762
  308MOL0     H41568   9.903   9.284   7.249 -0.1053 -1.3123 -1.6241
  308MOL0     H41569   9.877   9.266   7.425 -0.1332 -0.4348  0.0703
  308MOL0     H41570   9.675   9.278   7.197 -0.7992 -0.8869  0.4680
  308MOL0     H41571   9.704   9.403   7.329  0.4978 -0.2951  2.5289
  308MOL0     H41572   9.615   9.208   7.470 -1.7142  2.8975  1.2015
  308MOL0     H41573   9.566   9.124   7.328  1.7865 -1.0271  2.3810
  308MOL0     H41574   9.373   9.249   7.407 -1.1432  1.7124 -0.0864
  308MOL0     H41575   9.468   9.398   7.404 -1.1360  0.0820 -1.7123
  308MOL0     H41576   9.307   9.295   7.019 -1.6260 -0.5073  0.0453
  308MOL0     H41577  10.084   9.224   7.371  1.3255  0.3895 -1.8451
  308MOL0     H41578  10.430   9.097   7.328 -0.5171 -0.6882  1.4810
  308MOL0     H41579  10.333   9.248   7.340 -2.8804 -0.1828 -0.3912
  308MOL0     H41580  10.362   9.144   7.486  1.1757 -1.3724 -0.0480
  309MOL0     O41581   5.907   0.298  10.808  0.0242  0.5481 -0.8739
  309MOL0     C41582   5.832   0.260  10.896  1.1674 -0.2947 -0.1852
  309MOL0     O41583   5.778   0.343  11.001 -0.2544  0.2308 -0.1239
  309MOL0     C41584   5.840   0.468  11.018  0.0768  0.0139 -0.5851
  309MOL0     C41585   5.979   0.485  11.058  0.0837 -0.9870  0.5935
  309MOL0     C41586   6.033   0.607  11.096  0.5618  0.0422  0.1935
  309MOL0     C41587   5.954   0.722  11.093  0.1469 -0.1356 -0.2666
  309MOL0     O41588   6.002   0.843  11.141 -0.0157  0.0215 -0.2547
  309MOL0     C41589   5.932   0.962  11.100 -0.7599 -0.0131  0.4578
  309MOL0     C41590   6.004   1.091  11.137 -0.0076 -0.4416 -0.4234
  309MOL0     C41591   6.003   1.111  11.298 -1.1186 -0.0794  0.0903
  309MOL0     C41592   6.118   1.212  11.326  0.4678  0.3531 -0.3072
  309MOL0     C41593   6.141   1.240  11.472  0.1120  1.2213  0.0087
  309MOL0     C41594   6.290   1.294  11.492 -0.5551 -0.8348 -0.0947
  309MOL0     C41595   6.310   1.440  11.440 -0.2490  0.0429  0.1479
  309MOL0     C41596   6.234   1.550  11.529  0.1154 -0.3950 -0.2034
  309MOL0     N41597   6.290   1.573  11.658  0.4177  0.6492  0.2963
  309MOL0     C41598   6.237   1.530  11.772  0.3346  1.1223  0.2790
  309MOL0     C41599   6.298   1.602  11.875  1.1031 -0.9294  0.1334
  309MOL0     C41600   6.271   1.604  12.020 -0.5294 -0.1978  1.1899
  309MOL0     C41601   6.387   1.527  12.088  0.1616 -0.7907 -0.1153
  309MOL0     C41602   6.364   1.371  12.078  0.2359  0.1611 -0.4294
  309MOL0     C41603   6.474   1.292  12.154 -0.4884 -0.1151  0.0405
  309MOL0     O41604   6.606   1.307  12.105 -0.6356 -0.2655 -0.3308
  309MOL0     C41605   6.705   1.251  12.181  0.3720  0.0521  0.3316
  309MOL0     C41606   6.705   1.197  12.310  0.6586 -0.5654  0.6823
  309MOL0     C41607   6.822   1.145  12.372  0.3503 -0.2716  0.3014
  309MOL0     C41608   6.938   1.139  12.295 -0.3592 -0.2820 -0.0104
  309MOL0     C41609   7.043   1.082  12.365 -1.0269  0.1937  0.0793
  309MOL0     O41610   7.169   1.115  12.312 -0.4985 -0.4279 -0.0337
  309MOL0     C41611   7.279   1.046  12.338 -0.0566  0.1401 -0.1747
  309MOL0     C41612   7.290   0.901  12.365  0.6183  0.5021 -0.1065
  309MOL0     C41613   7.413   0.837  12.383  0.9054 -1.1339 -0.5052
  309MOL0     C41614   7.530   0.910  12.390  0.4108 -0.2521 -0.0821
  309MOL0     O41615   7.653   0.861  12.423 -0.0867 -0.5929  0.3429
  309MOL0     C41616   7.654   0.780  12.539 -0.2134  0.3750  1.0886
  309MOL0     C41617   7.784   0.786  12.625  0.3058 -0.0288 -0.4156
  309MOL0     C41618   7.915   0.760  12.542  0.3206 -0.0266 -0.1157
  309MOL0     C41619   7.956   0.873  12.444  0.3442 -0.0408  0.0187
  309MOL0     C41620   8.089   0.832  12.382  0.6694 -0.2878 -0.1915
  309MOL0     C41621   8.060   0.714  12.283  0.0862  0.1841 -0.7322
  309MOL0     C41622   8.160   0.704  12.173 -0.4086 -0.0827 -0.1641
  309MOL0     C41623   8.139   0.575  12.078 -0.1472  0.2807  0.1645
  309MOL0    Cl41624   8.163   0.415  12.156  0.0331  0.2570  0.0006
  309MOL0     C41625   7.523   1.043  12.355  0.2848  0.2788  0.5750
  309MOL0     C41626   7.404   1.114  12.334  0.0960 -0.1016 -0.2741
  309MOL0     O41627   7.025   1.005  12.463  0.1240 -0.4480  0.9664
  309MOL0     C41628   6.945   1.201  12.170  0.2821 -0.3528 -0.4625
  309MOL0     C41629   6.823   1.252  12.116 -0.2784  0.2835  0.3854
  309MOL0     N41630   6.381   1.687  11.816  1.3435  0.3540  0.2528
  309MOL0     N41631   6.379   1.668  11.684 -0.5908 -0.0534  0.2894
  309MOL0     C41632   5.820   0.704  11.048  0.0161  0.5107 -0.6418
  309MOL0     C41633   5.768   0.583  11.015  0.0074 -0.0085 -0.9299
  309MOL0     C41634   5.794   0.118  10.919  0.0470  0.3291 -1.4886
  309MOL0     C41635   5.716   0.082  11.033 -0.2686  0.3643  0.5371
  309MOL0     C41636   5.661  -0.042  11.052 -0.3798 -0.1804  0.6766
  309MOL0     C41637   5.681  -0.140  10.958 -0.6655  0.7243 -0.2278
  309MOL0     O41638   5.629  -0.262  10.989  0.1834  1.0028 -0.2985
  309MOL0     C41639   5.686  -0.380  10.931 -0.3307  0.2437 -0.3516
  309MOL0     C41640   5.619  -0.496  11.006  0.2066  0.2446 -0.4565
  309MOL0     C41641   5.477  -0.522  10.949 -0.1533 -0.3680 -0.1992
  309MOL0     C41642   5.373  -0.448  11.036 -0.3148 -1.4083  0.1443
  309MOL0     C41643   5.248  -0.466  10.967  1.3911 -0.4114 -0.3170
  309MOL0     C41644   5.146  -0.476  10.894  0.2723  0.4212 -1.3827
  309MOL0     C41645   5.760  -0.110  10.850 -0.3394  0.8594 -0.4666
  309MOL0     C41646   5.802   0.017  10.823  1.2448  0.5573  0.5806
  309MOL0     C41647   5.871   0.038  10.702 -0.0007 -0.4961  0.5980
  309MOL0     H41648   6.046   0.401  11.046  0.9344 -0.0721 -1.4925
  309MOL0     H41649   6.135   0.630  11.125  2.1371  1.0502 -5.0819
  309MOL0     H41650   5.931   0.963  10.991 -1.7910  0.8157  0.4609
  309MOL0     H41651   5.840   0.969  11.158 -0.3987  0.6705  0.9650
  309MOL0     H41652   5.958   1.183  11.100 -1.8614 -0.7860  0.8933
  309MOL0     H41653   6.103   1.079  11.091  0.7481 -4.3590  1.7795
  309MOL0     H41654   6.017   1.012  11.343 -0.2470 -0.4523 -0.9390
  309MOL0     H41655   5.906   1.153  11.325  0.1733  2.3450  1.2995
  309MOL0     H41656   6.211   1.175  11.282  0.9465 -0.4593  1.3277
  309MOL0     H41657   6.099   1.307  11.276  2.2927 -0.2605 -2.3188
  309MOL0     H41658   6.065   1.306  11.515 -0.0202  1.9268 -1.2727
  309MOL0     H41659   6.142   1.146  11.529  3.1346  2.3029  1.9815
  309MOL0     H41660   6.319   1.287  11.597  0.9156  0.2937 -0.3927
  309MOL0     H41661   6.362   1.223  11.448  0.1492 -0.3816  0.3023
  309MOL0     H41662   6.293   1.442  11.332 -0.5914 -1.3946  0.1485
  309MOL0     H41663   6.417   1.461  11.450  0.0728 -0.8528 -1.2053
  309MOL0     H41664   6.235   1.646  11.477 -1.0194  0.3109  0.9978
  309MOL0     H41665   6.128   1.528  11.542 -0.0697  0.6350  0.1496
  309MOL0     H41666   6.158   1.455  11.778  2.7063 -1.5254  1.0061
  309MOL0     H41667   6.268   1.705  12.061 -3.9671  0.8623 -1.1755
  309MOL0     H41668   6.166   1.576  12.035 -1.2085  0.9612 -1.0371
  309MOL0     H41669   6.481   1.556  12.041 -1.8572  0.3892 -3.8370
  309MOL0     H41670   6.382   1.543  12.196 -5.5259  2.2859 -0.4447
  309MOL0     H41671   6.364   1.332  11.976  0.7375 -0.6380 -0.1375
  309MOL0     H41672   6.272   1.338  12.125  1.1331 -2.9389 -0.6380
  309MOL0     H41673   6.456   1.184  12.160 -1.8501  0.0877 -0.2825
  309MOL0     H41674   6.469   1.342  12.252 -1.6780  3.0702 -1.5174
  309MOL0     H41675   6.610   1.190  12.360  0.0983  2.1090  0.1557
  309MOL0     H41676   6.806   1.113  12.475 -1.7370  1.0086  0.4306
  309MOL0     H41677   7.204   0.835  12.360  3.0116 -3.1635  2.3976
  309MOL0     H41678   7.403   0.731  12.404  0.1251 -0.4474  3.3824
  309MOL0     H41679   7.563   0.787  12.599 -1.3877 -0.3966 -0.5422
  309MOL0     H41680   7.648   0.678  12.498 -1.8469  0.3308  1.3717
  309MOL0     H41681   7.795   0.884  12.674  0.8881  0.2071 -1.0009
  309MOL0     H41682   7.764   0.709  12.700  0.8487  2.4206  2.4348
  309MOL0     H41683   8.001   0.734  12.605 -0.6189 -3.0694  0.0504
  309MOL0     H41684   7.898   0.667  12.487  1.9583 -0.2333 -0.3394
  309MOL0     H41685   7.959   0.964  12.504  1.9758 -1.1440  1.7359
  309MOL0     H41686   7.883   0.899  12.367 -0.3209 -0.6091  0.4484
  309MOL0     H41687   8.162   0.803  12.458 -0.1788 -0.0017  0.7581
  309MOL0     H41688   8.132   0.914  12.324  0.0056 -0.2367 -0.6292
  309MOL0     H41689   8.056   0.614  12.325  0.9515  0.6076  0.3934
  309MOL0     H41690   7.959   0.722  12.242 -1.2319  1.5501  2.4294
  309MOL0     H41691   8.259   0.693  12.220  0.3853  0.8119 -1.5604
  309MOL0     H41692   8.168   0.792  12.109 -0.3249 -0.8986 -1.3054
  309MOL0     H41693   8.039   0.563  12.035  0.3589 -2.0278 -0.4979
  309MOL0     H41694   8.207   0.585  11.992 -1.2441  0.6903 -0.6767
  309MOL0     H41695   7.617   1.096  12.360  0.7685 -0.6897  2.9032
  309MOL0     H41696   7.396   1.220  12.311 -0.7207 -0.7345 -3.4464
  309MOL0     H41697   7.037   1.223  12.118  1.4541  0.9890  2.0025
  309MOL0     H41698   6.835   1.304  12.022 -1.1448 -2.7969 -1.5748
  309MOL0     H41699   5.746   0.784  11.043 -1.4808 -0.7035  0.8861
  309MOL0     H41700   5.661   0.576  10.993 -0.6959 -1.7089  2.3347
  309MOL0     H41701   5.682   0.153  11.108 -0.4768  0.1740  0.6259
  309MOL0     H41702   5.589  -0.059  11.131 -1.7075 -1.7359 -0.8039
  309MOL0     H41703   5.795  -0.378  10.940 -0.4711  1.2715  1.7794
  309MOL0     H41704   5.664  -0.366  10.825 -1.1623  2.1706  0.0418
  309MOL0     H41705   5.603  -0.490  11.114 -1.6589 -1.6592 -0.5673
  309MOL0     H41706   5.670  -0.592  10.992 -0.3845 -0.2087  0.3825
  309MOL0     H41707   5.456  -0.629  10.958  2.0973 -0.7938  0.4608
  309MOL0     H41708   5.467  -0.482  10.848 -2.3199  1.3451  0.6090
  309MOL0     H41709   5.384  -0.472  11.142 -0.7037  0.3090  0.6047
  309MOL0     H41710   5.393  -0.341  11.023  0.1217 -1.4701  0.2720
  309MOL0     H41711   5.071  -0.512  10.828  0.8167 -1.6751 -0.9253
  309MOL0     H41712   5.754  -0.190  10.777 -0.6902 -1.1516  1.6428
  309MOL0     H41713   5.976   0.054  10.728 -0.3917  1.7446  1.0348
  309MOL0     H41714   5.871  -0.044  10.629  0.3102  0.9530 -1.1169
  309MOL0     H41715   5.822   0.124  10.654  0.5319  0.8158  2.2817
  310MOL0     O41716   8.224   9.141   2.812 -0.0187  0.5144 -0.0207
  310MOL0     C41717   8.213   9.047   2.732 -0.3385  0.2391 -0.4780
  310MOL0     O41718   8.161   9.056   2.608  0.3644 -0.2885  0.5472
  310MOL0     C41719   8.098   9.170   2.561  0.6320 -0.1763 -0.1060
  310MOL0     C41720   8.014   9.150   2.447 -0.0795 -0.0198  0.0227
  310MOL0     C41721   7.943   9.261   2.384  0.5288 -0.6532 -0.2987
  310MOL0     C41722   7.963   9.390   2.429 -0.7600 -0.1169  0.3360
  310MOL0     O41723   7.903   9.494   2.363  0.1945 -0.0092 -0.2897
  310MOL0     C41724   7.910   9.637   2.408  0.6257 -0.8471  1.4132
  310MOL0     C41725   7.814   9.731   2.331  0.3754  0.8639 -0.9824
  310MOL0     C41726   7.817   9.698   2.185 -0.0531 -0.1687  0.0726
  310MOL0     C41727   7.701   9.774   2.105  0.5870  0.9209 -0.0128
  310MOL0     C41728   7.711   9.738   1.955  0.8414  0.3665 -0.1783
  310MOL0     C41729   7.628   9.819   1.857 -0.1010  0.1017  0.0409
  310MOL0     C41730   7.643   9.764   1.711  0.1236 -0.1669 -0.0744
  310MOL0     C41731   7.541   9.819   1.615  0.0893 -0.5254  0.2868
  310MOL0     N41732   7.528   9.962   1.621  0.1467 -0.5058 -0.2762
  310MOL0     C41733   7.439  10.028   1.704  0.2319  0.2795  0.4148
  310MOL0     C41734   7.444  10.153   1.649 -0.0137 -0.0869  1.0907
  310MOL0     C41735   7.368  10.265   1.712 -0.2417  0.2999 -0.5495
  310MOL0     C41736   7.277  10.338   1.610 -0.3134 -0.4209  0.1793
  310MOL0     C41737   7.221  10.468   1.666 -0.7397  0.6463 -0.0650
  310MOL0     C41738   7.137  10.548   1.575  0.3174 -0.2301  0.1371
  310MOL0     O41739   7.001  10.506   1.553 -0.2098  0.2674  0.8214
  310MOL0     C41740   6.893  10.563   1.632 -0.7400  0.6182 -0.7166
  310MOL0     C41741   6.914  10.629   1.757  1.1314  0.2290 -0.3631
  310MOL0     C41742   6.813  10.685   1.825 -0.2508  0.4340 -0.9702
  310MOL0     C41743   6.679  10.679   1.782 -0.3972  0.1700 -1.3707
  310MOL0     C41744   6.576  10.763   1.855  0.1913  1.6497  0.5545
  310MOL0     O41745   6.440  10.726   1.830 -0.6444  0.2612  0.3247
  310MOL0     C41746   6.344  10.781   1.917 -0.5677 -0.9658  0.4153
  310MOL0     C41747   6.219  10.720   1.937 -0.3339 -0.7850 -0.7135
  310MOL0     C41748   6.112  10.773   2.012  0.2077 -0.5670  0.1773
  310MOL0     C41749   6.124  10.905   2.053  0.9520  0.0777 -0.4803
  310MOL0     O41750   6.013  10.950   2.129  0.2126 -0.2746  0.8428
  310MOL0     C41751   6.017  11.075   2.200 -0.2107 -0.8094  0.6098
  310MOL0     C41752   5.879  11.151   2.220  0.6176 -0.3408  0.0736
  310MOL0     C41753   5.817  11.184   2.085 -0.2896 -0.0699 -0.6078
  310MOL0     C41754   5.682  11.255   2.096 -0.2474  0.6613 -0.8911
  310MOL0     C41755   5.614  11.281   1.958 -0.2123  0.5409  0.1262
  310MOL0     C41756   5.473  11.344   1.980 -0.4510  0.1117 -1.4896
  310MOL0     C41757   5.392  11.357   1.858  0.4793 -0.7132  0.5812
  310MOL0     C41758   5.272  11.445   1.870  0.0134 -0.6855 -0.2386
  310MOL0    Cl41759   5.190  11.475   1.708  0.2911  0.3241  0.1378
  310MOL0     C41760   6.246  10.971   2.036  0.8470 -0.1890  0.3557
  310MOL0     C41761   6.352  10.914   1.968 -0.9094 -0.7743  0.3242
  310MOL0     O41762   6.620  10.853   1.930 -0.5552 -0.0863  0.3076
  310MOL0     C41763   6.645  10.612   1.666  0.4801 -0.1225 -0.0186
  310MOL0     C41764   6.750  10.539   1.599 -0.0151  1.1236 -0.1655
  310MOL0     N41765   7.525  10.149   1.533  0.7954 -0.2481  0.0661
  310MOL0     N41766   7.582  10.037   1.523 -0.1864 -0.1436 -0.4209
  310MOL0     C41767   8.049   9.411   2.539 -0.2251  0.3364 -0.7833
  310MOL0     C41768   8.113   9.301   2.603 -0.2148  0.6437 -0.2756
  310MOL0     C41769   8.278   8.918   2.778 -0.4922  0.3731 -0.2998
  310MOL0     C41770   8.217   8.806   2.724  0.8216  0.3045 -0.9015
  310MOL0     C41771   8.249   8.677   2.777 -0.0724 -0.5572 -0.7101
  310MOL0     C41772   8.347   8.666   2.876 -0.7465  0.9744  0.0449
  310MOL0     O41773   8.376   8.540   2.918 -0.1895  0.0005 -0.3871
  310MOL0     C41774   8.484   8.507   2.999 -0.6876 -0.3326 -0.3618
  310MOL0     C41775   8.487   8.354   3.013 -1.1994 -0.2161  0.3793
  310MOL0     C41776   8.358   8.309   3.096  0.5080 -0.1836  0.1086
  310MOL0     C41777   8.249   8.284   2.997 -0.3632  0.6989  0.4304
  310MOL0     C41778   8.150   8.184   3.046 -0.5027  0.1753 -0.5855
  310MOL0     C41779   8.079   8.107   3.102  0.0212  0.6879  0.0618
  310MOL0     C41780   8.406   8.778   2.928  0.2922 -0.3818  0.5598
  310MOL0     C41781   8.387   8.906   2.874  0.0999 -0.7992 -0.6808
  310MOL0     C41782   8.452   9.031   2.929  0.4496  0.2342 -0.2325
  310MOL0     H41783   8.028   9.056   2.394 -1.4415  1.9177 -4.1819
  310MOL0     H41784   7.889   9.235   2.294  0.4832  0.5042 -0.6284
  310MOL0     H41785   7.888   9.635   2.515  1.0640 -2.9305  1.5015
  310MOL0     H41786   8.013   9.674   2.398  0.6428 -1.2020 -0.0720
  310MOL0     H41787   7.847   9.835   2.345  0.7229  0.5078  1.3877
  310MOL0     H41788   7.712   9.720   2.370  0.9689 -4.7118 -0.2129
  310MOL0     H41789   7.789   9.594   2.170 -0.8968  0.0161  0.3162
  310MOL0     H41790   7.922   9.702   2.155 -0.2860  0.3083 -0.7222
  310MOL0     H41791   7.600   9.749   2.139  0.5464 -0.6096 -1.1599
  310MOL0     H41792   7.717   9.882   2.108  1.9920  0.7292  0.9351
  310MOL0     H41793   7.819   9.742   1.937  0.9254  1.7169  0.4960
  310MOL0     H41794   7.688   9.633   1.931 -1.8758  0.3926  1.8994
  310MOL0     H41795   7.520   9.814   1.878 -0.4127  0.2574 -1.3962
  310MOL0     H41796   7.666   9.921   1.867  1.0748 -0.2344 -0.8122
  310MOL0     H41797   7.660   9.655   1.709  4.0015  0.2351  1.7969
  310MOL0     H41798   7.742   9.787   1.671 -0.1969  0.0256 -0.7861
  310MOL0     H41799   7.560   9.785   1.513 -2.6316 -1.1586 -0.0829
  310MOL0     H41800   7.443   9.781   1.645 -0.1973 -0.3344 -0.3832
  310MOL0     H41801   7.370   9.988   1.777  0.1114  0.2740  0.2976
  310MOL0     H41802   7.308  10.224   1.794  1.0936  1.4883  1.0936
  310MOL0     H41803   7.440  10.333   1.759 -1.3001  1.3360 -0.3725
  310MOL0     H41804   7.334  10.363   1.520 -2.3843  1.0712 -0.7907
  310MOL0     H41805   7.199  10.267   1.580  0.5902 -1.8127  0.9705
  310MOL0     H41806   7.308  10.535   1.663 -0.4553  0.2506 -1.4201
  310MOL0     H41807   7.184  10.464   1.769 -1.6748  1.1823 -0.3740
  310MOL0     H41808   7.196  10.542   1.483  2.1697 -4.6456  1.3412
  310MOL0     H41809   7.136  10.648   1.619  2.8157 -0.4110  0.7743
  310MOL0     H41810   7.018  10.642   1.787  0.6152 -0.2639  1.8175
  310MOL0     H41811   6.846  10.745   1.909  1.3432 -0.1350 -1.1661
  310MOL0     H41812   6.213  10.619   1.897  1.6121 -1.2539  0.0501
  310MOL0     H41813   6.025  10.710   2.026  1.3857 -2.2028  0.4630
  310MOL0     H41814   6.047  11.051   2.302  0.2755  2.0442  1.2419
  310MOL0     H41815   6.089  11.147   2.158  0.5687 -1.5218  0.7066
  310MOL0     H41816   5.818  11.075   2.271 -0.0528 -0.0955 -0.3482
  310MOL0     H41817   5.887  11.235   2.289 -4.1747  0.8311 -0.4514
  310MOL0     H41818   5.890  11.254   2.044 -1.2515  2.0649  1.0808
  310MOL0     H41819   5.810  11.103   2.012  2.0754 -0.3763 -0.5591
  310MOL0     H41820   5.711  11.350   2.141 -2.1833  2.3747 -2.9872
  310MOL0     H41821   5.615  11.212   2.171  1.3153 -0.4133 -0.0500
  310MOL0     H41822   5.610  11.187   1.902 -1.5835 -0.9925  2.5985
  310MOL0     H41823   5.677  11.344   1.895  1.6292  0.9071  2.2074
  310MOL0     H41824   5.420  11.280   2.051  1.9025  1.1319  1.3876
  310MOL0     H41825   5.485  11.438   2.034  0.2698 -0.2994 -0.9142
  310MOL0     H41826   5.345  11.263   1.826  0.5036 -0.0360 -1.6215
  310MOL0     H41827   5.455  11.396   1.778  0.2829 -0.2877  0.6310
  310MOL0     H41828   5.205  11.399   1.943  0.5342 -3.5446 -1.4503
  310MOL0     H41829   5.302  11.541   1.913 -2.2502  0.5836 -1.2747
  310MOL0     H41830   6.255  11.075   2.068  0.9764 -0.7337  2.1960
  310MOL0     H41831   6.439  10.976   1.952  0.0046 -2.3333 -1.1478
  310MOL0     H41832   6.542  10.609   1.633  0.8683  0.0796 -1.2903
  310MOL0     H41833   6.720  10.467   1.523  0.3410  0.2668  0.4964
  310MOL0     H41834   8.058   9.515   2.567 -0.0405  0.1268 -0.0504
  310MOL0     H41835   8.191   9.334   2.671  0.5224  1.7190 -1.5806
  310MOL0     H41836   8.138   8.817   2.650 -2.5931  1.1433  2.5226
  310MOL0     H41837   8.204   8.584   2.747  1.6531 -1.5714 -0.3386
  310MOL0     H41838   8.474   8.553   3.098 -1.0104 -0.1208 -0.4908
  310MOL0     H41839   8.573   8.547   2.949 -1.9450  1.5630 -1.2272
  310MOL0     H41840   8.581   8.329   3.061 -2.0773 -1.3974  1.5343
  310MOL0     H41841   8.485   8.317   2.910  1.5498  3.6053 -1.3172
  310MOL0     H41842   8.335   8.387   3.168  2.2144  1.5684 -1.1136
  310MOL0     H41843   8.363   8.209   3.140 -1.5057 -0.1138  0.5937
  310MOL0     H41844   8.201   8.381   2.985  1.8822  1.8448  0.2277
  310MOL0     H41845   8.271   8.253   2.894 -2.5738 -0.1536  0.1673
  310MOL0     H41846   8.009   8.043   3.151  0.6240  1.0399  1.4699
  310MOL0     H41847   8.473   8.777   3.013 -1.0544  1.0957  1.6784
  310MOL0     H41848   8.395   9.072   3.013 -0.5486 -1.0606 -0.2378
  310MOL0     H41849   8.554   9.010   2.964  0.3401 -0.9988 -0.5979
  310MOL0     H41850   8.450   9.105   2.848 -2.0404 -0.6889 -1.1215
  311MOL0     O41851   9.899   3.258   9.550  0.8834  0.2963  0.7610
  311MOL0     C41852   9.992   3.296   9.483  1.2774  0.1346 -0.0752
  311MOL0     O41853   9.989   3.307   9.343 -0.1140  0.2379 -0.2681
  311MOL0     C41854   9.931   3.203   9.277  0.4313 -0.3758  0.3718
  311MOL0     C41855   9.818   3.220   9.194  0.9581  0.5166  0.4310
  311MOL0     C41856   9.763   3.095   9.138 -0.2273  0.5815 -1.0928
  311MOL0     C41857   9.848   2.975   9.128  0.1010 -0.7735  0.5309
  311MOL0     O41858   9.821   2.872   9.047 -0.8780 -0.2718  0.1531
  311MOL0     C41859   9.693   2.872   8.985  0.8412  0.1024 -1.2148
  311MOL0     C41860   9.669   2.733   8.931  0.6586  0.0639  0.2434
  311MOL0     C41861   9.521   2.714   8.901 -0.1583  0.2687 -0.0700
  311MOL0     C41862   9.489   2.772   8.772  0.4074  0.1985  0.6982
  311MOL0     C41863   9.345   2.725   8.742  0.1155 -0.9416 -0.0885
  311MOL0     C41864   9.305   2.779   8.603  0.7111 -0.3734 -0.8786
  311MOL0     C41865   9.165   2.739   8.552 -0.1599 -0.7624 -1.1694
  311MOL0     C41866   9.130   2.765   8.401 -0.4925  0.6297 -0.2435
  311MOL0     N41867   8.990   2.726   8.359 -0.5613 -0.0756 -0.5307
  311MOL0     C41868   8.948   2.597   8.386  0.4274 -0.1621 -0.4601
  311MOL0     C41869   8.812   2.609   8.360  0.2987  0.1476 -0.0733
  311MOL0     C41870   8.695   2.514   8.359  0.1326 -0.0916  0.7710
  311MOL0     C41871   8.675   2.459   8.218  0.0139  0.2212 -0.1119
  311MOL0     C41872   8.542   2.398   8.194  0.8156 -0.8582  0.1454
  311MOL0     C41873   8.508   2.339   8.067 -0.2697 -0.5522 -0.4381
  311MOL0     O41874   8.455   2.435   7.973  0.4829 -0.5059  0.3786
  311MOL0     C41875   8.386   2.397   7.859 -0.1757  0.0577 -0.3423
  311MOL0     C41876   8.353   2.267   7.831 -0.3040 -0.0240 -1.2123
  311MOL0     C41877   8.304   2.237   7.710 -0.1631 -0.3811 -0.1903
  311MOL0     C41878   8.268   2.333   7.620 -0.1778 -0.4238  0.6816
  311MOL0     C41879   8.224   2.298   7.476 -0.1054  0.1471 -0.7603
  311MOL0     O41880   8.176   2.409   7.422  0.5595 -0.4543  1.1002
  311MOL0     C41881   8.111   2.401   7.303  0.5688  0.2180  0.4456
  311MOL0     C41882   8.104   2.524   7.246 -1.1676  0.0114  0.1046
  311MOL0     C41883   8.032   2.532   7.124  0.1127  0.9378 -0.1305
  311MOL0     C41884   7.975   2.413   7.065  0.7381  0.4233 -0.0670
  311MOL0     O41885   7.886   2.432   6.958  1.1352  0.0342  0.1638
  311MOL0     C41886   7.751   2.377   6.969 -0.3443 -0.5729  0.4871
  311MOL0     C41887   7.656   2.408   6.853 -0.2916  0.9668 -0.0083
  311MOL0     C41888   7.702   2.351   6.722 -0.4408 -0.3042 -0.8175
  311MOL0     C41889   7.627   2.429   6.611 -0.4133  0.0083 -0.2262
  311MOL0     C41890   7.671   2.371   6.473 -0.9141 -0.2830  0.7540
  311MOL0     C41891   7.812   2.364   6.413 -1.1000  0.3560 -0.0858
  311MOL0     C41892   7.885   2.500   6.412  0.0953  0.5394  0.1862
  311MOL0     C41893   8.007   2.495   6.319 -0.3379 -0.1376 -0.4951
  311MOL0    Cl41894   8.132   2.389   6.378  0.1542 -0.0720 -0.5279
  311MOL0     C41895   7.993   2.289   7.121  0.1997 -0.2497 -0.7730
  311MOL0     C41896   8.051   2.287   7.245  0.3873  0.1033  0.1100
  311MOL0     O41897   8.231   2.177   7.433  0.1395 -0.3436 -0.0180
  311MOL0     C41898   8.291   2.472   7.655 -0.3195 -0.5765  1.1520
  311MOL0     C41899   8.353   2.502   7.775 -0.4433 -1.3905  0.2649
  311MOL0     N41900   8.790   2.739   8.317  0.0454  0.4227 -0.6839
  311MOL0     N41901   8.898   2.804   8.314 -0.3018  0.0117  0.3747
  311MOL0     C41902   9.968   2.980   9.198 -1.1029 -0.0500  0.0960
  311MOL0     C41903  10.008   3.092   9.274  0.3564  0.9296 -0.1454
  311MOL0     C41904  10.120   3.330   9.550  0.5207 -0.5924  0.6140
  311MOL0     C41905  10.223   3.395   9.467  0.2296 -0.2258 -0.5671
  311MOL0     C41906  10.345   3.431   9.518 -0.3135 -0.4982  0.1963
  311MOL0     C41907  10.381   3.402   9.651  0.8261 -0.2193 -0.0483
  311MOL0     O41908  10.505   3.433   9.707 -0.1229 -0.6878 -1.0242
  311MOL0     C41909  10.613   3.490   9.620  0.4712 -0.7041 -0.0556
  311MOL0     C41910  10.610   3.649   9.638  0.9440  0.6277  0.2080
  311MOL0     C41911  10.605   3.705   9.777 -0.3662 -0.0795 -0.1569
  311MOL0     C41912  10.587   3.863   9.784  0.9368  0.0991 -0.4753
  311MOL0     C41913  10.706   3.947   9.787  0.0754 -0.2329 -0.0998
  311MOL0     C41914  10.810   4.005   9.809  0.0815  0.0400 -0.8930
  311MOL0     C41915  10.285   3.334   9.724  0.4542  0.0701  0.7602
  311MOL0     C41916  10.162   3.293   9.677 -0.0813  0.4968 -0.1951
  311MOL0     C41917  10.088   3.199   9.765  0.5161  1.2413  0.2118
  311MOL0     H41918   9.774   3.318   9.179  1.2573  0.5754 -0.0962
  311MOL0     H41919   9.665   3.099   9.091 -1.1610  0.8381  0.7557
  311MOL0     H41920   9.609   2.896   9.050 -0.0789  1.1599 -2.7156
  311MOL0     H41921   9.673   2.943   8.904  0.9719 -1.2944 -2.5372
  311MOL0     H41922   9.693   2.663   9.011 -2.1789  0.6384  1.7219
  311MOL0     H41923   9.725   2.711   8.839 -1.3350 -2.8983 -0.4025
  311MOL0     H41924   9.467   2.767   8.980  0.0501  1.5838 -0.7862
  311MOL0     H41925   9.503   2.606   8.902 -1.2951  0.4374 -0.5396
  311MOL0     H41926   9.489   2.882   8.772 -3.0711  0.3911 -1.9181
  311MOL0     H41927   9.552   2.732   8.692  0.4843 -1.1050  1.3814
  311MOL0     H41928   9.339   2.617   8.755  0.7169 -0.9230  0.3746
  311MOL0     H41929   9.281   2.773   8.818  1.4384  2.3472 -0.8729
  311MOL0     H41930   9.318   2.888   8.600 -2.4125  0.0837 -0.3902
  311MOL0     H41931   9.377   2.739   8.531  4.6073 -1.1086  3.0347
  311MOL0     H41932   9.094   2.792   8.616  1.1849  1.7263 -1.6081
  311MOL0     H41933   9.157   2.630   8.564  1.2760 -1.3268 -4.2467
  311MOL0     H41934   9.159   2.868   8.381  1.1833  0.1151 -0.6711
  311MOL0     H41935   9.200   2.699   8.348  1.8906 -1.9865  5.3266
  311MOL0     H41936   9.011   2.511   8.407 -1.6543 -1.9194 -1.0300
  311MOL0     H41937   8.704   2.434   8.434  3.1651 -0.8417 -0.2572
  311MOL0     H41938   8.611   2.581   8.381  0.2653 -0.4333  2.5211
  311MOL0     H41939   8.700   2.539   8.147  2.2696 -0.7975 -0.5436
  311MOL0     H41940   8.744   2.377   8.197 -0.1843  0.2445 -0.8888
  311MOL0     H41941   8.459   2.465   8.220  0.3973 -1.5344  0.5866
  311MOL0     H41942   8.523   2.319   8.268 -0.2046 -1.8967 -1.1727
  311MOL0     H41943   8.428   2.267   8.083  1.7467 -2.9363 -0.4481
  311MOL0     H41944   8.591   2.284   8.022 -0.2241 -0.7395 -0.1298
  311MOL0     H41945   8.384   2.183   7.892  1.4223 -2.8304 -5.4433
  311MOL0     H41946   8.313   2.134   7.679  0.3896 -0.8695  1.4986
  311MOL0     H41947   8.157   2.609   7.287 -2.4648  0.0141  1.8954
  311MOL0     H41948   8.035   2.632   7.081  1.6199  0.7783 -0.4616
  311MOL0     H41949   7.769   2.269   6.973 -1.7244 -0.7887  1.8065
  311MOL0     H41950   7.703   2.399   7.065  1.1783 -3.3951  2.0249
  311MOL0     H41951   7.560   2.361   6.877  0.0432  0.1631 -0.1917
  311MOL0     H41952   7.630   2.514   6.846  0.3560  1.0432 -1.6086
  311MOL0     H41953   7.809   2.369   6.713  0.3801 -2.0423  3.3806
  311MOL0     H41954   7.680   2.244   6.714  1.6431 -0.9544  1.2325
  311MOL0     H41955   7.645   2.537   6.609 -0.8615  0.1800 -4.3005
  311MOL0     H41956   7.519   2.414   6.615 -0.4931  0.2632 -1.1779
  311MOL0     H41957   7.613   2.422   6.395  0.7239 -1.1061 -1.1089
  311MOL0     H41958   7.641   2.265   6.470  0.8001 -0.8416  1.7483
  311MOL0     H41959   7.877   2.291   6.462  0.3319  0.8371 -1.2263
  311MOL0     H41960   7.789   2.326   6.313 -1.6022 -0.4122  0.3076
  311MOL0     H41961   7.924   2.522   6.512  0.5717 -1.9309  0.6001
  311MOL0     H41962   7.809   2.573   6.383  1.0882  1.8876  0.8660
  311MOL0     H41963   7.977   2.476   6.216  0.4844 -0.0770 -0.7550
  311MOL0     H41964   8.054   2.593   6.308  0.1515 -0.2050  0.8662
  311MOL0     H41965   7.959   2.190   7.092 -0.6582 -0.6544  1.4127
  311MOL0     H41966   8.055   2.193   7.299 -0.2811  0.7065  1.2485
  311MOL0     H41967   8.268   2.551   7.585  2.6192  2.4767  3.2752
  311MOL0     H41968   8.372   2.603   7.813  0.6594 -1.2595 -0.6067
  311MOL0     H41969  10.043   2.902   9.186 -1.7483 -0.5248 -0.9788
  311MOL0     H41970  10.101   3.103   9.329 -0.9093  0.4425  2.2511
  311MOL0     H41971  10.212   3.442   9.370  0.0137  3.0948  0.9306
  311MOL0     H41972  10.409   3.482   9.447  1.6411 -0.6632  1.7614
  311MOL0     H41973  10.610   3.471   9.512  2.0391  2.0281 -0.6922
  311MOL0     H41974  10.707   3.445   9.654 -0.1884 -2.4915 -0.5110
  311MOL0     H41975  10.518   3.694   9.600  0.2312  0.9707  2.1978
  311MOL0     H41976  10.696   3.684   9.580  0.7717 -2.0780 -1.8515
  311MOL0     H41977  10.678   3.665   9.848 -0.1577  0.5000 -0.0326
  311MOL0     H41978  10.509   3.670   9.814 -1.3400 -0.5943 -2.9563
  311MOL0     H41979  10.525   3.895   9.700  1.4188  0.3282 -0.7470
  311MOL0     H41980  10.525   3.874   9.874  2.9096 -2.8522  1.4287
  311MOL0     H41981  10.904   4.057   9.810 -0.1073  0.5886  2.9256
  311MOL0     H41982  10.302   3.303   9.826  1.4007 -4.1908 -0.5013
  311MOL0     H41983  10.084   3.102   9.715 -0.8393  1.0144  0.7389
  311MOL0     H41984  10.135   3.175   9.860 -0.8285 -4.2888 -0.2177
  311MOL0     H41985   9.990   3.242   9.786 -1.3155 -2.5930  0.3242
  312MOL0     O41986   0.455   7.457   3.004 -0.0879  0.5162 -0.4861
  312MOL0     C41987   0.459   7.485   2.880 -0.4334 -0.8127  0.8142
  312MOL0     O41988   0.574   7.519   2.813  0.1775 -0.1158  0.9639
  312MOL0     C41989   0.690   7.537   2.884 -0.0470 -0.0589 -0.2370
  312MOL0     C41990   0.809   7.493   2.815  0.5173 -1.2242 -0.0558
  312MOL0     C41991   0.932   7.512   2.878  0.2624 -1.1031  0.0371
  312MOL0     C41992   0.938   7.578   2.996 -0.9564  0.7095  0.5276
  312MOL0     O41993   1.050   7.602   3.073 -0.1690  0.3970  0.1739
  312MOL0     C41994   1.176   7.551   3.039  0.0949  0.0560  0.3939
  312MOL0     C41995   1.259   7.660   2.961  0.4191  1.0189  0.3697
  312MOL0     C41996   1.381   7.604   2.890 -0.2646  0.7492  0.3356
  312MOL0     C41997   1.492   7.540   2.975 -0.5439 -1.0189 -0.4441
  312MOL0     C41998   1.611   7.488   2.882  0.8514  0.6006  0.7852
  312MOL0     C41999   1.739   7.443   2.968 -0.3819  0.4394  0.2496
  312MOL0     C42000   1.866   7.416   2.882 -1.0450  0.6578 -0.3394
  312MOL0     C42001   1.853   7.301   2.778  0.0817 -0.1794 -0.5860
  312MOL0     N42002   1.798   7.178   2.828  0.4255  0.5197  0.0530
  312MOL0     C42003   1.696   7.105   2.759 -0.4055 -1.0164 -0.0350
  312MOL0     C42004   1.695   6.992   2.827  1.5347  0.7191 -0.3631
  312MOL0     C42005   1.599   6.888   2.781 -0.0719  0.1603  0.2136
  312MOL0     C42006   1.671   6.764   2.713  0.9984 -0.3152 -0.3816
  312MOL0     C42007   1.599   6.634   2.743  0.0672  0.4623  0.5171
  312MOL0     C42008   1.642   6.569   2.871 -0.7169  0.1396 -0.4988
  312MOL0     O42009   1.778   6.519   2.853 -0.7280 -0.3358 -0.1512
  312MOL0     C42010   1.848   6.461   2.959 -0.1733  0.6058  0.4015
  312MOL0     C42011   1.800   6.452   3.086  0.3547 -0.7720 -0.2621
  312MOL0     C42012   1.874   6.387   3.184 -0.1321  0.1389 -0.1081
  312MOL0     C42013   1.993   6.318   3.156  0.4205 -0.6947 -0.3387
  312MOL0     C42014   2.061   6.264   3.273 -0.7907 -0.1832 -0.9017
  312MOL0     O42015   1.999   6.275   3.400  0.2443 -0.3678  0.2133
  312MOL0     C42016   2.053   6.211   3.505  0.0625 -0.7600  0.7968
  312MOL0     C42017   2.157   6.252   3.584 -0.7295 -0.6417 -1.0377
  312MOL0     C42018   2.211   6.162   3.674 -0.4092 -0.8314  1.1507
  312MOL0     C42019   2.167   6.037   3.684 -0.7320  0.4964  0.2156
  312MOL0     O42020   2.218   5.937   3.766  0.5079  0.8165  0.0117
  312MOL0     C42021   2.310   5.968   3.860  0.9994 -0.7735 -0.5193
  312MOL0     C42022   2.303   5.850   3.964 -0.2791  0.3676 -0.5516
  312MOL0     C42023   2.350   5.717   3.912 -0.5390 -0.9020  0.2908
  312MOL0     C42024   2.312   5.593   3.999 -0.2361  0.2079  0.3378
  312MOL0     C42025   2.424   5.483   4.015 -0.4654 -0.2865 -0.5407
  312MOL0     C42026   2.370   5.349   4.069  0.1022 -0.5135 -0.5256
  312MOL0     C42027   2.471   5.236   4.085  0.6045  0.4193  0.3794
  312MOL0     C42028   2.552   5.252   4.199 -0.0052  0.9098 -0.0427
  312MOL0    Cl42029   2.695   5.147   4.194 -0.0268  0.3687  0.2636
  312MOL0     C42030   2.059   5.991   3.603  0.1040 -0.6739 -0.5692
  312MOL0     C42031   2.006   6.080   3.517 -0.2728  0.7339  0.0577
  312MOL0     O42032   2.160   6.196   3.247 -0.7258  0.4158  0.6932
  312MOL0     C42033   2.036   6.310   3.024  0.6686 -0.0603 -0.0522
  312MOL0     C42034   1.961   6.384   2.927 -0.5120  0.2235 -0.5334
  312MOL0     N42035   1.782   6.997   2.941 -0.2587  0.5210  0.7856
  312MOL0     N42036   1.841   7.115   2.936  0.1629  0.2832  0.0099
  312MOL0     C42037   0.826   7.632   3.060  0.8028 -0.2935 -0.0869
  312MOL0     C42038   0.702   7.614   3.002  1.0453 -0.4853  0.5645
  312MOL0     C42039   0.326   7.526   2.809  0.0599 -0.8415 -0.2843
  312MOL0     C42040   0.331   7.603   2.692 -1.6772  0.6206 -1.2654
  312MOL0     C42041   0.221   7.650   2.617 -0.1980  0.5325 -0.7188
  312MOL0     C42042   0.089   7.603   2.654 -0.5534  0.8276 -0.2561
  312MOL0     O42043  -0.033   7.645   2.592 -0.5550 -1.0560 -0.1400
  312MOL0     C42044  -0.052   7.722   2.465  0.1455  1.0764 -0.5537
  312MOL0     C42045  -0.145   7.842   2.476 -0.5900 -0.0569  0.6089
  312MOL0     C42046  -0.286   7.800   2.505  0.5850  0.4712  0.2829
  312MOL0     C42047  -0.371   7.906   2.584 -0.0953  0.6111 -0.1830
  312MOL0     C42048  -0.515   7.879   2.586  0.2305  0.7569 -0.2834
  312MOL0     C42049  -0.634   7.883   2.606 -0.0127  0.4957 -0.6103
  312MOL0     C42050   0.079   7.527   2.772 -0.3809  0.5376 -0.3275
  312MOL0     C42051   0.193   7.483   2.850 -0.7470 -0.2727  0.1997
  312MOL0     C42052   0.164   7.396   2.970 -0.1223  0.1970  0.7062
  312MOL0     H42053   0.797   7.447   2.717  2.0228 -0.6768 -0.5292
  312MOL0     H42054   1.022   7.492   2.819  0.6409  0.9200 -0.1535
  312MOL0     H42055   1.231   7.521   3.129  3.8683 -2.5306 -2.4554
  312MOL0     H42056   1.173   7.455   2.986  0.8884  1.1158 -1.6896
  312MOL0     H42057   1.293   7.736   3.032 -1.0358  2.6836 -0.6220
  312MOL0     H42058   1.200   7.722   2.891 -0.4761  2.5029  2.3470
  312MOL0     H42059   1.421   7.686   2.829  0.0453 -0.7036 -1.5118
  312MOL0     H42060   1.360   7.528   2.815  4.1812 -1.0966  0.6409
  312MOL0     H42061   1.546   7.605   3.044 -3.5642  3.5812 -1.9247
  312MOL0     H42062   1.449   7.453   3.026  0.4222 -0.8697  0.6514
  312MOL0     H42063   1.569   7.405   2.826  0.9297  0.6824  0.6043
  312MOL0     H42064   1.641   7.571   2.816  2.2944  0.2272  0.9420
  312MOL0     H42065   1.759   7.503   3.057  0.9246 -1.4601  1.3144
  312MOL0     H42066   1.711   7.346   3.009 -0.3817  0.2084 -0.2977
  312MOL0     H42067   1.945   7.393   2.953 -0.5743  2.5670 -0.1753
  312MOL0     H42068   1.886   7.513   2.834 -1.2893  2.1682  2.3897
  312MOL0     H42069   1.799   7.337   2.689 -0.1640 -2.6139 -1.5027
  312MOL0     H42070   1.957   7.286   2.746  1.0251  1.4038  1.5378
  312MOL0     H42071   1.636   7.125   2.671  0.2540 -1.9569 -0.7206
  312MOL0     H42072   1.547   6.860   2.873 -0.4269 -0.3569 -0.1443
  312MOL0     H42073   1.522   6.922   2.711  0.6576 -0.8272 -1.0999
  312MOL0     H42074   1.672   6.775   2.604  0.6768  0.3944 -0.3218
  312MOL0     H42075   1.771   6.759   2.757  1.1919  1.0881 -0.6262
  312MOL0     H42076   1.613   6.568   2.656 -2.5272 -0.1762  0.5050
  312MOL0     H42077   1.493   6.645   2.765 -0.0234 -1.9973  1.6389
  312MOL0     H42078   1.566   6.493   2.891  0.8812 -1.2876  0.4561
  312MOL0     H42079   1.640   6.638   2.955  3.7479 -0.0551  0.0026
  312MOL0     H42080   1.713   6.508   3.118 -0.7405 -2.4865 -0.0988
  312MOL0     H42081   1.830   6.367   3.282  0.1285  2.6674  0.5846
  312MOL0     H42082   2.195   6.351   3.565 -2.4801  0.0006 -1.3510
  312MOL0     H42083   2.291   6.207   3.731  1.3964  0.4820 -2.1409
  312MOL0     H42084   2.412   5.968   3.822  1.1119 -0.2836 -0.2164
  312MOL0     H42085   2.288   6.065   3.906 -0.4766  1.0507 -4.6023
  312MOL0     H42086   2.367   5.874   4.050  0.7484 -0.7376 -0.9790
  312MOL0     H42087   2.198   5.843   3.994  0.0727  0.3144  0.7373
  312MOL0     H42088   2.325   5.702   3.806 -1.5852 -3.7007  0.8404
  312MOL0     H42089   2.460   5.717   3.916 -0.4857 -1.9340 -0.4810
  312MOL0     H42090   2.229   5.542   3.949  2.0827 -0.9393 -2.6677
  312MOL0     H42091   2.286   5.627   4.099  0.0307  0.3219  0.3684
  312MOL0     H42092   2.502   5.521   4.083 -0.8001 -1.7215  0.6843
  312MOL0     H42093   2.473   5.479   3.918 -0.1484  1.7600 -0.5154
  312MOL0     H42094   2.313   5.352   4.162 -0.7374  0.4509 -1.0552
  312MOL0     H42095   2.292   5.321   3.997 -0.1506 -0.0720 -0.4286
  312MOL0     H42096   2.528   5.225   3.993 -0.2845 -0.6938 -0.0627
  312MOL0     H42097   2.409   5.146   4.092 -0.5592  1.2523  1.3450
  312MOL0     H42098   2.595   5.352   4.207 -0.2291  0.9188  1.2912
  312MOL0     H42099   2.486   5.233   4.284 -1.7083 -0.7939 -1.6330
  312MOL0     H42100   2.043   5.884   3.614 -0.1656 -0.4512  1.6388
  312MOL0     H42101   1.936   6.043   3.443  0.5993 -0.8808  0.0007
  312MOL0     H42102   2.117   6.242   3.001  0.6977  0.2288 -0.8105
  312MOL0     H42103   1.985   6.377   2.822  0.4916  4.3585 -0.7607
  312MOL0     H42104   0.850   7.678   3.155  0.9332  0.0208 -0.2711
  312MOL0     H42105   0.610   7.633   3.057  2.0063  0.0747  2.0588
  312MOL0     H42106   0.422   7.642   2.648 -2.8435  0.8939 -3.5739
  312MOL0     H42107   0.228   7.725   2.538 -0.5962  1.5586  0.1951
  312MOL0     H42108  -0.111   7.664   2.394 -1.9852  1.9309  0.4373
  312MOL0     H42109   0.046   7.737   2.418  1.1433 -4.3107 -0.7745
  312MOL0     H42110  -0.133   7.890   2.379  0.8254 -2.3724 -0.4373
  312MOL0     H42111  -0.100   7.904   2.555  2.2224  1.9555 -2.2769
  312MOL0     H42112  -0.295   7.702   2.554 -1.1032  1.1259  1.3897
  312MOL0     H42113  -0.332   7.773   2.410 -2.1339  1.2388  1.2724
  312MOL0     H42114  -0.336   7.906   2.688  1.5667 -2.2672 -0.6574
  312MOL0     H42115  -0.357   8.005   2.539 -0.2879  0.0178 -1.5715
  312MOL0     H42116  -0.740   7.879   2.619  0.0005 -1.3815 -0.7664
  312MOL0     H42117  -0.016   7.487   2.804 -0.8403  0.8953 -1.2102
  312MOL0     H42118   0.093   7.317   2.943 -0.0348  1.0706 -2.4702
  312MOL0     H42119   0.253   7.351   3.014  0.4085  1.0757  0.5655
  312MOL0     H42120   0.111   7.457   3.045  2.2386  1.1530  1.7011
  313MOL0     O42121   7.492   5.885   9.918  0.0760  0.1254 -0.0129
  313MOL0     C42122   7.406   5.826   9.988 -0.1199  1.1034  0.7864
  313MOL0     O42123   7.403   5.826  10.118  0.3199  0.1257 -0.1268
  313MOL0     C42124   7.526   5.828  10.180 -0.0298  0.3337  0.3333
  313MOL0     C42125   7.587   5.948  10.197 -0.2379 -0.5588 -0.3620
  313MOL0     C42126   7.721   5.940  10.259  0.0712 -0.0481  0.2216
  313MOL0     C42127   7.772   5.822  10.329 -0.6631 -0.2161  0.2529
  313MOL0     O42128   7.883   5.795  10.404 -0.1042  0.4267 -0.0448
  313MOL0     C42129   7.972   5.905  10.423  0.0017 -0.7074  0.3623
  313MOL0     C42130   8.074   5.849  10.513 -1.2027 -0.8151  0.0178
  313MOL0     C42131   8.025   5.834  10.655 -0.1839 -0.0814  0.3163
  313MOL0     C42132   8.142   5.775  10.736  0.5132 -0.1344  0.2261
  313MOL0     C42133   8.264   5.860  10.761  0.1361  1.1115  0.0834
  313MOL0     C42134   8.370   5.794  10.855  0.8122 -0.1695 -0.0676
  313MOL0     C42135   8.505   5.866  10.865 -0.6076  0.3847 -0.1331
  313MOL0     C42136   8.601   5.804  10.973 -0.4776  0.6858 -0.1246
  313MOL0     N42137   8.652   5.671  10.932 -0.4688  0.7941  0.0903
  313MOL0     C42138   8.784   5.652  10.898  0.1568 -0.3921  0.0341
  313MOL0     C42139   8.788   5.522  10.858  0.0959 -0.4763  0.0580
  313MOL0     C42140   8.915   5.473  10.803 -1.1226 -0.4889 -0.5036
  313MOL0     C42141   9.043   5.468  10.895  0.1279  0.6702  0.1197
  313MOL0     C42142   9.161   5.436  10.810 -0.3109  0.2564 -1.0315
  313MOL0     C42143   9.296   5.486  10.869 -0.4559 -0.0483  0.2587
  313MOL0     O42144   9.392   5.471  10.769  0.3121  0.2802  0.0408
  313MOL0     C42145   9.522   5.493  10.793 -0.2913 -0.0079  0.2074
  313MOL0     C42146   9.571   5.554  10.908 -0.2383  0.4631 -1.2737
  313MOL0     C42147   9.710   5.575  10.926  0.0443 -0.7961  0.3381
  313MOL0     C42148   9.795   5.530  10.817 -0.1177  0.9212 -0.9491
  313MOL0     C42149   9.941   5.534  10.830  0.4903 -0.2247  0.2871
  313MOL0     O42150   9.988   5.528  10.957  0.3413 -0.0311 -0.7802
  313MOL0     C42151  10.115   5.503  11.001 -0.4537  0.0816 -0.1065
  313MOL0     C42152  10.230   5.464  10.926  0.5939  0.6443 -0.1350
  313MOL0     C42153  10.350   5.446  10.990  0.5277 -0.1957 -0.5060
  313MOL0     C42154  10.366   5.486  11.125  0.1141  0.7544  0.1070
  313MOL0     O42155  10.493   5.467  11.184  0.7169 -0.1595  0.0802
  313MOL0     C42156  10.495   5.444  11.329  0.2270 -0.2449 -0.5016
  313MOL0     C42157  10.526   5.565  11.418 -0.2593 -0.7539  0.6278
  313MOL0     C42158  10.643   5.642  11.358  0.2127  0.5307 -1.1810
  313MOL0     C42159  10.763   5.542  11.358 -0.4381 -0.3879 -0.2266
  313MOL0     C42160  10.900   5.609  11.348 -0.3116  0.6940 -0.1027
  313MOL0     C42161  11.005   5.486  11.366 -0.1553 -0.6207 -0.5249
  313MOL0     C42162  11.137   5.567  11.355  0.0560  0.8659 -0.6433
  313MOL0     C42163  11.253   5.465  11.350  0.2624  0.0556 -0.7171
  313MOL0    Cl42164  11.416   5.524  11.391  0.1935 -0.1373  0.1531
  313MOL0     C42165  10.258   5.555  11.192  0.4139 -0.0950 -0.3632
  313MOL0     C42166  10.127   5.557  11.136  0.5927  0.0533 -0.2086
  313MOL0     O42167  10.014   5.530  10.728 -0.8692 -0.0125 -0.3958
  313MOL0     C42168   9.752   5.463  10.709  0.6357 -0.7567  0.6495
  313MOL0     C42169   9.613   5.458  10.690  0.7209  0.8939  0.4347
  313MOL0     N42170   8.660   5.462  10.884 -0.5154  1.1728 -0.8549
  313MOL0     N42171   8.578   5.558  10.922  0.4065 -1.1189  0.4630
  313MOL0     C42172   7.689   5.705  10.314 -0.6248 -0.1296  0.4950
  313MOL0     C42173   7.563   5.714  10.249 -0.1557  0.3338  0.0474
  313MOL0     C42174   7.287   5.775   9.912  0.1693 -0.7929 -0.1854
  313MOL0     C42175   7.211   5.863   9.824  0.0842  0.5357 -0.9519
  313MOL0     C42176   7.108   5.818   9.749  0.9406  0.7261  0.5957
  313MOL0     C42177   7.048   5.692   9.758 -0.0828 -0.5167  0.0785
  313MOL0     O42178   6.938   5.667   9.678 -0.9943 -0.3549 -0.7031
  313MOL0     C42179   6.875   5.538   9.681  0.3906  0.7283  1.1711
  313MOL0     C42180   6.728   5.536   9.637 -0.1429  0.2580 -0.4758
  313MOL0     C42181   6.640   5.584   9.745  0.1354  0.6863  0.4501
  313MOL0     C42182   6.653   5.730   9.773 -0.4208 -0.3935 -0.0304
  313MOL0     C42183   6.568   5.764   9.880  0.0771 -0.2714 -0.5108
  313MOL0     C42184   6.483   5.802   9.958 -0.3513 -0.6923  0.3004
  313MOL0     C42185   7.115   5.612   9.852  0.2858  0.1606  0.1182
  313MOL0     C42186   7.230   5.647   9.925 -0.1082 -0.6511  0.5523
  313MOL0     C42187   7.291   5.546  10.018  0.7189  1.0126  0.0389
  313MOL0     H42188   7.554   6.041  10.152  1.9200 -0.8617 -2.8547
  313MOL0     H42189   7.778   6.031  10.273 -0.7091  0.2496  1.4960
  313MOL0     H42190   8.024   5.928  10.330  1.7483  0.8685  1.6527
  313MOL0     H42191   7.925   5.998  10.456 -0.2316  0.0132 -1.8309
  313MOL0     H42192   8.156   5.920  10.514 -0.7703 -1.3107 -0.0219
  313MOL0     H42193   8.105   5.747  10.488 -2.4787 -1.1997 -0.0830
  313MOL0     H42194   7.945   5.760  10.656  0.3480 -0.7338 -1.4903
  313MOL0     H42195   7.983   5.921  10.706  1.7850  0.8707  0.4042
  313MOL0     H42196   8.095   5.750  10.832  4.4219  0.7101  2.5879
  313MOL0     H42197   8.170   5.686  10.679  1.2465  0.6320 -0.6488
  313MOL0     H42198   8.312   5.880  10.665 -2.4435  1.8758 -1.1289
  313MOL0     H42199   8.236   5.956  10.804  1.8630  2.0099 -0.7018
  313MOL0     H42200   8.329   5.789  10.957  2.2051 -0.6274  0.4865
  313MOL0     H42201   8.382   5.688  10.833 -0.3529 -0.7966  2.0029
  313MOL0     H42202   8.499   5.970  10.896  1.2351 -0.1429  2.2388
  313MOL0     H42203   8.560   5.864  10.771  0.3925  0.0634  0.4404
  313MOL0     H42204   8.690   5.858  11.006 -0.2611  1.9840 -2.5734
  313MOL0     H42205   8.545   5.793  11.066  0.6204 -2.2409  0.3278
  313MOL0     H42206   8.860   5.726  10.922  2.5183 -2.6728 -0.1041
  313MOL0     H42207   8.906   5.368  10.775 -1.1849 -1.1924  1.8989
  313MOL0     H42208   8.931   5.523  10.707  0.2949 -0.1607 -0.1168
  313MOL0     H42209   9.061   5.565  10.943 -1.4207  1.0707 -0.0495
  313MOL0     H42210   9.021   5.394  10.973 -1.4046 -1.9760 -2.6472
  313MOL0     H42211   9.147   5.482  10.712 -2.8337  3.0596  0.4778
  313MOL0     H42212   9.170   5.328  10.795  1.7004  0.5135 -2.0020
  313MOL0     H42213   9.315   5.421  10.955 -1.5926  1.4877  1.7305
  313MOL0     H42214   9.302   5.587  10.911  1.0603  0.3715 -0.9001
  313MOL0     H42215   9.511   5.587  10.992  2.2814  3.6875 -0.5495
  313MOL0     H42216   9.734   5.632  11.016 -1.2458 -0.0534  0.2445
  313MOL0     H42217  10.218   5.427  10.825 -2.2037  1.2692 -0.1151
  313MOL0     H42218  10.438   5.405  10.941  3.2272  3.0612  1.1533
  313MOL0     H42219  10.396   5.410  11.361  1.0770 -3.6451 -1.0921
  313MOL0     H42220  10.558   5.358  11.353  2.4676  1.4381  0.0628
  313MOL0     H42221  10.438   5.630  11.421 -0.1387 -0.4535 -1.4040
  313MOL0     H42222  10.557   5.545  11.522  1.2096 -0.9779  0.1697
  313MOL0     H42223  10.616   5.680  11.259 -3.7883  2.4480  0.4307
  313MOL0     H42224  10.661   5.730  11.422  0.4712  1.4844 -2.5299
  313MOL0     H42225  10.744   5.468  11.279  1.0611 -2.0754  0.9078
  313MOL0     H42226  10.767   5.486  11.452 -0.3335 -0.1404 -0.0853
  313MOL0     H42227  10.917   5.695  11.415 -1.6467  0.9416 -0.0495
  313MOL0     H42228  10.912   5.646  11.246 -0.9715 -1.2807 -0.9410
  313MOL0     H42229  10.996   5.458  11.471  1.1041  1.7834  0.3099
  313MOL0     H42230  10.982   5.412  11.289 -1.4924 -2.4232  1.5011
  313MOL0     H42231  11.151   5.629  11.444 -1.9589 -1.1739  1.2090
  313MOL0     H42232  11.135   5.625  11.261  0.3531 -1.0444 -1.8859
  313MOL0     H42233  11.229   5.385  11.421 -0.3584  0.8830  0.0270
  313MOL0     H42234  11.251   5.430  11.247 -1.9085  3.5128 -2.0307
  313MOL0     H42235  10.276   5.605  11.287 -0.2400  1.5172 -1.0422
  313MOL0     H42236  10.042   5.587  11.196  0.9841 -4.1449  2.9257
  313MOL0     H42237   9.819   5.419  10.635  0.7467  1.0017 -0.3503
  313MOL0     H42238   9.566   5.426  10.598  2.7839  1.6419 -0.9257
  313MOL0     H42239   7.727   5.611  10.354  0.7356  0.2081  0.0628
  313MOL0     H42240   7.496   5.630  10.236 -3.2741  2.8436 -1.5154
  313MOL0     H42241   7.240   5.967   9.811  5.1559 -0.5768 -0.6507
  313MOL0     H42242   7.062   5.898   9.692 -0.6186  0.0679  0.8660
  313MOL0     H42243   6.887   5.490   9.779  1.6869  1.3185  1.3262
  313MOL0     H42244   6.927   5.478   9.606 -0.7880  1.2095 -0.0716
  313MOL0     H42245   6.705   5.433   9.610  0.7422  0.5599 -2.5849
  313MOL0     H42246   6.720   5.606   9.552 -0.6783  2.3434  1.2039
  313MOL0     H42247   6.667   5.527   9.835  0.5837 -0.2118 -0.2354
  313MOL0     H42248   6.541   5.556   9.708  1.0640  0.2841 -1.9339
  313MOL0     H42249   6.759   5.751   9.793  0.2056 -0.2091 -3.0270
  313MOL0     H42250   6.612   5.776   9.683 -0.8280  2.3021  1.4044
  313MOL0     H42251   6.414   5.852  10.022 -0.2663 -0.5025  0.2458
  313MOL0     H42252   7.076   5.511   9.858  1.2131 -0.2889 -1.0970
  313MOL0     H42253   7.273   5.573  10.122  1.3750  0.2175  0.3704
  313MOL0     H42254   7.238   5.452  10.000 -0.7356  1.6231  0.9098
  313MOL0     H42255   7.399   5.538  10.002  0.3466  0.7173 -2.9820
  314MOL0     O42256   4.134   1.152   9.637 -0.1876 -0.4977 -0.1877
  314MOL0     C42257   4.236   1.084   9.653  0.2691 -0.5146 -0.3341
  314MOL0     O42258   4.353   1.134   9.714 -0.8172 -0.2565  0.2605
  314MOL0     C42259   4.367   1.269   9.701  0.2714 -0.0968  0.8575
  314MOL0     C42260   4.411   1.338   9.811  0.5237 -0.6566 -0.7972
  314MOL0     C42261   4.431   1.474   9.809 -0.2682 -0.4598 -0.1169
  314MOL0     C42262   4.410   1.550   9.688 -0.0128  0.2849 -0.2222
  314MOL0     O42263   4.423   1.691   9.691  0.2523  0.5407 -1.6233
  314MOL0     C42264   4.469   1.756   9.572 -0.3693  0.7335  0.9836
  314MOL0     C42265   4.548   1.883   9.607 -0.1844  0.0397  0.3768
  314MOL0     C42266   4.680   1.864   9.678 -0.5479  0.1089  0.3647
  314MOL0     C42267   4.793   1.834   9.582 -0.7512 -0.1426  0.8338
  314MOL0     C42268   4.928   1.812   9.668  0.8081  0.1595  0.0939
  314MOL0     C42269   5.041   1.781   9.562  0.2992 -0.0206 -0.0605
  314MOL0     C42270   5.159   1.745   9.650 -0.1823 -0.2538 -0.0604
  314MOL0     C42271   5.268   1.683   9.571  0.1479  0.9378 -0.4574
  314MOL0     N42272   5.279   1.734   9.433  0.1378  0.4894  0.2508
  314MOL0     C42273   5.252   1.667   9.318 -0.4960 -0.5314  0.7465
  314MOL0     C42274   5.266   1.755   9.213 -0.4290  0.0293  0.5592
  314MOL0     C42275   5.237   1.727   9.068  0.6843  0.6366  0.3168
  314MOL0     C42276   5.356   1.681   8.981 -0.1260  0.9655 -0.8511
  314MOL0     C42277   5.314   1.650   8.835 -0.6192  0.6424 -0.3432
  314MOL0     C42278   5.287   1.501   8.825  0.8751  0.1553  0.5921
  314MOL0     O42279   5.200   1.490   8.718 -0.8495  0.5283  0.0409
  314MOL0     C42280   5.158   1.367   8.680 -0.0515  0.9791  0.2611
  314MOL0     C42281   5.080   1.359   8.566  0.9404 -0.0670  0.2362
  314MOL0     C42282   5.042   1.231   8.508 -0.0093  0.8261 -0.7980
  314MOL0     C42283   5.055   1.113   8.585  0.0935  0.3939  0.4412
  314MOL0     C42284   5.013   0.981   8.535 -0.2577 -0.0607 -0.0244
  314MOL0     O42285   4.901   0.982   8.470  0.1122 -0.2345  1.0466
  314MOL0     C42286   4.891   0.896   8.364 -0.9875  0.2729 -0.3906
  314MOL0     C42287   4.771   0.890   8.297 -0.4434 -0.5526  0.2971
  314MOL0     C42288   4.758   0.802   8.180  0.5526  0.8329  0.3271
  314MOL0     C42289   4.865   0.727   8.128 -0.1893  1.2729 -0.3159
  314MOL0     O42290   4.845   0.645   8.019 -1.3129  0.1304 -0.4580
  314MOL0     C42291   4.949   0.643   7.926 -0.0881 -0.3462  0.2533
  314MOL0     C42292   4.901   0.582   7.792  0.2611 -0.1450 -0.7743
  314MOL0     C42293   4.781   0.646   7.725  0.4059 -0.6394  0.0712
  314MOL0     C42294   4.658   0.563   7.744  0.5620  0.0775 -0.2166
  314MOL0     C42295   4.533   0.655   7.707  0.1257 -0.2756 -0.6354
  314MOL0     C42296   4.401   0.584   7.711 -0.2156  0.1290  0.3555
  314MOL0     C42297   4.277   0.674   7.683  0.4156 -0.2663 -0.3564
  314MOL0     C42298   4.165   0.595   7.610 -0.2811  0.6714  0.4447
  314MOL0    Cl42299   4.042   0.710   7.549 -0.2324  0.8639  0.0122
  314MOL0     C42300   4.988   0.754   8.183 -0.8562  0.2462 -0.9445
  314MOL0     C42301   5.001   0.835   8.300 -0.1595  0.0666  0.1388
  314MOL0     O42302   5.079   0.885   8.576 -0.1660  0.4720  0.3930
  314MOL0     C42303   5.119   1.117   8.709  0.3437  0.0607 -0.0981
  314MOL0     C42304   5.182   1.240   8.746 -0.8576 -1.0295 -0.4718
  314MOL0     N42305   5.305   1.874   9.269  0.1336  0.3554  0.9343
  314MOL0     N42306   5.325   1.856   9.403 -0.1388  0.0488  0.6894
  314MOL0     C42307   4.358   1.475   9.575 -0.6324  0.1876 -0.0317
  314MOL0     C42308   4.344   1.335   9.586  0.3464  0.4923 -0.1896
  314MOL0     C42309   4.227   0.930   9.624 -0.6317 -0.4146 -0.5247
  314MOL0     C42310   4.315   0.858   9.705 -0.7241 -0.1977  0.1636
  314MOL0     C42311   4.324   0.720   9.686 -0.8508  0.4188 -0.0671
  314MOL0     C42312   4.246   0.655   9.593 -0.1072 -0.3401  0.1502
  314MOL0     O42313   4.254   0.521   9.555  0.4394  0.5235 -0.0040
  314MOL0     C42314   4.365   0.493   9.464  0.8023  0.5843  0.1102
  314MOL0     C42315   4.493   0.459   9.542  0.2828 -0.1525  1.5928
  314MOL0     C42316   4.474   0.346   9.650 -0.7203 -0.5315 -0.5304
  314MOL0     C42317   4.603   0.308   9.727  0.0175  0.7150  1.1547
  314MOL0     C42318   4.647   0.422   9.809  1.2549 -1.0588  0.3478
  314MOL0     C42319   4.652   0.510   9.892  0.1863 -0.1243  0.5982
  314MOL0     C42320   4.147   0.732   9.530 -0.8640  0.0998  0.1458
  314MOL0     C42321   4.146   0.871   9.532  0.1866 -0.2152 -0.2505
  314MOL0     C42322   4.062   0.952   9.436 -0.1056  0.2042  0.1386
  314MOL0     H42323   4.437   1.278   9.898  2.1223  1.7423  0.5080
  314MOL0     H42324   4.476   1.517   9.897  0.0096  2.3610 -1.5185
  314MOL0     H42325   4.523   1.685   9.509 -1.9571 -1.5289  2.0566
  314MOL0     H42326   4.380   1.791   9.520  0.2851  0.3355 -0.4536
  314MOL0     H42327   4.486   1.940   9.677 -1.7238 -0.2734 -0.6803
  314MOL0     H42328   4.572   1.954   9.528 -0.7723  1.4450  1.4230
  314MOL0     H42329   4.671   1.790   9.759  1.9498 -1.9337 -1.0386
  314MOL0     H42330   4.700   1.954   9.736  1.8826  0.6850 -1.2009
  314MOL0     H42331   4.774   1.752   9.513  0.3895 -1.9144  2.4845
  314MOL0     H42332   4.801   1.918   9.513 -1.5091  1.3275  2.4698
  314MOL0     H42333   4.955   1.907   9.714  3.1143 -0.2405 -0.3235
  314MOL0     H42334   4.909   1.725   9.732 -2.4597 -0.0974 -1.0298
  314MOL0     H42335   5.026   1.691   9.502  2.0042 -0.5162  0.1866
  314MOL0     H42336   5.051   1.869   9.497 -2.0880  1.0561  0.8985
  314MOL0     H42337   5.132   1.685   9.737 -0.3961 -3.2229 -2.0629
  314MOL0     H42338   5.190   1.841   9.693  0.0589 -0.5797  0.5056
  314MOL0     H42339   5.367   1.688   9.617 -0.6131 -1.7845  1.7174
  314MOL0     H42340   5.237   1.579   9.584  0.0516  1.3306  3.4208
  314MOL0     H42341   5.207   1.568   9.313 -2.8043  0.4797 -0.2368
  314MOL0     H42342   5.166   1.645   9.075  1.5582  0.0289  3.5230
  314MOL0     H42343   5.181   1.810   9.023 -1.7213 -1.2358 -0.3315
  314MOL0     H42344   5.437   1.754   8.986 -2.4707  3.8192 -1.6090
  314MOL0     H42345   5.405   1.595   9.027 -3.4314 -0.8005 -0.2923
  314MOL0     H42346   5.393   1.686   8.769  1.4824 -0.0351  1.6854
  314MOL0     H42347   5.222   1.699   8.800 -1.2604 -1.8897 -2.5281
  314MOL0     H42348   5.242   1.468   8.919  1.2185 -1.3071  0.2620
  314MOL0     H42349   5.385   1.453   8.824  1.0799  0.5634  0.9325
  314MOL0     H42350   5.051   1.444   8.505 -2.0117 -0.9233  0.2936
  314MOL0     H42351   4.984   1.239   8.417  2.3304 -3.4928 -3.0198
  314MOL0     H42352   4.684   0.936   8.343 -1.6099 -0.4536 -1.8846
  314MOL0     H42353   4.661   0.779   8.137  1.0613 -0.0386 -0.4071
  314MOL0     H42354   4.970   0.746   7.896 -2.4175 -0.0434 -0.5068
  314MOL0     H42355   5.035   0.581   7.955 -2.0780 -3.0703  0.7333
  314MOL0     H42356   4.992   0.577   7.732  1.4594 -0.5374  0.9959
  314MOL0     H42357   4.872   0.479   7.814  1.7478  0.0842  3.1367
  314MOL0     H42358   4.756   0.741   7.772 -2.1406 -2.9358  3.8894
  314MOL0     H42359   4.792   0.654   7.616  1.1275  0.4796  0.2085
  314MOL0     H42360   4.644   0.520   7.844  0.3152 -0.3025 -0.4156
  314MOL0     H42361   4.654   0.481   7.673 -2.7002  1.1192 -1.4420
  314MOL0     H42362   4.544   0.711   7.614  0.3112 -0.5606 -0.7839
  314MOL0     H42363   4.523   0.738   7.778 -0.4564  0.8711 -2.0056
  314MOL0     H42364   4.393   0.496   7.646 -0.0960 -0.7537  1.5149
  314MOL0     H42365   4.388   0.535   7.808  1.5880 -0.4797  0.3393
  314MOL0     H42366   4.318   0.758   7.625 -0.7995  0.1927 -0.5740
  314MOL0     H42367   4.241   0.728   7.770  0.7166 -0.2665 -0.2298
  314MOL0     H42368   4.197   0.516   7.541 -0.6344 -0.0345  1.0807
  314MOL0     H42369   4.119   0.542   7.694 -1.5139  0.9550 -0.0276
  314MOL0     H42370   5.076   0.696   8.156  0.6939  0.4182  3.0542
  314MOL0     H42371   5.097   0.838   8.351 -0.7644  0.9797  1.2509
  314MOL0     H42372   5.133   1.029   8.772  0.8102  0.4231  0.3163
  314MOL0     H42373   5.233   1.251   8.841 -2.0415  1.0030 -0.0196
  314MOL0     H42374   4.341   1.515   9.476 -3.1709 -0.4382  0.0759
  314MOL0     H42375   4.340   1.279   9.493  4.4617 -0.5473  0.0835
  314MOL0     H42376   4.356   0.895   9.799 -1.4890  0.1170  0.3796
  314MOL0     H42377   4.395   0.664   9.745  2.1270 -2.5862 -5.6913
  314MOL0     H42378   4.375   0.570   9.387 -3.5418  1.9931  0.6923
  314MOL0     H42379   4.337   0.398   9.419  1.7231 -1.1041  2.8800
  314MOL0     H42380   4.522   0.557   9.579  0.7389  1.0921 -1.7125
  314MOL0     H42381   4.564   0.435   9.463 -2.8326 -0.1132 -1.4945
  314MOL0     H42382   4.437   0.254   9.604 -0.2215 -1.1245  0.2374
  314MOL0     H42383   4.400   0.381   9.723  0.4669  2.9075 -0.7699
  314MOL0     H42384   4.591   0.222   9.793  0.7021  0.6817  1.2408
  314MOL0     H42385   4.681   0.278   9.657  0.0403  0.4743  1.2824
  314MOL0     H42386   4.654   0.598   9.953 -0.8086 -0.7619  1.5997
  314MOL0     H42387   4.092   0.673   9.457  1.6001 -4.0308  1.2743
  314MOL0     H42388   4.045   0.896   9.344 -1.3188 -3.0353  2.1672
  314MOL0     H42389   3.965   0.979   9.478 -0.3584  2.7943 -1.8338
  314MOL0     H42390   4.109   1.043   9.398  1.9463 -1.0455 -0.4641
  315MOL0     O42391   4.513   5.327   5.234 -0.2234  0.2114  0.6794
  315MOL0     C42392   4.444   5.418   5.269  0.4623  0.5091 -0.4765
  315MOL0     O42393   4.491   5.535   5.305  0.3747 -0.5748 -0.4418
  315MOL0     C42394   4.621   5.565   5.274  0.0620 -0.7174  0.0321
  315MOL0     C42395   4.691   5.628   5.372  0.4446  0.4651  0.4307
  315MOL0     C42396   4.818   5.673   5.368  0.1859 -0.0575  0.0024
  315MOL0     C42397   4.890   5.648   5.249  0.7953 -0.4254  0.4534
  315MOL0     O42398   5.024   5.690   5.240  0.3018  0.1939 -0.1147
  315MOL0     C42399   5.103   5.688   5.116 -0.3768 -0.2775  0.1636
  315MOL0     C42400   5.093   5.822   5.042 -0.3097 -0.3908  0.1797
  315MOL0     C42401   5.195   5.825   4.919  0.6315 -0.5187  0.0920
  315MOL0     C42402   5.335   5.830   4.967 -0.4652  0.8415  0.2239
  315MOL0     C42403   5.436   5.864   4.862  0.0608 -0.7444  0.4696
  315MOL0     C42404   5.570   5.883   4.932  0.4808 -0.8182  0.1800
  315MOL0     C42405   5.649   5.752   4.966  0.3696 -0.5373  0.8957
  315MOL0     C42406   5.744   5.763   5.081  0.1164  0.1114 -0.1535
  315MOL0     N42407   5.669   5.763   5.208  0.2629  0.9070  0.0224
  315MOL0     C42408   5.611   5.650   5.263  0.6329 -0.4264  0.7576
  315MOL0     C42409   5.518   5.692   5.358 -0.6501  0.0675  0.1898
  315MOL0     C42410   5.427   5.618   5.452  0.5740  0.4747 -0.2774
  315MOL0     C42411   5.488   5.594   5.590 -0.4455  0.5322 -0.3561
  315MOL0     C42412   5.378   5.529   5.679  0.0291  0.0810 -0.5314
  315MOL0     C42413   5.412   5.560   5.832 -1.0864 -0.2470  1.0145
  315MOL0     O42414   5.514   5.480   5.887  0.1807 -0.1813  0.3826
  315MOL0     C42415   5.552   5.496   6.016  0.2008 -0.1312  0.2156
  315MOL0     C42416   5.481   5.539   6.130  1.2043  0.8601  0.6112
  315MOL0     C42417   5.537   5.528   6.252  0.0593  0.4701  0.1879
  315MOL0     C42418   5.665   5.488   6.272  0.9769  0.1041  0.3850
  315MOL0     C42419   5.724   5.480   6.410  0.5200  0.1798 -0.3059
  315MOL0     O42420   5.813   5.388   6.443 -0.4249  0.3392 -0.3531
  315MOL0     C42421   5.920   5.418   6.523  0.0044  0.4036  0.1575
  315MOL0     C42422   5.962   5.553   6.567  1.2215  0.7717 -0.2009
  315MOL0     C42423   6.070   5.573   6.649  0.8720 -0.2401 -0.2332
  315MOL0     C42424   6.147   5.466   6.681  0.8293 -0.8327 -0.0725
  315MOL0     O42425   6.262   5.475   6.757  0.4587  0.4786  0.0215
  315MOL0     C42426   6.330   5.595   6.777  0.5769  0.4274 -0.0594
  315MOL0     C42427   6.460   5.569   6.852 -0.1300  1.1218  0.6446
  315MOL0     C42428   6.551   5.473   6.774 -0.9428  0.6592 -0.2949
  315MOL0     C42429   6.683   5.455   6.863 -0.0791  0.0274 -0.0042
  315MOL0     C42430   6.757   5.340   6.808  1.2103  0.3204  0.3009
  315MOL0     C42431   6.883   5.302   6.894 -0.1999 -0.1281 -0.4860
  315MOL0     C42432   6.975   5.197   6.831 -0.6524  0.2759  0.5689
  315MOL0     C42433   7.113   5.191   6.898  0.4789  0.2113  0.0507
  315MOL0    Cl42434   7.085   5.089   7.040 -0.5294  0.0685  0.3791
  315MOL0     C42435   6.106   5.340   6.642 -0.4237 -0.0084 -0.0825
  315MOL0     C42436   5.994   5.315   6.565  0.3019 -0.4949  0.3431
  315MOL0     O42437   5.673   5.561   6.490 -0.4099  0.5429 -0.2600
  315MOL0     C42438   5.735   5.465   6.158  0.5230 -0.5561 -0.5327
  315MOL0     C42439   5.682   5.465   6.034 -0.4189  0.4406 -0.5859
  315MOL0     N42440   5.513   5.829   5.352 -0.0668  0.0775 -0.2361
  315MOL0     N42441   5.602   5.872   5.262 -1.1905 -0.0391  0.3701
  315MOL0     C42442   4.823   5.586   5.144 -0.1634 -0.4698 -0.1287
  315MOL0     C42443   4.689   5.544   5.154 -0.4798 -0.5710  0.6791
  315MOL0     C42444   4.296   5.412   5.281 -0.9244 -0.2430 -0.4198
  315MOL0     C42445   4.224   5.537   5.281  0.7018 -0.1935 -0.0610
  315MOL0     C42446   4.088   5.547   5.295  0.2005  0.6220  0.2448
  315MOL0     C42447   4.017   5.423   5.310  1.1044  0.5273  0.6031
  315MOL0     O42448   3.886   5.416   5.320  0.0775  0.7738 -0.1866
  315MOL0     C42449   3.826   5.470   5.205 -0.6370  0.2743 -0.0577
  315MOL0     C42450   3.676   5.452   5.203 -0.5392 -0.3511 -0.2601
  315MOL0     C42451   3.600   5.527   5.317 -0.2514 -0.3687 -0.1333
  315MOL0     C42452   3.628   5.681   5.325 -0.5028 -0.6316  1.0405
  315MOL0     C42453   3.567   5.747   5.204 -0.6105 -0.7263  0.6710
  315MOL0     C42454   3.537   5.815   5.104 -0.6721  0.5168  0.2824
  315MOL0     C42455   4.087   5.301   5.314  0.2690 -0.6683 -0.7454
  315MOL0     C42456   4.223   5.289   5.294 -0.2302 -0.6916 -1.4581
  315MOL0     C42457   4.290   5.158   5.299 -0.1236 -0.6599 -0.4003
  315MOL0     H42458   4.657   5.626   5.475  0.5294  0.4507  0.4579
  315MOL0     H42459   4.861   5.724   5.453 -0.8825 -0.1169  0.5963
  315MOL0     H42460   5.205   5.671   5.151 -1.2178 -1.6103  2.1003
  315MOL0     H42461   5.071   5.612   5.044 -0.9122  0.4159 -0.3450
  315MOL0     H42462   5.124   5.898   5.115 -0.4711 -0.9204  0.8033
  315MOL0     H42463   4.992   5.833   5.002  0.3305 -0.6926 -1.6426
  315MOL0     H42464   5.182   5.916   4.860 -1.8881 -0.1020  1.1824
  315MOL0     H42465   5.191   5.740   4.849  1.3649  0.6205 -1.3922
  315MOL0     H42466   5.342   5.910   5.042  0.0133  0.6974  0.3364
  315MOL0     H42467   5.367   5.739   5.020  1.2167  1.3695  0.1854
  315MOL0     H42468   5.446   5.792   4.781 -2.6402  1.4976 -2.0972
  315MOL0     H42469   5.402   5.961   4.823 -2.2316 -0.9426  1.8448
  315MOL0     H42470   5.633   5.937   4.860  2.6880 -1.6187  1.4160
  315MOL0     H42471   5.561   5.947   5.020 -0.8079  0.0362 -0.5423
  315MOL0     H42472   5.710   5.739   4.876  0.8495  3.0547  0.5492
  315MOL0     H42473   5.587   5.662   4.969  0.2716 -0.4604  2.9766
  315MOL0     H42474   5.814   5.679   5.079  0.7185  0.5751 -3.6979
  315MOL0     H42475   5.784   5.865   5.076 -1.1681  0.7699  1.7191
  315MOL0     H42476   5.638   5.551   5.227  1.0842  0.6627 -2.0909
  315MOL0     H42477   5.333   5.675   5.451  0.9699  1.2463 -3.4156
  315MOL0     H42478   5.404   5.524   5.400 -3.8232  1.2403 -0.1429
  315MOL0     H42479   5.575   5.531   5.570 -0.9216 -0.4067  0.4251
  315MOL0     H42480   5.515   5.685   5.643  0.3140  1.3665 -2.0870
  315MOL0     H42481   5.379   5.423   5.651 -0.2584 -1.2401  3.6963
  315MOL0     H42482   5.278   5.569   5.661  0.6259  2.6994  1.3795
  315MOL0     H42483   5.323   5.554   5.895 -1.3287 -2.0926  0.5514
  315MOL0     H42484   5.446   5.664   5.830 -2.3573  0.2362  2.5006
  315MOL0     H42485   5.378   5.573   6.128  0.6460 -0.6864 -1.7622
  315MOL0     H42486   5.496   5.577   6.340  3.6358  1.1792  1.6199
  315MOL0     H42487   5.902   5.641   6.544  2.9527  2.1503  0.3104
  315MOL0     H42488   6.092   5.672   6.689 -0.2407 -0.2120  0.3518
  315MOL0     H42489   6.354   5.651   6.686  4.0810  0.5142  0.7810
  315MOL0     H42490   6.260   5.661   6.830 -0.3257  0.4014 -1.1520
  315MOL0     H42491   6.508   5.663   6.878  1.2155  0.2009  1.6155
  315MOL0     H42492   6.420   5.529   6.946  0.9515  0.3423  0.7857
  315MOL0     H42493   6.506   5.375   6.754 -1.2403  0.7798 -0.2327
  315MOL0     H42494   6.577   5.500   6.672 -1.2957  1.5019 -0.1729
  315MOL0     H42495   6.655   5.431   6.966  0.5640  1.1250  0.4406
  315MOL0     H42496   6.746   5.544   6.854  0.4981 -0.3447  0.2534
  315MOL0     H42497   6.795   5.360   6.708  0.7676 -0.4867 -0.0385
  315MOL0     H42498   6.687   5.257   6.797  0.9122  0.7728 -1.5848
  315MOL0     H42499   6.946   5.390   6.910  2.9628 -2.3341  0.2369
  315MOL0     H42500   6.845   5.271   6.992  0.5733  2.0938  0.5763
  315MOL0     H42501   6.990   5.229   6.728  1.3653 -1.0284  0.4255
  315MOL0     H42502   6.921   5.102   6.835 -2.9469  1.5081  1.3223
  315MOL0     H42503   7.175   5.136   6.827 -0.6435 -0.2110 -0.6330
  315MOL0     H42504   7.161   5.286   6.923 -1.9702  2.0514 -1.7412
  315MOL0     H42505   6.175   5.260   6.668  0.0530  0.6081  0.6000
  315MOL0     H42506   5.984   5.209   6.540  0.7490 -1.3750  3.4306
  315MOL0     H42507   5.840   5.439   6.169 -0.0491 -2.9629 -0.1545
  315MOL0     H42508   5.758   5.448   5.957  2.2075 -1.1067  2.1203
  315MOL0     H42509   4.886   5.571   5.057  0.3826  1.2220 -0.0637
  315MOL0     H42510   4.644   5.504   5.064 -1.3556  2.1511 -0.2052
  315MOL0     H42511   4.280   5.630   5.277  2.4773 -1.2386 -1.9758
  315MOL0     H42512   4.028   5.638   5.295  1.3844  1.4290  0.9814
  315MOL0     H42513   3.867   5.442   5.108 -2.9177  1.2767 -1.3976
  315MOL0     H42514   3.841   5.578   5.202  0.8735  0.0847  0.0427
  315MOL0     H42515   3.652   5.346   5.206  1.5722 -0.9003  3.7580
  315MOL0     H42516   3.646   5.484   5.102 -0.1620 -3.1378 -1.3578
  315MOL0     H42517   3.635   5.466   5.400 -2.2618 -1.9625 -0.3799
  315MOL0     H42518   3.492   5.507   5.315 -1.1240  3.4057  1.1441
  315MOL0     H42519   3.593   5.726   5.418  2.8902 -1.7530  3.0357
  315MOL0     H42520   3.735   5.705   5.316 -0.6506 -0.0717  0.6742
  315MOL0     H42521   3.517   5.873   5.016 -1.6253  2.6549  1.8217
  315MOL0     H42522   4.039   5.207   5.337  0.7744 -0.7031  0.2133
  315MOL0     H42523   4.330   5.144   5.400  1.7781 -0.8186 -1.1412
  315MOL0     H42524   4.218   5.078   5.280 -1.4094 -0.2494  2.1685
  315MOL0     H42525   4.357   5.150   5.214  0.5384  6.5424 -1.1516
  316MOL0     O42526   2.242   4.702   6.279  0.3377  0.0493 -0.0910
  316MOL0     C42527   2.198   4.813   6.255  0.3578  0.0302 -0.4082
  316MOL0     O42528   2.259   4.923   6.189 -0.2711  0.3438  0.5129
  316MOL0     C42529   2.392   4.900   6.166 -0.2774 -1.1316 -0.1365
  316MOL0     C42530   2.424   4.841   6.044 -0.3384 -0.7377 -0.1012
  316MOL0     C42531   2.559   4.823   6.012 -0.0354 -0.2707 -0.1269
  316MOL0     C42532   2.662   4.861   6.099 -0.1216 -0.6836 -0.5767
  316MOL0     O42533   2.788   4.826   6.073 -0.6506  0.4988 -0.3838
  316MOL0     C42534   2.876   4.849   6.193  0.1945  0.2289  0.8294
  316MOL0     C42535   3.020   4.801   6.167  0.5174  0.0860 -0.1365
  316MOL0     C42536   3.029   4.650   6.146  1.4887  1.0074  0.2854
  316MOL0     C42537   3.166   4.589   6.107 -0.2097  0.1017  0.1737
  316MOL0     C42538   3.252   4.590   6.227  0.0812  0.2655 -0.3199
  316MOL0     C42539   3.384   4.511   6.192 -0.1049 -0.0852 -0.8521
  316MOL0     C42540   3.470   4.551   6.323 -0.1166 -0.0263  1.3056
  316MOL0     C42541   3.617   4.538   6.291  0.2768 -0.0042 -0.7568
  316MOL0     N42542   3.661   4.403   6.264  0.6492 -0.1553  0.1109
  316MOL0     C42543   3.672   4.297   6.350  0.2413  0.3261  0.6809
  316MOL0     C42544   3.728   4.194   6.290  0.2966 -0.9664  0.2267
  316MOL0     C42545   3.730   4.053   6.344 -0.9253  0.7653 -0.4184
  316MOL0     C42546   3.599   3.978   6.307  0.0759 -0.3165 -0.7320
  316MOL0     C42547   3.616   3.828   6.260  0.5591 -0.3393  0.2411
  316MOL0     C42548   3.483   3.760   6.239 -1.0691  0.1171 -0.1999
  316MOL0     O42549   3.420   3.749   6.368  0.4077 -0.5765  0.6119
  316MOL0     C42550   3.291   3.697   6.365 -0.3873 -1.0516 -1.3966
  316MOL0     C42551   3.216   3.703   6.485 -0.5833 -0.0618  0.8033
  316MOL0     C42552   3.081   3.659   6.490  0.4557 -0.1109  0.9542
  316MOL0     C42553   3.024   3.617   6.371 -0.5510  0.6078  0.5738
  316MOL0     C42554   2.881   3.568   6.382  0.3842 -0.6188 -0.3816
  316MOL0     O42555   2.824   3.586   6.501 -0.0094 -0.2974  0.3768
  316MOL0     C42556   2.695   3.555   6.517  0.3798  0.6019  0.1439
  316MOL0     C42557   2.603   3.602   6.421 -0.9270 -0.5435 -0.1608
  316MOL0     C42558   2.466   3.597   6.450  0.1926 -0.0117 -0.0921
  316MOL0     C42559   2.423   3.558   6.578 -0.7371 -0.5692  0.5064
  316MOL0     O42560   2.295   3.563   6.625  0.3520  0.6067  0.6016
  316MOL0     C42561   2.204   3.640   6.550  0.3006 -0.2059 -0.0159
  316MOL0     C42562   2.073   3.647   6.644 -0.0439  0.6399  0.8858
  316MOL0     C42563   1.956   3.736   6.594  1.3124  0.3678  0.0688
  316MOL0     C42564   1.845   3.745   6.701  0.2687 -0.3853  0.0095
  316MOL0     C42565   1.716   3.819   6.646  0.2367  0.5186  0.1074
  316MOL0     C42566   1.606   3.844   6.744  0.8243  0.2047 -0.1782
  316MOL0     C42567   1.561   3.725   6.823 -0.7579  0.4211 -0.6484
  316MOL0     C42568   1.418   3.766   6.874 -0.6492  0.3859  0.0424
  316MOL0    Cl42569   1.430   3.866   7.023  0.6510  0.0814  0.0976
  316MOL0     C42570   2.518   3.518   6.671  1.1267 -0.2641  0.4958
  316MOL0     C42571   2.653   3.509   6.645 -0.6920  0.7592  0.6852
  316MOL0     O42572   2.835   3.503   6.286  0.3360 -0.4819 -0.3053
  316MOL0     C42573   3.095   3.604   6.253 -0.3517 -0.5738 -0.3251
  316MOL0     C42574   3.224   3.653   6.255  0.3149  0.2627  0.1337
  316MOL0     N42575   3.754   4.236   6.157 -0.2275  0.9200  0.8104
  316MOL0     N42576   3.719   4.362   6.147  0.0727 -0.0795 -0.6130
  316MOL0     C42577   2.626   4.949   6.213 -0.5180  0.0528 -0.1597
  316MOL0     C42578   2.491   4.968   6.236  0.2055  0.4354 -0.7853
  316MOL0     C42579   2.064   4.841   6.313  1.0191 -1.1845  0.2760
  316MOL0     C42580   2.020   4.976   6.299  0.8679 -0.9497  0.3689
  316MOL0     C42581   1.885   5.017   6.336  1.1645 -0.8829  0.1185
  316MOL0     C42582   1.793   4.932   6.403 -0.1650  0.7651  0.4083
  316MOL0     O42583   1.674   4.956   6.458  0.3337 -0.3245 -0.1816
  316MOL0     C42584   1.651   5.093   6.481 -1.1914  0.2281 -0.9000
  316MOL0     C42585   1.551   5.093   6.604  0.0278 -0.2332  0.2186
  316MOL0     C42586   1.404   5.030   6.579  0.3416  0.4648  0.4834
  316MOL0     C42587   1.333   4.989   6.708 -0.0540  0.2664  0.6495
  316MOL0     C42588   1.288   5.114   6.760  0.7984  0.4290 -0.5470
  316MOL0     C42589   1.263   5.224   6.802 -0.4016  0.0349  0.0926
  316MOL0     C42590   1.843   4.801   6.416  0.2876 -0.3292 -1.2349
  316MOL0     C42591   1.966   4.756   6.374 -0.9788  1.3865 -0.3690
  316MOL0     C42592   2.003   4.620   6.426  0.0188  0.0265 -0.3973
  316MOL0     H42593   2.344   4.801   5.983  0.3003 -0.8205 -0.9020
  316MOL0     H42594   2.573   4.770   5.917  0.5632  0.1929 -0.3032
  316MOL0     H42595   2.892   4.956   6.213  0.3212  0.4431 -0.3372
  316MOL0     H42596   2.824   4.797   6.274 -0.3560  1.2228  1.1297
  316MOL0     H42597   3.079   4.817   6.259 -0.6134  0.1792  0.5865
  316MOL0     H42598   3.064   4.856   6.084 -0.1360 -1.2215 -1.3843
  316MOL0     H42599   2.966   4.618   6.063 -0.1345  0.4910  1.6474
  316MOL0     H42600   2.982   4.593   6.227  1.2890  1.3106  0.3841
  316MOL0     H42601   3.157   4.487   6.069  3.6171 -0.0641 -0.6617
  316MOL0     H42602   3.220   4.650   6.034  0.2920  3.2217  2.8879
  316MOL0     H42603   3.272   4.693   6.258 -0.5027  0.7005 -1.3393
  316MOL0     H42604   3.215   4.542   6.319  4.0821  1.8189  2.3731
  316MOL0     H42605   3.360   4.404   6.184 -2.1230  0.1180  1.3189
  316MOL0     H42606   3.416   4.556   6.098  1.0137  1.3903  0.1767
  316MOL0     H42607   3.451   4.481   6.405  1.3538  0.2283  1.8985
  316MOL0     H42608   3.453   4.653   6.359  0.4116  0.5225  0.0563
  316MOL0     H42609   3.644   4.601   6.205 -0.3250 -1.3110 -1.9414
  316MOL0     H42610   3.673   4.575   6.377 -0.9218  0.8191 -0.2941
  316MOL0     H42611   3.620   4.291   6.446 -0.8203 -2.8063  0.0427
  316MOL0     H42612   3.804   4.001   6.283  0.6327  2.1154  0.2326
  316MOL0     H42613   3.760   4.044   6.449  1.3598  1.5006 -0.9650
  316MOL0     H42614   3.532   3.983   6.393  0.5571 -2.8009 -0.1343
  316MOL0     H42615   3.552   4.024   6.220  0.2377  0.0279 -0.6402
  316MOL0     H42616   3.674   3.783   6.340  0.7201  0.9230  0.8663
  316MOL0     H42617   3.670   3.817   6.165 -0.2185 -0.5946 -0.1802
  316MOL0     H42618   3.499   3.659   6.199 -0.7004  0.8806 -2.0275
  316MOL0     H42619   3.428   3.822   6.169  2.3439  0.2176 -3.0687
  316MOL0     H42620   3.256   3.743   6.578  1.6901  2.9167 -1.2665
  316MOL0     H42621   3.036   3.663   6.589  0.4342 -1.4836  1.0157
  316MOL0     H42622   2.639   3.642   6.326 -3.8564  0.4412 -0.9730
  316MOL0     H42623   2.390   3.634   6.382  0.9852  1.7534 -0.0691
  316MOL0     H42624   2.248   3.738   6.526 -2.8780  1.3092 -0.1948
  316MOL0     H42625   2.181   3.578   6.463  3.2665 -2.3432  0.5683
  316MOL0     H42626   2.032   3.546   6.648  0.0219  0.2649 -3.1674
  316MOL0     H42627   2.104   3.690   6.740 -0.8479  0.5654  1.1818
  316MOL0     H42628   1.993   3.838   6.578 -0.8894  1.3674  0.8761
  316MOL0     H42629   1.920   3.682   6.506  0.3672 -0.7471  1.1060
  316MOL0     H42630   1.866   3.813   6.785  0.1760 -1.6969  1.1393
  316MOL0     H42631   1.826   3.647   6.745  5.3730 -1.3462  0.6781
  316MOL0     H42632   1.666   3.755   6.573 -0.8242  1.1347  0.2848
  316MOL0     H42633   1.744   3.913   6.598 -0.7304  0.6410 -0.2328
  316MOL0     H42634   1.646   3.918   6.814 -0.2625 -0.0073  0.7060
  316MOL0     H42635   1.520   3.881   6.686  0.1792 -0.9824 -0.0053
  316MOL0     H42636   1.626   3.691   6.904  4.1235  1.1601 -3.8447
  316MOL0     H42637   1.541   3.635   6.764 -1.0070 -0.8150  1.2196
  316MOL0     H42638   1.361   3.821   6.798 -0.9971  0.4998  0.3827
  316MOL0     H42639   1.373   3.671   6.903  0.1763  1.0615  4.1223
  316MOL0     H42640   2.485   3.498   6.772  0.4071  3.1128  1.0557
  316MOL0     H42641   2.727   3.479   6.718 -1.6733 -1.4375  0.8620
  316MOL0     H42642   3.052   3.564   6.162 -1.9157  1.0247 -0.3395
  316MOL0     H42643   3.277   3.638   6.161 -0.0443 -1.4386  0.1830
  316MOL0     H42644   2.693   4.991   6.286  0.7186  1.2593 -1.9030
  316MOL0     H42645   2.456   5.033   6.316 -1.7346 -0.4487 -0.8595
  316MOL0     H42646   2.076   5.048   6.239 -3.1095 -1.2595 -4.4284
  316MOL0     H42647   1.848   5.115   6.306  1.6040 -1.4161 -2.3540
  316MOL0     H42648   1.595   5.140   6.400 -2.7955 -2.7946 -1.6918
  316MOL0     H42649   1.742   5.145   6.515 -0.5620 -2.4957  2.0008
  316MOL0     H42650   1.539   5.188   6.657  1.5890  0.5056 -0.6728
  316MOL0     H42651   1.594   5.037   6.687  0.1096  0.5104  0.6836
  316MOL0     H42652   1.425   4.943   6.517  2.9560  1.5227 -0.2258
  316MOL0     H42653   1.335   5.090   6.518 -1.7866 -0.8953  1.4083
  316MOL0     H42654   1.258   4.918   6.673 -0.7550  1.7881 -1.1649
  316MOL0     H42655   1.404   4.954   6.783  2.2892 -0.1681 -1.6353
  316MOL0     H42656   1.241   5.319   6.846  0.4821 -0.0618  0.7824
  316MOL0     H42657   1.783   4.745   6.487  2.2285  0.6693  1.3685
  316MOL0     H42658   2.028   4.553   6.343 -3.9592  1.0627 -2.7207
  316MOL0     H42659   2.080   4.637   6.502 -2.0636 -1.2116  2.1345
  316MOL0     H42660   1.926   4.559   6.473  0.6411  0.7127  1.5991
  317MOL0     O42661   3.955   5.709   6.331  0.0535  0.6262 -0.3121
  317MOL0     C42662   3.917   5.594   6.353 -0.0550  0.3383 -1.1291
  317MOL0     O42663   3.807   5.548   6.291 -0.7653  0.0497  0.4322
  317MOL0     C42664   3.739   5.630   6.212  0.1649 -0.7195  0.0859
  317MOL0     C42665   3.612   5.672   6.250 -0.3454 -0.9456  0.2383
  317MOL0     C42666   3.538   5.757   6.167 -0.6840  0.7273 -0.5954
  317MOL0     C42667   3.595   5.800   6.049 -0.2292  0.6239 -0.0357
  317MOL0     O42668   3.528   5.897   5.976  0.4847  0.0662 -0.2514
  317MOL0     C42669   3.411   5.845   5.903 -0.7165  0.1465  0.0444
  317MOL0     C42670   3.302   5.938   5.951 -0.0681  0.9564 -0.0008
  317MOL0     C42671   3.329   6.088   5.895 -0.6273  0.3827 -0.2750
  317MOL0     C42672   3.275   6.178   6.011  0.5366 -0.1987 -0.0433
  317MOL0     C42673   3.126   6.165   6.024  0.1636  0.0888 -0.2258
  317MOL0     C42674   3.051   6.204   5.893 -0.1522  0.4943 -0.4785
  317MOL0     C42675   2.895   6.172   5.898 -0.0747 -0.3208  0.2493
  317MOL0     C42676   2.828   6.217   5.769  0.4265  0.0629 -0.7712
  317MOL0     N42677   2.826   6.364   5.766  0.2788  0.1364 -0.0275
  317MOL0     C42678   2.773   6.440   5.866 -1.1830  0.1195 -0.4418
  317MOL0     C42679   2.789   6.567   5.831 -1.0789  0.4821 -1.4126
  317MOL0     C42680   2.742   6.695   5.893  0.4739 -1.2207 -0.2712
  317MOL0     C42681   2.603   6.728   5.841  0.7128 -0.5361  0.0920
  317MOL0     C42682   2.553   6.862   5.897  1.0990  0.3289 -0.5495
  317MOL0     C42683   2.408   6.870   5.856  0.4583  0.3654  1.2757
  317MOL0     O42684   2.352   6.982   5.917  0.6080 -0.8019  0.4209
  317MOL0     C42685   2.217   7.007   5.894  0.2476  1.4180  0.5493
  317MOL0     C42686   2.128   6.920   5.815  0.1552 -0.2734 -0.3666
  317MOL0     C42687   1.996   6.953   5.792  0.0905 -0.5712 -0.0583
  317MOL0     C42688   1.938   7.066   5.849 -0.1952  0.0367 -0.7920
  317MOL0     C42689   1.797   7.095   5.826  0.2002 -0.1129  0.1170
  317MOL0     O42690   1.742   7.118   5.705  0.0256  0.2848 -0.2770
  317MOL0     C42691   1.606   7.109   5.688 -0.4844  0.4578  0.2810
  317MOL0     C42692   1.569   7.037   5.570 -0.9754 -0.9237  0.5647
  317MOL0     C42693   1.437   7.004   5.532  1.1487  0.0425 -0.5877
  317MOL0     C42694   1.328   7.051   5.617 -0.7076  0.9457  0.1256
  317MOL0     O42695   1.209   6.991   5.580 -0.1855  0.1648  0.8859
  317MOL0     C42696   1.086   7.043   5.630  0.4491 -0.1086  0.3793
  317MOL0     C42697   1.047   7.180   5.577  0.2768 -0.8691  0.0919
  317MOL0     C42698   1.032   7.181   5.422  0.8599 -0.3369  0.6624
  317MOL0     C42699   0.969   7.322   5.395 -0.2594  0.2421 -0.1479
  317MOL0     C42700   0.978   7.328   5.241  0.8032 -0.4780 -0.0042
  317MOL0     C42701   1.069   7.456   5.198  0.2896  0.5848  0.1003
  317MOL0     C42702   1.067   7.474   5.046  0.4588 -0.0511  0.6388
  317MOL0     C42703   1.151   7.580   5.003 -1.0464 -0.8421  0.0696
  317MOL0    Cl42704   1.149   7.612   4.827  0.3425 -0.0996 -0.1747
  317MOL0     C42705   1.360   7.130   5.728 -0.7402 -0.5786  0.4265
  317MOL0     C42706   1.500   7.148   5.772 -0.3923  0.0896 -0.7191
  317MOL0     O42707   1.734   7.073   5.932  0.3969  0.9483  0.5096
  317MOL0     C42708   2.017   7.140   5.938 -0.5183 -1.0041  0.0266
  317MOL0     C42709   2.156   7.110   5.958  0.1298  0.0407 -0.0891
  317MOL0     N42710   2.850   6.568   5.708  0.0879  0.0105  0.6988
  317MOL0     N42711   2.874   6.444   5.666  0.7081 -0.2149  0.2992
  317MOL0     C42712   3.721   5.761   6.004 -0.5419  0.4404 -0.2238
  317MOL0     C42713   3.786   5.659   6.084 -0.0860 -0.8911  0.3999
  317MOL0     C42714   3.975   5.506   6.461  0.5671  0.1052  0.0452
  317MOL0     C42715   3.881   5.406   6.512 -0.5060  0.4442 -0.1286
  317MOL0     C42716   3.926   5.320   6.613  0.5788 -0.3896  0.1185
  317MOL0     C42717   4.052   5.337   6.681 -0.1966  0.2836  1.0203
  317MOL0     O42718   4.104   5.272   6.785  0.2554  1.0152 -1.1850
  317MOL0     C42719   4.020   5.173   6.854  0.2706 -0.4393 -0.6297
  317MOL0     C42720   3.914   5.242   6.933  0.8461 -0.8799  0.1755
  317MOL0     C42721   3.796   5.153   6.974 -0.4526  0.0819  0.6045
  317MOL0     C42722   3.821   5.040   7.074  0.1619  0.3776 -0.4992
  317MOL0     C42723   3.873   5.083   7.201 -0.3320 -0.8640 -0.1446
  317MOL0     C42724   3.916   5.134   7.301 -0.1807  0.1857  0.5907
  317MOL0     C42725   4.131   5.430   6.633 -0.6501 -0.7593  0.7931
  317MOL0     C42726   4.105   5.515   6.522  0.1346  0.0925  0.3640
  317MOL0     C42727   4.207   5.613   6.482 -0.0124 -0.5887  0.7817
  317MOL0     H42728   3.575   5.653   6.350 -1.1907  0.9223  0.3295
  317MOL0     H42729   3.438   5.780   6.203 -0.5850 -0.8883  0.8563
  317MOL0     H42730   3.432   5.864   5.798  0.1103  1.5248  0.4302
  317MOL0     H42731   3.381   5.742   5.921  0.5439 -0.3548 -0.6254
  317MOL0     H42732   3.306   5.937   6.060 -1.3640 -1.2564  0.0861
  317MOL0     H42733   3.202   5.900   5.928 -0.5804  0.5885  2.5319
  317MOL0     H42734   3.285   6.100   5.795  0.5880 -0.7623 -0.9787
  317MOL0     H42735   3.434   6.115   5.882 -0.8195  1.8625  0.9169
  317MOL0     H42736   3.322   6.165   6.109  0.7748 -0.4293 -0.1841
  317MOL0     H42737   3.304   6.279   5.981  1.7838 -1.0237 -1.8068
  317MOL0     H42738   3.106   6.061   6.050 -0.7768  0.3902  0.2924
  317MOL0     H42739   3.094   6.225   6.109 -1.2049 -0.6879 -0.1731
  317MOL0     H42740   3.068   6.309   5.867  0.0760  0.3378 -0.9668
  317MOL0     H42741   3.096   6.153   5.808  0.9933 -0.9116  0.9195
  317MOL0     H42742   2.854   6.235   5.977 -0.6261  1.8889 -1.7041
  317MOL0     H42743   2.879   6.065   5.912 -0.3815 -0.3734 -0.4603
  317MOL0     H42744   2.872   6.168   5.682 -0.0511  0.3131 -1.1551
  317MOL0     H42745   2.727   6.176   5.782 -0.2787  2.1714  1.0092
  317MOL0     H42746   2.722   6.412   5.958 -1.6157  0.5836 -0.5332
  317MOL0     H42747   2.732   6.684   6.001 -3.4791 -3.4677 -0.7005
  317MOL0     H42748   2.806   6.778   5.860 -3.2553  0.8223 -3.0918
  317MOL0     H42749   2.613   6.737   5.732  5.0281  3.1953  0.4669
  317MOL0     H42750   2.531   6.649   5.864 -2.2770  1.3501 -1.9663
  317MOL0     H42751   2.599   6.952   5.855  1.9088  0.3035  0.2650
  317MOL0     H42752   2.566   6.859   6.005  0.6112  1.6984 -0.4326
  317MOL0     H42753   2.345   6.783   5.874  0.0275  0.3289 -0.2769
  317MOL0     H42754   2.413   6.884   5.747  1.9161 -5.6703  0.1929
  317MOL0     H42755   2.163   6.832   5.761 -1.0473 -0.3730 -1.0299
  317MOL0     H42756   1.940   6.908   5.711 -1.5133  2.6895 -0.9181
  317MOL0     H42757   1.648   6.993   5.510 -1.7035 -2.7075  0.8455
  317MOL0     H42758   1.419   6.937   5.448  1.5408 -0.5516 -0.2116
  317MOL0     H42759   1.007   6.972   5.604  2.1718 -0.2306 -6.1235
  317MOL0     H42760   1.082   7.037   5.740  2.6280  0.7224  0.5490
  317MOL0     H42761   0.953   7.212   5.623  0.3157 -2.4685  1.3606
  317MOL0     H42762   1.122   7.255   5.604  1.2902 -1.5464 -0.7559
  317MOL0     H42763   1.129   7.173   5.373  0.5640 -2.3986  0.3040
  317MOL0     H42764   0.971   7.093   5.400  1.8261 -1.1808  1.2812
  317MOL0     H42765   1.025   7.397   5.452 -1.9341 -0.0244  1.9830
  317MOL0     H42766   0.866   7.333   5.429 -0.7099 -2.9190 -0.2563
  317MOL0     H42767   0.877   7.342   5.204  1.3702 -2.6125 -2.7161
  317MOL0     H42768   1.005   7.232   5.194 -1.7824 -3.3136  3.6593
  317MOL0     H42769   1.021   7.537   5.253  0.3885  0.5075  0.3032
  317MOL0     H42770   1.169   7.434   5.237  0.7236  4.1703  1.3345
  317MOL0     H42771   0.965   7.474   5.007  0.4660  1.4524  0.5791
  317MOL0     H42772   1.114   7.384   5.006  2.2586  0.6481  1.0730
  317MOL0     H42773   1.117   7.671   5.055 -0.6383 -1.7245  1.9907
  317MOL0     H42774   1.251   7.555   5.039 -1.4390 -0.0536  1.8674
  317MOL0     H42775   1.272   7.152   5.787 -2.3156 -1.8171 -1.3172
  317MOL0     H42776   1.521   7.214   5.855  2.8692  0.6841 -1.8560
  317MOL0     H42777   1.973   7.222   5.993 -4.3032 -2.1600 -1.0375
  317MOL0     H42778   2.222   7.162   6.027 -1.5603  2.3822 -0.1035
  317MOL0     H42779   3.769   5.772   5.908  1.0956 -4.6145 -0.2567
  317MOL0     H42780   3.880   5.615   6.053  0.9979 -2.0018  4.6080
  317MOL0     H42781   3.781   5.388   6.473 -0.4765 -2.4692  0.9502
  317MOL0     H42782   3.847   5.249   6.635 -0.3621 -0.9646 -4.2363
  317MOL0     H42783   4.090   5.124   6.923  0.5853  1.9855  0.9105
  317MOL0     H42784   3.977   5.103   6.782  2.2506 -0.0976 -2.2406
  317MOL0     H42785   3.865   5.325   6.882 -0.4549 -0.9175  1.3149
  317MOL0     H42786   3.952   5.285   7.026 -2.1131  2.4265  0.0463
  317MOL0     H42787   3.751   5.125   6.878  0.2366  2.2941 -0.4438
  317MOL0     H42788   3.716   5.214   7.017 -2.4502 -1.9059 -0.1155
  317MOL0     H42789   3.725   4.989   7.082  0.1876  0.4214  0.1640
  317MOL0     H42790   3.888   4.963   7.035 -1.7317 -2.5341  1.5564
  317MOL0     H42791   3.951   5.185   7.388 -1.2990  0.0226  1.1553
  317MOL0     H42792   4.223   5.436   6.691 -0.7531  1.9958  0.8429
  317MOL0     H42793   4.165   5.709   6.450  1.3221 -0.4202 -0.6068
  317MOL0     H42794   4.263   5.642   6.571 -0.6755  0.8123  0.7704
  317MOL0     H42795   4.266   5.571   6.400 -1.9286 -0.7761 -0.5641
  318MOL0     O42796   3.922   1.012   5.149  0.8399 -0.1300 -0.0701
  318MOL0     C42797   3.935   1.120   5.215  0.9464  0.0772  0.7189
  318MOL0     O42798   3.832   1.203   5.251 -0.1644  0.3995 -0.3413
  318MOL0     C42799   3.707   1.179   5.210  0.7509  0.8910  0.3608
  318MOL0     C42800   3.641   1.056   5.175  0.0115 -0.6656  1.1938
  318MOL0     C42801   3.504   1.042   5.130 -0.3508 -1.2762 -0.2687
  318MOL0     C42802   3.428   1.158   5.112  1.5464  0.2268  0.1000
  318MOL0     O42803   3.303   1.135   5.061 -0.3586 -0.2753  0.1792
  318MOL0     C42804   3.191   1.231   5.059 -0.1281  0.4965 -0.1144
  318MOL0     C42805   3.054   1.156   5.016  0.5154 -0.4642 -0.2269
  318MOL0     C42806   2.973   1.095   5.137  0.0910  0.2517  0.4073
  318MOL0     C42807   3.010   0.946   5.158 -0.2275 -0.4883 -0.0107
  318MOL0     C42808   2.991   0.908   5.309  0.5982  0.4081  1.3972
  318MOL0     C42809   2.961   0.763   5.313 -0.7273  0.1120 -0.0235
  318MOL0     C42810   2.942   0.718   5.465 -0.0770 -0.3507 -0.3737
  318MOL0     C42811   2.889   0.579   5.477  0.7716 -0.2116 -0.8566
  318MOL0     N42812   2.866   0.524   5.611  0.5200  0.1558 -0.3547
  318MOL0     C42813   2.765   0.430   5.627  0.2970 -0.2444 -0.7325
  318MOL0     C42814   2.791   0.381   5.758 -0.3694  0.1033  1.0740
  318MOL0     C42815   2.720   0.295   5.858 -0.7414 -0.6082 -0.3142
  318MOL0     C42816   2.568   0.270   5.836  0.0722 -0.0458 -0.6220
  318MOL0     C42817   2.490   0.388   5.908 -0.1711  0.4654  0.9791
  318MOL0     C42818   2.338   0.370   5.885 -0.4476  0.0878 -0.0491
  318MOL0     O42819   2.257   0.480   5.936 -0.7053  0.1518 -0.0920
  318MOL0     C42820   2.125   0.470   5.905  0.7973 -0.2967 -0.2575
  318MOL0     C42821   2.066   0.356   5.836  0.0136  0.1981 -0.4391
  318MOL0     C42822   1.933   0.349   5.807  0.3919 -0.2052  0.1184
  318MOL0     C42823   1.842   0.454   5.844  0.4244  0.7831  0.3704
  318MOL0     C42824   1.696   0.443   5.814 -0.0878 -0.3372 -0.4857
  318MOL0     O42825   1.624   0.550   5.866 -0.4456 -0.3233 -0.6500
  318MOL0     C42826   1.488   0.550   5.866  0.3541  0.5558  0.5185
  318MOL0     C42827   1.426   0.674   5.866 -0.5285  0.0629  0.1016
  318MOL0     C42828   1.286   0.678   5.887  0.8990 -0.5564 -0.3814
  318MOL0     C42829   1.210   0.565   5.917  0.0523 -0.7457  0.5080
  318MOL0     O42830   1.076   0.591   5.934  0.0554 -0.1783  0.6923
  318MOL0     C42831   1.001   0.488   5.987  0.1444 -0.1799 -0.3123
  318MOL0     C42832   0.860   0.538   5.998 -0.2128 -0.8665 -0.1932
  318MOL0     C42833   0.787   0.541   5.864 -0.0175 -0.1233 -0.3687
  318MOL0     C42834   0.646   0.597   5.863 -0.1951 -0.3783  0.0561
  318MOL0     C42835   0.592   0.618   5.716  0.0111 -0.0805  0.1523
  318MOL0     C42836   0.451   0.673   5.704 -0.4540 -0.1692  0.1656
  318MOL0     C42837   0.353   0.557   5.743  0.7757  1.4694 -0.1808
  318MOL0     C42838   0.204   0.609   5.719 -0.7578  0.9040 -0.0903
  318MOL0    Cl42839   0.152   0.739   5.841 -0.3041  0.1266 -0.0459
  318MOL0     C42840   1.278   0.446   5.930  0.1692  0.5223  1.2246
  318MOL0     C42841   1.418   0.442   5.911  0.2339 -0.5583  0.4308
  318MOL0     O42842   1.648   0.356   5.744 -0.0138  0.5951  0.0589
  318MOL0     C42843   1.892   0.564   5.904  0.5436 -0.6901  0.5979
  318MOL0     C42844   2.040   0.573   5.933  1.1364 -0.1140  0.0844
  318MOL0     N42845   2.909   0.442   5.807  0.2769  0.3687  0.0152
  318MOL0     N42846   2.951   0.516   5.710  0.1065  0.0502  0.3219
  318MOL0     C42847   3.487   1.275   5.151  0.1809 -0.6116  0.8785
  318MOL0     C42848   3.622   1.288   5.192 -0.7379  0.4713  0.8813
  318MOL0     C42849   4.070   1.159   5.264 -0.5655 -1.0504 -0.1858
  318MOL0     C42850   4.066   1.240   5.380 -0.6012  0.3568  0.1218
  318MOL0     C42851   4.194   1.275   5.441  0.3584  0.0062 -0.6469
  318MOL0     C42852   4.311   1.223   5.383 -0.5340  0.5149  0.0855
  318MOL0     O42853   4.431   1.243   5.441 -0.6636 -0.6590  0.2873
  318MOL0     C42854   4.461   1.145   5.538 -0.9038 -0.1495 -0.1476
  318MOL0     C42855   4.577   1.178   5.622 -0.4448 -0.2341  0.9614
  318MOL0     C42856   4.703   1.172   5.548  0.5329  0.4689  0.8409
  318MOL0     C42857   4.816   1.249   5.626  0.5928  0.5370 -0.0324
  318MOL0     C42858   4.793   1.395   5.637 -1.3102  0.5491 -1.7804
  318MOL0     C42859   4.786   1.513   5.632  0.3539 -0.6092  0.8175
  318MOL0     C42860   4.313   1.154   5.264 -0.3279 -0.3667  0.3636
  318MOL0     C42861   4.191   1.118   5.208  0.3711 -0.1108  0.1708
  318MOL0     C42862   4.193   1.034   5.081 -0.2443 -0.4722  0.2091
  318MOL0     H42863   3.694   0.962   5.190 -0.3643 -0.8505  1.3944
  318MOL0     H42864   3.454   0.946   5.124 -4.2137  0.4694  1.0432
  318MOL0     H42865   3.179   1.280   5.156  1.3522 -2.0650  1.4856
  318MOL0     H42866   3.205   1.306   4.982  0.9362 -1.8805 -2.4017
  318MOL0     H42867   3.092   1.081   4.946  0.4896  1.2953 -2.2187
  318MOL0     H42868   2.995   1.229   4.960 -1.4096  0.8453  3.2040
  318MOL0     H42869   2.865   1.107   5.125 -0.0688  0.3718  1.8390
  318MOL0     H42870   3.014   1.151   5.221  1.1387 -1.4025  1.0485
  318MOL0     H42871   2.932   0.894   5.102  0.2428  0.4489 -1.6090
  318MOL0     H42872   3.107   0.906   5.126  0.0908 -1.1401  1.6592
  318MOL0     H42873   3.083   0.925   5.366  2.6546  0.7068 -1.7271
  318MOL0     H42874   2.908   0.959   5.357  0.9253  0.3960  1.9822
  318MOL0     H42875   2.868   0.745   5.260 -2.3363  1.8771  2.0001
  318MOL0     H42876   3.041   0.703   5.269 -2.1980 -1.4012 -0.7163
  318MOL0     H42877   2.873   0.777   5.526  2.3283 -0.0379  2.2391
  318MOL0     H42878   3.040   0.716   5.513 -0.3910 -0.7876  0.2499
  318MOL0     H42879   2.795   0.578   5.420  0.6031  0.5650 -0.5970
  318MOL0     H42880   2.965   0.517   5.428 -0.1410 -0.3742 -2.1174
  318MOL0     H42881   2.687   0.411   5.555 -1.2321 -0.3689  0.9029
  318MOL0     H42882   2.763   0.194   5.854 -0.9209 -0.7349 -4.6611
  318MOL0     H42883   2.736   0.338   5.957  0.9308 -2.5528  0.3193
  318MOL0     H42884   2.547   0.262   5.729 -0.6320  0.7030 -0.5533
  318MOL0     H42885   2.534   0.181   5.889  1.0956  0.1823  0.4443
  318MOL0     H42886   2.527   0.483   5.868 -2.4666  1.5942  1.3428
  318MOL0     H42887   2.514   0.392   6.015 -0.7419 -0.7461  1.1669
  318MOL0     H42888   2.307   0.279   5.937 -4.0954  1.6783  0.8604
  318MOL0     H42889   2.322   0.355   5.778 -0.1243 -0.0560 -0.0778
  318MOL0     H42890   2.132   0.277   5.799  2.2494  0.7402  2.1371
  318MOL0     H42891   1.901   0.270   5.740 -2.5769  0.6911  0.3421
  318MOL0     H42892   1.486   0.762   5.848 -0.7082  0.1911  0.1319
  318MOL0     H42893   1.230   0.770   5.882  3.8011  1.9728  5.0371
  318MOL0     H42894   1.012   0.394   5.932  3.0152  0.6128 -1.2958
  318MOL0     H42895   1.035   0.472   6.089  1.0446 -0.6481 -0.6713
  318MOL0     H42896   0.804   0.467   6.060 -0.3892 -1.7574 -1.3504
  318MOL0     H42897   0.857   0.639   6.041 -2.6184 -0.6460 -0.7354
  318MOL0     H42898   0.850   0.588   5.789 -2.2017  1.8673 -1.0665
  318MOL0     H42899   0.789   0.438   5.825  5.8997 -0.3514 -0.4450
  318MOL0     H42900   0.664   0.697   5.904  1.7387 -1.1949  1.3300
  318MOL0     H42901   0.583   0.540   5.932 -2.6809 -1.1575 -2.6418
  318MOL0     H42902   0.616   0.527   5.660 -2.8561 -3.7154  4.1476
  318MOL0     H42903   0.656   0.698   5.676  4.6909 -1.4973  3.8901
  318MOL0     H42904   0.445   0.768   5.757 -1.8623  0.6695 -1.3826
  318MOL0     H42905   0.430   0.695   5.599 -2.5415  3.5804  1.1922
  318MOL0     H42906   0.365   0.540   5.850  5.6019  1.2999 -0.5575
  318MOL0     H42907   0.352   0.469   5.678 -1.0943  1.2563  0.0744
  318MOL0     H42908   0.199   0.640   5.615  3.3875  3.7996  0.3571
  318MOL0     H42909   0.138   0.523   5.737 -0.5030  0.8889  0.8495
  318MOL0     H42910   1.238   0.347   5.946  0.6603  0.4406  2.0019
  318MOL0     H42911   1.467   0.346   5.923  1.5272  0.0068 -0.1703
  318MOL0     H42912   1.838   0.653   5.934 -0.5180 -0.0021 -2.9305
  318MOL0     H42913   2.083   0.664   5.973 -0.8808  0.8300  0.2544
  318MOL0     H42914   3.427   1.366   5.147  1.2911  0.1281 -1.6783
  318MOL0     H42915   3.659   1.385   5.223  1.0562  0.0855  0.0734
  318MOL0     H42916   3.978   1.278   5.431 -3.0891 -4.8555  0.4223
  318MOL0     H42917   4.194   1.342   5.526 -3.3565 -1.0471  0.3416
  318MOL0     H42918   4.486   1.046   5.498 -2.6110 -0.2898 -0.9665
  318MOL0     H42919   4.384   1.139   5.615  2.4852  0.9505  3.6415
  318MOL0     H42920   4.578   1.108   5.706  0.0258 -1.1197  0.2342
  318MOL0     H42921   4.556   1.276   5.665  1.0140  0.1071  0.9553
  318MOL0     H42922   4.697   1.207   5.444  1.3146  2.1194  1.3062
  318MOL0     H42923   4.732   1.067   5.542  0.2441  0.2799  2.4427
  318MOL0     H42924   4.830   1.213   5.728  3.0248  2.9192  0.5957
  318MOL0     H42925   4.909   1.235   5.570  1.7155  2.2908  1.2977
  318MOL0     H42926   4.794   1.619   5.620  2.8602 -0.9185 -1.2607
  318MOL0     H42927   4.409   1.120   5.228 -0.3318  0.5757 -0.5959
  318MOL0     H42928   4.159   0.931   5.099 -0.7855  0.1160  2.9441
  318MOL0     H42929   4.117   1.062   5.007  0.3927 -0.3539 -0.4038
  318MOL0     H42930   4.294   1.037   5.040 -0.5167 -0.2785 -0.4642
  319MOL0     O42931   4.481   7.410   7.648  0.2547  0.0367  0.5584
  319MOL0     C42932   4.577   7.434   7.574 -0.0919  0.6343 -0.4387
  319MOL0     O42933   4.684   7.344   7.562  0.2717 -0.1667 -0.4490
  319MOL0     C42934   4.686   7.208   7.588  0.2813 -0.5047  0.2114
  319MOL0     C42935   4.609   7.143   7.677  0.1345  0.2904 -0.1786
  319MOL0     C42936   4.624   7.012   7.715  0.4649  0.3456 -0.1711
  319MOL0     C42937   4.731   6.943   7.649  0.4375  0.1556 -0.2631
  319MOL0     O42938   4.751   6.811   7.679 -0.3060 -0.0983 -0.8497
  319MOL0     C42939   4.888   6.766   7.696  0.2220  0.2526 -0.2052
  319MOL0     C42940   4.867   6.644   7.776 -1.0385 -1.2908 -0.1613
  319MOL0     C42941   5.013   6.586   7.792  0.2226  0.1797 -0.3605
  319MOL0     C42942   5.013   6.475   7.895  0.4672 -0.0910  0.4463
  319MOL0     C42943   5.157   6.458   7.942 -0.1019  0.4805  0.1653
  319MOL0     C42944   5.242   6.425   7.816  0.2856 -0.7158  0.2845
  319MOL0     C42945   5.370   6.354   7.852  0.1623  0.5818  0.9104
  319MOL0     C42946   5.472   6.424   7.942 -0.5318 -0.5323  1.0214
  319MOL0     N42947   5.605   6.347   7.936  0.5922  0.2345  0.6536
  319MOL0     C42948   5.618   6.214   7.960  0.4825 -1.0099  0.6909
  319MOL0     C42949   5.750   6.188   7.955  0.5288  0.0617 -0.2761
  319MOL0     C42950   5.827   6.061   7.988 -0.4569 -0.5429 -1.3560
  319MOL0     C42951   5.919   6.019   7.883  0.4197  1.0459  1.1307
  319MOL0     C42952   5.850   5.906   7.805 -1.0002  0.7646  1.1505
  319MOL0     C42953   5.947   5.859   7.699 -0.9084  0.1649 -0.1108
  319MOL0     O42954   6.073   5.804   7.746 -0.0329 -0.5199  0.1250
  319MOL0     C42955   6.186   5.856   7.689  0.9373  0.5655  0.8454
  319MOL0     C42956   6.211   5.995   7.663 -0.3349  1.9081 -0.4708
  319MOL0     C42957   6.335   6.024   7.612 -1.3724  0.0589  0.7924
  319MOL0     C42958   6.441   5.929   7.609  0.8715 -0.1712 -0.4825
  319MOL0     C42959   6.572   5.973   7.561  0.2642 -0.0904 -0.8696
  319MOL0     O42960   6.676   5.894   7.608 -0.1500 -0.0069  0.5134
  319MOL0     C42961   6.801   5.921   7.575 -0.3502 -0.3588  0.0365
  319MOL0     C42962   6.862   6.044   7.598  0.5758  0.2469  0.5839
  319MOL0     C42963   6.996   6.058   7.564  0.3489 -0.2023  0.1532
  319MOL0     C42964   7.079   5.950   7.536  0.6346  0.2012  0.2725
  319MOL0     O42965   7.208   5.970   7.506 -0.8393 -0.4921  0.0411
  319MOL0     C42966   7.265   6.104   7.521 -0.3236  0.5894 -0.0688
  319MOL0     C42967   7.403   6.085   7.460  0.8360  0.7085  0.8134
  319MOL0     C42968   7.513   6.019   7.551 -0.7357  0.4257  0.1417
  319MOL0     C42969   7.631   5.961   7.467 -0.2175 -0.1150  0.6020
  319MOL0     C42970   7.729   5.878   7.553  0.7522 -0.6129 -0.1599
  319MOL0     C42971   7.829   5.803   7.467 -0.2306 -0.1615 -0.0357
  319MOL0     C42972   7.774   5.672   7.408  0.1626 -0.8335 -0.1724
  319MOL0     C42973   7.884   5.590   7.335  0.8375  0.5154 -0.5150
  319MOL0    Cl42974   7.869   5.401   7.293 -0.2498  0.6752  0.4601
  319MOL0     C42975   7.022   5.829   7.526  0.0469 -0.2014 -0.4417
  319MOL0     C42976   6.884   5.809   7.549  0.4601  0.0846  0.0236
  319MOL0     O42977   6.581   6.074   7.490 -0.1056 -0.2703  0.0131
  319MOL0     C42978   6.411   5.794   7.636  0.2348 -0.3446  0.6415
  319MOL0     C42979   6.290   5.762   7.680 -0.0649 -0.2383  0.2725
  319MOL0     N42980   5.814   6.308   7.924 -0.4233 -0.4111 -0.4910
  319MOL0     N42981   5.728   6.405   7.911  1.0040  0.5732 -0.3426
  319MOL0     C42982   4.811   7.016   7.556 -0.7495 -0.5393  0.6324
  319MOL0     C42983   4.793   7.153   7.528 -0.3545 -0.3829  0.1721
  319MOL0     C42984   4.595   7.566   7.523 -0.8411  0.3093 -0.6446
  319MOL0     C42985   4.490   7.628   7.458  0.1560 -1.0753  0.0112
  319MOL0     C42986   4.503   7.754   7.407  0.9042 -0.5489 -0.1914
  319MOL0     C42987   4.628   7.815   7.391  0.2213 -0.1667  0.9459
  319MOL0     O42988   4.645   7.937   7.328 -0.1725  0.8332 -0.5583
  319MOL0     C42989   4.531   8.025   7.340 -1.0254  0.0464  0.8654
  319MOL0     C42990   4.568   8.163   7.270  0.7875 -0.3002 -0.7906
  319MOL0     C42991   4.564   8.143   7.110 -0.4578 -0.1690 -0.0286
  319MOL0     C42992   4.658   8.251   7.042  0.0203  1.0738  0.7075
  319MOL0     C42993   4.681   8.231   6.908  0.5193  0.2576  0.4389
  319MOL0     C42994   4.696   8.226   6.786  0.7780  0.5381  0.1413
  319MOL0     C42995   4.738   7.750   7.457  0.5290 -0.5264  0.0581
  319MOL0     C42996   4.723   7.632   7.528 -0.7576  0.1747  0.4958
  319MOL0     C42997   4.843   7.583   7.608  0.9240  0.1660 -0.0163
  319MOL0     H42998   4.526   7.196   7.721  1.4422  2.2440  0.0458
  319MOL0     H42999   4.563   6.958   7.786  0.7353 -0.2447 -0.3840
  319MOL0     H43000   4.946   6.744   7.606  3.9233  1.8252  1.5808
  319MOL0     H43001   4.952   6.841   7.743  2.3689 -2.7261  1.9511
  319MOL0     H43002   4.799   6.576   7.726 -0.4109 -2.2216  0.2313
  319MOL0     H43003   4.817   6.663   7.872 -1.6173  1.5990 -0.9294
  319MOL0     H43004   5.082   6.666   7.818  1.1005 -0.7000  0.0811
  319MOL0     H43005   5.050   6.542   7.698  0.2978 -2.2184  0.7071
  319MOL0     H43006   4.951   6.510   7.978 -3.4773 -1.1384 -1.7906
  319MOL0     H43007   4.964   6.382   7.867  0.9511 -0.4862  0.8991
  319MOL0     H43008   5.191   6.551   7.989 -0.8715  0.7517  0.2007
  319MOL0     H43009   5.162   6.376   8.016  0.8702 -0.0065 -0.4268
  319MOL0     H43010   5.183   6.362   7.749 -3.1258  0.6993  1.7597
  319MOL0     H43011   5.261   6.515   7.756 -4.3338 -0.5486 -1.3270
  319MOL0     H43012   5.410   6.324   7.754  0.2154 -1.5765  1.5483
  319MOL0     H43013   5.339   6.266   7.909  0.4600 -1.7642 -2.2770
  319MOL0     H43014   5.500   6.526   7.915  1.7005 -0.9199  1.6342
  319MOL0     H43015   5.438   6.437   8.045  0.1248 -0.8025  1.2791
  319MOL0     H43016   5.533   6.153   7.989 -1.7968  1.5372 -0.2815
  319MOL0     H43017   5.896   6.078   8.072 -1.9090  1.4365 -0.4824
  319MOL0     H43018   5.757   5.987   8.030 -1.4610 -0.2457 -2.4392
  319MOL0     H43019   5.946   6.094   7.808 -2.7086 -2.2253 -3.8653
  319MOL0     H43020   6.013   5.978   7.924 -1.4979 -3.1209  1.9277
  319MOL0     H43021   5.756   5.942   7.762 -0.3836 -0.7074 -1.6570
  319MOL0     H43022   5.830   5.819   7.869  1.9350 -0.3395  0.7479
  319MOL0     H43023   5.958   5.937   7.622  2.2661  1.5835  1.5968
  319MOL0     H43024   5.905   5.768   7.654 -0.9755  1.1020 -2.0809
  319MOL0     H43025   6.137   6.070   7.689 -0.7178  0.8730  1.6675
  319MOL0     H43026   6.359   6.125   7.579 -0.5853 -1.1594 -2.7648
  319MOL0     H43027   6.794   6.125   7.621 -1.5449 -1.3430  0.2551
  319MOL0     H43028   7.032   6.159   7.579  1.0534 -0.4052 -0.1439
  319MOL0     H43029   7.204   6.172   7.460  0.3280 -1.7713 -3.7102
  319MOL0     H43030   7.255   6.131   7.626 -3.5154  1.8635 -0.5782
  319MOL0     H43031   7.385   6.025   7.371 -4.0983  1.6277  0.9257
  319MOL0     H43032   7.440   6.183   7.427 -1.5338  0.8065 -1.8575
  319MOL0     H43033   7.552   6.089   7.625 -2.3103 -2.4639  4.0844
  319MOL0     H43034   7.476   5.931   7.605  3.3551 -2.0476 -0.7034
  319MOL0     H43035   7.687   6.048   7.429 -0.3695  0.0982  0.8615
  319MOL0     H43036   7.599   5.915   7.373 -1.0815  2.7754 -0.6311
  319MOL0     H43037   7.667   5.809   7.611 -0.0293  1.1248  1.1381
  319MOL0     H43038   7.779   5.945   7.623  4.2004 -1.3032 -1.7497
  319MOL0     H43039   7.860   5.871   7.387  0.9458  3.0806  2.9238
  319MOL0     H43040   7.915   5.773   7.527 -1.9144 -2.5072  1.3690
  319MOL0     H43041   7.696   5.697   7.336  0.0149 -0.7225  0.0248
  319MOL0     H43042   7.749   5.615   7.498 -0.6600  2.1750  1.6142
  319MOL0     H43043   7.889   5.642   7.239  5.0247  0.3139 -0.5527
  319MOL0     H43044   7.978   5.600   7.390  1.1842  0.1079 -1.0245
  319MOL0     H43045   7.079   5.738   7.509  1.0925  0.5626 -1.1417
  319MOL0     H43046   6.842   5.710   7.543  1.9564 -0.4999 -1.9920
  319MOL0     H43047   6.489   5.718   7.631  0.5248  0.0295 -2.3470
  319MOL0     H43048   6.270   5.662   7.717  0.6516 -0.7881 -0.7643
  319MOL0     H43049   4.903   6.970   7.519  1.1766  2.5043  1.2194
  319MOL0     H43050   4.859   7.211   7.465  0.4033 -2.9600 -1.6064
  319MOL0     H43051   4.390   7.584   7.459  0.4598 -1.8485  2.5403
  319MOL0     H43052   4.414   7.801   7.367  1.7716  1.0449 -0.3612
  319MOL0     H43053   4.501   8.040   7.444  0.2064  0.1459  1.2205
  319MOL0     H43054   4.443   7.982   7.292  1.1173 -1.1576 -2.3301
  319MOL0     H43055   4.667   8.189   7.308 -0.6535  3.0511  1.1323
  319MOL0     H43056   4.496   8.240   7.302 -0.1777 -0.1301 -3.1708
  319MOL0     H43057   4.461   8.147   7.074 -1.0274  2.4996  1.6221
  319MOL0     H43058   4.616   8.049   7.086 -0.6393 -0.2390 -0.1451
  319MOL0     H43059   4.615   8.351   7.050 -2.8942  0.6916 -4.9548
  319MOL0     H43060   4.761   8.264   7.077  0.7250  1.4517 -1.3783
  319MOL0     H43061   4.727   8.221   6.684  2.7984  3.2798  0.4744
  319MOL0     H43062   4.837   7.793   7.461  0.6678 -0.8730  0.4620
  319MOL0     H43063   4.878   7.490   7.562 -0.3542 -2.4080  3.6968
  319MOL0     H43064   4.937   7.639   7.611  0.7617  0.4185  0.5668
  319MOL0     H43065   4.819   7.552   7.710  1.0543  1.0933  0.3101
  320MOL0     O43066   0.061   5.985   3.882 -0.3941  0.1915 -0.5600
  320MOL0     C43067   0.083   5.932   3.778 -0.3465 -0.3004 -0.0535
  320MOL0     O43068  -0.015   5.904   3.681 -0.6712 -0.2364 -0.1027
  320MOL0     C43069  -0.145   5.923   3.711  0.1577  0.1010  0.4524
  320MOL0     C43070  -0.228   5.810   3.716 -0.4713  0.0612 -0.8824
  320MOL0     C43071  -0.363   5.820   3.742 -0.3290  0.6582  0.2081
  320MOL0     C43072  -0.420   5.955   3.737 -0.4824  0.3149 -0.3026
  320MOL0     O43073  -0.557   5.986   3.762  0.2060  0.4235  0.0473
  320MOL0     C43074  -0.618   5.885   3.848 -0.3613 -0.3016 -0.1972
  320MOL0     C43075  -0.754   5.930   3.904  0.3090 -0.2494 -0.7443
  320MOL0     C43076  -0.830   6.016   3.805  0.0421  0.0503 -0.5843
  320MOL0     C43077  -0.975   6.014   3.856 -0.2596  0.1877 -0.0308
  320MOL0     C43078  -1.057   6.120   3.785 -0.0631 -0.0895 -0.1738
  320MOL0     C43079  -1.207   6.078   3.813  0.3653  0.2966  0.7075
  320MOL0     C43080  -1.307   6.142   3.716  0.1756  0.3620 -0.3559
  320MOL0     C43081  -1.334   6.057   3.592  0.1182 -0.0696  0.4622
  320MOL0     N43082  -1.451   6.108   3.522 -0.9388 -0.5569  0.7789
  320MOL0     C43083  -1.581   6.113   3.583 -0.5695  0.1176 -0.6355
  320MOL0     C43084  -1.648   6.177   3.486  0.7185  0.1282 -0.0009
  320MOL0     C43085  -1.791   6.220   3.495  0.4387 -0.2295  0.9113
  320MOL0     C43086  -1.784   6.351   3.579 -1.1207  0.5917  1.2628
  320MOL0     C43087  -1.908   6.393   3.656 -0.2038  0.3554  0.0466
  320MOL0     C43088  -2.037   6.385   3.576  0.1106  0.0718 -0.4242
  320MOL0     O43089  -2.154   6.443   3.636  0.2126 -0.2677  0.8626
  320MOL0     C43090  -2.162   6.581   3.615  0.0884 -0.7349  0.0569
  320MOL0     C43091  -2.124   6.658   3.505  1.2453  0.8723  0.4309
  320MOL0     C43092  -2.120   6.795   3.509  1.0957 -0.5087  0.3507
  320MOL0     C43093  -2.175   6.868   3.618  0.0147  0.3189 -0.2186
  320MOL0     C43094  -2.185   7.009   3.623  0.4128 -0.9401  0.3905
  320MOL0     O43095  -2.210   7.058   3.746  0.4243 -0.2224  0.1311
  320MOL0     C43096  -2.197   7.194   3.755 -0.7403  0.4483  0.0884
  320MOL0     C43097  -2.082   7.250   3.808 -1.0628 -0.5456 -0.0778
  320MOL0     C43098  -2.075   7.389   3.833 -0.5647  0.1881 -0.7714
  320MOL0     C43099  -2.185   7.475   3.805  0.6142  0.6345  0.2342
  320MOL0     O43100  -2.171   7.606   3.836 -0.5798 -0.2374  0.7540
  320MOL0     C43101  -2.303   7.669   3.868  0.4462 -0.3440 -0.4040
  320MOL0     C43102  -2.276   7.817   3.884 -0.5619 -0.1028 -0.1629
  320MOL0     C43103  -2.250   7.887   3.753  0.4546  0.3599 -0.0150
  320MOL0     C43104  -2.295   8.039   3.753 -0.3452 -1.0823  0.3298
  320MOL0     C43105  -2.287   8.113   3.609 -0.6157  1.1815 -0.9720
  320MOL0     C43106  -2.145   8.113   3.553 -0.3227  0.6907  0.5128
  320MOL0     C43107  -2.162   8.156   3.396 -0.4485  1.5401  0.1904
  320MOL0     C43108  -2.025   8.148   3.333  0.5171  0.7091 -0.4223
  320MOL0    Cl43109  -1.957   8.310   3.359 -0.2453  0.3585  0.1645
  320MOL0     C43110  -2.302   7.417   3.746  0.8254 -0.6285  0.7887
  320MOL0     C43111  -2.305   7.278   3.728  0.1361 -0.2952 -0.1578
  320MOL0     O43112  -2.145   7.083   3.538  0.1121  0.1915  0.4613
  320MOL0     C43113  -2.224   6.791   3.728  0.6103  0.0878  0.2682
  320MOL0     C43114  -2.212   6.651   3.729  0.0231 -0.4097 -1.0548
  320MOL0     N43115  -1.570   6.205   3.370  0.3114  0.5401 -0.2207
  320MOL0     N43116  -1.450   6.163   3.394  0.1724 -0.8589 -1.2380
  320MOL0     C43117  -0.339   6.067   3.711  0.1256  0.4545  0.1115
  320MOL0     C43118  -0.201   6.051   3.692  0.3801 -0.2371 -0.0092
  320MOL0     C43119   0.224   5.900   3.745 -0.5602  0.6993 -0.0630
  320MOL0     C43120   0.258   5.859   3.616 -1.1975 -0.7155  0.1609
  320MOL0     C43121   0.383   5.823   3.572  0.7446 -0.0449 -0.4240
  320MOL0     C43122   0.492   5.851   3.667 -0.1639  1.0636 -0.7794
  320MOL0     O43123   0.625   5.831   3.631  0.6777 -1.3818 -0.0648
  320MOL0     C43124   0.673   5.796   3.510  0.2283  0.7390  0.1387
  320MOL0     C43125   0.814   5.750   3.529 -0.3729  0.3605  0.1683
  320MOL0     C43126   0.904   5.853   3.589  0.1195 -0.4450 -0.5154
  320MOL0     C43127   1.043   5.816   3.625 -0.9267  0.3636 -0.0955
  320MOL0     C43128   1.069   5.681   3.672 -0.2655 -0.0046  0.0221
  320MOL0     C43129   1.091   5.561   3.697 -0.2742  0.3549  0.0427
  320MOL0     C43130   0.459   5.886   3.794 -0.3895  0.4430 -0.9486
  320MOL0     C43131   0.329   5.905   3.839 -0.0135 -0.1720 -0.4237
  320MOL0     C43132   0.314   5.926   3.987 -0.1842 -0.6037 -0.0904
  320MOL0     H43133  -0.191   5.708   3.714 -1.6478 -0.4760  1.5529
  320MOL0     H43134  -0.419   5.728   3.750  1.1163 -0.3859 -1.1254
  320MOL0     H43135  -0.634   5.795   3.788 -1.4336 -0.1646 -0.1473
  320MOL0     H43136  -0.553   5.857   3.931  1.6172  0.5669 -1.3668
  320MOL0     H43137  -0.742   5.994   3.992 -0.5268 -0.2092 -0.6485
  320MOL0     H43138  -0.804   5.842   3.945 -3.4969  2.1413  0.2884
  320MOL0     H43139  -0.827   5.976   3.704  0.9769  2.0633 -1.4068
  320MOL0     H43140  -0.792   6.119   3.807  4.0582 -1.2319  0.5371
  320MOL0     H43141  -1.016   5.915   3.837 -1.3049  0.5159  0.4370
  320MOL0     H43142  -0.976   6.018   3.966 -0.6084 -3.9177  0.2705
  320MOL0     H43143  -1.031   6.221   3.817  2.0458 -1.0883  1.5405
  320MOL0     H43144  -1.042   6.116   3.677 -1.2816  2.3653 -0.5043
  320MOL0     H43145  -1.214   5.969   3.806 -0.2434  0.3466  0.5140
  320MOL0     H43146  -1.217   6.130   3.908  0.4175  1.6485  0.0071
  320MOL0     H43147  -1.261   6.237   3.688  0.1785  0.3691 -0.3260
  320MOL0     H43148  -1.395   6.156   3.780  1.4982  0.8443  1.4479
  320MOL0     H43149  -1.243   6.062   3.532 -0.6378  0.0115 -0.7210
  320MOL0     H43150  -1.354   5.952   3.616  0.5570 -0.1036  0.6719
  320MOL0     H43151  -1.610   6.076   3.681  0.6753  1.3103  0.2157
  320MOL0     H43152  -1.826   6.229   3.392  2.7373  1.9108  0.2276
  320MOL0     H43153  -1.853   6.145   3.546  0.8374 -0.6327  0.8011
  320MOL0     H43154  -1.709   6.330   3.656 -0.9607 -1.9451  0.5156
  320MOL0     H43155  -1.743   6.428   3.513 -0.7007  2.0717  3.1736
  320MOL0     H43156  -1.894   6.500   3.674 -2.2978  1.3614 -3.3365
  320MOL0     H43157  -1.938   6.332   3.741 -2.2493 -2.3115 -2.3993
  320MOL0     H43158  -2.061   6.279   3.561  1.6519  0.0735 -3.9986
  320MOL0     H43159  -2.014   6.419   3.474  2.7337 -0.2161 -0.0130
  320MOL0     H43160  -2.087   6.606   3.417 -0.5519  3.6837 -2.2032
  320MOL0     H43161  -2.090   6.838   3.414 -0.6289 -0.8649 -0.3956
  320MOL0     H43162  -2.005   7.180   3.839  0.1516  0.7923  0.0769
  320MOL0     H43163  -1.998   7.439   3.891 -0.8855 -1.2607  0.9808
  320MOL0     H43164  -2.378   7.674   3.789  2.5098 -0.1226 -2.4571
  320MOL0     H43165  -2.347   7.638   3.963  1.2014 -2.4393 -0.6744
  320MOL0     H43166  -2.361   7.855   3.942 -1.6623 -2.0637 -0.4230
  320MOL0     H43167  -2.188   7.826   3.948  0.6471 -1.7004 -1.5252
  320MOL0     H43168  -2.142   7.873   3.744  0.1774 -0.5075 -3.4716
  320MOL0     H43169  -2.305   7.834   3.675 -0.2776 -0.1657  0.8403
  320MOL0     H43170  -2.234   8.099   3.821 -1.9762 -1.1507  1.9091
  320MOL0     H43171  -2.399   8.046   3.786 -0.5783 -2.3090 -0.0941
  320MOL0     H43172  -2.326   8.214   3.621  1.5535  1.8874  0.9433
  320MOL0     H43173  -2.350   8.058   3.538  0.5188 -0.6652 -0.6340
  320MOL0     H43174  -2.082   8.177   3.616  0.4621 -1.0478  1.5918
  320MOL0     H43175  -2.100   8.013   3.559  0.4185  0.8004 -2.0736
  320MOL0     H43176  -2.201   8.257   3.383 -0.3797  1.5031 -0.3430
  320MOL0     H43177  -2.224   8.085   3.340 -0.0281  1.0702  0.3043
  320MOL0     H43178  -1.975   8.066   3.385 -0.6909  0.2733  0.0983
  320MOL0     H43179  -2.025   8.119   3.228 -0.2801 -1.1946  0.0684
  320MOL0     H43180  -2.399   7.462   3.728  2.4045  1.8104 -2.7551
  320MOL0     H43181  -2.400   7.246   3.686  0.5504  0.3741 -1.7017
  320MOL0     H43182  -2.257   6.847   3.815  1.1237  0.8032  0.0166
  320MOL0     H43183  -2.238   6.595   3.818 -0.2234  2.9462  1.1741
  320MOL0     H43184  -0.395   6.159   3.723 -0.7965  0.1276 -1.3922
  320MOL0     H43185  -0.153   6.143   3.663  1.4830 -1.3089 -1.7135
  320MOL0     H43186   0.175   5.850   3.546 -1.0444  1.7746 -0.4243
  320MOL0     H43187   0.394   5.793   3.469 -0.9880 -0.8557 -0.4096
  320MOL0     H43188   0.680   5.891   3.457  0.5039 -0.3524 -1.8811
  320MOL0     H43189   0.618   5.722   3.451  2.1339 -0.3319 -0.3790
  320MOL0     H43190   0.849   5.713   3.432 -0.3100  2.6817 -0.7653
  320MOL0     H43191   0.816   5.664   3.596 -1.5951  0.5643  0.4961
  320MOL0     H43192   0.862   5.881   3.686 -0.3302 -1.6424 -0.3497
  320MOL0     H43193   0.916   5.943   3.528 -0.3134 -0.0875 -0.0840
  320MOL0     H43194   1.103   5.848   3.540 -0.4086  0.9145  0.4663
  320MOL0     H43195   1.067   5.887   3.705 -2.4270  2.0677 -1.0737
  320MOL0     H43196   1.109   5.456   3.709  0.7391  0.5879  0.6584
  320MOL0     H43197   0.544   5.904   3.859  1.2628 -1.4483 -2.4348
  320MOL0     H43198   0.224   5.884   4.032 -0.4670 -1.4984 -1.4318
  320MOL0     H43199   0.388   5.869   4.043 -0.1682 -1.6900 -1.1785
  320MOL0     H43200   0.333   6.033   4.004  2.3932 -0.8720 -0.7941
  321MOL0     O43201   0.766   6.163   4.688  0.1708  0.2315 -0.4378
  321MOL0     C43202   0.765   6.090   4.591 -0.6304  0.6990 -0.2053
  321MOL0     O43203   0.875   6.049   4.528 -0.4609 -0.0204  0.1013
  321MOL0     C43204   0.993   6.114   4.555 -0.2824 -0.2362  0.9671
  321MOL0     C43205   1.013   6.250   4.536 -0.5670 -0.4595 -0.1812
  321MOL0     C43206   1.134   6.313   4.564  0.3464 -0.0645  0.1702
  321MOL0     C43207   1.247   6.239   4.592 -0.0538 -0.4194 -1.1219
  321MOL0     O43208   1.374   6.295   4.603  0.4857 -0.1885 -0.0120
  321MOL0     C43209   1.388   6.375   4.723  0.3519  0.1367  0.4275
  321MOL0     C43210   1.454   6.312   4.852 -0.1505  0.0157  0.2776
  321MOL0     C43211   1.591   6.263   4.833  0.1153  0.4104  1.1950
  321MOL0     C43212   1.686   6.310   4.944 -0.1130  0.4193  0.2909
  321MOL0     C43213   1.826   6.258   4.948 -0.2682 -0.0575 -0.1193
  321MOL0     C43214   1.907   6.287   4.817 -0.7252 -0.5611 -0.3828
  321MOL0     C43215   2.046   6.241   4.812 -0.6825  0.3054 -0.0333
  321MOL0     C43216   2.095   6.202   4.667 -0.5254  1.4395  0.1485
  321MOL0     N43217   2.109   6.325   4.599  0.0444  0.3745 -0.2817
  321MOL0     C43218   2.217   6.412   4.589  0.5513  0.1634 -0.1753
  321MOL0     C43219   2.160   6.509   4.512  0.2731 -1.3623  0.2608
  321MOL0     C43220   2.237   6.631   4.464 -0.1481 -0.0827  0.8556
  321MOL0     C43221   2.226   6.649   4.311 -0.0099 -0.3357 -0.6252
  321MOL0     C43222   2.333   6.730   4.241  0.2547  0.0561  0.2139
  321MOL0     C43223   2.466   6.660   4.225 -0.4195 -0.2581  0.0310
  321MOL0     O43224   2.538   6.654   4.346 -1.5814 -0.3551 -0.3916
  321MOL0     C43225   2.638   6.557   4.360  0.2274 -0.9346  0.0875
  321MOL0     C43226   2.635   6.486   4.478  0.1321 -0.2488 -0.2789
  321MOL0     C43227   2.728   6.383   4.494  0.1354 -0.3989 -0.2714
  321MOL0     C43228   2.833   6.361   4.398 -0.1063 -0.0581  0.0025
  321MOL0     C43229   2.943   6.263   4.426  0.4562  0.0101  0.5194
  321MOL0     O43230   2.943   6.199   4.541 -0.2655 -0.3091  0.0114
  321MOL0     C43231   3.062   6.126   4.569  0.1059 -0.6511  0.0827
  321MOL0     C43232   3.197   6.175   4.552  0.4559  0.3715 -0.0563
  321MOL0     C43233   3.313   6.107   4.607 -0.7452  0.8283 -0.1723
  321MOL0     C43234   3.295   5.978   4.660 -0.0286 -0.1291  0.0811
  321MOL0     O43235   3.388   5.891   4.694 -0.5677  0.0312  0.1936
  321MOL0     C43236   3.524   5.936   4.709 -0.2689  0.7529  0.7357
  321MOL0     C43237   3.610   5.804   4.724 -0.2558  1.0268  0.3996
  321MOL0     C43238   3.741   5.814   4.811 -0.4838  0.8348  0.3735
  321MOL0     C43239   3.811   5.684   4.784 -0.3615 -0.8230 -1.0003
  321MOL0     C43240   3.943   5.683   4.866  0.4832 -0.2589 -0.5694
  321MOL0     C43241   4.010   5.549   4.862 -1.2156  0.1837 -0.4232
  321MOL0     C43242   4.152   5.565   4.930  0.0657  0.0869  0.6828
  321MOL0     C43243   4.252   5.640   4.847  0.5347 -0.2615  0.2303
  321MOL0    Cl43244   4.307   5.534   4.711  0.2711 -0.2229  0.2325
  321MOL0     C43245   3.164   5.929   4.687 -0.2714 -0.1596 -0.0120
  321MOL0     C43246   3.052   6.005   4.646  0.0272 -0.3570  0.7709
  321MOL0     O43247   3.027   6.248   4.342 -0.7495  0.3311 -0.3067
  321MOL0     C43248   2.829   6.439   4.282 -0.0084 -0.1161 -0.5706
  321MOL0     C43249   2.727   6.532   4.257  0.5803 -0.1596  0.8070
  321MOL0     N43250   2.024   6.478   4.487  0.4816 -0.3576  0.0278
  321MOL0     N43251   2.003   6.366   4.533 -0.6298  0.9917 -0.4729
  321MOL0     C43252   1.230   6.101   4.592 -0.3292 -0.8313  0.7889
  321MOL0     C43253   1.108   6.036   4.578 -0.0965 -0.2966  1.0796
  321MOL0     C43254   0.637   6.016   4.565  0.9239 -0.8626  0.1445
  321MOL0     C43255   0.619   5.958   4.444 -0.5735  0.0212 -0.3088
  321MOL0     C43256   0.495   5.922   4.397  0.7043  0.6325 -0.2260
  321MOL0     C43257   0.388   5.915   4.479  1.0397 -0.2040 -0.5604
  321MOL0     O43258   0.264   5.866   4.450 -0.1191 -0.3687 -0.4818
  321MOL0     C43259   0.238   5.814   4.322  0.4438  0.6505  0.7224
  321MOL0     C43260   0.127   5.718   4.315 -0.8492 -0.4049  0.1157
  321MOL0     C43261  -0.004   5.776   4.361 -0.9807  0.1326 -0.2793
  321MOL0     C43262  -0.117   5.836   4.280  0.4455 -0.1466  0.1758
  321MOL0     C43263  -0.144   5.761   4.157 -0.0030  0.3155 -0.2652
  321MOL0     C43264  -0.181   5.690   4.062 -0.3976 -0.2900  0.3271
  321MOL0     C43265   0.407   5.968   4.607 -0.1804 -0.0123 -1.0134
  321MOL0     C43266   0.523   6.022   4.654 -0.6952 -0.1032 -0.7982
  321MOL0     C43267   0.524   6.079   4.802  0.5679 -0.0394 -0.0564
  321MOL0     H43268   0.922   6.308   4.530 -0.7484 -0.4299  1.9644
  321MOL0     H43269   1.141   6.421   4.563 -1.9088  0.2119  2.8554
  321MOL0     H43270   1.451   6.455   4.682 -0.3380 -0.2772 -1.5685
  321MOL0     H43271   1.296   6.424   4.754  0.4280  2.0272 -2.0441
  321MOL0     H43272   1.387   6.237   4.895  1.0056  1.4020  5.0426
  321MOL0     H43273   1.449   6.395   4.923 -2.9069  0.4153 -0.2593
  321MOL0     H43274   1.619   6.307   4.737 -1.2925 -1.6778 -0.2484
  321MOL0     H43275   1.579   6.155   4.823 -2.4731  0.8669 -2.2369
  321MOL0     H43276   1.695   6.419   4.945  1.4270  0.3049  1.2737
  321MOL0     H43277   1.642   6.287   5.042  0.6833 -0.4923  0.4435
  321MOL0     H43278   1.873   6.290   5.041 -1.1590  0.0099  0.3155
  321MOL0     H43279   1.831   6.150   4.966  1.6891 -0.0437 -0.3672
  321MOL0     H43280   1.847   6.240   4.738 -3.8613  1.5240  0.5728
  321MOL0     H43281   1.894   6.392   4.789 -0.9702  0.6999  3.7466
  321MOL0     H43282   2.054   6.149   4.871  1.8469  0.5280  0.0983
  321MOL0     H43283   2.109   6.318   4.857  4.0085 -2.4231 -1.2807
  321MOL0     H43284   2.197   6.161   4.669 -0.1796  2.1941 -1.1481
  321MOL0     H43285   2.039   6.121   4.620 -0.9750  3.0379 -2.2068
  321MOL0     H43286   2.315   6.416   4.635 -1.1184  2.6249  3.6697
  321MOL0     H43287   2.180   6.713   4.507  0.2487  1.2035 -0.9439
  321MOL0     H43288   2.345   6.636   4.483  0.4237  0.5698 -2.0685
  321MOL0     H43289   2.217   6.548   4.268 -1.2775 -0.3689 -0.2951
  321MOL0     H43290   2.140   6.712   4.288  1.5061  1.5052 -1.4862
  321MOL0     H43291   2.352   6.822   4.297  2.2014 -0.0184 -0.2431
  321MOL0     H43292   2.296   6.761   4.142 -0.5123  1.1650  0.8223
  321MOL0     H43293   2.526   6.715   4.152 -0.3451 -0.2973  0.0628
  321MOL0     H43294   2.445   6.560   4.186 -1.4340 -0.6668  1.5153
  321MOL0     H43295   2.566   6.515   4.557 -1.0470 -0.9972 -0.9965
  321MOL0     H43296   2.725   6.328   4.588 -1.7297 -1.6824 -1.0060
  321MOL0     H43297   3.213   6.272   4.506 -1.0862  0.5344 -0.3050
  321MOL0     H43298   3.413   6.141   4.583 -0.4277  0.1331  0.1239
  321MOL0     H43299   3.571   5.996   4.630  4.3003  1.6659  3.7708
  321MOL0     H43300   3.529   5.994   4.801 -1.9720  0.6893  0.8914
  321MOL0     H43301   3.561   5.716   4.766  0.1730  1.0392  0.9408
  321MOL0     H43302   3.652   5.782   4.625  1.4842 -1.1197  1.5288
  321MOL0     H43303   3.809   5.896   4.785 -0.4970  0.9618  0.7329
  321MOL0     H43304   3.719   5.828   4.917 -0.0850  1.2069  0.4096
  321MOL0     H43305   3.835   5.676   4.678 -1.0567 -0.9416 -1.1534
  321MOL0     H43306   3.750   5.600   4.816  0.0429 -0.9720 -0.6072
  321MOL0     H43307   3.933   5.722   4.967  1.1090  0.7739 -0.8893
  321MOL0     H43308   4.000   5.754   4.805 -3.5234  2.6569 -1.3919
  321MOL0     H43309   3.940   5.485   4.918 -0.5849 -1.3780 -1.3502
  321MOL0     H43310   4.023   5.518   4.758 -0.8028  1.3245 -0.7216
  321MOL0     H43311   4.187   5.464   4.952 -0.0730 -1.4555 -4.8134
  321MOL0     H43312   4.128   5.619   5.022 -1.9087 -0.0612  0.3196
  321MOL0     H43313   4.228   5.742   4.816  0.5110 -0.0906  0.8129
  321MOL0     H43314   4.334   5.665   4.913  0.4792 -1.7533  0.9144
  321MOL0     H43315   3.159   5.834   4.740  3.3201 -0.8500 -0.6114
  321MOL0     H43316   2.955   5.965   4.674  0.3177 -2.6793 -1.1574
  321MOL0     H43317   2.912   6.422   4.215  1.6112  0.0179  1.2892
  321MOL0     H43318   2.714   6.582   4.162 -1.6131 -1.1506  0.5202
  321MOL0     H43319   1.324   6.047   4.598 -0.0258 -0.4684 -0.3919
  321MOL0     H43320   1.103   5.928   4.572 -0.7766 -0.2246  0.0251
  321MOL0     H43321   0.703   5.938   4.377  2.3741  1.9948  2.5483
  321MOL0     H43322   0.486   5.875   4.300 -0.8699  0.9147 -0.2414
  321MOL0     H43323   0.326   5.761   4.285  0.1955 -0.4852  1.7158
  321MOL0     H43324   0.208   5.898   4.258  2.2606  0.9858  0.2458
  321MOL0     H43325   0.145   5.629   4.375 -0.7419 -2.0016 -2.1284
  321MOL0     H43326   0.119   5.676   4.214 -0.8895 -0.2975  0.0729
  321MOL0     H43327   0.019   5.841   4.446  3.1250 -0.5920 -0.6472
  321MOL0     H43328  -0.053   5.684   4.397 -0.7269  0.6865  1.6223
  321MOL0     H43329  -0.206   5.854   4.341 -0.5570 -1.0953 -0.9423
  321MOL0     H43330  -0.086   5.936   4.248  0.4388  0.6056  2.3053
  321MOL0     H43331  -0.209   5.634   3.975  0.4489 -1.5489  0.8440
  321MOL0     H43332   0.310   5.976   4.654 -0.0340 -0.7193 -0.5768
  321MOL0     H43333   0.587   6.026   4.874 -3.8901 -2.4826  2.5271
  321MOL0     H43334   0.523   6.188   4.798 -3.5251  0.1508  1.4153
  321MOL0     H43335   0.429   6.043   4.842 -0.8565  1.9790 -1.4460
  322MOL0     O43336   2.841   6.217   6.629  1.2245  0.5799  0.5326
  322MOL0     C43337   2.775   6.321   6.608 -0.8560 -0.0327  0.1238
  322MOL0     O43338   2.823   6.434   6.548 -0.5855 -0.3972 -0.6849
  322MOL0     C43339   2.958   6.433   6.516 -0.8768 -0.3119  0.0296
  322MOL0     C43340   3.042   6.526   6.581 -1.1163  0.5944  0.5743
  322MOL0     C43341   3.181   6.522   6.568  0.1501  0.4675  0.1573
  322MOL0     C43342   3.240   6.426   6.485  0.0652 -0.4859 -0.0016
  322MOL0     O43343   3.375   6.426   6.468 -0.6869 -0.0113  0.2450
  322MOL0     C43344   3.424   6.554   6.425 -0.3508  0.3188  0.1895
  322MOL0     C43345   3.517   6.619   6.522 -0.2367  0.6597 -0.3581
  322MOL0     C43346   3.568   6.757   6.472 -0.2813 -0.4771 -0.1340
  322MOL0     C43347   3.712   6.764   6.530 -0.2086 -0.1675  0.4239
  322MOL0     C43348   3.780   6.902   6.484  0.4310  0.1428 -0.4727
  322MOL0     C43349   3.757   7.016   6.593  0.5039  0.6462  0.4453
  322MOL0     C43350   3.823   7.139   6.539 -0.4992 -0.2443  0.1228
  322MOL0     C43351   3.746   7.208   6.415  0.0763 -0.1542 -0.0074
  322MOL0     N43352   3.604   7.221   6.454 -0.3273 -0.5332 -0.9286
  322MOL0     C43353   3.556   7.308   6.552 -0.2478 -0.5612  0.3564
  322MOL0     C43354   3.425   7.304   6.534 -0.6263 -0.5411  0.0531
  322MOL0     C43355   3.317   7.380   6.607 -0.5626  0.2286  0.9468
  322MOL0     C43356   3.218   7.436   6.502 -0.3157  0.4567  0.4310
  322MOL0     C43357   3.091   7.500   6.564 -0.2032  0.4700  0.0348
  322MOL0     C43358   3.000   7.400   6.641 -0.4120 -0.1382  0.8271
  322MOL0     O43359   2.941   7.293   6.566  0.2298  0.2571 -0.3528
  322MOL0     C43360   2.827   7.316   6.491 -1.1118 -0.4425 -0.3184
  322MOL0     C43361   2.834   7.369   6.360  0.4761  0.7089 -0.3972
  322MOL0     C43362   2.715   7.377   6.277 -0.7212  0.5881 -0.6828
  322MOL0     C43363   2.587   7.347   6.335 -0.9592 -0.2097  0.1560
  322MOL0     C43364   2.460   7.360   6.260 -0.1765 -0.4669 -1.1194
  322MOL0     O43365   2.460   7.446   6.157  0.3306 -0.2492 -0.1035
  322MOL0     C43366   2.331   7.474   6.101 -0.6649 -0.7212 -0.0152
  322MOL0     C43367   2.295   7.426   5.977  1.1532 -0.2263 -0.3670
  322MOL0     C43368   2.179   7.459   5.914 -0.3235  0.2477  0.1993
  322MOL0     C43369   2.080   7.524   5.988 -0.4770 -0.8589  0.6990
  322MOL0     O43370   1.967   7.558   5.920 -0.5296 -0.2863 -0.1224
  322MOL0     C43371   1.882   7.672   5.969  0.0661  0.2212 -0.5074
  322MOL0     C43372   1.744   7.660   5.901  0.4271  0.0433 -0.5025
  322MOL0     C43373   1.732   7.705   5.759  0.4595  0.5431 -0.2176
  322MOL0     C43374   1.630   7.817   5.749 -1.8668  0.2859 -0.1685
  322MOL0     C43375   1.631   7.883   5.610 -1.1850  0.6757  0.0216
  322MOL0     C43376   1.573   8.027   5.620 -0.1341  0.2972  0.0776
  322MOL0     C43377   1.563   8.083   5.481 -0.1871  0.1794  0.4693
  322MOL0     C43378   1.632   8.221   5.445  0.3447  0.1352 -0.1168
  322MOL0    Cl43379   1.799   8.244   5.509 -0.1847  0.0283  0.4578
  322MOL0     C43380   2.116   7.583   6.118  0.3574  0.2073  0.0769
  322MOL0     C43381   2.242   7.561   6.167  0.0378 -0.4526  0.1514
  322MOL0     O43382   2.359   7.324   6.317 -1.1401 -0.2995 -0.3355
  322MOL0     C43383   2.583   7.290   6.468 -0.5101 -0.7350  0.1592
  322MOL0     C43384   2.703   7.274   6.536  0.5032 -1.0512  0.1841
  322MOL0     N43385   3.394   7.211   6.430 -0.6190  0.0883 -0.4109
  322MOL0     N43386   3.505   7.161   6.386 -0.6078  0.4999  0.6322
  322MOL0     C43387   3.159   6.339   6.413 -0.2847  1.1786 -0.7842
  322MOL0     C43388   3.016   6.350   6.413  0.0021 -0.2758  0.1843
  322MOL0     C43389   2.630   6.311   6.637 -0.8936 -0.7989 -0.3821
  322MOL0     C43390   2.549   6.424   6.606  0.4129 -0.2931  0.4479
  322MOL0     C43391   2.415   6.439   6.643 -0.2816 -0.6156 -0.7835
  322MOL0     C43392   2.344   6.339   6.713 -0.5101  0.1382 -0.0813
  322MOL0     O43393   2.212   6.333   6.760 -0.4354 -0.4544  0.1713
  322MOL0     C43394   2.128   6.444   6.734 -0.8698  0.7667  0.6581
  322MOL0     C43395   2.156   6.575   6.819  1.0261  0.7785  0.2606
  322MOL0     C43396   2.113   6.580   6.959 -0.1901 -0.6679  0.3530
  322MOL0     C43397   2.231   6.547   7.057 -0.1133 -0.3622 -0.4176
  322MOL0     C43398   2.351   6.635   7.046  0.2449 -0.3987  0.5100
  322MOL0     C43399   2.436   6.726   7.039 -0.0686 -0.3851  0.5269
  322MOL0     C43400   2.426   6.224   6.737 -0.3323  0.5981  0.4372
  322MOL0     C43401   2.558   6.204   6.701  0.2660 -1.0834  0.0079
  322MOL0     C43402   2.621   6.072   6.719  0.7297  0.2502  0.2511
  322MOL0     H43403   2.998   6.597   6.651 -1.4846 -2.0073  3.2260
  322MOL0     H43404   3.243   6.571   6.642  1.0374  0.0333 -0.2952
  322MOL0     H43405   3.467   6.536   6.325 -0.0243 -0.8518  0.5219
  322MOL0     H43406   3.345   6.629   6.416 -0.4841 -0.0139 -2.5318
  322MOL0     H43407   3.583   6.532   6.515  1.3628  1.8486 -0.6920
  322MOL0     H43408   3.484   6.617   6.626 -1.3037 -0.7924 -0.6990
  322MOL0     H43409   3.502   6.840   6.500  1.4625  0.5254  1.2265
  322MOL0     H43410   3.586   6.754   6.364  2.4591  0.3798  0.2208
  322MOL0     H43411   3.709   6.759   6.639  0.2091  0.4471  0.4707
  322MOL0     H43412   3.756   6.671   6.492 -2.4777 -1.4214  0.7183
  322MOL0     H43413   3.889   6.893   6.472  0.4287  0.6321 -0.9273
  322MOL0     H43414   3.742   6.926   6.384  0.7591  2.3625 -0.1124
  322MOL0     H43415   3.649   7.024   6.607  0.2784  0.0103 -0.7278
  322MOL0     H43416   3.811   6.984   6.683  1.6459  2.3553  0.4133
  322MOL0     H43417   3.929   7.127   6.517 -0.3167 -1.3706  1.4860
  322MOL0     H43418   3.820   7.213   6.620 -1.0564 -0.4253  0.2767
  322MOL0     H43419   3.783   7.310   6.403  1.7485 -0.9669 -2.4194
  322MOL0     H43420   3.769   7.155   6.322  1.9330  1.8310 -0.7298
  322MOL0     H43421   3.621   7.368   6.615 -0.9940  0.3046  0.3316
  322MOL0     H43422   3.262   7.319   6.679 -2.2642 -0.5455 -0.9209
  322MOL0     H43423   3.367   7.453   6.671 -0.9744  1.1005  0.2914
  322MOL0     H43424   3.273   7.513   6.447  3.1823 -2.2985 -0.2611
  322MOL0     H43425   3.183   7.359   6.431  2.2151  2.0573 -2.8336
  322MOL0     H43426   3.025   7.536   6.485 -0.8978  0.5910  0.6643
  322MOL0     H43427   3.111   7.583   6.632  1.2034 -1.0665  1.5873
  322MOL0     H43428   2.929   7.466   6.691  0.1172  0.5691  0.6667
  322MOL0     H43429   3.072   7.355   6.709  0.9637  1.3532  0.4341
  322MOL0     H43430   2.924   7.409   6.314  2.5014 -2.1955  0.7349
  322MOL0     H43431   2.730   7.422   6.179 -1.2931  0.1989 -0.9600
  322MOL0     H43432   2.364   7.363   5.922 -0.0541 -1.5025 -0.4784
  322MOL0     H43433   2.161   7.420   5.814 -0.3617 -0.1766  0.3721
  322MOL0     H43434   1.863   7.668   6.076 -4.0766 -2.3347 -1.0827
  322MOL0     H43435   1.931   7.768   5.949  2.0383 -0.4312  0.9824
  322MOL0     H43436   1.711   7.556   5.910  1.4397 -0.1214  2.2129
  322MOL0     H43437   1.671   7.711   5.964  0.8070 -0.3007  0.2257
  322MOL0     H43438   1.832   7.727   5.722  0.3456  3.6402  1.0341
  322MOL0     H43439   1.702   7.622   5.694 -1.6203  3.7961 -3.8658
  322MOL0     H43440   1.658   7.894   5.822  4.8000 -1.0517 -0.6675
  322MOL0     H43441   1.530   7.776   5.766 -1.3079 -1.2814 -0.4636
  322MOL0     H43442   1.580   7.815   5.541 -0.5022  0.2147 -0.0376
  322MOL0     H43443   1.737   7.894   5.586 -1.5435 -0.4892 -2.4246
  322MOL0     H43444   1.467   8.036   5.648  0.0385  3.1122  0.1095
  322MOL0     H43445   1.624   8.102   5.681 -2.7127  0.9657  1.5709
  322MOL0     H43446   1.458   8.093   5.452  0.0548 -0.3004 -0.6336
  322MOL0     H43447   1.608   8.008   5.415 -0.3189 -4.8962  5.4012
  322MOL0     H43448   1.625   8.243   5.338 -0.8854  1.7318  0.2354
  322MOL0     H43449   1.578   8.303   5.494 -1.2599 -1.3456  0.7146
  322MOL0     H43450   2.053   7.657   6.167  0.5039  1.8034 -1.9927
  322MOL0     H43451   2.271   7.614   6.258 -1.0019  0.0098  0.2246
  322MOL0     H43452   2.496   7.239   6.508 -0.0868 -0.8056  1.0141
  322MOL0     H43453   2.725   7.210   6.621  3.8020 -0.0222  0.2626
  322MOL0     H43454   3.189   6.262   6.342 -1.5594  2.3152 -2.6118
  322MOL0     H43455   2.951   6.282   6.359 -3.3751  2.0305  1.0142
  322MOL0     H43456   2.602   6.514   6.575  3.1568 -1.9073  0.1808
  322MOL0     H43457   2.366   6.535   6.635 -0.7129 -0.7673 -0.0311
  322MOL0     H43458   2.029   6.400   6.754 -1.2249  0.5493 -1.4006
  322MOL0     H43459   2.144   6.474   6.630  0.2344 -1.7756  0.0315
  322MOL0     H43460   2.099   6.660   6.781 -2.4797 -0.4023  2.4179
  322MOL0     H43461   2.261   6.603   6.805  1.0444 -0.1990 -2.1260
  322MOL0     H43462   2.018   6.525   6.967 -1.0920  0.8678  0.6497
  322MOL0     H43463   2.077   6.680   6.986 -0.3892 -0.6245 -0.0522
  322MOL0     H43464   2.192   6.559   7.158  1.4834 -0.7119  0.2733
  322MOL0     H43465   2.263   6.446   7.028 -2.5883 -1.4394  0.3851
  322MOL0     H43466   2.508   6.803   7.023  0.6052 -1.1172 -0.0941
  322MOL0     H43467   2.378   6.143   6.791  0.7335 -0.1635  0.2795
  322MOL0     H43468   2.667   6.026   6.631  1.8753  1.7051  0.0595
  322MOL0     H43469   2.689   6.056   6.803  0.8450 -1.5245 -0.1435
  322MOL0     H43470   2.540   6.004   6.747  3.1065 -1.9106  2.3788
  323MOL0     O43471  10.864  11.218   4.482  0.4509  0.7192  1.2329
  323MOL0     C43472  10.821  11.316   4.416 -0.5244 -0.2567  0.2157
  323MOL0     O43473  10.853  11.447   4.437 -0.0190 -0.2001  0.1266
  323MOL0     C43474  10.940  11.476   4.544  0.4563  0.1620 -0.6894
  323MOL0     C43475  11.079  11.457   4.531 -0.0404 -0.6057  0.0045
  323MOL0     C43476  11.168  11.511   4.626 -0.4526 -0.2168 -0.0308
  323MOL0     C43477  11.119  11.584   4.737 -0.1083  0.1249 -1.1854
  323MOL0     O43478  11.205  11.644   4.831  0.0931  0.1881 -0.1805
  323MOL0     C43479  11.177  11.759   4.909  0.7549 -0.2317 -0.2347
  323MOL0     C43480  11.155  11.733   5.059  0.4010 -0.2792 -0.6102
  323MOL0     C43481  11.133  11.867   5.135 -0.2359 -0.3159 -0.2152
  323MOL0     C43482  10.989  11.898   5.164 -0.0549  0.0952  0.4067
  323MOL0     C43483  10.961  12.030   5.239 -0.4915  0.6555 -0.2526
  323MOL0     C43484  11.013  12.154   5.151 -0.8274  1.5856  0.0884
  323MOL0     C43485  10.988  12.279   5.226 -0.8602 -1.0641  0.6192
  323MOL0     C43486  11.089  12.315   5.340 -0.3010 -0.3654 -0.0481
  323MOL0     N43487  11.235  12.312   5.320  0.2156 -0.3871  0.5459
  323MOL0     C43488  11.315  12.421   5.295  0.1813  0.9471 -0.3262
  323MOL0     C43489  11.435  12.366   5.269 -0.5955 -0.2218  0.5994
  323MOL0     C43490  11.566  12.438   5.233 -0.8829  0.6782  0.8804
  323MOL0     C43491  11.671  12.433   5.341 -0.2148  0.3343  0.0138
  323MOL0     C43492  11.801  12.483   5.283 -0.5469  0.2437  0.6760
  323MOL0     C43493  11.917  12.478   5.386 -0.4170 -0.6532 -0.0283
  323MOL0     O43494  11.969  12.344   5.391  0.0129 -0.1398  1.3620
  323MOL0     C43495  12.089  12.324   5.336 -0.4009  0.1919  0.1675
  323MOL0     C43496  12.172  12.239   5.408 -0.5293 -0.1100 -0.5370
  323MOL0     C43497  12.300  12.216   5.364 -0.6296  0.0252  0.0368
  323MOL0     C43498  12.349  12.263   5.247 -0.5354 -0.6368  1.1540
  323MOL0     C43499  12.480  12.219   5.195  0.2436  0.5385  0.0112
  323MOL0     O43500  12.518  12.278   5.079 -0.4241  0.4819  0.0935
  323MOL0     C43501  12.646  12.255   5.046 -0.4267  0.2921  0.7301
  323MOL0     C43502  12.684  12.134   4.977  0.5269  0.2458 -0.1472
  323MOL0     C43503  12.807  12.135   4.913  0.1394 -1.0027  1.2591
  323MOL0     C43504  12.897  12.234   4.933 -0.2380 -0.6475  0.6248
  323MOL0     O43505  13.024  12.206   4.889 -0.0196 -0.1985 -0.4775
  323MOL0     C43506  13.072  12.312   4.811 -0.9361  0.2525  1.0683
  323MOL0     C43507  13.204  12.256   4.750 -0.6836 -0.0107 -0.0158
  323MOL0     C43508  13.309  12.262   4.864 -0.3512  0.2675 -0.3008
  323MOL0     C43509  13.446  12.228   4.810 -0.7274 -0.2005  1.1711
  323MOL0     C43510  13.464  12.081   4.761  0.1854  1.1047  0.4505
  323MOL0     C43511  13.427  11.961   4.863 -0.3644 -0.5033  0.5134
  323MOL0     C43512  13.525  11.961   4.988  0.0280  0.2578 -1.0655
  323MOL0     C43513  13.545  11.819   5.053  0.6691 -0.5350 -0.3870
  323MOL0    Cl43514  13.650  11.733   4.945 -0.1705  0.1576  0.9051
  323MOL0     C43515  12.872  12.342   5.022  0.0560  0.6094 -0.0177
  323MOL0     C43516  12.746  12.347   5.080 -0.3477 -0.3280 -0.1610
  323MOL0     O43517  12.554  12.158   5.272  0.1189 -0.5429  0.2288
  323MOL0     C43518  12.275  12.357   5.174 -0.8967  0.3980 -0.2756
  323MOL0     C43519  12.136  12.387   5.218 -0.2087 -0.1183  0.7613
  323MOL0     N43520  11.419  12.227   5.272 -0.2532 -0.6415  0.2461
  323MOL0     N43521  11.301  12.195   5.315  0.3130  0.2626 -0.4733
  323MOL0     C43522  10.985  11.599   4.751  1.0876 -0.5641 -0.0496
  323MOL0     C43523  10.895  11.549   4.656  0.4337  0.3335 -0.6355
  323MOL0     C43524  10.715  11.300   4.312 -0.4866 -0.8739 -0.7229
  323MOL0     C43525  10.679  11.420   4.244 -0.6132 -0.9113  0.4549
  323MOL0     C43526  10.590  11.411   4.135 -0.3548  0.3053 -0.4245
  323MOL0     C43527  10.537  11.285   4.086 -0.2160 -0.2764 -0.2831
  323MOL0     O43528  10.469  11.276   3.970  0.0208 -0.4712  0.2658
  323MOL0     C43529  10.379  11.169   3.956  0.6836  0.2895  0.0350
  323MOL0     C43530  10.276  11.215   3.846 -0.1839  0.5252 -0.8072
  323MOL0     C43531  10.154  11.129   3.869 -0.0047  0.8177  0.6231
  323MOL0     C43532  10.025  11.185   3.794 -0.6740  0.1044  0.7921
  323MOL0     C43533  10.049  11.235   3.662 -0.8106 -0.2587 -0.1733
  323MOL0     C43534  10.102  11.263   3.557 -1.3467 -0.4789  0.1880
  323MOL0     C43535  10.565  11.173   4.162 -0.5587  0.0328 -0.6719
  323MOL0     C43536  10.650  11.177   4.276 -0.3624 -0.4798  0.1047
  323MOL0     C43537  10.668  11.049   4.356  0.1300  0.6410 -0.0002
  323MOL0     H43538  11.118  11.400   4.447  1.0355 -3.9611  2.5312
  323MOL0     H43539  11.276  11.504   4.612  0.2260  3.1273  2.2125
  323MOL0     H43540  11.262  11.826   4.896  1.6908 -1.7462 -2.6581
  323MOL0     H43541  11.093  11.803   4.854  2.6936 -0.2250 -3.4280
  323MOL0     H43542  11.246  11.697   5.108  1.9491  3.7761 -0.1478
  323MOL0     H43543  11.077  11.658   5.076 -0.1496  0.0390 -1.6861
  323MOL0     H43544  11.181  11.947   5.077 -3.9281 -2.3752 -7.2873
  323MOL0     H43545  11.175  11.847   5.234 -0.5001 -3.1993 -0.6013
  323MOL0     H43546  10.935  11.900   5.070 -1.1206 -1.9012  0.9265
  323MOL0     H43547  10.938  11.816   5.214 -0.8747 -0.2529 -0.9735
  323MOL0     H43548  10.852  12.030   5.253 -0.8240 -3.1539 -1.5784
  323MOL0     H43549  11.012  12.024   5.335  1.9567  0.3597 -1.5012
  323MOL0     H43550  11.117  12.145   5.117 -0.0083 -0.7170  2.7766
  323MOL0     H43551  10.951  12.154   5.061 -2.6546  1.8591  1.3072
  323MOL0     H43552  10.885  12.287   5.262 -1.3052  1.8130 -1.0056
  323MOL0     H43553  10.999  12.362   5.156 -0.5685 -1.8354 -0.2643
  323MOL0     H43554  11.063  12.416   5.372 -1.6950 -0.2755 -1.3311
  323MOL0     H43555  11.061  12.245   5.420 -3.2102  0.9444  0.2076
  323MOL0     H43556  11.283  12.525   5.291 -3.6689 -0.0909 -0.7644
  323MOL0     H43557  11.602  12.395   5.138 -1.0562  2.4800 -0.0522
  323MOL0     H43558  11.554  12.543   5.205  3.3596  1.6434  1.9292
  323MOL0     H43559  11.641  12.499   5.423  3.6672  5.5603 -2.1376
  323MOL0     H43560  11.696  12.332   5.373  2.8273  0.1707 -2.4565
  323MOL0     H43561  11.793  12.580   5.235  2.4095 -1.6669 -4.3912
  323MOL0     H43562  11.837  12.417   5.204  2.2237  2.5488 -0.1331
  323MOL0     H43563  11.871  12.502   5.482 -1.5249  0.6464 -0.8668
  323MOL0     H43564  11.995  12.554   5.374  1.1721 -2.2191 -0.1020
  323MOL0     H43565  12.135  12.215   5.507 -3.1549  3.5393 -0.4035
  323MOL0     H43566  12.367  12.163   5.432 -1.5160 -3.1066 -1.3254
  323MOL0     H43567  12.625  12.044   4.963  3.0675 -1.7699  1.2437
  323MOL0     H43568  12.825  12.050   4.849 -2.1291  1.8770 -3.8080
  323MOL0     H43569  13.003  12.330   4.728 -1.7636  0.3736  1.7707
  323MOL0     H43570  13.089  12.403   4.871 -0.6043  0.3666  0.8056
  323MOL0     H43571  13.194  12.152   4.719  1.7190  0.9290 -4.7928
  323MOL0     H43572  13.237  12.322   4.669  0.8346 -2.8767 -1.8760
  323MOL0     H43573  13.318  12.361   4.910  0.0053 -1.2142  3.0644
  323MOL0     H43574  13.279  12.191   4.942 -0.5945  0.7662  0.0651
  323MOL0     H43575  13.530  12.246   4.878  1.7962 -1.2819 -1.4351
  323MOL0     H43576  13.476  12.301   4.735  0.5477 -0.7944  1.0736
  323MOL0     H43577  13.568  12.062   4.731 -0.3695  2.3261 -2.5955
  323MOL0     H43578  13.414  12.070   4.664  3.4634  2.6835 -1.6313
  323MOL0     H43579  13.321  11.980   4.879 -0.9103 -0.2075 -2.6643
  323MOL0     H43580  13.437  11.863   4.815 -0.7525  0.3352 -1.3868
  323MOL0     H43581  13.485  12.029   5.065 -0.2701  1.2114 -2.0385
  323MOL0     H43582  13.628  11.991   4.968  0.0292  0.2987 -0.9995
  323MOL0     H43583  13.586  11.831   5.153 -3.5633  0.1934  1.4587
  323MOL0     H43584  13.443  11.783   5.065  0.1167  1.8547  4.1608
  323MOL0     H43585  12.951  12.411   5.050  0.4043  0.5548 -0.8600
  323MOL0     H43586  12.726  12.437   5.138 -0.3368  0.4305 -1.2973
  323MOL0     H43587  12.309  12.417   5.091  1.6371  2.2380  1.9116
  323MOL0     H43588  12.063  12.449   5.167 -4.0131 -3.4343  1.6062
  323MOL0     H43589  10.939  11.649   4.836  1.8710 -2.3576  1.5290
  323MOL0     H43590  10.790  11.573   4.651  0.7263  2.3791  1.4504
  323MOL0     H43591  10.711  11.523   4.252 -1.7863 -0.5444  0.6035
  323MOL0     H43592  10.550  11.489   4.071 -2.0994 -1.4829 -1.6397
  323MOL0     H43593  10.330  11.176   4.053 -0.4706  2.2453 -0.6334
  323MOL0     H43594  10.420  11.069   3.938 -2.3364 -1.4760  1.9783
  323MOL0     H43595  10.320  11.201   3.746 -0.7866 -1.1780 -0.8680
  323MOL0     H43596  10.250  11.317   3.874  0.5877  0.7746 -0.9729
  323MOL0     H43597  10.138  11.114   3.976 -0.4127 -0.7494  0.3722
  323MOL0     H43598  10.177  11.031   3.827 -0.5433  0.7083  0.5773
  323MOL0     H43599   9.946  11.109   3.790 -0.0846 -0.4671 -0.7289
  323MOL0     H43600   9.980  11.267   3.851 -2.2913 -0.3123  0.1712
  323MOL0     H43601  10.162  11.273   3.469  0.9115 -0.6553  1.6254
  323MOL0     H43602  10.514  11.082   4.131  0.1601 -0.6230  0.0199
  323MOL0     H43603  10.767  11.028   4.396 -0.7695  1.4845  2.9125
  323MOL0     H43604  10.606  11.063   4.445 -0.2259  0.5620 -0.2297
  323MOL0     H43605  10.626  10.961   4.306  0.7700  0.7234 -0.6976
  324MOL0     O43606   7.794   6.804   5.122  0.0392 -0.4528 -0.0309
  324MOL0     C43607   7.812   6.733   5.218  0.4634 -0.5988 -0.4928
  324MOL0     O43608   7.724   6.633   5.257  0.1632  0.7029  0.0113
  324MOL0     C43609   7.587   6.623   5.222 -0.7610 -0.6521 -0.2270
  324MOL0     C43610   7.529   6.504   5.255  0.8002 -0.3360  0.3505
  324MOL0     C43611   7.391   6.480   5.226 -0.8157 -0.1816  0.2749
  324MOL0     C43612   7.317   6.574   5.152  1.0480  0.7295 -0.0444
  324MOL0     O43613   7.182   6.569   5.118  0.2503 -0.2869  0.2050
  324MOL0     C43614   7.091   6.481   5.190  0.6061  0.5884  0.3939
  324MOL0     C43615   6.963   6.463   5.103 -1.2474 -0.3460  0.7599
  324MOL0     C43616   6.893   6.597   5.074  0.2781 -0.2633  0.8303
  324MOL0     C43617   6.797   6.582   4.962  0.4930  0.0576 -0.1595
  324MOL0     C43618   6.734   6.715   4.918  0.3381  0.2283 -0.6725
  324MOL0     C43619   6.681   6.709   4.776 -0.0920  0.2037 -0.4745
  324MOL0     C43620   6.572   6.805   4.752 -0.3282  0.1246  0.0051
  324MOL0     C43621   6.524   6.803   4.616 -0.2348 -0.7094 -0.3496
  324MOL0     N43622   6.419   6.900   4.617  1.2129  0.5716  0.1548
  324MOL0     C43623   6.302   6.907   4.692  0.1728 -0.3546 -0.2051
  324MOL0     C43624   6.260   7.038   4.675 -0.2297 -0.1335 -0.1408
  324MOL0     C43625   6.150   7.096   4.757 -0.4450  0.0547 -0.3001
  324MOL0     C43626   6.008   7.049   4.709 -0.4622  0.3380 -0.1259
  324MOL0     C43627   5.907   7.077   4.813 -0.7705  0.7327 -0.4497
  324MOL0     C43628   5.766   7.051   4.760  0.9297  0.3345 -0.3643
  324MOL0     O43629   5.752   6.926   4.700 -0.5536  0.4490  0.1046
  324MOL0     C43630   5.628   6.882   4.673 -0.0944 -0.5712  0.3930
  324MOL0     C43631   5.608   6.746   4.670 -0.2540 -0.7123 -0.1654
  324MOL0     C43632   5.481   6.685   4.640 -0.2179 -1.0794 -0.0914
  324MOL0     C43633   5.374   6.763   4.616 -0.1109  0.3612 -0.6999
  324MOL0     C43634   5.236   6.700   4.593 -0.5059 -0.3907 -0.8004
  324MOL0     O43635   5.229   6.570   4.560  1.0535  0.3157  0.1608
  324MOL0     C43636   5.114   6.528   4.487  0.0657  0.9155 -0.6841
  324MOL0     C43637   4.996   6.527   4.547  0.6165  0.4488 -0.2411
  324MOL0     C43638   4.875   6.481   4.482  0.2214 -0.1641  0.0034
  324MOL0     C43639   4.876   6.441   4.347 -1.3017 -0.8088 -0.6144
  324MOL0     O43640   4.771   6.412   4.266  0.1691  0.1416 -0.4939
  324MOL0     C43641   4.659   6.495   4.297  0.2318  0.0923  0.1638
  324MOL0     C43642   4.543   6.451   4.218  0.1503  0.0479 -0.6218
  324MOL0     C43643   4.423   6.555   4.220  0.9264  0.3323  0.8138
  324MOL0     C43644   4.288   6.494   4.184 -0.2688  0.0870  0.2675
  324MOL0     C43645   4.176   6.590   4.201 -1.0026 -0.2166  0.5508
  324MOL0     C43646   4.036   6.530   4.168 -0.3927  0.2507 -0.0133
  324MOL0     C43647   4.018   6.533   4.015  0.6051 -0.3386  0.4860
  324MOL0     C43648   3.888   6.446   3.971 -0.3853 -0.8640 -0.3659
  324MOL0    Cl43649   3.735   6.529   4.014  0.2149  0.3992  0.1187
  324MOL0     C43650   5.009   6.425   4.293  0.4486  0.3354 -0.3381
  324MOL0     C43651   5.126   6.462   4.358 -0.7036 -1.2911 -0.4187
  324MOL0     O43652   5.132   6.773   4.594  0.2658 -0.0172  0.6408
  324MOL0     C43653   5.389   6.896   4.609  0.3612 -0.9052 -0.6350
  324MOL0     C43654   5.515   6.964   4.646  0.5854 -0.0279 -0.2774
  324MOL0     N43655   6.341   7.104   4.584  0.1973  0.0490  0.6956
  324MOL0     N43656   6.441   7.016   4.545  0.9545 -0.8374  0.0899
  324MOL0     C43657   7.369   6.696   5.125 -0.7108  0.3151  0.2257
  324MOL0     C43658   7.507   6.720   5.160 -0.6001 -0.4360  0.0712
  324MOL0     C43659   7.929   6.745   5.313 -0.6022  0.3078  0.9570
  324MOL0     C43660   7.912   6.707   5.449 -0.8501 -0.3824  0.0926
  324MOL0     C43661   8.006   6.719   5.549 -0.3261  0.5709  0.6028
  324MOL0     C43662   8.119   6.795   5.535 -0.2090 -0.4341  0.6047
  324MOL0     O43663   8.212   6.808   5.637  0.7719  0.2436  0.3786
  324MOL0     C43664   8.314   6.911   5.639  0.0817  0.4839 -0.8989
  324MOL0     C43665   8.461   6.855   5.605  0.6979  0.9688  0.0653
  324MOL0     C43666   8.513   6.744   5.691  0.0633  0.5213  0.3060
  324MOL0     C43667   8.555   6.804   5.827  0.2034  0.1697 -0.6332
  324MOL0     C43668   8.615   6.718   5.927 -0.4894  0.5374 -0.7348
  324MOL0     C43669   8.676   6.667   6.021 -0.1761  0.1733  0.4224
  324MOL0     C43670   8.144   6.850   5.404  0.5597  0.5802  0.6570
  324MOL0     C43671   8.057   6.816   5.291 -0.4366 -0.2113 -0.4998
  324MOL0     C43672   8.104   6.855   5.153  0.1968 -0.5585  0.7715
  324MOL0     H43673   7.586   6.433   5.314 -1.0737 -3.6997 -1.5840
  324MOL0     H43674   7.353   6.383   5.257 -2.5356  0.4642  0.3525
  324MOL0     H43675   7.140   6.383   5.192 -1.2374 -0.5889 -3.4230
  324MOL0     H43676   7.059   6.520   5.287 -3.8506 -0.9766 -0.2347
  324MOL0     H43677   6.889   6.392   5.141 -2.1485 -0.7211 -1.5305
  324MOL0     H43678   6.988   6.422   5.005 -0.3045  1.3396  0.2446
  324MOL0     H43679   6.968   6.665   5.032 -1.7431  0.1161 -2.4342
  324MOL0     H43680   6.860   6.641   5.168  0.9248  0.7270  0.6061
  324MOL0     H43681   6.858   6.539   4.882 -0.1961 -0.8123 -0.2297
  324MOL0     H43682   6.724   6.514   5.007 -0.0696  1.4312  1.0916
  324MOL0     H43683   6.650   6.745   4.981 -0.0036 -1.7451 -0.1107
  324MOL0     H43684   6.817   6.787   4.921 -0.3983  1.0849 -0.4343
  324MOL0     H43685   6.767   6.715   4.709  1.3836 -0.1796  1.2862
  324MOL0     H43686   6.648   6.605   4.772 -0.4592  0.2023  1.4219
  324MOL0     H43687   6.608   6.905   4.777 -1.8367  0.7675 -0.3180
  324MOL0     H43688   6.488   6.785   4.819  0.0804  0.5369  0.6419
  324MOL0     H43689   6.607   6.824   4.548  0.4862 -0.4049  0.6008
  324MOL0     H43690   6.487   6.703   4.592 -0.1467 -0.8372  0.0327
  324MOL0     H43691   6.271   6.831   4.763  1.2661 -2.0972 -1.4991
  324MOL0     H43692   6.158   7.070   4.863 -1.5746 -2.1068 -0.7005
  324MOL0     H43693   6.168   7.204   4.750  0.4490 -0.2046 -3.5725
  324MOL0     H43694   5.971   7.097   4.618 -3.7374  2.5906  2.1539
  324MOL0     H43695   6.010   6.941   4.693 -2.0322 -0.0273  1.7280
  324MOL0     H43696   5.905   7.179   4.851 -2.1202  1.0583 -1.2913
  324MOL0     H43697   5.912   7.004   4.894 -3.8914  1.9459  1.0273
  324MOL0     H43698   5.749   7.130   4.685  2.2503  2.5575  1.5340
  324MOL0     H43699   5.696   7.066   4.842  5.9465  2.4564  4.2014
  324MOL0     H43700   5.685   6.675   4.696  0.8255  0.6729  0.5111
  324MOL0     H43701   5.470   6.578   4.654 -4.6584 -0.6018  1.8807
  324MOL0     H43702   4.979   6.551   4.652 -5.0827 -1.5253 -0.3854
  324MOL0     H43703   4.791   6.483   4.550  1.1190 -2.2586  1.2773
  324MOL0     H43704   4.640   6.493   4.405  2.0927 -3.0384  0.5330
  324MOL0     H43705   4.677   6.601   4.275 -1.5730  0.0396 -1.9244
  324MOL0     H43706   4.571   6.434   4.114  0.1791 -1.3423 -0.4146
  324MOL0     H43707   4.496   6.359   4.256  0.0212  1.0754  1.8756
  324MOL0     H43708   4.419   6.596   4.321  0.9703  1.6409  0.2996
  324MOL0     H43709   4.447   6.639   4.155  0.1010  0.9280  1.2571
  324MOL0     H43710   4.271   6.402   4.239 -1.5473 -1.2101 -2.1277
  324MOL0     H43711   4.300   6.462   4.080  0.3141  0.5372  0.1875
  324MOL0     H43712   4.213   6.677   4.145 -0.2573  0.1631  1.6131
  324MOL0     H43713   4.173   6.628   4.303 -2.0613  2.0005 -0.2339
  324MOL0     H43714   4.021   6.430   4.212  1.5906  0.0538  0.2864
  324MOL0     H43715   3.966   6.595   4.221 -3.0326 -2.2110 -0.1995
  324MOL0     H43716   4.104   6.499   3.956  0.0038  0.6511 -1.0478
  324MOL0     H43717   4.002   6.639   3.992 -1.8736 -0.6492  0.5141
  324MOL0     H43718   3.889   6.434   3.863  0.3612  2.2380 -0.7982
  324MOL0     H43719   3.893   6.346   4.015  2.4645 -0.6914 -0.1171
  324MOL0     H43720   5.027   6.393   4.191 -0.2618  1.3040 -0.7857
  324MOL0     H43721   5.222   6.471   4.307 -1.1554 -1.7879 -1.3861
  324MOL0     H43722   5.305   6.961   4.589 -0.2901 -1.0069  1.5308
  324MOL0     H43723   5.522   7.072   4.641  1.6970 -0.0337  0.6795
  324MOL0     H43724   7.309   6.769   5.072 -0.0868  1.0027  0.4443
  324MOL0     H43725   7.554   6.817   5.143  0.8894 -0.9908  0.7645
  324MOL0     H43726   7.817   6.666   5.482 -2.7233  3.0006 -0.6368
  324MOL0     H43727   7.989   6.660   5.638  1.2098 -1.3419 -0.2841
  324MOL0     H43728   8.308   6.954   5.739 -1.0529 -0.2912 -0.6150
  324MOL0     H43729   8.293   7.000   5.579  1.8633  1.1246 -0.6139
  324MOL0     H43730   8.537   6.933   5.602  3.5478 -1.6617 -2.1853
  324MOL0     H43731   8.446   6.828   5.500 -2.1294  3.3431 -0.2634
  324MOL0     H43732   8.593   6.685   5.645 -0.2557 -1.1979  1.8129
  324MOL0     H43733   8.440   6.664   5.705 -0.3201  0.9401  0.7279
  324MOL0     H43734   8.626   6.886   5.812 -2.2478  2.5009 -0.2911
  324MOL0     H43735   8.465   6.849   5.869  0.2637 -0.8017  0.5595
  324MOL0     H43736   8.740   6.609   6.085 -0.4378 -0.2994  0.2610
  324MOL0     H43737   8.237   6.896   5.373  2.0013 -0.4766  3.1469
  324MOL0     H43738   8.020   6.859   5.083  2.7771 -0.0002 -2.5030
  324MOL0     H43739   8.143   6.957   5.154  2.2634 -1.2825 -0.5565
  324MOL0     H43740   8.183   6.793   5.109 -0.0087 -0.2979  0.0270
  325MOL0     O43741   5.213   4.515   7.805 -0.4288 -0.3219  0.9593
  325MOL0     C43742   5.260   4.616   7.860 -0.4474 -0.8173  0.5312
  325MOL0     O43743   5.202   4.729   7.889  0.3680 -0.9972  0.1551
  325MOL0     C43744   5.068   4.750   7.852 -0.4020  0.3128  0.7308
  325MOL0     C43745   5.024   4.840   7.748 -0.6724  0.8668 -0.4720
  325MOL0     C43746   4.890   4.846   7.712 -0.2411  1.4988  0.6289
  325MOL0     C43747   4.793   4.769   7.774 -0.1697  0.7501  0.5710
  325MOL0     O43748   4.664   4.789   7.736  0.0054 -0.0993  0.6597
  325MOL0     C43749   4.563   4.698   7.754  0.1466  0.8111  0.4066
  325MOL0     C43750   4.460   4.718   7.641 -0.1859 -0.4705 -0.6916
  325MOL0     C43751   4.334   4.625   7.681  0.0539  0.1829  0.0605
  325MOL0     C43752   4.226   4.700   7.747  0.4619  0.4459 -0.1044
  325MOL0     C43753   4.114   4.607   7.799  0.7527 -0.4506  0.6341
  325MOL0     C43754   4.143   4.510   7.918  0.0744  0.0807 -0.4885
  325MOL0     C43755   4.018   4.469   7.997  0.7911  0.4645 -0.1575
  325MOL0     C43756   4.042   4.347   8.079 -0.3355 -0.0435 -0.8380
  325MOL0     N43757   4.119   4.380   8.197 -0.1660 -0.1811  0.0505
  325MOL0     C43758   4.251   4.334   8.216 -0.1676  0.4195 -0.3045
  325MOL0     C43759   4.271   4.364   8.350  0.4054  0.1581  0.3604
  325MOL0     C43760   4.398   4.363   8.430 -0.5464 -0.2291 -0.1211
  325MOL0     C43761   4.419   4.497   8.496 -0.4299  0.2382  0.5077
  325MOL0     C43762   4.523   4.482   8.615  0.7064 -0.4485 -0.2352
  325MOL0     C43763   4.642   4.396   8.571 -0.3152 -0.1290  0.1951
  325MOL0     O43764   4.743   4.400   8.668 -0.2008 -0.0629  0.0281
  325MOL0     C43765   4.877   4.355   8.644  0.9736 -1.1315  0.7587
  325MOL0     C43766   4.980   4.414   8.714 -0.7558  0.3294  0.9144
  325MOL0     C43767   5.110   4.381   8.687 -0.5197 -0.3156 -0.8594
  325MOL0     C43768   5.146   4.294   8.590  0.6939  0.1968  0.1249
  325MOL0     C43769   5.290   4.262   8.556  0.6183  0.7315 -0.2721
  325MOL0     O43770   5.389   4.302   8.632 -0.4092 -0.4396 -0.2597
  325MOL0     C43771   5.519   4.275   8.612  0.5676 -0.0236 -0.1002
  325MOL0     C43772   5.571   4.193   8.507 -0.0172 -0.6699 -0.6564
  325MOL0     C43773   5.709   4.179   8.492  0.3846 -0.0885 -0.3351
  325MOL0     C43774   5.804   4.222   8.588 -0.7484  0.2450  0.4634
  325MOL0     O43775   5.937   4.211   8.583 -0.5501  0.9862  0.0910
  325MOL0     C43776   5.980   4.136   8.471  0.5307  0.2991  0.1603
  325MOL0     C43777   6.131   4.157   8.462 -0.1346 -0.2154  0.6344
  325MOL0     C43778   6.201   4.068   8.567 -0.6508  0.0202 -0.0900
  325MOL0     C43779   6.233   3.925   8.518  0.6458 -0.3269  0.7160
  325MOL0     C43780   6.274   3.825   8.627 -0.2143 -0.3814  0.1948
  325MOL0     C43781   6.293   3.678   8.576  0.2003  0.5922 -0.9682
  325MOL0     C43782   6.411   3.648   8.477  0.5772  0.6235  0.1257
  325MOL0     C43783   6.433   3.492   8.456 -1.1845 -0.6901  0.2896
  325MOL0    Cl43784   6.506   3.421   8.609  0.0616 -0.2800 -0.3751
  325MOL0     C43785   5.756   4.307   8.685  0.1381 -0.1867 -0.0226
  325MOL0     C43786   5.617   4.333   8.693  0.5639  0.1642 -0.7544
  325MOL0     O43787   5.298   4.217   8.441  0.0469 -0.1997 -0.6656
  325MOL0     C43788   5.040   4.239   8.512 -0.1211  0.5149 -0.0625
  325MOL0     C43789   4.908   4.261   8.543  0.2716 -0.9460 -0.3814
  325MOL0     N43790   4.156   4.419   8.400  0.0524 -0.0494 -1.0614
  325MOL0     N43791   4.066   4.428   8.315 -1.2036  0.0024  0.1520
  325MOL0     C43792   4.831   4.682   7.876  0.5867  0.1790 -0.4541
  325MOL0     C43793   4.969   4.674   7.908 -0.1260  0.0824 -0.1909
  325MOL0     C43794   5.411   4.622   7.882 -0.4970 -0.5298  0.0336
  325MOL0     C43795   5.451   4.710   7.980 -0.1658  0.0810  0.3191
  325MOL0     C43796   5.588   4.724   8.010  0.0922 -0.3793 -0.5711
  325MOL0     C43797   5.681   4.657   7.932  0.6265 -0.7169 -0.4157
  325MOL0     O43798   5.813   4.709   7.940  0.5168  0.3563  0.0759
  325MOL0     C43799   5.896   4.700   7.818 -0.1072  0.3074  0.5534
  325MOL0     C43800   5.860   4.803   7.719 -0.1235  0.2981 -1.0636
  325MOL0     C43801   5.893   4.774   7.575 -0.1004  0.9562 -0.4275
  325MOL0     C43802   5.807   4.658   7.516 -0.4027  0.5362 -0.2907
  325MOL0     C43803   5.668   4.705   7.496  0.3251  0.3965  0.7855
  325MOL0     C43804   5.552   4.744   7.492  0.2865 -0.6176  1.2675
  325MOL0     C43805   5.639   4.558   7.847 -0.1720 -0.5522  0.3718
  325MOL0     C43806   5.505   4.541   7.805 -1.0094 -0.8709 -0.5841
  325MOL0     C43807   5.465   4.457   7.688 -0.3629 -0.5128  0.0515
  325MOL0     H43808   5.102   4.894   7.696  2.5175 -1.8232  1.1479
  325MOL0     H43809   4.853   4.909   7.632 -0.4711 -1.5357 -1.8705
  325MOL0     H43810   4.599   4.594   7.751 -1.2344  0.3218 -0.8105
  325MOL0     H43811   4.515   4.717   7.850 -1.6590 -1.1755 -0.0095
  325MOL0     H43812   4.497   4.692   7.541 -2.1379  0.6274 -1.7664
  325MOL0     H43813   4.434   4.824   7.648  1.4871 -0.0816 -0.0669
  325MOL0     H43814   4.360   4.543   7.749 -1.8024 -2.7839 -2.5619
  325MOL0     H43815   4.301   4.567   7.594 -0.2098 -1.0432  0.9554
  325MOL0     H43816   4.257   4.752   7.838  2.6138  1.9015 -1.5847
  325MOL0     H43817   4.193   4.779   7.679  1.6015 -1.1954 -2.7243
  325MOL0     H43818   4.045   4.681   7.840  1.6979  0.8650 -0.0722
  325MOL0     H43819   4.072   4.550   7.716  3.6479  1.4734 -2.3957
  325MOL0     H43820   4.198   4.427   7.872  2.1042  1.7914 -1.3552
  325MOL0     H43821   4.211   4.563   7.985  1.9262 -2.8200  0.1040
  325MOL0     H43822   3.934   4.450   7.930 -0.1943 -0.3226  1.2478
  325MOL0     H43823   3.964   4.543   8.057 -0.6174 -0.7739  0.1687
  325MOL0     H43824   3.954   4.297   8.121 -0.5158  2.2667  1.8412
  325MOL0     H43825   4.093   4.263   8.030  1.4270 -0.2292  1.1654
  325MOL0     H43826   4.322   4.288   8.148 -1.2059 -1.9436  0.1069
  325MOL0     H43827   4.395   4.289   8.510 -0.2914  1.0523  1.1150
  325MOL0     H43828   4.473   4.336   8.355 -1.6294 -0.6266 -1.1019
  325MOL0     H43829   4.459   4.570   8.424  1.7842 -1.2520  0.1396
  325MOL0     H43830   4.319   4.530   8.525 -0.1480  2.0911 -0.4350
  325MOL0     H43831   4.471   4.439   8.701  2.1240 -0.4478  0.6496
  325MOL0     H43832   4.559   4.582   8.637 -0.4886  0.6107 -2.7150
  325MOL0     H43833   4.680   4.432   8.475 -2.7147  0.4225 -0.6050
  325MOL0     H43834   4.603   4.294   8.573 -1.9248  0.4720  2.2760
  325MOL0     H43835   4.969   4.477   8.801 -3.3920  0.0403  0.8913
  325MOL0     H43836   5.188   4.419   8.753  0.9093  0.4075 -2.8884
  325MOL0     H43837   5.522   4.129   8.435  2.0410 -2.7320 -0.3564
  325MOL0     H43838   5.750   4.130   8.404  0.4632  0.7399 -0.7698
  325MOL0     H43839   5.962   4.028   8.480  2.6515  0.0450  2.7160
  325MOL0     H43840   5.936   4.177   8.380 -1.0634 -1.6195 -0.0155
  325MOL0     H43841   6.173   4.135   8.363  1.1552 -0.8514  1.2910
  325MOL0     H43842   6.151   4.263   8.476  0.8342 -0.4129  0.8397
  325MOL0     H43843   6.298   4.103   8.605 -0.9738 -1.6736  2.5872
  325MOL0     H43844   6.141   4.048   8.656  1.1657 -0.9207  0.9794
  325MOL0     H43845   6.319   3.937   8.451 -0.4322 -2.1700 -1.1285
  325MOL0     H43846   6.151   3.884   8.459  2.1422 -4.0683  0.9190
  325MOL0     H43847   6.188   3.816   8.694 -0.8160 -1.6222 -0.6980
  325MOL0     H43848   6.361   3.862   8.681  0.8123 -3.6900  1.0772
  325MOL0     H43849   6.308   3.603   8.654  1.3584  1.4452 -0.3265
  325MOL0     H43850   6.210   3.654   8.510  0.0922  2.5956 -1.6463
  325MOL0     H43851   6.505   3.692   8.512  0.2927  1.5841 -0.2847
  325MOL0     H43852   6.383   3.696   8.383  1.3923 -0.4809 -0.6995
  325MOL0     H43853   6.343   3.434   8.436 -1.1592 -0.8285  0.5696
  325MOL0     H43854   6.507   3.479   8.376  1.4884  2.1053  2.0898
  325MOL0     H43855   5.821   4.359   8.754  0.1787  0.0288 -0.2208
  325MOL0     H43856   5.585   4.398   8.773  0.9170  0.2045 -0.6454
  325MOL0     H43857   5.059   4.164   8.435 -1.2231 -1.1909  1.2567
  325MOL0     H43858   4.834   4.210   8.483 -0.9079 -0.6844  0.7880
  325MOL0     H43859   4.764   4.616   7.930  0.1217 -1.8847 -3.3379
  325MOL0     H43860   4.982   4.598   7.985 -1.9174 -2.1613 -1.9493
  325MOL0     H43861   5.382   4.766   8.042 -0.8976  0.2311 -0.6191
  325MOL0     H43862   5.610   4.803   8.080 -1.2106 -3.3196  3.5717
  325MOL0     H43863   5.903   4.601   7.773 -0.6411  0.0340  1.0676
  325MOL0     H43864   5.997   4.726   7.851  0.2272 -0.5353  0.2054
  325MOL0     H43865   5.905   4.897   7.753 -1.8785  0.3846  1.2408
  325MOL0     H43866   5.754   4.820   7.740 -0.5609  0.1447 -2.9344
  325MOL0     H43867   5.997   4.742   7.563 -0.0227  0.6426  0.9754
  325MOL0     H43868   5.881   4.862   7.511 -1.5877 -0.9116 -2.9262
  325MOL0     H43869   5.854   4.627   7.422  1.1305 -0.5867  0.7982
  325MOL0     H43870   5.798   4.575   7.587  0.1794  1.7988  1.3283
  325MOL0     H43871   5.449   4.769   7.481 -0.7023 -4.4547  0.3358
  325MOL0     H43872   5.703   4.494   7.788 -0.7645  0.8553 -1.9556
  325MOL0     H43873   5.400   4.523   7.630  0.3961  0.5243  0.3515
  325MOL0     H43874   5.548   4.425   7.625 -0.7759  0.2731 -0.9299
  325MOL0     H43875   5.409   4.368   7.717  1.7324 -1.8430  0.1911
  326MOL0     O43876   8.301  10.823  10.806 -0.2900  0.3614 -0.5399
  326MOL0     C43877   8.365  10.749  10.877  0.0392  0.3064 -0.0870
  326MOL0     O43878   8.323  10.643  10.953 -0.2540  0.2873  0.0136
  326MOL0     C43879   8.194  10.619  10.972 -0.7413  0.7520 -0.6408
  326MOL0     C43880   8.121  10.557  10.872  0.3411  0.2465  0.3327
  326MOL0     C43881   7.986  10.526  10.900 -0.2089 -0.3595 -0.1883
  326MOL0     C43882   7.920  10.541  11.020 -0.1776  0.3257  0.0071
  326MOL0     O43883   7.782  10.513  11.022  0.4871 -0.5187  0.0097
  326MOL0     C43884   7.728  10.446  11.135 -0.3303 -0.6984  1.0328
  326MOL0     C43885   7.574  10.445  11.136 -0.3788  0.1181 -1.1091
  326MOL0     C43886   7.499  10.580  11.127  0.8506  0.2018  0.7895
  326MOL0     C43887   7.336  10.554  11.133  0.1502 -0.5873  0.1335
  326MOL0     C43888   7.267  10.684  11.167 -0.3018 -0.7006 -0.1640
  326MOL0     C43889   7.299  10.793  11.065 -0.7178  0.3030  0.5896
  326MOL0     C43890   7.206  10.898  11.075  0.4806 -0.4676 -0.3973
  326MOL0     C43891   7.246  10.980  11.203  0.2601 -0.7377 -0.1739
  326MOL0     N43892   7.141  10.990  11.308  0.1799  0.2863 -0.2435
  326MOL0     C43893   7.005  11.012  11.298  0.3852  0.1560 -0.0793
  326MOL0     C43894   6.961  11.013  11.424 -0.1338 -0.2050 -0.6325
  326MOL0     C43895   6.823  11.043  11.472  0.1679  0.0476  0.3392
  326MOL0     C43896   6.813  11.182  11.544  0.5107 -0.6064  1.1784
  326MOL0     C43897   6.883  11.205  11.675  0.0395 -0.4393  0.2001
  326MOL0     C43898   7.018  11.273  11.659 -0.3230 -0.5409  0.2516
  326MOL0     O43899   7.015  11.410  11.602  1.2005 -0.3052  0.2426
  326MOL0     C43900   7.106  11.506  11.616 -0.4566 -0.2193  0.5300
  326MOL0     C43901   7.078  11.632  11.559  0.8659 -0.7240  0.2830
  326MOL0     C43902   7.155  11.752  11.577  0.9744  0.7819 -0.1604
  326MOL0     C43903   7.281  11.736  11.633 -0.4023  0.7951 -0.2227
  326MOL0     C43904   7.380  11.850  11.640  0.0127  0.4964 -0.0323
  326MOL0     O43905   7.372  11.937  11.536 -0.0784  0.3004 -0.3200
  326MOL0     C43906   7.428  12.066  11.527  0.6165  0.2514 -0.0308
  326MOL0     C43907   7.549  12.106  11.594 -0.1808  0.3502  0.0666
  326MOL0     C43908   7.587  12.234  11.604 -0.1772 -0.3434 -0.0278
  326MOL0     C43909   7.514  12.338  11.543  1.1006 -0.1916 -0.4053
  326MOL0     O43910   7.525  12.469  11.567 -0.2688 -0.1538  0.3498
  326MOL0     C43911   7.655  12.517  11.587  0.5397 -0.6975  0.2885
  326MOL0     C43912   7.670  12.668  11.546  1.0083 -0.3024 -0.5628
  326MOL0     C43913   7.816  12.723  11.559  0.0514 -0.3632 -0.3361
  326MOL0     C43914   7.848  12.738  11.706 -0.5938 -0.2819 -0.3005
  326MOL0     C43915   7.999  12.738  11.751 -0.3652  0.5894 -0.4959
  326MOL0     C43916   8.068  12.866  11.737 -0.2181  0.3057  0.3513
  326MOL0     C43917   8.114  12.883  11.596 -0.3735  1.5700 -0.3432
  326MOL0     C43918   8.211  13.002  11.576 -0.1968  1.1233  0.4551
  326MOL0    Cl43919   8.348  12.963  11.467 -0.0216  0.4063  0.0265
  326MOL0     C43920   7.402  12.303  11.469 -0.8225  0.7184  0.2113
  326MOL0     C43921   7.354  12.169  11.459 -0.0556  0.0334 -0.7013
  326MOL0     O43922   7.443  11.873  11.748  0.9571  0.6688  0.1098
  326MOL0     C43923   7.313  11.608  11.692 -0.6772  0.9089 -0.5999
  326MOL0     C43924   7.228  11.494  11.680  0.0145  0.7729  0.5251
  326MOL0     N43925   7.057  10.977  11.513 -0.2475 -1.3138  0.4981
  326MOL0     N43926   7.159  10.968  11.441 -0.8228  0.6882  0.1328
  326MOL0     C43927   7.997  10.587  11.126 -0.2360  0.4794 -0.4310
  326MOL0     C43928   8.132  10.616  11.106 -0.8549  0.7889  0.2836
  326MOL0     C43929   8.517  10.753  10.874  0.3021  0.3684  2.1696
  326MOL0     C43930   8.590  10.646  10.927  0.7813  0.2794 -1.0989
  326MOL0     C43931   8.727  10.637  10.908  0.7903  0.6983 -1.0823
  326MOL0     C43932   8.801  10.730  10.832  0.3474  1.0013  0.4888
  326MOL0     O43933   8.938  10.709  10.815 -0.1647 -0.3835 -0.3862
  326MOL0     C43934   9.041  10.807  10.775 -0.0855  0.1874 -0.5981
  326MOL0     C43935   9.106  10.888  10.888 -0.7128 -1.3718  0.6230
  326MOL0     C43936   9.190  10.796  10.986 -0.1477 -0.5283 -0.1517
  326MOL0     C43937   9.339  10.768  10.949  0.6737  0.4539 -0.0202
  326MOL0     C43938   9.423  10.884  10.985  0.5256 -0.4023 -0.5937
  326MOL0     C43939   9.495  10.972  11.018 -0.1871  0.5326 -0.1619
  326MOL0     C43940   8.732  10.840  10.782  0.1773 -0.7703 -0.4909
  326MOL0     C43941   8.585  10.857  10.804 -0.7470  1.4481 -0.5110
  326MOL0     C43942   8.525  10.985  10.752 -0.1157  0.2737  0.0237
  326MOL0     H43943   8.165  10.540  10.774 -1.6376  1.3275 -0.7967
  326MOL0     H43944   7.937  10.489  10.811 -1.6142  0.6341  0.1297
  326MOL0     H43945   7.758  10.341  11.138 -0.4623 -0.7697  0.0863
  326MOL0     H43946   7.762  10.490  11.229 -0.1285 -0.0051  0.6422
  326MOL0     H43947   7.551  10.390  11.228  2.7206  0.1201 -0.2380
  326MOL0     H43948   7.545  10.371  11.060  0.0018  0.8209 -1.9509
  326MOL0     H43949   7.538  10.626  11.035  2.0847 -1.1265  0.6179
  326MOL0     H43950   7.539  10.646  11.205  2.8415 -0.6369  0.5588
  326MOL0     H43951   7.300  10.520  11.036 -0.1153 -3.2593  1.0891
  326MOL0     H43952   7.317  10.468  11.199  0.9155 -2.3525 -1.8523
  326MOL0     H43953   7.161  10.657  11.163 -1.1955  2.4600 -0.3739
  326MOL0     H43954   7.283  10.712  11.271 -0.6747 -0.2403 -0.2255
  326MOL0     H43955   7.401  10.833  11.064 -0.0430 -1.3601 -0.2861
  326MOL0     H43956   7.285  10.740  10.971  0.6190  2.0266 -0.6637
  326MOL0     H43957   7.106  10.863  11.101 -0.1376  2.9178  2.7026
  326MOL0     H43958   7.194  10.953  10.981  0.8091  0.4974  0.1131
  326MOL0     H43959   7.336  10.940  11.250 -0.3135 -2.0153 -0.1323
  326MOL0     H43960   7.257  11.085  11.174  0.2793  0.2876  3.1817
  326MOL0     H43961   6.958  11.025  11.201 -0.8196 -0.8759  0.3457
  326MOL0     H43962   6.767  11.047  11.378  2.1476 -0.5946 -0.9359
  326MOL0     H43963   6.766  10.972  11.531  1.4791 -1.6596 -0.3606
  326MOL0     H43964   6.862  11.246  11.470  0.7808  1.0248  2.6968
  326MOL0     H43965   6.705  11.196  11.552  0.3404 -0.8072 -0.4905
  326MOL0     H43966   6.900  11.105  11.716 -0.3579 -0.5818  0.0218
  326MOL0     H43967   6.816  11.267  11.735 -0.7075 -3.3034  2.5298
  326MOL0     H43968   7.083  11.221  11.588  1.3116  0.7038  0.7919
  326MOL0     H43969   7.059  11.265  11.760 -2.3973 -2.0572  1.0576
  326MOL0     H43970   6.983  11.636  11.506 -0.4950 -3.3783  2.2209
  326MOL0     H43971   7.113  11.843  11.536 -3.6131 -1.9928 -2.5045
  326MOL0     H43972   7.603  12.031  11.651  0.5681 -0.0744 -1.1648
  326MOL0     H43973   7.674  12.265  11.662 -0.4210 -0.3360  0.3342
  326MOL0     H43974   7.686  12.514  11.692 -0.1391  0.0343  0.5221
  326MOL0     H43975   7.727  12.470  11.520  1.4243 -1.0342  1.4306
  326MOL0     H43976   7.635  12.673  11.442  1.8021 -1.0631 -0.8745
  326MOL0     H43977   7.599  12.720  11.611 -1.9711 -0.0001 -3.7003
  326MOL0     H43978   7.876  12.647  11.509 -2.4147 -1.1413 -2.3472
  326MOL0     H43979   7.802  12.823  11.518 -2.7224  0.1760  1.6184
  326MOL0     H43980   7.803  12.659  11.767 -1.7892  2.3134  2.3866
  326MOL0     H43981   7.809  12.831  11.747 -1.8113 -0.6036 -0.6748
  326MOL0     H43982   8.056  12.659  11.702 -2.1196 -0.7851 -0.4329
  326MOL0     H43983   7.988  12.710  11.856  0.7837  3.5304  0.5167
  326MOL0     H43984   8.012  12.951  11.778  0.1619  0.1676  1.1824
  326MOL0     H43985   8.152  12.859  11.807 -0.8108 -1.8815  0.9312
  326MOL0     H43986   8.033  12.902  11.525 -0.0185  1.4757 -0.7862
  326MOL0     H43987   8.168  12.791  11.570 -0.9783  1.3171 -0.7126
  326MOL0     H43988   8.147  13.082  11.537 -0.8123 -1.0041 -3.2832
  326MOL0     H43989   8.259  13.033  11.670 -2.1292  0.4991  1.7058
  326MOL0     H43990   7.338  12.384  11.435 -0.4303  1.4685  1.2054
  326MOL0     H43991   7.257  12.143  11.419  1.2570 -0.6397 -3.6538
  326MOL0     H43992   7.403  11.601  11.752  0.8373  2.0484 -2.5957
  326MOL0     H43993   7.254  11.398  11.724 -1.6698  0.6978  1.4255
  326MOL0     H43994   7.952  10.597  11.224 -2.6161  1.3715 -1.5211
  326MOL0     H43995   8.194  10.652  11.188  1.5403 -0.8892 -0.6781
  326MOL0     H43996   8.544  10.563  10.980 -0.5647  0.4937 -1.8771
  326MOL0     H43997   8.779  10.547  10.940 -1.9666 -1.8346 -3.0917
  326MOL0     H43998   9.007  10.875  10.696  1.0565 -1.4280 -2.5550
  326MOL0     H43999   9.129  10.754  10.739  1.0891  0.9653  1.0323
  326MOL0     H44000   9.036  10.943  10.951  1.7902  1.7451  0.9457
  326MOL0     H44001   9.176  10.964  10.850 -1.3571  0.2518  2.5083
  326MOL0     H44002   9.130  10.706  10.998  0.2330 -0.5441  2.0242
  326MOL0     H44003   9.185  10.839  11.086 -2.8605 -0.7612 -0.1026
  326MOL0     H44004   9.384  10.688  11.009  1.9136  2.1233  1.4066
  326MOL0     H44005   9.350  10.754  10.841 -1.1700  2.0487 -0.4709
  326MOL0     H44006   9.564  11.050  11.042  1.1220 -0.6280 -0.0289
  326MOL0     H44007   8.784  10.916  10.725  1.8500 -2.7451 -1.7288
  326MOL0     H44008   8.592  11.063  10.713 -0.5712  1.0579  0.7641
  326MOL0     H44009   8.470  10.952  10.664  1.3137  0.2393 -0.8859
  326MOL0     H44010   8.463  11.035  10.827 -0.6466  0.8940 -0.8159
  327MOL0     O44011  11.157   4.563   2.208 -1.3213  0.5696 -0.0804
  327MOL0     C44012  11.120   4.490   2.306 -0.9586  0.2043  0.1944
  327MOL0     O44013  11.062   4.531   2.428  0.2007 -0.0191 -0.0536
  327MOL0     C44014  11.050   4.673   2.442 -1.0201  0.5133 -0.3257
  327MOL0     C44015  10.937   4.711   2.504 -0.6059 -0.4988 -1.0319
  327MOL0     C44016  10.900   4.838   2.533  0.1073  0.6178 -0.5045
  327MOL0     C44017  10.989   4.937   2.511 -0.6101  0.8033  0.6243
  327MOL0     O44018  10.970   5.066   2.554 -0.3562 -0.4755 -0.4342
  327MOL0     C44019  10.885   5.096   2.667  0.2503 -0.5163 -1.3321
  327MOL0     C44020  10.929   5.235   2.703 -0.3132 -0.2302 -0.3627
  327MOL0     C44021  10.867   5.277   2.840 -0.2499  0.9323  0.5001
  327MOL0     C44022  10.913   5.410   2.888 -0.3656  0.0137  0.0662
  327MOL0     C44023  10.819   5.473   2.979 -0.4863 -0.4951  0.0942
  327MOL0     C44024  10.849   5.615   3.039 -0.1842  0.1447 -0.3405
  327MOL0     C44025  10.846   5.730   2.934 -0.5281 -0.0969  0.4707
  327MOL0     C44026  10.981   5.765   2.873 -0.0580  0.3623  0.1202
  327MOL0     N44027  10.946   5.832   2.739 -0.7729  0.0848 -0.9890
  327MOL0     C44028  10.949   5.963   2.712  0.6364  0.2818  0.6615
  327MOL0     C44029  10.920   5.974   2.573  0.2953  0.5841 -0.3811
  327MOL0     C44030  10.893   6.108   2.501 -0.2409 -0.3417 -0.2506
  327MOL0     C44031  11.016   6.192   2.494 -0.8626  1.0943 -0.4451
  327MOL0     C44032  11.002   6.302   2.391  0.8636  0.2802 -0.5481
  327MOL0     C44033  11.129   6.389   2.400 -0.2351  0.1253  1.5776
  327MOL0     O44034  11.250   6.323   2.344 -0.4018  0.2773  0.5532
  327MOL0     C44035  11.360   6.404   2.342 -0.4700 -0.4589  0.5152
  327MOL0     C44036  11.462   6.349   2.265 -0.6798  0.1098  0.1716
  327MOL0     C44037  11.575   6.430   2.241 -1.3933  0.8085 -0.1992
  327MOL0     C44038  11.594   6.556   2.295  0.1331 -0.1371 -0.0798
  327MOL0     C44039  11.715   6.645   2.264  0.8249  1.0220  0.3950
  327MOL0     O44040  11.727   6.778   2.306  0.0945 -0.3857 -0.2006
  327MOL0     C44041  11.836   6.842   2.250  0.3302  0.0316 -0.3976
  327MOL0     C44042  11.797   6.952   2.166 -1.2885  0.4142 -0.7157
  327MOL0     C44043  11.898   7.038   2.125 -0.4721  0.4606  0.2769
  327MOL0     C44044  12.035   7.015   2.154 -0.8204  0.9421  0.6035
  327MOL0     O44045  12.143   7.084   2.114  0.6702 -0.0238 -0.4234
  327MOL0     C44046  12.159   7.105   1.967 -0.8060 -0.3489  0.1163
  327MOL0     C44047  12.292   7.180   1.926  0.2382 -0.3198  0.5344
  327MOL0     C44048  12.394   7.073   1.895  0.5533 -0.7592  0.4019
  327MOL0     C44049  12.541   7.124   1.891 -0.8483 -0.5757  0.0924
  327MOL0     C44050  12.644   7.016   1.859 -0.8670  0.1717 -0.8403
  327MOL0     C44051  12.794   7.072   1.878  0.0025  0.8581  1.0572
  327MOL0     C44052  12.895   6.962   1.847 -0.1404  0.5641  0.2287
  327MOL0     C44053  13.023   7.029   1.792 -0.5873  0.8842 -0.6550
  327MOL0    Cl44054  12.997   7.127   1.639 -0.1315  0.7458  0.0929
  327MOL0     C44055  12.076   6.904   2.223  0.0739 -0.1901  0.2801
  327MOL0     C44056  11.972   6.830   2.284 -0.7085 -0.0048  1.0375
  327MOL0     O44057  11.801   6.578   2.205  0.3053  0.7917 -0.7422
  327MOL0     C44058  11.483   6.608   2.371 -0.5008  0.4013 -0.4194
  327MOL0     C44059  11.371   6.536   2.387  0.7252  0.1892 -0.5124
  327MOL0     N44060  10.893   5.851   2.519  0.4145 -0.5210  0.1479
  327MOL0     N44061  10.911   5.765   2.622 -0.3945 -0.5499  0.0564
  327MOL0     C44062  11.110   4.910   2.450 -0.0769 -0.1494 -0.2574
  327MOL0     C44063  11.143   4.780   2.398  0.3431  0.3218  0.2452
  327MOL0     C44064  11.148   4.346   2.298  0.4204 -0.2578 -0.6307
  327MOL0     C44065  11.068   4.259   2.376 -0.4430  0.9993 -0.4341
  327MOL0     C44066  11.102   4.122   2.383 -0.0331 -0.7199 -0.0891
  327MOL0     C44067  11.210   4.073   2.314  0.2317  0.5278  0.9428
  327MOL0     O44068  11.265   3.938   2.321 -0.4620 -0.5935  0.4595
  327MOL0     C44069  11.187   3.845   2.393 -0.2576  0.3514 -0.4619
  327MOL0     C44070  11.219   3.845   2.556 -0.1802  0.0827  0.5760
  327MOL0     C44071  11.088   3.851   2.649 -0.0010  0.7354  1.0329
  327MOL0     C44072  11.112   3.816   2.795  0.6980  0.8571 -0.5223
  327MOL0     C44073  11.137   3.671   2.811 -0.3372 -0.1056 -0.2687
  327MOL0     C44074  11.182   3.561   2.803  0.7112  1.4772  0.1963
  327MOL0     C44075  11.288   4.160   2.243  0.1606 -0.3190 -0.0139
  327MOL0     C44076  11.266   4.294   2.235  0.4296  1.1627  0.4177
  327MOL0     C44077  11.351   4.374   2.144  0.0139 -0.1528 -0.4792
  327MOL0     H44078  10.863   4.633   2.520 -1.2499  0.2754 -0.0999
  327MOL0     H44079  10.805   4.854   2.582 -0.3568 -1.2148 -0.7209
  327MOL0     H44080  10.777   5.099   2.650 -0.3373 -0.7918  1.7447
  327MOL0     H44081  10.903   5.033   2.755  0.8875  0.5392 -0.6790
  327MOL0     H44082  10.884   5.315   2.642  2.0485  1.1667 -0.3989
  327MOL0     H44083  11.038   5.242   2.697 -0.3415 -0.7486 -3.9336
  327MOL0     H44084  10.897   5.200   2.912 -3.3297 -0.5513  0.3449
  327MOL0     H44085  10.759   5.278   2.824 -0.1691 -0.6370 -0.3174
  327MOL0     H44086  11.008   5.409   2.941 -0.3967  0.2973  0.1299
  327MOL0     H44087  10.932   5.478   2.804 -0.0559  0.3877  0.4391
  327MOL0     H44088  10.733   5.487   2.913  0.7864  1.9852 -1.2193
  327MOL0     H44089  10.813   5.403   3.063 -2.0303 -0.8691 -0.3034
  327MOL0     H44090  10.775   5.639   3.116 -1.5247 -0.5310 -1.3759
  327MOL0     H44091  10.942   5.629   3.094  0.2777 -0.4346 -0.9588
  327MOL0     H44092  10.812   5.827   2.970  0.5545  0.2798  0.5057
  327MOL0     H44093  10.785   5.705   2.847  0.6137  3.6867 -1.6042
  327MOL0     H44094  11.041   5.823   2.943  2.9915 -1.8684 -0.4494
  327MOL0     H44095  11.040   5.674   2.863 -0.4559  0.2648 -1.7045
  327MOL0     H44096  10.965   6.043   2.783  0.3506 -0.1922  1.2645
  327MOL0     H44097  10.855   6.076   2.404 -0.1944 -2.0923  0.2562
  327MOL0     H44098  10.813   6.161   2.552  2.1779  1.6044  1.8168
  327MOL0     H44099  11.031   6.241   2.591  1.1993 -1.1934  0.4886
  327MOL0     H44100  11.107   6.138   2.464  0.5002  2.3154  1.3448
  327MOL0     H44101  10.925   6.375   2.414  0.5024  0.0581 -1.0581
  327MOL0     H44102  10.975   6.255   2.296 -2.1605 -0.4636  0.5830
  327MOL0     H44103  11.152   6.418   2.503 -0.6223 -0.2139  1.7612
  327MOL0     H44104  11.115   6.480   2.341 -0.9452 -1.2943 -0.5902
  327MOL0     H44105  11.438   6.257   2.212  0.7731 -1.5465  2.2374
  327MOL0     H44106  11.653   6.396   2.174  1.4982  2.5860  2.0656
  327MOL0     H44107  11.693   6.972   2.146 -1.6975 -0.3649  0.4792
  327MOL0     H44108  11.863   7.120   2.062 -1.4184 -0.3167 -0.2295
  327MOL0     H44109  12.153   7.008   1.916  0.8405 -0.6052  0.3720
  327MOL0     H44110  12.076   7.169   1.934  1.3212  1.0661 -3.0755
  327MOL0     H44111  12.267   7.246   1.842 -4.4014 -0.9916  1.1348
  327MOL0     H44112  12.326   7.253   2.001 -1.3577 -1.1293  2.1309
  327MOL0     H44113  12.382   6.995   1.970 -1.4698 -0.8729  0.0198
  327MOL0     H44114  12.371   7.034   1.796 -2.3060  1.5311  0.0453
  327MOL0     H44115  12.563   7.174   1.986 -2.4673  0.4555 -0.0322
  327MOL0     H44116  12.542   7.201   1.814  0.3654 -1.2454 -0.5832
  327MOL0     H44117  12.641   6.995   1.751  0.0090 -3.1441 -0.3372
  327MOL0     H44118  12.625   6.920   1.908 -1.7471  0.9474  0.4007
  327MOL0     H44119  12.808   7.160   1.815  1.1394 -0.1255 -0.1151
  327MOL0     H44120  12.806   7.088   1.986 -0.0432 -1.1792  1.4190
  327MOL0     H44121  12.852   6.906   1.763  1.5678  2.0537 -1.7394
  327MOL0     H44122  12.910   6.893   1.931 -0.5156 -2.2567 -1.8362
  327MOL0     H44123  13.071   7.090   1.870 -1.0627  0.3524  0.0719
  327MOL0     H44124  13.098   6.954   1.767 -0.2460  1.2215 -0.6584
  327MOL0     H44125  12.180   6.879   2.241  0.2817 -0.3708 -1.0730
  327MOL0     H44126  12.007   6.758   2.358  3.8608 -0.5478 -1.3275
  327MOL0     H44127  11.482   6.713   2.398 -0.8246  0.0545  1.0154
  327MOL0     H44128  11.285   6.584   2.430  1.3209  0.6691  0.1650
  327MOL0     H44129  11.179   4.992   2.433 -1.1513  0.7804 -0.2020
  327MOL0     H44130  11.235   4.755   2.347  2.0243  1.5667  2.5012
  327MOL0     H44131  10.984   4.305   2.428 -3.4293 -1.3170 -2.8050
  327MOL0     H44132  11.043   4.053   2.444  2.7671 -0.5051  3.2085
  327MOL0     H44133  11.189   3.746   2.348  0.5151  0.2463 -0.2113
  327MOL0     H44134  11.084   3.877   2.374 -0.0319  2.0033  0.8403
  327MOL0     H44135  11.274   3.936   2.580  0.0799  0.1190 -0.1268
  327MOL0     H44136  11.284   3.760   2.582 -0.7333 -0.3273  0.6439
  327MOL0     H44137  11.024   3.776   2.602  1.3863  1.3993 -2.2051
  327MOL0     H44138  11.038   3.947   2.635 -1.5561 -0.2623 -0.6555
  327MOL0     H44139  11.182   3.887   2.839  0.1682  0.6932  0.6324
  327MOL0     H44140  11.018   3.839   2.847 -0.4055  0.7474 -2.3920
  327MOL0     H44141  11.227   3.466   2.784 -2.6494  0.0056 -1.1753
  327MOL0     H44142  11.373   4.117   2.190 -0.9241 -1.1848 -1.1060
  327MOL0     H44143  11.302   4.403   2.051  0.2347  3.2472  0.3396
  327MOL0     H44144  11.378   4.469   2.190  0.1941  0.6352 -2.1405
  327MOL0     H44145  11.444   4.322   2.120  0.8769  0.7704  0.7367
  328MOL0     O44146   7.305   0.149   3.344  0.1540 -0.2720  0.4082
  328MOL0     C44147   7.352   0.234   3.418 -0.9702 -0.6043 -0.3166
  328MOL0     O44148   7.485   0.261   3.431 -0.1803  0.0561  0.2865
  328MOL0     C44149   7.572   0.193   3.341  0.0572 -0.2140  0.0668
  328MOL0     C44150   7.642   0.274   3.250 -0.0770 -0.1526  0.0883
  328MOL0     C44151   7.702   0.219   3.136 -0.7433  0.8578 -0.3744
  328MOL0     C44152   7.712   0.078   3.125  0.1560 -1.2931  0.4484
  328MOL0     O44153   7.782   0.027   3.014  0.4962 -0.4886  0.4219
  328MOL0     C44154   7.854  -0.094   3.039  1.5170  0.6008 -0.0691
  328MOL0     C44155   7.935  -0.113   3.158 -1.2814 -0.9432  0.4928
  328MOL0     C44156   7.978  -0.261   3.160 -0.1975 -0.2432  0.2825
  328MOL0     C44157   8.086  -0.269   3.273 -0.5198  0.0125 -0.4198
  328MOL0     C44158   8.129  -0.409   3.285 -0.3098 -0.5585  0.3789
  328MOL0     C44159   8.217  -0.436   3.416  1.0081  0.8740 -0.8234
  328MOL0     C44160   8.144  -0.474   3.549 -0.6206  0.6776 -0.0819
  328MOL0     C44161   8.091  -0.352   3.626 -0.1680  0.1698 -0.6076
  328MOL0     N44162   8.203  -0.265   3.678 -0.3735 -0.4892 -0.2003
  328MOL0     C44163   8.302  -0.296   3.778 -0.2879 -0.6645 -0.5369
  328MOL0     C44164   8.391  -0.189   3.760  0.1938  0.2433  0.0895
  328MOL0     C44165   8.506  -0.151   3.848 -1.0061 -0.8667 -0.3560
  328MOL0     C44166   8.647  -0.181   3.789 -0.2948 -0.2072 -0.9026
  328MOL0     C44167   8.668  -0.332   3.774  0.0267 -0.5547  0.1549
  328MOL0     C44168   8.824  -0.353   3.771  0.3467  0.9233 -0.3435
  328MOL0     O44169   8.873  -0.297   3.654 -0.6148 -0.5801 -0.1612
  328MOL0     C44170   9.003  -0.336   3.621  0.0344  0.5811 -0.5098
  328MOL0     C44171   9.034  -0.321   3.485  0.1650 -0.2504  0.0308
  328MOL0     C44172   9.164  -0.344   3.440  0.2276 -0.3223  0.2630
  328MOL0     C44173   9.266  -0.375   3.535 -0.7317 -0.9279 -0.6956
  328MOL0     C44174   9.403  -0.418   3.487 -0.4007 -0.2428 -0.7571
  328MOL0     O44175   9.444  -0.385   3.364 -0.0116 -0.0274 -0.6451
  328MOL0     C44176   9.564  -0.440   3.329  0.0382  0.5338 -0.0576
  328MOL0     C44177   9.676  -0.392   3.401 -0.4806 -1.5555 -0.0241
  328MOL0     C44178   9.803  -0.443   3.387 -0.0746 -0.3013  0.3098
  328MOL0     C44179   9.819  -0.541   3.288  0.7535  0.0462 -0.1670
  328MOL0     O44180   9.942  -0.594   3.267 -0.4065  0.6704 -0.0481
  328MOL0     C44181   9.968  -0.701   3.174 -0.9512 -0.0148  0.5088
  328MOL0     C44182  10.110  -0.761   3.199  0.3735 -0.2977  0.4837
  328MOL0     C44183  10.148  -0.835   3.073 -0.5904 -0.1894 -0.5286
  328MOL0     C44184  10.300  -0.884   3.079  0.0312 -0.6245 -0.3974
  328MOL0     C44185  10.333  -0.926   2.937  0.4930  0.8401 -0.1838
  328MOL0     C44186  10.466  -1.015   2.938 -0.0983  0.9506  0.1649
  328MOL0     C44187  10.476  -1.110   2.824 -0.8563  0.3591  0.5710
  328MOL0     C44188  10.578  -1.226   2.850  0.5346 -0.7101 -0.9083
  328MOL0    Cl44189  10.747  -1.164   2.850 -0.1763 -0.2436 -0.3749
  328MOL0     C44190   9.715  -0.586   3.213 -0.3356 -0.7043  0.3410
  328MOL0     C44191   9.580  -0.541   3.228  0.1163  0.4292  0.3177
  328MOL0     O44192   9.469  -0.475   3.573  0.1017 -0.7086  0.0566
  328MOL0     C44193   9.233  -0.382   3.665  0.2861  0.4458 -0.2942
  328MOL0     C44194   9.103  -0.369   3.711 -0.3390 -1.0198  0.0298
  328MOL0     N44195   8.341  -0.095   3.654 -0.5522 -0.0378  0.3606
  328MOL0     N44196   8.232  -0.148   3.613  0.6492 -0.4320  0.9599
  328MOL0     C44197   7.649  -0.003   3.227 -0.1013 -0.6059  0.5135
  328MOL0     C44198   7.579   0.060   3.335  1.2515  1.2612  0.9352
  328MOL0     C44199   7.258   0.320   3.497  0.7020 -0.4069 -0.7698
  328MOL0     C44200   7.137   0.266   3.539 -0.4628 -0.6890  0.6493
  328MOL0     C44201   7.031   0.345   3.584 -0.1081  0.1385  0.1977
  328MOL0     C44202   7.048   0.480   3.621  0.6473  1.1037  0.6970
  328MOL0     O44203   6.940   0.544   3.666  0.1900  0.4673  0.1741
  328MOL0     C44204   6.943   0.691   3.637  0.7163 -0.3111 -0.2947
  328MOL0     C44205   6.796   0.730   3.663  0.2012  0.8069  0.1195
  328MOL0     C44206   6.701   0.675   3.567 -0.5286  0.1771  0.4410
  328MOL0     C44207   6.568   0.746   3.579 -0.3712 -0.3800 -0.0643
  328MOL0     C44208   6.473   0.689   3.478 -0.6555 -0.2845 -0.0798
  328MOL0     C44209   6.398   0.655   3.393  0.3923  0.4079 -0.0241
  328MOL0     C44210   7.185   0.538   3.599  0.8984  0.0978  0.2118
  328MOL0     C44211   7.277   0.461   3.526  0.4859  0.1087  0.3707
  328MOL0     C44212   7.406   0.529   3.474  0.2726  0.0808  0.4978
  328MOL0     H44213   7.641   0.382   3.259 -0.6106 -0.1199 -0.3046
  328MOL0     H44214   7.752   0.280   3.061 -1.2538  2.5517  0.6135
  328MOL0     H44215   7.780  -0.175   3.031 -0.6211  2.4331  0.1737
  328MOL0     H44216   7.925  -0.101   2.957  1.8330 -0.5211  0.2769
  328MOL0     H44217   7.880  -0.083   3.247 -1.4053 -0.0348  0.1158
  328MOL0     H44218   8.025  -0.052   3.146 -2.0106  0.3913  1.5581
  328MOL0     H44219   8.016  -0.290   3.062 -0.4874  1.1655 -0.2640
  328MOL0     H44220   7.894  -0.329   3.181 -0.0552 -0.7194 -0.6342
  328MOL0     H44221   8.179  -0.213   3.263  0.0349 -0.3168  2.1794
  328MOL0     H44222   8.039  -0.233   3.365  3.1984 -0.1012  1.7096
  328MOL0     H44223   8.039  -0.470   3.276 -0.6443  0.1228 -1.1695
  328MOL0     H44224   8.184  -0.434   3.194  0.9279  0.9866  0.6629
  328MOL0     H44225   8.278  -0.526   3.403 -0.5672 -0.6587  1.5638
  328MOL0     H44226   8.287  -0.356   3.439  0.9210 -0.2055  4.3850
  328MOL0     H44227   8.211  -0.532   3.613 -0.8758  2.7372  2.1666
  328MOL0     H44228   8.056  -0.533   3.521 -0.9011  1.7960 -1.7487
  328MOL0     H44229   8.015  -0.302   3.566 -0.0559 -0.3532 -1.1891
  328MOL0     H44230   8.036  -0.394   3.710  0.4778 -1.9167 -1.1619
  328MOL0     H44231   8.306  -0.369   3.858  1.2164  0.1438  0.1620
  328MOL0     H44232   8.504  -0.042   3.863 -0.6095 -0.5974 -2.0537
  328MOL0     H44233   8.500  -0.187   3.951  3.6411  1.8033  1.1431
  328MOL0     H44234   8.678  -0.138   3.694  1.1610 -2.4529 -1.5343
  328MOL0     H44235   8.717  -0.131   3.857 -0.0982 -2.6249  0.8154
  328MOL0     H44236   8.634  -0.365   3.675  1.2954  1.6298 -1.0917
  328MOL0     H44237   8.634  -0.389   3.861 -0.5085  0.5465  0.6745
  328MOL0     H44238   8.844  -0.460   3.782 -1.6760  0.6054  0.8915
  328MOL0     H44239   8.872  -0.309   3.859  0.6193  1.6793 -0.8691
  328MOL0     H44240   8.953  -0.301   3.416  0.7553  2.9738  0.1205
  328MOL0     H44241   9.182  -0.335   3.333 -0.8759  1.5867  0.1818
  328MOL0     H44242   9.658  -0.301   3.458  1.5962  0.0163 -1.7547
  328MOL0     H44243   9.892  -0.408   3.438  0.1074  1.9247 -1.3905
  328MOL0     H44244   9.905  -0.790   3.183  2.4618 -2.7405 -0.4467
  328MOL0     H44245   9.957  -0.664   3.072 -2.9504  3.1315  1.6914
  328MOL0     H44246  10.184  -0.683   3.221 -0.7619  1.7230 -2.2567
  328MOL0     H44247  10.100  -0.836   3.277  2.6488  0.3930  1.5330
  328MOL0     H44248  10.083  -0.922   3.058  0.6563 -1.1686 -0.5180
  328MOL0     H44249  10.139  -0.769   2.987 -3.1758  0.3743  0.0965
  328MOL0     H44250  10.314  -0.964   3.153  2.1747  1.7415  1.9570
  328MOL0     H44251  10.376  -0.811   3.108  0.5299 -0.5354 -1.8536
  328MOL0     H44252  10.329  -0.845   2.864  1.0540  2.1188  1.1589
  328MOL0     H44253  10.256  -1.000   2.914  0.4661  0.6274  0.5637
  328MOL0     H44254  10.554  -0.950   2.935  1.7502 -1.3887  0.0994
  328MOL0     H44255  10.470  -1.072   3.031 -0.2544 -0.7868 -0.8425
  328MOL0     H44256  10.505  -1.065   2.729  0.8356 -1.0393  0.3724
  328MOL0     H44257  10.378  -1.157   2.813  0.6580 -3.0624  0.4973
  328MOL0     H44258  10.564  -1.269   2.950 -0.7225 -1.1549 -1.2646
  328MOL0     H44259  10.569  -1.311   2.782 -2.5011  0.7897 -2.5616
  328MOL0     H44260   9.722  -0.663   3.137  3.4979 -1.0833  0.9034
  328MOL0     H44261   9.515  -0.592   3.158 -0.6621  0.6059  0.9018
  328MOL0     H44262   9.312  -0.405   3.736  1.6037  3.3680 -0.6604
  328MOL0     H44263   9.080  -0.358   3.816  1.0597  0.4516  0.2199
  328MOL0     H44264   7.666  -0.109   3.215  0.6620 -0.2617 -1.9295
  328MOL0     H44265   7.533  -0.001   3.412 -2.4898 -0.5044 -2.3475
  328MOL0     H44266   7.130   0.158   3.530  0.1020 -0.5616 -3.0515
  328MOL0     H44267   6.939   0.287   3.592 -0.3452  0.4449 -0.2713
  328MOL0     H44268   6.967   0.723   3.536  0.0868 -0.2926 -0.4459
  328MOL0     H44269   6.997   0.747   3.714 -1.1071 -0.2063  0.9885
  328MOL0     H44270   6.800   0.839   3.678  2.3164  0.6673  0.9441
  328MOL0     H44271   6.771   0.691   3.761  1.6022 -1.2594 -0.2911
  328MOL0     H44272   6.678   0.576   3.608 -2.8663  0.4032 -0.1752
  328MOL0     H44273   6.744   0.661   3.468 -1.1260 -1.0408  0.3281
  328MOL0     H44274   6.527   0.756   3.680  1.1302 -0.1781  0.5476
  328MOL0     H44275   6.582   0.849   3.545  0.8451 -0.8845 -1.1724
  328MOL0     H44276   6.339   0.627   3.308 -0.3501  1.0826  0.2511
  328MOL0     H44277   7.206   0.642   3.621 -1.1023  1.0719 -2.0774
  328MOL0     H44278   7.394   0.637   3.472 -0.1580  0.0616  1.6732
  328MOL0     H44279   7.498   0.514   3.530  0.8303  2.1208  0.1836
  328MOL0     H44280   7.416   0.514   3.366 -0.0610  0.4854  0.4086
  329MOL0     O44281   2.580   5.686   8.582 -0.3010 -0.2282 -0.5338
  329MOL0     C44282   2.675   5.626   8.529 -0.6399 -0.7569  0.0655
  329MOL0     O44283   2.667   5.498   8.473 -0.3629 -0.3773 -0.3344
  329MOL0     C44284   2.544   5.436   8.464 -0.0585  1.7381 -0.7104
  329MOL0     C44285   2.502   5.397   8.337 -0.3289 -0.1798 -0.2247
  329MOL0     C44286   2.404   5.300   8.313  0.1498 -0.2371 -0.5504
  329MOL0     C44287   2.318   5.262   8.421  0.2265  0.3259  0.6497
  329MOL0     O44288   2.209   5.181   8.406 -0.1551  0.1915  0.4511
  329MOL0     C44289   2.112   5.208   8.300 -1.0401  0.8901 -0.1415
  329MOL0     C44290   2.017   5.092   8.289 -0.1224  0.2844  0.4132
  329MOL0     C44291   1.916   5.131   8.180 -0.5013 -0.0214 -0.5073
  329MOL0     C44292   1.806   5.022   8.147  0.6545 -1.1341  0.1795
  329MOL0     C44293   1.682   5.086   8.088 -0.0023  0.5183  0.4600
  329MOL0     C44294   1.559   4.992   8.071  0.2067 -0.6763  0.0062
  329MOL0     C44295   1.588   4.879   7.970 -0.2531  0.2103 -0.2848
  329MOL0     C44296   1.490   4.765   7.960 -0.4835  0.3569 -0.2967
  329MOL0     N44297   1.354   4.787   7.911 -0.5802 -0.4922 -0.0669
  329MOL0     C44298   1.275   4.900   7.930  0.0599  0.5053 -0.3967
  329MOL0     C44299   1.170   4.892   7.846 -0.6185 -0.1173 -0.6775
  329MOL0     C44300   1.076   5.004   7.845  0.1033 -0.0344  0.3609
  329MOL0     C44301   1.024   5.009   7.698 -0.5404  0.4534 -0.5794
  329MOL0     C44302   0.939   5.124   7.652  0.1971 -0.2143  0.0227
  329MOL0     C44303   1.018   5.248   7.631 -0.1046 -0.0588 -0.9834
  329MOL0     O44304   1.134   5.228   7.547 -0.4630 -0.0640 -0.5256
  329MOL0     C44305   1.255   5.282   7.583  0.2894  0.3750 -0.3637
  329MOL0     C44306   1.341   5.201   7.658 -0.6711 -0.3045 -0.4167
  329MOL0     C44307   1.457   5.248   7.721  1.3747  1.3053 -0.4620
  329MOL0     C44308   1.478   5.382   7.716 -0.5720  0.0012 -0.3837
  329MOL0     C44309   1.610   5.428   7.780 -0.0468 -0.3024  0.3325
  329MOL0     O44310   1.683   5.334   7.844 -0.2379 -0.8673 -0.1783
  329MOL0     C44311   1.805   5.386   7.884  0.0204 -0.4558 -1.4098
  329MOL0     C44312   1.815   5.461   8.002  0.1503 -0.5537 -0.7218
  329MOL0     C44313   1.944   5.502   8.051 -0.5438  0.0315 -0.0548
  329MOL0     C44314   2.062   5.469   7.986  0.5543 -0.9643  0.9140
  329MOL0     O44315   2.181   5.500   8.042  0.5087  0.2568  0.2894
  329MOL0     C44316   2.261   5.583   7.959  0.6915 -0.2397  0.3637
  329MOL0     C44317   2.406   5.557   7.995  0.9448  0.3942 -0.2107
  329MOL0     C44318   2.482   5.691   7.974 -0.3947  0.7770 -0.1128
  329MOL0     C44319   2.616   5.691   8.042  0.3117  0.5632  0.9064
  329MOL0     C44320   2.727   5.634   7.949 -0.6273  0.7814  0.3783
  329MOL0     C44321   2.853   5.605   8.023 -0.1099  0.1023  0.5578
  329MOL0     C44322   2.921   5.725   8.094 -1.1010 -0.4705  0.4576
  329MOL0     C44323   3.074   5.709   8.124 -0.0765  0.1780 -0.3925
  329MOL0    Cl44324   3.117   5.543   8.187 -0.2522 -0.0570  0.3377
  329MOL0     C44325   2.049   5.390   7.869 -0.3143 -1.3247  0.8454
  329MOL0     C44326   1.923   5.363   7.816  0.3383 -0.7803  0.1544
  329MOL0     O44327   1.635   5.545   7.748  0.3838  0.0211 -0.0113
  329MOL0     C44328   1.393   5.470   7.653  0.8572 -0.7734  0.6665
  329MOL0     C44329   1.282   5.420   7.587  0.1731  0.7305 -0.2573
  329MOL0     N44330   1.190   4.777   7.765  0.4581  0.7122 -0.3799
  329MOL0     N44331   1.304   4.718   7.803  0.7394  0.1345 -0.3790
  329MOL0     C44332   2.352   5.305   8.544  0.6065 -0.1351  0.2003
  329MOL0     C44333   2.464   5.393   8.573  0.3308  0.2926  0.1474
  329MOL0     C44334   2.806   5.703   8.517 -0.8165 -0.5676  0.1553
  329MOL0     C44335   2.914   5.625   8.479  0.7680  0.2235 -0.2002
  329MOL0     C44336   3.035   5.689   8.458  0.4584  0.1048  0.1535
  329MOL0     C44337   3.048   5.822   8.473  0.1085  0.1715  0.0682
  329MOL0     O44338   3.161   5.892   8.469 -0.1569  0.1227  0.3098
  329MOL0     C44339   3.285   5.815   8.466 -0.5174  0.0165 -0.3636
  329MOL0     C44340   3.410   5.909   8.477  0.2289  0.8914 -0.5070
  329MOL0     C44341   3.529   5.814   8.442  0.0953  0.4170 -0.6230
  329MOL0     C44342   3.670   5.863   8.493  0.2124  0.1139 -0.2782
  329MOL0     C44343   3.703   5.992   8.435  0.2311  0.0580  0.3420
  329MOL0     C44344   3.730   6.103   8.390 -1.3331  0.2780  0.5283
  329MOL0     C44345   2.939   5.891   8.524 -0.2362 -0.4469  0.4017
  329MOL0     C44346   2.812   5.846   8.539  0.3258  0.1748 -0.2887
  329MOL0     C44347   2.704   5.946   8.588 -0.8510  0.3142  0.4765
  329MOL0     H44348   2.559   5.425   8.249 -0.3900 -2.2742 -1.0060
  329MOL0     H44349   2.372   5.274   8.213  0.7002  1.5796 -1.2379
  329MOL0     H44350   2.064   5.303   8.326  2.2688  2.3733  1.2502
  329MOL0     H44351   2.167   5.220   8.206 -1.3785  1.9245 -0.2143
  329MOL0     H44352   1.961   5.071   8.381  0.0800 -0.6777  0.3223
  329MOL0     H44353   2.074   5.001   8.268 -2.2929 -1.2355  0.7467
  329MOL0     H44354   1.973   5.147   8.088  2.0646 -1.0302  0.8014
  329MOL0     H44355   1.871   5.225   8.213  2.1802  0.2684  2.8734
  329MOL0     H44356   1.835   4.933   8.091 -1.6192 -2.7842  1.4275
  329MOL0     H44357   1.769   4.975   8.238 -1.6227  0.1737  0.0078
  329MOL0     H44358   1.662   5.167   8.158  1.8272  0.8667  0.6300
  329MOL0     H44359   1.706   5.134   7.993 -2.1690 -0.8520 -0.8747
  329MOL0     H44360   1.545   4.958   8.174  2.0224 -0.1927  0.4402
  329MOL0     H44361   1.476   5.051   8.032  0.2250 -1.5497 -1.4038
  329MOL0     H44362   1.681   4.837   8.009  0.2790  2.4168  0.9888
  329MOL0     H44363   1.605   4.937   7.879 -0.0031  0.7295  0.0882
  329MOL0     H44364   1.539   4.681   7.910  0.7866  0.2603  1.0181
  329MOL0     H44365   1.473   4.731   8.063 -2.9658 -0.1859 -0.8160
  329MOL0     H44366   1.290   4.985   7.997 -1.3985 -0.5942  1.4514
  329MOL0     H44367   0.995   4.995   7.917 -0.3477  0.2125 -0.1039
  329MOL0     H44368   1.138   5.093   7.854  3.1245 -1.5518 -2.8126
  329MOL0     H44369   1.109   5.000   7.630 -1.2806 -0.9322 -1.3785
  329MOL0     H44370   0.978   4.910   7.687  1.8623 -0.8375  0.2645
  329MOL0     H44371   0.855   5.157   7.713 -1.2970  4.3492 -3.9016
  329MOL0     H44372   0.904   5.101   7.551  1.2215  1.5578 -0.7742
  329MOL0     H44373   1.051   5.270   7.733  1.3231 -4.0850 -0.4116
  329MOL0     H44374   0.957   5.325   7.582 -1.3536 -2.5385 -3.5706
  329MOL0     H44375   1.318   5.095   7.646 -1.1749 -0.1672 -0.7064
  329MOL0     H44376   1.529   5.178   7.763  0.4034  0.4409 -0.1934
  329MOL0     H44377   1.725   5.466   8.062 -2.3318  0.7833 -4.2659
  329MOL0     H44378   1.957   5.550   8.148 -0.7363 -0.5938  0.2871
  329MOL0     H44379   2.245   5.587   7.851  2.2029  0.5779  0.1511
  329MOL0     H44380   2.230   5.678   8.002  0.0535 -0.8014  1.1869
  329MOL0     H44381   2.411   5.524   8.099  0.1395  4.4728  1.3079
  329MOL0     H44382   2.455   5.485   7.928  1.2692 -0.9090  1.3691
  329MOL0     H44383   2.498   5.709   7.867  5.2311 -0.2390  0.2211
  329MOL0     H44384   2.424   5.772   8.019 -1.1557 -0.0843  0.4810
  329MOL0     H44385   2.618   5.636   8.137  1.7266  0.6527  0.9464
  329MOL0     H44386   2.636   5.797   8.063 -1.3024  1.6490 -2.3494
  329MOL0     H44387   2.761   5.708   7.877 -1.3174  0.9721  0.2453
  329MOL0     H44388   2.695   5.540   7.902 -0.2659  1.6678 -1.7303
  329MOL0     H44389   2.839   5.531   8.102  1.1215 -1.1419 -0.3346
  329MOL0     H44390   2.918   5.557   7.949 -2.9922 -0.6809 -1.6566
  329MOL0     H44391   2.866   5.751   8.185 -0.7731  2.1748  0.0085
  329MOL0     H44392   2.913   5.814   8.030 -0.0170  0.8288  2.0391
  329MOL0     H44393   3.138   5.722   8.036 -2.8924  0.1346 -2.5677
  329MOL0     H44394   3.095   5.792   8.192  1.8322  0.2565 -1.0182
  329MOL0     H44395   2.139   5.364   7.813 -0.7130 -1.5826  0.3126
  329MOL0     H44396   1.918   5.310   7.722 -1.8160 -1.4211  0.5564
  329MOL0     H44397   1.407   5.577   7.644 -0.4182 -0.5780  0.8942
  329MOL0     H44398   1.211   5.486   7.539  0.9828  0.7807 -1.4217
  329MOL0     H44399   2.281   5.285   8.623 -0.2963  0.5665 -0.4127
  329MOL0     H44400   2.503   5.425   8.669  1.7582  0.8336 -0.5900
  329MOL0     H44401   2.915   5.520   8.454  0.0523  0.2034 -0.1503
  329MOL0     H44402   3.123   5.627   8.442  1.0833  1.2419 -1.0171
  329MOL0     H44403   3.292   5.765   8.369  1.2759 -0.2378 -0.1305
  329MOL0     H44404   3.290   5.738   8.542 -3.5365  0.1626  0.1105
  329MOL0     H44405   3.432   5.943   8.579  3.2424  0.4310 -0.8904
  329MOL0     H44406   3.407   5.999   8.415  1.3603  2.1829  1.2092
  329MOL0     H44407   3.548   5.812   8.334  0.5916 -1.2230 -0.5330
  329MOL0     H44408   3.521   5.712   8.480  1.8931  0.1789 -0.7798
  329MOL0     H44409   3.666   5.871   8.602 -3.9785  0.8845 -0.3103
  329MOL0     H44410   3.748   5.797   8.456 -1.3816 -0.2461 -3.3053
  329MOL0     H44411   3.762   6.194   8.343 -0.8358 -1.7237 -3.4406
  329MOL0     H44412   2.957   5.998   8.533 -2.0099 -0.0724 -0.1365
  329MOL0     H44413   2.603   5.909   8.565 -0.5830  0.6752 -1.4186
  329MOL0     H44414   2.710   5.964   8.696  0.3405 -1.3940  0.7402
  329MOL0     H44415   2.730   6.036   8.531  2.1966 -0.2186  0.8396
  330MOL0     O44416   1.130   3.019   5.070  0.5527 -0.0266  0.0118
  330MOL0     C44417   1.038   2.952   5.103 -0.2287  0.7413 -0.7261
  330MOL0     O44418   1.026   2.810   5.099 -0.0800  0.0834  0.2963
  330MOL0     C44419   1.110   2.728   5.028 -1.0725 -0.5245  1.2240
  330MOL0     C44420   1.245   2.728   5.064  0.2867 -0.1078  0.6831
  330MOL0     C44421   1.322   2.635   5.002 -0.0281  0.2162  1.0578
  330MOL0     C44422   1.269   2.548   4.902 -0.1051  0.8810 -0.5180
  330MOL0     O44423   1.333   2.443   4.850 -0.4055 -0.3416 -0.0992
  330MOL0     C44424   1.369   2.461   4.723  0.0887  0.3812 -0.0875
  330MOL0     C44425   1.503   2.540   4.728 -0.6685 -0.0774  0.7889
  330MOL0     C44426   1.625   2.453   4.749 -0.0746 -0.9411 -1.1603
  330MOL0     C44427   1.741   2.555   4.777 -0.3019 -0.8350  0.2945
  330MOL0     C44428   1.869   2.480   4.826  0.1501  0.2256 -0.1541
  330MOL0     C44429   1.961   2.574   4.900 -1.0047 -0.4898 -0.1575
  330MOL0     C44430   2.081   2.503   4.969 -0.4955  0.5341 -0.1125
  330MOL0     C44431   2.175   2.587   5.061 -0.1067  0.9928  0.3727
  330MOL0     N44432   2.239   2.699   4.995 -0.4307 -0.9768  0.2377
  330MOL0     C44433   2.357   2.695   4.926  0.3686  0.2365  0.4615
  330MOL0     C44434   2.366   2.810   4.857 -1.1499  0.2324 -0.5811
  330MOL0     C44435   2.481   2.856   4.770  0.0039  0.2438 -1.2544
  330MOL0     C44436   2.563   2.964   4.839 -0.4211 -0.3726  0.2500
  330MOL0     C44437   2.690   2.998   4.768 -0.3844  0.9487  1.4552
  330MOL0     C44438   2.789   3.050   4.867 -0.8816 -0.1720 -0.1226
  330MOL0     O44439   2.910   3.072   4.798 -0.1693  0.0998 -0.4793
  330MOL0     C44440   3.014   3.122   4.864  0.2828 -0.7305  0.2226
  330MOL0     C44441   3.121   3.160   4.783  0.7577  0.3720 -0.0841
  330MOL0     C44442   3.246   3.208   4.832 -0.5150 -0.2016  0.4846
  330MOL0     C44443   3.259   3.226   4.973 -0.0479 -0.3217  0.1273
  330MOL0     C44444   3.384   3.282   5.039 -0.4903  0.1140  0.0663
  330MOL0     O44445   3.396   3.289   5.179 -0.1869  0.3887  0.2447
  330MOL0     C44446   3.516   3.308   5.231 -0.0593  0.3905  0.2669
  330MOL0     C44447   3.613   3.207   5.227 -0.1540 -0.1216 -0.4152
  330MOL0     C44448   3.739   3.220   5.289 -0.6007  0.9784 -0.6918
  330MOL0     C44449   3.770   3.350   5.349  0.4751  0.1988 -0.8093
  330MOL0     O44450   3.895   3.370   5.410 -0.1474  0.4498  0.1960
  330MOL0     C44451   3.959   3.497   5.408  0.6152 -0.3978  0.6206
  330MOL0     C44452   4.103   3.468   5.443  0.2042 -0.4674 -0.5045
  330MOL0     C44453   4.169   3.349   5.359  0.0226  0.0517  0.7401
  330MOL0     C44454   4.316   3.326   5.407  0.0966 -0.2879 -0.0533
  330MOL0     C44455   4.393   3.221   5.325 -0.3655  0.5523 -0.2408
  330MOL0     C44456   4.527   3.171   5.394  0.2405  1.1974  0.4452
  330MOL0     C44457   4.623   3.287   5.384 -0.5370  0.0435 -0.1641
  330MOL0     C44458   4.757   3.272   5.449  0.3670 -0.1484  0.2758
  330MOL0    Cl44459   4.875   3.365   5.352  0.0485  0.3578  0.2681
  330MOL0     C44460   3.670   3.448   5.366 -0.8213  0.0500  0.1730
  330MOL0     C44461   3.543   3.428   5.304  0.5626  0.3403 -0.4768
  330MOL0     O44462   3.478   3.300   4.959  0.6877 -0.3017  0.4265
  330MOL0     C44463   3.150   3.191   5.051 -0.2686 -0.0629  1.0317
  330MOL0     C44464   3.029   3.146   5.005 -0.3114  0.0631  0.4869
  330MOL0     N44465   2.259   2.882   4.898 -0.3736  0.0918  0.1512
  330MOL0     N44466   2.192   2.829   4.986 -0.4496 -0.2195 -0.6398
  330MOL0     C44467   1.137   2.550   4.872  0.2465 -0.6870 -0.4853
  330MOL0     C44468   1.052   2.640   4.939 -0.5299 -0.6159  0.6994
  330MOL0     C44469   0.915   3.017   5.152  0.1992 -1.1516 -0.0942
  330MOL0     C44470   0.804   2.941   5.195  0.3344 -0.5069  0.6871
  330MOL0     C44471   0.669   2.993   5.222  0.3536  0.4594 -0.4642
  330MOL0     C44472   0.652   3.129   5.202  0.3063 -0.2378  0.2149
  330MOL0     O44473   0.534   3.197   5.223 -0.2514  0.4188  0.6130
  330MOL0     C44474   0.435   3.142   5.308 -1.1455  0.4389  1.0459
  330MOL0     C44475   0.320   3.230   5.331 -0.7113  0.2180  0.6769
  330MOL0     C44476   0.214   3.177   5.433  1.1929 -1.1609 -0.1800
  330MOL0     C44477   0.177   3.289   5.532  0.1400 -0.5398  0.2645
  330MOL0     C44478   0.082   3.246   5.631 -0.5211 -0.3023  0.2200
  330MOL0     C44479  -0.001   3.188   5.689 -0.3118  0.8300 -0.4084
  330MOL0     C44480   0.757   3.209   5.166 -0.1442 -0.2976 -0.2748
  330MOL0     C44481   0.888   3.158   5.137 -0.6660  0.7328 -1.2234
  330MOL0     C44482   0.991   3.256   5.084  0.0496  0.7858  0.9792
  330MOL0     H44483   1.296   2.804   5.122  1.6488 -0.9315  0.6036
  330MOL0     H44484   1.429   2.646   5.017  0.1772 -1.3919  0.8748
  330MOL0     H44485   1.372   2.359   4.684 -2.0339 -0.0928  0.8962
  330MOL0     H44486   1.292   2.516   4.668 -1.0490 -1.2481 -0.1940
  330MOL0     H44487   1.483   2.623   4.797 -2.3199  1.2080 -1.1229
  330MOL0     H44488   1.524   2.591   4.633 -1.0865 -2.4958 -0.6932
  330MOL0     H44489   1.644   2.385   4.666  1.2422 -0.2727 -1.4233
  330MOL0     H44490   1.610   2.391   4.838  0.3598 -1.9514 -1.7832
  330MOL0     H44491   1.777   2.615   4.693 -0.6674  1.4875  1.6926
  330MOL0     H44492   1.722   2.629   4.856  2.9780  1.2715 -0.6684
  330MOL0     H44493   1.836   2.402   4.896 -2.4742 -0.7346 -2.2797
  330MOL0     H44494   1.928   2.426   4.751  1.1934 -0.3169  1.0115
  330MOL0     H44495   1.993   2.649   4.827 -3.9589  1.5176  0.4426
  330MOL0     H44496   1.906   2.627   4.979 -1.0020  1.2218 -1.2732
  330MOL0     H44497   2.142   2.475   4.883 -1.5451 -1.7550 -0.1746
  330MOL0     H44498   2.051   2.414   5.025  0.4112  0.7148  0.6957
  330MOL0     H44499   2.110   2.628   5.138 -1.2446  0.2134 -0.1437
  330MOL0     H44500   2.252   2.519   5.099 -1.7695 -0.2920  1.5892
  330MOL0     H44501   2.425   2.611   4.920  1.6970  1.1084  2.4720
  330MOL0     H44502   2.546   2.769   4.756 -2.2976 -2.1723  1.5964
  330MOL0     H44503   2.445   2.884   4.671  0.1028  0.9843 -1.0890
  330MOL0     H44504   2.500   3.053   4.827  1.0998  0.4454 -2.3129
  330MOL0     H44505   2.578   2.951   4.947  0.1724  5.8771  1.3216
  330MOL0     H44506   2.675   3.071   4.688 -1.3767 -1.2711 -0.5056
  330MOL0     H44507   2.735   2.914   4.715  1.3752  2.6821  0.0584
  330MOL0     H44508   2.815   2.970   4.937  3.0201 -1.3632 -2.6263
  330MOL0     H44509   2.740   3.131   4.922 -1.6620  0.6765 -1.9932
  330MOL0     H44510   3.115   3.134   4.678 -2.6533 -0.9685  0.3241
  330MOL0     H44511   3.325   3.233   4.762 -1.8466 -0.8710 -1.3379
  330MOL0     H44512   3.602   3.106   5.190  0.7745 -0.5507  0.4075
  330MOL0     H44513   3.805   3.134   5.287  1.3968  2.3801  0.4837
  330MOL0     H44514   3.942   3.529   5.305 -1.4779  1.2188  1.3889
  330MOL0     H44515   3.918   3.562   5.486  0.8352 -1.2026  1.4270
  330MOL0     H44516   4.167   3.556   5.428 -3.2504  2.3418 -0.1175
  330MOL0     H44517   4.111   3.441   5.548  3.2410  1.2536 -0.1962
  330MOL0     H44518   4.115   3.254   5.365 -0.0432  0.0235 -0.1273
  330MOL0     H44519   4.175   3.371   5.252  3.2086  1.7443  1.1541
  330MOL0     H44520   4.303   3.284   5.507  2.5453  1.5167  1.1511
  330MOL0     H44521   4.370   3.421   5.413 -2.4366  1.3728 -1.6064
  330MOL0     H44522   4.424   3.253   5.225  1.2613 -0.4252 -0.0806
  330MOL0     H44523   4.320   3.140   5.326 -0.7370  0.8622  1.5800
  330MOL0     H44524   4.504   3.144   5.497 -0.5143  1.4826  0.3550
  330MOL0     H44525   4.575   3.089   5.338 -3.7663 -0.4231 -0.9683
  330MOL0     H44526   4.575   3.372   5.432  0.2184 -1.0245  2.6540
  330MOL0     H44527   4.634   3.317   5.279  1.1287 -0.7313 -0.2483
  330MOL0     H44528   4.752   3.327   5.543 -0.0280  0.5842 -0.1646
  330MOL0     H44529   4.774   3.165   5.464  0.9520 -0.5755 -2.7370
  330MOL0     H44530   3.699   3.538   5.418  0.2214 -0.3768  0.3495
  330MOL0     H44531   3.457   3.495   5.301 -0.4012 -0.5584  3.0461
  330MOL0     H44532   3.157   3.201   5.158  1.7340 -0.4303  0.9582
  330MOL0     H44533   2.960   3.122   5.086  0.8491 -0.7753  1.2533
  330MOL0     H44534   1.107   2.467   4.808 -1.3052  1.5700 -2.8936
  330MOL0     H44535   0.944   2.630   4.931 -0.3772 -1.7696 -0.1055
  330MOL0     H44536   0.829   2.835   5.203  0.0410 -0.4713  2.3982
  330MOL0     H44537   0.592   2.925   5.257  1.6289  0.6286  3.0959
  330MOL0     H44538   0.492   3.121   5.400 -0.4330 -1.2956  0.2583
  330MOL0     H44539   0.406   3.045   5.265  2.2249 -1.1246  1.9004
  330MOL0     H44540   0.274   3.244   5.233 -1.7472 -3.9969  0.3806
  330MOL0     H44541   0.361   3.326   5.364  1.3307 -0.8321  1.3952
  330MOL0     H44542   0.257   3.095   5.490  3.2603  1.3632  2.1801
  330MOL0     H44543   0.123   3.136   5.386  0.4834  0.4721 -0.3016
  330MOL0     H44544   0.268   3.322   5.584  1.6282 -1.1746 -1.8312
  330MOL0     H44545   0.122   3.369   5.481 -0.2835 -0.8408  0.2431
  330MOL0     H44546  -0.083   3.135   5.734 -1.6019  2.2436 -1.0094
  330MOL0     H44547   0.747   3.317   5.163 -0.7531  0.0950  5.4329
  330MOL0     H44548   1.000   3.233   4.977 -0.9427  1.3837  0.7558
  330MOL0     H44549   0.952   3.358   5.090  1.1577  1.4017 -1.1320
  330MOL0     H44550   1.088   3.258   5.135 -0.5074  0.7446  2.0622
  331MOL0     O44551   1.443   6.265   7.309  0.6658  0.6360 -0.1407
  331MOL0     C44552   1.356   6.305   7.231  0.3597  0.1283 -0.2479
  331MOL0     O44553   1.249   6.386   7.262  0.1602  0.8457  0.5654
  331MOL0     C44554   1.261   6.475   7.363  1.0056  0.5911 -0.4573
  331MOL0     C44555   1.173   6.456   7.467 -0.1556 -0.3533  0.3168
  331MOL0     C44556   1.176   6.539   7.578  0.4555 -0.0481  0.4417
  331MOL0     C44557   1.263   6.656   7.581 -0.4398 -0.5975 -0.4500
  331MOL0     O44558   1.272   6.757   7.688 -0.2368  0.2002 -0.6930
  331MOL0     C44559   1.147   6.788   7.754 -1.2251 -0.4480 -0.0589
  331MOL0     C44560   1.169   6.925   7.833  0.5427 -0.4724 -0.3607
  331MOL0     C44561   1.214   7.045   7.754 -0.1445  0.4672 -0.5310
  331MOL0     C44562   1.364   7.045   7.720  0.6589  0.1116 -0.5255
  331MOL0     C44563   1.419   7.189   7.696  0.6673 -0.1225  0.2932
  331MOL0     C44564   1.567   7.173   7.662 -0.2918  0.5332 -0.1346
  331MOL0     C44565   1.646   7.305   7.641 -0.4705  0.8832 -0.9534
  331MOL0     C44566   1.576   7.426   7.687 -0.0842 -0.4276 -0.6759
  331MOL0     N44567   1.673   7.537   7.708  0.0193 -0.7682 -0.8886
  331MOL0     C44568   1.774   7.572   7.613  0.0806  0.5168 -0.0432
  331MOL0     C44569   1.843   7.670   7.684  0.7734  0.0854  0.3081
  331MOL0     C44570   1.977   7.731   7.633 -0.0488  1.0304 -0.2651
  331MOL0     C44571   2.088   7.634   7.616 -0.6048 -0.0307 -0.0061
  331MOL0     C44572   2.136   7.575   7.749 -0.0859  1.3665 -0.0652
  331MOL0     C44573   2.173   7.677   7.867 -0.5049 -0.8132  0.0897
  331MOL0     O44574   2.233   7.611   7.984  0.5036 -0.4123  0.2849
  331MOL0     C44575   2.371   7.619   8.015  0.5574 -0.0514 -0.0621
  331MOL0     C44576   2.410   7.569   8.138  0.2448 -0.0347 -0.3636
  331MOL0     C44577   2.544   7.544   8.167 -0.1435 -0.0015  0.5030
  331MOL0     C44578   2.637   7.574   8.064  0.0330  0.0539 -0.1496
  331MOL0     C44579   2.780   7.554   8.085 -0.5033 -0.4127 -0.2293
  331MOL0     O44580   2.855   7.551   7.973 -0.3523 -1.2894 -0.2598
  331MOL0     C44581   2.988   7.530   7.998 -0.1071 -0.1395 -0.1151
  331MOL0     C44582   3.028   7.401   8.040 -0.7206  0.7237  0.1145
  331MOL0     C44583   3.159   7.352   8.029  0.1968 -0.1036 -0.4794
  331MOL0     C44584   3.261   7.431   7.962  0.3879  0.1778 -0.5736
  331MOL0     O44585   3.385   7.376   7.976  1.6929 -0.3399 -0.2505
  331MOL0     C44586   3.490   7.421   7.897 -0.2720 -0.2509  0.0517
  331MOL0     C44587   3.575   7.497   8.008 -0.2875 -0.4252 -0.4436
  331MOL0     C44588   3.715   7.561   7.963  0.4577 -0.2555 -0.5061
  331MOL0     C44589   3.668   7.676   7.862 -0.3823  0.3037 -0.5031
  331MOL0     C44590   3.785   7.770   7.809 -0.2505  0.5379  0.3691
  331MOL0     C44591   3.922   7.695   7.790  0.0012  0.1187  0.7803
  331MOL0     C44592   3.905   7.604   7.666  0.2181  0.4610 -0.3841
  331MOL0     C44593   4.037   7.573   7.607 -0.2186  0.7460  0.6293
  331MOL0    Cl44594   4.159   7.491   7.718  0.0562 -0.5177 -0.0919
  331MOL0     C44595   3.222   7.563   7.931  0.6429  0.6208 -0.4438
  331MOL0     C44596   3.093   7.620   7.947 -0.3906 -0.2130  0.4247
  331MOL0     O44597   2.825   7.554   8.199  0.6998 -0.1662  0.3368
  331MOL0     C44598   2.606   7.626   7.939 -0.5887 -0.3883 -0.6476
  331MOL0     C44599   2.468   7.654   7.920 -0.0720 -0.5444 -0.5003
  331MOL0     N44600   1.795   7.683   7.816 -0.2888 -0.3023  1.0550
  331MOL0     N44601   1.697   7.595   7.827 -0.9824 -0.1454  0.2886
  331MOL0     C44602   1.353   6.674   7.475  0.7124 -0.6887 -0.3920
  331MOL0     C44603   1.347   6.586   7.358  0.1599  0.2715  0.2727
  331MOL0     C44604   1.362   6.227   7.096  0.4321  0.7165 -0.3581
  331MOL0     C44605   1.478   6.156   7.073  0.9767  0.8415  0.2264
  331MOL0     C44606   1.501   6.078   6.960  0.3743  1.0546 -0.2783
  331MOL0     C44607   1.411   6.084   6.851  0.0432  0.5980  0.3258
  331MOL0     O44608   1.420   6.020   6.729  0.3275 -0.5907  0.3559
  331MOL0     C44609   1.530   5.941   6.701  0.4528  0.6205  0.5313
  331MOL0     C44610   1.544   5.932   6.542  0.5257 -0.1006  0.4664
  331MOL0     C44611   1.605   5.808   6.488  0.5792  0.3604  0.0627
  331MOL0     C44612   1.756   5.804   6.513  0.9979 -0.7851  0.1640
  331MOL0     C44613   1.824   5.679   6.480 -0.3117 -0.3945 -0.4133
  331MOL0     C44614   1.871   5.574   6.468  0.2124  0.1116  0.4967
  331MOL0     C44615   1.303   6.163   6.866  0.1863 -0.9250  0.3193
  331MOL0     C44616   1.270   6.226   6.990  0.6344 -1.0438  0.4957
  331MOL0     C44617   1.136   6.304   6.985  0.2419 -0.3652  0.2543
  331MOL0     H44618   1.093   6.383   7.463  1.4473 -2.1387 -0.6071
  331MOL0     H44619   1.109   6.531   7.663 -0.0183  0.8828  0.1739
  331MOL0     H44620   1.067   6.810   7.682  0.5960  2.0180 -1.4611
  331MOL0     H44621   1.119   6.710   7.826  1.7632  0.8969  2.8130
  331MOL0     H44622   1.242   6.923   7.915  0.5003  1.0504 -0.2551
  331MOL0     H44623   1.078   6.949   7.888 -1.2772  1.5893 -3.9027
  331MOL0     H44624   1.177   7.131   7.812 -1.4848 -1.2959  1.3909
  331MOL0     H44625   1.157   7.053   7.661  1.5667  1.3944 -1.5540
  331MOL0     H44626   1.421   6.988   7.794  0.9139 -1.2286 -1.7095
  331MOL0     H44627   1.372   6.990   7.626  0.3870 -1.9838  0.6272
  331MOL0     H44628   1.357   7.231   7.616 -1.3246  1.3870  2.4808
  331MOL0     H44629   1.403   7.248   7.786  0.1543  1.8107 -0.9979
  331MOL0     H44630   1.616   7.123   7.745  0.6930  0.6287 -0.6472
  331MOL0     H44631   1.565   7.109   7.574 -0.7109 -0.4239  0.5608
  331MOL0     H44632   1.668   7.303   7.534  0.3860 -2.4924 -0.8508
  331MOL0     H44633   1.742   7.291   7.693 -2.7960 -1.1305  3.2725
  331MOL0     H44634   1.506   7.453   7.607  0.1686 -0.6354 -0.9726
  331MOL0     H44635   1.533   7.414   7.786  0.3118  0.9615 -0.3118
  331MOL0     H44636   1.793   7.533   7.513 -0.4122 -0.8498  0.3667
  331MOL0     H44637   1.961   7.780   7.536 -1.6771  4.0740  1.4053
  331MOL0     H44638   1.994   7.811   7.706 -0.5864 -0.5859  1.7066
  331MOL0     H44639   2.057   7.547   7.557  1.2194 -0.2451 -0.7041
  331MOL0     H44640   2.180   7.673   7.573  0.8139 -1.8405  1.2385
  331MOL0     H44641   2.211   7.496   7.738 -0.7806  0.9479 -2.3355
  331MOL0     H44642   2.054   7.512   7.784  1.5804 -0.4664  0.6808
  331MOL0     H44643   2.081   7.723   7.902 -1.8985 -4.0387  1.0075
  331MOL0     H44644   2.245   7.753   7.835  0.4113 -1.5236  0.4145
  331MOL0     H44645   2.336   7.533   8.208 -2.1163  0.5536 -2.4437
  331MOL0     H44646   2.570   7.509   8.266 -1.9436  0.3929  1.1557
  331MOL0     H44647   2.952   7.333   8.077 -1.5500  1.9588  0.7543
  331MOL0     H44648   3.177   7.253   8.069  1.5584  1.2263  2.4700
  331MOL0     H44649   3.549   7.337   7.858 -2.3941 -1.4560 -0.6942
  331MOL0     H44650   3.465   7.479   7.807 -1.5425 -2.7099 -1.2797
  331MOL0     H44651   3.511   7.566   8.064 -3.4527 -1.1712 -2.8070
  331MOL0     H44652   3.604   7.418   8.078  1.8369 -0.8702 -1.7455
  331MOL0     H44653   3.772   7.603   8.047  1.0427 -2.6943  0.4052
  331MOL0     H44654   3.767   7.477   7.917  1.6495 -0.0719  0.4613
  331MOL0     H44655   3.593   7.746   7.900  0.8916  2.4006 -1.6811
  331MOL0     H44656   3.618   7.635   7.774  2.5853 -0.1138 -2.1306
  331MOL0     H44657   3.798   7.848   7.884  0.6098  2.2681 -1.4669
  331MOL0     H44658   3.762   7.823   7.716 -1.9620  0.4529  0.7216
  331MOL0     H44659   3.995   7.773   7.765  1.3095 -0.9884  1.0101
  331MOL0     H44660   3.953   7.647   7.883  0.5625 -0.5290  0.2760
  331MOL0     H44661   3.837   7.661   7.601 -1.1755  1.4485  1.8024
  331MOL0     H44662   3.848   7.517   7.699 -0.8009  0.7758 -1.2363
  331MOL0     H44663   4.021   7.505   7.523 -2.0267  2.3154 -0.3693
  331MOL0     H44664   4.083   7.667   7.578 -0.5561  0.8414  0.4029
  331MOL0     H44665   3.293   7.633   7.889 -0.6162  2.8898  1.0756
  331MOL0     H44666   3.079   7.725   7.922  0.6595  1.1696  4.8180
  331MOL0     H44667   2.684   7.642   7.865 -0.4986 -0.0266 -0.4755
  331MOL0     H44668   2.456   7.702   7.823 -3.5484  1.5863  0.7964
  331MOL0     H44669   1.431   6.748   7.488 -0.7011  0.3546  3.3394
  331MOL0     H44670   1.421   6.590   7.279  0.2657  2.3438  0.4201
  331MOL0     H44671   1.557   6.139   7.146  0.2126 -1.6080  0.5807
  331MOL0     H44672   1.586   6.011   6.958 -1.6316 -1.6801  0.5307
  331MOL0     H44673   1.514   5.844   6.751  0.8525  1.0793  1.5747
  331MOL0     H44674   1.618   5.985   6.749 -0.6484  1.7141  1.5962
  331MOL0     H44675   1.602   6.015   6.501  1.5848 -1.7396 -1.5841
  331MOL0     H44676   1.446   5.947   6.498  0.7726 -2.7080 -1.2277
  331MOL0     H44677   1.582   5.810   6.381 -0.3689  0.2226  0.2553
  331MOL0     H44678   1.555   5.716   6.520 -1.7100  0.5601 -2.5617
  331MOL0     H44679   1.794   5.878   6.442  1.1089  0.9972  2.0167
  331MOL0     H44680   1.789   5.842   6.610 -0.6352  2.9139 -0.5608
  331MOL0     H44681   1.907   5.474   6.458 -1.7135 -0.6753  0.8991
  331MOL0     H44682   1.248   6.187   6.776 -0.5973  0.0092  1.0283
  331MOL0     H44683   1.054   6.259   7.041  1.3537 -2.9320  0.0014
  331MOL0     H44684   1.157   6.408   7.010 -2.8603  0.4730 -0.2059
  331MOL0     H44685   1.098   6.302   6.883  3.1988  0.2613 -0.9615
  332MOL0     O44686   3.763   8.608   6.531 -0.0312  0.5570 -0.0095
  332MOL0     C44687   3.839   8.702   6.527 -0.9227 -0.5383  0.5461
  332MOL0     O44688   3.862   8.778   6.417  0.0366  0.8118 -0.3918
  332MOL0     C44689   3.866   8.718   6.293 -0.6708 -0.4051  1.1406
  332MOL0     C44690   3.883   8.585   6.252 -0.3009  1.0677 -0.2851
  332MOL0     C44691   3.861   8.547   6.125  0.7112  0.4339  0.3189
  332MOL0     C44692   3.830   8.633   6.023 -0.7559  0.3052  0.5501
  332MOL0     O44693   3.815   8.579   5.899 -0.2468 -0.1654 -0.8198
  332MOL0     C44694   3.747   8.648   5.797  0.0637 -0.1788  0.1596
  332MOL0     C44695   3.846   8.693   5.686 -0.4425  0.0711 -1.1700
  332MOL0     C44696   3.784   8.770   5.561  0.2219  0.1166 -0.0129
  332MOL0     C44697   3.711   8.674   5.467  0.1132  0.4977  0.1629
  332MOL0     C44698   3.602   8.734   5.389 -0.1554  0.3802  0.0510
  332MOL0     C44699   3.544   8.634   5.287 -0.3502 -0.0516  0.4099
  332MOL0     C44700   3.430   8.699   5.204 -0.1922  0.0937  0.3687
  332MOL0     C44701   3.375   8.614   5.097  0.4834  0.2496 -0.0025
  332MOL0     N44702   3.300   8.704   5.009 -0.4532  0.0893 -0.1867
  332MOL0     C44703   3.353   8.800   4.926  0.0633  1.1596 -0.3294
  332MOL0     C44704   3.245   8.860   4.860 -0.3012  0.6571 -0.0809
  332MOL0     C44705   3.245   8.969   4.761  0.7788  0.5954  0.5460
  332MOL0     C44706   3.107   9.013   4.722  0.7109 -1.1357 -0.0087
  332MOL0     C44707   3.062   8.911   4.613 -0.2504 -0.1713  0.3680
  332MOL0     C44708   2.903   8.902   4.606 -0.6734 -0.2208 -0.4925
  332MOL0     O44709   2.859   9.031   4.558  0.1927 -0.4641 -0.7453
  332MOL0     C44710   2.755   9.102   4.616 -0.5846  0.8232  0.0756
  332MOL0     C44711   2.736   9.232   4.557  0.5410  0.6334  0.0339
  332MOL0     C44712   2.637   9.310   4.606  0.0642  0.1480  0.9656
  332MOL0     C44713   2.561   9.277   4.718 -0.0890 -0.2126  0.0747
  332MOL0     C44714   2.453   9.381   4.764  0.0483  0.5938 -0.6935
  332MOL0     O44715   2.387   9.363   4.883  0.3784  0.3117  0.4603
  332MOL0     C44716   2.468   9.365   4.994 -0.0825  0.0734  0.7264
  332MOL0     C44717   2.415   9.342   5.125 -0.4993  0.8332  0.5881
  332MOL0     C44718   2.489   9.342   5.243  0.7200  0.4721  0.1038
  332MOL0     C44719   2.615   9.386   5.237  0.3349 -0.2468  0.1848
  332MOL0     O44720   2.679   9.400   5.359 -0.4975  0.3132  0.6484
  332MOL0     C44721   2.813   9.441   5.376 -0.5528 -0.5305  0.2719
  332MOL0     C44722   2.847   9.449   5.518 -0.8140 -0.2097  0.1289
  332MOL0     C44723   2.854   9.308   5.567 -1.0173 -0.6175 -0.6212
  332MOL0     C44724   2.899   9.287   5.716  0.0235  0.0497  0.1787
  332MOL0     C44725   2.954   9.150   5.737  0.7427  0.3315 -0.4737
  332MOL0     C44726   2.990   9.137   5.879  0.5862  0.8113  0.6435
  332MOL0     C44727   2.892   9.036   5.954  0.1083 -0.6814 -0.0521
  332MOL0     C44728   2.752   9.098   5.956 -0.4475  0.6162  0.3678
  332MOL0    Cl44729   2.644   8.976   6.014  0.1178  0.0983 -0.1597
  332MOL0     C44730   2.676   9.416   5.114  0.9130 -0.7285 -0.7152
  332MOL0     C44731   2.597   9.404   4.996 -0.9304  0.5050 -0.2842
  332MOL0     O44732   2.422   9.475   4.685  0.1990  0.8463  0.1255
  332MOL0     C44733   2.588   9.144   4.774 -0.5034 -0.2558 -1.3667
  332MOL0     C44734   2.682   9.062   4.722 -0.5193  0.1484 -0.3142
  332MOL0     N44735   3.131   8.789   4.912 -0.2515  0.2059  0.3981
  332MOL0     N44736   3.165   8.706   5.006 -0.0707 -0.8113 -0.5639
  332MOL0     C44737   3.811   8.765   6.056 -0.0457 -0.0754  0.4816
  332MOL0     C44738   3.829   8.809   6.188 -0.2271 -0.0167  0.1434
  332MOL0     C44739   3.921   8.741   6.643 -0.6665 -0.2939  0.7217
  332MOL0     C44740   4.042   8.810   6.616  1.1629 -0.4740  0.5628
  332MOL0     C44741   4.123   8.856   6.724  0.8564  0.2631  0.5089
  332MOL0     C44742   4.087   8.826   6.860  0.0282  0.2228 -0.5194
  332MOL0     O44743   4.182   8.857   6.956 -0.4733 -0.4362 -0.9415
  332MOL0     C44744   4.159   8.833   7.101  1.1305  0.1020  0.4130
  332MOL0     C44745   4.094   8.941   7.182  0.7292 -0.1761  0.2264
  332MOL0     C44746   4.096   8.916   7.331 -0.5378 -0.0716 -0.4880
  332MOL0     C44747   3.996   8.801   7.369  0.0120 -0.6388  0.3280
  332MOL0     C44748   3.987   8.789   7.514 -0.5135  0.4828  1.2795
  332MOL0     C44749   3.970   8.783   7.634  0.4144 -0.3835 -0.0783
  332MOL0     C44750   3.966   8.754   6.877 -0.6396  0.5755 -0.2745
  332MOL0     C44751   3.884   8.708   6.779  0.7446  0.7080 -0.1908
  332MOL0     C44752   3.753   8.651   6.832 -0.3067  0.6831 -0.3867
  332MOL0     H44753   3.915   8.516   6.330  0.9313  3.7841  1.7931
  332MOL0     H44754   3.868   8.440   6.110 -0.7992  0.4646 -0.8802
  332MOL0     H44755   3.678   8.588   5.737 -1.8324  2.1901 -0.2052
  332MOL0     H44756   3.689   8.737   5.824  1.5000  1.1373 -0.9501
  332MOL0     H44757   3.897   8.602   5.653  0.9821  0.8118 -1.0937
  332MOL0     H44758   3.931   8.753   5.719 -0.6228  1.0069 -2.3414
  332MOL0     H44759   3.865   8.820   5.507 -0.6225  2.1119  0.4716
  332MOL0     H44760   3.729   8.858   5.595  1.9853  1.3950 -0.3317
  332MOL0     H44761   3.781   8.648   5.386 -1.0439  2.1482 -1.4623
  332MOL0     H44762   3.685   8.579   5.513 -2.2481 -0.4622 -2.8462
  332MOL0     H44763   3.528   8.754   5.467 -1.8177 -1.8553 -0.8120
  332MOL0     H44764   3.645   8.826   5.347 -1.3802  1.4287  0.9961
  332MOL0     H44765   3.616   8.604   5.211 -1.3779  0.1232 -0.6787
  332MOL0     H44766   3.509   8.541   5.334  0.6811 -1.9057 -2.2571
  332MOL0     H44767   3.480   8.787   5.161  0.3637  0.0564  0.9356
  332MOL0     H44768   3.346   8.744   5.258  0.2063  1.9225 -0.4234
  332MOL0     H44769   3.455   8.557   5.049  2.8733  1.9950  1.6542
  332MOL0     H44770   3.304   8.555   5.155 -1.3441  1.8641 -0.4981
  332MOL0     H44771   3.458   8.817   4.905  0.6186 -0.3525  1.0036
  332MOL0     H44772   3.286   9.061   4.803 -0.9411  1.1400  1.1184
  332MOL0     H44773   3.309   8.937   4.678  4.2105  1.8635  2.4672
  332MOL0     H44774   3.038   9.001   4.806 -2.7028  2.5546 -1.9724
  332MOL0     H44775   3.106   9.117   4.690 -0.2231 -1.3439 -0.7012
  332MOL0     H44776   3.109   8.813   4.629 -0.1952  0.0908  1.9155
  332MOL0     H44777   3.098   8.943   4.515  2.9590  2.2739  2.1995
  332MOL0     H44778   2.859   8.876   4.703  0.4507 -2.3574 -0.4975
  332MOL0     H44779   2.870   8.824   4.536  2.1454 -1.2529 -0.7680
  332MOL0     H44780   2.795   9.272   4.476  0.2238  1.3126  0.1313
  332MOL0     H44781   2.614   9.404   4.558  2.1024 -0.0392 -0.5112
  332MOL0     H44782   2.310   9.315   5.120 -0.8388  2.1437 -4.4705
  332MOL0     H44783   2.436   9.329   5.336 -0.9348  1.9529 -0.5828
  332MOL0     H44784   2.870   9.361   5.328 -2.7143 -0.3703 -2.8412
  332MOL0     H44785   2.828   9.530   5.314 -1.6029 -2.3514 -2.8078
  332MOL0     H44786   2.945   9.494   5.535  0.1397 -1.2187 -2.2436
  332MOL0     H44787   2.777   9.516   5.568 -3.0713 -0.9249 -1.8812
  332MOL0     H44788   2.750   9.275   5.567 -0.8998 -1.0009 -1.0599
  332MOL0     H44789   2.915   9.250   5.497  1.9980  2.2182 -0.6303
  332MOL0     H44790   2.805   9.304   5.769  0.1516  3.4998 -0.4934
  332MOL0     H44791   2.967   9.368   5.740 -2.3332  2.4909 -0.8900
  332MOL0     H44792   3.051   9.151   5.685  1.6274  2.0449  1.0722
  332MOL0     H44793   2.889   9.073   5.695 -0.5188  0.9841  0.2259
  332MOL0     H44794   3.086   9.085   5.888  1.2857  2.2477  1.9541
  332MOL0     H44795   3.025   9.225   5.934  0.6357 -0.0600  2.0754
  332MOL0     H44796   2.945   9.014   6.047  2.0515 -1.1045 -1.1911
  332MOL0     H44797   2.889   8.943   5.897 -1.1821 -0.5177 -0.2816
  332MOL0     H44798   2.746   9.189   6.017 -0.0723  1.7380 -1.1975
  332MOL0     H44799   2.724   9.121   5.853  1.7207  0.5297 -0.2845
  332MOL0     H44800   2.781   9.445   5.115  0.4702  1.0412  0.6780
  332MOL0     H44801   2.654   9.430   4.907 -2.1309 -1.2106 -1.6243
  332MOL0     H44802   2.526   9.114   4.858 -2.4680  1.9323 -1.9320
  332MOL0     H44803   2.700   8.968   4.772 -1.1333  0.3002  0.2063
  332MOL0     H44804   3.770   8.840   5.989 -0.7688  0.9449  2.0109
  332MOL0     H44805   3.818   8.915   6.207 -3.1136 -0.1896 -0.0919
  332MOL0     H44806   4.079   8.819   6.515  0.9469 -1.8508  0.3388
  332MOL0     H44807   4.218   8.900   6.697  0.3548  1.2126  0.2465
  332MOL0     H44808   4.251   8.806   7.154  1.9788  1.7184 -0.1713
  332MOL0     H44809   4.101   8.740   7.105 -0.3672  1.0268  1.6748
  332MOL0     H44810   3.992   8.962   7.147 -0.4867 -3.9460  1.0100
  332MOL0     H44811   4.147   9.034   7.163 -3.9788  2.9654  0.5758
  332MOL0     H44812   4.061   8.998   7.395 -0.1194 -2.6344  3.2969
  332MOL0     H44813   4.186   8.870   7.371 -0.5695 -3.2424 -3.5534
  332MOL0     H44814   3.898   8.822   7.326  0.6858  1.5871 -0.2237
  332MOL0     H44815   4.032   8.707   7.326 -0.3850 -0.1897 -1.0357
  332MOL0     H44816   3.936   8.787   7.736  3.8724 -0.3273  1.1900
  332MOL0     H44817   3.943   8.728   6.980 -0.4773  0.4191 -0.2766
  332MOL0     H44818   3.775   8.555   6.880  2.0451  1.3922  0.0730
  332MOL0     H44819   3.723   8.713   6.917 -0.3230 -0.1157  0.2010
  332MOL0     H44820   3.671   8.655   6.759  1.1003 -1.8619 -2.2621
  333MOL0     O44821   1.789   1.320  10.712  0.0675  0.6008  0.8474
  333MOL0     C44822   1.811   1.205  10.746 -1.0163  0.0073 -0.0098
  333MOL0     O44823   1.898   1.175  10.843 -0.3421 -0.1457 -0.0939
  333MOL0     C44824   1.988   1.277  10.887  0.0525 -0.3684  0.6120
  333MOL0     C44825   1.997   1.312  11.020 -0.6249  0.7570 -0.3914
  333MOL0     C44826   2.090   1.407  11.073  0.7609  0.0241  0.3872
  333MOL0     C44827   2.186   1.460  10.989 -0.2031  0.4178  0.0306
  333MOL0     O44828   2.284   1.548  11.033 -0.1604  0.1284  0.3420
  333MOL0     C44829   2.296   1.570  11.173 -0.5715  0.2371 -0.9310
  333MOL0     C44830   2.418   1.645  11.193 -0.3584 -0.1854  0.1917
  333MOL0     C44831   2.554   1.569  11.167 -0.2305 -0.4825  0.6968
  333MOL0     C44832   2.668   1.672  11.189 -0.1903 -0.2668 -0.5028
  333MOL0     C44833   2.812   1.630  11.206 -0.1250  0.3042 -0.5919
  333MOL0     C44834   2.820   1.518  11.318 -0.2871 -0.4213 -0.0334
  333MOL0     C44835   2.964   1.477  11.342  0.0166  0.0882  0.0126
  333MOL0     C44836   2.971   1.341  11.430  0.0356 -1.0517 -0.3873
  333MOL0     N44837   2.883   1.352  11.551  0.3219  0.6899 -0.9089
  333MOL0     C44838   2.744   1.333  11.560 -0.2445 -0.4465 -0.2039
  333MOL0     C44839   2.701   1.379  11.680 -0.1193  1.0678 -0.1739
  333MOL0     C44840   2.555   1.398  11.720 -0.3750  0.9105 -0.2921
  333MOL0     C44841   2.487   1.504  11.634  0.7245 -0.4096 -0.1768
  333MOL0     C44842   2.570   1.637  11.635  0.5008 -0.3476  0.4673
  333MOL0     C44843   2.562   1.711  11.773  0.0344 -0.2985  0.4671
  333MOL0     O44844   2.591   1.851  11.753 -0.0244 -0.4267  0.1225
  333MOL0     C44845   2.723   1.887  11.749 -0.0176 -0.5617 -0.2399
  333MOL0     C44846   2.839   1.819  11.795 -0.5947 -0.7928  0.5584
  333MOL0     C44847   2.966   1.873  11.772 -0.6318 -0.5367  0.4306
  333MOL0     C44848   2.986   2.005  11.730  0.3972  0.4027 -0.4348
  333MOL0     C44849   3.121   2.070  11.726  0.2833 -0.6626  0.2062
  333MOL0     O44850   3.224   1.987  11.760 -1.1091 -0.0454 -0.2980
  333MOL0     C44851   3.355   2.025  11.758  0.8775 -1.0075  0.0194
  333MOL0     C44852   3.406   2.135  11.698  0.2743 -0.5025  0.0277
  333MOL0     C44853   3.540   2.169  11.697 -1.2905 -0.2347 -0.4542
  333MOL0     C44854   3.624   2.090  11.770 -0.4963 -0.1123 -0.1528
  333MOL0     O44855   3.762   2.106  11.775  0.4372  0.6727 -0.5091
  333MOL0     C44856   3.829   2.171  11.668  0.4341  0.4499 -0.1086
  333MOL0     C44857   3.980   2.150  11.669 -0.2942 -0.2283 -0.7953
  333MOL0     C44858   4.054   2.201  11.794  0.8531 -0.4702 -0.7872
  333MOL0     C44859   4.196   2.190  11.774  0.4236  0.5291  0.5857
  333MOL0     C44860   4.267   2.240  11.905 -0.9385 -0.0166  0.6687
  333MOL0     C44861   4.410   2.275  11.865 -0.2702 -0.0235  0.1053
  333MOL0     C44862   4.511   2.306  11.978  1.2138  0.8210  0.4017
  333MOL0     C44863   4.653   2.320  11.923 -0.2071 -0.1884 -0.8535
  333MOL0    Cl44864   4.660   2.463  11.804 -0.3931 -0.5626  0.1877
  333MOL0     C44865   3.580   1.977  11.836 -0.7262  0.3482  0.3760
  333MOL0     C44866   3.447   1.942  11.827 -0.1543  0.1310  1.3392
  333MOL0     O44867   3.131   2.187  11.696  0.0653 -0.7595  0.8404
  333MOL0     C44868   2.862   2.075  11.696 -0.2702 -0.3572  0.3378
  333MOL0     C44869   2.741   2.014  11.693 -0.6370 -0.0517  0.7563
  333MOL0     N44870   2.809   1.433  11.740 -0.4321  0.1963 -0.0674
  333MOL0     N44871   2.916   1.406  11.671 -0.6457  0.5367 -0.1383
  333MOL0     C44872   2.179   1.429  10.851  0.2931 -0.1812 -0.3346
  333MOL0     C44873   2.079   1.345  10.799 -0.7381  0.7316  0.0394
  333MOL0     C44874   1.724   1.095  10.695  0.5269  0.0468 -0.4823
  333MOL0     C44875   1.583   1.095  10.735  0.3903  0.2045  0.5661
  333MOL0     C44876   1.497   0.992  10.699 -0.0534  0.3818  0.6226
  333MOL0     C44877   1.545   0.895  10.615 -0.4354  0.2802 -0.4736
  333MOL0     O44878   1.459   0.798  10.583 -0.2039  0.2372 -0.1038
  333MOL0     C44879   1.507   0.666  10.597  0.7180 -0.5868 -0.2749
  333MOL0     C44880   1.391   0.576  10.559  0.4988 -0.0194  0.2056
  333MOL0     C44881   1.260   0.608  10.638 -0.7241 -0.1854 -0.7689
  333MOL0     C44882   1.136   0.519  10.636 -0.7587 -0.2196 -1.5027
  333MOL0     C44883   1.035   0.599  10.714  1.0781  0.6240  0.0837
  333MOL0     C44884   0.963   0.666  10.792 -1.4119 -0.8156 -0.2883
  333MOL0     C44885   1.683   0.895  10.582  0.0506 -0.4914  0.1832
  333MOL0     C44886   1.777   0.996  10.624 -0.2020 -0.2832  0.2101
  333MOL0     C44887   1.925   0.985  10.584  0.8008  0.2676  0.9413
  333MOL0     H44888   1.921   1.272  11.087  0.0315 -1.4534 -0.8780
  333MOL0     H44889   2.070   1.429  11.178 -1.3838  0.5995 -0.0917
  333MOL0     H44890   2.221   1.632  11.223  1.6006  0.4687  2.3926
  333MOL0     H44891   2.323   1.474  11.217  2.2771  1.5058  0.3072
  333MOL0     H44892   2.412   1.671  11.299 -1.7058  0.9631 -0.1386
  333MOL0     H44893   2.415   1.740  11.138  0.6952  0.4122  1.1060
  333MOL0     H44894   2.569   1.534  11.065  3.4147  2.3371  0.0454
  333MOL0     H44895   2.552   1.485  11.237  1.1692 -1.7754 -0.7498
  333MOL0     H44896   2.680   1.740  11.104 -1.3897  1.5319  0.6895
  333MOL0     H44897   2.647   1.723  11.284  1.8375 -3.6014  1.9562
  333MOL0     H44898   2.849   1.579  11.117  3.3292 -2.2662  2.0307
  333MOL0     H44899   2.872   1.715  11.241 -2.1022  2.2832 -1.7645
  333MOL0     H44900   2.794   1.551  11.419  0.8509  0.8914 -0.1340
  333MOL0     H44901   2.744   1.443  11.296 -2.2805  1.3865  0.3817
  333MOL0     H44902   3.010   1.558  11.399  0.8774  1.8416 -2.9554
  333MOL0     H44903   3.015   1.478  11.245  2.7085 -0.7573  1.3018
  333MOL0     H44904   2.937   1.258  11.368  1.6991 -3.4534  1.6993
  333MOL0     H44905   3.075   1.323  11.460 -0.4424 -1.4889  1.0841
  333MOL0     H44906   2.679   1.287  11.487  0.0146 -0.8128 -0.2066
  333MOL0     H44907   2.496   1.309  11.698 -1.9168  1.7992  0.0645
  333MOL0     H44908   2.546   1.412  11.828  3.4916 -3.2907  0.8326
  333MOL0     H44909   2.463   1.481  11.530 -0.0964 -0.9688  0.1333
  333MOL0     H44910   2.396   1.535  11.686 -0.4885 -2.4974 -0.9446
  333MOL0     H44911   2.518   1.699  11.561 -1.7408 -1.8732  0.6483
  333MOL0     H44912   2.674   1.632  11.603  0.3430 -0.6408 -0.0078
  333MOL0     H44913   2.635   1.662  11.838 -1.6864 -2.2827  0.9709
  333MOL0     H44914   2.463   1.695  11.816  0.0891 -2.3393 -0.0998
  333MOL0     H44915   2.834   1.717  11.832  0.0072 -2.1380 -2.7108
  333MOL0     H44916   3.047   1.811  11.808  0.0041 -0.0064 -0.0590
  333MOL0     H44917   3.356   2.207  11.635  1.4616  1.4504  1.2123
  333MOL0     H44918   3.575   2.254  11.639  0.5930  0.6532  1.7898
  333MOL0     H44919   3.791   2.121  11.578 -0.2434 -2.2418  1.5692
  333MOL0     H44920   3.815   2.279  11.663  3.6843  0.9494 -0.4503
  333MOL0     H44921   4.000   2.044  11.655 -1.9085 -0.8114  0.9279
  333MOL0     H44922   4.025   2.201  11.583  2.8681 -1.6613 -0.1360
  333MOL0     H44923   4.032   2.308  11.804  0.3493 -0.5187 -1.2954
  333MOL0     H44924   4.024   2.146  11.883 -0.0572 -0.3035 -0.9787
  333MOL0     H44925   4.231   2.253  11.692 -0.6148 -3.0405 -2.9092
  333MOL0     H44926   4.225   2.087  11.748 -0.0395 -0.0060  2.0707
  333MOL0     H44927   4.278   2.163  11.983  0.8912  0.0946  0.5747
  333MOL0     H44928   4.230   2.334  11.947 -1.8762 -0.1796  0.2225
  333MOL0     H44929   4.444   2.185  11.814 -0.3259 -0.8701  1.5265
  333MOL0     H44930   4.421   2.364  11.801  1.1884  0.0160  0.3912
  333MOL0     H44931   4.497   2.237  12.063 -1.2112  1.9934  1.0487
  333MOL0     H44932   4.481   2.404  12.016 -0.3523  0.5671 -0.0944
  333MOL0     H44933   4.715   2.348  12.008  0.3429 -2.6924 -0.3585
  333MOL0     H44934   4.691   2.226  11.881  2.0792  0.8052 -1.1740
  333MOL0     H44935   3.644   1.922  11.905 -1.8448 -1.4570  0.0460
  333MOL0     H44936   3.412   1.854  11.881 -0.9088  1.0608  2.4246
  333MOL0     H44937   2.864   2.178  11.662 -2.5425 -0.3291  0.1631
  333MOL0     H44938   2.654   2.059  11.646 -2.1406 -2.5459  0.9592
  333MOL0     H44939   2.252   1.470  10.781 -0.2535  0.4261 -0.5568
  333MOL0     H44940   2.069   1.329  10.692  2.8138  0.3488 -0.3754
  333MOL0     H44941   1.538   1.175  10.792  1.7232  0.2183  1.6768
  333MOL0     H44942   1.396   0.993  10.739  0.5370 -1.5419  2.3475
  333MOL0     H44943   1.540   0.644  10.699 -1.1622  1.7701  0.9752
  333MOL0     H44944   1.594   0.648  10.533  0.1784 -1.0701 -0.8781
  333MOL0     H44945   1.425   0.474  10.580  2.7040  0.9186  1.5635
  333MOL0     H44946   1.366   0.587  10.453 -0.5307  0.8231  0.5204
  333MOL0     H44947   1.237   0.706  10.596  0.1670 -0.0023 -0.8390
  333MOL0     H44948   1.293   0.615  10.742 -0.2856 -2.4428 -0.6938
  333MOL0     H44949   1.101   0.494  10.536  1.2754  1.8003 -2.8010
  333MOL0     H44950   1.155   0.433  10.701  0.1286  1.0782  0.0660
  333MOL0     H44951   0.904   0.732  10.852  0.7165  0.9735 -0.0085
  333MOL0     H44952   1.715   0.821  10.509 -1.7798  0.0100 -1.2085
  333MOL0     H44953   1.944   1.057  10.504  0.1336  2.3508  2.5571
  333MOL0     H44954   1.987   0.999  10.673  3.8384 -0.4137 -0.9365
  333MOL0     H44955   1.930   0.879  10.557 -1.6806  0.2284  0.4432
  334MOL0     O44956  10.022   6.899   0.119  0.1367  0.4992 -0.1528
  334MOL0     C44957   9.993   6.914   0.235 -0.1206  0.6706  0.2692
  334MOL0     O44958  10.079   6.937   0.337 -0.3267 -0.1417  0.2275
  334MOL0     C44959  10.209   6.957   0.308 -0.8355  0.8301  0.6547
  334MOL0     C44960  10.263   7.084   0.276 -0.0496  0.0974 -0.1373
  334MOL0     C44961  10.406   7.096   0.262 -0.3610  0.2042 -0.4059
  334MOL0     C44962  10.488   6.979   0.278  0.0358 -0.2818  0.1216
  334MOL0     O44963  10.626   6.988   0.258 -0.1012  0.2043  0.6028
  334MOL0     C44964  10.712   6.877   0.239  0.4453 -0.7759 -0.5535
  334MOL0     C44965  10.861   6.918   0.254  0.2289 -0.1151 -0.8456
  334MOL0     C44966  10.917   7.000   0.134  0.1156  0.3136  0.1545
  334MOL0     C44967  11.067   7.037   0.162  0.0637  0.1219 -0.4591
  334MOL0     C44968  11.123   7.133   0.047 -0.7595  0.6216 -0.4953
  334MOL0     C44969  11.122   7.076  -0.094 -0.1051 -0.8891 -0.0961
  334MOL0     C44970  11.208   7.177  -0.175  0.7474  0.0527  0.9777
  334MOL0     C44971  11.361   7.148  -0.172  0.2893  0.5177  0.1189
  334MOL0     N44972  11.436   7.267  -0.208  0.3380  0.3695 -0.2416
  334MOL0     C44973  11.448   7.379  -0.122  0.1791 -0.1348 -0.9085
  334MOL0     C44974  11.525   7.462  -0.196 -0.1203  0.7848 -0.3633
  334MOL0     C44975  11.554   7.610  -0.182 -0.7671 -0.5691 -0.4450
  334MOL0     C44976  11.433   7.708  -0.172 -0.2722 -1.0352  0.4757
  334MOL0     C44977  11.345   7.726  -0.295  0.1378 -0.2314  0.7535
  334MOL0     C44978  11.235   7.623  -0.337 -0.1458 -0.3209  0.1508
  334MOL0     O44979  11.131   7.621  -0.240  0.7488  0.3441 -0.1570
  334MOL0     C44980  11.036   7.515  -0.241  0.6735 -1.1530 -0.3485
  334MOL0     C44981  10.931   7.515  -0.141  0.8945 -0.8226 -0.1555
  334MOL0     C44982  10.827   7.422  -0.141  0.3483  0.3626  0.1186
  334MOL0     C44983  10.836   7.314  -0.233 -0.2156  0.2143  0.4366
  334MOL0     C44984  10.754   7.196  -0.215 -0.2456 -0.8188 -1.6866
  334MOL0     O44985  10.623   7.214  -0.178 -0.4984 -0.2444 -0.8875
  334MOL0     C44986  10.520   7.131  -0.219  0.2705 -0.7802 -0.4398
  334MOL0     C44987  10.484   7.104  -0.350  0.3939  0.2517  0.7572
  334MOL0     C44988  10.373   7.027  -0.378  0.5953 -0.1416  0.1203
  334MOL0     C44989  10.279   6.994  -0.282 -0.9561  0.0733 -0.4319
  334MOL0     O44990  10.159   6.948  -0.315 -0.5795 -0.5483 -0.4605
  334MOL0     C44991  10.053   7.018  -0.251  0.4686 -0.3597  0.4704
  334MOL0     C44992   9.966   7.049  -0.379 -0.4018 -0.2695  0.0290
  334MOL0     C44993   9.815   7.067  -0.338  1.0936 -0.3369 -0.3022
  334MOL0     C44994   9.744   6.936  -0.329 -0.2247  0.3537 -0.5502
  334MOL0     C44995   9.601   6.953  -0.283  0.4899 -0.0885  0.9308
  334MOL0     C44996   9.531   6.819  -0.249  0.0857  0.0443  0.6542
  334MOL0     C44997   9.415   6.839  -0.154  0.7019 -0.5342 -1.4157
  334MOL0     C44998   9.318   6.939  -0.205  0.5967 -0.2016  0.4915
  334MOL0    Cl44999   9.171   6.962  -0.116  0.0018  0.1579  0.1370
  334MOL0     C45000  10.317   7.012  -0.152 -1.3800  0.0653 -0.3191
  334MOL0     C45001  10.440   7.078  -0.118  0.8367 -0.7210  0.1801
  334MOL0     O45002  10.805   7.090  -0.256 -0.4595  0.2641  0.0246
  334MOL0     C45003  10.925   7.313  -0.335  0.6583  0.9989 -0.3736
  334MOL0     C45004  11.020   7.425  -0.343 -0.7646  1.0102  0.2005
  334MOL0     N45005  11.562   7.399  -0.309 -0.2395  0.2236 -0.1290
  334MOL0     N45006  11.508   7.283  -0.326  0.5357  0.7520  0.3548
  334MOL0     C45007  10.424   6.864   0.317  0.7456  0.8449 -0.2116
  334MOL0     C45008  10.283   6.848   0.321 -0.3567  0.5247  1.5549
  334MOL0     C45009   9.852   6.906   0.283  1.1782  0.5178 -0.5301
  334MOL0     C45010   9.833   6.920   0.425 -0.6009 -0.2063  0.7595
  334MOL0     C45011   9.702   6.922   0.473  0.4422  0.5385 -1.2393
  334MOL0     C45012   9.585   6.917   0.394  0.5406  0.0106 -0.5152
  334MOL0     O45013   9.456   6.940   0.439  0.0500  0.7467 -0.3088
  334MOL0     C45014   9.419   6.891   0.567 -0.4748 -0.0965 -0.7013
  334MOL0     C45015   9.276   6.950   0.581 -0.0768  0.3419  0.6895
  334MOL0     C45016   9.226   6.934   0.725  0.2126 -0.3191  0.5744
  334MOL0     C45017   9.083   6.994   0.744 -0.1781  0.1404  0.0549
  334MOL0     C45018   9.024   6.969   0.875  0.1129  0.1914 -0.3079
  334MOL0     C45019   8.971   6.954   0.981 -0.1293 -0.0850 -0.4867
  334MOL0     C45020   9.606   6.886   0.259 -0.4246  0.0327 -0.4737
  334MOL0     C45021   9.740   6.879   0.204  0.5378  0.6986  0.3145
  334MOL0     C45022   9.753   6.833   0.060  0.4836  0.6973  0.0903
  334MOL0     H45023  10.199   7.167   0.250 -1.0401  0.2199  2.3913
  334MOL0     H45024  10.452   7.191   0.236 -0.6600  1.0230  1.8356
  334MOL0     H45025  10.697   6.789   0.302  0.7766  0.2387  0.9852
  334MOL0     H45026  10.704   6.837   0.137  0.1426 -4.0646  0.6500
  334MOL0     H45027  10.917   6.826   0.274  3.0586  1.5401 -0.6207
  334MOL0     H45028  10.882   6.990   0.334 -0.6493 -0.5168 -0.2340
  334MOL0     H45029  10.864   7.094   0.120  0.3739  0.1092 -2.8649
  334MOL0     H45030  10.918   6.943   0.041  0.5518 -1.4849  1.2127
  334MOL0     H45031  11.074   7.102   0.249 -2.0223  2.2787 -1.7784
  334MOL0     H45032  11.126   6.947   0.178 -0.2268 -0.2915 -1.5771
  334MOL0     H45033  11.051   7.215   0.048 -0.3011  1.0301 -0.0689
  334MOL0     H45034  11.215   7.185   0.078 -2.1216  1.6386  2.1555
  334MOL0     H45035  11.170   6.978  -0.098  0.3490 -0.6305 -1.1212
  334MOL0     H45036  11.021   7.076  -0.137  0.8284  2.3819 -2.7266
  334MOL0     H45037  11.186   7.282  -0.155  0.6061  0.3219 -0.4772
  334MOL0     H45038  11.184   7.164  -0.281  0.7304 -0.1514  1.0068
  334MOL0     H45039  11.396   7.117  -0.073  0.2091  0.1920  0.0479
  334MOL0     H45040  11.382   7.063  -0.237  2.4809  0.9158  0.2117
  334MOL0     H45041  11.397   7.407  -0.031  0.1750  1.8161 -1.4734
  334MOL0     H45042  11.605   7.631  -0.088  0.1264  1.4747 -1.3301
  334MOL0     H45043  11.624   7.641  -0.261  0.4914 -0.0581  0.8252
  334MOL0     H45044  11.371   7.690  -0.083  2.6829 -0.4301  2.8318
  334MOL0     H45045  11.480   7.807  -0.163  2.9602 -2.2054 -1.8470
  334MOL0     H45046  11.410   7.746  -0.380  1.3602 -1.7193  1.2881
  334MOL0     H45047  11.298   7.824  -0.280  2.1178  0.5676  2.0544
  334MOL0     H45048  11.285   7.525  -0.337  1.2274  0.3385  1.3907
  334MOL0     H45049  11.190   7.647  -0.433 -0.7871  0.0600  0.5446
  334MOL0     H45050  10.920   7.593  -0.066 -2.6223 -3.2455  2.1473
  334MOL0     H45051  10.746   7.438  -0.071  1.6697  1.6445  1.4390
  334MOL0     H45052  10.562   7.136  -0.418  2.9765 -0.8541  2.9806
  334MOL0     H45053  10.352   6.984  -0.475  0.9013 -3.4844  1.4250
  334MOL0     H45054  10.002   6.953  -0.180  1.4045 -2.4339 -0.6741
  334MOL0     H45055  10.073   7.112  -0.199 -0.8404 -0.2314  0.7906
  334MOL0     H45056   9.999   7.146  -0.418 -3.3022  0.6211 -0.4075
  334MOL0     H45057   9.981   6.977  -0.459 -0.2278  0.9921 -1.1160
  334MOL0     H45058   9.806   7.123  -0.244 -0.2792  1.0117 -1.2039
  334MOL0     H45059   9.757   7.126  -0.409  1.2721  2.4633  1.7259
  334MOL0     H45060   9.791   6.862  -0.263 -1.5049 -0.9109 -1.0107
  334MOL0     H45061   9.721   6.899  -0.430 -3.7991  2.6578 -0.7387
  334MOL0     H45062   9.550   7.011  -0.360  3.4662  1.1582 -0.2522
  334MOL0     H45063   9.605   7.017  -0.194  1.3929  0.4540  0.5105
  334MOL0     H45064   9.501   6.785  -0.349  4.4306  4.0014 -2.4596
  334MOL0     H45065   9.597   6.746  -0.201 -1.0806 -1.9194 -0.5773
  334MOL0     H45066   9.440   6.881  -0.057 -1.5528  0.2380 -1.1174
  334MOL0     H45067   9.369   6.741  -0.137 -1.8710  0.7067 -0.8171
  334MOL0     H45068   9.357   7.039  -0.226  0.3652 -0.3780 -0.9294
  334MOL0     H45069   9.281   6.889  -0.295  1.6379 -0.0729 -0.0202
  334MOL0     H45070  10.254   6.960  -0.080  0.4586  0.4738  1.7044
  334MOL0     H45071  10.486   7.081  -0.020 -0.3870 -3.5514  0.9314
  334MOL0     H45072  10.916   7.236  -0.411 -3.2999 -3.6060  3.9793
  334MOL0     H45073  11.083   7.431  -0.431 -1.0031  0.2942 -0.0232
  334MOL0     H45074  10.493   6.783   0.335  0.7351  0.8593 -0.1059
  334MOL0     H45075  10.246   6.754   0.360 -2.1677  0.6062  0.1554
  334MOL0     H45076   9.922   6.924   0.485 -0.6389  3.5312  0.7576
  334MOL0     H45077   9.689   6.938   0.580  1.3142 -0.0637 -1.0265
  334MOL0     H45078   9.474   6.927   0.655  0.1721  0.1191 -1.1861
  334MOL0     H45079   9.432   6.783   0.576 -0.0321  0.0059 -0.0008
  334MOL0     H45080   9.210   6.891   0.518  2.2599 -0.8069 -0.8329
  334MOL0     H45081   9.264   7.054   0.550 -1.8783 -0.5567 -1.9285
  334MOL0     H45082   9.293   6.982   0.796  1.0005 -0.2170 -0.2219
  334MOL0     H45083   9.228   6.827   0.751 -0.5749 -0.7356 -0.9544
  334MOL0     H45084   9.087   7.103   0.731 -4.6195  0.6259  0.9408
  334MOL0     H45085   9.006   6.946   0.682 -1.0234  3.4426 -1.7002
  334MOL0     H45086   8.941   6.937   1.082 -1.1816  1.2753 -0.5302
  334MOL0     H45087   9.524   6.882   0.189 -0.5577  0.2358 -0.3297
  334MOL0     H45088   9.783   6.909  -0.013  2.4087  2.1149  2.1970
  334MOL0     H45089   9.833   6.759   0.065  0.6163  0.8861  0.9131
  334MOL0     H45090   9.666   6.776   0.027 -0.3042  1.8421  0.1086
  335MOL0     O45091   0.672   3.932   7.303 -0.5372  0.1020  0.4808
  335MOL0     C45092   0.680   3.919   7.429  0.8507 -0.1987  1.0141
  335MOL0     O45093   0.575   3.893   7.516  0.1124  0.2166 -0.2379
  335MOL0     C45094   0.450   3.897   7.465 -0.0250 -0.6260  1.0188
  335MOL0     C45095   0.408   3.826   7.349 -0.3277  0.5179 -0.8731
  335MOL0     C45096   0.279   3.851   7.306 -0.0021  0.3081  0.4417
  335MOL0     C45097   0.203   3.955   7.356 -0.6735  0.7042 -0.5288
  335MOL0     O45098   0.079   3.958   7.304  0.2484 -0.0189 -0.8921
  335MOL0     C45099  -0.021   4.034   7.375 -0.7650 -0.0280  0.6283
  335MOL0     C45100  -0.152   4.040   7.291  0.5133 -0.7043  0.2332
  335MOL0     C45101  -0.121   4.108   7.147  0.3696 -0.4944  0.0424
  335MOL0     C45102  -0.134   4.260   7.148  0.1470 -0.0146 -0.0426
  335MOL0     C45103  -0.097   4.318   7.015  0.5430 -0.4582  0.9130
  335MOL0     C45104  -0.115   4.472   7.024 -0.3445 -0.2419  0.1473
  335MOL0     C45105  -0.083   4.551   6.895  0.4263 -0.1577  0.1334
  335MOL0     C45106   0.056   4.533   6.850 -0.6254  1.2725 -0.1733
  335MOL0     N45107   0.162   4.594   6.943  0.4007  0.5107 -0.2438
  335MOL0     C45108   0.288   4.536   6.964 -0.0435 -0.9300  0.9988
  335MOL0     C45109   0.360   4.637   7.018 -0.6274 -0.6488  0.0882
  335MOL0     C45110   0.502   4.631   7.052 -0.7355  0.4551  0.0483
  335MOL0     C45111   0.598   4.629   6.931  0.1528 -0.0526  0.1074
  335MOL0     C45112   0.734   4.570   6.992 -0.7133  0.6754  0.3587
  335MOL0     C45113   0.861   4.578   6.902 -0.0793  0.7925 -0.2082
  335MOL0     O45114   0.965   4.514   6.967 -0.4755  0.6238 -0.8145
  335MOL0     C45115   1.094   4.525   6.917 -0.5118  0.4392  0.2062
  335MOL0     C45116   1.113   4.576   6.791 -0.6062  0.7091  0.3357
  335MOL0     C45117   1.247   4.610   6.752  0.1074 -0.0179 -0.2082
  335MOL0     C45118   1.350   4.572   6.838  0.3423 -0.2441  0.1751
  335MOL0     C45119   1.494   4.608   6.795 -0.2380  0.6875  0.1800
  335MOL0     O45120   1.595   4.565   6.874  0.2523  0.1594 -0.3611
  335MOL0     C45121   1.715   4.634   6.869  0.4727  0.2058 -0.0542
  335MOL0     C45122   1.722   4.764   6.918  0.6306  0.6959 -0.5558
  335MOL0     C45123   1.844   4.827   6.933  0.1326 -0.4717 -0.4212
  335MOL0     C45124   1.957   4.770   6.889  0.0362  0.8693 -0.0891
  335MOL0     O45125   2.069   4.848   6.892  0.1953 -0.4727 -0.1003
  335MOL0     C45126   2.076   4.906   6.758  0.6220  0.8207  0.6797
  335MOL0     C45127   2.193   5.003   6.753  0.0784  0.0322 -0.1973
  335MOL0     C45128   2.215   5.062   6.609 -1.1540  0.4021 -0.7891
  335MOL0     C45129   2.335   5.165   6.605  0.1928 -0.3453 -0.1399
  335MOL0     C45130   2.360   5.254   6.479  0.5364  0.0062  0.4066
  335MOL0     C45131   2.225   5.324   6.435  0.6073 -0.4080  0.0062
  335MOL0     C45132   2.244   5.425   6.317 -0.2234  0.4674 -0.8427
  335MOL0     C45133   2.345   5.536   6.324 -1.1312 -0.3390  0.8931
  335MOL0    Cl45134   2.301   5.636   6.459 -0.6041 -0.3179  0.5488
  335MOL0     C45135   1.950   4.639   6.836  0.5316 -0.3988 -0.6448
  335MOL0     C45136   1.833   4.567   6.837  0.4206 -0.6194  0.2948
  335MOL0     O45137   1.506   4.681   6.699 -1.5494  0.3583  0.3866
  335MOL0     C45138   1.323   4.508   6.963  0.2847 -0.0619  0.8703
  335MOL0     C45139   1.195   4.488   7.000 -0.1133 -0.1100 -0.0769
  335MOL0     N45140   0.283   4.751   7.025 -0.3032  0.6856  0.3629
  335MOL0     N45141   0.171   4.728   6.968  0.5406  0.3020 -0.7948
  335MOL0     C45142   0.257   4.027   7.467 -0.5189 -0.3580  0.0355
  335MOL0     C45143   0.377   4.001   7.517  0.2046 -0.3387  0.3233
  335MOL0     C45144   0.808   3.941   7.503  0.3689  0.1027 -0.2472
  335MOL0     C45145   0.799   3.996   7.633 -0.2505  0.2624 -0.4425
  335MOL0     C45146   0.916   4.032   7.704 -0.0353 -1.0676  0.4542
  335MOL0     C45147   1.050   4.016   7.651  0.4603 -0.3551 -1.4924
  335MOL0     O45148   1.166   4.058   7.716 -0.1299  0.2341 -1.0933
  335MOL0     C45149   1.152   4.124   7.840 -0.1556 -0.3542 -0.3016
  335MOL0     C45150   1.121   4.271   7.812  0.0330 -0.6429  0.3439
  335MOL0     C45151   1.161   4.363   7.919 -0.4577  0.3674 -0.6632
  335MOL0     C45152   1.068   4.484   7.927  0.3758 -0.3950 -0.7598
  335MOL0     C45153   0.942   4.463   8.007 -0.1221 -0.9063  0.0997
  335MOL0     C45154   0.834   4.443   8.048 -0.6512 -0.5199  0.0587
  335MOL0     C45155   1.058   3.957   7.522 -0.4055 -0.6780  0.1489
  335MOL0     C45156   0.941   3.915   7.453  0.1934 -0.3483 -0.0579
  335MOL0     C45157   0.959   3.829   7.328  0.1598 -0.7107  0.9242
  335MOL0     H45158   0.467   3.745   7.306 -2.6059 -0.3796 -2.5680
  335MOL0     H45159   0.236   3.793   7.225  1.6922 -1.4324  0.6886
  335MOL0     H45160  -0.041   3.994   7.474 -2.2300  1.0866  0.8116
  335MOL0     H45161   0.016   4.135   7.391 -0.4982  0.0785 -0.5277
  335MOL0     H45162  -0.229   4.090   7.350 -1.1570 -0.3798 -2.0898
  335MOL0     H45163  -0.175   3.935   7.271  2.8546 -1.5203  1.4252
  335MOL0     H45164  -0.180   4.072   7.062 -0.2334 -0.4135  0.4190
  335MOL0     H45165  -0.015   4.089   7.129  1.0178 -1.4293  3.8957
  335MOL0     H45166  -0.240   4.284   7.157  0.3489  1.0326 -0.2968
  335MOL0     H45167  -0.072   4.301   7.229 -1.7870 -1.3747  2.2585
  335MOL0     H45168   0.008   4.297   6.992  1.0499  2.0929  0.5730
  335MOL0     H45169  -0.163   4.279   6.938  2.2048 -0.3341 -0.6411
  335MOL0     H45170  -0.217   4.492   7.059  0.1273 -1.1241  2.1077
  335MOL0     H45171  -0.047   4.514   7.099 -0.9118  0.7377  0.1407
  335MOL0     H45172  -0.094   4.657   6.919  0.9557  1.1031 -4.1996
  335MOL0     H45173  -0.156   4.516   6.822  2.2356 -0.7442 -1.4845
  335MOL0     H45174   0.079   4.426   6.844 -1.5722  1.1111 -1.4770
  335MOL0     H45175   0.066   4.571   6.748 -0.6318  1.6712 -0.0256
  335MOL0     H45176   0.321   4.434   6.948  2.0008 -0.1203 -0.3538
  335MOL0     H45177   0.530   4.707   7.126  0.8905 -0.1283  0.0593
  335MOL0     H45178   0.520   4.533   7.095  1.7686  0.8012 -0.0874
  335MOL0     H45179   0.550   4.574   6.850  2.8870 -2.2220 -0.1947
  335MOL0     H45180   0.626   4.732   6.904  1.8442 -0.2324  0.9981
  335MOL0     H45181   0.728   4.463   7.011  2.6677  0.0100 -1.4610
  335MOL0     H45182   0.758   4.621   7.086  1.6546 -3.2025  2.0934
  335MOL0     H45183   0.878   4.683   6.879  2.3820  0.9133  1.7024
  335MOL0     H45184   0.836   4.519   6.813 -0.8033  2.0256 -0.8376
  335MOL0     H45185   1.028   4.604   6.730  0.8926  1.4758 -1.4909
  335MOL0     H45186   1.273   4.658   6.658 -2.7646 -0.0268 -1.1067
  335MOL0     H45187   1.634   4.816   6.955  1.2437  0.2751  1.6554
  335MOL0     H45188   1.837   4.928   6.973 -1.0970 -0.7382  0.0939
  335MOL0     H45189   2.094   4.826   6.685  0.5974  1.3966  0.0241
  335MOL0     H45190   1.981   4.949   6.725  0.0164 -1.4616 -0.8138
  335MOL0     H45191   2.158   5.073   6.829  0.5365  0.0536  0.0021
  335MOL0     H45192   2.282   4.953   6.795  1.1395  0.2587 -2.0732
  335MOL0     H45193   2.246   4.991   6.532  0.1784  2.9789 -2.7852
  335MOL0     H45194   2.119   5.104   6.578 -1.8074  0.0826  0.7190
  335MOL0     H45195   2.429   5.115   6.629  0.7228  0.9651  0.6108
  335MOL0     H45196   2.305   5.232   6.687 -1.0172 -0.0361 -0.8031
  335MOL0     H45197   2.378   5.195   6.389 -0.8864  0.1488  0.0115
  335MOL0     H45198   2.446   5.320   6.491 -1.1506  2.8909 -2.0772
  335MOL0     H45199   2.147   5.251   6.410  1.4886 -0.9906 -1.0993
  335MOL0     H45200   2.180   5.388   6.512 -0.5131  0.0937 -1.0147
  335MOL0     H45201   2.149   5.477   6.304  0.7141  2.5440  0.1744
  335MOL0     H45202   2.267   5.373   6.223  1.1878  0.1378 -0.3376
  335MOL0     H45203   2.445   5.493   6.333 -2.1562 -3.2181 -0.3309
  335MOL0     H45204   2.346   5.593   6.231 -0.8035 -0.5307  0.7767
  335MOL0     H45205   2.034   4.591   6.786  0.1197 -0.9777 -0.7902
  335MOL0     H45206   1.815   4.466   6.801  1.1663 -1.1073  1.2532
  335MOL0     H45207   1.413   4.488   7.021 -0.0192  1.4146  1.9106
  335MOL0     H45208   1.180   4.467   7.105  4.1923 -1.1546  0.5126
  335MOL0     H45209   0.195   4.105   7.508  0.4698 -0.8201  2.5827
  335MOL0     H45210   0.418   4.058   7.600 -2.1082  0.8339  0.7544
  335MOL0     H45211   0.706   4.016   7.686 -0.6507  1.6606 -1.5920
  335MOL0     H45212   0.906   4.088   7.796  0.6086  0.7403 -0.5322
  335MOL0     H45213   1.244   4.106   7.896 -0.4187  0.1725  0.3106
  335MOL0     H45214   1.075   4.075   7.901 -0.6371  1.5848  0.7080
  335MOL0     H45215   1.015   4.275   7.786 -0.5091 -2.2185  2.1598
  335MOL0     H45216   1.190   4.294   7.729  3.4009 -1.3321  2.7348
  335MOL0     H45217   1.261   4.402   7.897  1.1448 -2.7196  0.5735
  335MOL0     H45218   1.162   4.313   8.016 -2.2983  2.1217  0.3512
  335MOL0     H45219   1.118   4.567   7.977 -0.5692  0.0664 -0.5586
  335MOL0     H45220   1.060   4.524   7.826  0.9703  0.7387 -0.3728
  335MOL0     H45221   0.737   4.429   8.092 -0.6917 -0.7664 -0.1050
  335MOL0     H45222   1.158   3.946   7.482  1.1234  1.2924  3.0920
  335MOL0     H45223   1.067   3.814   7.316  0.3804 -0.5779  2.5376
  335MOL0     H45224   0.909   3.734   7.349 -0.7847 -0.5204 -0.3545
  335MOL0     H45225   0.911   3.871   7.239  1.2097  0.9091  1.0983
  336MOL0     O45226   9.805   9.643   9.100 -0.4975 -0.5790 -0.1133
  336MOL0     C45227   9.875   9.726   9.048 -0.6068  0.2391  0.4105
  336MOL0     O45228   9.988   9.788   9.100 -0.2610 -0.3395 -0.1023
  336MOL0     C45229  10.063   9.730   9.191 -0.4509  0.1152  1.0553
  336MOL0     C45230  10.153   9.817   9.252  1.2048  0.5898 -0.2873
  336MOL0     C45231  10.221   9.774   9.368 -0.1165 -0.7344  0.0313
  336MOL0     C45232  10.221   9.645   9.411 -0.2131 -0.4278  0.1512
  336MOL0     O45233  10.293   9.594   9.520  0.0267  0.0039  0.1014
  336MOL0     C45234  10.392   9.677   9.576  1.0606  0.7484 -0.1777
  336MOL0     C45235  10.472   9.602   9.684  0.9455  0.7398 -0.1483
  336MOL0     C45236  10.535   9.706   9.776  0.1645  0.0600 -0.1156
  336MOL0     C45237  10.603   9.638   9.893  0.4252 -0.0145 -1.0267
  336MOL0     C45238  10.662   9.738   9.997 -0.2614  0.5350 -0.3989
  336MOL0     C45239  10.717   9.672  10.119 -0.7170 -0.0980  0.4507
  336MOL0     C45240  10.802   9.768  10.215  0.1367  0.3276 -0.3071
  336MOL0     C45241  10.911   9.861  10.154  0.2926  0.0284 -0.5598
  336MOL0     N45242  11.021   9.781  10.100 -0.2155 -0.6087 -0.5520
  336MOL0     C45243  11.021   9.717   9.977 -0.2494 -0.1540  0.6923
  336MOL0     C45244  11.137   9.643   9.980  0.0559  1.5159  0.3045
  336MOL0     C45245  11.202   9.571   9.861  0.1820  0.6159  0.9885
  336MOL0     C45246  11.347   9.629   9.842  0.1667  0.2820  0.0659
  336MOL0     C45247  11.456   9.523   9.872  0.3503  0.2401  1.1970
  336MOL0     C45248  11.588   9.584   9.845  0.2985 -0.2434 -0.0827
  336MOL0     O45249  11.682   9.520   9.923  0.4581 -0.4398 -0.8917
  336MOL0     C45250  11.818   9.546   9.901  0.8251 -0.4377  1.0063
  336MOL0     C45251  11.864   9.648   9.822 -0.3549 -0.6149  0.1452
  336MOL0     C45252  12.004   9.678   9.816 -0.0710 -0.0965 -0.2552
  336MOL0     C45253  12.093   9.599   9.883 -0.5251  0.0251 -0.5328
  336MOL0     C45254  12.239   9.634   9.891  0.9435  0.1619 -0.3441
  336MOL0     O45255  12.285   9.746   9.819 -1.2785 -0.9853 -0.1724
  336MOL0     C45256  12.418   9.783   9.806  0.6209  0.3082 -0.1196
  336MOL0     C45257  12.458   9.867   9.704 -0.1023 -0.2373  0.1348
  336MOL0     C45258  12.586   9.917   9.692 -0.7056  0.0696  0.5673
  336MOL0     C45259  12.681   9.886   9.792 -0.3823 -0.1817  0.7121
  336MOL0     O45260  12.811   9.938   9.781  0.8978  0.2557  0.3098
  336MOL0     C45261  12.913   9.872   9.862 -0.3684 -0.3522 -0.3348
  336MOL0     C45262  13.048   9.913   9.804 -0.1825  0.2868 -0.0519
  336MOL0     C45263  13.087  10.057   9.839  1.0214  0.8364 -0.1042
  336MOL0     C45264  13.241  10.074   9.831  0.4782  0.2333 -1.0133
  336MOL0     C45265  13.285  10.223   9.863  0.4636  0.4787 -0.3092
  336MOL0     C45266  13.432  10.247   9.826 -0.5586 -0.0740 -0.3126
  336MOL0     C45267  13.470  10.393   9.815 -0.0437  0.1363 -0.2139
  336MOL0     C45268  13.386  10.474   9.717  0.2477  0.0505 -0.2096
  336MOL0    Cl45269  13.277  10.577   9.812  0.0715  0.3146  0.5795
  336MOL0     C45270  12.643   9.816   9.906  0.0823  1.5670 -0.9127
  336MOL0     C45271  12.509   9.757   9.907 -1.1993  0.4142  0.1926
  336MOL0     O45272  12.303   9.568   9.969 -0.1506 -0.3730  0.3610
  336MOL0     C45273  12.038   9.487   9.951 -0.2215 -0.4541  1.0414
  336MOL0     C45274  11.904   9.458   9.961 -0.2555 -0.1268  0.1611
  336MOL0     N45275  11.188   9.647  10.106 -0.0283 -0.4181  0.5911
  336MOL0     N45276  11.121   9.731  10.177 -0.5974  0.1966  0.7621
  336MOL0     C45277  10.136   9.557   9.345  0.2145 -0.4191  0.7239
  336MOL0     C45278  10.064   9.599   9.230  0.0605  0.2014  0.1612
  336MOL0     C45279   9.838   9.779   8.909 -0.5378  0.7699  0.8276
  336MOL0     C45280   9.932   9.854   8.834 -0.4520 -0.0794 -0.1346
  336MOL0     C45281   9.914   9.900   8.704 -0.5094  0.0959 -0.6019
  336MOL0     C45282   9.794   9.877   8.638 -0.3545 -0.2526 -1.1255
  336MOL0     O45283   9.769   9.907   8.513  0.0516 -0.4992  0.4318
  336MOL0     C45284   9.824  10.030   8.464 -0.1994  0.1889  0.1597
  336MOL0     C45285   9.935   9.999   8.357  0.0641  0.5347  0.2497
  336MOL0     C45286   9.898   9.879   8.263 -0.1238  0.4475  0.2003
  336MOL0     C45287   9.948   9.743   8.322 -0.4380 -0.4882  0.7106
  336MOL0     C45288   9.925   9.632   8.214 -0.0276  0.0092 -0.0186
  336MOL0     C45289   9.885   9.547   8.139 -0.2774  0.8746 -0.3563
  336MOL0     C45290   9.692   9.804   8.703  0.1512  0.5344  1.0383
  336MOL0     C45291   9.713   9.754   8.830  0.2271  0.3186 -0.2449
  336MOL0     C45292   9.594   9.667   8.875 -0.1724 -0.0371 -0.0009
  336MOL0     H45293  10.154   9.917   9.211 -4.4048  0.4823 -1.5344
  336MOL0     H45294  10.282   9.851   9.414 -1.9745  0.3285  0.8108
  336MOL0     H45295  10.458   9.714   9.496  0.9142 -0.3210 -0.8189
  336MOL0     H45296  10.341   9.761   9.624  2.3413  0.9174  0.9412
  336MOL0     H45297  10.541   9.539   9.628  0.9963  0.6715 -0.0099
  336MOL0     H45298  10.397   9.535   9.726 -0.0687  2.3177  0.6770
  336MOL0     H45299  10.461   9.781   9.801 -0.6970  0.3552 -3.1826
  336MOL0     H45300  10.601   9.770   9.717 -1.4236 -0.4131 -2.5181
  336MOL0     H45301  10.528   9.581   9.948 -1.4451 -0.2389 -3.6670
  336MOL0     H45302  10.672   9.560   9.859  2.2927 -0.2643  2.7161
  336MOL0     H45303  10.745   9.776   9.937  0.7250  1.4731  1.4914
  336MOL0     H45304  10.593   9.819  10.023  1.6133  1.4661  2.0559
  336MOL0     H45305  10.636   9.634  10.182 -0.9660  1.1989  0.9528
  336MOL0     H45306  10.774   9.583  10.093 -1.4688  0.2807 -2.8593
  336MOL0     H45307  10.847   9.714  10.298 -1.7757 -2.4867 -0.9565
  336MOL0     H45308  10.724   9.827  10.264  0.5137 -0.4573  1.3018
  336MOL0     H45309  10.871   9.915  10.068 -2.4888 -0.0066  0.5892
  336MOL0     H45310  10.936   9.942  10.223  0.0576  0.0242 -0.4639
  336MOL0     H45311  10.963   9.751   9.892 -0.6813  2.2770  1.8736
  336MOL0     H45312  11.200   9.465   9.888  0.4437 -0.7135 -3.5283
  336MOL0     H45313  11.144   9.592   9.771 -0.2730 -3.5316  0.0836
  336MOL0     H45314  11.356   9.639   9.734  1.2580 -3.6733 -0.3774
  336MOL0     H45315  11.368   9.722   9.896  3.3253  0.6135 -1.4964
  336MOL0     H45316  11.447   9.435   9.807  1.0859  0.2913  1.0104
  336MOL0     H45317  11.445   9.492   9.976 -0.3221  2.1797  1.7614
  336MOL0     H45318  11.588   9.693   9.857  2.9703 -0.0999 -0.7907
  336MOL0     H45319  11.612   9.567   9.739 -2.0948 -1.3761 -0.5166
  336MOL0     H45320  11.794   9.707   9.764 -0.8710 -1.3155  0.0331
  336MOL0     H45321  12.035   9.763   9.755 -1.8038 -0.5704 -1.8934
  336MOL0     H45322  12.378   9.902   9.640 -0.4320  2.6086  1.9140
  336MOL0     H45323  12.619   9.967   9.602 -0.6045  0.6024  0.8955
  336MOL0     H45324  12.916   9.905   9.967  3.7596  1.0523 -0.6983
  336MOL0     H45325  12.906   9.763   9.860  5.1018 -0.9710 -1.5708
  336MOL0     H45326  13.129   9.851   9.842 -1.1114 -0.5242  0.6783
  336MOL0     H45327  13.037   9.910   9.695 -1.7877 -0.2605  0.0958
  336MOL0     H45328  13.035  10.133   9.779  1.0937  0.4363 -0.6868
  336MOL0     H45329  13.050  10.083   9.938 -1.2446 -0.8741 -0.4450
  336MOL0     H45330  13.267  10.064   9.725  1.5200  0.6378 -0.8034
  336MOL0     H45331  13.296  10.000   9.889  1.4706  0.8090 -1.1974
  336MOL0     H45332  13.284  10.243   9.970 -1.7533  1.2598 -0.4219
  336MOL0     H45333  13.209  10.289   9.821  0.8101  1.4985  0.6094
  336MOL0     H45334  13.489  10.185   9.895 -2.2072 -1.7071 -0.3410
  336MOL0     H45335  13.443  10.199   9.728 -0.6334 -1.5589  0.3796
  336MOL0     H45336  13.578  10.399   9.802  0.0500 -2.5959 -1.5364
  336MOL0     H45337  13.443  10.433   9.913  0.5510 -2.1849  0.9716
  336MOL0     H45338  13.443  10.536   9.647  2.5467 -0.2682  1.2761
  336MOL0     H45339  13.326  10.403   9.659  0.7743 -1.1888  0.7177
  336MOL0     H45340  12.713   9.795   9.985  1.2807  1.1731 -2.0380
  336MOL0     H45341  12.496   9.690   9.991 -0.6092 -1.6587 -1.3010
  336MOL0     H45342  12.101   9.414  10.000  0.1377 -1.5469 -0.9708
  336MOL0     H45343  11.865   9.381  10.027 -1.4596  0.0353 -0.3355
  336MOL0     H45344  10.129   9.456   9.384  2.5101 -1.3684 -1.0954
  336MOL0     H45345   9.996   9.528   9.184  0.5191  0.7695 -1.4612
  336MOL0     H45346  10.026   9.869   8.885 -1.6145  2.9856  1.3957
  336MOL0     H45347   9.994   9.963   8.667  0.9184  0.5027  2.8488
  336MOL0     H45348   9.856  10.102   8.539  0.7416 -1.9181  1.8868
  336MOL0     H45349   9.749  10.066   8.392  1.8191  1.4058 -1.4647
  336MOL0     H45350  10.023   9.967   8.413 -0.2750 -0.6741  0.1208
  336MOL0     H45351   9.963  10.095   8.312  2.3538  0.6051  1.6851
  336MOL0     H45352   9.941   9.894   8.163 -1.3868 -0.1495 -0.4452
  336MOL0     H45353   9.792   9.862   8.246 -0.0753  2.4716 -2.9709
  336MOL0     H45354  10.056   9.752   8.334 -0.0060 -1.3914 -1.8528
  336MOL0     H45355   9.918   9.719   8.424  1.9663 -0.8465  1.3952
  336MOL0     H45356   9.832   9.476   8.079  1.5048 -0.1298 -0.8082
  336MOL0     H45357   9.599   9.786   8.650  1.3635 -0.8268 -0.7499
  336MOL0     H45358   9.631   9.565   8.882  0.7816  0.3297  0.3856
  336MOL0     H45359   9.556   9.695   8.975  0.7357 -0.5617  0.4981
  336MOL0     H45360   9.509   9.664   8.807 -0.1031  0.2446 -0.1036
  337MOL0     O45361   1.214   0.114   4.071  0.9420  0.5902  0.3461
  337MOL0     C45362   1.166   0.128   3.958 -0.6688 -0.1736  0.2191
  337MOL0     O45363   1.109   0.034   3.881  0.6035  0.4807 -0.0187
  337MOL0     C45364   1.124  -0.101   3.913 -1.3456  0.3711 -0.8217
  337MOL0     C45365   1.016  -0.189   3.892  0.0060  0.2468  0.1272
  337MOL0     C45366   1.037  -0.326   3.912 -0.1745 -0.6597  0.4859
  337MOL0     C45367   1.156  -0.385   3.959 -0.1709 -0.3423 -0.0687
  337MOL0     O45368   1.181  -0.521   3.992 -0.2683 -0.3154  0.8824
  337MOL0     C45369   1.060  -0.581   4.041 -1.7310 -0.6746 -0.4351
  337MOL0     C45370   1.089  -0.728   4.078 -0.2548  0.8469  0.1004
  337MOL0     C45371   0.968  -0.792   4.138 -0.7559 -0.3460  0.5538
  337MOL0     C45372   1.007  -0.928   4.186 -0.1738  0.3544 -0.2053
  337MOL0     C45373   0.894  -1.027   4.168 -0.0614 -0.0209 -0.5269
  337MOL0     C45374   0.932  -1.177   4.186 -0.4041 -0.7202 -0.2436
  337MOL0     C45375   0.989  -1.203   4.327  0.8953 -0.4768  0.0035
  337MOL0     C45376   1.037  -1.350   4.321 -0.4527  0.1776  0.3709
  337MOL0     N45377   1.043  -1.418   4.444  1.2094  0.3610  0.1308
  337MOL0     C45378   1.096  -1.376   4.563 -0.1836 -0.3840  0.2539
  337MOL0     C45379   1.029  -1.445   4.657 -0.5976  0.1591 -0.0130
  337MOL0     C45380   1.055  -1.454   4.807  0.3094 -0.1020 -1.2899
  337MOL0     C45381   1.016  -1.576   4.870  0.1451 -0.1043 -0.6589
  337MOL0     C45382   0.989  -1.569   5.025  0.8701 -0.1833  0.0459
  337MOL0     C45383   1.119  -1.556   5.111  0.7533  0.9158  0.0497
  337MOL0     O45384   1.173  -1.427   5.085 -0.3712 -0.3922  0.1794
  337MOL0     C45385   1.270  -1.380   5.171 -0.5354 -0.4346 -0.1259
  337MOL0     C45386   1.272  -1.391   5.314  0.1325 -0.0506  0.2717
  337MOL0     C45387   1.372  -1.325   5.389  0.2704  0.1692  0.9265
  337MOL0     C45388   1.482  -1.263   5.326 -0.6734  0.4416 -1.1244
  337MOL0     C45389   1.595  -1.208   5.406 -0.4488 -1.0615 -0.6941
  337MOL0     O45390   1.677  -1.112   5.341  0.3916 -0.8427 -1.0761
  337MOL0     C45391   1.770  -1.056   5.428 -0.6083  0.2029  0.4530
  337MOL0     C45392   1.867  -1.130   5.486 -0.9666 -0.7645  0.8419
  337MOL0     C45393   1.970  -1.064   5.567  0.3652  0.0496 -0.6185
  337MOL0     C45394   1.977  -0.928   5.570 -0.2211 -0.9776  0.8675
  337MOL0     O45395   2.072  -0.858   5.630 -0.2069  0.1074  0.0764
  337MOL0     C45396   2.175  -0.937   5.699 -0.0695  0.3616  0.3050
  337MOL0     C45397   2.282  -0.846   5.760  0.1241 -0.6310  0.3233
  337MOL0     C45398   2.234  -0.782   5.887 -0.0293 -0.8122  0.1813
  337MOL0     C45399   2.336  -0.693   5.946 -0.2327 -0.0485  0.5731
  337MOL0     C45400   2.479  -0.750   5.998 -0.0312  0.0086  0.0718
  337MOL0     C45401   2.562  -0.632   6.062 -0.4636  0.2252  0.4037
  337MOL0     C45402   2.514  -0.603   6.212  0.2447  0.3167  0.3918
  337MOL0     C45403   2.590  -0.479   6.272 -0.5966  0.9575  1.8195
  337MOL0    Cl45404   2.506  -0.456   6.435  0.0203 -0.4118 -0.2095
  337MOL0     C45405   1.870  -0.857   5.514 -0.2617  0.2185 -0.5385
  337MOL0     C45406   1.769  -0.921   5.459  0.7667 -0.2227  0.9381
  337MOL0     O45407   1.612  -1.244   5.526 -0.6927  0.0698 -0.2110
  337MOL0     C45408   1.475  -1.240   5.190  0.5122  0.7099 -0.2508
  337MOL0     C45409   1.366  -1.295   5.115 -0.7440 -0.1267 -0.7064
  337MOL0     N45410   0.952  -1.536   4.590  0.1628 -0.2032  0.6304
  337MOL0     N45411   0.946  -1.501   4.469  0.0924  0.1706  0.4300
  337MOL0     C45412   1.259  -0.297   4.003 -0.2182 -0.1122 -0.3748
  337MOL0     C45413   1.240  -0.162   3.978  0.6754 -1.0370  0.3145
  337MOL0     C45414   1.177   0.260   3.901 -0.0258 -0.3362 -0.4447
  337MOL0     C45415   1.116   0.288   3.768  0.4287  0.4658 -0.0478
  337MOL0     C45416   1.111   0.416   3.717  0.2718 -0.9487 -0.1616
  337MOL0     C45417   1.179   0.521   3.787  0.3442 -0.8693  0.6125
  337MOL0     O45418   1.181   0.650   3.739  0.0844 -1.2224  0.3922
  337MOL0     C45419   1.048   0.703   3.750  0.1631 -0.4134 -1.0965
  337MOL0     C45420   1.061   0.851   3.796  0.6158  0.5110 -0.0641
  337MOL0     C45421   0.944   0.934   3.740 -0.0130 -0.3273 -0.1806
  337MOL0     C45422   0.931   0.936   3.580 -0.8544 -0.1984  0.2301
  337MOL0     C45423   1.036   1.018   3.520 -0.0500 -0.1782 -0.6611
  337MOL0     C45424   1.116   1.087   3.463  0.3895 -0.6569 -1.2645
  337MOL0     C45425   1.235   0.495   3.901  0.3201  0.2722 -0.4525
  337MOL0     C45426   1.233   0.372   3.967  0.2395  0.2030 -0.2388
  337MOL0     C45427   1.269   0.378   4.107  0.0197  0.1558  0.1787
  337MOL0     H45428   0.917  -0.158   3.858 -1.9168 -2.3963  2.7523
  337MOL0     H45429   0.952  -0.387   3.881 -0.5534  0.6973 -1.3112
  337MOL0     H45430   1.034  -0.525   4.132 -1.5336 -2.5383  0.8113
  337MOL0     H45431   0.981  -0.581   3.965 -1.0896  0.0454 -1.1167
  337MOL0     H45432   1.174  -0.737   4.146  0.4462  1.2494 -0.6960
  337MOL0     H45433   1.109  -0.788   3.989  2.3017  2.9855 -0.8867
  337MOL0     H45434   0.903  -0.801   4.050 -1.0851  0.9825  0.6489
  337MOL0     H45435   0.919  -0.730   4.213  0.2574  1.4426 -0.2125
  337MOL0     H45436   1.097  -0.950   4.127  1.2427  0.2013  1.9010
  337MOL0     H45437   1.049  -0.919   4.287  1.5634 -2.3873 -0.5977
  337MOL0     H45438   0.825  -0.992   4.245 -0.9617 -2.5172 -0.1425
  337MOL0     H45439   0.843  -1.000   4.075 -1.6995  0.6914  0.5374
  337MOL0     H45440   0.851  -1.247   4.163 -0.5474 -1.8154  3.1246
  337MOL0     H45441   1.005  -1.206   4.110 -1.5716 -0.3953 -1.5293
  337MOL0     H45442   0.909  -1.195   4.402 -1.8670 -2.7029 -2.4298
  337MOL0     H45443   1.073  -1.138   4.353  0.2786 -0.0318  0.9578
  337MOL0     H45444   0.993  -1.413   4.243  2.7894 -1.0310 -0.6759
  337MOL0     H45445   1.140  -1.344   4.284 -0.2049 -1.4309  0.7175
  337MOL0     H45446   1.172  -1.300   4.578 -1.5324  0.3014  4.9809
  337MOL0     H45447   1.164  -1.446   4.819  0.3799 -2.6202  0.6126
  337MOL0     H45448   0.997  -1.376   4.858 -0.7610 -2.2645  1.0156
  337MOL0     H45449   0.929  -1.620   4.820 -1.0013  2.0963 -0.7273
  337MOL0     H45450   1.092  -1.653   4.853 -0.9923 -1.8090  1.4978
  337MOL0     H45451   0.944  -1.663   5.058  2.5079 -1.6062 -1.5736
  337MOL0     H45452   0.917  -1.489   5.041  0.4115 -0.1456 -1.9495
  337MOL0     H45453   1.185  -1.637   5.078 -0.6329  1.1753 -3.8136
  337MOL0     H45454   1.092  -1.571   5.216  1.5999 -0.2224  0.1260
  337MOL0     H45455   1.193  -1.437   5.372  1.4429 -0.5392  1.7427
  337MOL0     H45456   1.365  -1.338   5.496 -1.2734  0.9185  0.9350
  337MOL0     H45457   1.870  -1.238   5.487 -1.2494 -0.7842  2.2944
  337MOL0     H45458   2.040  -1.132   5.615 -1.3223  0.5475  2.8909
  337MOL0     H45459   2.142  -0.996   5.785 -3.4241 -1.2444 -1.8961
  337MOL0     H45460   2.220  -0.998   5.621 -1.5470 -0.1729 -0.1522
  337MOL0     H45461   2.376  -0.895   5.786  0.2023  0.3447  2.0650
  337MOL0     H45462   2.300  -0.771   5.682 -0.8094 -0.0355  0.6543
  337MOL0     H45463   2.144  -0.727   5.857 -0.5885 -2.3713 -1.1851
  337MOL0     H45464   2.201  -0.858   5.959 -0.9450  0.2635  0.9222
  337MOL0     H45465   2.275  -0.649   6.026 -0.8856 -1.7996  1.0842
  337MOL0     H45466   2.364  -0.613   5.877  2.1641 -1.9137 -0.7607
  337MOL0     H45467   2.524  -0.792   5.908  0.3299 -0.6640  0.5575
  337MOL0     H45468   2.475  -0.836   6.065  1.0541 -0.8738 -0.9495
  337MOL0     H45469   2.670  -0.645   6.072 -0.2763  0.0879 -1.4448
  337MOL0     H45470   2.558  -0.540   6.003  1.4905  0.4602  0.5603
  337MOL0     H45471   2.518  -0.695   6.272 -0.8021  1.8005  2.9280
  337MOL0     H45472   2.414  -0.559   6.210  0.7609  1.5262 -1.7108
  337MOL0     H45473   2.696  -0.506   6.283 -0.7478 -1.4077 -1.1543
  337MOL0     H45474   2.579  -0.399   6.198 -0.1638  0.0729  0.7787
  337MOL0     H45475   1.866  -0.749   5.514  1.4712  0.4444  3.0969
  337MOL0     H45476   1.682  -0.869   5.420  2.0772  0.4997 -1.2153
  337MOL0     H45477   1.556  -1.192   5.135  1.9062 -1.0523  0.1766
  337MOL0     H45478   1.356  -1.287   5.007 -0.3704  0.8037 -0.6865
  337MOL0     H45479   1.347  -0.334   4.055  0.5105 -0.5055 -1.8531
  337MOL0     H45480   1.309  -0.108   4.043 -0.6896  1.5792 -0.2924
  337MOL0     H45481   1.064   0.211   3.712  1.8120 -2.0123  1.8490
  337MOL0     H45482   1.063   0.438   3.622  0.4476  0.4867  0.0599
  337MOL0     H45483   0.990   0.648   3.824  0.6093  2.1935  1.3357
  337MOL0     H45484   0.998   0.692   3.653  0.3007  0.0104 -1.2207
  337MOL0     H45485   1.156   0.888   3.758  1.3226 -2.0016 -0.8874
  337MOL0     H45486   1.050   0.846   3.904  0.2315  0.3313 -0.1085
  337MOL0     H45487   0.940   1.039   3.769  0.8111  0.1996 -1.8131
  337MOL0     H45488   0.848   0.893   3.774 -2.0286  3.8122 -0.2378
  337MOL0     H45489   0.912   0.834   3.545 -2.1473 -0.0955  0.5704
  337MOL0     H45490   0.837   0.987   3.554 -0.6507 -0.6367 -1.5172
  337MOL0     H45491   1.170   1.150   3.394 -0.5608 -0.6238 -1.9902
  337MOL0     H45492   1.282   0.581   3.946  1.0089 -0.6853  0.7144
  337MOL0     H45493   1.187   0.332   4.164 -2.1418  3.8922  0.4223
  337MOL0     H45494   1.358   0.319   4.130 -1.0034 -1.0480  1.3094
  337MOL0     H45495   1.288   0.479   4.144  0.0245  1.5139 -3.1661
  338MOL0     O45496   6.659   4.270   0.383  0.1470  0.0453  1.2216
  338MOL0     C45497   6.682   4.244   0.270 -0.7798  1.2398 -0.3733
  338MOL0     O45498   6.607   4.282   0.162  0.0612  0.4654  0.2477
  338MOL0     C45499   6.507   4.374   0.183 -0.2150 -0.5746 -0.0958
  338MOL0     C45500   6.384   4.342   0.240 -0.2937  0.2086 -1.1499
  338MOL0     C45501   6.293   4.437   0.271 -0.4604  0.5881 -0.6532
  338MOL0     C45502   6.316   4.569   0.244  0.1882 -0.5044 -0.6101
  338MOL0     O45503   6.230   4.665   0.291  0.4695  0.2611  0.4915
  338MOL0     C45504   6.178   4.754   0.188 -0.5348  1.1532 -0.2670
  338MOL0     C45505   6.099   4.678   0.079 -0.5755 -0.0256  0.1196
  338MOL0     C45506   5.959   4.647   0.139  0.0832 -0.0771 -0.4008
  338MOL0     C45507   5.891   4.539   0.051 -0.6672 -0.7100 -0.2417
  338MOL0     C45508   5.948   4.403   0.086  0.1816  0.2195 -0.5089
  338MOL0     C45509   5.858   4.303   0.017 -1.1002  0.5204  0.8039
  338MOL0     C45510   5.873   4.162   0.073 -0.3368  0.0690  0.0843
  338MOL0     C45511   5.931   4.063  -0.028 -0.1040  0.3208 -0.7953
  338MOL0     N45512   5.938   3.930   0.037 -0.5244 -0.6124  0.2227
  338MOL0     C45513   6.046   3.870   0.101  0.3792 -0.3387 -1.0229
  338MOL0     C45514   5.997   3.762   0.151  0.1624 -0.3509  0.6342
  338MOL0     C45515   6.049   3.655   0.247  0.7796 -0.6450  0.2173
  338MOL0     C45516   5.968   3.663   0.376 -0.0370 -0.3130 -0.3034
  338MOL0     C45517   6.033   3.622   0.505  0.5152  0.5887 -0.2714
  338MOL0     C45518   5.952   3.616   0.635  0.7195 -0.2860 -0.1839
  338MOL0     O45519   5.847   3.523   0.635  0.0479  0.2364 -0.6235
  338MOL0     C45520   5.755   3.515   0.738  0.5288 -0.0505 -0.6787
  338MOL0     C45521   5.643   3.426   0.726 -0.4063  0.2846 -0.1546
  338MOL0     C45522   5.543   3.409   0.831  0.2807 -0.5840  0.1712
  338MOL0     C45523   5.561   3.481   0.947 -0.3950 -0.6658  0.0477
  338MOL0     C45524   5.464   3.465   1.058  0.6010  1.2466  0.4015
  338MOL0     O45525   5.416   3.340   1.084  0.6841 -0.3498  1.4379
  338MOL0     C45526   5.322   3.305   1.179  0.0956 -0.1790  0.2279
  338MOL0     C45527   5.241   3.387   1.248  0.1798  0.0388 -0.4611
  338MOL0     C45528   5.141   3.336   1.342  0.6881 -0.3624 -0.3740
  338MOL0     C45529   5.121   3.203   1.360  0.1804  0.0764  0.3756
  338MOL0     O45530   5.015   3.166   1.446  0.2918  0.5257 -0.5157
  338MOL0     C45531   4.884   3.216   1.416  1.2521  0.1702 -0.0664
  338MOL0     C45532   4.796   3.217   1.543  1.0939 -0.7200  0.4939
  338MOL0     C45533   4.834   3.336   1.634  0.4723 -0.4301  0.9585
  338MOL0     C45534   4.788   3.316   1.773 -0.7017  0.2912 -0.3078
  338MOL0     C45535   4.656   3.386   1.786 -0.4334 -0.6554 -0.5631
  338MOL0     C45536   4.586   3.349   1.919  0.4078  0.3801 -0.1364
  338MOL0     C45537   4.435   3.367   1.908 -0.5141 -0.3669  0.2417
  338MOL0     C45538   4.350   3.248   1.872  0.2403  0.7272  0.0054
  338MOL0    Cl45539   4.176   3.280   1.882  0.3107 -0.2133 -0.2072
  338MOL0     C45540   5.201   3.118   1.286 -0.0277 -0.3019  0.3644
  338MOL0     C45541   5.306   3.170   1.204  0.2804 -0.0053  0.4313
  338MOL0     O45542   5.434   3.561   1.122 -0.2507 -0.8020  0.2506
  338MOL0     C45543   5.676   3.559   0.962 -0.0750  0.0665 -0.2426
  338MOL0     C45544   5.773   3.567   0.862  0.4440  0.7245  0.4365
  338MOL0     N45545   5.869   3.743   0.099 -0.2164 -0.5742 -0.2668
  338MOL0     N45546   5.829   3.852   0.045  0.2806  0.0262  0.1280
  338MOL0     C45547   6.435   4.611   0.189  0.1752 -0.3566 -0.3702
  338MOL0     C45548   6.530   4.508   0.152 -0.0845  0.6748 -0.2926
  338MOL0     C45549   6.795   4.147   0.241  0.2187  0.7978 -0.4148
  338MOL0     C45550   6.852   4.136   0.107  0.2231 -0.5539 -0.0598
  338MOL0     C45551   6.949   4.041   0.078 -0.0689 -0.6845 -1.0285
  338MOL0     C45552   7.002   3.940   0.168  0.3067 -1.0318 -0.7233
  338MOL0     O45553   7.095   3.847   0.147 -0.3381 -0.1319 -0.2907
  338MOL0     C45554   7.174   3.861   0.028  0.8459  0.8086  0.7407
  338MOL0     C45555   7.274   3.980   0.047  0.3936 -0.4816  0.3507
  338MOL0     C45556   7.423   3.932   0.059  0.0294 -0.0577  0.2884
  338MOL0     C45557   7.512   4.051   0.108 -0.4673 -0.2145 -0.1913
  338MOL0     C45558   7.485   4.169   0.021 -0.3139  0.8314 -0.0452
  338MOL0     C45559   7.497   4.256  -0.059  0.3982 -0.0923 -0.4050
  338MOL0     C45560   6.939   3.948   0.293  0.4358  0.1393 -0.1450
  338MOL0     C45561   6.836   4.038   0.333  0.1471 -0.3794  0.7661
  338MOL0     C45562   6.792   4.019   0.478  0.2374  0.0205  0.0236
  338MOL0     H45563   6.365   4.242   0.276 -1.9094  0.5421 -1.0262
  338MOL0     H45564   6.196   4.408   0.309 -0.1330 -0.5794 -0.6872
  338MOL0     H45565   6.113   4.826   0.237 -1.0745 -0.2375  1.1441
  338MOL0     H45566   6.258   4.816   0.147  3.1389 -0.5107  3.6599
  338MOL0     H45567   6.157   4.586   0.063  0.4078  0.1482  2.3727
  338MOL0     H45568   6.084   4.735  -0.014 -3.0504 -1.7339 -0.6595
  338MOL0     H45569   5.891   4.733   0.142  1.8924  1.3898  1.3691
  338MOL0     H45570   5.970   4.628   0.246  1.7279 -1.3081 -0.7346
  338MOL0     H45571   5.785   4.546   0.076 -1.9151 -0.7225 -4.6423
  338MOL0     H45572   5.911   4.569  -0.053  1.7764  1.0812  0.6528
  338MOL0     H45573   6.055   4.392   0.067  0.8229  4.2180 -0.0291
  338MOL0     H45574   5.931   4.388   0.193  1.1108  1.2703 -0.1926
  338MOL0     H45575   5.754   4.335   0.023 -2.1013 -2.4230  0.9455
  338MOL0     H45576   5.894   4.300  -0.087  0.9954 -1.0964  1.4980
  338MOL0     H45577   5.779   4.117   0.108 -0.4897  1.6566  1.8481
  338MOL0     H45578   5.939   4.155   0.159  0.2504  0.9633 -0.2747
  338MOL0     H45579   5.867   4.058  -0.117  0.4842  0.8705 -1.2634
  338MOL0     H45580   6.034   4.086  -0.058  0.1295 -0.4733 -0.6193
  338MOL0     H45581   6.139   3.917   0.132  0.2234 -0.3908 -0.4629
  338MOL0     H45582   6.029   3.554   0.210 -0.3890 -0.9850  1.6735
  338MOL0     H45583   6.156   3.654   0.268  1.2541  1.5748 -1.6854
  338MOL0     H45584   5.945   3.769   0.394 -0.2657 -0.2952 -0.7057
  338MOL0     H45585   5.876   3.609   0.356 -0.3877  0.4918 -0.9292
  338MOL0     H45586   6.112   3.690   0.537 -0.3344  1.2498  0.4774
  338MOL0     H45587   6.073   3.522   0.487  0.8138  0.7358 -0.4402
  338MOL0     H45588   5.909   3.714   0.660 -0.9433 -1.1344  0.4714
  338MOL0     H45589   6.024   3.591   0.712  0.3238  1.4629  0.8137
  338MOL0     H45590   5.631   3.374   0.632  0.5858  2.1990 -1.3996
  338MOL0     H45591   5.455   3.345   0.828 -0.3841  0.3478 -1.2386
  338MOL0     H45592   5.249   3.495   1.233  2.4878 -0.2558 -1.6760
  338MOL0     H45593   5.090   3.417   1.393  1.1311  1.3418 -2.4668
  338MOL0     H45594   4.891   3.316   1.372 -0.0520 -0.8256 -2.8568
  338MOL0     H45595   4.835   3.157   1.337  1.4195 -0.3017  0.1766
  338MOL0     H45596   4.694   3.229   1.504  1.3274  1.1504  0.3814
  338MOL0     H45597   4.805   3.116   1.586 -2.6928 -1.1735  0.5825
  338MOL0     H45598   4.944   3.342   1.638  0.5164 -0.8297  0.4201
  338MOL0     H45599   4.802   3.435   1.602 -1.5827 -1.6551 -1.0631
  338MOL0     H45600   4.853   3.364   1.847 -2.2639  2.3140 -0.1445
  338MOL0     H45601   4.781   3.209   1.796 -0.2834  0.5665  1.2175
  338MOL0     H45602   4.588   3.349   1.709 -0.3096 -1.9864 -0.0476
  338MOL0     H45603   4.665   3.493   1.761  0.6353 -0.7287 -0.5049
  338MOL0     H45604   4.602   3.243   1.936  0.3736  0.0139 -2.1190
  338MOL0     H45605   4.626   3.412   2.000 -2.2691  2.6870 -0.4617
  338MOL0     H45606   4.422   3.448   1.836  2.0387  0.6433  0.8226
  338MOL0     H45607   4.419   3.412   2.007  1.3244  0.0721  0.3809
  338MOL0     H45608   4.384   3.219   1.773 -1.2125  3.7858 -1.5317
  338MOL0     H45609   4.378   3.171   1.944  0.5681  1.6535  0.8996
  338MOL0     H45610   5.195   3.011   1.297  1.2797 -0.2102  2.4943
  338MOL0     H45611   5.372   3.103   1.149  2.0815  2.3299 -0.4021
  338MOL0     H45612   5.699   3.596   1.061  0.9581 -3.0642  0.8261
  338MOL0     H45613   5.870   3.610   0.881  1.4339 -0.8198 -0.9000
  338MOL0     H45614   6.451   4.716   0.169 -1.3176 -0.4597 -2.4444
  338MOL0     H45615   6.625   4.520   0.102  0.4005 -2.7738 -0.4472
  338MOL0     H45616   6.821   4.211   0.035 -1.4455 -2.1547 -1.0878
  338MOL0     H45617   6.988   4.059  -0.022  0.7876  2.3376 -0.2282
  338MOL0     H45618   7.112   3.884  -0.059  2.9841  3.7014 -0.1462
  338MOL0     H45619   7.225   3.770  -0.004 -2.7094 -1.2240  0.2393
  338MOL0     H45620   7.249   4.036   0.138 -0.3204 -0.3762  0.0947
  338MOL0     H45621   7.258   4.055  -0.031  1.0618  0.1173  0.7745
  338MOL0     H45622   7.457   3.888  -0.034 -0.4478 -1.6819  0.8553
  338MOL0     H45623   7.431   3.846   0.126  1.4661 -1.4389 -1.5442
  338MOL0     H45624   7.488   4.086   0.209 -0.7560  3.0873 -1.2542
  338MOL0     H45625   7.619   4.026   0.106 -0.2334  0.7103 -0.1652
  338MOL0     H45626   7.513   4.333  -0.132  1.0279  1.7846  1.5817
  338MOL0     H45627   6.958   3.861   0.355 -0.2661  0.4786  0.5534
  338MOL0     H45628   6.855   3.946   0.529 -2.0018 -3.3407 -1.6256
  338MOL0     H45629   6.811   4.109   0.536 -2.2660 -0.0785  1.1191
  338MOL0     H45630   6.686   3.995   0.493 -0.2541 -0.2802 -3.2116
  339MOL0     O45631   8.592   4.864   1.218  0.2899  0.7109  0.5705
  339MOL0     C45632   8.569   4.983   1.224  0.6547  0.2549  0.7066
  339MOL0     O45633   8.661   5.082   1.239 -1.0919  0.1590  0.3922
  339MOL0     C45634   8.798   5.064   1.258  0.6971 -0.2965 -0.1958
  339MOL0     C45635   8.856   4.961   1.326 -0.4994 -0.7536  0.5098
  339MOL0     C45636   8.995   4.956   1.349  0.1311 -0.2863  0.5085
  339MOL0     C45637   9.075   5.057   1.293 -0.8684 -0.6885  0.3036
  339MOL0     O45638   9.208   5.049   1.335 -0.4945 -0.7232  0.5221
  339MOL0     C45639   9.296   4.981   1.247  0.1069 -0.5775  0.5228
  339MOL0     C45640   9.399   5.071   1.192  0.4557  0.2216 -0.7716
  339MOL0     C45641   9.493   5.000   1.084 -0.5696  0.4820 -0.3909
  339MOL0     C45642   9.617   5.091   1.061 -0.1492  0.6924 -0.1308
  339MOL0     C45643   9.581   5.212   0.982  0.0102 -1.2393 -0.4279
  339MOL0     C45644   9.564   5.188   0.829 -0.2404  0.1513 -1.7079
  339MOL0     C45645   9.495   5.313   0.760  1.0712 -0.5204 -0.6462
  339MOL0     C45646   9.597   5.409   0.703 -0.4288  0.8032  0.4248
  339MOL0     N45647   9.637   5.516   0.798  0.7526  0.0730  0.1989
  339MOL0     C45648   9.745   5.512   0.879 -0.4402  0.1011  0.4953
  339MOL0     C45649   9.745   5.622   0.952 -0.1207 -0.1875  0.5521
  339MOL0     C45650   9.846   5.662   1.059  0.5465 -0.1206 -0.5751
  339MOL0     C45651   9.977   5.717   1.015  0.0059 -0.0765  0.4331
  339MOL0     C45652  10.095   5.707   1.117 -0.1215  0.6324  0.3779
  339MOL0     C45653  10.188   5.590   1.084 -0.3972 -0.4942  0.2410
  339MOL0     O45654  10.256   5.596   0.953 -0.0873  0.8667  0.8798
  339MOL0     C45655  10.389   5.602   0.933  0.3188 -0.8568  0.1096
  339MOL0     C45656  10.491   5.621   1.028 -0.3112 -0.2989  0.0078
  339MOL0     C45657  10.629   5.632   1.002  0.7815  0.0911  0.1463
  339MOL0     C45658  10.669   5.632   0.869 -0.0679  0.1354  0.2197
  339MOL0     C45659  10.818   5.642   0.829  0.7380 -0.8936 -0.1635
  339MOL0     O45660  10.907   5.647   0.932 -0.3701 -0.1144 -0.2581
  339MOL0     C45661  11.029   5.699   0.893 -0.6089  0.3437 -0.4428
  339MOL0     C45662  11.061   5.826   0.935 -0.6270  0.1087  0.0605
  339MOL0     C45663  11.188   5.870   0.908  0.0795 -0.6995  0.8610
  339MOL0     C45664  11.284   5.804   0.836 -0.6867  0.2499 -0.4915
  339MOL0     O45665  11.402   5.862   0.808  0.0879  0.6504 -0.4495
  339MOL0     C45666  11.487   5.804   0.701  0.0918  0.2073 -0.6740
  339MOL0     C45667  11.621   5.882   0.699 -0.1856 -0.1283 -0.6177
  339MOL0     C45668  11.710   5.839   0.582  1.0042 -0.5995  0.6279
  339MOL0     C45669  11.802   5.956   0.519 -0.1395  0.2354  0.7775
  339MOL0     C45670  11.857   5.912   0.381  0.0844  0.1951 -0.3082
  339MOL0     C45671  11.922   5.773   0.376 -0.1999 -0.0022 -0.2185
  339MOL0     C45672  12.013   5.752   0.256  0.1285  0.7209  1.2461
  339MOL0     C45673  12.131   5.844   0.254 -1.0360  0.6278 -1.1410
  339MOL0    Cl45674  12.224   5.832   0.099 -0.3908 -0.7704 -0.0061
  339MOL0     C45675  11.251   5.671   0.804  0.2401 -0.2188  0.2233
  339MOL0     C45676  11.124   5.625   0.830  1.1778 -0.9277 -0.2624
  339MOL0     O45677  10.837   5.656   0.712 -0.6863  0.5406  0.1801
  339MOL0     C45678  10.571   5.613   0.771  0.0330  0.2208 -0.8338
  339MOL0     C45679  10.435   5.595   0.808  0.4844 -0.3346  0.0598
  339MOL0     N45680   9.627   5.693   0.932 -0.2892  0.7006  0.1449
  339MOL0     N45681   9.567   5.630   0.833  0.2288 -0.1600 -0.9173
  339MOL0     C45682   9.021   5.170   1.228 -0.6042  0.6412 -0.9547
  339MOL0     C45683   8.884   5.174   1.211 -1.1458  1.2684  0.4418
  339MOL0     C45684   8.419   5.020   1.230 -0.0861  0.2323 -0.2364
  339MOL0     C45685   8.377   5.152   1.224 -1.2387 -0.2848  0.4638
  339MOL0     C45686   8.246   5.203   1.237  0.1627  0.3718 -0.0892
  339MOL0     C45687   8.147   5.110   1.258  0.4921 -0.8657 -0.2999
  339MOL0     O45688   8.011   5.140   1.282 -0.2532  0.1091 -0.1184
  339MOL0     C45689   7.998   5.270   1.351 -0.6219  0.5782  0.9684
  339MOL0     C45690   7.847   5.282   1.393 -0.2844  0.3954  0.5501
  339MOL0     C45691   7.745   5.291   1.274  0.7761 -0.9928 -0.7317
  339MOL0     C45692   7.608   5.241   1.309  0.0398 -0.0845  0.2429
  339MOL0     C45693   7.540   5.340   1.405  0.0322 -0.0199  0.1375
  339MOL0     C45694   7.471   5.419   1.465  0.2143  0.0940 -0.1707
  339MOL0     C45695   8.175   4.980   1.265 -0.5318 -0.0792 -0.2380
  339MOL0     C45696   8.311   4.930   1.248 -0.2644  0.8316 -0.0532
  339MOL0     C45697   8.315   4.783   1.215 -0.2432 -0.1208  0.2260
  339MOL0     H45698   8.789   4.885   1.366 -0.0256 -3.0551 -2.6587
  339MOL0     H45699   9.040   4.875   1.405  2.1829  0.6357  0.2970
  339MOL0     H45700   9.335   4.899   1.309 -1.1663 -0.3537  1.6684
  339MOL0     H45701   9.246   4.937   1.161  0.1474  0.4036 -0.0169
  339MOL0     H45702   9.458   5.112   1.275  1.5465 -1.1952 -0.8245
  339MOL0     H45703   9.339   5.148   1.141 -1.9906  0.1656  1.7809
  339MOL0     H45704   9.433   4.989   0.993  0.8144 -0.6659 -1.1853
  339MOL0     H45705   9.521   4.900   1.118  0.1881 -0.3670 -3.2872
  339MOL0     H45706   9.655   5.131   1.156 -2.8158  1.4560  0.7117
  339MOL0     H45707   9.691   5.028   1.011 -3.1805 -4.4004  1.0935
  339MOL0     H45708   9.487   5.262   1.009  0.4620  1.7088 -3.6060
  339MOL0     H45709   9.663   5.283   0.996 -2.1626  1.6469 -1.1501
  339MOL0     H45710   9.666   5.175   0.791  0.8778  0.0013  1.0652
  339MOL0     H45711   9.511   5.094   0.813 -0.4699  0.1082 -0.7655
  339MOL0     H45712   9.424   5.367   0.823  1.8802 -1.2599  0.9522
  339MOL0     H45713   9.429   5.288   0.676  0.1234  2.6646 -0.9775
  339MOL0     H45714   9.685   5.354   0.670 -0.9613 -1.3732  2.3882
  339MOL0     H45715   9.557   5.451   0.610 -0.0389  1.5513  0.5856
  339MOL0     H45716   9.828   5.443   0.884 -0.4819 -0.0570 -0.8134
  339MOL0     H45717   9.795   5.732   1.127  1.8275  0.8924 -0.6220
  339MOL0     H45718   9.875   5.574   1.117 -2.1057 -1.3847 -0.9891
  339MOL0     H45719  10.001   5.665   0.922  0.4407 -0.4400  0.7479
  339MOL0     H45720   9.960   5.822   0.989 -0.0450 -0.4633 -1.1869
  339MOL0     H45721  10.065   5.703   1.222  1.6840 -0.5534  0.8945
  339MOL0     H45722  10.154   5.798   1.099  1.4707 -0.3789  0.2649
  339MOL0     H45723  10.123   5.502   1.079  0.9536 -1.5213  0.1843
  339MOL0     H45724  10.251   5.572   1.172 -1.2799 -1.0632  0.7771
  339MOL0     H45725  10.462   5.639   1.131 -1.9357  3.2703 -0.9403
  339MOL0     H45726  10.690   5.643   1.091 -2.4060  0.2625  2.4787
  339MOL0     H45727  10.978   5.876   0.984 -1.1705 -0.8038  0.0894
  339MOL0     H45728  11.219   5.969   0.941 -0.6097  0.5632 -1.9872
  339MOL0     H45729  11.499   5.699   0.730  0.0041  0.9240  2.2162
  339MOL0     H45730  11.448   5.810   0.599  0.0808  0.1542 -0.6727
  339MOL0     H45731  11.596   5.988   0.693 -3.7056 -0.8617 -0.9792
  339MOL0     H45732  11.662   5.886   0.800 -2.1737  0.0574  0.2127
  339MOL0     H45733  11.775   5.767   0.632  2.2095  1.0631  1.5354
  339MOL0     H45734  11.656   5.780   0.507  0.4012 -0.3725  0.8807
  339MOL0     H45735  11.889   5.970   0.584 -1.1055 -0.2418  2.2251
  339MOL0     H45736  11.751   6.052   0.512  0.9810  0.7362 -1.4271
  339MOL0     H45737  11.935   5.988   0.372  0.3585 -0.1385 -0.8165
  339MOL0     H45738  11.783   5.917   0.301  0.5191 -0.9224 -0.8028
  339MOL0     H45739  11.987   5.763   0.463 -1.1115  2.1054  0.7815
  339MOL0     H45740  11.839   5.701   0.380  0.5577 -0.8503  0.4591
  339MOL0     H45741  11.950   5.765   0.167 -0.1544  0.0082  1.3343
  339MOL0     H45742  12.054   5.651   0.253 -0.0689  0.6494 -1.2858
  339MOL0     H45743  12.102   5.948   0.269  2.9503  1.7195  0.1779
  339MOL0     H45744  12.189   5.825   0.345 -0.3416  2.9420 -1.0383
  339MOL0     H45745  11.319   5.598   0.761 -0.5435 -0.4180 -0.7276
  339MOL0     H45746  11.084   5.532   0.791 -2.0525 -0.5395  1.7042
  339MOL0     H45747  10.601   5.616   0.667  1.8020 -0.0852 -0.3622
  339MOL0     H45748  10.363   5.594   0.727  1.7194 -1.8094 -1.0775
  339MOL0     H45749   9.088   5.253   1.206  0.9308  0.0653  1.2659
  339MOL0     H45750   8.847   5.265   1.164  1.3892  1.5301 -1.2113
  339MOL0     H45751   8.443   5.238   1.215 -0.5225 -0.9554 -0.9985
  339MOL0     H45752   8.213   5.306   1.233  1.5296  0.7817 -2.5502
  339MOL0     H45753   8.018   5.353   1.282 -2.0606 -1.1120 -1.6791
  339MOL0     H45754   8.069   5.278   1.434 -2.4732  0.1306  2.6771
  339MOL0     H45755   7.837   5.373   1.453 -0.0795 -0.2164  1.5283
  339MOL0     H45756   7.810   5.195   1.447 -0.5474 -0.8798 -1.5456
  339MOL0     H45757   7.783   5.237   1.187  0.6007  1.2069 -2.2623
  339MOL0     H45758   7.727   5.396   1.249 -1.9023 -1.1755  0.0652
  339MOL0     H45759   7.537   5.210   1.233  1.5761 -3.5119  0.0363
  339MOL0     H45760   7.624   5.144   1.356 -0.7100 -1.2839 -1.8679
  339MOL0     H45761   7.406   5.481   1.523  0.4246 -1.3696  1.7538
  339MOL0     H45762   8.097   4.905   1.266  1.2357 -2.0353 -0.1863
  339MOL0     H45763   8.349   4.722   1.299  0.0134 -0.4962 -0.1436
  339MOL0     H45764   8.214   4.748   1.194  0.8665 -4.9293  1.6199
  339MOL0     H45765   8.371   4.755   1.125 -0.5209  0.5151 -0.1481
  340MOL0     O45766   9.646   2.574   2.226 -0.4671  0.6050  0.2225
  340MOL0     C45767   9.738   2.555   2.307 -0.9548 -0.7185 -0.7366
  340MOL0     O45768   9.726   2.467   2.413  0.1486 -0.5089 -0.3744
  340MOL0     C45769   9.616   2.381   2.439 -0.6265 -0.8788 -1.1509
  340MOL0     C45770   9.600   2.325   2.567 -0.4987 -0.1683 -1.5127
  340MOL0     C45771   9.510   2.225   2.592 -0.8044 -0.2621 -0.5597
  340MOL0     C45772   9.429   2.181   2.480  1.1170  0.2496 -0.0117
  340MOL0     O45773   9.342   2.078   2.507  0.0527 -0.3049 -0.0344
  340MOL0     C45774   9.283   2.013   2.395  0.7878  0.1934 -0.1558
  340MOL0     C45775   9.246   1.878   2.451 -0.6310  0.1097  0.0664
  340MOL0     C45776   9.116   1.890   2.533  0.0138  0.7373  0.5123
  340MOL0     C45777   9.077   1.753   2.589  0.5385 -0.2560 -0.4413
  340MOL0     C45778   9.198   1.684   2.660 -0.0986  0.6947 -0.4157
  340MOL0     C45779   9.156   1.548   2.707  0.1410  0.8893 -0.3990
  340MOL0     C45780   9.254   1.483   2.809 -0.8939  0.0454 -0.0821
  340MOL0     C45781   9.371   1.411   2.741  0.3702  0.0205  0.3015
  340MOL0     N45782   9.458   1.350   2.841 -0.7933 -0.3462 -0.2207
  340MOL0     C45783   9.566   1.401   2.896 -0.7447  0.4847  0.5315
  340MOL0     C45784   9.623   1.303   2.964  0.2797  0.6253  0.9176
  340MOL0     C45785   9.733   1.310   3.068 -0.0562  0.0126  0.4969
  340MOL0     C45786   9.871   1.361   3.023  0.4413  0.0893 -0.2637
  340MOL0     C45787   9.928   1.444   3.134 -0.4525 -0.4719 -1.0760
  340MOL0     C45788   9.963   1.365   3.259 -0.0888  0.4502  0.4668
  340MOL0     O45789   9.987   1.458   3.364 -0.2336 -0.8255  0.3931
  340MOL0     C45790  10.075   1.421   3.465  0.0022 -0.5244 -0.1556
  340MOL0     C45791  10.102   1.522   3.565  1.2377  0.0847 -0.0009
  340MOL0     C45792  10.208   1.508   3.653  0.2652 -0.6034 -0.6208
  340MOL0     C45793  10.288   1.388   3.648  0.9938 -0.6586  0.0195
  340MOL0     C45794  10.398   1.370   3.748 -0.5306 -0.2629  0.1390
  340MOL0     O45795  10.417   1.253   3.807 -0.9756  0.2915 -0.0450
  340MOL0     C45796  10.517   1.223   3.899 -0.6845  0.2868 -0.0337
  340MOL0     C45797  10.636   1.290   3.923  0.4668 -0.1020 -0.0543
  340MOL0     C45798  10.731   1.253   4.025 -0.2031 -0.2849  0.0229
  340MOL0     C45799  10.695   1.149   4.112 -1.2653  0.4567 -0.1106
  340MOL0     O45800  10.778   1.103   4.212 -0.5878  0.4302  0.2401
  340MOL0     C45801  10.871   1.007   4.171  0.3197  0.1602  0.3102
  340MOL0     C45802  10.960   1.005   4.297 -0.3608 -0.0222 -0.4206
  340MOL0     C45803  11.055   0.888   4.311  0.0934 -0.7113  0.3757
  340MOL0     C45804  11.148   0.895   4.442 -0.5967 -0.2355  0.2986
  340MOL0     C45805  11.250   0.790   4.436  0.2203  0.0149 -0.3058
  340MOL0     C45806  11.319   0.778   4.567 -0.3104 -0.6242  0.4539
  340MOL0     C45807  11.415   0.659   4.554 -0.4691 -0.0561  0.3088
  340MOL0     C45808  11.502   0.647   4.675 -0.2477 -0.5745 -0.4134
  340MOL0    Cl45809  11.625   0.523   4.684 -0.2480  0.0539  0.3269
  340MOL0     C45810  10.576   1.079   4.088 -0.2719 -0.2741  0.1700
  340MOL0     C45811  10.491   1.114   3.981 -0.2527 -0.0707  0.4288
  340MOL0     O45812  10.456   1.473   3.774  0.1049 -0.2439 -0.5497
  340MOL0     C45813  10.254   1.286   3.562  0.0036 -0.1769  0.9730
  340MOL0     C45814  10.142   1.301   3.470 -0.0124 -0.5509  0.3037
  340MOL0     N45815   9.546   1.194   2.949 -0.0440 -0.1817  0.0258
  340MOL0     N45816   9.452   1.221   2.874 -0.3215 -0.2491 -0.6611
  340MOL0     C45817   9.429   2.245   2.364  0.0372 -0.1399  0.0697
  340MOL0     C45818   9.529   2.346   2.339  1.7764  0.2058  0.1787
  340MOL0     C45819   9.873   2.624   2.297 -0.2069 -0.0304 -0.4622
  340MOL0     C45820   9.991   2.554   2.292 -0.7268 -0.4699  0.4209
  340MOL0     C45821  10.116   2.614   2.310  0.4623 -0.5626 -0.0079
  340MOL0     C45822  10.130   2.758   2.324 -0.7268  0.9029 -0.3892
  340MOL0     O45823  10.243   2.828   2.341 -0.2324  0.0333  0.4676
  340MOL0     C45824  10.372   2.759   2.344  0.3975  0.2501 -0.5737
  340MOL0     C45825  10.405   2.731   2.197  0.1631  0.6685  0.0552
  340MOL0     C45826  10.554   2.707   2.192 -0.4990  1.2256  0.4723
  340MOL0     C45827  10.589   2.684   2.041  0.2248  0.1148 -0.3874
  340MOL0     C45828  10.539   2.559   1.996 -0.3782 -0.3206 -1.5350
  340MOL0     C45829  10.507   2.458   1.940  0.1588  0.2384  0.6283
  340MOL0     C45830  10.009   2.830   2.322  0.3752  0.4729 -0.1747
  340MOL0     C45831   9.881   2.760   2.317  0.0948  0.2037  0.5927
  340MOL0     C45832   9.767   2.847   2.352 -0.4770  0.0004  0.3841
  340MOL0     H45833   9.667   2.348   2.649 -0.1448 -0.7110 -1.6456
  340MOL0     H45834   9.509   2.180   2.690  1.6340 -0.3263 -0.5013
  340MOL0     H45835   9.202   2.072   2.352  1.5973  0.2596 -1.6547
  340MOL0     H45836   9.347   1.994   2.309 -1.7192  1.3788 -2.3988
  340MOL0     H45837   9.331   1.840   2.508  0.3668  0.8728 -0.8664
  340MOL0     H45838   9.233   1.809   2.367  2.7995  2.2881 -2.5028
  340MOL0     H45839   9.034   1.930   2.472 -1.0475 -2.0338 -0.0528
  340MOL0     H45840   9.138   1.945   2.625 -2.1739  0.8617  1.0052
  340MOL0     H45841   8.991   1.769   2.655 -1.2937  1.1555 -3.0224
  340MOL0     H45842   9.038   1.691   2.508 -2.6988  1.9194 -0.7403
  340MOL0     H45843   9.283   1.666   2.593  0.4780  2.7088 -0.2950
  340MOL0     H45844   9.227   1.749   2.742  0.7095 -0.6188  0.3792
  340MOL0     H45845   9.058   1.551   2.755  0.1995  0.3906 -0.2405
  340MOL0     H45846   9.148   1.479   2.622  1.4610 -1.6202  1.3924
  340MOL0     H45847   9.203   1.403   2.862  2.0558 -1.6047  0.4857
  340MOL0     H45848   9.283   1.560   2.881 -0.7785  1.7121 -1.8162
  340MOL0     H45849   9.352   1.339   2.661 -1.2864 -0.3690  0.9983
  340MOL0     H45850   9.431   1.491   2.698  2.0232 -1.5105 -0.3405
  340MOL0     H45851   9.613   1.497   2.882  0.4358  0.0439  1.2972
  340MOL0     H45852   9.691   1.381   3.140 -0.6127 -1.3668  1.5765
  340MOL0     H45853   9.743   1.210   3.111  5.5175  1.0961  2.5469
  340MOL0     H45854   9.944   1.281   3.006  1.7891  1.5443 -1.5827
  340MOL0     H45855   9.861   1.424   2.934 -2.3798  1.1701  0.7033
  340MOL0     H45856   9.849   1.511   3.169 -2.2089 -2.5600 -0.8338
  340MOL0     H45857  10.015   1.502   3.101  1.2923 -1.5719  1.3536
  340MOL0     H45858  10.041   1.298   3.221  0.8543  2.1732 -0.7539
  340MOL0     H45859   9.880   1.297   3.280  0.3841  0.2032  1.5951
  340MOL0     H45860  10.038   1.610   3.571  2.6667  1.0607  2.0991
  340MOL0     H45861  10.231   1.583   3.728 -1.1457 -1.8470  1.1285
  340MOL0     H45862  10.665   1.369   3.854 -3.1269 -0.8798 -2.7710
  340MOL0     H45863  10.814   1.323   4.029 -0.5952  0.1192  2.2775
  340MOL0     H45864  10.834   0.908   4.140 -0.6650  0.6007  0.0248
  340MOL0     H45865  10.935   1.036   4.088  1.2742  1.1291  1.3607
  340MOL0     H45866  11.004   1.104   4.313 -2.9791  1.1110  0.3516
  340MOL0     H45867  10.885   0.992   4.375  0.2855  1.0956  0.4289
  340MOL0     H45868  10.991   0.802   4.333 -2.0395  0.9028  0.8541
  340MOL0     H45869  11.111   0.879   4.217 -0.2576 -0.9402  0.1850
  340MOL0     H45870  11.085   0.889   4.532 -0.5373  2.1842  0.5540
  340MOL0     H45871  11.197   0.989   4.467  1.5558 -0.8259 -1.4205
  340MOL0     H45872  11.306   0.798   4.342 -0.3263  0.4017 -0.6067
  340MOL0     H45873  11.200   0.694   4.421  0.0978 -0.0537  0.5023
  340MOL0     H45874  11.372   0.868   4.600  0.0823 -1.1901  1.4087
  340MOL0     H45875  11.234   0.759   4.634 -1.1804  3.2878  0.7100
  340MOL0     H45876  11.483   0.670   4.469 -1.4654  1.3569 -0.3447
  340MOL0     H45877  11.358   0.566   4.545  0.5005 -0.8159  1.7272
  340MOL0     H45878  11.551   0.735   4.717  2.1455 -1.2946 -1.5046
  340MOL0     H45879  11.422   0.630   4.748  1.7077  0.3525  2.1218
  340MOL0     H45880  10.558   1.005   4.165 -0.4330 -1.0825 -0.6221
  340MOL0     H45881  10.396   1.067   3.960  0.7322 -1.1643 -1.8886
  340MOL0     H45882  10.307   1.191   3.562  1.2709  0.5121 -0.2539
  340MOL0     H45883  10.115   1.220   3.402 -0.4496 -0.8532  0.8324
  340MOL0     H45884   9.371   2.221   2.276  0.4720 -2.1181  0.2796
  340MOL0     H45885   9.534   2.384   2.238 -0.0984  1.5316  0.5283
  340MOL0     H45886   9.977   2.448   2.277 -0.4586 -0.6930  1.6702
  340MOL0     H45887  10.198   2.545   2.325 -0.8356 -1.9612  0.9172
  340MOL0     H45888  10.362   2.663   2.396 -1.1120 -0.6496 -2.3683
  340MOL0     H45889  10.453   2.815   2.391  2.0121 -0.7987 -1.9848
  340MOL0     H45890  10.388   2.830   2.155 -1.2018  1.6560  2.6968
  340MOL0     H45891  10.345   2.652   2.151  2.6172 -1.4666  0.2994
  340MOL0     H45892  10.570   2.614   2.247 -1.3743  2.1256  2.3647
  340MOL0     H45893  10.612   2.789   2.235 -0.3021  1.5207 -0.3426
  340MOL0     H45894  10.547   2.771   1.989 -3.4939  0.3429  2.5246
  340MOL0     H45895  10.698   2.681   2.041  0.2163 -1.4098  1.0134
  340MOL0     H45896  10.477   2.371   1.884 -1.0271  2.4251 -2.4382
  340MOL0     H45897  10.016   2.936   2.343 -0.8591  0.2892  1.2365
  340MOL0     H45898   9.672   2.818   2.308 -0.3784  0.6571 -0.2962
  340MOL0     H45899   9.751   2.842   2.460  2.1281 -2.9132  0.7806
  340MOL0     H45900   9.792   2.946   2.312  0.3331 -0.8211 -1.2114
  341MOL0     O45901   2.190   6.681   0.162  0.4893 -0.0265 -0.2004
  341MOL0     C45902   2.195   6.574   0.106 -0.3833  0.0855 -0.4598
  341MOL0     O45903   2.307   6.532   0.044 -0.2265  0.2561 -0.1693
  341MOL0     C45904   2.419   6.607   0.055  1.0319  0.7128 -0.4464
  341MOL0     C45905   2.542   6.536   0.080  0.8491 -0.1887  1.2865
  341MOL0     C45906   2.667   6.602   0.111  0.2833  0.0757 -0.0241
  341MOL0     C45907   2.671   6.741   0.116  0.4180  0.9110  0.5359
  341MOL0     O45908   2.788   6.790   0.151 -0.6270 -0.6261 -1.1057
  341MOL0     C45909   2.814   6.931   0.159  0.0115 -0.4497  0.1887
  341MOL0     C45910   2.826   6.993   0.019 -0.3270  0.3036  0.0438
  341MOL0     C45911   2.964   6.943  -0.035  0.3809 -0.1988  0.2312
  341MOL0     C45912   2.977   6.991  -0.183  0.2365 -0.6490 -0.5826
  341MOL0     C45913   3.103   6.910  -0.262  0.6875 -0.7064 -1.1241
  341MOL0     C45914   3.241   6.975  -0.225 -0.4808  0.1628  0.4666
  341MOL0     C45915   3.345   6.948  -0.338  1.2383  0.2158  0.6581
  341MOL0     C45916   3.484   6.993  -0.282  0.2384  0.9364 -0.4736
  341MOL0     N45917   3.605   6.933  -0.340  0.2573 -0.6519  0.8610
  341MOL0     C45918   3.682   6.841  -0.276  0.8416 -0.5979  0.8951
  341MOL0     C45919   3.813   6.868  -0.306 -0.0537 -0.1573  0.3823
  341MOL0     C45920   3.929   6.788  -0.262  0.1183 -0.6361 -0.0842
  341MOL0     C45921   4.055   6.846  -0.320  0.4356 -0.7497  0.9051
  341MOL0     C45922   4.191   6.824  -0.250  0.0358  0.1873 -0.2593
  341MOL0     C45923   4.195   6.674  -0.215 -0.2876  0.7059 -0.6323
  341MOL0     O45924   4.328   6.630  -0.165  1.0402 -0.8197  0.4954
  341MOL0     C45925   4.431   6.611  -0.253 -0.4776  0.7395  0.2659
  341MOL0     C45926   4.430   6.629  -0.385 -0.5485 -0.1259  0.5466
  341MOL0     C45927   4.541   6.588  -0.464 -0.0083 -0.7470  0.6139
  341MOL0     C45928   4.664   6.550  -0.408 -1.4124  0.3402 -0.2516
  341MOL0     C45929   4.797   6.541  -0.477 -1.0952 -0.1563  0.7081
  341MOL0     O45930   4.791   6.560  -0.610  0.8029  0.1930  0.5750
  341MOL0     C45931   4.906   6.558  -0.694  0.7834 -0.3187  0.0782
  341MOL0     C45932   4.878   6.570  -0.834  0.3347  0.4200  0.4205
  341MOL0     C45933   4.980   6.583  -0.932  0.1779 -0.1843 -0.8160
  341MOL0     C45934   5.109   6.578  -0.899  0.1200  0.1449 -0.4012
  341MOL0     O45935   5.219   6.595  -0.985 -0.3639 -0.9717 -0.3393
  341MOL0     C45936   5.199   6.697  -1.089  0.5009  0.4246 -0.2215
  341MOL0     C45937   5.289   6.666  -1.201 -0.3320 -0.9339  0.2781
  341MOL0     C45938   5.229   6.565  -1.305 -0.3663  0.2372  0.5967
  341MOL0     C45939   5.341   6.482  -1.387  0.9517 -0.0866 -0.5577
  341MOL0     C45940   5.266   6.365  -1.448 -0.3708  0.1650 -0.3903
  341MOL0     C45941   5.352   6.276  -1.546  0.7045 -0.5075 -0.1335
  341MOL0     C45942   5.352   6.316  -1.692  0.0338  0.2058  1.0569
  341MOL0     C45943   5.224   6.269  -1.765 -0.6786  0.3219 -0.3359
  341MOL0    Cl45944   5.259   6.098  -1.801 -0.6052  0.0414 -0.1090
  341MOL0     C45945   5.138   6.552  -0.765 -0.1347 -1.1218 -0.4041
  341MOL0     C45946   5.047   6.546  -0.658  0.3243  0.1772 -0.1953
  341MOL0     O45947   4.899   6.523  -0.409  0.2033  0.3954  0.3864
  341MOL0     C45948   4.668   6.544  -0.267 -0.8283 -0.2647 -0.8317
  341MOL0     C45949   4.557   6.582  -0.184 -0.8953  0.6950  0.1381
  341MOL0     N45950   3.811   6.977  -0.397 -0.0738 -0.0879 -0.7188
  341MOL0     N45951   3.691   7.012  -0.412  0.3996 -0.4011 -0.0330
  341MOL0     C45952   2.557   6.818   0.088  0.4085  0.2368  0.4181
  341MOL0     C45953   2.434   6.754   0.051 -0.3699  0.0470  0.5337
  341MOL0     C45954   2.082   6.475   0.103  0.5103  0.2359  0.1822
  341MOL0     C45955   2.110   6.347   0.047 -0.3935 -0.2388 -0.3126
  341MOL0     C45956   2.013   6.250   0.049  0.3472  0.7156 -0.3876
  341MOL0     C45957   1.891   6.268   0.133 -0.1784 -0.2687  0.0653
  341MOL0     O45958   1.808   6.163   0.130  0.1079  0.1510  0.0376
  341MOL0     C45959   1.674   6.173   0.185 -0.2169  0.9260  0.3399
  341MOL0     C45960   1.602   6.047   0.166 -0.2881  0.8200 -0.3879
  341MOL0     C45961   1.469   6.060   0.219  0.1459  0.2944 -0.1462
  341MOL0     C45962   1.395   5.927   0.206  0.3653  0.3944 -0.3933
  341MOL0     C45963   1.255   5.945   0.236  0.6378 -0.1074  0.1290
  341MOL0     C45964   1.135   5.941   0.250 -0.5050  0.3547 -0.6614
  341MOL0     C45965   1.865   6.392   0.187  0.7857  0.0271 -0.4767
  341MOL0     C45966   1.959   6.499   0.174  0.4503  0.0297 -0.4419
  341MOL0     C45967   1.916   6.636   0.235  0.4766 -0.3185  0.5347
  341MOL0     H45968   2.545   6.428   0.081 -2.1479 -0.3691  0.7757
  341MOL0     H45969   2.751   6.540   0.140 -1.3748 -1.5266  1.6117
  341MOL0     H45970   2.731   6.974   0.215  1.1824 -0.1047  1.7009
  341MOL0     H45971   2.906   6.954   0.213  1.3194 -3.9803 -0.2393
  341MOL0     H45972   2.829   7.102   0.027 -1.2334  0.2202  1.9145
  341MOL0     H45973   2.739   6.966  -0.042 -2.5832  2.9186  1.9039
  341MOL0     H45974   2.958   6.834  -0.030 -1.5607 -0.1828 -0.6660
  341MOL0     H45975   3.042   6.971   0.037  2.2588  2.0539 -2.4674
  341MOL0     H45976   2.877   6.976  -0.224 -0.2169 -1.1811  0.6623
  341MOL0     H45977   2.990   7.100  -0.178  0.4459 -0.6534 -1.0096
  341MOL0     H45978   3.101   6.803  -0.241  1.7132 -0.8730 -1.7998
  341MOL0     H45979   3.084   6.918  -0.369  1.3111 -0.1582 -1.2058
  341MOL0     H45980   3.227   7.082  -0.205 -1.7310  0.3003 -0.9670
  341MOL0     H45981   3.282   6.938  -0.130 -1.1069 -0.3279  0.5516
  341MOL0     H45982   3.318   7.013  -0.421  0.3377 -0.8249  0.1038
  341MOL0     H45983   3.351   6.843  -0.367  0.9500  0.6755 -1.1581
  341MOL0     H45984   3.503   7.100  -0.296 -0.9067  1.0810 -0.9947
  341MOL0     H45985   3.485   6.967  -0.176  2.8920 -1.2686 -0.9054
  341MOL0     H45986   3.645   6.759  -0.216  1.4453  0.3043  2.5522
  341MOL0     H45987   3.926   6.778  -0.153 -1.3052  2.1967  0.2162
  341MOL0     H45988   3.901   6.691  -0.305 -1.8442  0.2416 -0.8542
  341MOL0     H45989   4.055   6.821  -0.427  3.7772  1.4778  0.2356
  341MOL0     H45990   4.051   6.955  -0.319  0.4077 -0.6787 -1.3779
  341MOL0     H45991   4.195   6.891  -0.163 -0.0900  0.9339 -0.8201
  341MOL0     H45992   4.267   6.866  -0.317  1.2822  2.6628  2.4693
  341MOL0     H45993   4.169   6.618  -0.305 -0.5520 -2.5935  1.3382
  341MOL0     H45994   4.123   6.654  -0.135 -0.8365  1.3148 -0.9634
  341MOL0     H45995   4.336   6.661  -0.429 -1.0984 -1.4361  0.7301
  341MOL0     H45996   4.553   6.603  -0.571 -2.6135  2.7130  0.6174
  341MOL0     H45997   4.775   6.560  -0.867 -1.2672  0.1202  4.8858
  341MOL0     H45998   4.943   6.602  -1.032  0.1925  1.2236 -0.5728
  341MOL0     H45999   5.097   6.695  -1.129  0.6078  0.8271 -0.5205
  341MOL0     H46000   5.222   6.793  -1.041 -0.4136  1.5164 -1.8822
  341MOL0     H46001   5.308   6.758  -1.258 -4.2729 -0.6489 -0.8804
  341MOL0     H46002   5.382   6.634  -1.154 -1.2819 -0.9285  2.2703
  341MOL0     H46003   5.160   6.491  -1.264 -0.3054  0.0820  0.4151
  341MOL0     H46004   5.172   6.624  -1.378 -1.1945  0.3217  1.2885
  341MOL0     H46005   5.421   6.456  -1.316 -0.3456  0.5296  1.2055
  341MOL0     H46006   5.390   6.544  -1.463 -1.7433  2.2562 -0.5414
  341MOL0     H46007   5.176   6.407  -1.494  0.0783  3.7361  1.6615
  341MOL0     H46008   5.228   6.300  -1.368 -0.9444  0.5156 -0.3754
  341MOL0     H46009   5.456   6.278  -1.511  0.4388 -0.4943  0.6569
  341MOL0     H46010   5.309   6.178  -1.526 -1.3358 -0.1326 -2.2535
  341MOL0     H46011   5.437   6.277  -1.750  0.5222 -2.0543  3.1193
  341MOL0     H46012   5.369   6.424  -1.700  0.6803  0.1210  1.1842
  341MOL0     H46013   5.133   6.263  -1.705  0.7426 -1.4102  1.8346
  341MOL0     H46014   5.212   6.325  -1.858  3.1382  0.6802 -0.7784
  341MOL0     H46015   5.243   6.542  -0.740 -0.3759 -2.7135  0.1014
  341MOL0     H46016   5.085   6.554  -0.557 -1.8027  1.9939  0.5389
  341MOL0     H46017   4.758   6.529  -0.208 -2.9826  0.4198  2.9325
  341MOL0     H46018   4.546   6.575  -0.076  2.6457  1.2599  0.6748
  341MOL0     H46019   2.556   6.926   0.085 -0.1909  0.2166 -0.3917
  341MOL0     H46020   2.340   6.806   0.038 -1.1430 -1.1816  1.0383
  341MOL0     H46021   2.196   6.337  -0.018 -0.0984  4.2399 -0.9346
  341MOL0     H46022   2.044   6.154   0.008  2.4947  1.0504  0.3423
  341MOL0     H46023   1.611   6.246   0.134 -0.0635  0.3514 -0.6975
  341MOL0     H46024   1.682   6.189   0.293 -0.7448  0.4196  0.4554
  341MOL0     H46025   1.657   5.965   0.215 -4.9023 -2.5568 -0.1422
  341MOL0     H46026   1.607   6.030   0.058  2.7646 -1.6077 -0.0277
  341MOL0     H46027   1.418   6.130   0.152 -0.7811  0.9209  1.1670
  341MOL0     H46028   1.458   6.103   0.319 -1.5162  0.4691 -0.3709
  341MOL0     H46029   1.389   5.881   0.107 -0.3295  1.1308 -0.7012
  341MOL0     H46030   1.440   5.845   0.264 -2.2306 -0.5576  0.4086
  341MOL0     H46031   1.036   5.933   0.291  0.5533  1.1290  2.3063
  341MOL0     H46032   1.767   6.399   0.234  0.4640 -3.3678 -0.3656
  341MOL0     H46033   1.806   6.637   0.237  0.4567  0.9769 -0.2270
  341MOL0     H46034   1.952   6.649   0.337  1.0332 -0.1296  0.3175
  341MOL0     H46035   1.954   6.721   0.177 -0.3081 -0.8991 -0.9007
  342MOL0     O46036   4.222   9.739   2.987 -0.6151  0.2368 -0.3342
  342MOL0     C46037   4.296   9.749   2.894 -0.5123  1.0277 -0.1942
  342MOL0     O46038   4.302   9.657   2.796  0.1725 -0.1211  0.7679
  342MOL0     C46039   4.229   9.540   2.825  0.7115  0.7752 -0.6983
  342MOL0     C46040   4.249   9.458   2.940 -0.5180  0.0547 -0.0511
  342MOL0     C46041   4.167   9.343   2.959 -0.4793 -0.4640  0.1401
  342MOL0     C46042   4.062   9.318   2.864  0.1591  0.3714 -0.1467
  342MOL0     O46043   3.990   9.199   2.867  0.1400  0.4589  0.7345
  342MOL0     C46044   3.974   9.131   2.997 -0.0258 -0.3921 -0.6012
  342MOL0     C46045   3.852   9.034   2.988  0.2702  0.5271  1.0809
  342MOL0     C46046   3.884   8.942   2.872 -0.0670  0.1685 -0.1498
  342MOL0     C46047   3.803   8.815   2.850  0.3496  1.1914  0.4333
  342MOL0     C46048   3.829   8.702   2.948  0.6774  0.8559  0.4311
  342MOL0     C46049   3.761   8.703   3.087 -0.3230 -0.4317 -0.7451
  342MOL0     C46050   3.609   8.715   3.089 -0.6851  0.5555  0.2451
  342MOL0     C46051   3.530   8.607   3.010  0.5687  0.4518  0.7581
  342MOL0     N46052   3.523   8.481   3.091 -0.2425  0.2628  0.3414
  342MOL0     C46053   3.475   8.475   3.218 -0.9803  0.0848 -0.1713
  342MOL0     C46054   3.479   8.343   3.246  0.4666  0.4842  0.1547
  342MOL0     C46055   3.430   8.294   3.374  0.0866  0.9854 -0.4623
  342MOL0     C46056   3.547   8.231   3.451  0.1762  0.0372 -0.0161
  342MOL0     C46057   3.494   8.131   3.554 -0.5764 -0.1263  0.0808
  342MOL0     C46058   3.605   8.043   3.617  0.3962  0.4403 -0.0526
  342MOL0     O46059   3.687   7.953   3.538 -0.0449  0.3479  0.3081
  342MOL0     C46060   3.825   7.959   3.538  0.2618  0.7790  1.0164
  342MOL0     C46061   3.890   8.076   3.559 -0.6396 -0.1246 -0.0219
  342MOL0     C46062   4.032   8.078   3.556 -0.4621 -0.1058 -0.1252
  342MOL0     C46063   4.103   7.963   3.513 -0.6972  0.2953  0.0168
  342MOL0     C46064   4.244   7.969   3.460  0.7965  0.8706  0.6813
  342MOL0     O46065   4.323   7.857   3.463  0.0130  0.3747 -0.5225
  342MOL0     C46066   4.440   7.850   3.390  1.1405  0.2348 -0.3014
  342MOL0     C46067   4.460   7.732   3.316  0.2703  0.5832  0.3153
  342MOL0     C46068   4.578   7.709   3.243  0.2939 -0.0312 -0.3570
  342MOL0     C46069   4.687   7.801   3.249  0.4501  1.1684 -0.3937
  342MOL0     O46070   4.806   7.750   3.197 -0.6151  0.0051  1.1068
  342MOL0     C46071   4.925   7.827   3.186 -0.5193 -0.0447 -0.0977
  342MOL0     C46072   4.994   7.805   3.317 -0.0349  0.6771 -0.3683
  342MOL0     C46073   5.133   7.861   3.325 -0.4995  0.4272 -0.0676
  342MOL0     C46074   5.201   7.820   3.456  0.1099 -0.1027  0.2918
  342MOL0     C46075   5.342   7.887   3.474  0.3367 -0.4187  0.8506
  342MOL0     C46076   5.462   7.867   3.375 -0.4925  0.9877  0.5484
  342MOL0     C46077   5.568   7.971   3.398  0.2069  0.9789  0.1601
  342MOL0     C46078   5.678   7.972   3.293  0.5964  0.5176 -0.5781
  342MOL0    Cl46079   5.743   7.809   3.265  0.0489 -0.3566  0.1043
  342MOL0     C46080   4.664   7.917   3.308  0.4010 -0.0045 -0.8732
  342MOL0     C46081   4.543   7.940   3.387 -0.3248  0.3868 -0.1250
  342MOL0     O46082   4.272   8.073   3.397 -0.0901  0.8030 -0.3422
  342MOL0     C46083   4.038   7.845   3.497  0.4870  0.6083 -0.1278
  342MOL0     C46084   3.897   7.843   3.502  0.1295  0.4400  0.4573
  342MOL0     N46085   3.521   8.267   3.138  0.0302  0.8268 -0.7888
  342MOL0     N46086   3.531   8.354   3.047  0.2600  0.2236  0.4067
  342MOL0     C46087   4.035   9.407   2.763 -0.0951 -0.7126  0.3489
  342MOL0     C46088   4.120   9.521   2.746 -0.6180  0.4938  0.1752
  342MOL0     C46089   4.402   9.851   2.892  0.0946 -0.3538 -0.5263
  342MOL0     C46090   4.513   9.836   2.803 -0.0975  0.0440 -0.2110
  342MOL0     C46091   4.625   9.915   2.800  0.3120  0.1546 -0.6659
  342MOL0     C46092   4.628  10.021   2.885  0.1057 -0.4479  0.1222
  342MOL0     O46093   4.738  10.101   2.910 -0.2310 -0.2272 -0.0245
  342MOL0     C46094   4.756  10.201   2.812  1.2746 -0.0238 -0.3256
  342MOL0     C46095   4.757  10.335   2.879 -0.3956 -0.1033  0.1709
  342MOL0     C46096   4.896  10.347   2.948 -0.0259 -0.4402 -0.4137
  342MOL0     C46097   4.943  10.488   2.996 -0.0664  0.7860  0.2679
  342MOL0     C46098   5.054  10.490   3.077 -0.7923  0.3511 -0.3077
  342MOL0     C46099   5.164  10.483   3.128 -0.4615 -0.7587 -0.0714
  342MOL0     C46100   4.528  10.033   2.979 -0.4570 -0.5234 -0.1850
  342MOL0     C46101   4.415   9.960   2.982  0.1611  0.6888  0.1913
  342MOL0     C46102   4.307  10.003   3.082 -0.0218 -0.0831 -0.2545
  342MOL0     H46103   4.331   9.485   3.005  0.4174  1.1799 -1.6347
  342MOL0     H46104   4.171   9.276   3.044  2.2434  0.6943  1.0278
  342MOL0     H46105   4.066   9.077   3.021 -0.7817 -1.2339  0.4739
  342MOL0     H46106   3.948   9.206   3.071  0.3313 -0.4576 -0.4100
  342MOL0     H46107   3.756   9.083   2.969 -1.4800 -3.1254 -0.3811
  342MOL0     H46108   3.844   8.985   3.086 -1.1283  0.5802  1.0128
  342MOL0     H46109   3.985   8.902   2.880  0.6724  1.6940 -1.2740
  342MOL0     H46110   3.877   8.996   2.777  0.6531  1.8049  0.6895
  342MOL0     H46111   3.698   8.844   2.843  0.9258  3.2527 -0.6864
  342MOL0     H46112   3.838   8.780   2.753 -0.3196 -1.4750  1.0690
  342MOL0     H46113   3.803   8.615   2.887  0.9685  1.4441 -0.5643
  342MOL0     H46114   3.935   8.684   2.968  1.1164 -1.2495 -2.9447
  342MOL0     H46115   3.783   8.605   3.131  0.3038 -0.8809 -2.0071
  342MOL0     H46116   3.801   8.771   3.163 -1.1181 -0.0424 -0.6682
  342MOL0     H46117   3.577   8.810   3.046 -0.1252  0.5255 -0.2479
  342MOL0     H46118   3.590   8.712   3.197  1.7464 -2.1719  0.7284
  342MOL0     H46119   3.430   8.651   3.009  0.0472 -0.6990  0.6005
  342MOL0     H46120   3.574   8.589   2.911  1.8370 -0.1647  1.4079
  342MOL0     H46121   3.441   8.553   3.285  1.3763 -0.5081  1.8423
  342MOL0     H46122   3.396   8.380   3.431 -1.2105  2.2696 -3.0354
  342MOL0     H46123   3.358   8.216   3.348  1.8775 -0.6607 -0.7388
  342MOL0     H46124   3.617   8.180   3.383 -1.4904 -1.6389 -0.5379
  342MOL0     H46125   3.597   8.318   3.495 -0.2389 -0.8349  2.3040
  342MOL0     H46126   3.427   8.063   3.501  0.3624 -0.4061 -0.7769
  342MOL0     H46127   3.449   8.197   3.629  1.2936 -0.5164  1.6344
  342MOL0     H46128   3.545   7.983   3.686  0.1247  3.5233  2.6325
  342MOL0     H46129   3.658   8.104   3.692 -3.3476  4.0202  0.0475
  342MOL0     H46130   3.825   8.162   3.572 -3.0346 -1.3723 -2.8027
  342MOL0     H46131   4.093   8.168   3.564 -1.1216  0.2776  0.7440
  342MOL0     H46132   4.389   7.651   3.327  1.8913 -0.6742  2.1465
  342MOL0     H46133   4.605   7.616   3.195  3.2918  0.3038  0.4700
  342MOL0     H46134   4.990   7.780   3.111 -3.5216 -0.9628 -2.3407
  342MOL0     H46135   4.903   7.931   3.161 -1.2569 -0.4939 -1.4330
  342MOL0     H46136   4.929   7.856   3.389 -1.7976  0.6747 -1.8780
  342MOL0     H46137   5.002   7.699   3.343  5.6100  1.3008  1.7560
  342MOL0     H46138   5.185   7.814   3.241  0.2737  1.1473 -0.0127
  342MOL0     H46139   5.139   7.970   3.315 -0.3546  0.7071  2.5224
  342MOL0     H46140   5.214   7.712   3.462  0.8769 -0.1039 -0.9524
  342MOL0     H46141   5.129   7.845   3.534 -0.5050 -0.7222 -0.0610
  342MOL0     H46142   5.379   7.857   3.572  2.3099  1.2090  0.6924
  342MOL0     H46143   5.325   7.995   3.482 -0.3115 -0.3904 -0.6172
  342MOL0     H46144   5.513   7.772   3.393 -1.0566  0.6975  0.6151
  342MOL0     H46145   5.439   7.855   3.269 -0.4772  1.0420  0.5384
  342MOL0     H46146   5.613   7.944   3.494 -0.5287 -1.1214 -0.0351
  342MOL0     H46147   5.517   8.067   3.399  0.3483  1.0590  1.2829
  342MOL0     H46148   5.640   8.016   3.200  1.8593  3.2344  0.0984
  342MOL0     H46149   5.754   8.038   3.336  0.6370 -0.5171  0.9993
  342MOL0     H46150   4.749   7.984   3.319  0.3472 -0.2337  1.2051
  342MOL0     H46151   4.529   8.032   3.443 -3.9093 -0.8163  1.2496
  342MOL0     H46152   4.102   7.759   3.482 -0.7296 -0.2992 -0.3037
  342MOL0     H46153   3.844   7.749   3.490  2.0477 -1.1448  3.2692
  342MOL0     H46154   3.954   9.392   2.692 -1.3880  0.2889  1.5652
  342MOL0     H46155   4.093   9.599   2.675 -3.5891 -1.2575 -0.8123
  342MOL0     H46156   4.529   9.759   2.728  4.6062  0.7138 -0.2098
  342MOL0     H46157   4.708   9.889   2.734 -0.5249  1.8598 -2.4883
  342MOL0     H46158   4.673  10.200   2.740  3.3727  2.3754 -3.0295
  342MOL0     H46159   4.848  10.189   2.754  2.3307  1.7875  0.8828
  342MOL0     H46160   4.674  10.363   2.944 -4.0294 -1.1900 -3.6216
  342MOL0     H46161   4.753  10.409   2.799 -6.0116  0.7697  0.8632
  342MOL0     H46162   4.966  10.328   2.866 -3.5048 -0.2935 -3.7183
  342MOL0     H46163   4.891  10.289   3.040  1.4103  0.5106  0.3036
  342MOL0     H46164   4.963  10.558   2.913  1.0112  1.0801  0.7587
  342MOL0     H46165   4.859  10.540   3.043 -1.4613 -0.5943 -0.6074
  342MOL0     H46166   5.263  10.484   3.169 -0.1627 -2.6437 -0.6702
  342MOL0     H46167   4.535  10.109   3.056 -1.5761  1.3860 -1.8710
  342MOL0     H46168   4.303   9.948   3.176  1.5088  0.4430  0.1543
  342MOL0     H46169   4.334  10.105   3.111  5.8627 -1.2835 -0.2896
  342MOL0     H46170   4.208  10.001   3.035  0.9721  0.2004 -2.5201
  343MOL0     O46171   0.451  10.243   9.920 -0.1289  0.0367  0.9675
  343MOL0     C46172   0.536  10.313   9.964  0.2284 -0.5454 -0.7483
  343MOL0     O46173   0.514  10.414  10.047 -0.0134  0.4869 -0.7148
  343MOL0     C46174   0.391  10.437  10.105 -0.6414  0.6027 -1.1447
  343MOL0     C46175   0.372  10.429  10.245 -0.3659  0.3380  0.2804
  343MOL0     C46176   0.243  10.462  10.298  0.3014 -0.4726  0.3883
  343MOL0     C46177   0.133  10.486  10.209 -1.1644  0.5224  0.7013
  343MOL0     O46178   0.006  10.522  10.241 -0.0582  0.0190  0.6439
  343MOL0     C46179  -0.019  10.607  10.357  0.8912  0.0870 -0.4129
  343MOL0     C46180  -0.165  10.663  10.368  0.0337  0.9785  0.6450
  343MOL0     C46181  -0.188  10.716  10.507  0.3142 -1.4420 -0.0219
  343MOL0     C46182  -0.332  10.755  10.535  0.0216  0.6920  0.4644
  343MOL0     C46183  -0.337  10.881  10.624 -0.0649  0.3796 -0.3572
  343MOL0     C46184  -0.484  10.945  10.623  0.3719  0.9654 -0.3107
  343MOL0     C46185  -0.495  11.061  10.725  0.0230  0.5916 -0.7435
  343MOL0     C46186  -0.376  11.153  10.728  0.4000  0.6152  0.1854
  343MOL0     N46187  -0.401  11.290  10.775 -0.0552  0.1344  0.1098
  343MOL0     C46188  -0.315  11.361  10.863  0.0453  0.4284 -0.2376
  343MOL0     C46189  -0.384  11.477  10.892 -0.2769 -0.6910  0.2157
  343MOL0     C46190  -0.352  11.584  10.993  0.6048  0.4954  0.3090
  343MOL0     C46191  -0.200  11.612  10.985 -0.1124 -0.4210 -0.1639
  343MOL0     C46192  -0.182  11.752  11.042 -0.0464  0.0956  0.0589
  343MOL0     C46193  -0.036  11.785  11.086  0.7928 -0.0104  0.0538
  343MOL0     O46194  -0.011  11.702  11.200  0.1456 -0.2406  0.1160
  343MOL0     C46195   0.113  11.709  11.252 -0.3893  0.4425 -0.0724
  343MOL0     C46196   0.138  11.732  11.387  0.1864  1.2591  0.7309
  343MOL0     C46197   0.268  11.727  11.435 -0.1279 -0.5023 -0.0688
  343MOL0     C46198   0.377  11.686  11.350 -0.5001 -0.6736 -0.3601
  343MOL0     C46199   0.515  11.661  11.390 -0.0566  0.2887 -0.3288
  343MOL0     O46200   0.604  11.591  11.309  0.8562 -0.7188  0.3194
  343MOL0     C46201   0.734  11.578  11.332  0.2992 -0.3920 -0.4190
  343MOL0     C46202   0.808  11.656  11.423 -0.2669 -0.1351 -0.3944
  343MOL0     C46203   0.945  11.648  11.424  0.2690  0.1198 -0.2763
  343MOL0     C46204   1.013  11.563  11.345  0.3320 -0.2678  0.3886
  343MOL0     O46205   1.153  11.539  11.342 -0.2046 -0.0278 -0.8418
  343MOL0     C46206   1.235  11.651  11.373  0.3040 -0.4994 -0.7017
  343MOL0     C46207   1.367  11.652  11.304  0.2750 -0.8041  0.2422
  343MOL0     C46208   1.463  11.586  11.390 -0.8007  0.5613 -1.0241
  343MOL0     C46209   1.605  11.573  11.330  0.9329 -0.2829  0.0812
  343MOL0     C46210   1.684  11.466  11.413  0.2920 -0.8490 -0.4841
  343MOL0     C46211   1.829  11.506  11.454  1.5764  0.3715 -0.9212
  343MOL0     C46212   1.886  11.386  11.537  0.1382 -1.1861 -0.4685
  343MOL0     C46213   2.034  11.421  11.568 -0.1904  0.7683 -0.3685
  343MOL0    Cl46214   2.065  11.599  11.610 -0.0746 -0.3540  0.1283
  343MOL0     C46215   0.932  11.475  11.262  0.4207 -0.3898  0.6813
  343MOL0     C46216   0.795  11.485  11.246  0.5971  0.0783 -0.0937
  343MOL0     O46217   0.543  11.715  11.499  0.7870 -0.1320 -0.3095
  343MOL0     C46218   0.345  11.658  11.214 -0.2230 -0.6770 -0.2362
  343MOL0     C46219   0.215  11.664  11.164  0.2495  0.1107 -0.2036
  343MOL0     N46220  -0.500  11.475  10.819  0.3160 -0.6943 -0.3842
  343MOL0     N46221  -0.507  11.366  10.752  1.2330 -0.0531  0.5951
  343MOL0     C46222   0.154  10.480  10.071 -0.5951  0.2870 -0.0129
  343MOL0     C46223   0.281  10.459  10.018 -0.2077 -0.6840 -0.8446
  343MOL0     C46224   0.675  10.294   9.912  0.2941 -0.5917  1.1064
  343MOL0     C46225   0.779  10.381   9.966 -0.0778  1.7860 -0.0711
  343MOL0     C46226   0.910  10.373   9.923  0.1672  0.6740  0.8462
  343MOL0     C46227   0.947  10.275   9.836 -0.8431 -0.2648  0.8754
  343MOL0     O46228   1.074  10.232   9.819  0.3329  0.0131 -0.4807
  343MOL0     C46229   1.182  10.312   9.875  0.1042  0.0315  0.3463
  343MOL0     C46230   1.323  10.273   9.827  0.6745 -0.1164 -0.9189
  343MOL0     C46231   1.441  10.361   9.888 -0.9953 -0.4486 -0.1403
  343MOL0     C46232   1.451  10.515   9.854  1.0807  0.7466  1.0053
  343MOL0     C46233   1.483  10.536   9.715 -1.1140  0.1960  0.1286
  343MOL0     C46234   1.518  10.520   9.597  0.4158  0.5373 -0.0326
  343MOL0     C46235   0.854  10.187   9.776 -0.2412 -0.3411  0.3470
  343MOL0     C46236   0.716  10.195   9.808 -0.9984 -0.5510  0.4680
  343MOL0     C46237   0.622  10.094   9.741 -0.6630 -0.6359 -0.5047
  343MOL0     H46238   0.443  10.386  10.314 -4.4303 -3.5885  2.5148
  343MOL0     H46239   0.218  10.462  10.403  0.7216  0.3295  0.4959
  343MOL0     H46240   0.003  10.543  10.443  1.1310 -2.2085 -2.1036
  343MOL0     H46241   0.058  10.686  10.359  0.1495  0.9362 -2.3918
  343MOL0     H46242  -0.234  10.580  10.351  1.2253  0.2185 -0.7716
  343MOL0     H46243  -0.165  10.731  10.283  0.1815  1.3758  0.9622
  343MOL0     H46244  -0.128  10.807  10.491 -0.0163 -1.2531 -0.1973
  343MOL0     H46245  -0.140  10.661  10.588 -1.2297 -0.5834  1.5457
  343MOL0     H46246  -0.396  10.773  10.449 -0.5983  1.0984  1.0008
  343MOL0     H46247  -0.384  10.673  10.586 -1.7698  4.2049  4.9204
  343MOL0     H46248  -0.312  10.865  10.729 -0.9925  3.2924  0.4090
  343MOL0     H46249  -0.260  10.954  10.598  1.0317 -0.7138 -0.2503
  343MOL0     H46250  -0.522  10.975  10.525 -0.1948  0.8795 -0.1196
  343MOL0     H46251  -0.555  10.869  10.657  0.4995  0.0634 -1.9674
  343MOL0     H46252  -0.522  11.020  10.823 -0.5631  0.4405 -0.9629
  343MOL0     H46253  -0.579  11.117  10.684 -0.1051  0.4006 -0.7443
  343MOL0     H46254  -0.301  11.106  10.792  0.2024 -2.0024 -1.3639
  343MOL0     H46255  -0.342  11.162  10.624  0.7960 -0.1543  0.2368
  343MOL0     H46256  -0.226  11.327  10.915 -0.5899 -0.7759  0.1083
  343MOL0     H46257  -0.410  11.676  10.977  1.4991  1.0979  0.4813
  343MOL0     H46258  -0.382  11.547  11.092  0.4218  1.3577  0.5838
  343MOL0     H46259  -0.149  11.541  11.051 -1.7026 -1.0833  0.4255
  343MOL0     H46260  -0.166  11.619  10.882 -0.9255  2.2200 -0.3323
  343MOL0     H46261  -0.258  11.777  11.117 -1.0286 -0.9645 -0.5573
  343MOL0     H46262  -0.207  11.810  10.952  0.4408  2.1451  1.1839
  343MOL0     H46263  -0.037  11.891  11.111 -1.4968  0.3774 -1.4181
  343MOL0     H46264   0.036  11.777  11.004  0.3375  3.1826 -0.7787
  343MOL0     H46265   0.054  11.751  11.454 -1.9856 -0.5610 -1.2840
  343MOL0     H46266   0.292  11.756  11.537 -4.3905  3.3300  0.1685
  343MOL0     H46267   0.766  11.737  11.482 -1.5965  0.3075 -1.8892
  343MOL0     H46268   1.005  11.711  11.490  2.2933 -3.0733  1.2236
  343MOL0     H46269   1.189  11.738  11.324  0.4444  0.5237  0.8858
  343MOL0     H46270   1.237  11.655  11.482  1.7824  1.1158 -0.7354
  343MOL0     H46271   1.357  11.608  11.204 -1.9172  1.7575 -0.8001
  343MOL0     H46272   1.386  11.758  11.286 -2.8926  0.7771  4.4743
  343MOL0     H46273   1.474  11.651  11.478 -1.4990 -1.2054  0.4504
  343MOL0     H46274   1.419  11.490  11.418 -0.3017  0.4864 -0.4688
  343MOL0     H46275   1.646  11.674  11.331  0.7016 -0.1795 -0.2468
  343MOL0     H46276   1.601  11.556  11.222 -1.0151 -1.3049  0.2582
  343MOL0     H46277   1.680  11.374  11.353 -0.3397 -0.1243 -1.5987
  343MOL0     H46278   1.628  11.459  11.507  1.4527 -0.3669  0.2521
  343MOL0     H46279   1.894  11.519  11.367  2.3307  2.8816 -0.0686
  343MOL0     H46280   1.822  11.596  11.515 -1.8460 -0.0464 -0.4782
  343MOL0     H46281   1.887  11.286  11.494  0.7436 -1.2210 -0.3857
  343MOL0     H46282   1.833  11.386  11.633 -0.7379  1.6891 -0.8493
  343MOL0     H46283   2.076  11.353  11.644 -1.5390  1.9064  1.4931
  343MOL0     H46284   2.098  11.399  11.482  1.7964 -0.4716  1.3194
  343MOL0     H46285   0.991  11.403  11.206 -1.4417 -1.2272 -0.3063
  343MOL0     H46286   0.734  11.427  11.177 -2.1640  0.9818  1.4225
  343MOL0     H46287   0.414  11.619  11.140 -0.6067 -0.8049 -0.5265
  343MOL0     H46288   0.194  11.661  11.058 -0.4961  2.4426 -0.1824
  343MOL0     H46289   0.063  10.495  10.013  0.3558  2.6150 -1.0574
  343MOL0     H46290   0.292  10.450   9.911 -0.4961  1.5915 -1.1165
  343MOL0     H46291   0.751  10.452  10.043  1.8058 -0.1651  2.6030
  343MOL0     H46292   0.970  10.432   9.993 -1.6928  0.3007  2.8699
  343MOL0     H46293   1.166  10.310   9.983  0.3723  0.7819  0.4055
  343MOL0     H46294   1.166  10.418   9.851 -1.6193 -0.2321  0.1976
  343MOL0     H46295   1.327  10.288   9.719 -1.9654  1.1141 -0.9271
  343MOL0     H46296   1.333  10.165   9.844 -0.2871 -0.6732 -3.3794
  343MOL0     H46297   1.533  10.306   9.865 -1.1321 -2.8222  4.0096
  343MOL0     H46298   1.431  10.355   9.997  0.5044 -2.3177 -0.0657
  343MOL0     H46299   1.348  10.545   9.871 -0.1704 -2.3972 -0.2719
  343MOL0     H46300   1.515  10.575   9.919  1.3202  1.2272  0.3424
  343MOL0     H46301   1.540  10.527   9.493 -0.9234 -1.5451 -0.5258
  343MOL0     H46302   0.893  10.116   9.704  0.8410  2.2185 -1.7483
  343MOL0     H46303   0.562  10.166   9.684  0.8962 -0.5483 -2.1148
  343MOL0     H46304   0.655  10.027   9.661 -3.7755 -1.5847 -1.1158
  343MOL0     H46305   0.557  10.032   9.804 -2.6858  0.1372 -1.7301
  344MOL0     O46306  10.575   7.298  10.026  0.1683  0.4192  0.2696
  344MOL0     C46307  10.531   7.199  10.084  0.4364 -0.8796  0.4703
  344MOL0     O46308  10.574   7.074  10.066 -0.1513 -0.4096 -0.9587
  344MOL0     C46309  10.691   7.054   9.991  0.2724 -0.4210 -0.2644
  344MOL0     C46310  10.826   7.077  10.030  0.5093 -0.4389 -0.3585
  344MOL0     C46311  10.926   7.043   9.944 -0.7797  0.5636 -0.6703
  344MOL0     C46312  10.905   6.972   9.824 -0.0609  0.2328 -0.3663
  344MOL0     O46313  10.997   6.927   9.735 -1.0264  0.6121 -0.1939
  344MOL0     C46314  11.133   6.977   9.743 -1.1289  0.1617 -0.0758
  344MOL0     C46315  11.219   6.899   9.638 -0.3605  0.1987 -0.1923
  344MOL0     C46316  11.365   6.929   9.664 -1.0405  0.6783 -0.1348
  344MOL0     C46317  11.452   6.890   9.542 -0.0116  0.2228 -0.3071
  344MOL0     C46318  11.597   6.918   9.549 -0.1829 -0.0094  0.4278
  344MOL0     C46319  11.673   6.935   9.419 -0.7688  0.8019 -0.4423
  344MOL0     C46320  11.648   7.068   9.359 -0.7138 -0.4645 -0.6029
  344MOL0     C46321  11.769   7.125   9.295  0.9777  0.7545  1.2532
  344MOL0     N46322  11.856   7.202   9.390  0.5030 -0.9124 -0.1102
  344MOL0     C46323  11.864   7.339   9.385 -1.3278 -0.8553 -0.2810
  344MOL0     C46324  11.965   7.381   9.467  0.1272  0.1601 -0.2891
  344MOL0     C46325  12.009   7.522   9.487  0.5594  0.0980  0.1674
  344MOL0     C46326  12.165   7.519   9.474 -0.7368  0.6535  0.7713
  344MOL0     C46327  12.233   7.488   9.335 -1.1855 -0.5869  0.0536
  344MOL0     C46328  12.195   7.356   9.264 -0.5303 -0.6178 -0.2892
  344MOL0     O46329  12.071   7.377   9.194 -0.1832  0.5749  0.9708
  344MOL0     C46330  12.036   7.274   9.113  0.1161  0.3200 -0.3524
  344MOL0     C46331  12.110   7.157   9.085  0.4734 -0.1474  0.5366
  344MOL0     C46332  12.065   7.060   8.988 -1.2117  0.2365  0.1504
  344MOL0     C46333  11.948   7.079   8.914  0.2633 -0.0714  0.3386
  344MOL0     C46334  11.894   6.987   8.816 -0.7986  0.2077 -0.0865
  344MOL0     O46335  11.961   6.876   8.792  0.3730 -0.1792  0.7647
  344MOL0     C46336  11.935   6.796   8.683  0.2292 -0.4689  0.3358
  344MOL0     C46337  11.923   6.830   8.544  0.3530  0.1900 -0.4115
  344MOL0     C46338  11.901   6.739   8.446 -0.2247  0.1996 -0.1889
  344MOL0     C46339  11.899   6.601   8.483 -1.0324 -0.1761  0.7639
  344MOL0     O46340  11.890   6.519   8.371  0.1637  0.2348  0.2194
  344MOL0     C46341  11.934   6.383   8.387  1.1367  0.2074  0.3470
  344MOL0     C46342  11.881   6.304   8.271  0.7328  0.6380 -0.4680
  344MOL0     C46343  11.733   6.320   8.259 -0.0260  0.4260 -0.7216
  344MOL0     C46344  11.683   6.229   8.144  0.3172 -0.1305  0.6723
  344MOL0     C46345  11.531   6.217   8.132 -0.0306 -1.2155 -0.6478
  344MOL0     C46346  11.475   6.109   8.042  0.2788  1.0710 -0.2187
  344MOL0     C46347  11.329   6.140   8.003  0.2644  0.2017 -0.2913
  344MOL0     C46348  11.229   6.121   8.121  1.2480 -0.0491  0.6166
  344MOL0    Cl46349  11.079   6.032   8.071 -0.0074  0.5575  0.0975
  344MOL0     C46350  11.909   6.561   8.620  0.5431 -0.4912  0.0454
  344MOL0     C46351  11.927   6.657   8.717  0.4334 -0.3963  0.7046
  344MOL0     O46352  11.784   7.010   8.773 -0.0866 -0.1691  0.2341
  344MOL0     C46353  11.877   7.194   8.944 -0.7707  0.3148  0.2115
  344MOL0     C46354  11.924   7.289   9.035  0.1785 -0.7501  0.7208
  344MOL0     N46355  12.002   7.260   9.540 -0.1554 -0.4507 -0.3635
  344MOL0     N46356  11.940   7.164   9.485  0.4087  0.9098 -0.0127
  344MOL0     C46357  10.782   6.948   9.795  1.0346  0.4742 -0.5131
  344MOL0     C46358  10.675   6.986   9.872  0.3465 -0.1541  0.0683
  344MOL0     C46359  10.406   7.214  10.159 -0.0210 -0.1762  0.1634
  344MOL0     C46360  10.313   7.311  10.119  0.0784  0.3657  0.2070
  344MOL0     C46361  10.179   7.312  10.165 -0.9965 -0.1355  0.6306
  344MOL0     C46362  10.141   7.221  10.269  0.0794 -0.1969  1.0557
  344MOL0     O46363  10.007   7.204  10.305 -0.1549 -0.1934 -0.4448
  344MOL0     C46364   9.903   7.284  10.254 -0.2835  0.1774 -0.6778
  344MOL0     C46365   9.766   7.263  10.335  0.4631 -1.1590 -1.0396
  344MOL0     C46366   9.742   7.133  10.407  0.8436 -0.3507  0.6786
  344MOL0     C46367   9.736   7.018  10.305  0.1631  0.3016  0.9452
  344MOL0     C46368   9.685   6.896  10.364  1.1189  0.2289  1.4635
  344MOL0     C46369   9.623   6.798  10.415  0.7642  0.1384  0.1793
  344MOL0     C46370  10.239   7.127  10.317 -0.4558 -0.8841  0.4561
  344MOL0     C46371  10.368   7.121  10.260 -0.0500 -0.4891  0.0471
  344MOL0     C46372  10.450   7.019  10.320 -1.3741 -0.2635 -0.5076
  344MOL0     H46373  10.854   7.117  10.127  0.7336 -0.9945 -0.1926
  344MOL0     H46374  11.024   7.075   9.977 -0.7268 -1.8464  1.8311
  344MOL0     H46375  11.144   7.084   9.723 -0.2106 -0.0123 -0.5570
  344MOL0     H46376  11.170   6.962   9.845 -2.8895  2.8449  1.0606
  344MOL0     H46377  11.177   6.930   9.542 -2.0165  0.4118  0.5602
  344MOL0     H46378  11.198   6.792   9.649 -0.9040 -0.0131 -2.6122
  344MOL0     H46379  11.400   6.872   9.750  1.3556 -1.7760 -2.5182
  344MOL0     H46380  11.373   7.038   9.671 -0.8472  0.5645  1.8638
  344MOL0     H46381  11.443   6.785   9.511  1.6846  0.2413 -0.9654
  344MOL0     H46382  11.406   6.951   9.464  1.5345 -0.2993 -1.6914
  344MOL0     H46383  11.619   7.005   9.611  1.7234 -2.0959  2.9389
  344MOL0     H46384  11.636   6.827   9.597  0.4862 -0.4842 -0.9794
  344MOL0     H46385  11.781   6.925   9.433 -0.9893 -2.0998 -0.2621
  344MOL0     H46386  11.648   6.857   9.347  1.5517 -0.1648 -0.2885
  344MOL0     H46387  11.605   7.144   9.425 -2.7898 -2.0034 -0.0633
  344MOL0     H46388  11.567   7.050   9.288 -0.5476 -0.2427 -0.8498
  344MOL0     H46389  11.828   7.055   9.235 -0.1935  2.3064 -1.9325
  344MOL0     H46390  11.733   7.198   9.223  1.3256  1.2904  1.6204
  344MOL0     H46391  11.807   7.402   9.318 -0.1459  1.2015  0.5171
  344MOL0     H46392  11.952   7.590   9.423 -3.0281 -0.3314  2.5947
  344MOL0     H46393  11.984   7.547   9.591 -0.4595  0.6209 -0.1860
  344MOL0     H46394  12.198   7.621   9.499 -1.4740  0.4220  2.9571
  344MOL0     H46395  12.209   7.450   9.546 -0.3934 -1.1414 -1.0787
  344MOL0     H46396  12.339   7.500   9.358 -1.2101 -1.0961  0.4598
  344MOL0     H46397  12.217   7.572   9.267  0.8045 -1.4317 -1.5745
  344MOL0     H46398  12.177   7.279   9.339  2.7131 -0.5241  0.7604
  344MOL0     H46399  12.282   7.332   9.202  0.7023  0.1281  1.0765
  344MOL0     H46400  12.205   7.150   9.137  1.3611  0.9071 -0.8598
  344MOL0     H46401  12.119   6.966   8.985 -0.5897  0.5510 -3.7127
  344MOL0     H46402  11.941   6.930   8.505  2.2232 -0.4642 -1.3308
  344MOL0     H46403  11.906   6.759   8.339  2.6006  2.7328  0.2837
  344MOL0     H46404  12.043   6.380   8.377  0.9540  0.2018 -2.6041
  344MOL0     H46405  11.885   6.331   8.469 -4.1965  1.1706 -1.8157
  344MOL0     H46406  11.921   6.330   8.173 -0.2477  0.6573 -0.8744
  344MOL0     H46407  11.906   6.200   8.295  1.1682  0.1344 -2.8712
  344MOL0     H46408  11.686   6.288   8.353  1.9048  1.3015  0.6140
  344MOL0     H46409  11.695   6.422   8.249 -2.3239  0.0030  2.1034
  344MOL0     H46410  11.712   6.127   8.168  0.0393 -0.3109  0.2638
  344MOL0     H46411  11.730   6.267   8.053 -1.0073  0.6784  0.2910
  344MOL0     H46412  11.503   6.311   8.084  1.2443 -1.8595 -2.7784
  344MOL0     H46413  11.488   6.211   8.233  0.4834  1.9987 -0.1257
  344MOL0     H46414  11.534   6.117   7.950  1.3699 -2.2461  0.0631
  344MOL0     H46415  11.483   6.010   8.088  0.0033  1.8979  1.6843
  344MOL0     H46416  11.296   6.074   7.922  0.4747 -0.6866  0.3365
  344MOL0     H46417  11.325   6.242   7.964  3.0142  0.3452 -0.4125
  344MOL0     H46418  11.264   6.058   8.203 -2.8352 -1.3091  1.6000
  344MOL0     H46419  11.207   6.216   8.170 -3.6814 -1.7072  2.1292
  344MOL0     H46420  11.907   6.456   8.644 -0.2495 -0.5698 -0.3046
  344MOL0     H46421  11.939   6.630   8.822 -3.3325 -3.6878  0.5739
  344MOL0     H46422  11.784   7.224   8.897  0.8627  1.9617 -2.2429
  344MOL0     H46423  11.871   7.384   9.026 -2.7834 -2.5155 -3.1150
  344MOL0     H46424  10.758   6.890   9.706 -0.1157 -1.6584  1.0955
  344MOL0     H46425  10.579   6.954   9.833  0.6127  0.1885 -0.9100
  344MOL0     H46426  10.339   7.383  10.042  1.5056 -0.7724 -0.4260
  344MOL0     H46427  10.107   7.389  10.138 -2.0978 -0.5087  2.3439
  344MOL0     H46428   9.883   7.261  10.149 -2.8731  1.2222 -0.4976
  344MOL0     H46429   9.943   7.386  10.252  2.0682 -0.6591 -0.0935
  344MOL0     H46430   9.682   7.307  10.281  1.2545  2.6742  0.4776
  344MOL0     H46431   9.774   7.327  10.424  1.2510 -2.2771 -0.2791
  344MOL0     H46432   9.660   7.136  10.480  0.9943 -0.4760  0.8551
  344MOL0     H46433   9.831   7.113  10.467  0.5671 -0.2999  1.1064
  344MOL0     H46434   9.676   7.050  10.219 -1.1114 -5.3015 -0.6907
  344MOL0     H46435   9.835   6.995  10.264  0.4206 -2.3322  2.8164
  344MOL0     H46436   9.582   6.717  10.472 -0.8059  1.6291  1.2780
  344MOL0     H46437  10.203   7.049  10.383 -1.2267  0.0365  1.1450
  344MOL0     H46438  10.552   7.053  10.340 -2.0084  1.9054 -0.6929
  344MOL0     H46439  10.412   6.999  10.420  0.3149  1.5501  0.5668
  344MOL0     H46440  10.459   6.930  10.257  1.2636 -0.1845 -0.3426
  345MOL0     O46441   0.348   2.227   0.144 -0.0182 -0.6471  0.5646
  345MOL0     C46442   0.272   2.144   0.087 -0.7571  0.5837 -0.7630
  345MOL0     O46443   0.286   2.097  -0.037  0.1281  0.6617  0.0877
  345MOL0     C46444   0.384   2.152  -0.123 -0.1414 -0.4944  0.2535
  345MOL0     C46445   0.428   2.072  -0.224  0.0420 -0.8327  0.7941
  345MOL0     C46446   0.533   2.102  -0.295  0.8266 -0.8070 -0.2969
  345MOL0     C46447   0.586   2.224  -0.290 -0.2537 -0.0556  0.7979
  345MOL0     O46448   0.685   2.243  -0.383 -0.4630  0.4180  0.0572
  345MOL0     C46449   0.760   2.366  -0.390 -0.3130 -1.2439  0.2000
  345MOL0     C46450   0.878   2.376  -0.289  0.8592 -0.5561  0.2532
  345MOL0     C46451   0.970   2.492  -0.325  0.7133  0.2375 -0.6794
  345MOL0     C46452   1.110   2.475  -0.257 -0.8663  0.0494  0.5595
  345MOL0     C46453   1.209   2.585  -0.293  0.2006  0.2480  0.4166
  345MOL0     C46454   1.341   2.588  -0.216 -0.0544  0.0702 -0.3154
  345MOL0     C46455   1.439   2.683  -0.279  0.2638  1.0945 -0.1809
  345MOL0     C46456   1.503   2.615  -0.404 -0.3327 -0.7493  0.4782
  345MOL0     N46457   1.582   2.706  -0.477 -0.0532 -0.3516 -0.7564
  345MOL0     C46458   1.715   2.724  -0.457  0.2348 -0.4625  0.2648
  345MOL0     C46459   1.751   2.811  -0.552 -0.4502 -0.2524 -0.2017
  345MOL0     C46460   1.887   2.865  -0.581 -0.4910  0.1252 -0.7633
  345MOL0     C46461   1.897   3.004  -0.651  0.8298 -1.3611  0.6382
  345MOL0     C46462   1.884   2.999  -0.806  0.1426  0.3611  0.3385
  345MOL0     C46463   1.843   3.143  -0.867 -0.6403  0.1340 -1.0838
  345MOL0     O46464   1.950   3.230  -0.843 -0.2162 -0.6073 -0.4133
  345MOL0     C46465   2.016   3.296  -0.949  0.2348  0.5995  0.1075
  345MOL0     C46466   1.969   3.312  -1.082  0.4019 -0.0521 -0.2400
  345MOL0     C46467   2.039   3.396  -1.175  0.8927  0.5745  0.3111
  345MOL0     C46468   2.153   3.454  -1.145  0.2132  1.0282  0.6932
  345MOL0     C46469   2.236   3.521  -1.250 -1.3566 -0.0387  0.1723
  345MOL0     O46470   2.367   3.563  -1.214  0.2980 -0.1483 -0.4237
  345MOL0     C46471   2.456   3.627  -1.301 -0.6198  0.2897  0.7068
  345MOL0     C46472   2.568   3.685  -1.235  0.1441 -0.1188 -0.1195
  345MOL0     C46473   2.671   3.744  -1.310  0.1147  0.0359 -0.8029
  345MOL0     C46474   2.671   3.748  -1.445 -0.0276  0.4794 -0.1409
  345MOL0     O46475   2.781   3.817  -1.491 -0.4985  0.1555 -0.2924
  345MOL0     C46476   2.764   3.949  -1.547 -0.3347 -0.0567 -0.7430
  345MOL0     C46477   2.875   3.994  -1.637 -0.4449 -0.2453  0.4790
  345MOL0     C46478   2.857   3.927  -1.782  0.2680 -0.1680  0.3931
  345MOL0     C46479   2.967   3.957  -1.877 -0.2493 -0.3579  0.3561
  345MOL0     C46480   2.924   3.945  -2.019  0.7428  0.1601 -0.1352
  345MOL0     C46481   2.923   3.794  -2.060  0.4472  0.6958  0.3108
  345MOL0     C46482   2.866   3.775  -2.204 -0.0998 -0.4743  0.2320
  345MOL0     C46483   2.845   3.626  -2.242 -0.1989 -0.1299 -0.6362
  345MOL0    Cl46484   2.991   3.545  -2.272  0.3154  0.6282  0.2528
  345MOL0     C46485   2.565   3.691  -1.518 -0.9010 -0.6715 -1.0345
  345MOL0     C46486   2.458   3.637  -1.443 -0.3441  0.0709  0.4576
  345MOL0     O46487   2.190   3.519  -1.359  0.8317  0.3157  1.0840
  345MOL0     C46488   2.201   3.439  -1.017 -0.4427  0.7297 -0.2273
  345MOL0     C46489   2.136   3.359  -0.925 -0.5457  0.1328 -0.1031
  345MOL0     N46490   1.643   2.854  -0.620  0.2814  1.6676  0.1530
  345MOL0     N46491   1.537   2.786  -0.577 -0.2869 -0.6079  0.7234
  345MOL0     C46492   0.537   2.323  -0.204 -0.0373 -0.9091  0.4532
  345MOL0     C46493   0.436   2.286  -0.114  0.3840  0.3957  0.8968
  345MOL0     C46494   0.155   2.097   0.159 -0.2544  0.2093  0.6511
  345MOL0     C46495   0.042   2.061   0.082 -1.0658  0.2143 -0.5367
  345MOL0     C46496  -0.087   2.039   0.140  0.2936 -0.9379  0.0819
  345MOL0     C46497  -0.100   2.031   0.282  0.3046 -0.0811 -0.1337
  345MOL0     O46498  -0.219   1.980   0.349 -0.0824  0.1313  0.0260
  345MOL0     C46499  -0.219   1.977   0.487 -0.0694  0.5116 -0.1480
  345MOL0     C46500  -0.353   1.915   0.533  0.7653  0.1754  0.4809
  345MOL0     C46501  -0.328   1.860   0.668  0.0562 -0.0954 -0.3766
  345MOL0     C46502  -0.463   1.835   0.748 -0.1946 -0.3078 -0.6372
  345MOL0     C46503  -0.519   1.959   0.816  0.2313  0.7063  0.2407
  345MOL0     C46504  -0.573   2.053   0.870 -0.1072  0.4842  0.1162
  345MOL0     C46505   0.021   2.049   0.349  0.5044 -0.5166 -0.2543
  345MOL0     C46506   0.140   2.095   0.294  0.6850 -0.2085 -0.3254
  345MOL0     C46507   0.249   2.123   0.398 -1.0526  0.5655 -0.5123
  345MOL0     H46508   0.380   1.975  -0.225 -3.0102  0.5546 -0.8988
  345MOL0     H46509   0.567   2.028  -0.367  2.4599  2.0168 -2.6590
  345MOL0     H46510   0.793   2.375  -0.494 -0.8527  0.3979  0.1482
  345MOL0     H46511   0.699   2.456  -0.382 -0.3402 -1.0827 -1.4813
  345MOL0     H46512   0.938   2.284  -0.292 -0.6598 -1.7909  3.0994
  345MOL0     H46513   0.841   2.385  -0.187  0.7265 -0.5409  0.2054
  345MOL0     H46514   0.923   2.579  -0.279 -0.7236 -1.0684  0.4248
  345MOL0     H46515   0.972   2.520  -0.431  0.4806  2.6821 -0.0891
  345MOL0     H46516   1.090   2.474  -0.149 -1.0027  1.0669  0.5555
  345MOL0     H46517   1.164   2.381  -0.272  0.1125  0.7850 -0.6598
  345MOL0     H46518   1.242   2.581  -0.397 -0.0634 -0.9185  0.3576
  345MOL0     H46519   1.157   2.679  -0.271 -2.1828 -0.5671 -1.3219
  345MOL0     H46520   1.320   2.622  -0.114 -2.8835  0.2869 -0.9028
  345MOL0     H46521   1.378   2.486  -0.209 -1.4121 -0.3453  1.6917
  345MOL0     H46522   1.519   2.695  -0.206  3.2290  1.2962 -3.1921
  345MOL0     H46523   1.389   2.777  -0.303  0.8708  1.2478 -0.8713
  345MOL0     H46524   1.557   2.523  -0.379 -2.0419 -1.0540  3.4646
  345MOL0     H46525   1.431   2.581  -0.479 -0.0712  2.1106 -1.2621
  345MOL0     H46526   1.778   2.679  -0.382  1.8282  0.0759 -0.7092
  345MOL0     H46527   1.934   2.871  -0.483 -2.3097  2.3149  0.0614
  345MOL0     H46528   1.944   2.796  -0.643  1.4454 -0.1837  1.2266
  345MOL0     H46529   1.825   3.081  -0.620  2.4109  0.8326 -0.8540
  345MOL0     H46530   1.993   3.043  -0.614  0.6019 -0.1840  0.0478
  345MOL0     H46531   1.801   2.932  -0.830  1.3839 -1.5629  1.1141
  345MOL0     H46532   1.977   2.969  -0.855 -2.1232  1.7564 -5.7525
  345MOL0     H46533   1.754   3.177  -0.813 -1.0797 -2.2491 -0.1448
  345MOL0     H46534   1.812   3.139  -0.972  2.9857  2.4685 -2.4288
  345MOL0     H46535   1.879   3.262  -1.116  0.1329 -0.2114  0.6631
  345MOL0     H46536   1.988   3.403  -1.270  1.9665  0.1651 -0.3018
  345MOL0     H46537   2.561   3.676  -1.127 -1.4166 -2.4489 -0.3305
  345MOL0     H46538   2.757   3.796  -1.271 -0.1485  0.3427 -0.6332
  345MOL0     H46539   2.664   3.950  -1.592 -0.7290 -2.6937 -0.1104
  345MOL0     H46540   2.752   4.011  -1.458 -4.5053  0.2239 -1.2907
  345MOL0     H46541   2.884   4.103  -1.642 -2.0323 -0.1082  0.1358
  345MOL0     H46542   2.970   3.948  -1.606 -0.7242 -2.5894 -1.7344
  345MOL0     H46543   2.851   3.818  -1.774  1.0435 -0.2538 -0.0268
  345MOL0     H46544   2.761   3.958  -1.823  0.7589 -0.6916 -1.2724
  345MOL0     H46545   3.052   3.891  -1.857 -0.9864 -1.2058  0.8289
  345MOL0     H46546   3.003   4.059  -1.868 -0.6219 -0.2477  0.6493
  345MOL0     H46547   2.984   4.003  -2.089 -1.1022 -0.8724 -2.7679
  345MOL0     H46548   2.821   3.984  -2.023  0.8393  1.0969  3.3278
  345MOL0     H46549   3.023   3.750  -2.057  0.5637  0.9625  3.4014
  345MOL0     H46550   2.859   3.738  -1.991 -2.0295  1.3169 -1.3580
  345MOL0     H46551   2.923   3.834  -2.276  2.4552  1.0378  3.3125
  345MOL0     H46552   2.771   3.830  -2.204  0.1326 -0.0201 -1.3722
  345MOL0     H46553   2.794   3.589  -2.153  2.3266  0.7257  1.3012
  345MOL0     H46554   2.772   3.610  -2.322 -2.4959  3.4796  0.5157
  345MOL0     H46555   2.581   3.708  -1.624  0.9392  3.3544 -0.3207
  345MOL0     H46556   2.372   3.599  -1.497 -0.4616  3.6358 -2.2518
  345MOL0     H46557   2.293   3.491  -0.990 -0.8406  1.3784 -0.1058
  345MOL0     H46558   2.182   3.340  -0.828  2.2714 -2.1815 -1.7683
  345MOL0     H46559   0.590   2.417  -0.217  1.7382 -2.2839 -4.3753
  345MOL0     H46560   0.398   2.372  -0.060  0.7260  0.5378  0.9146
  345MOL0     H46561   0.031   2.069  -0.026 -3.2716  3.1095 -0.2204
  345MOL0     H46562  -0.175   2.031   0.077 -0.5074 -3.2233  1.3597
  345MOL0     H46563  -0.206   2.075   0.532 -0.2653  0.0140  1.0340
  345MOL0     H46564  -0.138   1.914   0.523  1.3526  2.7961  0.7842
  345MOL0     H46565  -0.386   1.834   0.467  0.7625  0.7736 -0.2688
  345MOL0     H46566  -0.415   2.005   0.542  1.1921  0.4867  0.3141
  345MOL0     H46567  -0.266   1.926   0.730 -3.3562  0.9420  2.2463
  345MOL0     H46568  -0.272   1.766   0.660  1.2270  0.6591 -1.3574
  345MOL0     H46569  -0.542   1.799   0.681 -1.9687 -1.4745  1.9163
  345MOL0     H46570  -0.457   1.760   0.828 -2.0784 -1.1161 -1.1985
  345MOL0     H46571  -0.620   2.144   0.900 -1.1367  0.6829 -1.9366
  345MOL0     H46572   0.021   2.040   0.457  0.0703  0.2815 -0.1786
  345MOL0     H46573   0.239   2.213   0.459 -0.8394 -0.8974  1.8295
  345MOL0     H46574   0.252   2.037   0.466  1.1107 -0.3961 -1.7162
  345MOL0     H46575   0.345   2.119   0.346  0.3810  0.7411  1.9695
  346MOL0     O46576   0.099   9.289   9.601 -0.2880  0.1447  0.3028
  346MOL0     C46577   0.174   9.190   9.591  0.2451 -0.2094 -1.0479
  346MOL0     O46578   0.178   9.098   9.682  0.3868  0.4574 -0.2856
  346MOL0     C46579   0.110   9.104   9.801  0.2573 -0.6598 -0.5867
  346MOL0     C46580  -0.029   9.060   9.816  0.3035  0.3596  0.0972
  346MOL0     C46581  -0.098   9.091   9.923  0.5064  0.7934 -0.2889
  346MOL0     C46582  -0.044   9.166  10.034  0.5521  0.1909  1.0039
  346MOL0     O46583  -0.119   9.199  10.138 -0.0916 -0.4948  0.1749
  346MOL0     C46584  -0.092   9.308  10.222 -0.4718 -0.2616  1.1625
  346MOL0     C46585  -0.204   9.317  10.335  0.2181 -0.5823 -0.6779
  346MOL0     C46586  -0.353   9.320  10.287 -0.2711  0.3978  0.3932
  346MOL0     C46587  -0.439   9.398  10.396  0.2598 -0.6092 -0.1931
  346MOL0     C46588  -0.586   9.367  10.360 -0.2123 -0.0032  0.5114
  346MOL0     C46589  -0.688   9.423  10.457  0.2070  0.1537  0.4890
  346MOL0     C46590  -0.824   9.408  10.400 -0.1467  1.2592 -0.5002
  346MOL0     C46591  -0.920   9.486  10.486  0.0154  0.3043  0.4823
  346MOL0     N46592  -1.050   9.482  10.419  1.1889  0.0804  0.5485
  346MOL0     C46593  -1.139   9.592  10.395 -0.6338  0.7898  0.2710
  346MOL0     C46594  -1.240   9.543  10.320 -0.5367 -1.1478  1.1192
  346MOL0     C46595  -1.364   9.624  10.271  0.5026 -0.0357 -0.3110
  346MOL0     C46596  -1.493   9.586  10.343  0.0704  0.0988  1.0559
  346MOL0     C46597  -1.547   9.450  10.292 -0.4612  0.3008  0.9101
  346MOL0     C46598  -1.556   9.407  10.142  0.4967 -0.6941  0.5251
  346MOL0     O46599  -1.625   9.509  10.061  0.3158 -0.2702 -0.6340
  346MOL0     C46600  -1.761   9.535  10.074  0.1481  0.1649  0.0903
  346MOL0     C46601  -1.867   9.447  10.074  0.1322  0.3033  0.6081
  346MOL0     C46602  -1.998   9.487  10.058  1.1478 -0.8524  0.4031
  346MOL0     C46603  -2.034   9.624  10.059  0.9320  0.5963 -0.2724
  346MOL0     C46604  -2.171   9.672  10.024 -0.2883 -1.0481  0.1431
  346MOL0     O46605  -2.201   9.801  10.041 -0.3409 -0.1394 -0.3719
  346MOL0     C46606  -2.311   9.839   9.987 -0.1687 -0.2572  0.3143
  346MOL0     C46607  -2.439   9.815  10.044  0.1067 -0.4650  0.5663
  346MOL0     C46608  -2.567   9.881   9.999 -0.6220 -0.6277  0.1592
  346MOL0     C46609  -2.566   9.962   9.885 -0.1803  0.3721 -0.0905
  346MOL0     O46610  -2.678  10.023   9.837  0.5467  0.1632  0.0204
  346MOL0     C46611  -2.798   9.946   9.848 -0.6051 -1.0411 -0.5605
  346MOL0     C46612  -2.900  10.042   9.791  0.0776  0.6049 -0.1574
  346MOL0     C46613  -3.031   9.985   9.818  0.0451  0.4262  1.1695
  346MOL0     C46614  -3.140  10.079   9.774  1.0162  0.3815 -0.4552
  346MOL0     C46615  -3.168  10.109   9.621 -0.8188 -0.1258 -0.2903
  346MOL0     C46616  -3.288  10.206   9.607 -0.1742  0.0892 -0.5513
  346MOL0     C46617  -3.408  10.145   9.535  0.6087 -1.0603 -0.3997
  346MOL0     C46618  -3.452  10.006   9.583 -0.3268 -0.4007  0.5212
  346MOL0    Cl46619  -3.621   9.973   9.539  0.0592  0.2274 -0.2322
  346MOL0     C46620  -2.436   9.975   9.827  0.1964 -0.2432 -0.6522
  346MOL0     C46621  -2.317   9.923   9.877 -0.5562 -0.0263  0.1449
  346MOL0     O46622  -2.249   9.586   9.982  0.7934  0.1475 -0.2937
  346MOL0     C46623  -1.934   9.720  10.079 -0.4286 -0.0201  0.2455
  346MOL0     C46624  -1.800   9.671  10.075  0.2378  0.5849 -0.7832
  346MOL0     N46625  -1.214   9.402  10.296 -0.5541 -0.2110 -0.5118
  346MOL0     N46626  -1.105   9.373  10.357  0.4066 -0.2663 -0.5684
  346MOL0     C46627   0.090   9.210  10.014  1.6288  0.1083 -0.5356
  346MOL0     C46628   0.167   9.173   9.906  0.2372  0.2402 -0.8824
  346MOL0     C46629   0.270   9.164   9.478  0.9959 -0.1974  0.7731
  346MOL0     C46630   0.375   9.072   9.496  0.9286  0.4004  1.0109
  346MOL0     C46631   0.472   9.057   9.404 -0.5085 -0.4543 -0.5271
  346MOL0     C46632   0.460   9.125   9.284  0.1605 -0.6594 -0.2024
  346MOL0     O46633   0.529   9.105   9.164 -0.1839 -0.9270 -0.1079
  346MOL0     C46634   0.609   8.987   9.150 -0.8642  0.8625 -0.2705
  346MOL0     C46635   0.758   8.994   9.135  0.1415  1.0756  0.1707
  346MOL0     C46636   0.824   9.094   9.236  0.3499  0.6269 -0.1244
  346MOL0     C46637   0.973   9.061   9.242 -0.0406  0.1726  0.6191
  346MOL0     C46638   1.057   9.180   9.258 -0.1141 -0.1557 -1.1859
  346MOL0     C46639   1.125   9.282   9.279 -0.0742  0.4513 -0.6719
  346MOL0     C46640   0.344   9.200   9.252  0.1799  0.1304 -0.6122
  346MOL0     C46641   0.252   9.230   9.352 -0.1073  0.2100  0.2319
  346MOL0     C46642   0.134   9.328   9.324 -0.4972 -0.1464 -0.1356
  346MOL0     H46643  -0.063   8.998   9.733  0.9347 -0.1373  0.2035
  346MOL0     H46644  -0.203   9.067   9.936  0.7884  0.2302  1.2044
  346MOL0     H46645   0.005   9.292  10.270  0.9830 -0.8776 -1.7481
  346MOL0     H46646  -0.090   9.400  10.163  1.1422 -0.8190  0.3039
  346MOL0     H46647  -0.181   9.410  10.388 -0.3415  0.1327 -1.6661
  346MOL0     H46648  -0.203   9.239  10.412  1.1399  0.0654 -0.0061
  346MOL0     H46649  -0.389   9.217  10.274 -0.6636  0.8231 -2.4721
  346MOL0     H46650  -0.362   9.375  10.193 -2.1760  2.6257  1.7676
  346MOL0     H46651  -0.410   9.357  10.494  1.5247  2.3862  0.8365
  346MOL0     H46652  -0.424   9.507  10.396 -1.9089 -0.2034 -2.8965
  346MOL0     H46653  -0.586   9.403  10.256 -1.1085  1.4201  0.9672
  346MOL0     H46654  -0.610   9.261  10.363 -2.0245  0.3522  0.2976
  346MOL0     H46655  -0.678   9.366  10.549 -2.9772 -2.0237 -0.3537
  346MOL0     H46656  -0.667   9.529  10.475 -1.0375 -0.0225  3.4951
  346MOL0     H46657  -0.845   9.301  10.407  1.1107  1.0449  0.3200
  346MOL0     H46658  -0.821   9.447  10.298  1.2097  1.8528 -0.2529
  346MOL0     H46659  -0.939   9.448  10.586  1.2319  3.2030  1.9179
  346MOL0     H46660  -0.884   9.589  10.481 -1.3319  0.7543 -1.5558
  346MOL0     H46661  -1.119   9.695  10.422  0.7086  1.6835 -3.4092
  346MOL0     H46662  -1.336   9.729  10.283  0.9895 -0.2961  1.0214
  346MOL0     H46663  -1.371   9.602  10.164 -1.9999 -1.4240  0.0435
  346MOL0     H46664  -1.473   9.596  10.450  1.4679 -0.7430  0.8981
  346MOL0     H46665  -1.572   9.658  10.318  1.2617  0.8707 -0.7052
  346MOL0     H46666  -1.649   9.431  10.325 -0.5998  0.7044  0.7260
  346MOL0     H46667  -1.478   9.376  10.335 -0.2388  0.2950  0.5587
  346MOL0     H46668  -1.611   9.313  10.135 -0.5424  0.0288 -1.6627
  346MOL0     H46669  -1.459   9.386  10.097 -0.7797 -1.0573 -2.2124
  346MOL0     H46670  -1.863   9.338  10.070 -1.9863  0.2054 -0.0387
  346MOL0     H46671  -2.076   9.413  10.054 -1.2201  1.5609 -0.9098
  346MOL0     H46672  -2.438   9.758  10.136 -2.6983  0.7088  1.4349
  346MOL0     H46673  -2.651   9.855  10.062 -0.6675  1.0193  0.8392
  346MOL0     H46674  -2.796   9.846   9.803 -2.3074 -0.6870 -1.5187
  346MOL0     H46675  -2.828   9.931   9.952  4.6677  0.3077  1.4809
  346MOL0     H46676  -2.905  10.146   9.823 -0.3712  0.0540  1.6689
  346MOL0     H46677  -2.881  10.032   9.684  0.0395  1.2384 -0.2246
  346MOL0     H46678  -3.031   9.894   9.757 -0.2358  1.6274 -0.7158
  346MOL0     H46679  -3.042   9.960   9.924  1.9796 -3.6905  0.6219
  346MOL0     H46680  -3.128  10.171   9.831  3.9711 -1.5757  2.4949
  346MOL0     H46681  -3.235  10.033   9.803  1.6801 -2.5681 -2.4744
  346MOL0     H46682  -3.182  10.013   9.570  1.6355 -0.7522  0.0625
  346MOL0     H46683  -3.073  10.144   9.579 -0.4654  0.1510  0.7086
  346MOL0     H46684  -3.315  10.244   9.706 -1.0235  3.6720 -1.9830
  346MOL0     H46685  -3.261  10.288   9.539  0.3331 -0.6259 -1.2264
  346MOL0     H46686  -3.387  10.136   9.428  0.8921 -1.4374 -0.3170
  346MOL0     H46687  -3.487  10.217   9.559  2.4723  1.3059 -0.9765
  346MOL0     H46688  -3.384   9.930   9.544  0.8270  1.2074 -0.6828
  346MOL0     H46689  -3.443  10.012   9.692  1.1903 -0.4195  0.4217
  346MOL0     H46690  -2.437  10.036   9.738  0.0536 -2.2739 -2.1142
  346MOL0     H46691  -2.224   9.967   9.843 -1.8157  1.2888 -1.7712
  346MOL0     H46692  -1.951   9.828  10.074  1.8916  0.3234 -1.8819
  346MOL0     H46693  -1.724   9.749  10.075 -2.1369  3.0344 -0.4148
  346MOL0     H46694   0.139   9.261  10.097 -0.9701  0.5819  0.8086
  346MOL0     H46695   0.273   9.194   9.896  0.3703 -0.4198 -0.8700
  346MOL0     H46696   0.374   9.012   9.587  1.2128 -0.5402  0.4083
  346MOL0     H46697   0.550   8.992   9.442  3.2046  2.0002 -3.1902
  346MOL0     H46698   0.574   8.928   9.065 -0.4918 -1.4202  1.0626
  346MOL0     H46699   0.592   8.921   9.236 -1.2426  0.1753 -0.8645
  346MOL0     H46700   0.778   9.038   9.037  1.5614 -0.7160 -0.4116
  346MOL0     H46701   0.793   8.890   9.138 -1.4971  0.5058  0.8276
  346MOL0     H46702   0.778   9.071   9.333  1.7038 -1.0506  0.1707
  346MOL0     H46703   0.800   9.198   9.215  1.6744  1.6970  3.0599
  346MOL0     H46704   0.976   8.999   9.332  1.4287 -1.6033 -0.5764
  346MOL0     H46705   1.001   9.000   9.156  2.1895  0.4943  1.0687
  346MOL0     H46706   1.177   9.376   9.283  2.8199 -1.0532  1.2486
  346MOL0     H46707   0.331   9.250   9.157  0.5921  1.0868 -0.1900
  346MOL0     H46708   0.038   9.280   9.349  1.3105 -1.4587  5.9781
  346MOL0     H46709   0.164   9.408   9.392  1.4989 -0.8555 -0.1317
  346MOL0     H46710   0.126   9.360   9.220 -0.2819 -0.2668 -0.1889
  347MOL0     O46711   1.953   3.763   6.192 -0.3536 -1.1482 -0.0791
  347MOL0     C46712   1.881   3.668   6.161 -0.1684  0.2499 -0.2768
  347MOL0     O46713   1.921   3.545   6.129 -0.0021  0.6755  0.4698
  347MOL0     C46714   2.047   3.513   6.124 -0.0330  0.1505  0.8115
  347MOL0     C46715   2.094   3.410   6.201 -0.1970  0.2667  0.7253
  347MOL0     C46716   2.236   3.389   6.212 -0.0662  0.5975  0.1564
  347MOL0     C46717   2.325   3.465   6.126  0.0648 -0.5447 -0.7235
  347MOL0     O46718   2.460   3.441   6.109  0.1362 -0.7211  0.4120
  347MOL0     C46719   2.530   3.326   6.146 -0.0566  0.6496 -0.1590
  347MOL0     C46720   2.650   3.335   6.049  0.3844  0.3558 -0.2279
  347MOL0     C46721   2.766   3.234   6.069  0.2859 -0.0604 -1.3644
  347MOL0     C46722   2.891   3.278   6.003  0.0129 -0.9377 -0.0631
  347MOL0     C46723   3.004   3.197   6.026 -0.9792  0.2004  0.0700
  347MOL0     C46724   3.076   3.199   6.159 -0.8379  0.0643 -1.0947
  347MOL0     C46725   3.191   3.098   6.156 -0.1037 -0.5104 -0.4717
  347MOL0     C46726   3.278   3.115   6.287 -0.6892  0.4695 -0.8324
  347MOL0     N46727   3.402   3.048   6.297  0.1233  0.6160 -0.0920
  347MOL0     C46728   3.491   3.026   6.200  0.7216  0.6633  0.6146
  347MOL0     C46729   3.581   2.945   6.246 -0.0398 -0.4363 -0.0167
  347MOL0     C46730   3.695   2.872   6.172  0.5003 -0.0428 -0.4864
  347MOL0     C46731   3.827   2.941   6.207 -0.6328 -1.3665 -0.2846
  347MOL0     C46732   3.937   2.870   6.137  0.2767 -0.5002 -1.0252
  347MOL0     C46733   4.071   2.932   6.162 -0.5757  0.6392  0.5328
  347MOL0     O46734   4.166   2.847   6.102  0.3226  0.0965 -0.8423
  347MOL0     C46735   4.268   2.901   6.033 -0.1254 -0.2079  0.0250
  347MOL0     C46736   4.318   2.843   5.919  0.0481 -0.7046  0.8693
  347MOL0     C46737   4.423   2.901   5.849 -0.2322  0.2548 -0.3483
  347MOL0     C46738   4.498   3.013   5.901  0.2843 -0.3502 -0.4181
  347MOL0     C46739   4.609   3.084   5.826 -0.0546 -0.2348  0.6727
  347MOL0     O46740   4.679   3.188   5.890  0.0762  0.4236 -0.2185
  347MOL0     C46741   4.798   3.234   5.826 -0.6053  0.7016  0.3644
  347MOL0     C46742   4.835   3.375   5.832 -0.6185  0.0869  0.5420
  347MOL0     C46743   4.950   3.416   5.756 -0.5650  1.0916 -0.6872
  347MOL0     C46744   5.043   3.325   5.695  0.1839 -0.1245  0.0567
  347MOL0     O46745   5.148   3.378   5.621 -0.4791  0.3958 -0.2075
  347MOL0     C46746   5.187   3.310   5.498 -0.4325 -0.5296 -0.3344
  347MOL0     C46747   5.264   3.399   5.407 -0.2237 -0.1925 -0.3300
  347MOL0     C46748   5.301   3.319   5.278 -0.3791 -0.4559 -0.1892
  347MOL0     C46749   5.373   3.400   5.172  0.8958  0.2608 -0.5231
  347MOL0     C46750   5.335   3.357   5.030  0.4820  0.6788  0.4664
  347MOL0     C46751   5.446   3.391   4.932 -0.6594 -0.3676 -0.0596
  347MOL0     C46752   5.559   3.287   4.920  0.6460  0.2630  0.2528
  347MOL0     C46753   5.676   3.321   4.816  0.1626 -0.8533 -0.3116
  347MOL0    Cl46754   5.774   3.175   4.778 -0.0841 -0.1841  0.0172
  347MOL0     C46755   5.015   3.195   5.718  0.0356  0.6140  0.2610
  347MOL0     C46756   4.895   3.149   5.777 -0.8916  0.5016 -0.1236
  347MOL0     O46757   4.631   3.045   5.706  0.2885 -0.2420 -0.2244
  347MOL0     C46758   4.452   3.066   6.028  0.1667 -0.9348  0.1719
  347MOL0     C46759   4.329   3.016   6.086  0.4566 -1.6230  0.4799
  347MOL0     N46760   3.548   2.909   6.377 -0.2428 -0.2837  0.5527
  347MOL0     N46761   3.440   2.968   6.410  0.0308  0.3421 -0.1042
  347MOL0     C46762   2.278   3.566   6.048  0.5968 -0.1763 -0.2507
  347MOL0     C46763   2.138   3.584   6.046 -0.3502 -1.0697 -0.9179
  347MOL0     C46764   1.738   3.672   6.196  0.2888 -0.6387  0.0985
  347MOL0     C46765   1.671   3.564   6.243 -0.5751  0.8067  0.7033
  347MOL0     C46766   1.536   3.562   6.272 -0.1011  0.4550 -1.4662
  347MOL0     C46767   1.463   3.677   6.280 -0.3028 -0.1089 -0.2031
  347MOL0     O46768   1.341   3.682   6.329  0.6878 -0.4329 -0.5205
  347MOL0     C46769   1.309   3.805   6.407 -0.3987  0.4575 -0.6942
  347MOL0     C46770   1.186   3.767   6.502  0.9498  0.3535  0.2255
  347MOL0     C46771   1.076   3.884   6.526 -0.1157 -0.0716  0.0680
  347MOL0     C46772   0.951   3.828   6.596  0.0134  0.1880 -0.1565
  347MOL0     C46773   0.973   3.855   6.740 -0.1593  0.2544 -0.3948
  347MOL0     C46774   1.011   3.865   6.851  1.0926  0.6026 -0.2918
  347MOL0     C46775   1.523   3.794   6.218 -0.2559  0.4807 -0.3770
  347MOL0     C46776   1.660   3.793   6.185  0.5096  1.0233  0.4655
  347MOL0     C46777   1.722   3.931   6.148 -0.3135  0.5553 -0.8585
  347MOL0     H46778   2.013   3.359   6.252 -1.1146  0.4149 -0.5320
  347MOL0     H46779   2.276   3.308   6.272  4.2267  2.1731 -0.2530
  347MOL0     H46780   2.564   3.332   6.250 -2.3574  2.0251  0.6042
  347MOL0     H46781   2.488   3.228   6.120  1.0358 -0.1338  0.9411
  347MOL0     H46782   2.697   3.433   6.060 -0.4204  0.5616  1.9911
  347MOL0     H46783   2.611   3.309   5.950  0.3058 -2.9807  0.5395
  347MOL0     H46784   2.746   3.130   6.042 -1.3836  0.6733 -3.2699
  347MOL0     H46785   2.783   3.241   6.177  2.0058  2.9955 -1.7292
  347MOL0     H46786   2.885   3.278   5.894  4.9611  0.9594 -0.6026
  347MOL0     H46787   2.918   3.377   6.040  1.8425 -1.5583  0.4087
  347MOL0     H46788   2.987   3.091   6.001  2.9714 -0.2742 -1.3758
  347MOL0     H46789   3.078   3.219   5.948 -0.1477 -2.2307  0.0946
  347MOL0     H46790   3.106   3.302   6.180 -1.5939 -0.0126  0.5551
  347MOL0     H46791   3.004   3.165   6.235  0.6939  2.9756  1.9287
  347MOL0     H46792   3.251   3.123   6.069 -1.7506 -1.0200 -1.8146
  347MOL0     H46793   3.148   2.998   6.146 -1.0803 -0.7510  3.9568
  347MOL0     H46794   3.286   3.222   6.308  3.2164  0.0486  0.6592
  347MOL0     H46795   3.225   3.068   6.371  3.7970 -0.9540  1.5023
  347MOL0     H46796   3.482   3.069   6.101 -2.8823  0.0209  0.5358
  347MOL0     H46797   3.716   2.768   6.196 -0.0520  0.0046  0.2563
  347MOL0     H46798   3.675   2.865   6.065  1.5369  1.3014 -0.8010
  347MOL0     H46799   3.831   3.046   6.178 -2.7943 -0.7159  1.4817
  347MOL0     H46800   3.844   2.922   6.313  1.0314 -1.0992 -0.4796
  347MOL0     H46801   3.920   2.882   6.030 -1.9150 -3.6419 -1.1672
  347MOL0     H46802   3.925   2.766   6.170  0.9686  0.5535  3.1456
  347MOL0     H46803   4.095   2.945   6.268 -0.2996  1.6197  0.3638
  347MOL0     H46804   4.054   3.031   6.118 -2.0568 -0.2003 -0.9332
  347MOL0     H46805   4.274   2.756   5.870 -3.0038  1.9469 -1.5370
  347MOL0     H46806   4.453   2.853   5.756 -1.1967 -1.9058  0.4007
  347MOL0     H46807   4.788   3.449   5.895 -0.2637 -0.6361  1.7049
  347MOL0     H46808   4.984   3.517   5.738 -0.7380  0.8498 -2.6461
  347MOL0     H46809   5.242   3.217   5.519  1.7880  0.5786 -0.8744
  347MOL0     H46810   5.098   3.280   5.443 -3.0720  0.8102  2.8725
  347MOL0     H46811   5.207   3.488   5.380 -0.6062 -0.6737 -1.1564
  347MOL0     H46812   5.355   3.428   5.460 -0.6139 -2.8978  2.0929
  347MOL0     H46813   5.361   3.231   5.300 -0.2358 -0.3006  0.0488
  347MOL0     H46814   5.206   3.291   5.232 -0.8889  0.7565  0.0694
  347MOL0     H46815   5.480   3.378   5.164  0.3794 -1.9408 -2.5988
  347MOL0     H46816   5.363   3.508   5.185  1.2565  0.5304 -2.1844
  347MOL0     H46817   5.239   3.401   5.000 -1.6652 -3.2310  0.8055
  347MOL0     H46818   5.318   3.249   5.035 -0.6988  0.8542  0.5029
  347MOL0     H46819   5.399   3.406   4.835 -1.3256  4.5980  0.7740
  347MOL0     H46820   5.492   3.486   4.962  2.9946 -2.3909  1.3518
  347MOL0     H46821   5.502   3.198   4.889  1.5222 -1.1328  2.3890
  347MOL0     H46822   5.603   3.282   5.020  1.8520 -0.2369 -0.2827
  347MOL0     H46823   5.635   3.369   4.727 -0.1861  0.9980  0.8021
  347MOL0     H46824   5.737   3.403   4.855  1.1807 -2.5962  2.0275
  347MOL0     H46825   5.081   3.116   5.685 -0.7747 -0.2120  0.5911
  347MOL0     H46826   4.885   3.041   5.776  1.5870  0.2014 -0.2423
  347MOL0     H46827   4.492   3.160   6.066  0.6995 -1.3661  0.7003
  347MOL0     H46828   4.301   3.059   6.182 -0.0440 -0.6154 -0.1036
  347MOL0     H46829   2.344   3.623   5.983 -0.1119  0.5620 -0.3347
  347MOL0     H46830   2.110   3.671   5.989  1.8112 -0.1602 -0.6999
  347MOL0     H46831   1.719   3.469   6.263  0.4643  1.6304  2.3556
  347MOL0     H46832   1.485   3.473   6.306 -3.0987  2.1643 -1.1896
  347MOL0     H46833   1.275   3.886   6.342 -0.0005  1.9934  0.9253
  347MOL0     H46834   1.395   3.830   6.471 -1.4818  0.5344  0.7853
  347MOL0     H46835   1.219   3.715   6.593 -2.2396 -4.3953 -0.9719
  347MOL0     H46836   1.120   3.699   6.448 -0.7175  1.0385  1.3563
  347MOL0     H46837   1.047   3.917   6.426 -2.3337 -3.4361 -0.5653
  347MOL0     H46838   1.121   3.964   6.585  0.5851 -0.9280  0.7152
  347MOL0     H46839   0.860   3.881   6.565 -0.7572  0.1169  1.8466
  347MOL0     H46840   0.943   3.720   6.585  2.1250 -0.5079  3.4945
  347MOL0     H46841   1.020   3.873   6.958 -1.1308  2.7683 -0.1881
  347MOL0     H46842   1.470   3.885   6.193  1.2570  1.2630 -0.8484
  347MOL0     H46843   1.795   3.922   6.068 -1.9271 -0.9387 -2.2237
  347MOL0     H46844   1.651   4.015   6.140 -0.4831  0.5945  0.6570
  347MOL0     H46845   1.771   3.961   6.242  1.4760  0.6393 -1.7830
  348MOL0     O46846   9.142   5.687   6.975 -0.3020 -0.1356 -0.5930
  348MOL0     C46847   9.075   5.743   7.059  0.4725  0.6272  1.3455
  348MOL0     O46848   9.108   5.741   7.187  0.9315  0.0628 -0.8272
  348MOL0     C46849   9.234   5.735   7.251  0.0086  0.1586  0.2705
  348MOL0     C46850   9.230   5.737   7.400 -0.0572 -0.0302 -0.3908
  348MOL0     C46851   9.347   5.740   7.466  0.3362 -0.5665 -0.7836
  348MOL0     C46852   9.470   5.742   7.404  0.0252  0.1141 -0.4812
  348MOL0     O46853   9.582   5.754   7.482 -0.1762  0.3068 -0.4675
  348MOL0     C46854   9.711   5.772   7.414  0.1936  0.3676 -0.7971
  348MOL0     C46855   9.821   5.781   7.524 -0.4752 -0.5807 -0.2275
  348MOL0     C46856   9.965   5.761   7.464  0.1146 -0.0660  0.2229
  348MOL0     C46857   9.995   5.603   7.446  0.2046  0.3712 -0.0347
  348MOL0     C46858  10.123   5.594   7.360 -0.3213  0.4430  0.5824
  348MOL0     C46859  10.154   5.443   7.335  0.4657  0.6449 -0.7616
  348MOL0     C46860  10.283   5.409   7.263 -0.2902 -0.2189  0.3059
  348MOL0     C46861  10.269   5.277   7.185 -0.2572 -0.1881 -0.8541
  348MOL0     N46862  10.398   5.225   7.140 -0.3395 -0.0560  0.0731
  348MOL0     C46863  10.487   5.284   7.049  0.3593  0.8053  0.0471
  348MOL0     C46864  10.590   5.199   7.043 -0.0347 -0.5777 -1.0992
  348MOL0     C46865  10.689   5.213   6.934 -0.0433  0.6479  0.4312
  348MOL0     C46866  10.825   5.182   6.992  0.0764 -0.1585  0.4402
  348MOL0     C46867  10.934   5.180   6.882 -0.9844  1.1464  0.0291
  348MOL0     C46868  11.074   5.155   6.941  0.5583  0.2453  0.1094
  348MOL0     O46869  11.075   5.047   7.037 -0.3627 -0.8491 -0.4692
  348MOL0     C46870  11.183   5.016   7.121 -0.4139 -1.0358  0.1000
  348MOL0     C46871  11.311   5.042   7.083 -0.5195 -0.4487 -0.2178
  348MOL0     C46872  11.424   4.998   7.150  0.9417 -0.4383 -0.4622
  348MOL0     C46873  11.410   4.923   7.268  0.4318 -0.0029 -0.3138
  348MOL0     C46874  11.533   4.883   7.353  0.4069 -0.6932  0.1684
  348MOL0     O46875  11.657   4.934   7.320  0.0954  0.4362 -0.6791
  348MOL0     C46876  11.756   4.927   7.414 -0.1942  0.0958 -0.9126
  348MOL0     C46877  11.841   4.818   7.428  0.2641 -0.0629 -1.1609
  348MOL0     C46878  11.943   4.813   7.527 -0.4959  0.0435 -0.0422
  348MOL0     C46879  11.954   4.926   7.618 -0.2489 -0.1793  0.5954
  348MOL0     O46880  12.040   4.926   7.726 -0.2527 -0.2600 -0.1329
  348MOL0     C46881  12.084   4.799   7.766  0.6611 -0.4448  0.0602
  348MOL0     C46882  12.150   4.779   7.898 -0.9860  0.0158  0.0416
  348MOL0     C46883  12.063   4.815   8.027  0.3347  0.6638  0.0574
  348MOL0     C46884  11.994   4.697   8.092 -0.3941  0.4130  0.1862
  348MOL0     C46885  11.881   4.736   8.193  0.7853 -0.4525  0.1587
  348MOL0     C46886  11.823   4.602   8.239  0.8414  0.2447 -1.4259
  348MOL0     C46887  11.740   4.611   8.372  0.4463  0.2230  0.2934
  348MOL0     C46888  11.610   4.528   8.367 -0.7740  0.5896  0.1023
  348MOL0    Cl46889  11.482   4.610   8.282  0.3005  0.2380 -0.3503
  348MOL0     C46890  11.865   5.037   7.605  0.1373  0.5273 -0.2737
  348MOL0     C46891  11.773   5.026   7.502  0.4181 -0.5320  0.8848
  348MOL0     O46892  11.510   4.807   7.444 -0.0700  0.7589  0.4274
  348MOL0     C46893  11.277   4.908   7.313  0.2678 -0.6100 -0.4127
  348MOL0     C46894  11.166   4.950   7.246 -0.5508  0.8470  0.0789
  348MOL0     N46895  10.574   5.113   7.148  0.1541  0.7921  0.5035
  348MOL0     N46896  10.457   5.115   7.197 -0.9417 -0.0091  0.3400
  348MOL0     C46897   9.476   5.736   7.263  0.3335  0.2337 -0.3661
  348MOL0     C46898   9.360   5.735   7.193 -0.4814 -0.5746 -0.6943
  348MOL0     C46899   8.951   5.812   7.018  1.3550 -0.2421  0.1512
  348MOL0     C46900   8.891   5.792   6.890 -0.1995  0.0521 -0.5104
  348MOL0     C46901   8.767   5.852   6.858 -0.5480 -0.0624  0.7943
  348MOL0     C46902   8.694   5.930   6.951  0.8117 -0.2195 -0.5235
  348MOL0     O46903   8.564   5.960   6.933  0.5010  0.0283  0.4626
  348MOL0     C46904   8.496   5.946   6.803 -0.5045  0.2586  0.9520
  348MOL0     C46905   8.354   6.006   6.820 -0.3094 -0.2902  0.6570
  348MOL0     C46906   8.274   5.985   6.687  0.0132  0.3416  0.1108
  348MOL0     C46907   8.149   6.071   6.691 -0.7606 -0.3811  0.1695
  348MOL0     C46908   8.061   6.049   6.805  0.5981 -0.4143  0.0729
  348MOL0     C46909   7.975   6.023   6.889  0.1064  0.5263 -1.0487
  348MOL0     C46910   8.756   5.955   7.068 -0.0190 -0.0949  0.3971
  348MOL0     C46911   8.878   5.897   7.108 -0.1234  0.1284 -0.4547
  348MOL0     C46912   8.927   5.942   7.246 -0.1658 -0.7263  0.1539
  348MOL0     H46913   9.134   5.744   7.450  0.5442 -3.3617  1.5895
  348MOL0     H46914   9.335   5.765   7.571 -3.4304 -1.9983 -0.7310
  348MOL0     H46915   9.731   5.688   7.346 -2.9748 -1.4309  0.2913
  348MOL0     H46916   9.713   5.865   7.356  1.6158  0.0449 -1.3151
  348MOL0     H46917   9.804   5.716   7.611 -3.2225 -0.9485 -0.9151
  348MOL0     H46918   9.812   5.881   7.567  0.8096 -0.5687  0.0303
  348MOL0     H46919  10.037   5.795   7.538 -1.7580 -2.5947  3.4698
  348MOL0     H46920   9.969   5.812   7.367 -2.8192 -0.7654 -0.3876
  348MOL0     H46921  10.013   5.571   7.549 -2.1425 -1.4245 -0.0995
  348MOL0     H46922   9.911   5.547   7.403  0.7449  0.4335 -1.2230
  348MOL0     H46923  10.097   5.650   7.269 -1.8123  0.8796  1.2342
  348MOL0     H46924  10.208   5.643   7.408  0.0733  0.5822 -0.2480
  348MOL0     H46925  10.166   5.400   7.435 -1.5932  0.1824 -0.6630
  348MOL0     H46926  10.066   5.405   7.283 -0.6229  1.3694  0.4866
  348MOL0     H46927  10.346   5.381   7.348 -0.5730  2.0293  1.3480
  348MOL0     H46928  10.333   5.478   7.195 -0.8315 -2.4863 -2.6174
  348MOL0     H46929  10.211   5.204   7.242  0.2269 -1.5165 -2.0026
  348MOL0     H46930  10.203   5.288   7.098  1.0037 -3.8200 -2.4525
  348MOL0     H46931  10.459   5.369   6.987  0.6291  0.4334 -0.5947
  348MOL0     H46932  10.670   5.151   6.846  2.8081 -0.3911  0.4393
  348MOL0     H46933  10.697   5.318   6.906 -1.4368  0.7449  0.3440
  348MOL0     H46934  10.859   5.250   7.071  1.6696 -0.2904 -0.0869
  348MOL0     H46935  10.823   5.082   7.037  0.8125  0.0855  1.0431
  348MOL0     H46936  10.940   5.270   6.821  0.7546 -0.0365 -1.6853
  348MOL0     H46937  10.906   5.102   6.810 -1.9613  2.0626 -0.6136
  348MOL0     H46938  11.105   5.245   6.995  2.6084 -1.5896  2.2420
  348MOL0     H46939  11.140   5.130   6.857 -0.7703 -1.2924 -0.5210
  348MOL0     H46940  11.343   5.076   6.985  1.3937 -0.1313  0.4639
  348MOL0     H46941  11.519   5.004   7.096  1.2845  1.7040  0.3039
  348MOL0     H46942  11.824   4.726   7.374  0.7377 -0.0158 -1.3946
  348MOL0     H46943  12.006   4.726   7.528  1.1303  1.1787  1.2446
  348MOL0     H46944  11.995   4.735   7.770  0.9979 -0.9532 -0.4493
  348MOL0     H46945  12.163   4.766   7.697  0.4143  2.4916 -1.7925
  348MOL0     H46946  12.182   4.675   7.908 -3.6337 -0.8080  0.8149
  348MOL0     H46947  12.243   4.837   7.903 -0.8561 -0.2687  2.4390
  348MOL0     H46948  12.136   4.855   8.098  2.3556 -1.9506 -0.3705
  348MOL0     H46949  11.986   4.886   7.996 -1.4088 -0.5133  1.5137
  348MOL0     H46950  12.074   4.636   8.136  1.8466  1.8012 -1.6917
  348MOL0     H46951  11.948   4.640   8.011 -2.5991 -0.0532  1.6908
  348MOL0     H46952  11.804   4.796   8.143 -1.2742 -3.4681 -0.6008
  348MOL0     H46953  11.922   4.790   8.278 -0.5712 -0.2983  0.7459
  348MOL0     H46954  11.760   4.553   8.164 -4.2070 -1.7173  3.3898
  348MOL0     H46955  11.901   4.535   8.275  0.2035  1.0811  1.7588
  348MOL0     H46956  11.720   4.718   8.389  1.1946  0.4468 -0.1912
  348MOL0     H46957  11.806   4.569   8.448  2.4389  1.8121 -0.4651
  348MOL0     H46958  11.629   4.426   8.333 -0.8865  0.9387 -1.0421
  348MOL0     H46959  11.576   4.516   8.471  0.0550 -2.4889  0.1161
  348MOL0     H46960  11.867   5.117   7.678  1.7458 -1.1048  1.5606
  348MOL0     H46961  11.698   5.105   7.494 -1.8319 -2.3574  2.6806
  348MOL0     H46962  11.270   4.856   7.408 -1.0140  0.6464  0.2130
  348MOL0     H46963  11.066   4.927   7.283 -1.3392 -0.4407 -2.5246
  348MOL0     H46964   9.567   5.745   7.204 -0.3937  2.7853 -1.2097
  348MOL0     H46965   9.364   5.722   7.086  0.0049  0.2560 -0.7809
  348MOL0     H46966   8.943   5.733   6.815 -0.4287 -0.8869  0.0447
  348MOL0     H46967   8.731   5.828   6.759 -1.5928 -4.3791  2.0264
  348MOL0     H46968   8.490   5.843   6.766 -0.9073  0.9266 -0.9455
  348MOL0     H46969   8.550   6.012   6.736  0.6101 -0.1536  1.4100
  348MOL0     H46970   8.352   6.114   6.839 -1.9543 -0.2779  0.5545
  348MOL0     H46971   8.294   5.963   6.901  0.0447 -0.6808  0.7110
  348MOL0     H46972   8.245   5.881   6.673 -2.1096  0.4679  2.6872
  348MOL0     H46973   8.338   6.022   6.607  0.1911 -0.4605 -0.1254
  348MOL0     H46974   8.168   6.179   6.692 -2.5270  0.1445  4.7266
  348MOL0     H46975   8.088   6.049   6.603 -1.0338  0.4292  0.1513
  348MOL0     H46976   7.903   6.008   6.967 -0.1888  0.3044 -1.3614
  348MOL0     H46977   8.693   6.025   7.122 -2.0760  0.0483 -1.9539
  348MOL0     H46978   8.920   5.859   7.317  1.6114 -1.3128 -0.2998
  348MOL0     H46979   9.035   5.954   7.231  0.1211 -0.9236  1.9117
  348MOL0     H46980   8.892   6.032   7.297  1.5927  0.8345 -1.2467
  349MOL0     O46981  10.614   4.667   6.150 -0.4027  0.2436  0.4684
  349MOL0     C46982  10.535   4.702   6.235 -0.0183 -1.4129 -0.6390
  349MOL0     O46983  10.528   4.648   6.360  0.4096  1.2151 -0.1743
  349MOL0     C46984  10.620   4.544   6.392  1.1366  0.0734 -0.5587
  349MOL0     C46985  10.630   4.420   6.322  0.1821 -0.1908 -0.2005
  349MOL0     C46986  10.727   4.325   6.359  1.3550  0.2005  0.9337
  349MOL0     C46987  10.807   4.346   6.463 -0.0607 -0.6857  0.0600
  349MOL0     O46988  10.905   4.270   6.525  0.9326  0.4008 -0.5614
  349MOL0     C46989  10.950   4.158   6.444  0.3777  0.1209 -0.3857
  349MOL0     C46990  11.030   4.073   6.546 -0.2253 -0.3114 -0.3137
  349MOL0     C46991  10.952   3.989   6.637  0.1954 -0.2696 -0.7180
  349MOL0     C46992  11.038   3.946   6.760 -0.4226  0.0580 -0.2014
  349MOL0     C46993  10.961   3.844   6.845  0.3636 -0.2679  0.4013
  349MOL0     C46994  11.036   3.808   6.975  0.4893 -0.1243 -0.0538
  349MOL0     C46995  11.162   3.727   6.952 -0.6122 -0.6170 -0.1477
  349MOL0     C46996  11.135   3.601   6.865 -0.1926 -0.1815 -0.5055
  349MOL0     N46997  11.240   3.499   6.895  0.0405 -0.5161 -0.5530
  349MOL0     C46998  11.374   3.514   6.877  0.1266 -0.1325  0.1433
  349MOL0     C46999  11.428   3.433   6.966  0.1333 -0.2370  0.1175
  349MOL0     C47000  11.573   3.400   6.993 -0.2932 -0.4827 -0.5863
  349MOL0     C47001  11.647   3.510   7.089 -0.7734 -0.1519  0.4813
  349MOL0     C47002  11.799   3.466   7.119  1.1705 -0.5332 -0.1943
  349MOL0     C47003  11.814   3.354   7.224  0.2128  0.2131 -0.2906
  349MOL0     O47004  11.791   3.220   7.165 -0.4568  0.6475 -0.4679
  349MOL0     C47005  11.898   3.151   7.112 -0.6310  0.4150 -1.0814
  349MOL0     C47006  11.878   3.018   7.084  0.5136  0.2479  0.3174
  349MOL0     C47007  11.978   2.927   7.054  0.0556  0.3733 -0.9884
  349MOL0     C47008  12.119   2.978   7.062 -0.6507 -0.4060  0.7378
  349MOL0     C47009  12.241   2.906   7.025  0.1780  0.2643  0.6774
  349MOL0     O47010  12.212   2.794   6.958  0.4554 -0.3024 -0.1824
  349MOL0     C47011  12.307   2.707   6.904 -0.8394  0.6134  0.2902
  349MOL0     C47012  12.426   2.743   6.848 -0.3082 -0.4198 -0.5331
  349MOL0     C47013  12.510   2.648   6.794 -0.0066  0.5277  0.3362
  349MOL0     C47014  12.484   2.509   6.802 -1.0836  0.7641  0.4089
  349MOL0     O47015  12.552   2.402   6.750 -0.2008 -0.0143  0.1091
  349MOL0     C47016  12.650   2.431   6.643  0.5062 -0.3247  0.0302
  349MOL0     C47017  12.783   2.474   6.714 -0.2948 -0.1046  1.0246
  349MOL0     C47018  12.890   2.369   6.688  0.9903  0.5702  0.8409
  349MOL0     C47019  13.034   2.436   6.703 -0.2068  0.6741 -0.4000
  349MOL0     C47020  13.132   2.347   6.618  0.2935 -0.9287  0.2790
  349MOL0     C47021  13.093   2.339   6.465 -0.1010  0.1226  1.0373
  349MOL0     C47022  13.223   2.287   6.388  0.6234  0.5001 -0.1333
  349MOL0     C47023  13.187   2.273   6.234 -0.3348 -0.1802  0.0281
  349MOL0    Cl47024  13.059   2.161   6.210 -0.4735 -0.0852  0.4126
  349MOL0     C47025  12.361   2.475   6.867 -0.5504  0.5947 -0.6059
  349MOL0     C47026  12.275   2.576   6.910 -0.1924 -0.1421 -0.9920
  349MOL0     O47027  12.354   2.957   7.026  0.0376 -0.6724 -0.5121
  349MOL0     C47028  12.141   3.118   7.089 -0.2671  0.5418  0.4730
  349MOL0     C47029  12.034   3.198   7.107  0.5953 -0.2005 -0.4500
  349MOL0     N47030  11.332   3.373   7.041  0.3337  0.0031 -1.1526
  349MOL0     N47031  11.216   3.420   7.002 -0.7493 -0.3353 -0.1971
  349MOL0     C47032  10.791   4.464   6.541 -0.5948  0.6258  1.3504
  349MOL0     C47033  10.707   4.568   6.505 -0.1548  0.4817  1.0746
  349MOL0     C47034  10.457   4.828   6.202  1.0525 -0.0430  1.0554
  349MOL0     C47035  10.381   4.878   6.312 -1.0741  0.5684 -0.1574
  349MOL0     C47036  10.299   4.990   6.305 -1.0340 -0.8319  0.1868
  349MOL0     C47037  10.285   5.056   6.186  1.1239  0.0942  0.2426
  349MOL0     O47038  10.205   5.161   6.153 -0.8730 -0.1081 -0.1487
  349MOL0     C47039  10.119   5.234   6.242  0.5495 -0.0784 -0.3839
  349MOL0     C47040  10.002   5.152   6.293  0.1436  0.2455 -0.5533
  349MOL0     C47041   9.895   5.235   6.370 -0.5075 -0.5476  0.4571
  349MOL0     C47042   9.956   5.300   6.498  0.9499  0.6681 -0.2485
  349MOL0     C47043   9.844   5.346   6.582 -1.1041 -0.4640  0.3699
  349MOL0     C47044   9.755   5.387   6.653 -0.1331  0.0787 -0.0821
  349MOL0     C47045  10.355   5.013   6.067 -0.4279  0.5347  0.7573
  349MOL0     C47046  10.445   4.903   6.077 -0.3583  0.0020  0.7360
  349MOL0     C47047  10.539   4.875   5.965 -0.0031 -0.3821  0.1333
  349MOL0     H47048  10.560   4.378   6.251 -0.6757 -1.6711  1.4354
  349MOL0     H47049  10.731   4.233   6.303 -0.7427  0.7191 -0.1735
  349MOL0     H47050  10.860   4.106   6.411  0.0568 -0.5267  1.4084
  349MOL0     H47051  11.009   4.185   6.356  0.7819  1.9101  0.3814
  349MOL0     H47052  11.091   4.137   6.611 -0.3416  0.6221 -1.0933
  349MOL0     H47053  11.096   4.013   6.483 -0.1527  0.1386 -0.6720
  349MOL0     H47054  10.922   3.895   6.588 -0.0155 -1.4503  1.5517
  349MOL0     H47055  10.860   4.037   6.673  0.1236 -0.0252 -1.2090
  349MOL0     H47056  11.137   3.908   6.736 -0.0554  1.1259 -0.4172
  349MOL0     H47057  11.041   4.041   6.813 -3.7661  1.1684 -1.7272
  349MOL0     H47058  10.870   3.893   6.880  0.5278 -1.8672  3.3925
  349MOL0     H47059  10.936   3.754   6.789 -1.9038  0.1284  0.6862
  349MOL0     H47060  11.065   3.901   7.025 -3.1893  1.0226  0.2628
  349MOL0     H47061  10.958   3.758   7.034  0.1465  1.1046  0.5750
  349MOL0     H47062  11.203   3.705   7.051  0.2846 -2.1876 -0.8343
  349MOL0     H47063  11.238   3.785   6.900  0.7974 -1.1093  1.2643
  349MOL0     H47064  11.035   3.564   6.892  0.1540  0.2194  1.5083
  349MOL0     H47065  11.141   3.623   6.758  0.3343 -0.6166 -0.5714
  349MOL0     H47066  11.426   3.576   6.804  5.1400 -2.8624  0.9314
  349MOL0     H47067  11.609   3.298   7.013  1.2779 -0.6050 -3.4492
  349MOL0     H47068  11.625   3.408   6.897 -0.2090 -3.1884 -0.8672
  349MOL0     H47069  11.640   3.603   7.032  0.9984 -0.2266  0.0837
  349MOL0     H47070  11.605   3.530   7.188  2.0799  0.4795  1.6708
  349MOL0     H47071  11.845   3.557   7.156 -2.5822  1.8467 -0.7974
  349MOL0     H47072  11.843   3.440   7.022 -1.2799 -4.5772 -0.4496
  349MOL0     H47073  11.740   3.370   7.303  0.4283 -2.9145  0.6491
  349MOL0     H47074  11.915   3.359   7.267  0.6124 -0.2227 -1.1406
  349MOL0     H47075  11.779   2.973   7.079  1.4431 -1.8142 -1.7468
  349MOL0     H47076  11.952   2.824   7.035  1.2790 -0.5442  1.7161
  349MOL0     H47077  12.447   2.847   6.830  1.1744 -0.7469 -0.8311
  349MOL0     H47078  12.600   2.667   6.736 -0.8138 -2.1488 -2.0377
  349MOL0     H47079  12.653   2.352   6.568 -0.0158  0.9178 -1.3456
  349MOL0     H47080  12.625   2.523   6.590  1.6069 -0.8588 -1.5117
  349MOL0     H47081  12.811   2.564   6.659 -1.5298 -1.0160 -1.2587
  349MOL0     H47082  12.774   2.510   6.817  5.9446  1.1754  1.5113
  349MOL0     H47083  12.885   2.283   6.756 -1.0670 -1.3506 -1.5241
  349MOL0     H47084  12.874   2.323   6.590 -1.8982  2.3265  0.3693
  349MOL0     H47085  13.066   2.436   6.807 -2.3252  0.3277  0.3074
  349MOL0     H47086  13.043   2.535   6.658  1.8035  0.0834 -1.4437
  349MOL0     H47087  13.139   2.252   6.671  1.3375 -1.2903 -0.4793
  349MOL0     H47088  13.227   2.402   6.614 -0.4739  0.3779 -0.7956
  349MOL0     H47089  13.012   2.265   6.460 -2.5859  2.6305  1.6953
  349MOL0     H47090  13.064   2.428   6.408  1.0909 -0.0682  0.0917
  349MOL0     H47091  13.264   2.191   6.420 -0.5200 -0.1354 -0.5152
  349MOL0     H47092  13.288   2.375   6.396  1.5517  0.1189 -2.5550
  349MOL0     H47093  13.163   2.375   6.202  0.1420  0.6958  2.2964
  349MOL0     H47094  13.272   2.239   6.174 -0.5347  1.1895 -1.0770
  349MOL0     H47095  12.312   2.381   6.889  0.9570 -0.6002 -2.1278
  349MOL0     H47096  12.178   2.550   6.951  1.8525 -4.9692  1.5687
  349MOL0     H47097  12.240   3.161   7.086 -0.0012  0.5843  4.7628
  349MOL0     H47098  12.051   3.304   7.124  0.5120 -0.1907 -0.4281
  349MOL0     H47099  10.866   4.473   6.620  0.9165 -0.2844  0.0782
  349MOL0     H47100  10.710   4.668   6.547 -0.6320  0.2276  1.7246
  349MOL0     H47101  10.397   4.821   6.403 -2.8279 -1.1262 -0.8251
  349MOL0     H47102  10.232   5.018   6.386 -0.6171  0.4532  0.1175
  349MOL0     H47103  10.085   5.321   6.185  0.9855  0.3019 -0.0732
  349MOL0     H47104  10.180   5.277   6.322  0.4253 -0.7739  0.0938
  349MOL0     H47105  10.040   5.070   6.355  2.5952  0.8820 -1.1141
  349MOL0     H47106   9.942   5.117   6.208 -0.8039  3.2204 -1.2083
  349MOL0     H47107   9.824   5.159   6.406 -1.8841  0.0202 -0.9466
  349MOL0     H47108   9.855   5.322   6.317  1.4216  2.3025  3.2768
  349MOL0     H47109  10.015   5.226   6.553  2.5047  0.6419 -1.8599
  349MOL0     H47110  10.021   5.384   6.470  3.1036 -0.6525  0.4915
  349MOL0     H47111   9.675   5.426   6.713 -1.7967  0.9231 -2.6677
  349MOL0     H47112  10.351   5.057   5.968  0.7849 -0.6663  0.1478
  349MOL0     H47113  10.521   4.949   5.887 -0.0354 -0.5111  0.0171
  349MOL0     H47114  10.644   4.876   5.994 -0.0143  0.1653  0.1570
  349MOL0     H47115  10.512   4.783   5.913 -1.2094  0.4504 -0.7899
  350MOL0     O47116   3.530   4.366   5.232 -0.2991  0.1850  0.0924
  350MOL0     C47117   3.598   4.368   5.129  0.0260 -0.2028  1.2800
  350MOL0     O47118   3.555   4.312   5.012 -0.0723  0.1177 -0.4318
  350MOL0     C47119   3.424   4.273   5.015  0.3361 -0.3843  0.0380
  350MOL0     C47120   3.326   4.336   4.938  0.3081 -0.3432 -0.1914
  350MOL0     C47121   3.189   4.290   4.919  0.0789 -0.7055  0.3165
  350MOL0     C47122   3.155   4.173   4.982  0.7330  0.3968  0.0959
  350MOL0     O47123   3.027   4.127   4.950 -0.2905  0.3842 -0.5057
  350MOL0     C47124   2.984   4.006   5.014 -0.2189 -0.8587  0.8237
  350MOL0     C47125   2.830   4.004   4.996 -0.1884 -0.4658  0.1228
  350MOL0     C47126   2.797   4.009   4.842 -0.1485  0.6562 -1.1697
  350MOL0     C47127   2.643   3.989   4.807 -0.8014 -0.7218  0.3206
  350MOL0     C47128   2.602   4.010   4.663 -0.9431 -0.6987 -0.5151
  350MOL0     C47129   2.455   3.980   4.641 -0.5262 -0.0313 -0.1820
  350MOL0     C47130   2.355   4.053   4.733  0.2312  0.5473  0.1948
  350MOL0     C47131   2.317   3.969   4.850 -0.0904  0.0985 -0.5452
  350MOL0     N47132   2.258   3.835   4.810  0.0327 -0.4642 -0.7938
  350MOL0     C47133   2.272   3.723   4.883 -0.5001  0.0418 -0.6725
  350MOL0     C47134   2.188   3.636   4.825  0.8119  1.5650 -0.0017
  350MOL0     C47135   2.184   3.487   4.851  0.4380  0.6444  0.2893
  350MOL0     C47136   2.218   3.405   4.725 -0.0176  0.1416  0.4325
  350MOL0     C47137   2.213   3.252   4.758 -0.9083 -0.1123  0.7205
  350MOL0     C47138   2.232   3.164   4.637 -0.6724 -0.2524  0.4772
  350MOL0     O47139   2.130   3.179   4.540 -0.5877 -0.1569  0.2035
  350MOL0     C47140   2.005   3.127   4.565  0.3566 -0.9155 -0.4301
  350MOL0     C47141   1.893   3.181   4.488  0.9464  0.1087 -0.2234
  350MOL0     C47142   1.764   3.122   4.506  0.6525  0.5872 -0.3959
  350MOL0     C47143   1.737   3.017   4.594 -0.3310  0.8534 -0.0382
  350MOL0     C47144   1.597   2.973   4.632 -0.1359 -0.5353  0.5739
  350MOL0     O47145   1.510   3.006   4.534 -0.0488  0.0598  0.1647
  350MOL0     C47146   1.373   2.983   4.552 -0.4444 -0.3934 -0.4044
  350MOL0     C47147   1.285   3.092   4.547  0.2900 -0.5493 -0.2780
  350MOL0     C47148   1.148   3.078   4.563 -0.6920 -0.2945 -0.7408
  350MOL0     C47149   1.103   2.956   4.607  0.0187  0.5759  1.5671
  350MOL0     O47150   0.969   2.937   4.636  0.1398 -0.0026 -0.1414
  350MOL0     C47151   0.928   3.024   4.740 -0.0189  0.3354 -0.5806
  350MOL0     C47152   0.782   2.989   4.791 -0.4749  0.8637 -0.7026
  350MOL0     C47153   0.678   2.987   4.684 -0.5969  0.6224  0.4588
  350MOL0     C47154   0.669   3.096   4.577  0.1815 -0.1365  0.9319
  350MOL0     C47155   0.706   3.070   4.427  0.2137 -0.8577  0.4053
  350MOL0     C47156   0.684   3.195   4.341  0.3637  0.2926  0.4872
  350MOL0     C47157   0.542   3.252   4.339 -0.3867  0.7333  0.4776
  350MOL0     C47158   0.448   3.176   4.246  0.1900  0.8894  0.1092
  350MOL0    Cl47159   0.468   3.194   4.069  0.0050  0.3031  0.4115
  350MOL0     C47160   1.188   2.843   4.598  0.4909 -0.2040 -0.3843
  350MOL0     C47161   1.324   2.862   4.572  0.5915 -0.0020  0.2294
  350MOL0     O47162   1.568   2.902   4.734 -0.5205  0.6676 -0.1780
  350MOL0     C47163   1.849   2.969   4.669  0.7942 -0.3322 -1.0618
  350MOL0     C47164   1.980   3.020   4.659 -0.0762 -0.7607  0.7291
  350MOL0     N47165   2.121   3.696   4.723  0.0739  0.2667  0.0532
  350MOL0     N47166   2.169   3.816   4.711 -1.2440  0.6072 -0.0720
  350MOL0     C47167   3.249   4.122   5.068  0.1610 -0.9844 -0.6774
  350MOL0     C47168   3.378   4.167   5.090  0.0475 -0.3547  0.6362
  350MOL0     C47169   3.725   4.432   5.134  0.5269 -0.2162 -0.6277
  350MOL0     C47170   3.806   4.397   5.245 -0.3973 -0.3009 -0.8126
  350MOL0     C47171   3.943   4.442   5.251 -0.1114 -0.3046 -0.4637
  350MOL0     C47172   3.993   4.535   5.154 -0.4011 -0.4031  0.4190
  350MOL0     O47173   4.130   4.556   5.161  0.1940 -0.3179 -0.1502
  350MOL0     C47174   4.167   4.693   5.132  0.3502 -0.1371 -0.2040
  350MOL0     C47175   4.307   4.731   5.188  0.6002  0.0959 -0.3209
  350MOL0     C47176   4.405   4.718   5.076 -0.2098 -0.1659  0.6674
  350MOL0     C47177   4.408   4.839   4.985 -0.5227  0.4277 -0.4265
  350MOL0     C47178   4.502   4.945   5.033 -0.4167  0.5060  0.1272
  350MOL0     C47179   4.580   5.025   5.085 -0.0261 -0.1815 -0.8642
  350MOL0     C47180   3.904   4.583   5.053 -0.0953 -0.1509 -0.2787
  350MOL0     C47181   3.778   4.522   5.031 -0.5792 -0.2325 -0.1691
  350MOL0     C47182   3.709   4.551   4.900 -0.1347  0.0730 -0.4291
  350MOL0     H47183   3.366   4.410   4.870 -0.8104 -0.4344 -0.9714
  350MOL0     H47184   3.115   4.350   4.867  0.0433 -0.3684  0.7412
  350MOL0     H47185   3.042   3.921   4.978  0.5948  0.8283 -2.1878
  350MOL0     H47186   3.010   4.006   5.121  1.1431  3.6298  0.6948
  350MOL0     H47187   2.780   4.090   5.041  1.4250 -0.4013  1.8992
  350MOL0     H47188   2.799   3.912   5.046  1.5808 -2.2508 -1.8729
  350MOL0     H47189   2.847   3.927   4.790 -0.6246 -1.8587  2.0187
  350MOL0     H47190   2.827   4.105   4.798  2.4337 -0.5999 -2.3757
  350MOL0     H47191   2.613   3.893   4.850 -1.8199  0.0502  1.4087
  350MOL0     H47192   2.607   4.063   4.878  0.6411 -0.5389  0.9013
  350MOL0     H47193   2.605   4.117   4.641 -1.7928 -1.0199 -2.3758
  350MOL0     H47194   2.659   3.957   4.585  0.9178 -0.5485  0.6719
  350MOL0     H47195   2.424   3.983   4.536 -0.7347  0.7949 -0.0993
  350MOL0     H47196   2.446   3.873   4.663  1.7588 -0.0565  0.9393
  350MOL0     H47197   2.273   4.083   4.667  0.6743 -0.4531 -0.8605
  350MOL0     H47198   2.403   4.141   4.777 -0.0884  0.7099  0.2170
  350MOL0     H47199   2.404   3.959   4.916  0.5790 -3.2768 -1.7562
  350MOL0     H47200   2.243   4.025   4.908  0.5461 -0.3811  0.7578
  350MOL0     H47201   2.338   3.708   4.968 -1.3374 -2.5940 -0.4139
  350MOL0     H47202   2.241   3.457   4.940  1.0556 -0.7231 -0.5427
  350MOL0     H47203   2.080   3.470   4.879  0.0865  3.3783  0.9369
  350MOL0     H47204   2.156   3.427   4.637  0.7854 -0.5933 -0.3382
  350MOL0     H47205   2.318   3.442   4.699 -0.9503  1.9938 -0.7450
  350MOL0     H47206   2.115   3.232   4.802 -1.5035 -0.7910 -0.8204
  350MOL0     H47207   2.287   3.229   4.834 -1.4940  0.3625  1.4458
  350MOL0     H47208   2.244   3.058   4.661  2.9681  0.3390  1.8532
  350MOL0     H47209   2.331   3.183   4.595  0.6239 -3.2121  1.9190
  350MOL0     H47210   1.905   3.272   4.429 -1.1576  1.6255  1.5010
  350MOL0     H47211   1.688   3.184   4.459 -2.7720 -0.2573  3.4515
  350MOL0     H47212   1.338   3.186   4.541 -0.0703  0.1140  3.8429
  350MOL0     H47213   1.077   3.157   4.540 -1.0749 -1.0327 -2.2881
  350MOL0     H47214   0.997   3.012   4.824  1.3698  0.8020 -1.6233
  350MOL0     H47215   0.921   3.122   4.693  0.8701  0.3718 -0.6499
  350MOL0     H47216   0.777   2.892   4.842 -2.7259  1.3313  0.0556
  350MOL0     H47217   0.745   3.053   4.871 -2.4763 -2.5693  1.3578
  350MOL0     H47218   0.707   2.895   4.632  1.6405  0.7217  1.3852
  350MOL0     H47219   0.580   2.973   4.730 -2.3751 -0.9254 -3.3224
  350MOL0     H47220   0.730   3.181   4.611  1.8649 -1.4231  1.2319
  350MOL0     H47221   0.562   3.119   4.567 -0.0282 -1.8541 -1.8865
  350MOL0     H47222   0.656   2.990   4.371 -1.6019  1.3924 -1.4166
  350MOL0     H47223   0.811   3.046   4.412 -0.1285 -0.1199 -6.2571
  350MOL0     H47224   0.749   3.279   4.367 -0.0587  1.7168 -2.5909
  350MOL0     H47225   0.707   3.161   4.240  3.5433 -1.2786  1.5978
  350MOL0     H47226   0.558   3.348   4.288  1.4034 -0.0177 -0.4753
  350MOL0     H47227   0.496   3.259   4.438 -2.7810 -1.8705 -0.3499
  350MOL0     H47228   0.445   3.068   4.267 -1.7016  0.6800 -0.9558
  350MOL0     H47229   0.347   3.206   4.275 -1.2684 -0.3467 -3.1357
  350MOL0     H47230   1.155   2.742   4.618  4.2363 -1.6556 -0.6418
  350MOL0     H47231   1.403   2.788   4.564  0.9933  0.4097  0.3850
  350MOL0     H47232   1.823   2.888   4.737  0.0949 -1.2755 -2.4085
  350MOL0     H47233   2.064   2.991   4.722  2.5148  1.9228 -1.2443
  350MOL0     H47234   3.240   4.023   5.111  4.5989 -2.6740 -2.9456
  350MOL0     H47235   3.435   4.107   5.160 -1.9354 -2.8923  0.2482
  350MOL0     H47236   3.766   4.339   5.328 -0.1094  2.9892  1.8314
  350MOL0     H47237   4.017   4.395   5.314 -0.5417 -2.4206 -1.4335
  350MOL0     H47238   4.090   4.765   5.162  1.4021  1.3496 -0.9838
  350MOL0     H47239   4.172   4.702   5.023  3.3250 -0.9155 -0.2197
  350MOL0     H47240   4.332   4.671   5.275  0.0931  1.5285  0.8530
  350MOL0     H47241   4.290   4.836   5.214 -1.6395 -0.5701  1.1148
  350MOL0     H47242   4.374   4.635   5.011  1.7532 -1.3269  1.1323
  350MOL0     H47243   4.508   4.703   5.109  0.5657  0.6420 -1.2047
  350MOL0     H47244   4.444   4.809   4.887 -1.4750  3.2188 -1.7442
  350MOL0     H47245   4.307   4.877   4.964 -0.5059 -0.4373 -2.2106
  350MOL0     H47246   4.661   5.067   5.142 -1.1307 -1.2889  1.6801
  350MOL0     H47247   3.945   4.636   4.968  2.6724 -0.3703  0.8247
  350MOL0     H47248   3.662   4.650   4.903 -0.7588 -0.1008 -2.6757
  350MOL0     H47249   3.783   4.558   4.820  0.2572 -2.5625 -0.3534
  350MOL0     H47250   3.632   4.476   4.883  1.8563 -3.1074  3.0115
  351MOL0     O47251   1.294  10.201   3.980 -0.3218  0.5364 -0.0260
  351MOL0     C47252   1.419  10.197   3.969 -1.1874 -0.1121  0.5096
  351MOL0     O47253   1.509  10.230   4.062  0.7110 -0.1756  0.9732
  351MOL0     C47254   1.459  10.266   4.183 -0.7718  0.4972  0.7482
  351MOL0     C47255   1.408  10.398   4.197  0.8131  0.9717  0.2699
  351MOL0     C47256   1.363  10.430   4.322  0.2234 -0.1901  0.2486
  351MOL0     C47257   1.341  10.333   4.425 -0.4984 -0.1455  0.9018
  351MOL0     O47258   1.267  10.361   4.537 -0.4271  0.2555  0.0929
  351MOL0     C47259   1.296  10.486   4.611 -0.4550 -0.2124 -0.2814
  351MOL0     C47260   1.296  10.470   4.757  0.3890  0.8370 -0.4152
  351MOL0     C47261   1.354  10.593   4.831  0.3190 -0.0112  0.7894
  351MOL0     C47262   1.349  10.556   4.976 -0.4645  0.6004 -0.8058
  351MOL0     C47263   1.407  10.668   5.072 -0.5783  0.0783 -0.8873
  351MOL0     C47264   1.303  10.775   5.109  0.0600 -0.9142  0.3405
  351MOL0     C47265   1.373  10.895   5.175 -0.2484 -0.3080 -0.1544
  351MOL0     C47266   1.418  10.853   5.311 -0.0047  0.2445 -0.4260
  351MOL0     N47267   1.570  10.861   5.319  0.3002 -0.5983  0.1140
  351MOL0     C47268   1.661  10.796   5.243 -0.5904  0.4973 -0.6477
  351MOL0     C47269   1.782  10.833   5.287  0.2270  0.0420 -0.3204
  351MOL0     C47270   1.917  10.792   5.226  1.0572 -0.5285  0.3875
  351MOL0     C47271   1.999  10.894   5.146  0.1138 -0.0495 -0.9432
  351MOL0     C47272   2.146  10.843   5.132 -0.3972 -1.1104 -1.3404
  351MOL0     C47273   2.168  10.735   5.037 -0.1549  0.3374 -0.9558
  351MOL0     O47274   2.144  10.609   5.097 -0.2018 -0.4532  0.2876
  351MOL0     C47275   2.217  10.555   5.199 -0.3347  0.4739 -0.5542
  351MOL0     C47276   2.340  10.610   5.238  0.3905  0.3216 -0.0317
  351MOL0     C47277   2.417  10.545   5.335 -0.7783 -0.3275  0.7146
  351MOL0     C47278   2.381  10.417   5.395 -0.1095 -0.8313 -0.7165
  351MOL0     C47279   2.478  10.360   5.494  0.1991 -0.2433 -0.0080
  351MOL0     O47280   2.582  10.437   5.547 -0.2719  1.0158 -0.1833
  351MOL0     C47281   2.678  10.370   5.628 -1.0591 -0.3587 -0.0822
  351MOL0     C47282   2.653  10.359   5.760 -0.3853 -0.0848 -0.0515
  351MOL0     C47283   2.760  10.309   5.848 -0.0414  0.2933 -0.9048
  351MOL0     C47284   2.888  10.279   5.795 -0.0271  0.5663 -0.4273
  351MOL0     O47285   3.005  10.250   5.858  0.8935 -0.0185 -0.5093
  351MOL0     C47286   2.982  10.221   6.000  0.1623  0.3278  0.0459
  351MOL0     C47287   3.124  10.201   6.059  0.2691  0.6315  0.2403
  351MOL0     C47288   3.191  10.333   6.086 -0.7460 -0.0218  0.1280
  351MOL0     C47289   3.339  10.321   6.093 -0.6971  0.2978  0.0154
  351MOL0     C47290   3.405  10.457   6.132  0.0228  0.2634  0.2309
  351MOL0     C47291   3.382  10.498   6.284  0.1967  0.4661 -0.3776
  351MOL0     C47292   3.403  10.644   6.311 -0.3750  0.3129  0.5336
  351MOL0     C47293   3.291  10.734   6.251 -0.1889  0.1365  0.3327
  351MOL0    Cl47294   3.288  10.898   6.314  0.1602 -0.2447  0.0614
  351MOL0     C47295   2.902  10.279   5.654  0.2800 -0.6212 -0.7473
  351MOL0     C47296   2.797  10.317   5.573 -0.8166  0.2420  0.1310
  351MOL0     O47297   2.459  10.243   5.517 -0.6069  0.2312 -0.4138
  351MOL0     C47298   2.264  10.366   5.350  0.0728  1.1149 -0.1241
  351MOL0     C47299   2.185  10.426   5.250  0.0466 -0.1905  0.2421
  351MOL0     N47300   1.760  10.921   5.397 -0.0522  0.2907 -0.1386
  351MOL0     N47301   1.642  10.920   5.427  0.0790 -0.1062 -0.3971
  351MOL0     C47302   1.393  10.205   4.407 -0.1160 -0.4845  0.5134
  351MOL0     C47303   1.457  10.173   4.288 -0.0024 -0.7111 -0.3421
  351MOL0     C47304   1.478  10.126   3.852  0.9812  0.1211 -0.1706
  351MOL0     C47305   1.437   9.995   3.829 -0.0969  1.1069  0.1836
  351MOL0     C47306   1.488   9.924   3.725 -0.1667 -0.3013  0.2017
  351MOL0     C47307   1.573   9.977   3.634  0.5124 -0.6925 -0.8404
  351MOL0     O47308   1.606   9.906   3.523  0.2469  0.0118  0.2226
  351MOL0     C47309   1.639   9.978   3.394 -0.3921 -0.2474 -0.8214
  351MOL0     C47310   1.626   9.891   3.269 -1.0189  0.0745 -0.3024
  351MOL0     C47311   1.747   9.790   3.259 -0.4295 -0.1952 -0.3110
  351MOL0     C47312   1.759   9.701   3.377  0.6121 -0.8038  0.3946
  351MOL0     C47313   1.852   9.602   3.339  0.3715 -0.3369  0.3068
  351MOL0     C47314   1.923   9.505   3.318  0.0988  0.0196 -0.0004
  351MOL0     C47315   1.613  10.115   3.662 -0.4889 -0.9266 -1.0054
  351MOL0     C47316   1.560  10.191   3.764 -0.2648  0.0643 -0.9347
  351MOL0     C47317   1.592  10.337   3.779 -0.4839 -0.6887 -0.5791
  351MOL0     H47318   1.400  10.475   4.121  0.7894  1.0516  0.3541
  351MOL0     H47319   1.311  10.525   4.334 -1.6452 -1.0493 -0.7100
  351MOL0     H47320   1.394  10.524   4.581  0.6573  2.1499  5.1136
  351MOL0     H47321   1.232  10.572   4.587 -0.5125  0.8175  3.0152
  351MOL0     H47322   1.336  10.372   4.784 -2.5732  0.1161  1.8776
  351MOL0     H47323   1.196  10.470   4.801  0.5723 -0.8436  0.0476
  351MOL0     H47324   1.295  10.680   4.800  1.3548 -0.2599 -2.2660
  351MOL0     H47325   1.460  10.608   4.809  1.0337 -3.3795  1.4030
  351MOL0     H47326   1.247  10.525   5.001 -0.6269  0.0649 -2.0933
  351MOL0     H47327   1.412  10.467   4.986  0.6518  1.5066  0.7368
  351MOL0     H47328   1.442  10.621   5.164  1.7635  0.9851 -1.2436
  351MOL0     H47329   1.492  10.715   5.021  0.1146  0.1815  0.3248
  351MOL0     H47330   1.255  10.802   5.015 -1.5565 -0.0351  1.3804
  351MOL0     H47331   1.225  10.743   5.178  2.3722 -1.6278  2.7796
  351MOL0     H47332   1.298  10.974   5.179 -0.8320 -0.8639  0.2193
  351MOL0     H47333   1.449  10.933   5.107 -3.6856  3.1861 -2.4554
  351MOL0     H47334   1.391  10.935   5.378 -0.1150  0.6693 -0.9884
  351MOL0     H47335   1.383  10.758   5.352  1.1428  1.0065  2.5864
  351MOL0     H47336   1.638  10.726   5.163 -1.3343 -3.2849  2.5972
  351MOL0     H47337   1.978  10.756   5.309 -0.5635  2.7535  3.2309
  351MOL0     H47338   1.905  10.705   5.160 -1.4134  0.2729 -0.3239
  351MOL0     H47339   1.970  10.923   5.045 -1.0221 -0.1211 -0.6442
  351MOL0     H47340   1.987  10.988   5.201  0.1660 -1.8567  2.4588
  351MOL0     H47341   2.204  10.839   5.225 -0.8244  2.0223 -0.8309
  351MOL0     H47342   2.196  10.933   5.094 -0.2274 -0.7348 -0.2576
  351MOL0     H47343   2.274  10.735   5.007  0.3326  0.7451  0.6540
  351MOL0     H47344   2.103  10.761   4.953  0.1811 -1.7996 -1.9322
  351MOL0     H47345   2.379  10.706   5.205 -0.6862  2.0513  3.3066
  351MOL0     H47346   2.510  10.595   5.363  0.1639 -1.3547 -0.4527
  351MOL0     H47347   2.559  10.397   5.798 -0.0377  0.3480  0.3892
  351MOL0     H47348   2.747  10.312   5.956 -0.1792 -1.7362 -0.8318
  351MOL0     H47349   2.926  10.299   6.052 -0.7622 -1.4864  1.9162
  351MOL0     H47350   2.925  10.127   6.001 -0.1828  0.5374  0.1681
  351MOL0     H47351   3.095  10.150   6.151  0.6499  0.8578  0.4854
  351MOL0     H47352   3.185  10.136   5.996  1.7780  1.5341  0.7396
  351MOL0     H47353   3.165  10.403   6.006  2.0404 -1.8753 -2.6495
  351MOL0     H47354   3.149  10.368   6.181 -2.7073  0.0599 -0.7245
  351MOL0     H47355   3.383  10.304   5.994 -2.4881  2.7564 -1.2990
  351MOL0     H47356   3.372  10.236   6.154  1.2815  0.6082 -0.5402
  351MOL0     H47357   3.371  10.533   6.061  3.1157  2.3818  0.8038
  351MOL0     H47358   3.514  10.457   6.121  0.5303  0.2913  4.0591
  351MOL0     H47359   3.277  10.482   6.307 -1.2590  2.8550 -4.4036
  351MOL0     H47360   3.441  10.437   6.354 -0.3320  1.1290  0.6819
  351MOL0     H47361   3.496  10.680   6.266  0.0819 -0.5631  0.7541
  351MOL0     H47362   3.417  10.653   6.419  3.4016  0.3611  0.1632
  351MOL0     H47363   3.301  10.752   6.144  0.4832 -2.7989 -0.1752
  351MOL0     H47364   3.189  10.699   6.269 -0.4713 -1.4249 -3.4534
  351MOL0     H47365   3.001  10.267   5.612  1.1118  2.6386  0.0233
  351MOL0     H47366   2.812  10.325   5.466  2.9998  1.3981  0.6253
  351MOL0     H47367   2.218  10.272   5.380  0.2390  0.4466 -1.8645
  351MOL0     H47368   2.097  10.372   5.218 -0.8161 -0.5349  2.9447
  351MOL0     H47369   1.370  10.131   4.482  1.3912 -0.8406  0.6611
  351MOL0     H47370   1.496  10.073   4.273 -0.7299 -0.9600 -0.6107
  351MOL0     H47371   1.368   9.948   3.898 -1.0103 -0.4587 -1.7157
  351MOL0     H47372   1.448   9.823   3.722 -1.0876  0.0157 -3.9039
  351MOL0     H47373   1.746  10.000   3.393 -0.4313 -0.0416 -1.3745
  351MOL0     H47374   1.580  10.070   3.392  1.4087  0.9646 -0.1586
  351MOL0     H47375   1.639   9.965   3.189 -0.1509  1.1736  0.8027
  351MOL0     H47376   1.528   9.844   3.261 -0.8820 -0.6214  1.6417
  351MOL0     H47377   1.838   9.850   3.254  0.5402 -1.5611  0.2005
  351MOL0     H47378   1.745   9.741   3.162  0.8456  1.0776 -1.0304
  351MOL0     H47379   1.796   9.754   3.465  0.7376  2.1179 -1.2849
  351MOL0     H47380   1.661   9.654   3.390 -1.2443  2.8046  0.7738
  351MOL0     H47381   1.992   9.423   3.314 -3.4723 -3.2527  0.7214
  351MOL0     H47382   1.681  10.165   3.594  0.3862 -2.0618 -0.9889
  351MOL0     H47383   1.499  10.394   3.770 -0.0657 -0.2825 -3.2400
  351MOL0     H47384   1.642  10.357   3.874 -0.5667  0.7493 -0.8267
  351MOL0     H47385   1.662  10.374   3.704 -0.2862 -0.6689 -0.3864
  352MOL0     O47386   7.282   1.863   9.249  0.0909  0.4404  0.2343
  352MOL0     C47387   7.283   1.974   9.298  0.0582 -0.1165  0.3705
  352MOL0     O47388   7.191   2.025   9.392  0.4597  1.3009  0.4458
  352MOL0     C47389   7.075   1.950   9.410  0.2609  0.2830  0.8043
  352MOL0     C47390   7.091   1.812   9.467 -0.6420 -0.3816  0.3818
  352MOL0     C47391   6.973   1.744   9.493 -0.6361  0.1967 -0.9066
  352MOL0     C47392   6.848   1.804   9.478 -0.1177  0.4239 -0.1969
  352MOL0     O47393   6.732   1.738   9.494 -0.0799 -0.6213 -0.4382
  352MOL0     C47394   6.693   1.688   9.625  0.1861  0.5378 -0.5558
  352MOL0     C47395   6.611   1.560   9.609 -0.3232  0.1908  0.3899
  352MOL0     C47396   6.480   1.586   9.527 -0.4764  0.4505 -0.5743
  352MOL0     C47397   6.433   1.454   9.478 -0.0267  0.8209 -0.0462
  352MOL0     C47398   6.305   1.457   9.380 -0.1715  0.3188 -0.3698
  352MOL0     C47399   6.333   1.375   9.257 -0.3335  0.0446 -0.2037
  352MOL0     C47400   6.241   1.411   9.131  0.3517  0.0922 -0.7993
  352MOL0     C47401   6.096   1.410   9.160 -0.0794  0.5272  0.5177
  352MOL0     N47402   6.046   1.270   9.183  0.0472 -0.4372  0.7707
  352MOL0     C47403   6.040   1.184   9.079  0.2453 -0.3604  0.8525
  352MOL0     C47404   5.998   1.073   9.131 -0.7990 -0.6205 -1.1361
  352MOL0     C47405   5.972   0.934   9.070 -0.2360 -0.0969  0.1445
  352MOL0     C47406   6.083   0.827   9.089  0.1638 -0.6182 -1.0072
  352MOL0     C47407   6.215   0.865   9.033 -0.3388 -0.2016 -0.4218
  352MOL0     C47408   6.306   0.944   9.122 -0.6038  1.2371 -0.4872
  352MOL0     O47409   6.442   0.940   9.071  0.2411 -0.1058 -0.1962
  352MOL0     C47410   6.533   0.995   9.152 -0.7282  0.5178  0.5666
  352MOL0     C47411   6.670   0.978   9.111 -0.0699  1.2409  0.3541
  352MOL0     C47412   6.780   1.028   9.182  0.2500 -1.2924  1.0608
  352MOL0     C47413   6.756   1.101   9.297  0.2354  0.8009  0.4752
  352MOL0     C47414   6.864   1.151   9.380 -0.2435  0.3855  0.7001
  352MOL0     O47415   6.852   1.276   9.445  0.3391 -0.3185  0.0772
  352MOL0     C47416   6.954   1.319   9.532 -0.1593 -0.9229 -0.3318
  352MOL0     C47417   7.077   1.361   9.485 -0.8264 -0.1049  0.5463
  352MOL0     C47418   7.172   1.416   9.568  0.4598  0.2844 -0.6733
  352MOL0     C47419   7.162   1.419   9.705 -0.1790  0.4862 -0.5353
  352MOL0     O47420   7.276   1.440   9.784  0.0601 -0.0054 -0.1284
  352MOL0     C47421   7.251   1.470   9.921 -0.3393  0.2254 -0.2802
  352MOL0     C47422   7.372   1.543   9.973 -0.0091  0.2260 -0.0606
  352MOL0     C47423   7.404   1.664   9.879 -0.1006  0.5521 -0.6561
  352MOL0     C47424   7.292   1.756   9.844  0.1039 -1.5300  0.1522
  352MOL0     C47425   7.342   1.899   9.815 -0.1834 -0.6552  0.6870
  352MOL0     C47426   7.456   1.908   9.705 -0.6902 -0.2848  0.3774
  352MOL0     C47427   7.491   2.053   9.669 -0.4517  1.4177  0.2674
  352MOL0     C47428   7.628   2.073   9.601  0.6538 -0.0864  0.2760
  352MOL0    Cl47429   7.690   2.241   9.576 -0.4267  0.1935 -0.3601
  352MOL0     C47430   7.032   1.379   9.762 -0.5086 -0.0655 -0.9966
  352MOL0     C47431   6.930   1.337   9.672 -0.7213  0.0984  0.2853
  352MOL0     O47432   6.960   1.072   9.393 -0.6208  0.1870  0.2761
  352MOL0     C47433   6.627   1.110   9.350  1.3512  0.0684  0.3026
  352MOL0     C47434   6.516   1.057   9.274 -0.2763 -0.9463 -0.9700
  352MOL0     N47435   5.975   1.097   9.269 -0.0993  0.0536 -0.1866
  352MOL0     N47436   6.006   1.217   9.293  0.2658 -0.4367 -0.6968
  352MOL0     C47437   6.835   1.927   9.418  0.6274 -0.0175  0.4358
  352MOL0     C47438   6.947   2.002   9.388 -0.2633  0.6495  0.3622
  352MOL0     C47439   7.390   2.073   9.246  0.2071 -0.4734  0.5623
  352MOL0     C47440   7.396   2.201   9.310 -0.1886 -0.5358  0.0222
  352MOL0     C47441   7.481   2.300   9.269 -0.0208  0.0456  0.0308
  352MOL0     C47442   7.565   2.275   9.159 -0.7072 -0.1385  0.2613
  352MOL0     O47443   7.668   2.361   9.116 -0.8498 -0.1923  0.4286
  352MOL0     C47444   7.694   2.483   9.192  0.2388  0.2331 -0.1447
  352MOL0     C47445   7.780   2.571   9.099  0.0980  0.6746 -0.0664
  352MOL0     C47446   7.903   2.495   9.041  0.8192 -0.6628 -0.5421
  352MOL0     C47447   8.030   2.574   9.055 -0.5904 -0.9679  0.1412
  352MOL0     C47448   8.131   2.515   8.968 -1.4964 -0.3367  0.5507
  352MOL0     C47449   8.227   2.476   8.896  0.3194  1.0953 -0.9637
  352MOL0     C47450   7.568   2.151   9.100  0.0857 -0.1126  0.1755
  352MOL0     C47451   7.481   2.047   9.135  0.7087 -0.3348 -0.4301
  352MOL0     C47452   7.486   1.920   9.054 -0.2947  0.6402 -0.6181
  352MOL0     H47453   7.181   1.755   9.489 -1.4654 -2.8580 -2.1161
  352MOL0     H47454   6.985   1.642   9.530  0.6705  1.4778  2.5773
  352MOL0     H47455   6.771   1.667   9.698  0.5277 -0.0268 -1.0745
  352MOL0     H47456   6.617   1.751   9.673  0.2830  0.4508 -0.2883
  352MOL0     H47457   6.582   1.522   9.707 -2.3986  0.5702 -0.0179
  352MOL0     H47458   6.672   1.482   9.565  0.3237  1.3241 -0.7897
  352MOL0     H47459   6.499   1.650   9.441  0.2660  1.0798  0.0517
  352MOL0     H47460   6.414   1.641   9.595  0.8110  0.4934  0.6674
  352MOL0     H47461   6.513   1.397   9.428 -0.4256 -3.1241  3.2461
  352MOL0     H47462   6.400   1.398   9.566 -3.6146 -0.6821 -2.1094
  352MOL0     H47463   6.222   1.408   9.432 -0.0711  0.3813 -0.1490
  352MOL0     H47464   6.289   1.563   9.360  0.6709  0.0979 -2.4725
  352MOL0     H47465   6.439   1.385   9.230  0.6666 -3.4282  1.7582
  352MOL0     H47466   6.317   1.270   9.286 -1.8916  0.4114  0.3236
  352MOL0     H47467   6.254   1.346   9.044  1.0995  1.4860 -1.7707
  352MOL0     H47468   6.265   1.512   9.097 -0.8393  1.6495  2.5026
  352MOL0     H47469   6.071   1.474   9.245 -3.0379  1.1796 -0.7230
  352MOL0     H47470   6.044   1.447   9.071  0.2611 -0.0995  0.0471
  352MOL0     H47471   6.062   1.196   8.973  0.4138 -0.8909  0.8228
  352MOL0     H47472   5.879   0.885   9.098  0.2042 -0.4696  0.9807
  352MOL0     H47473   5.954   0.959   8.965  2.3426  3.1301  0.3032
  352MOL0     H47474   6.105   0.802   9.193  2.5615 -2.4475 -1.8578
  352MOL0     H47475   6.050   0.731   9.047  1.6997 -1.9877  0.7178
  352MOL0     H47476   6.199   0.914   8.936  0.0615 -2.1508 -1.5241
  352MOL0     H47477   6.259   0.767   9.017 -0.2694 -0.6199  1.9512
  352MOL0     H47478   6.310   0.901   9.222  1.2897  3.5564  0.5293
  352MOL0     H47479   6.271   1.047   9.136  0.3751  1.6112 -0.7653
  352MOL0     H47480   6.699   0.929   9.019 -0.8878 -0.7255  1.1036
  352MOL0     H47481   6.875   1.033   9.129  0.8078 -1.4180  2.0321
  352MOL0     H47482   7.102   1.345   9.380  0.2260 -0.6711  0.8653
  352MOL0     H47483   7.270   1.441   9.529  1.3576  3.8191  3.1135
  352MOL0     H47484   7.156   1.522   9.937  0.3138  1.2843  0.3076
  352MOL0     H47485   7.246   1.375   9.975  1.4641  0.6322  0.6702
  352MOL0     H47486   7.348   1.573  10.075 -4.6691  0.4560 -0.9934
  352MOL0     H47487   7.462   1.480   9.973 -0.9260 -1.1238  0.3897
  352MOL0     H47488   7.472   1.720   9.945 -0.8799 -1.2771  1.8603
  352MOL0     H47489   7.460   1.633   9.790  3.7300 -1.5641  2.1517
  352MOL0     H47490   7.211   1.757   9.917  0.4220  0.3152  0.5359
  352MOL0     H47491   7.252   1.730   9.746  1.0344 -1.3516 -0.2926
  352MOL0     H47492   7.380   1.941   9.908  0.3863  1.5639 -0.4884
  352MOL0     H47493   7.254   1.956   9.784  0.9835  0.9371  0.2065
  352MOL0     H47494   7.537   1.857   9.756  0.6713  2.1364  0.8114
  352MOL0     H47495   7.434   1.854   9.613  2.5463  0.1435 -0.7544
  352MOL0     H47496   7.498   2.108   9.763 -1.3597  0.0463  1.1625
  352MOL0     H47497   7.417   2.096   9.601  0.0570  1.2661 -0.4008
  352MOL0     H47498   7.707   2.014   9.648  1.4188 -0.9683 -1.9584
  352MOL0     H47499   7.620   2.021   9.505  1.2483  0.6995 -0.2139
  352MOL0     H47500   7.000   1.383   9.865 -0.3145 -4.1088 -0.6486
  352MOL0     H47501   6.831   1.322   9.715 -0.1691 -2.3687  0.7839
  352MOL0     H47502   6.617   1.157   9.448  1.9142 -0.2777  0.5343
  352MOL0     H47503   6.418   1.053   9.321  1.4873  0.0341  3.2732
  352MOL0     H47504   6.734   1.955   9.393  0.1716 -1.9145 -0.0301
  352MOL0     H47505   6.953   2.097   9.334  1.4566  0.5516  0.3205
  352MOL0     H47506   7.326   2.228   9.389  0.9138  1.2969  0.4180
  352MOL0     H47507   7.468   2.400   9.308 -3.0310 -1.1460  2.5455
  352MOL0     H47508   7.737   2.452   9.288  0.7769 -1.7561 -0.9846
  352MOL0     H47509   7.597   2.529   9.211 -3.2387 -4.4458 -3.8903
  352MOL0     H47510   7.826   2.656   9.150 -0.0065  0.7972 -0.1771
  352MOL0     H47511   7.711   2.588   9.015 -2.2966 -1.2143  1.3935
  352MOL0     H47512   7.886   2.492   8.933  0.9236 -0.2661 -0.5701
  352MOL0     H47513   7.912   2.393   9.081 -1.6600  0.6112  4.0420
  352MOL0     H47514   8.006   2.678   9.032 -1.2246 -1.3056 -0.8012
  352MOL0     H47515   8.062   2.575   9.160  0.6808 -1.3266 -0.2274
  352MOL0     H47516   8.322   2.456   8.851  1.0785  0.4843  0.8156
  352MOL0     H47517   7.640   2.147   9.019  1.2584  2.5535  0.9580
  352MOL0     H47518   7.507   1.835   9.120 -3.3282  0.1225 -0.1689
  352MOL0     H47519   7.391   1.894   9.006 -0.3558 -0.7806  0.2067
  352MOL0     H47520   7.553   1.932   8.968 -1.3048  2.0076 -1.2520
  353MOL0     O47521   6.300   6.567   1.317  0.3983  0.6671  0.4623
  353MOL0     C47522   6.376   6.581   1.409  0.0773 -0.2524 -0.9223
  353MOL0     O47523   6.390   6.495   1.514 -0.2734 -0.4496 -0.5406
  353MOL0     C47524   6.294   6.395   1.524 -0.7937 -0.8398  0.6511
  353MOL0     C47525   6.167   6.426   1.579 -0.2013 -0.0136  0.4890
  353MOL0     C47526   6.066   6.324   1.590  0.6821 -1.3778  0.3545
  353MOL0     C47527   6.088   6.201   1.529 -0.2448  0.3795  0.7873
  353MOL0     O47528   5.980   6.109   1.511 -0.8564  0.5350 -0.3554
  353MOL0     C47529   5.894   6.067   1.616  0.1099  0.6358 -0.2148
  353MOL0     C47530   5.761   6.022   1.562 -1.0156  0.7030  0.0542
  353MOL0     C47531   5.766   5.887   1.480  0.0673 -1.3047  0.4865
  353MOL0     C47532   5.642   5.884   1.391  0.8212  0.0867 -0.8579
  353MOL0     C47533   5.543   5.761   1.412  0.2162  0.0413 -0.2770
  353MOL0     C47534   5.604   5.648   1.343  1.0518  0.1840 -0.0215
  353MOL0     C47535   5.520   5.515   1.331  0.2692  0.8809  0.3479
  353MOL0     C47536   5.586   5.429   1.229 -0.0246  0.1345 -0.0102
  353MOL0     N47537   5.497   5.315   1.188  1.1840  0.1261 -0.4667
  353MOL0     C47538   5.376   5.324   1.128 -0.7731  0.0861  0.9167
  353MOL0     C47539   5.317   5.204   1.135  0.5100 -0.1957  0.3718
  353MOL0     C47540   5.176   5.175   1.100  0.6131 -0.1023  0.2823
  353MOL0     C47541   5.166   5.047   1.032  0.2485  0.1080 -0.2774
  353MOL0     C47542   5.017   5.009   0.987  0.0097 -0.3880  0.1842
  353MOL0     C47543   5.025   4.869   0.931  0.3935 -0.1840 -0.7297
  353MOL0     O47544   5.093   4.864   0.808 -0.0903  0.1585 -0.0369
  353MOL0     C47545   5.064   4.766   0.726 -0.1048  1.0432 -0.4216
  353MOL0     C47546   5.034   4.632   0.768  0.0564 -1.0472 -0.0225
  353MOL0     C47547   4.995   4.534   0.668  0.5008  0.0003 -0.2087
  353MOL0     C47548   4.990   4.561   0.536  0.4238  0.4475  0.0910
  353MOL0     C47549   4.940   4.454   0.437  0.1941  0.4812  0.3770
  353MOL0     O47550   4.907   4.498   0.311  0.2505 -0.1832  0.1759
  353MOL0     C47551   4.887   4.414   0.201 -0.5297 -0.5927  0.2364
  353MOL0     C47552   4.919   4.277   0.190  0.5737 -0.5415  1.3253
  353MOL0     C47553   4.888   4.209   0.071  0.1967 -0.6178  0.3517
  353MOL0     C47554   4.820   4.273  -0.030  0.0528 -1.3926  0.4509
  353MOL0     O47555   4.795   4.196  -0.138 -0.3272  0.3876 -0.1653
  353MOL0     C47556   4.686   4.243  -0.228 -0.3290 -0.3325 -0.7588
  353MOL0     C47557   4.687   4.146  -0.344 -0.0281  1.1861 -0.2094
  353MOL0     C47558   4.626   4.002  -0.319 -0.9700 -0.3531 -0.7905
  353MOL0     C47559   4.478   4.020  -0.288  0.6746  0.3380 -0.7630
  353MOL0     C47560   4.398   3.891  -0.310 -0.3973 -0.7765 -0.0810
  353MOL0     C47561   4.252   3.908  -0.305  0.0625 -0.7344  0.0228
  353MOL0     C47562   4.182   3.783  -0.338  1.0803 -0.0052  0.6786
  353MOL0     C47563   4.092   3.744  -0.231 -0.0555  0.3918 -0.1080
  353MOL0    Cl47564   3.993   3.613  -0.290 -0.5549 -0.4920  0.3044
  353MOL0     C47565   4.787   4.415  -0.026 -0.4956 -0.0792 -0.8942
  353MOL0     C47566   4.819   4.474   0.091  0.3787 -0.2594  1.0233
  353MOL0     O47567   4.944   4.337   0.477  0.1712 -0.2278 -0.1290
  353MOL0     C47568   5.022   4.693   0.499 -0.4478 -0.4092 -0.0770
  353MOL0     C47569   5.068   4.793   0.594 -0.0978 -0.0667  0.3696
  353MOL0     N47570   5.406   5.117   1.186  0.9595  0.2652  0.0173
  353MOL0     N47571   5.505   5.184   1.229 -0.2073 -0.6729  0.5222
  353MOL0     C47572   6.211   6.170   1.473  0.6710  0.2595 -0.9483
  353MOL0     C47573   6.319   6.259   1.491  0.5151  0.5596 -0.1781
  353MOL0     C47574   6.490   6.675   1.392 -0.3850  0.3915 -0.2325
  353MOL0     C47575   6.621   6.629   1.418 -0.0234 -0.1153 -1.0001
  353MOL0     C47576   6.739   6.705   1.422  0.7146 -0.0799 -0.5706
  353MOL0     C47577   6.718   6.840   1.384  0.7007  0.6267 -1.1793
  353MOL0     O47578   6.820   6.926   1.401 -0.3978 -0.1409 -0.1701
  353MOL0     C47579   6.892   6.949   1.277 -0.5377  0.7776  0.1115
  353MOL0     C47580   6.973   7.077   1.307 -0.7003  0.6052 -0.1321
  353MOL0     C47581   7.078   7.100   1.199  0.2387 -0.5843 -0.7441
  353MOL0     C47582   7.173   7.222   1.227 -0.6824  0.1547  0.0456
  353MOL0     C47583   7.111   7.330   1.308  0.1817  0.3506  0.3726
  353MOL0     C47584   7.055   7.425   1.366 -0.0974  0.3697  0.1887
  353MOL0     C47585   6.596   6.892   1.351 -0.1741  0.1741  0.1168
  353MOL0     C47586   6.482   6.811   1.346  0.0421  0.2652  0.6163
  353MOL0     C47587   6.346   6.869   1.302 -0.1253  0.4313 -0.8507
  353MOL0     H47588   6.153   6.519   1.632 -1.0892  0.3902 -0.4307
  353MOL0     H47589   5.974   6.350   1.642  0.3957 -0.7184 -0.4599
  353MOL0     H47590   5.937   5.980   1.668 -0.2032 -0.4816 -1.7725
  353MOL0     H47591   5.887   6.145   1.692  0.7624 -0.3254  0.8724
  353MOL0     H47592   5.714   6.105   1.509 -0.9652  1.1184  0.6615
  353MOL0     H47593   5.700   6.008   1.651 -1.1725 -2.1774 -0.4047
  353MOL0     H47594   5.780   5.800   1.546 -0.5639 -1.0265  0.9987
  353MOL0     H47595   5.854   5.903   1.416  0.8254 -0.3016  1.7238
  353MOL0     H47596   5.582   5.974   1.407 -2.0649 -1.7372 -0.7402
  353MOL0     H47597   5.680   5.885   1.289  0.1914 -0.2710 -1.0972
  353MOL0     H47598   5.531   5.728   1.516 -2.3605 -1.7466 -1.0413
  353MOL0     H47599   5.442   5.773   1.372 -1.6003 -5.2268  1.7502
  353MOL0     H47600   5.614   5.683   1.240  5.1708  1.7952  0.7243
  353MOL0     H47601   5.703   5.628   1.386  1.5871  0.9174 -0.8857
  353MOL0     H47602   5.419   5.539   1.295  0.7710 -0.3076 -2.0581
  353MOL0     H47603   5.517   5.473   1.432  0.4934  3.4943  1.5219
  353MOL0     H47604   5.610   5.491   1.143 -0.4072 -1.4706 -1.3386
  353MOL0     H47605   5.679   5.382   1.263  0.1418 -0.5078 -1.3018
  353MOL0     H47606   5.324   5.418   1.114  1.8885  1.4937 -0.1030
  353MOL0     H47607   5.120   5.182   1.194  0.3322  2.2562  0.0080
  353MOL0     H47608   5.130   5.249   1.035 -1.1090 -1.9639 -0.7328
  353MOL0     H47609   5.227   5.042   0.942  0.9367 -0.4633  0.2129
  353MOL0     H47610   5.201   4.967   1.098 -0.2237 -0.2493 -0.4469
  353MOL0     H47611   4.973   5.059   0.900 -2.9693 -2.2969  0.4623
  353MOL0     H47612   4.953   5.016   1.076  1.7878 -1.2410  1.5874
  353MOL0     H47613   4.922   4.839   0.908  0.3717  0.1195 -1.0308
  353MOL0     H47614   5.066   4.805   1.009  1.0451  0.0972 -0.8348
  353MOL0     H47615   5.031   4.608   0.874 -0.1097  0.7309  0.4110
  353MOL0     H47616   4.979   4.429   0.693 -2.3473  0.2935 -0.4741
  353MOL0     H47617   4.965   4.225   0.273 -1.1922 -0.8021  2.2021
  353MOL0     H47618   4.911   4.105   0.051 -2.3756 -0.8835 -1.7210
  353MOL0     H47619   4.589   4.247  -0.177  0.4833 -0.8152  0.8859
  353MOL0     H47620   4.712   4.341  -0.269 -2.5408  0.5508 -0.1596
  353MOL0     H47621   4.644   4.185  -0.437 -1.9434  0.8728  0.5088
  353MOL0     H47622   4.790   4.119  -0.370 -0.6606 -0.6280 -0.9473
  353MOL0     H47623   4.642   3.933  -0.403 -1.5959 -1.7727  0.2199
  353MOL0     H47624   4.683   3.969  -0.232 -0.1064  2.2170 -0.2789
  353MOL0     H47625   4.448   4.092  -0.365  3.6582  0.5997 -1.7892
  353MOL0     H47626   4.467   4.052  -0.184  1.0848  0.3977 -0.7357
  353MOL0     H47627   4.433   3.809  -0.245  0.2247 -0.0512  0.5267
  353MOL0     H47628   4.422   3.859  -0.411  0.5618  1.5669 -0.6657
  353MOL0     H47629   4.221   3.958  -0.212  2.6094  2.1739 -0.5072
  353MOL0     H47630   4.230   3.983  -0.382 -1.1133  0.8952  1.8404
  353MOL0     H47631   4.249   3.699  -0.361  1.6041  0.7978 -0.9157
  353MOL0     H47632   4.123   3.806  -0.428 -1.1077  1.8300  2.4753
  353MOL0     H47633   4.147   3.712  -0.142 -2.2226  0.1202  1.1843
  353MOL0     H47634   4.020   3.818  -0.198  0.6618  0.3470  1.6715
  353MOL0     H47635   4.728   4.459  -0.106  0.4783  2.4113 -0.3276
  353MOL0     H47636   4.789   4.578   0.098 -2.8081 -1.0311  0.4082
  353MOL0     H47637   5.017   4.720   0.394  1.1866  0.2170 -0.0121
  353MOL0     H47638   5.094   4.886   0.543  3.1144 -0.9166  0.2442
  353MOL0     H47639   6.240   6.072   1.438  1.8097 -0.2567  1.2804
  353MOL0     H47640   6.416   6.227   1.454  1.4090  1.8067  0.9932
  353MOL0     H47641   6.627   6.522   1.437  0.7198  0.0291 -0.3819
  353MOL0     H47642   6.835   6.669   1.458  1.2701  3.8921  2.6429
  353MOL0     H47643   6.818   6.951   1.196 -0.8148 -0.5525  0.3055
  353MOL0     H47644   6.954   6.861   1.254 -4.6626 -1.4098 -4.8552
  353MOL0     H47645   7.033   7.081   1.398  0.9736  1.6674 -1.2177
  353MOL0     H47646   6.892   7.150   1.311 -1.4585 -0.2852  2.8956
  353MOL0     H47647   7.022   7.121   1.107  0.7547 -0.2177 -0.9847
  353MOL0     H47648   7.139   7.016   1.165  1.1086 -0.2932  0.0701
  353MOL0     H47649   7.266   7.182   1.269 -0.6075 -0.4701 -0.6965
  353MOL0     H47650   7.202   7.264   1.131 -0.3265 -0.1645  0.0095
  353MOL0     H47651   7.008   7.509   1.413 -0.8345  0.6676 -1.0280
  353MOL0     H47652   6.599   7.000   1.343  2.4514  0.2471  1.0824
  353MOL0     H47653   6.354   6.974   1.271 -0.1568  0.8849  0.5970
  353MOL0     H47654   6.308   6.806   1.221  1.7802 -1.4163 -0.3828
  353MOL0     H47655   6.276   6.873   1.386  0.2460 -2.0708 -0.3546
  354MOL0     O47656   7.082   6.995   5.937 -0.4379  0.0117 -0.3496
  354MOL0     C47657   7.010   7.088   5.976  0.0000 -0.3307 -0.1253
  354MOL0     O47658   7.055   7.196   6.048  0.7812  0.7546 -0.9221
  354MOL0     C47659   7.180   7.193   6.120  0.2604 -0.2981  0.7454
  354MOL0     C47660   7.273   7.088   6.124 -0.3501 -0.7868 -0.5337
  354MOL0     C47661   7.395   7.102   6.195 -0.4376 -0.4055  0.3418
  354MOL0     C47662   7.432   7.223   6.254 -0.1787 -0.3722 -0.6565
  354MOL0     O47663   7.545   7.218   6.332 -0.5468  0.4074  0.0004
  354MOL0     C47664   7.518   7.284   6.458 -0.5416  0.1323 -0.0991
  354MOL0     C47665   7.637   7.267   6.549  0.0911 -0.2472 -1.1304
  354MOL0     C47666   7.646   7.368   6.662 -0.1192 -0.5178 -0.5867
  354MOL0     C47667   7.723   7.308   6.781 -0.0523 -0.2309 -0.7244
  354MOL0     C47668   7.873   7.327   6.766 -0.4213 -0.1486 -0.2280
  354MOL0     C47669   7.938   7.321   6.909 -0.2855  0.1813 -0.9525
  354MOL0     C47670   8.083   7.363   6.907 -0.1267  0.4105  0.0666
  354MOL0     C47671   8.130   7.363   7.059  0.8533 -0.5628  0.5341
  354MOL0     N47672   8.264   7.333   7.080 -0.8318 -0.4245 -0.5849
  354MOL0     C47673   8.349   7.422   7.147  0.5123  0.1349 -0.5265
  354MOL0     C47674   8.473   7.363   7.149  0.3323 -0.1716 -0.3536
  354MOL0     C47675   8.597   7.416   7.221 -0.3968 -0.0145 -0.2378
  354MOL0     C47676   8.585   7.417   7.374 -0.3401 -0.4389  0.2711
  354MOL0     C47677   8.555   7.269   7.416 -0.5596 -0.9906  0.1580
  354MOL0     C47678   8.668   7.163   7.429 -1.2510  0.0635 -0.4736
  354MOL0     O47679   8.752   7.195   7.546 -0.2912  0.1435 -0.0736
  354MOL0     C47680   8.738   7.105   7.650  1.1861 -0.2372  0.3195
  354MOL0     C47681   8.614   7.077   7.711  0.0427 -0.3761  0.4995
  354MOL0     C47682   8.614   6.986   7.814  0.2254 -0.1902  0.0662
  354MOL0     C47683   8.720   6.914   7.859  0.8323  0.2249 -0.0110
  354MOL0     C47684   8.698   6.816   7.962 -0.2562 -0.6003  0.0846
  354MOL0     O47685   8.577   6.753   7.982  0.2112 -0.8318 -0.3373
  354MOL0     C47686   8.566   6.653   8.075 -0.2797 -0.3140 -0.4913
  354MOL0     C47687   8.529   6.521   8.046  0.7719  0.3871 -0.1284
  354MOL0     C47688   8.521   6.423   8.144  0.0088  0.8330  0.4548
  354MOL0     C47689   8.535   6.460   8.278 -0.5086  0.4596 -0.6097
  354MOL0     O47690   8.512   6.393   8.400 -0.0944 -0.1817  0.2389
  354MOL0     C47691   8.410   6.299   8.391 -0.1738  0.0954  0.1217
  354MOL0     C47692   8.385   6.277   8.541 -0.5270  0.0590 -1.1318
  354MOL0     C47693   8.252   6.196   8.576 -0.1925 -0.0830  0.0133
  354MOL0     C47694   8.244   6.183   8.731  0.9580 -0.9588  0.2625
  354MOL0     C47695   8.123   6.111   8.803 -0.6916  0.0963 -0.6599
  354MOL0     C47696   8.004   6.196   8.786 -0.0815 -0.3125 -0.1944
  354MOL0     C47697   7.873   6.137   8.835  0.3766 -0.5174 -0.1462
  354MOL0     C47698   7.837   6.172   8.981 -0.5511 -0.8380  0.1466
  354MOL0    Cl47699   7.928   6.058   9.078  0.1979  0.1160  0.0657
  354MOL0     C47700   8.570   6.589   8.308 -1.7327 -0.1158  0.1897
  354MOL0     C47701   8.589   6.685   8.206  0.0191  0.9219  0.9445
  354MOL0     O47702   8.801   6.789   8.021 -0.2946 -0.0419  0.1344
  354MOL0     C47703   8.849   6.949   7.809  0.7308  0.7999 -0.5356
  354MOL0     C47704   8.853   7.050   7.708 -0.1011  0.2493 -0.4370
  354MOL0     N47705   8.465   7.248   7.074  0.4494 -0.5072 -0.0794
  354MOL0     N47706   8.338   7.226   7.036 -0.1786  0.3689 -0.3203
  354MOL0     C47707   7.346   7.330   6.249 -1.7138 -0.2645  0.0953
  354MOL0     C47708   7.226   7.310   6.183  0.7374  0.4863  0.5022
  354MOL0     C47709   6.857   7.090   5.945 -0.1759  0.8928  0.6812
  354MOL0     C47710   6.788   7.209   5.941  0.2755 -0.3328 -0.1839
  354MOL0     C47711   6.651   7.226   5.924 -0.1781  0.6958  0.3002
  354MOL0     C47712   6.578   7.112   5.895  0.4194 -0.1788 -0.0190
  354MOL0     O47713   6.441   7.124   5.883  0.3210 -0.3538 -0.1373
  354MOL0     C47714   6.355   7.015   5.899  0.3967 -0.9286 -0.0331
  354MOL0     C47715   6.209   7.059   5.902  0.0863 -0.4436 -0.1834
  354MOL0     C47716   6.106   6.952   5.936 -0.0376  0.4256  1.0342
  354MOL0     C47717   6.125   6.819   5.859 -0.7119 -0.9528 -0.0164
  354MOL0     C47718   6.109   6.839   5.709 -0.3373  0.5668  0.0995
  354MOL0     C47719   6.105   6.877   5.585  0.4028 -1.4691 -1.0256
  354MOL0     C47720   6.642   6.994   5.886 -0.5362  0.3580  0.1413
  354MOL0     C47721   6.778   6.981   5.908  0.1711 -0.2392 -0.2759
  354MOL0     C47722   6.835   6.834   5.895  0.2775 -0.6706 -0.4339
  354MOL0     H47723   7.245   6.989   6.092  1.2883 -1.8520  1.1378
  354MOL0     H47724   7.471   7.025   6.203 -0.7561 -0.6638  0.9727
  354MOL0     H47725   7.518   7.392   6.444  1.7983 -0.0702 -2.6799
  354MOL0     H47726   7.420   7.253   6.495 -1.1000 -0.9714 -2.3059
  354MOL0     H47727   7.729   7.272   6.490  0.4723 -0.2634 -0.5549
  354MOL0     H47728   7.622   7.169   6.595 -2.6657  0.6971  0.1764
  354MOL0     H47729   7.542   7.385   6.689 -0.7974 -0.6924 -2.8314
  354MOL0     H47730   7.687   7.457   6.613  0.0120 -1.2334 -1.8318
  354MOL0     H47731   7.708   7.364   6.873 -0.9588  1.0316 -1.5967
  354MOL0     H47732   7.700   7.203   6.796  3.0935 -0.5369  3.5871
  354MOL0     H47733   7.920   7.245   6.711  0.1067 -1.9708  2.7128
  354MOL0     H47734   7.901   7.419   6.713  2.4520 -2.1057 -2.3904
  354MOL0     H47735   7.884   7.386   6.978  0.8528  0.1728 -0.0361
  354MOL0     H47736   7.932   7.220   6.950  0.2515  0.8155  0.7369
  354MOL0     H47737   8.096   7.458   6.856  2.2647 -0.8585 -1.9205
  354MOL0     H47738   8.144   7.292   6.849  0.2309  0.0459  0.8557
  354MOL0     H47739   8.103   7.462   7.097 -1.5661  0.0918 -2.4524
  354MOL0     H47740   8.083   7.288   7.124  1.3236 -0.5027  0.9545
  354MOL0     H47741   8.323   7.509   7.206  0.7199 -1.6478  2.3984
  354MOL0     H47742   8.687   7.362   7.191 -0.0664  0.0538  0.5973
  354MOL0     H47743   8.601   7.517   7.180 -2.2440  0.3583  0.3888
  354MOL0     H47744   8.678   7.443   7.427 -0.1524  1.4369 -0.9017
  354MOL0     H47745   8.505   7.478   7.417 -0.1757  0.0014 -0.0483
  354MOL0     H47746   8.475   7.233   7.351 -0.5360  0.7126 -0.8534
  354MOL0     H47747   8.495   7.285   7.506 -1.8203 -1.0708 -0.6492
  354MOL0     H47748   8.731   7.160   7.340 -0.3641  1.9303  0.0368
  354MOL0     H47749   8.631   7.061   7.445  1.5626 -0.9705  0.0358
  354MOL0     H47750   8.516   7.115   7.682  1.0471  0.7247 -1.6184
  354MOL0     H47751   8.516   6.961   7.855 -0.6262 -1.1506 -2.3334
  354MOL0     H47752   8.512   6.489   7.943  1.4336 -0.4323  0.0102
  354MOL0     H47753   8.499   6.322   8.114  0.2646  0.4007  1.6475
  354MOL0     H47754   8.315   6.327   8.344 -0.5567 -0.7248  0.3904
  354MOL0     H47755   8.443   6.203   8.351 -2.9908 -1.3148  0.8659
  354MOL0     H47756   8.468   6.217   8.577 -0.6221 -1.0043 -2.5890
  354MOL0     H47757   8.379   6.379   8.581  3.2831  1.2203 -2.9643
  354MOL0     H47758   8.159   6.236   8.535  1.7121  1.0505 -3.6815
  354MOL0     H47759   8.262   6.096   8.533  0.7710  0.5210 -1.2438
  354MOL0     H47760   8.243   6.286   8.769  2.4859 -0.3736 -1.1508
  354MOL0     H47761   8.337   6.134   8.762  1.7751  1.2205  1.4482
  354MOL0     H47762   8.141   6.108   8.911 -0.8643  2.9063 -0.4844
  354MOL0     H47763   8.100   6.016   8.753  2.7633 -0.9089 -0.6004
  354MOL0     H47764   8.019   6.290   8.840 -0.8063 -0.5422  0.4327
  354MOL0     H47765   7.983   6.202   8.679  0.7523 -3.0625 -0.5855
  354MOL0     H47766   7.867   6.031   8.808 -0.6478  0.0807 -2.4668
  354MOL0     H47767   7.797   6.191   8.779 -1.4447 -1.4722  1.2959
  354MOL0     H47768   7.846   6.277   9.008  3.3180 -1.0668  0.2998
  354MOL0     H47769   7.733   6.140   8.992  0.0681 -2.4561  1.8048
  354MOL0     H47770   8.580   6.618   8.412  0.9591 -0.2047  0.0334
  354MOL0     H47771   8.630   6.783   8.230  2.5417  0.1127  0.2703
  354MOL0     H47772   8.936   6.904   7.855 -0.2035 -2.5652 -1.7125
  354MOL0     H47773   8.954   7.080   7.684  0.0337  1.6592  1.5977
  354MOL0     H47774   7.377   7.427   6.285 -0.1738 -0.5274 -0.4239
  354MOL0     H47775   7.165   7.398   6.167 -1.7924 -1.5033 -1.6548
  354MOL0     H47776   6.844   7.302   5.952  0.0816 -0.1506 -0.6902
  354MOL0     H47777   6.605   7.324   5.936  1.0523  1.6188 -1.8631
  354MOL0     H47778   6.374   6.953   5.986  0.5690  0.3228  0.8456
  354MOL0     H47779   6.363   6.952   5.810 -1.8989  1.0190 -1.7839
  354MOL0     H47780   6.193   7.107   5.806  2.0902 -0.4394 -0.5507
  354MOL0     H47781   6.214   7.138   5.977  2.1689 -0.4924 -0.2248
  354MOL0     H47782   6.005   6.988   5.917 -0.3910  0.3885  2.6795
  354MOL0     H47783   6.107   6.931   6.044 -2.0008 -0.2768  0.9481
  354MOL0     H47784   6.225   6.777   5.874 -1.0488 -2.6741 -2.1044
  354MOL0     H47785   6.054   6.743   5.892  1.0313 -2.0655  1.3812
  354MOL0     H47786   6.087   6.925   5.492  1.5961 -1.0946 -1.0767
  354MOL0     H47787   6.585   6.907   5.854 -1.2919  1.4480 -1.6308
  354MOL0     H47788   6.899   6.814   5.982  0.4466  0.9682 -0.1642
  354MOL0     H47789   6.751   6.766   5.913  0.3450 -1.0752 -1.5841
  354MOL0     H47790   6.897   6.817   5.807 -1.5372 -0.2078 -1.8512
  355MOL0     O47791   0.649   5.170   8.267 -0.1165 -0.6147  0.2625
  355MOL0     C47792   0.711   5.267   8.310  0.2635  0.5092  0.1588
  355MOL0     O47793   0.722   5.298   8.440  0.3366 -0.0685 -0.0220
  355MOL0     C47794   0.623   5.255   8.527 -0.1606 -0.2437 -0.6570
  355MOL0     C47795   0.667   5.150   8.605  0.6810  0.3042 -0.3466
  355MOL0     C47796   0.573   5.083   8.694  0.2280 -0.1896 -0.9302
  355MOL0     C47797   0.441   5.132   8.704  0.7673  0.2459  0.7092
  355MOL0     O47798   0.354   5.062   8.784  0.0143  0.0684  0.0865
  355MOL0     C47799   0.221   5.113   8.795  0.2860  0.3622  0.1521
  355MOL0     C47800   0.145   5.038   8.901 -0.2604 -0.1675  0.0905
  355MOL0     C47801   0.115   4.895   8.859 -0.4394  0.5683 -0.6694
  355MOL0     C47802   0.116   4.798   8.978  1.0155 -0.3631  1.2210
  355MOL0     C47803   0.142   4.654   8.931  0.3555 -0.0602 -0.2432
  355MOL0     C47804   0.281   4.589   8.969 -0.3681 -0.2295  0.1286
  355MOL0     C47805   0.291   4.443   8.919  1.1124 -0.3877 -0.2387
  355MOL0     C47806   0.285   4.427   8.763 -0.3390 -0.8647 -0.1494
  355MOL0     N47807   0.325   4.300   8.697 -0.2761  0.0742 -0.3769
  355MOL0     C47808   0.428   4.218   8.730  0.5422  0.2509 -0.2013
  355MOL0     C47809   0.431   4.130   8.627 -0.3641 -1.0580  0.7731
  355MOL0     C47810   0.539   4.025   8.612 -0.3712 -1.1082 -0.6070
  355MOL0     C47811   0.669   4.078   8.544  0.5504 -0.3473 -0.9794
  355MOL0     C47812   0.751   3.957   8.510 -0.0143 -0.4222  0.0320
  355MOL0     C47813   0.890   3.990   8.473  0.0856  0.2190  0.7906
  355MOL0     O47814   0.891   4.085   8.364  0.2200  0.8514  0.4210
  355MOL0     C47815   1.015   4.134   8.336  0.2690  0.0293  0.3952
  355MOL0     C47816   1.066   4.230   8.420  0.4306 -0.1844 -1.2879
  355MOL0     C47817   1.182   4.295   8.394 -0.3585  0.2596 -1.0376
  355MOL0     C47818   1.258   4.260   8.284  0.0675 -0.2959 -0.7643
  355MOL0     C47819   1.395   4.307   8.256 -0.1574 -0.8895 -0.2886
  355MOL0     O47820   1.452   4.385   8.344  0.5681  0.0839 -0.4577
  355MOL0     C47821   1.566   4.464   8.328  0.2164  0.1628 -0.0315
  355MOL0     C47822   1.696   4.407   8.353  0.1293 -0.0562  0.1506
  355MOL0     C47823   1.811   4.477   8.340 -0.1692 -0.4591  0.0137
  355MOL0     C47824   1.815   4.606   8.300 -0.1741 -0.1193  0.2821
  355MOL0     O47825   1.934   4.681   8.300  0.3873  0.0222 -0.7514
  355MOL0     C47826   2.042   4.637   8.216  0.1698 -0.5020 -0.5285
  355MOL0     C47827   2.176   4.613   8.295 -0.2840 -0.0759  0.4447
  355MOL0     C47828   2.298   4.561   8.217  0.6411  0.1790 -0.6246
  355MOL0     C47829   2.419   4.543   8.309 -0.2652  1.3999  0.1673
  355MOL0     C47830   2.537   4.513   8.218  0.9698 -1.1296 -0.7311
  355MOL0     C47831   2.664   4.486   8.301 -0.2687 -0.0835 -0.6883
  355MOL0     C47832   2.777   4.448   8.208  0.0128  0.1109 -0.3807
  355MOL0     C47833   2.822   4.541   8.099  0.4719 -0.6282  0.0273
  355MOL0    Cl47834   2.898   4.677   8.176  0.0344 -0.6109  0.1810
  355MOL0     C47835   1.688   4.667   8.276 -0.4922 -0.3650 -0.0636
  355MOL0     C47836   1.568   4.597   8.294  0.5243  0.2878 -0.1407
  355MOL0     O47837   1.451   4.270   8.153  0.4012 -0.1375 -0.2608
  355MOL0     C47838   1.209   4.153   8.199 -0.5895 -0.1188 -0.6607
  355MOL0     C47839   1.089   4.087   8.228  0.1451 -1.1763 -0.1429
  355MOL0     N47840   0.325   4.146   8.546 -0.2154  0.1478  0.1719
  355MOL0     N47841   0.271   4.251   8.585  0.2303 -0.2143 -0.2069
  355MOL0     C47842   0.403   5.231   8.610  0.7064 -0.3342 -0.9982
  355MOL0     C47843   0.492   5.302   8.533  0.3648  0.2493  0.0389
  355MOL0     C47844   0.788   5.351   8.209 -0.7022  0.6070  0.3822
  355MOL0     C47845   0.878   5.452   8.265  0.7560 -0.6447 -0.3923
  355MOL0     C47846   0.958   5.532   8.182 -0.8397  0.5496  0.4440
  355MOL0     C47847   0.959   5.509   8.049  0.6902  0.2645 -0.6435
  355MOL0     O47848   1.028   5.598   7.968 -0.1079  0.0812 -0.8062
  355MOL0     C47849   1.027   5.742   7.989 -0.2019  0.3395  0.4445
  355MOL0     C47850   0.973   5.782   7.846 -0.3083  0.1458 -0.7934
  355MOL0     C47851   1.003   5.932   7.811 -0.0355  0.1761 -1.4377
  355MOL0     C47852   1.138   6.005   7.862  0.7035  1.0492 -0.3825
  355MOL0     C47853   1.250   5.921   7.809 -0.0860 -0.2684  0.0542
  355MOL0     C47854   1.336   5.848   7.768  0.1544  0.2592 -0.4796
  355MOL0     C47855   0.873   5.421   7.992 -0.6871  0.3337 -0.0872
  355MOL0     C47856   0.791   5.336   8.065  0.2452  0.1431 -0.8057
  355MOL0     C47857   0.701   5.239   7.993 -0.5676 -0.1559  0.4079
  355MOL0     H47858   0.768   5.111   8.602  0.5494 -1.1866  4.8054
  355MOL0     H47859   0.613   5.000   8.750  4.4221  0.6750 -2.2790
  355MOL0     H47860   0.226   5.213   8.840 -0.6733 -0.1150  1.3927
  355MOL0     H47861   0.159   5.104   8.706 -3.0864  0.4777  2.3263
  355MOL0     H47862   0.061   5.100   8.935  0.5856  0.5959  0.8410
  355MOL0     H47863   0.219   5.033   8.981  0.6907 -0.4664 -0.7938
  355MOL0     H47864   0.186   4.856   8.786  3.7639  1.9389  2.2740
  355MOL0     H47865   0.020   4.921   8.813 -1.5037  0.7607  1.4755
  355MOL0     H47866   0.178   4.828   9.062 -1.2192  2.5455  2.0172
  355MOL0     H47867   0.012   4.797   9.013  0.4937  0.1248 -0.2316
  355MOL0     H47868   0.064   4.595   8.980 -1.1550  1.1006 -1.1577
  355MOL0     H47869   0.128   4.646   8.822 -1.4292 -2.3610  0.0860
  355MOL0     H47870   0.345   4.656   8.911  1.8442 -0.6533  1.9594
  355MOL0     H47871   0.307   4.598   9.075  3.8075 -0.4015 -0.6974
  355MOL0     H47872   0.203   4.388   8.953 -1.2063  2.3432 -1.3393
  355MOL0     H47873   0.384   4.402   8.960  1.5570 -0.5744 -1.3782
  355MOL0     H47874   0.186   4.453   8.723  0.4539 -1.0821 -2.3907
  355MOL0     H47875   0.355   4.502   8.725  1.1986 -1.4445  1.3921
  355MOL0     H47876   0.483   4.249   8.818  2.3044 -1.0564 -0.7776
  355MOL0     H47877   0.561   3.980   8.709 -0.1471 -1.6147 -0.8878
  355MOL0     H47878   0.492   3.954   8.544 -0.7627 -0.9008 -0.5565
  355MOL0     H47879   0.665   4.144   8.457  3.0946  2.9728  1.1582
  355MOL0     H47880   0.717   4.149   8.613 -0.2526  1.1625 -1.9059
  355MOL0     H47881   0.696   3.906   8.430  1.6505 -0.2615 -1.2555
  355MOL0     H47882   0.761   3.888   8.593  1.8761  0.5126  0.6310
  355MOL0     H47883   0.953   3.901   8.466  0.8299  0.8444 -0.8598
  355MOL0     H47884   0.927   4.046   8.559  0.3364  2.1498 -0.5328
  355MOL0     H47885   1.014   4.255   8.512 -0.3320  0.0114 -1.7576
  355MOL0     H47886   1.214   4.364   8.471 -3.3532  0.0008  0.5990
  355MOL0     H47887   1.709   4.304   8.386  2.0958  0.9189  2.7529
  355MOL0     H47888   1.901   4.423   8.369  0.3121  0.3031 -0.0145
  355MOL0     H47889   2.018   4.547   8.159  3.9003 -0.5767 -2.2984
  355MOL0     H47890   2.055   4.725   8.152  0.2096 -0.1855 -0.0915
  355MOL0     H47891   2.210   4.707   8.339 -1.4662  1.3466 -1.5650
  355MOL0     H47892   2.151   4.547   8.379 -0.1208  0.3149  0.8073
  355MOL0     H47893   2.261   4.466   8.178 -1.8623 -0.0443  1.9579
  355MOL0     H47894   2.322   4.632   8.137  0.8539  0.8932  0.0642
  355MOL0     H47895   2.393   4.460   8.376  0.1432  0.0365 -1.3012
  355MOL0     H47896   2.448   4.628   8.372  1.6436 -1.2315  3.1712
  355MOL0     H47897   2.563   4.602   8.160  3.1737 -1.8200 -0.8950
  355MOL0     H47898   2.511   4.431   8.150 -0.7659 -1.1943 -0.0456
  355MOL0     H47899   2.700   4.579   8.346  1.1937 -0.6800 -0.5680
  355MOL0     H47900   2.639   4.424   8.388  1.4458  0.1580  0.0244
  355MOL0     H47901   2.750   4.352   8.164 -1.7895  0.6896 -0.6153
  355MOL0     H47902   2.871   4.436   8.263  1.7367  3.8392 -2.1299
  355MOL0     H47903   2.889   4.488   8.031 -1.0686 -1.9307 -0.5298
  355MOL0     H47904   2.734   4.565   8.037  0.9035 -0.2994 -0.4649
  355MOL0     H47905   1.679   4.773   8.258  0.5887 -0.2995 -0.2621
  355MOL0     H47906   1.480   4.652   8.261  1.6823  1.8691 -0.7451
  355MOL0     H47907   1.268   4.128   8.111  1.2562  0.5618  0.3256
  355MOL0     H47908   1.047   4.013   8.160 -0.1564  0.2095 -1.5360
  355MOL0     H47909   0.301   5.265   8.608  0.9227  0.2816 -2.6679
  355MOL0     H47910   0.460   5.382   8.467 -1.4175  2.4627  3.2974
  355MOL0     H47911   0.880   5.477   8.370  0.1816  1.3689 -0.8237
  355MOL0     H47912   1.031   5.603   8.219  1.3314 -0.8892 -0.8413
  355MOL0     H47913   1.124   5.789   8.005 -0.6903  0.9744  1.7179
  355MOL0     H47914   0.960   5.789   8.061  0.2754  1.4210  0.2001
  355MOL0     H47915   0.868   5.752   7.843 -0.7936  1.8175 -1.6959
  355MOL0     H47916   1.017   5.716   7.772  1.7235 -1.1158  1.4061
  355MOL0     H47917   0.932   6.001   7.859 -1.0444 -2.4245  1.0920
  355MOL0     H47918   0.996   5.936   7.702  2.4751  5.0479 -1.7062
  355MOL0     H47919   1.142   6.095   7.800  1.5396 -0.3717 -2.5159
  355MOL0     H47920   1.121   6.022   7.968 -1.6389  1.2935 -0.7439
  355MOL0     H47921   1.407   5.772   7.742 -1.2823 -1.2461 -0.1609
  355MOL0     H47922   0.883   5.432   7.884  1.6677 -0.0080  0.0583
  355MOL0     H47923   0.595   5.257   8.013 -0.4600  1.5300 -0.3751
  355MOL0     H47924   0.709   5.243   7.884 -0.9151  0.0725  0.3890
  355MOL0     H47925   0.731   5.142   8.032  2.0357  1.1608  1.9450
  356MOL0     O47926  10.540   4.064   3.957 -0.2910  0.0156  0.3364
  356MOL0     C47927  10.539   4.150   3.877 -0.2142  0.3439 -0.4164
  356MOL0     O47928  10.429   4.232   3.851  0.7902 -0.4121 -0.2326
  356MOL0     C47929  10.331   4.252   3.950 -0.6807  1.2204 -0.4019
  356MOL0     C47930  10.207   4.304   3.916  0.4559 -0.7879  0.1677
  356MOL0     C47931  10.107   4.323   4.006  0.0836 -0.1419  0.1801
  356MOL0     C47932  10.120   4.309   4.144 -0.0859  0.9109 -0.1991
  356MOL0     O47933  10.008   4.355   4.228 -0.6988  0.5816  0.2915
  356MOL0     C47934  10.011   4.343   4.367  0.8843  0.4946  0.2117
  356MOL0     C47935   9.890   4.396   4.443  0.8121 -0.3303  0.5191
  356MOL0     C47936   9.875   4.546   4.409 -0.6842 -0.1385  0.5005
  356MOL0     C47937   9.778   4.623   4.499 -0.1480 -0.4087 -0.3563
  356MOL0     C47938   9.781   4.773   4.491  0.9953  0.3774 -0.0904
  356MOL0     C47939   9.644   4.832   4.509 -0.0434 -0.0057 -0.0075
  356MOL0     C47940   9.644   4.985   4.468  0.7704 -0.8797  0.7068
  356MOL0     C47941   9.736   5.074   4.555  0.8594  0.2553 -0.6718
  356MOL0     N47942   9.703   5.056   4.699  0.1412  0.4135 -0.2740
  356MOL0     C47943   9.600   5.103   4.776  0.2782  0.1485 -0.1337
  356MOL0     C47944   9.612   5.047   4.896 -0.0826 -0.3711  0.4065
  356MOL0     C47945   9.545   5.082   5.028  0.2166 -0.0241 -0.0994
  356MOL0     C47946   9.393   5.070   5.017 -0.1455 -0.1356  0.1082
  356MOL0     C47947   9.332   5.066   5.156  0.2659 -0.3759  0.2991
  356MOL0     C47948   9.180   5.012   5.140 -0.2676  0.8295 -0.9282
  356MOL0     O47949   9.179   4.870   5.161  0.6216 -0.1648 -0.5438
  356MOL0     C47950   9.211   4.779   5.062 -0.5147 -0.9927 -0.3416
  356MOL0     C47951   9.196   4.796   4.921  0.8674  1.0646 -0.6534
  356MOL0     C47952   9.216   4.680   4.834 -0.0618 -0.6062 -0.8311
  356MOL0     C47953   9.267   4.555   4.879 -0.0731  0.0783 -0.0063
  356MOL0     C47954   9.313   4.445   4.784  0.2801  0.5256  0.0265
  356MOL0     O47955   9.310   4.484   4.654  0.2479  0.4409 -0.1512
  356MOL0     C47956   9.357   4.408   4.555 -0.0656 -1.0487  0.8917
  356MOL0     C47957   9.433   4.470   4.457  0.2430  0.0986 -0.3506
  356MOL0     C47958   9.487   4.393   4.345 -0.0093  0.3388  0.4138
  356MOL0     C47959   9.469   4.252   4.336 -0.5602 -0.2018 -0.5765
  356MOL0     O47960   9.525   4.172   4.237 -0.6187 -0.3550 -0.2068
  356MOL0     C47961   9.563   4.037   4.267 -0.7828 -1.4007  0.1908
  356MOL0     C47962   9.658   3.984   4.154 -0.0688  0.7063 -0.1541
  356MOL0     C47963   9.759   4.091   4.124  0.3816 -0.0004 -0.0904
  356MOL0     C47964   9.851   4.053   4.002 -0.7562 -0.2142  0.2003
  356MOL0     C47965   9.935   3.915   4.026  0.4078 -0.0589  0.0821
  356MOL0     C47966  10.032   3.880   3.916  0.1356  0.0682 -0.0544
  356MOL0     C47967  10.145   3.981   3.881 -0.3953 -0.5379  0.2071
  356MOL0     C47968  10.190   3.951   3.739  0.2755  0.0418 -0.5517
  356MOL0    Cl47969  10.269   3.789   3.729  0.3011  0.1046 -0.2931
  356MOL0     C47970   9.391   4.200   4.440  0.4619  0.9230  0.1799
  356MOL0     C47971   9.337   4.270   4.545  0.7175 -0.0376  0.7442
  356MOL0     O47972   9.364   4.341   4.827  0.1947  0.3475 -0.5469
  356MOL0     C47973   9.294   4.550   5.011 -0.6794  0.1527 -0.3389
  356MOL0     C47974   9.259   4.653   5.105 -0.0581 -0.6467 -1.1556
  356MOL0     N47975   9.726   4.975   4.892 -0.5369 -0.0872 -0.2846
  356MOL0     N47976   9.779   4.970   4.777  0.8433 -0.2640 -0.0106
  356MOL0     C47977  10.243   4.263   4.178  1.0043  0.4154 -0.0720
  356MOL0     C47978  10.358   4.230   4.090  0.5235 -1.1789 -0.0146
  356MOL0     C47979  10.652   4.155   3.778 -0.7705 -0.1200 -0.2249
  356MOL0     C47980  10.620   4.189   3.642  1.0500  1.0972  0.6018
  356MOL0     C47981  10.719   4.205   3.544 -0.7358 -1.6229 -0.2955
  356MOL0     C47982  10.853   4.201   3.580  0.3966  0.8444 -0.3872
  356MOL0     O47983  10.951   4.211   3.481  0.5784  0.1054  0.2808
  356MOL0     C47984  10.930   4.268   3.350 -0.9037 -0.7251 -0.3910
  356MOL0     C47985  10.983   4.163   3.251 -0.3701  0.1829 -0.2702
  356MOL0     C47986  10.874   4.078   3.206 -0.8967  0.2310  0.9336
  356MOL0     C47987  10.920   3.967   3.106  0.0497  0.3305  0.1493
  356MOL0     C47988  10.801   3.919   3.033 -0.5165  0.0954  0.1533
  356MOL0     C47989  10.694   3.885   2.981 -0.3562 -0.1514 -0.2441
  356MOL0     C47990  10.883   4.155   3.712  0.5844 -0.4582  0.5944
  356MOL0     C47991  10.788   4.136   3.814  0.1241 -0.3541  0.7757
  356MOL0     C47992  10.832   4.112   3.949 -0.0948  0.3119  0.8555
  356MOL0     H47993  10.189   4.336   3.814 -1.3639  1.3091  1.0734
  356MOL0     H47994  10.011   4.355   3.966  0.7992  1.1477 -0.5573
  356MOL0     H47995  10.020   4.236   4.384  0.7874  0.2976 -0.9050
  356MOL0     H47996  10.098   4.391   4.413 -1.9137  2.7580  3.6502
  356MOL0     H47997   9.905   4.375   4.549  2.3837 -3.2329 -0.1947
  356MOL0     H47998   9.796   4.346   4.415  2.1953 -1.7712 -1.9229
  356MOL0     H47999   9.837   4.550   4.306  3.6331 -0.2866 -1.3004
  356MOL0     H48000   9.976   4.589   4.409  0.7902 -3.3295  0.4173
  356MOL0     H48001   9.679   4.584   4.474 -0.0050 -0.3832 -0.9920
  356MOL0     H48002   9.794   4.589   4.601 -3.5952 -0.7701  0.1693
  356MOL0     H48003   9.855   4.804   4.566  1.1167  0.2539 -0.1594
  356MOL0     H48004   9.795   4.798   4.385 -2.2851 -0.9884 -0.9565
  356MOL0     H48005   9.568   4.778   4.452  0.0847  0.5114 -0.6793
  356MOL0     H48006   9.626   4.826   4.616  1.3400 -1.6741  0.1764
  356MOL0     H48007   9.540   5.018   4.476  0.7130 -0.7026 -0.6145
  356MOL0     H48008   9.689   4.997   4.369 -0.1291 -1.2418  0.2447
  356MOL0     H48009   9.841   5.052   4.538  0.6694 -0.0710 -1.4392
  356MOL0     H48010   9.724   5.180   4.534  1.8336  0.5942  0.3932
  356MOL0     H48011   9.524   5.169   4.736 -2.1017 -2.4837 -0.2874
  356MOL0     H48012   9.571   5.012   5.108 -1.4741  0.8820  1.3273
  356MOL0     H48013   9.563   5.187   5.054  0.3726 -0.2918  0.9114
  356MOL0     H48014   9.363   5.141   4.939  3.3281  2.3220  0.7460
  356MOL0     H48015   9.374   4.971   4.973  0.5261  1.0278 -3.1165
  356MOL0     H48016   9.311   5.168   5.190  0.6162 -0.1771 -0.0672
  356MOL0     H48017   9.388   5.005   5.227  2.3991  1.0468 -0.0607
  356MOL0     H48018   9.121   5.036   5.051  0.1805  0.4351 -1.3351
  356MOL0     H48019   9.119   5.055   5.219 -1.0924 -2.3950  0.3495
  356MOL0     H48020   9.146   4.888   4.892  1.6582  2.8817  3.1497
  356MOL0     H48021   9.187   4.703   4.732  0.1913 -1.0697 -1.0139
  356MOL0     H48022   9.445   4.577   4.472 -1.3244  0.6796 -2.7447
  356MOL0     H48023   9.542   4.440   4.263  0.5121  1.1767  1.2222
  356MOL0     H48024   9.622   4.027   4.359  0.3403 -1.7583 -0.5358
  356MOL0     H48025   9.473   3.977   4.283 -2.4234  0.4889 -1.4211
  356MOL0     H48026   9.708   3.889   4.177  1.2207  1.4675  0.3144
  356MOL0     H48027   9.594   3.956   4.070  1.4503  0.8809 -1.4204
  356MOL0     H48028   9.705   4.183   4.098  0.0278  0.3508  1.7548
  356MOL0     H48029   9.822   4.116   4.210  2.0057  3.5816 -2.0891
  356MOL0     H48030   9.919   4.138   3.993 -0.9921 -0.1564 -1.3179
  356MOL0     H48031   9.805   4.050   3.903  2.3589  0.6406 -1.4032
  356MOL0     H48032   9.871   3.828   4.043  1.3090 -0.6986  0.2629
  356MOL0     H48033   9.995   3.936   4.115  1.6746  2.4346 -1.2701
  356MOL0     H48034  10.087   3.791   3.946  2.2293  1.1820 -0.4450
  356MOL0     H48035   9.963   3.870   3.831 -0.0373  1.5308 -0.1118
  356MOL0     H48036  10.231   3.978   3.948 -0.4846  0.8275  0.4242
  356MOL0     H48037  10.108   4.084   3.881 -1.0309 -0.6926  2.7733
  356MOL0     H48038  10.104   3.966   3.673  0.2423  1.6390 -0.1722
  356MOL0     H48039  10.261   4.026   3.705  3.1280 -1.6306  1.3319
  356MOL0     H48040   9.381   4.092   4.436  0.8569  0.8287  1.4746
  356MOL0     H48041   9.267   4.219   4.610 -1.3966  3.1920  1.1868
  356MOL0     H48042   9.331   4.460   5.058 -2.5339 -0.6533 -0.3520
  356MOL0     H48043   9.281   4.638   5.210 -0.6954 -5.2752 -1.4780
  356MOL0     H48044  10.258   4.246   4.284  3.9171  2.3180 -0.0397
  356MOL0     H48045  10.452   4.191   4.127  1.9949  0.1553 -2.1110
  356MOL0     H48046  10.515   4.191   3.615  1.1028  2.1730  0.3988
  356MOL0     H48047  10.678   4.235   3.448  1.8489  2.9600 -0.2583
  356MOL0     H48048  10.996   4.355   3.338 -0.8157 -0.0746  3.3851
  356MOL0     H48049  10.824   4.294   3.339 -1.5793 -0.6289  4.1169
  356MOL0     H48050  11.070   4.109   3.288  1.3211  2.5311 -0.5802
  356MOL0     H48051  11.015   4.219   3.163 -1.7358  0.0133 -0.9042
  356MOL0     H48052  10.810   4.149   3.152 -2.9684 -0.9378  1.7370
  356MOL0     H48053  10.812   4.041   3.289 -1.9925 -0.9484 -0.3501
  356MOL0     H48054  11.005   4.010   3.053  1.7195 -0.6509  1.9037
  356MOL0     H48055  10.971   3.884   3.157  1.4561  0.9411 -0.2030
  356MOL0     H48056  10.601   3.861   2.935 -0.9687  0.8615  0.4107
  356MOL0     H48057  10.983   4.154   3.755 -1.3876 -1.0496  5.8895
  356MOL0     H48058  10.919   4.170   3.983 -0.1972  0.1998  1.3065
  356MOL0     H48059  10.756   4.144   4.021 -2.4570 -3.7202  0.4068
  356MOL0     H48060  10.851   4.005   3.960  0.3399  0.1895 -0.7897
  357MOL0     O48061   5.315   6.861  11.183 -0.4819  0.2636  0.1043
  357MOL0     C48062   5.296   6.902  11.302  0.5983 -0.3802 -0.9013
  357MOL0     O48063   5.397   6.954  11.382  0.0331  0.9907  0.5743
  357MOL0     C48064   5.509   6.975  11.320  0.2226 -0.0919 -0.7733
  357MOL0     C48065   5.526   7.099  11.267  0.2093 -0.3194 -0.1950
  357MOL0     C48066   5.646   7.141  11.212  0.1248 -0.3505 -0.2074
  357MOL0     C48067   5.759   7.053  11.207 -0.8797  0.0087  0.9111
  357MOL0     O48068   5.867   7.076  11.127 -0.8279  0.4286 -0.8820
  357MOL0     C48069   5.925   7.205  11.154 -0.7044 -0.1956  0.1492
  357MOL0     C48070   6.037   7.227  11.056 -0.1872  0.0651 -0.6387
  357MOL0     C48071   6.150   7.121  11.072  0.6814 -0.9388  0.1169
  357MOL0     C48072   6.262   7.153  10.970 -0.5535 -1.1464 -0.8035
  357MOL0     C48073   6.389   7.074  11.015  0.0719  0.2846 -0.0283
  357MOL0     C48074   6.487   7.044  10.896  0.2642  0.0002  0.0062
  357MOL0     C48075   6.613   6.981  10.952  1.5865  0.3330 -0.7168
  357MOL0     C48076   6.711   6.929  10.851  0.4488  0.2252 -0.5234
  357MOL0     N48077   6.839   6.864  10.892 -0.9007  0.8829 -0.5427
  357MOL0     C48078   6.911   6.788  10.808 -0.4119 -0.4049  1.0309
  357MOL0     C48079   7.030   6.766  10.867 -0.3845  1.1761  0.4312
  357MOL0     C48080   7.154   6.680  10.840 -0.5055 -0.3239  0.0409
  357MOL0     C48081   7.180   6.695  10.692  0.2183 -0.2191  0.3978
  357MOL0     C48082   7.290   6.611  10.635  0.1468 -0.0828  0.0401
  357MOL0     C48083   7.296   6.584  10.484 -0.0826  0.3835 -0.6667
  357MOL0     O48084   7.308   6.701  10.403  0.0167 -0.1008 -0.1940
  357MOL0     C48085   7.415   6.784  10.429 -0.3482  0.6065 -0.9960
  357MOL0     C48086   7.394   6.913  10.482 -0.0934  0.7931  0.1441
  357MOL0     C48087   7.499   6.999  10.513 -0.4312 -0.1908  0.0546
  357MOL0     C48088   7.631   6.966  10.494 -1.0212  0.2226 -0.2418
  357MOL0     C48089   7.751   7.053  10.536 -0.1134 -0.1933 -0.6818
  357MOL0     O48090   7.873   7.000  10.542  0.1334 -0.0623 -0.1926
  357MOL0     C48091   7.977   7.071  10.590 -0.8477 -0.4733 -0.3205
  357MOL0     C48092   7.977   7.155  10.701 -0.0427 -0.3987 -1.1188
  357MOL0     C48093   8.094   7.228  10.744  0.4015  0.2213 -0.0185
  357MOL0     C48094   8.213   7.220  10.676  0.2087 -0.1427 -0.5077
  357MOL0     O48095   8.322   7.278  10.729 -0.6670  0.0122  0.2659
  357MOL0     C48096   8.388   7.389  10.668  1.4718  0.4462  0.5815
  357MOL0     C48097   8.478   7.450  10.776  0.3472  0.2538 -0.7100
  357MOL0     C48098   8.549   7.583  10.725  0.0188  0.2446  0.6980
  357MOL0     C48099   8.634   7.659  10.829 -0.4337  0.6492  0.1203
  357MOL0     C48100   8.754   7.571  10.881 -0.1589  0.1726  0.4481
  357MOL0     C48101   8.855   7.655  10.953 -0.1217  0.0449  0.5737
  357MOL0     C48102   8.971   7.580  11.021 -0.2120  0.6502  1.0000
  357MOL0     C48103   8.935   7.486  11.139  0.3628  0.2206  0.5088
  357MOL0    Cl48104   9.074   7.390  11.196  0.2988 -0.1596 -0.2543
  357MOL0     C48105   8.209   7.153  10.560 -0.4923 -0.7619 -0.3684
  357MOL0     C48106   8.098   7.079  10.516 -0.1392 -0.0435 -0.0249
  357MOL0     O48107   7.726   7.176  10.555  0.3304  0.3938  0.6466
  357MOL0     C48108   7.657   6.839  10.429 -0.0686  0.1372 -0.8418
  357MOL0     C48109   7.548   6.744  10.416  0.1807 -0.2753  0.5224
  357MOL0     N48110   7.033   6.846  10.981 -0.1883  0.0024  0.7579
  357MOL0     N48111   6.917   6.911  10.993  0.7382  0.9592  0.0023
  357MOL0     C48112   5.747   6.929  11.264  0.7245  0.5399 -0.3798
  357MOL0     C48113   5.619   6.891  11.322 -0.6567 -0.2009  0.0384
  357MOL0     C48114   5.146   6.900  11.357  0.1698  0.3987  0.0847
  357MOL0     C48115   5.129   6.964  11.480  0.0527 -0.8531 -0.1215
  357MOL0     C48116   5.008   6.968  11.547 -0.1795  0.9699 -0.6945
  357MOL0     C48117   4.894   6.909  11.494  0.0222  0.2687 -0.6147
  357MOL0     O48118   4.767   6.908  11.557 -0.6934 -0.1319  0.4500
  357MOL0     C48119   4.746   6.973  11.677  0.1565  0.2940 -0.8098
  357MOL0     C48120   4.620   6.922  11.754 -0.6126  0.2786 -0.4844
  357MOL0     C48121   4.502   6.934  11.665 -0.2668  0.4197 -0.2028
  357MOL0     C48122   4.372   6.875  11.727  0.0007 -0.0549  0.3133
  357MOL0     C48123   4.250   6.879  11.649  0.0709  0.4300 -1.5217
  357MOL0     C48124   4.154   6.851  11.572 -0.6289 -0.3951 -0.5054
  357MOL0     C48125   4.903   6.846  11.369 -0.5360 -0.2840  0.0351
  357MOL0     C48126   5.028   6.847  11.299 -0.8376 -0.6284  0.0705
  357MOL0     C48127   5.047   6.778  11.160 -0.0431  0.0327 -0.3444
  357MOL0     H48128   5.441   7.166  11.273  0.9637  0.5556  2.6009
  357MOL0     H48129   5.646   7.236  11.159  0.1892 -0.6401 -0.7324
  357MOL0     H48130   5.846   7.280  11.149 -0.1696  0.4654  1.3842
  357MOL0     H48131   5.975   7.218  11.250  0.6087  0.8140 -0.6374
  357MOL0     H48132   6.083   7.323  11.080  0.1967 -0.5159  1.0468
  357MOL0     H48133   5.991   7.229  10.957  0.2758 -2.5185 -0.9869
  357MOL0     H48134   6.120   7.018  11.050  0.7522 -0.5997 -1.7430
  357MOL0     H48135   6.191   7.120  11.173  2.9013 -2.7756 -0.7228
  357MOL0     H48136   6.235   7.118  10.870  0.2176  0.7923 -1.7395
  357MOL0     H48137   6.275   7.261  10.960 -0.9862 -0.7004  2.3869
  357MOL0     H48138   6.447   7.122  11.095 -0.3701 -0.4341  0.7372
  357MOL0     H48139   6.358   6.981  11.063 -0.8730 -0.5097 -2.0982
  357MOL0     H48140   6.432   6.981  10.825 -0.2082  0.5005 -0.0770
  357MOL0     H48141   6.502   7.137  10.840 -1.8397 -0.0268 -0.6942
  357MOL0     H48142   6.574   6.908  11.024 -2.1218  2.8165  0.1153
  357MOL0     H48143   6.665   7.058  11.008  0.2721  2.6831 -2.5346
  357MOL0     H48144   6.664   6.855  10.785  0.6035  0.4694 -0.9062
  357MOL0     H48145   6.725   7.010  10.780 -0.6412  1.3128  0.4657
  357MOL0     H48146   6.881   6.742  10.715  1.3138  0.8963 -0.2381
  357MOL0     H48147   7.240   6.718  10.896 -2.4929 -0.0960  3.1336
  357MOL0     H48148   7.134   6.579  10.875  2.9463 -0.2019  2.8507
  357MOL0     H48149   7.089   6.683  10.633 -0.0819 -0.7691  0.9608
  357MOL0     H48150   7.196   6.800  10.667 -0.9405 -0.3966 -1.1933
  357MOL0     H48151   7.293   6.512  10.681 -0.6953 -0.9209 -1.6122
  357MOL0     H48152   7.384   6.662  10.660 -0.9148  2.2578 -0.4737
  357MOL0     H48153   7.208   6.528  10.451 -0.4383  1.8393 -2.3255
  357MOL0     H48154   7.386   6.523  10.468 -1.5256 -1.5836 -1.7482
  357MOL0     H48155   7.293   6.953  10.487 -0.6161 -0.4459 -0.0339
  357MOL0     H48156   7.473   7.095  10.555 -1.8026 -0.9304  0.9597
  357MOL0     H48157   7.886   7.159  10.759  0.1347 -1.5002 -0.7553
  357MOL0     H48158   8.085   7.291  10.832  2.2574 -0.2385  0.5475
  357MOL0     H48159   8.443   7.375  10.575 -1.2614 -0.0755 -1.0634
  357MOL0     H48160   8.310   7.463  10.646  1.7480  0.5420 -0.0685
  357MOL0     H48161   8.414   7.475  10.862 -0.9758 -1.0451 -1.2793
  357MOL0     H48162   8.555   7.376  10.799 -1.1776 -0.9373  0.8565
  357MOL0     H48163   8.617   7.559  10.642 -0.2448 -0.3398  0.6423
  357MOL0     H48164   8.474   7.655  10.691  0.9126  0.8426 -0.0703
  357MOL0     H48165   8.582   7.696  10.918  1.5329  2.2002  0.7160
  357MOL0     H48166   8.681   7.742  10.775  1.1349 -1.0273 -1.2460
  357MOL0     H48167   8.809   7.523  10.801 -2.1931  2.8709 -2.8491
  357MOL0     H48168   8.713   7.495  10.948 -2.9292  1.2769  0.1408
  357MOL0     H48169   8.897   7.733  10.890  2.0018 -1.9408 -0.6070
  357MOL0     H48170   8.789   7.705  11.025 -2.4187 -2.0027  0.0415
  357MOL0     H48171   9.047   7.653  11.051  0.9976 -0.1209 -0.0826
  357MOL0     H48172   9.022   7.521  10.945 -0.2278  0.5105  1.0966
  357MOL0     H48173   8.904   7.543  11.227 -2.3620 -1.3452  0.6869
  357MOL0     H48174   8.854   7.419  11.109 -1.1025  2.1547 -0.1122
  357MOL0     H48175   8.299   7.152  10.499  1.3735  0.6674  2.1266
  357MOL0     H48176   8.107   7.028  10.421  1.5490 -0.0888  0.1281
  357MOL0     H48177   7.761   6.813  10.414 -0.4064 -0.9883 -1.3818
  357MOL0     H48178   7.581   6.646  10.382 -0.8733 -0.2014 -0.7751
  357MOL0     H48179   5.833   6.867  11.245  0.0431 -0.1265 -1.4458
  357MOL0     H48180   5.606   6.790  11.360 -0.4100 -0.8211 -1.4642
  357MOL0     H48181   5.217   7.019  11.513  0.3857  0.6636 -3.1930
  357MOL0     H48182   5.009   7.017  11.644  2.9302 -2.5639  1.3428
  357MOL0     H48183   4.741   7.082  11.663  2.4886  0.6921  0.8752
  357MOL0     H48184   4.835   6.959  11.739  0.9883  0.3743 -1.9577
  357MOL0     H48185   4.616   6.979  11.847 -0.6093 -1.3239  0.5499
  357MOL0     H48186   4.642   6.818  11.781 -1.6984  0.4554  1.2199
  357MOL0     H48187   4.524   6.897  11.564  3.3873 -0.5789  0.8050
  357MOL0     H48188   4.490   7.042  11.656 -0.0166  0.5536  0.9414
  357MOL0     H48189   4.387   6.771  11.755 -4.9977 -1.6662 -1.8842
  357MOL0     H48190   4.354   6.933  11.819  1.3793 -0.8847  1.1368
  357MOL0     H48191   4.073   6.831  11.505 -1.2760 -2.5479  0.8018
  357MOL0     H48192   4.817   6.787  11.339 -0.4742 -0.2925 -0.1269
  357MOL0     H48193   5.118   6.695  11.162 -0.3939 -0.2669 -0.2084
  357MOL0     H48194   4.950   6.762  11.112 -0.6377  1.6614  0.2571
  357MOL0     H48195   5.090   6.853  11.094 -0.9659  2.3814  1.5894
  358MOL0     O48196   0.028  10.053   0.271  0.1831  0.4560  0.2109
  358MOL0     C48197   0.121   9.977   0.312  0.5064 -0.5555  0.2103
  358MOL0     O48198   0.106   9.870   0.399  0.2968  0.2509  0.3170
  358MOL0     C48199  -0.017   9.839   0.445  0.2822 -0.3110  0.2719
  358MOL0     C48200  -0.046   9.859   0.587 -0.5752 -0.2856  0.9841
  358MOL0     C48201  -0.184   9.861   0.632  0.7698  0.2999  0.0138
  358MOL0     C48202  -0.287   9.815   0.544 -0.0974 -0.2262  0.6986
  358MOL0     O48203  -0.418   9.833   0.590 -0.3158  0.2363  0.5697
  358MOL0     C48204  -0.522   9.864   0.489  1.0358  0.2519 -0.0635
  358MOL0     C48205  -0.656   9.899   0.554  0.2937 -0.4753  0.1480
  358MOL0     C48206  -0.665  10.031   0.641 -1.7191 -0.8786 -0.1803
  358MOL0     C48207  -0.791  10.045   0.726 -0.4102  0.0187  0.0183
  358MOL0     C48208  -0.787   9.959   0.852  0.0457 -0.1548  0.6697
  358MOL0     C48209  -0.925   9.954   0.909  0.8999  0.4950  0.0489
  358MOL0     C48210  -0.993  10.094   0.940 -0.1891  0.1327 -0.2902
  358MOL0     C48211  -1.124  10.078   1.034 -0.2278  0.1150 -0.2790
  358MOL0     N48212  -1.232  10.050   0.947  0.1928 -0.1166  0.2364
  358MOL0     C48213  -1.315  10.138   0.884  0.0867 -0.0818  0.0665
  358MOL0     C48214  -1.394  10.065   0.803  0.0790  1.1534  0.3314
  358MOL0     C48215  -1.485  10.121   0.711  0.4714 -0.0025  0.7980
  358MOL0     C48216  -1.404  10.198   0.607  0.3135  0.4379 -0.7206
  358MOL0     C48217  -1.484  10.207   0.476 -0.2426 -0.6644 -1.3108
  358MOL0     C48218  -1.424  10.310   0.386 -0.1070  0.0647  0.6213
  358MOL0     O48219  -1.519  10.341   0.277  0.7264  1.2577  0.0642
  358MOL0     C48220  -1.615  10.436   0.297 -1.7504  0.8584  0.2550
  358MOL0     C48221  -1.637  10.503   0.419 -0.5217  0.0226 -0.1773
  358MOL0     C48222  -1.761  10.582   0.428  0.3332 -0.4371  0.3194
  358MOL0     C48223  -1.859  10.580   0.330 -0.7220  0.5499 -0.6292
  358MOL0     C48224  -1.992  10.632   0.353  0.6476 -0.2566  0.2718
  358MOL0     O48225  -2.083  10.604   0.257 -0.4594 -1.0086 -0.4970
  358MOL0     C48226  -2.218  10.611   0.292 -0.1100 -0.9054 -0.1360
  358MOL0     C48227  -2.304  10.502   0.287 -0.3046 -0.0468  0.4968
  358MOL0     C48228  -2.439  10.513   0.318  0.1979 -0.1988 -0.4281
  358MOL0     C48229  -2.495  10.634   0.366 -0.5972  0.8192 -0.3462
  358MOL0     O48230  -2.625  10.637   0.397  0.1417 -0.6081  0.7070
  358MOL0     C48231  -2.689  10.727   0.493 -0.6985  0.7455 -0.3860
  358MOL0     C48232  -2.817  10.661   0.552 -0.5747  0.1111  0.0178
  358MOL0     C48233  -2.879  10.736   0.666 -0.5966  0.3501  0.3303
  358MOL0     C48234  -2.789  10.760   0.788  0.2374 -0.4745  0.0525
  358MOL0     C48235  -2.789  10.910   0.823  0.3776 -0.1221  0.2251
  358MOL0     C48236  -2.920  10.955   0.891 -0.7232  0.2169 -0.5494
  358MOL0     C48237  -2.879  11.096   0.946  0.1517  0.7467 -0.3045
  358MOL0     C48238  -2.997  11.174   1.009  0.2681  0.3152 -0.1775
  358MOL0    Cl48239  -3.115  11.070   1.112 -0.2104 -0.3975  0.0197
  358MOL0     C48240  -2.410  10.742   0.373  0.0561  0.4133  0.6158
  358MOL0     C48241  -2.279  10.740   0.331 -0.4941  0.6698 -0.2486
  358MOL0     O48242  -2.018  10.698   0.453 -0.4348 -0.2239  0.1161
  358MOL0     C48243  -1.820  10.517   0.209  0.0821  0.2920  0.3644
  358MOL0     C48244  -1.699  10.449   0.193  0.0696 -0.4316 -0.1164
  358MOL0     N48245  -1.362   9.931   0.824  0.1349 -0.4470 -0.3577
  358MOL0     N48246  -1.265   9.927   0.912 -0.3717 -0.5656 -0.1013
  358MOL0     C48247  -0.255   9.778   0.419  0.5684  0.8638  0.6244
  358MOL0     C48248  -0.123   9.792   0.363 -1.4196 -1.0189 -0.7428
  358MOL0     C48249   0.245  10.002   0.244 -0.7126  0.6856  0.1843
  358MOL0     C48250   0.243  10.066   0.124 -0.2743  0.0882 -0.4255
  358MOL0     C48251   0.357  10.087   0.041  0.2191 -0.0462 -0.5882
  358MOL0     C48252   0.475  10.039   0.088  0.5611  0.7955 -0.4364
  358MOL0     O48253   0.580  10.057   0.002  0.8961  0.6507  0.2287
  358MOL0     C48254   0.703   9.996   0.040  0.9586  0.5645 -0.2790
  358MOL0     C48255   0.808   9.991  -0.068  0.4253 -0.8974 -0.5022
  358MOL0     C48256   0.793   9.878  -0.167 -0.2753  0.4891 -0.1483
  358MOL0     C48257   0.682   9.887  -0.282 -0.5130 -0.7896  0.3287
  358MOL0     C48258   0.697  10.010  -0.364 -0.9921  0.2808 -0.3763
  358MOL0     C48259   0.690  10.113  -0.435  0.5868  0.6962  0.2540
  358MOL0     C48260   0.482   9.975   0.210 -0.3711  0.6956  0.6224
  358MOL0     C48261   0.374   9.951   0.287  0.0472 -0.0359  0.0737
  358MOL0     C48262   0.396   9.878   0.421  0.5362 -0.4343  0.5041
  358MOL0     H48263   0.023   9.878   0.669  0.6056 -1.5288  0.3139
  358MOL0     H48264  -0.207   9.895   0.733  0.8927  3.9784 -1.0353
  358MOL0     H48265  -0.489   9.943   0.422  0.7160  1.2391  0.9077
  358MOL0     H48266  -0.542   9.777   0.426 -0.5056  0.3046  0.3159
  358MOL0     H48267  -0.696   9.814   0.612 -1.7391  1.4025  1.6796
  358MOL0     H48268  -0.721   9.913   0.468  1.7915  1.8528 -0.6930
  358MOL0     H48269  -0.641  10.112   0.571  2.0776 -2.1510 -0.5785
  358MOL0     H48270  -0.573  10.027   0.701 -2.2337  1.8393  0.9305
  358MOL0     H48271  -0.801  10.150   0.757 -1.1549  0.2580 -0.9803
  358MOL0     H48272  -0.877  10.016   0.665  0.8506 -0.9609 -1.3489
  358MOL0     H48273  -0.754   9.859   0.821  1.1618  0.5981 -0.7039
  358MOL0     H48274  -0.716  10.000   0.924 -1.7658 -0.0005  2.4244
  358MOL0     H48275  -0.992   9.908   0.836  0.1627  0.7146  0.5718
  358MOL0     H48276  -0.937   9.899   1.003 -1.2898 -1.0524 -1.0385
  358MOL0     H48277  -1.019  10.169   0.865 -4.9360  0.7529  1.6329
  358MOL0     H48278  -0.909  10.136   0.997 -0.8776 -0.3479  1.1415
  358MOL0     H48279  -1.112   9.994   1.103  0.6111 -0.4154 -1.0378
  358MOL0     H48280  -1.144  10.169   1.091  1.3089  1.6010 -1.9758
  358MOL0     H48281  -1.307  10.245   0.894  2.6051 -0.2141  0.1191
  358MOL0     H48282  -1.546  10.041   0.668  0.6760  0.4552 -0.4001
  358MOL0     H48283  -1.553  10.192   0.758 -0.1537 -0.4757  0.6152
  358MOL0     H48284  -1.386  10.298   0.648 -0.7350  0.3831 -0.0713
  358MOL0     H48285  -1.305  10.156   0.591  1.2925  2.4265 -0.2147
  358MOL0     H48286  -1.588  10.238   0.488  0.0944 -0.4897  2.1498
  358MOL0     H48287  -1.481  10.107   0.431 -1.9091 -0.3025 -2.3520
  358MOL0     H48288  -1.335  10.266   0.341 -1.3767  0.0741 -2.0766
  358MOL0     H48289  -1.377  10.393   0.440  1.4437 -0.4440  0.0924
  358MOL0     H48290  -1.565  10.511   0.499 -1.1476 -2.9351  0.8110
  358MOL0     H48291  -1.784  10.619   0.527  1.7044  0.2138  0.4334
  358MOL0     H48292  -2.276  10.407   0.243  0.6565  0.3691  0.1860
  358MOL0     H48293  -2.503  10.425   0.320  1.0880 -0.8409  0.7834
  358MOL0     H48294  -2.616  10.745   0.572 -2.2545  4.2430  0.4621
  358MOL0     H48295  -2.712  10.817   0.434  1.7028  0.6177 -1.6782
  358MOL0     H48296  -2.897  10.662   0.477 -0.4080  1.1452 -0.1592
  358MOL0     H48297  -2.799  10.557   0.577  2.5877  0.6660  0.4147
  358MOL0     H48298  -2.911  10.832   0.624  0.1435  1.0427  1.3005
  358MOL0     H48299  -2.967  10.674   0.687  0.4278 -1.5218 -0.6522
  358MOL0     H48300  -2.682  10.751   0.769  0.7663  3.0114  0.6630
  358MOL0     H48301  -2.816  10.691   0.869  2.3689 -2.8204 -1.1071
  358MOL0     H48302  -2.776  10.964   0.728 -2.3099 -1.4057 -0.9734
  358MOL0     H48303  -2.702  10.921   0.889  0.9815  0.5919 -0.6555
  358MOL0     H48304  -3.007  10.965   0.825 -0.1228 -0.3042 -1.4425
  358MOL0     H48305  -2.942  10.882   0.970 -1.8887  1.3069  0.1786
  358MOL0     H48306  -2.826  11.155   0.871  2.1559  2.0285  1.9832
  358MOL0     H48307  -2.809  11.082   1.029  2.2861  2.6019 -1.6765
  358MOL0     H48308  -2.947  11.246   1.075  0.5856  1.4223 -1.5675
  358MOL0     H48309  -3.052  11.234   0.935  3.6485  2.7431 -0.9685
  358MOL0     H48310  -2.449  10.842   0.390 -0.2779  0.7079 -1.5893
  358MOL0     H48311  -2.234  10.839   0.327 -0.0516  0.5438  1.1941
  358MOL0     H48312  -1.882  10.521   0.120  0.4081 -0.9768  0.0606
  358MOL0     H48313  -1.687  10.402   0.097  0.6242  1.8114 -1.2123
  358MOL0     H48314  -0.340   9.744   0.360 -0.0348  0.1386  1.8683
  358MOL0     H48315  -0.103   9.759   0.261 -2.5096 -3.6461 -0.1914
  358MOL0     H48316   0.147  10.096   0.083 -0.5138 -0.5805 -0.3626
  358MOL0     H48317   0.347  10.136  -0.055  0.4229  1.3804  0.0806
  358MOL0     H48318   0.698   9.895   0.082  0.9486 -0.3694 -2.4043
  358MOL0     H48319   0.745  10.065   0.113 -0.2996  0.1564  0.8684
  358MOL0     H48320   0.904   9.989  -0.016 -1.3744  1.7073  3.4562
  358MOL0     H48321   0.814  10.083  -0.128  2.6145 -1.9620 -2.0464
  358MOL0     H48322   0.770   9.787  -0.111 -2.3253 -0.1559 -1.8844
  358MOL0     H48323   0.890   9.875  -0.217 -0.1627 -0.6740  0.1103
  358MOL0     H48324   0.678   9.806  -0.355 -0.9326  1.8924 -2.8849
  358MOL0     H48325   0.583   9.884  -0.234 -0.5139  1.0751  0.5006
  358MOL0     H48326   0.704  10.192  -0.506  0.6747 -1.8135 -2.7635
  358MOL0     H48327   0.580   9.943   0.244  0.3871  0.5320 -1.5500
  358MOL0     H48328   0.411   9.772   0.399 -1.8478 -0.7347  0.0724
  358MOL0     H48329   0.489   9.916   0.464  0.6921  0.3494 -0.4620
  358MOL0     H48330   0.313   9.901   0.487 -1.3945 -0.3387 -1.8194
  359MOL0     O48331   5.091   1.082   5.929  0.4551  0.1640  0.2185
  359MOL0     C48332   5.143   0.980   5.886  1.2425 -0.7925  0.1958
  359MOL0     O48333   5.142   0.855   5.937 -0.0197  0.5133 -0.4852
  359MOL0     C48334   5.033   0.792   5.996 -0.8687  0.2544  0.4149
  359MOL0     C48335   5.049   0.680   6.083  0.4790  0.3435 -0.2160
  359MOL0     C48336   4.931   0.622   6.138  0.0318  0.5216  0.0166
  359MOL0     C48337   4.800   0.665   6.116 -1.0770  0.0349  0.3563
  359MOL0     O48338   4.689   0.598   6.153 -0.1767 -0.2399 -0.2800
  359MOL0     C48339   4.641   0.625   6.283 -0.0675  0.2128 -0.4001
  359MOL0     C48340   4.516   0.702   6.255 -0.4930  0.4520  0.1404
  359MOL0     C48341   4.398   0.618   6.216  0.9435 -0.4413  0.7653
  359MOL0     C48342   4.257   0.700   6.208  0.9482  0.9718 -0.3671
  359MOL0     C48343   4.148   0.593   6.149 -0.8647  1.1261  0.0168
  359MOL0     C48344   4.002   0.646   6.167  0.3796 -0.2220 -0.4414
  359MOL0     C48345   3.904   0.528   6.154 -0.1455 -0.1536  0.5939
  359MOL0     C48346   3.756   0.570   6.167 -1.3692  0.5376  0.2117
  359MOL0     N48347   3.722   0.609   6.304  1.0096 -0.1067  0.5995
  359MOL0     C48348   3.682   0.525   6.407 -0.4691  0.4836  0.2544
  359MOL0     C48349   3.652   0.617   6.504  0.3735 -0.3311 -1.1941
  359MOL0     C48350   3.583   0.587   6.641  0.4109 -0.0203  1.1478
  359MOL0     C48351   3.668   0.512   6.742 -0.5043  0.1510  0.3869
  359MOL0     C48352   3.597   0.489   6.873  0.6742 -0.8008 -0.2707
  359MOL0     C48353   3.669   0.382   6.950 -0.0767  1.4491  0.2704
  359MOL0     O48354   3.794   0.425   7.002 -0.5554  0.4041 -0.4215
  359MOL0     C48355   3.865   0.344   7.090 -0.5118 -0.3343 -0.3665
  359MOL0     C48356   3.999   0.381   7.120  0.2735  0.4783 -0.0531
  359MOL0     C48357   4.075   0.314   7.208  0.1785 -0.1619  0.1457
  359MOL0     C48358   4.034   0.191   7.262  0.2740 -0.6827  0.1350
  359MOL0     C48359   4.117   0.116   7.365  0.4996  0.7418 -0.1757
  359MOL0     O48360   4.082  -0.016   7.376  0.6743  0.3748 -0.5322
  359MOL0     C48361   4.158  -0.107   7.464 -0.6138  0.0875  0.6825
  359MOL0     C48362   4.230  -0.076   7.582  0.3565 -0.0015  0.2188
  359MOL0     C48363   4.307  -0.163   7.644 -0.4673  1.1743  0.6274
  359MOL0     C48364   4.308  -0.295   7.604  0.1934  0.0014  0.4617
  359MOL0     O48365   4.391  -0.390   7.660  0.0666 -0.0791 -0.6385
  359MOL0     C48366   4.525  -0.375   7.605 -0.2886 -0.2140 -0.7591
  359MOL0     C48367   4.615  -0.484   7.657  0.8028  0.4529  0.2125
  359MOL0     C48368   4.616  -0.498   7.811  0.0170  0.7326  0.7231
  359MOL0     C48369   4.647  -0.635   7.861 -0.2541  0.2608  0.0485
  359MOL0     C48370   4.630  -0.670   8.006  0.4853 -0.7955 -0.0934
  359MOL0     C48371   4.695  -0.807   8.040 -0.4547  0.3849 -1.0744
  359MOL0     C48372   4.712  -0.851   8.189  0.8979  1.0268  0.1357
  359MOL0     C48373   4.727  -1.001   8.197 -0.1049 -0.7485 -0.2974
  359MOL0    Cl48374   4.848  -1.070   8.078  0.2109 -0.4764 -0.1550
  359MOL0     C48375   4.234  -0.329   7.495 -1.0832  1.0018  0.9163
  359MOL0     C48376   4.157  -0.241   7.426 -0.5635  0.9156  0.7890
  359MOL0     O48377   4.221   0.166   7.417  0.2471 -0.6354 -0.3224
  359MOL0     C48378   3.900   0.148   7.222 -0.7063  0.0562 -0.6715
  359MOL0     C48379   3.816   0.224   7.149 -0.0957 -0.0396 -0.0003
  359MOL0     N48380   3.664   0.743   6.453 -0.1721 -0.1777 -0.0117
  359MOL0     N48381   3.699   0.737   6.335 -0.1110 -0.2052 -0.1563
  359MOL0     C48382   4.791   0.777   6.028  1.0373  0.3319 -0.2535
  359MOL0     C48383   4.900   0.841   5.970 -0.4971  0.0160  0.3632
  359MOL0     C48384   5.252   0.998   5.788 -0.2773  0.3597 -0.1437
  359MOL0     C48385   5.340   0.889   5.772  0.8042  0.2412  0.5902
  359MOL0     C48386   5.450   0.902   5.682 -0.1599  0.3694 -0.6341
  359MOL0     C48387   5.469   1.014   5.604  0.5437 -0.3394 -0.1223
  359MOL0     O48388   5.559   1.028   5.495  0.3620  0.5575 -0.3207
  359MOL0     C48389   5.663   0.926   5.472  0.7948  0.5239 -0.3230
  359MOL0     C48390   5.751   0.952   5.351 -0.2652 -0.6090 -1.2282
  359MOL0     C48391   5.671   0.938   5.225 -1.3264 -0.1130  0.4832
  359MOL0     C48392   5.743   1.015   5.116 -0.5615  0.1256 -0.3507
  359MOL0     C48393   5.688   0.977   4.982  0.1025  1.3048 -0.2037
  359MOL0     C48394   5.655   0.933   4.872  0.3222 -0.0170  0.0355
  359MOL0     C48395   5.380   1.123   5.624 -0.9200  0.2964 -1.1461
  359MOL0     C48396   5.273   1.112   5.708 -0.5709  0.9825 -0.4576
  359MOL0     C48397   5.198   1.242   5.718 -0.3693  0.6220 -0.0721
  359MOL0     H48398   5.148   0.639   6.098  1.0134  0.6213 -2.5943
  359MOL0     H48399   4.940   0.532   6.197  2.0185  0.9492  0.4354
  359MOL0     H48400   4.625   0.535   6.342 -0.0472  0.3746 -0.1451
  359MOL0     H48401   4.709   0.696   6.332 -0.0541  0.4677 -0.7834
  359MOL0     H48402   4.539   0.778   6.180 -0.7626  1.9254  1.4968
  359MOL0     H48403   4.497   0.764   6.343 -0.1542  3.4890 -1.7883
  359MOL0     H48404   4.386   0.527   6.276  3.0115 -0.2667  1.5271
  359MOL0     H48405   4.414   0.570   6.119  1.1034  0.6797  0.2178
  359MOL0     H48406   4.233   0.731   6.310  0.0673  2.0256 -0.8764
  359MOL0     H48407   4.247   0.785   6.140 -3.2020  0.1566 -1.0900
  359MOL0     H48408   4.169   0.577   6.044 -0.6338  0.7436  0.1212
  359MOL0     H48409   4.156   0.496   6.199 -0.3467  0.2772 -1.6814
  359MOL0     H48410   4.008   0.692   6.266  2.7728 -2.8720  0.7750
  359MOL0     H48411   3.978   0.732   6.104  1.4158  0.4517  0.0405
  359MOL0     H48412   3.931   0.444   6.219  0.6077  0.8967  1.6948
  359MOL0     H48413   3.911   0.486   6.054  1.1139  0.7214  0.2875
  359MOL0     H48414   3.738   0.648   6.093  1.6470  1.8945  0.7652
  359MOL0     H48415   3.697   0.484   6.134 -0.6131 -0.4054  1.2702
  359MOL0     H48416   3.686   0.417   6.409  0.3044  0.2947 -3.6917
  359MOL0     H48417   3.565   0.685   6.688  0.3201 -0.2473  1.5928
  359MOL0     H48418   3.487   0.537   6.630  0.1155  0.5451  1.1178
  359MOL0     H48419   3.699   0.420   6.693 -2.7227  1.0562 -3.0969
  359MOL0     H48420   3.753   0.579   6.760 -0.4286 -0.0572  0.7952
  359MOL0     H48421   3.494   0.459   6.853  0.7380  1.0941 -4.7383
  359MOL0     H48422   3.616   0.574   6.939 -0.4438 -0.8248  0.1040
  359MOL0     H48423   3.669   0.284   6.902  0.3991  1.0847  1.0014
  359MOL0     H48424   3.609   0.356   7.037 -0.6862  1.7017 -0.0668
  359MOL0     H48425   4.038   0.477   7.089 -0.2573 -0.1696 -3.0616
  359MOL0     H48426   4.167   0.366   7.234 -0.0184 -0.8099  2.4069
  359MOL0     H48427   4.225   0.028   7.613 -0.3798 -0.6427  2.4861
  359MOL0     H48428   4.366  -0.114   7.721 -1.9035  1.0519  1.8622
  359MOL0     H48429   4.533  -0.380   7.496 -1.9544  0.0697 -0.9197
  359MOL0     H48430   4.570  -0.278   7.628  1.5527 -1.3632  0.7769
  359MOL0     H48431   4.586  -0.575   7.604  1.0919  0.4640  0.0330
  359MOL0     H48432   4.711  -0.455   7.613  0.5173  0.8873 -0.1315
  359MOL0     H48433   4.700  -0.439   7.850  0.9070 -0.5112  0.7610
  359MOL0     H48434   4.522  -0.459   7.850 -0.4577 -1.0893  1.4873
  359MOL0     H48435   4.746  -0.665   7.826 -0.8919 -0.7481 -0.9651
  359MOL0     H48436   4.578  -0.702   7.809 -0.7252 -0.4246  1.5024
  359MOL0     H48437   4.523  -0.672   8.025 -0.1939  1.1666 -3.0574
  359MOL0     H48438   4.664  -0.592   8.076 -3.9433  0.8402  0.5311
  359MOL0     H48439   4.633  -0.879   7.987 -1.1067  1.0749 -1.2720
  359MOL0     H48440   4.797  -0.811   8.001 -0.4461 -1.6628 -0.9187
  359MOL0     H48441   4.636  -0.816   8.260 -0.3021 -1.0701 -0.0207
  359MOL0     H48442   4.810  -0.810   8.212  0.9273  0.8514  0.3236
  359MOL0     H48443   4.764  -1.024   8.297 -0.5688  1.9002  0.5623
  359MOL0     H48444   4.635  -1.059   8.193  0.4690 -1.6091 -1.5868
  359MOL0     H48445   4.232  -0.434   7.466 -0.3052  0.7885  1.5738
  359MOL0     H48446   4.101  -0.278   7.340  0.0858 -1.8000  1.4469
  359MOL0     H48447   3.859   0.059   7.267  2.6591 -0.7966  1.0540
  359MOL0     H48448   3.716   0.187   7.126  0.9424 -2.0705 -1.5456
  359MOL0     H48449   4.691   0.801   5.996 -0.2188  0.8008  3.4777
  359MOL0     H48450   4.869   0.924   5.907 -2.1845 -1.3869 -0.7583
  359MOL0     H48451   5.325   0.790   5.813 -2.6298  0.6888  0.6987
  359MOL0     H48452   5.513   0.815   5.696 -1.0495 -0.0952  0.6362
  359MOL0     H48453   5.618   0.829   5.446  3.8175 -1.0013 -0.2540
  359MOL0     H48454   5.730   0.911   5.557  4.2596  0.5206 -2.8344
  359MOL0     H48455   5.843   0.894   5.366  0.4460  1.1355  2.5698
  359MOL0     H48456   5.776   1.058   5.361 -2.4902 -0.0801 -0.8200
  359MOL0     H48457   5.577   0.993   5.232 -1.4830 -0.4546  1.1366
  359MOL0     H48458   5.652   0.833   5.201  1.8073 -1.5716  3.4223
  359MOL0     H48459   5.740   1.124   5.124  0.3688  0.7449 -5.3621
  359MOL0     H48460   5.847   0.980   5.115 -0.6649 -0.2096  0.1374
  359MOL0     H48461   5.627   0.896   4.776 -0.8581 -2.5205  1.2418
  359MOL0     H48462   5.392   1.218   5.574 -0.4640 -0.3911 -2.3859
  359MOL0     H48463   5.221   1.289   5.814  2.1989 -3.1967  1.4286
  359MOL0     H48464   5.228   1.313   5.640  0.7093 -0.1339 -0.3723
  359MOL0     H48465   5.091   1.223   5.707 -0.3330  1.2152 -1.9042
  360MOL0     O48466   6.379   4.296   2.590 -0.3244  0.0310 -1.0826
  360MOL0     C48467   6.306   4.252   2.683 -0.5422  0.4763  0.2914
  360MOL0     O48468   6.213   4.322   2.750  0.5124 -1.0078  0.0397
  360MOL0     C48469   6.201   4.460   2.756  1.1020 -0.6927  0.7378
  360MOL0     C48470   6.301   4.548   2.703  0.6262 -0.7656 -0.4299
  360MOL0     C48471   6.283   4.683   2.698 -0.7182 -0.2171  0.0741
  360MOL0     C48472   6.165   4.748   2.747  0.0430  0.8448 -0.5477
  360MOL0     O48473   6.155   4.882   2.747  0.2559 -0.4586 -0.1111
  360MOL0     C48474   6.228   4.956   2.649  0.2653 -0.0777 -0.2956
  360MOL0     C48475   6.176   5.098   2.619  0.5629 -1.6172 -0.6151
  360MOL0     C48476   6.042   5.094   2.532  0.0775  0.0589 -1.4630
  360MOL0     C48477   5.918   5.056   2.618  0.6904  0.6850  0.1268
  360MOL0     C48478   5.856   4.913   2.601 -0.1856  0.8440  0.2844
  360MOL0     C48479   5.731   4.896   2.698 -1.0660 -0.6415  0.3176
  360MOL0     C48480   5.754   4.953   2.838 -0.1021  0.5384  0.2729
  360MOL0     C48481   5.650   4.882   2.930  0.1660  0.2600  0.2832
  360MOL0     N48482   5.683   4.747   2.975 -0.4619 -0.1754  0.0355
  360MOL0     C48483   5.801   4.701   3.042  0.5923 -0.4204  0.0494
  360MOL0     C48484   5.775   4.565   3.064  0.1976  1.0557  0.2429
  360MOL0     C48485   5.870   4.475   3.141 -0.1079  0.3145 -0.8714
  360MOL0     C48486   5.856   4.513   3.291  0.6675 -0.0206  0.6194
  360MOL0     C48487   5.718   4.461   3.341  0.2015  0.3861  0.2194
  360MOL0     C48488   5.696   4.470   3.490 -0.4440 -1.0854  0.3943
  360MOL0     O48489   5.807   4.419   3.554 -0.0923 -0.1557 -0.5763
  360MOL0     C48490   5.875   4.502   3.643 -0.0827  0.3555  0.0299
  360MOL0     C48491   5.896   4.442   3.761 -0.0089 -0.0387 -0.0548
  360MOL0     C48492   5.987   4.501   3.857  0.8713  0.2824  0.0441
  360MOL0     C48493   6.051   4.623   3.829 -0.5816 -0.2556  0.8638
  360MOL0     C48494   6.160   4.671   3.917 -0.1687  0.0596 -0.3112
  360MOL0     O48495   6.170   4.594   4.033  0.4327  0.2324  0.9549
  360MOL0     C48496   6.275   4.620   4.118 -0.1282 -0.2598  0.5875
  360MOL0     C48497   6.408   4.578   4.094 -0.0281 -0.3621  0.1977
  360MOL0     C48498   6.512   4.605   4.182 -0.0902 -0.8193 -0.4268
  360MOL0     C48499   6.476   4.659   4.301  1.2758  0.6758 -0.7853
  360MOL0     O48500   6.571   4.671   4.399  0.3927 -0.4011  0.2264
  360MOL0     C48501   6.559   4.599   4.517 -0.2894  0.0998 -1.3327
  360MOL0     C48502   6.704   4.567   4.561 -0.5263  0.7282  1.5241
  360MOL0     C48503   6.789   4.518   4.449  0.3796  0.2484  0.4595
  360MOL0     C48504   6.919   4.480   4.517 -0.2262 -0.2945  0.0081
  360MOL0     C48505   7.033   4.430   4.425 -1.1547 -0.0287 -0.1771
  360MOL0     C48506   7.060   4.537   4.315 -0.1487  0.0052  0.3409
  360MOL0     C48507   7.179   4.490   4.219 -0.1051 -0.2479  0.2779
  360MOL0     C48508   7.286   4.399   4.271  0.3744 -0.1250 -0.5792
  360MOL0    Cl48509   7.364   4.364   4.120  0.2035  0.1550 -0.3543
  360MOL0     C48510   6.345   4.693   4.326 -0.3181 -0.0978 -0.2501
  360MOL0     C48511   6.243   4.676   4.241  0.2108  0.9201 -0.0796
  360MOL0     O48512   6.224   4.777   3.899  0.0133  0.2636 -0.2005
  360MOL0     C48513   6.029   4.672   3.696 -0.7516 -0.2450 -0.7505
  360MOL0     C48514   5.943   4.619   3.600  1.0642 -0.0109 -0.0605
  360MOL0     N48515   5.648   4.534   2.999 -0.3826 -1.2586  0.0460
  360MOL0     N48516   5.599   4.642   2.957  0.2467 -0.2545  0.4351
  360MOL0     C48517   6.076   4.664   2.811  0.0267  0.2328  0.2728
  360MOL0     C48518   6.092   4.526   2.820 -0.0017 -0.0979  0.1843
  360MOL0     C48519   6.323   4.106   2.731  0.0237  0.0311  0.4709
  360MOL0     C48520   6.243   4.066   2.843  0.4923 -0.3740  0.6694
  360MOL0     C48521   6.234   3.933   2.882 -0.8618 -0.5198 -0.2475
  360MOL0     C48522   6.328   3.841   2.833  0.5744  0.3431  0.7550
  360MOL0     O48523   6.334   3.709   2.870  0.5982 -0.2715 -0.4911
  360MOL0     C48524   6.230   3.634   2.802  0.7182  0.4532  1.4660
  360MOL0     C48525   6.199   3.493   2.861 -0.0403  0.2024 -0.1471
  360MOL0     C48526   6.323   3.397   2.860 -0.3974 -0.2626  1.2272
  360MOL0     C48527   6.361   3.350   2.719  0.0647 -0.1466 -0.1162
  360MOL0     C48528   6.458   3.441   2.660  0.2580 -0.3438  0.3497
  360MOL0     C48529   6.546   3.518   2.608  0.4098 -0.8926 -0.0481
  360MOL0     C48530   6.424   3.879   2.743 -0.8119 -0.0437 -0.9176
  360MOL0     C48531   6.421   4.014   2.683 -0.0885 -0.0488 -0.3137
  360MOL0     C48532   6.515   4.052   2.580  0.0201  0.1239  0.0843
  360MOL0     H48533   6.397   4.507   2.674  0.1527 -3.2861  1.1719
  360MOL0     H48534   6.374   4.732   2.666 -0.2195 -0.3320  1.2526
  360MOL0     H48535   6.333   4.961   2.678  0.0053  1.3559  0.4650
  360MOL0     H48536   6.222   4.896   2.557 -1.6990  0.8375 -0.8306
  360MOL0     H48537   6.256   5.147   2.563  1.3343 -0.0635  1.7431
  360MOL0     H48538   6.174   5.150   2.715 -1.9764 -0.2541 -1.3114
  360MOL0     H48539   6.063   5.044   2.438  3.6970 -1.5735  0.0086
  360MOL0     H48540   6.024   5.200   2.508 -1.5394 -0.1819 -1.4484
  360MOL0     H48541   5.947   5.056   2.723 -2.3372 -2.9613  1.1961
  360MOL0     H48542   5.840   5.127   2.589  0.6671 -0.5482 -3.3356
  360MOL0     H48543   5.828   4.903   2.496  0.2883 -1.4473  0.3087
  360MOL0     H48544   5.921   4.826   2.615 -2.4670 -1.5135 -2.6063
  360MOL0     H48545   5.641   4.946   2.663 -2.2653 -2.6565  0.3884
  360MOL0     H48546   5.722   4.788   2.712  3.0933 -0.8124  4.2813
  360MOL0     H48547   5.735   5.061   2.833 -0.5596  0.4842  0.7253
  360MOL0     H48548   5.852   4.944   2.886  0.5033  0.6630 -0.9235
  360MOL0     H48549   5.647   4.942   3.022  1.4738 -0.9832  1.1832
  360MOL0     H48550   5.559   4.886   2.870  2.0969 -1.0688 -2.9751
  360MOL0     H48551   5.883   4.764   3.075 -0.7821  0.3899  2.0719
  360MOL0     H48552   5.838   4.370   3.134 -3.4190  1.1483 -0.1235
  360MOL0     H48553   5.973   4.487   3.105  0.8934 -1.4292  1.1467
  360MOL0     H48554   5.936   4.462   3.344 -0.5359  1.1722  3.8319
  360MOL0     H48555   5.876   4.620   3.307  0.9600 -0.1959  1.4619
  360MOL0     H48556   5.711   4.360   3.300 -2.2701 -0.2476  1.9638
  360MOL0     H48557   5.634   4.519   3.300  1.5821  4.0701  2.1078
  360MOL0     H48558   5.612   4.421   3.540 -0.8758  2.1369  3.1342
  360MOL0     H48559   5.690   4.578   3.507  1.3913 -0.7507 -0.8715
  360MOL0     H48560   5.854   4.349   3.797  1.3704 -0.1176  1.4623
  360MOL0     H48561   6.004   4.450   3.951  0.6403 -0.5385 -0.3507
  360MOL0     H48562   6.430   4.531   3.999 -0.9151 -0.9556  0.2709
  360MOL0     H48563   6.607   4.561   4.153  0.5979 -0.6835  1.4372
  360MOL0     H48564   6.507   4.664   4.588  0.8096 -0.0223 -0.3789
  360MOL0     H48565   6.501   4.506   4.518  1.5091 -1.0922  0.3553
  360MOL0     H48566   6.747   4.660   4.598  1.0213  0.1637  1.2191
  360MOL0     H48567   6.698   4.485   4.634 -0.2589 -1.6235 -0.9139
  360MOL0     H48568   6.741   4.429   4.408  2.3019 -0.9689  0.7406
  360MOL0     H48569   6.809   4.601   4.380  0.0457 -0.5937 -0.6685
  360MOL0     H48570   6.898   4.397   4.586 -0.0728 -1.6298 -1.4908
  360MOL0     H48571   6.968   4.562   4.569  2.6545 -3.8753  3.6218
  360MOL0     H48572   7.004   4.336   4.378  0.1010 -0.7096  0.3433
  360MOL0     H48573   7.124   4.403   4.480  1.0008  0.8980 -3.0181
  360MOL0     H48574   6.972   4.552   4.252 -1.0962 -1.1693  1.3294
  360MOL0     H48575   7.093   4.632   4.357  1.9515 -0.6011  0.1730
  360MOL0     H48576   7.230   4.581   4.187  1.3567 -1.7995 -2.0879
  360MOL0     H48577   7.118   4.449   4.138  0.6659  0.6944 -0.8141
  360MOL0     H48578   7.348   4.446   4.348 -1.3912 -2.6914  2.6903
  360MOL0     H48579   7.244   4.314   4.326  1.4993 -0.3419 -0.0280
  360MOL0     H48580   6.323   4.734   4.424  2.4467 -0.0060  0.3995
  360MOL0     H48581   6.141   4.706   4.263  0.6109  2.2061  0.0999
  360MOL0     H48582   6.102   4.748   3.668  1.9744 -1.3853  2.5878
  360MOL0     H48583   5.939   4.660   3.500 -1.3824 -0.1517 -0.0757
  360MOL0     H48584   5.988   4.716   2.848  1.0850  0.6396  2.3972
  360MOL0     H48585   6.023   4.464   2.877  1.0834  1.6078  3.6194
  360MOL0     H48586   6.166   4.135   2.877  0.1369  0.7811 -2.1783
  360MOL0     H48587   6.150   3.897   2.940 -1.7711 -0.8404 -1.6968
  360MOL0     H48588   6.252   3.616   2.697 -0.2309 -1.3729  1.5469
  360MOL0     H48589   6.141   3.697   2.800  1.2259  1.2172 -1.1236
  360MOL0     H48590   6.124   3.447   2.796  0.1173 -2.0389  1.1541
  360MOL0     H48591   6.162   3.504   2.964 -0.4273 -0.7631 -0.1663
  360MOL0     H48592   6.295   3.316   2.928 -1.8099 -0.3234  0.5991
  360MOL0     H48593   6.406   3.456   2.902 -0.9317  0.5858  1.1161
  360MOL0     H48594   6.399   3.248   2.720 -0.0470 -0.1873  1.2730
  360MOL0     H48595   6.265   3.366   2.668  1.2290  3.1464 -1.5657
  360MOL0     H48596   6.625   3.585   2.580 -2.0059  2.4581  0.5078
  360MOL0     H48597   6.490   3.802   2.706 -0.1240 -0.2171  0.5982
  360MOL0     H48598   6.582   3.970   2.551  0.6816  0.3121  1.0239
  360MOL0     H48599   6.458   4.085   2.493 -1.5916 -1.8843  0.2885
  360MOL0     H48600   6.571   4.141   2.610 -1.3141  0.2825  2.3795
  361MOL0     O48601   6.245   1.942   5.607  0.4372 -0.0396 -0.0752
  361MOL0     C48602   6.340   1.950   5.533 -0.3534  0.0876  0.0824
  361MOL0     O48603   6.417   1.840   5.495 -0.4631  0.0603  0.6881
  361MOL0     C48604   6.411   1.709   5.531  0.1581  0.2795  0.6577
  361MOL0     C48605   6.469   1.613   5.446  0.7738  0.5979  0.5515
  361MOL0     C48606   6.469   1.477   5.479 -0.7647 -0.1467  0.2324
  361MOL0     C48607   6.421   1.432   5.606  0.7054 -0.1343  0.6322
  361MOL0     O48608   6.448   1.301   5.635  0.2514 -0.0489  0.1445
  361MOL0     C48609   6.363   1.238   5.731 -0.2301  0.7840  1.0076
  361MOL0     C48610   6.411   1.091   5.737 -0.5367 -0.7551 -0.0729
  361MOL0     C48611   6.553   1.068   5.803  0.0511  1.0862  0.4389
  361MOL0     C48612   6.581   1.120   5.941  0.3023 -0.0798  0.1334
  361MOL0     C48613   6.688   1.031   6.008 -0.4396 -0.5482 -0.1924
  361MOL0     C48614   6.832   1.075   5.967  0.3258  0.2221 -1.0121
  361MOL0     C48615   6.926   0.961   6.004 -0.3382  0.6808  0.3930
  361MOL0     C48616   7.076   0.995   6.012 -0.3799 -0.4080 -0.3141
  361MOL0     N48617   7.142   1.019   5.888  0.3079  0.3678 -0.3987
  361MOL0     C48618   7.159   1.139   5.822 -0.3989 -0.1462 -0.2366
  361MOL0     C48619   7.242   1.119   5.716 -0.9380 -0.2583 -0.1001
  361MOL0     C48620   7.258   1.222   5.603 -0.4818  0.3345 -0.5171
  361MOL0     C48621   7.145   1.207   5.503 -0.9768  0.3991  0.1446
  361MOL0     C48622   7.138   1.308   5.388  0.5632  0.0480 -0.4776
  361MOL0     C48623   7.011   1.292   5.299  0.1140 -0.5111  0.0402
  361MOL0     O48624   6.892   1.272   5.356  0.1119  0.1623  0.1839
  361MOL0     C48625   6.855   1.351   5.461 -0.2666  0.0008 -0.3327
  361MOL0     C48626   6.861   1.490   5.466  0.4314 -0.7255 -0.6027
  361MOL0     C48627   6.809   1.558   5.582 -0.1778 -0.1862  1.0330
  361MOL0     C48628   6.750   1.491   5.689 -0.1667  0.3301 -0.2248
  361MOL0     C48629   6.696   1.564   5.808  0.0463 -0.1134  0.1753
  361MOL0     O48630   6.652   1.484   5.903 -0.0878 -0.2689  0.0611
  361MOL0     C48631   6.582   1.539   6.009 -0.1262 -0.0106  0.6799
  361MOL0     C48632   6.490   1.640   5.999  1.0289  0.2327 -0.1730
  361MOL0     C48633   6.435   1.694   6.120  0.1390  0.6222  0.0342
  361MOL0     C48634   6.471   1.652   6.250  0.9307 -0.3630  0.0335
  361MOL0     O48635   6.422   1.699   6.374  0.0191 -0.7117  0.6362
  361MOL0     C48636   6.320   1.795   6.365 -0.2706 -0.9701 -0.0253
  361MOL0     C48637   6.289   1.857   6.498  0.2889  0.0938 -0.9503
  361MOL0     C48638   6.434   1.902   6.549 -0.0239  0.4470  0.2684
  361MOL0     C48639   6.429   1.961   6.690  0.9341  0.1864 -0.2135
  361MOL0     C48640   6.569   2.002   6.742  0.3793 -0.3551  0.0648
  361MOL0     C48641   6.600   2.143   6.707  0.2278 -0.2222 -0.3744
  361MOL0     C48642   6.748   2.149   6.711  0.2567 -0.7934  0.1199
  361MOL0     C48643   6.785   2.263   6.619 -0.2662  0.3296 -0.1234
  361MOL0    Cl48644   6.736   2.417   6.708  0.6255  0.2462 -0.1566
  361MOL0     C48645   6.572   1.547   6.257  0.5337 -0.3106  0.5776
  361MOL0     C48646   6.622   1.498   6.136 -0.0635 -0.3981  0.1278
  361MOL0     O48647   6.696   1.684   5.804 -0.3885 -0.3594 -0.8941
  361MOL0     C48648   6.745   1.343   5.680 -0.1769 -0.1978  0.0471
  361MOL0     C48649   6.789   1.282   5.566 -0.1248 -0.0416  0.6604
  361MOL0     N48650   7.264   0.984   5.712  0.0412 -0.4911 -0.1998
  361MOL0     N48651   7.212   0.928   5.814 -0.1473  0.1725  0.3558
  361MOL0     C48652   6.356   1.528   5.694 -0.7127  0.1470 -0.8426
  361MOL0     C48653   6.345   1.661   5.647 -0.3495  0.8860 -0.7775
  361MOL0     C48654   6.390   2.082   5.482  0.7882 -0.7066 -0.4305
  361MOL0     C48655   6.491   2.077   5.386 -0.4434 -0.9064 -0.3755
  361MOL0     C48656   6.554   2.195   5.353  0.1770 -0.3349 -0.7889
  361MOL0     C48657   6.509   2.323   5.384 -0.4597  0.5037 -0.1333
  361MOL0     O48658   6.565   2.434   5.342  0.2263  0.0972 -0.1892
  361MOL0     C48659   6.691   2.441   5.266  0.6269  0.4323 -0.0746
  361MOL0     C48660   6.712   2.584   5.237  0.7123 -0.2109 -0.4750
  361MOL0     C48661   6.839   2.601   5.159  0.9943  0.5691 -0.6159
  361MOL0     C48662   6.889   2.747   5.158  0.1400 -0.4020  0.3718
  361MOL0     C48663   6.950   2.797   5.276  1.1848  0.1795 -0.0805
  361MOL0     C48664   7.003   2.834   5.382  0.6542  0.1593  0.1207
  361MOL0     C48665   6.389   2.325   5.454  0.0432  0.3215  1.0634
  361MOL0     C48666   6.330   2.215   5.500 -0.1074 -0.1479  0.3678
  361MOL0     C48667   6.212   2.235   5.601 -0.7213  0.2560  0.4397
  361MOL0     H48668   6.513   1.630   5.348  1.2338  1.4662  0.8944
  361MOL0     H48669   6.509   1.415   5.399  0.2304  2.2317 -1.2096
  361MOL0     H48670   6.363   1.284   5.831  1.6545 -0.7343  1.7745
  361MOL0     H48671   6.263   1.249   5.688  0.1408 -0.4642 -0.2429
  361MOL0     H48672   6.402   1.052   5.636  0.2564  2.0396 -1.3187
  361MOL0     H48673   6.337   1.042   5.801  0.8147 -2.2994  0.3760
  361MOL0     H48674   6.635   1.086   5.733  1.3159  0.6026  1.7367
  361MOL0     H48675   6.548   0.960   5.820  1.1032  1.1024  0.9568
  361MOL0     H48676   6.625   1.220   5.941  4.5697 -1.7090 -0.8416
  361MOL0     H48677   6.491   1.107   6.002  0.1839  3.1886  0.8283
  361MOL0     H48678   6.677   1.021   6.116 -0.1945 -2.3639 -0.2957
  361MOL0     H48679   6.674   0.925   5.984 -2.1859 -1.3907  3.8351
  361MOL0     H48680   6.848   1.091   5.860 -0.1952 -1.7651 -1.4227
  361MOL0     H48681   6.856   1.171   6.012 -0.9210  1.1023 -2.1365
  361MOL0     H48682   6.925   0.869   5.945  1.3699 -0.0566  1.4268
  361MOL0     H48683   6.904   0.935   6.108  0.2386 -1.7622 -0.0363
  361MOL0     H48684   7.091   1.075   6.085 -1.7266 -2.5210  2.4406
  361MOL0     H48685   7.116   0.902   6.051 -0.7216 -0.1028  0.7844
  361MOL0     H48686   7.119   1.233   5.859  1.5683  0.3282  0.8601
  361MOL0     H48687   7.253   1.323   5.646  1.5257 -0.5338  1.9847
  361MOL0     H48688   7.358   1.209   5.563 -0.0653  3.0752 -0.5451
  361MOL0     H48689   7.169   1.111   5.456  0.1367  0.1578  1.1438
  361MOL0     H48690   7.049   1.204   5.555 -2.3864 -0.9510 -2.3284
  361MOL0     H48691   7.235   1.316   5.337  2.1567  2.8534  2.5973
  361MOL0     H48692   7.133   1.410   5.427  1.1466  0.1129 -0.5647
  361MOL0     H48693   7.029   1.208   5.232 -0.9862  1.5891 -3.1184
  361MOL0     H48694   7.000   1.387   5.245 -0.0007  0.9597  2.4749
  361MOL0     H48695   6.896   1.548   5.382 -0.8605  1.4415  0.2723
  361MOL0     H48696   6.806   1.665   5.564 -1.6518 -0.3139  0.4224
  361MOL0     H48697   6.467   1.684   5.902 -0.3459  0.7723  0.3859
  361MOL0     H48698   6.356   1.766   6.104 -0.4725 -0.5592 -3.1541
  361MOL0     H48699   6.346   1.878   6.299 -2.1678  0.2813  0.6947
  361MOL0     H48700   6.227   1.757   6.321 -2.1377  0.7556  2.1494
  361MOL0     H48701   6.225   1.945   6.484 -1.8398 -1.2420 -0.0546
  361MOL0     H48702   6.243   1.785   6.565  0.6180  1.2713  0.6022
  361MOL0     H48703   6.498   1.814   6.559  0.7590  1.1336  1.6658
  361MOL0     H48704   6.493   1.968   6.485 -0.4153  0.2854 -0.2589
  361MOL0     H48705   6.383   1.897   6.766  0.8192  1.1606  0.5550
  361MOL0     H48706   6.369   2.052   6.683  0.8887  0.0632 -1.9025
  361MOL0     H48707   6.637   1.919   6.722  0.5787  0.3093 -2.2790
  361MOL0     H48708   6.577   2.004   6.851  1.8139  0.2777 -0.0174
  361MOL0     H48709   6.566   2.164   6.605 -0.3269 -0.7354 -0.2980
  361MOL0     H48710   6.562   2.219   6.776  2.8405 -0.6932  1.7827
  361MOL0     H48711   6.793   2.062   6.663 -0.9599  0.1154 -2.9623
  361MOL0     H48712   6.779   2.164   6.814 -1.4641 -2.4716  0.9436
  361MOL0     H48713   6.894   2.269   6.622 -0.2823  2.6298  4.0480
  361MOL0     H48714   6.746   2.266   6.517  0.5236  2.2356 -0.4100
  361MOL0     H48715   6.606   1.506   6.351 -0.0465 -1.1467  0.4317
  361MOL0     H48716   6.689   1.413   6.138 -0.6742 -0.8795  0.8659
  361MOL0     H48717   6.697   1.296   5.764  1.6453 -1.0040  0.6966
  361MOL0     H48718   6.782   1.175   5.548  3.0801 -0.1086 -0.9677
  361MOL0     H48719   6.332   1.500   5.796 -0.4011 -0.1034 -0.8380
  361MOL0     H48720   6.304   1.726   5.724 -1.4789 -1.3252  0.6018
  361MOL0     H48721   6.517   1.989   5.329 -2.2641 -3.0804  1.9023
  361MOL0     H48722   6.641   2.195   5.289  0.4252 -1.5935 -0.4773
  361MOL0     H48723   6.700   2.373   5.181  1.2480  1.4475 -0.8480
  361MOL0     H48724   6.768   2.406   5.336  0.4515 -1.5542 -0.8205
  361MOL0     H48725   6.718   2.636   5.333 -1.7867 -1.9955  0.7728
  361MOL0     H48726   6.627   2.628   5.184 -0.1111  0.5911  1.4095
  361MOL0     H48727   6.833   2.570   5.054 -0.4887  0.9961 -0.6791
  361MOL0     H48728   6.915   2.532   5.198  0.3221  0.2746  0.1882
  361MOL0     H48729   6.957   2.761   5.074 -0.2192  1.6336  0.3785
  361MOL0     H48730   6.807   2.814   5.134  1.1413 -0.0499 -2.3656
  361MOL0     H48731   7.061   2.863   5.468 -1.0675  3.2502  0.3760
  361MOL0     H48732   6.348   2.424   5.470  0.8662  0.7182  0.7935
  361MOL0     H48733   6.255   2.218   5.700  1.1671 -3.9364 -0.8616
  361MOL0     H48734   6.176   2.339   5.604  2.8875  1.6300  2.2553
  361MOL0     H48735   6.134   2.159   5.594 -0.4267 -0.0182  0.1339
  362MOL0     O48736   9.113   1.297  10.181  0.0947 -0.2862  0.2413
  362MOL0     C48737   9.128   1.342  10.294  0.0474  0.2397  0.1449
  362MOL0     O48738   9.218   1.308  10.377 -0.9079  0.0389 -1.0919
  362MOL0     C48739   9.321   1.225  10.342 -0.5165 -1.6711 -0.5720
  362MOL0     C48740   9.413   1.267  10.243  0.2800  0.3394  0.0855
  362MOL0     C48741   9.524   1.198  10.219 -0.0345 -0.6835  0.2056
  362MOL0     C48742   9.553   1.081  10.277 -0.3114  0.5594  0.7035
  362MOL0     O48743   9.670   1.016  10.241  0.4131 -0.0092 -0.2379
  362MOL0     C48744   9.699   0.894  10.312  0.1859  0.2211  0.6293
  362MOL0     C48745   9.847   0.853  10.274 -0.6815 -0.1759 -0.0779
  362MOL0     C48746   9.900   0.739  10.359  0.0157  0.1799 -0.7769
  362MOL0     C48747   9.853   0.608  10.296  0.0838  0.2780 -0.1784
  362MOL0     C48748   9.932   0.475  10.345  0.4443  0.1851  0.7822
  362MOL0     C48749   9.959   0.450  10.493 -0.7218  0.7443  0.2525
  362MOL0     C48750   9.837   0.393  10.574 -0.3002 -0.2663  0.7357
  362MOL0     C48751   9.808   0.247  10.539 -0.7932 -1.2486 -0.4256
  362MOL0     N48752   9.884   0.141  10.611 -0.5665 -0.5650 -1.2959
  362MOL0     C48753   9.878   0.127  10.748  0.5160  0.1143 -0.1645
  362MOL0     C48754   9.923   0.004  10.754  0.8918  0.6021 -0.0249
  362MOL0     C48755   9.930  -0.065  10.882  0.3642 -0.3308 -1.1662
  362MOL0     C48756  10.046  -0.011  10.973  0.5010 -0.3415 -0.3765
  362MOL0     C48757  10.190  -0.046  10.917  0.7865  0.9120 -0.5272
  362MOL0     C48758  10.303  -0.035  11.025  1.2216  0.8289 -0.3413
  362MOL0     O48759  10.316   0.093  11.077  0.3868  0.3694 -0.3911
  362MOL0     C48760  10.400   0.110  11.182  0.6301  0.2281  0.5452
  362MOL0     C48761  10.490   0.018  11.233  0.0126 -0.0581 -0.0144
  362MOL0     C48762  10.571   0.052  11.342  0.0570  0.5753  0.6585
  362MOL0     C48763  10.568   0.186  11.397  0.5335  0.7020 -1.0629
  362MOL0     C48764  10.650   0.211  11.519  0.3662 -0.5848  0.7233
  362MOL0     O48765  10.616   0.329  11.584 -0.8460 -0.5484 -0.0490
  362MOL0     C48766  10.698   0.371  11.686 -0.4487  0.4699 -0.1599
  362MOL0     C48767  10.808   0.460  11.672 -0.6767 -0.1313 -0.3073
  362MOL0     C48768  10.876   0.492  11.794  0.2736 -0.7650  0.0788
  362MOL0     C48769  10.837   0.434  11.915 -0.1603 -0.1692 -0.6532
  362MOL0     O48770  10.884   0.471  12.041  0.7265 -0.1670  0.5787
  362MOL0     C48771  11.016   0.429  12.075 -0.6943 -0.3552 -0.2829
  362MOL0     C48772  11.061   0.485  12.204  0.4059 -0.2297 -0.0084
  362MOL0     C48773  11.193   0.424  12.251 -0.7119 -0.6077 -0.7799
  362MOL0     C48774  11.313   0.505  12.193  0.6026  0.4348 -0.0946
  362MOL0     C48775  11.438   0.450  12.263  0.1747 -0.2722 -0.1099
  362MOL0     C48776  11.562   0.524  12.223 -0.6663  0.3907  0.4950
  362MOL0     C48777  11.703   0.452  12.252 -0.2146 -1.2112  0.0309
  362MOL0     C48778  11.719   0.445  12.407  0.2808 -0.4376 -0.4203
  362MOL0    Cl48779  11.870   0.370  12.449 -0.4871 -0.0406 -0.1524
  362MOL0     C48780  10.735   0.343  11.915  1.1128 -0.1833  0.1510
  362MOL0     C48781  10.657   0.320  11.807  0.1565 -0.2948  0.2758
  362MOL0     O48782  10.738   0.127  11.546  0.3453 -0.0228 -0.9943
  362MOL0     C48783  10.475   0.276  11.335 -0.3061  0.3129  0.0804
  362MOL0     C48784  10.399   0.237  11.232  0.1220 -0.4057  0.3379
  362MOL0     N48785   9.954  -0.053  10.629 -0.5033  0.3325 -0.0817
  362MOL0     N48786   9.926   0.030  10.546 -0.7736 -0.6864 -0.3568
  362MOL0     C48787   9.461   1.038  10.374  0.4051 -0.2377  0.6107
  362MOL0     C48788   9.339   1.109  10.410 -0.3564  0.9369  0.2134
  362MOL0     C48789   9.032   1.447  10.344  0.1543 -0.4428  0.5418
  362MOL0     C48790   9.061   1.505  10.474  0.9636  0.1172  0.3870
  362MOL0     C48791   8.964   1.574  10.542 -1.0193 -0.0332  0.7023
  362MOL0     C48792   8.835   1.602  10.483 -0.3581  0.6711 -0.2394
  362MOL0     O48793   8.753   1.688  10.551  0.3150 -1.1573 -0.4918
  362MOL0     C48794   8.636   1.749  10.485  0.1338 -1.0130 -0.0855
  362MOL0     C48795   8.517   1.662  10.533  0.0343  0.1298  0.9244
  362MOL0     C48796   8.378   1.706  10.475 -0.1074  0.6518 -0.0599
  362MOL0     C48797   8.331   1.854  10.515  0.2756  0.1632  0.4034
  362MOL0     C48798   8.282   1.856  10.652 -0.3341  0.4397 -0.1211
  362MOL0     C48799   8.265   1.858  10.775  0.5333  0.1135  0.6304
  362MOL0     C48800   8.818   1.549  10.352  0.6087  0.4625 -0.6629
  362MOL0     C48801   8.908   1.468  10.283 -0.0524 -0.4139  1.1024
  362MOL0     C48802   8.865   1.395  10.160 -0.2479 -0.2184  0.1879
  362MOL0     H48803   9.391   1.363  10.196  2.5776  2.2045  2.5012
  362MOL0     H48804   9.578   1.209  10.125 -2.9886 -1.7366 -1.7416
  362MOL0     H48805   9.683   0.906  10.420  2.3015  1.2851  0.8822
  362MOL0     H48806   9.621   0.823  10.282  0.3589  0.8156 -1.3366
  362MOL0     H48807   9.902   0.944  10.301  2.0344 -1.8180  0.3175
  362MOL0     H48808   9.866   0.830  10.169 -1.6063  0.3001 -0.3556
  362MOL0     H48809   9.875   0.743  10.466  0.8260  1.5297 -0.6198
  362MOL0     H48810  10.009   0.751  10.352 -0.2473  2.4699 -1.7382
  362MOL0     H48811   9.753   0.588  10.334  1.1156 -1.7315  1.7007
  362MOL0     H48812   9.859   0.613  10.187  1.2680  1.0039 -0.1042
  362MOL0     H48813   9.886   0.390  10.294 -0.3532  0.4588  1.0281
  362MOL0     H48814  10.035   0.480  10.309  0.5566 -1.4672  0.7866
  362MOL0     H48815  10.036   0.372  10.496 -1.4608 -0.0833 -0.9123
  362MOL0     H48816  10.008   0.535  10.540  2.3250 -1.2292  0.9364
  362MOL0     H48817   9.746   0.448  10.551  0.8648  1.3042 -0.3796
  362MOL0     H48818   9.844   0.407  10.682 -1.0935 -1.4434  0.9448
  362MOL0     H48819   9.704   0.232  10.569 -1.1569  0.7316 -0.5773
  362MOL0     H48820   9.810   0.232  10.431 -0.3623  1.7007 -0.9088
  362MOL0     H48821   9.854   0.193  10.831  0.2070 -1.5666  1.1532
  362MOL0     H48822   9.842  -0.062  10.947  0.9650  2.7235 -0.3515
  362MOL0     H48823   9.963  -0.169  10.866  4.7748  0.7117 -0.1936
  362MOL0     H48824  10.038   0.098  10.975  1.9845 -0.2174  1.1129
  362MOL0     H48825  10.033  -0.042  11.077 -3.8279  1.7703 -0.0800
  362MOL0     H48826  10.219   0.022  10.836  2.3988  0.5396 -0.2900
  362MOL0     H48827  10.184  -0.149  10.884  0.3919  0.1095  1.8119
  362MOL0     H48828  10.396  -0.070  10.981  1.3727 -1.1670  1.4327
  362MOL0     H48829  10.277  -0.101  11.108  1.2842  1.1270 -0.0795
  362MOL0     H48830  10.490  -0.086  11.202 -0.2979  0.4553 -1.8667
  362MOL0     H48831  10.636  -0.022  11.388 -1.8667 -1.2870  0.5001
  362MOL0     H48832  10.839   0.500  11.576  2.5109  0.5179  0.8697
  362MOL0     H48833  10.965   0.555  11.794  0.3521 -0.7592 -2.4508
  362MOL0     H48834  11.020   0.320  12.086 -0.8521 -0.5890 -2.1994
  362MOL0     H48835  11.089   0.438  11.994  0.3949  0.2976  0.7369
  362MOL0     H48836  11.061   0.594  12.205  0.3543 -0.2248  2.0122
  362MOL0     H48837  10.986   0.466  12.281  0.0213  1.5810  0.1078
  362MOL0     H48838  11.202   0.422  12.360 -0.3515  1.0418 -0.7495
  362MOL0     H48839  11.204   0.319  12.220  2.5880 -1.1203  1.6262
  362MOL0     H48840  11.291   0.612  12.203 -2.4932  0.0284 -1.4796
  362MOL0     H48841  11.303   0.496  12.084 -1.4580  2.1108 -0.1070
  362MOL0     H48842  11.445   0.347  12.228 -1.7895 -0.6118  0.3632
  362MOL0     H48843  11.421   0.445  12.371  1.4478 -1.7873  0.0584
  362MOL0     H48844  11.562   0.536  12.114  0.0874  0.9235  0.5430
  362MOL0     H48845  11.564   0.627  12.260  0.7355  1.4315 -2.2158
  362MOL0     H48846  11.783   0.517  12.216 -2.7203  0.9045 -2.2440
  362MOL0     H48847  11.724   0.354  12.209 -0.2492 -2.3897  2.5244
  362MOL0     H48848  11.715   0.548  12.446  0.7078  0.2014 -1.9820
  362MOL0     H48849  11.637   0.385  12.446 -1.3243  1.4015 -0.7815
  362MOL0     H48850  10.708   0.293  12.007  2.4181 -1.7720 -0.2772
  362MOL0     H48851  10.573   0.253  11.825  2.2317 -2.8348  1.2808
  362MOL0     H48852  10.468   0.375  11.380 -1.4875  0.4645 -0.4008
  362MOL0     H48853  10.327   0.303  11.186  0.2247  0.3354  1.2223
  362MOL0     H48854   9.487   0.960  10.445 -1.1000  0.8977  2.5276
  362MOL0     H48855   9.271   1.064  10.482 -1.1878  0.8580 -0.6095
  362MOL0     H48856   9.158   1.481  10.515  1.4281 -3.0031 -2.1217
  362MOL0     H48857   8.987   1.620  10.637 -0.5016 -2.8856  2.0423
  362MOL0     H48858   8.642   1.753  10.376  1.5746  2.6395 -0.0205
  362MOL0     H48859   8.624   1.850  10.524 -3.8733  0.4402 -4.1437
  362MOL0     H48860   8.530   1.665  10.642  2.1962  0.3422  0.7203
  362MOL0     H48861   8.538   1.561  10.494  1.7086  1.6407 -2.5046
  362MOL0     H48862   8.303   1.628  10.494  1.5865 -1.5123 -1.7072
  362MOL0     H48863   8.379   1.710  10.366  0.6801  1.0736 -0.0485
  362MOL0     H48864   8.401   1.935  10.495 -2.2349  1.8660 -2.4250
  362MOL0     H48865   8.243   1.879  10.455  0.4022  0.2231  0.2428
  362MOL0     H48866   8.237   1.873  10.878 -1.1829 -1.0625  0.3845
  362MOL0     H48867   8.722   1.571  10.307  1.3752  0.2305 -2.5012
  362MOL0     H48868   8.764   1.425  10.131  1.0495  2.8415 -1.6721
  362MOL0     H48869   8.933   1.414  10.076 -0.1113 -1.0538  0.0931
  362MOL0     H48870   8.884   1.289  10.180  1.4879 -0.0931 -0.6350
  363MOL0     O48871   5.540   4.954   4.863 -0.4599  0.0421  0.9564
  363MOL0     C48872   5.596   4.855   4.914 -0.6998  0.6708 -0.7192
  363MOL0     O48873   5.722   4.810   4.884  0.0467  0.8316  0.4962
  363MOL0     C48874   5.797   4.879   4.801 -0.4325 -1.2012 -0.5754
  363MOL0     C48875   5.861   4.815   4.689  0.5828 -0.4234 -0.5598
  363MOL0     C48876   5.945   4.888   4.606 -0.0827  0.8116 -0.4135
  363MOL0     C48877   5.972   5.026   4.635  1.1208 -0.1249  0.4130
  363MOL0     O48878   6.061   5.097   4.551 -0.3645 -0.1545 -0.3298
  363MOL0     C48879   6.161   5.026   4.477 -0.4823  0.1271  0.7251
  363MOL0     C48880   6.269   5.121   4.423  0.2944  0.3190 -0.1476
  363MOL0     C48881   6.395   5.041   4.374  0.3573  0.0975 -0.5097
  363MOL0     C48882   6.504   5.154   4.347  1.0026  0.3197  0.1692
  363MOL0     C48883   6.641   5.099   4.314 -0.1300 -0.0882 -0.3191
  363MOL0     C48884   6.722   5.075   4.442 -0.2163 -0.3099 -1.1409
  363MOL0     C48885   6.854   5.003   4.420  0.1492  0.2993 -0.3439
  363MOL0     C48886   6.955   5.016   4.530 -0.3246 -0.0564 -0.6465
  363MOL0     N48887   6.911   4.931   4.648  0.3502  0.1111  0.5341
  363MOL0     C48888   6.961   4.811   4.660  0.3738  0.2948 -0.2740
  363MOL0     C48889   6.898   4.761   4.763 -0.5997 -0.0084 -0.1775
  363MOL0     C48890   6.919   4.624   4.824  0.2310 -0.0107  0.0788
  363MOL0     C48891   6.874   4.606   4.967 -0.3283 -0.3926  0.3645
  363MOL0     C48892   6.900   4.467   5.027 -0.1239 -0.2322  0.3728
  363MOL0     C48893   7.037   4.412   5.019  0.4064  0.8945 -0.1212
  363MOL0     O48894   7.135   4.486   5.102  0.7381  0.5086  0.2824
  363MOL0     C48895   7.270   4.472   5.075 -0.0347 -0.7663 -0.5638
  363MOL0     C48896   7.368   4.519   5.178  0.8252 -0.6224  0.7147
  363MOL0     C48897   7.504   4.513   5.154 -0.5506 -0.1617 -0.2259
  363MOL0     C48898   7.558   4.458   5.032  0.0396 -0.3022  0.0427
  363MOL0     C48899   7.705   4.455   5.003  0.6422 -0.1628  0.4319
  363MOL0     O48900   7.757   4.337   4.945 -0.1693 -0.1789  0.3403
  363MOL0     C48901   7.899   4.323   4.919  0.4885 -0.7184  0.3826
  363MOL0     C48902   7.934   4.224   4.831 -0.3767 -0.0242 -0.1404
  363MOL0     C48903   8.071   4.200   4.808 -0.7596  1.5734 -0.6483
  363MOL0     C48904   8.178   4.279   4.845 -0.1441 -0.4385 -0.5046
  363MOL0     O48905   8.310   4.278   4.807 -0.3629  0.3479  1.3694
  363MOL0     C48906   8.371   4.160   4.756 -0.9431  0.0121 -0.4803
  363MOL0     C48907   8.516   4.201   4.723 -0.4711 -0.3642 -0.1802
  363MOL0     C48908   8.520   4.284   4.593  0.1358 -0.4733  0.2876
  363MOL0     C48909   8.662   4.303   4.536 -0.6145 -0.5081  0.6340
  363MOL0     C48910   8.675   4.386   4.405 -0.1456  0.6594  0.0760
  363MOL0     C48911   8.673   4.298   4.274 -0.3794 -0.2910  0.5994
  363MOL0     C48912   8.694   4.384   4.151  0.2923 -0.5440 -0.0741
  363MOL0     C48913   8.707   4.295   4.021 -0.1178 -0.2691  0.0646
  363MOL0    Cl48914   8.882   4.265   3.998 -0.3530 -0.4081 -0.2992
  363MOL0     C48915   8.135   4.376   4.938  0.0008  0.1086  0.2948
  363MOL0     C48916   8.003   4.393   4.984 -0.5178 -0.4611  0.3136
  363MOL0     O48917   7.763   4.561   5.020  0.3278 -0.3031  0.6408
  363MOL0     C48918   7.463   4.391   4.954  0.3076 -0.1315 -0.7383
  363MOL0     C48919   7.323   4.400   4.972  0.0048  0.1972  0.2247
  363MOL0     N48920   6.806   4.855   4.808 -0.3999  0.2569 -0.6298
  363MOL0     N48921   6.821   4.964   4.742 -0.1799 -0.5959 -0.2366
  363MOL0     C48922   5.914   5.087   4.751 -0.0177 -0.0116 -0.4873
  363MOL0     C48923   5.826   5.019   4.830  0.3193  0.7750 -0.9300
  363MOL0     C48924   5.510   4.766   4.997 -0.7222 -0.9880  0.3617
  363MOL0     C48925   5.554   4.638   5.011  0.0542 -0.4622 -0.1487
  363MOL0     C48926   5.494   4.555   5.101 -0.5924 -0.5216  0.6112
  363MOL0     C48927   5.375   4.601   5.169  0.4386  0.2850  0.4445
  363MOL0     O48928   5.316   4.500   5.245 -0.0735  0.2514  0.4093
  363MOL0     C48929   5.176   4.506   5.288  0.5143  0.2258 -0.8226
  363MOL0     C48930   5.067   4.518   5.177  0.1455  0.2555 -0.4693
  363MOL0     C48931   4.934   4.491   5.223  0.3386 -0.5990 -0.8522
  363MOL0     C48932   4.831   4.545   5.126  0.4357  0.4261  0.0834
  363MOL0     C48933   4.695   4.514   5.182 -0.2364 -0.7539  0.2032
  363MOL0     C48934   4.595   4.489   5.244  0.1395 -0.0916  0.1499
  363MOL0     C48935   5.337   4.732   5.158 -0.1552  0.5057  0.5948
  363MOL0     C48936   5.406   4.818   5.076  0.2843 -0.0613  0.2325
  363MOL0     C48937   5.365   4.961   5.088 -1.0189 -0.4059 -0.5191
  363MOL0     H48938   5.855   4.708   4.673 -1.8975 -0.0869 -2.7313
  363MOL0     H48939   5.985   4.834   4.520  0.7786  0.7204  0.0352
  363MOL0     H48940   6.205   4.957   4.550  0.4969  0.0566  0.0761
  363MOL0     H48941   6.116   4.978   4.390  0.7784 -0.3529  0.3121
  363MOL0     H48942   6.294   5.198   4.497 -0.7191  0.0477  0.4894
  363MOL0     H48943   6.226   5.188   4.348  0.6907  2.0120  1.0821
  363MOL0     H48944   6.373   4.996   4.276 -0.7266 -1.1095  0.2608
  363MOL0     H48945   6.409   4.961   4.447 -0.2500  0.9169  0.5341
  363MOL0     H48946   6.469   5.224   4.271 -0.2704  1.5400  1.7812
  363MOL0     H48947   6.507   5.209   4.442  0.1279 -1.0106  0.9967
  363MOL0     H48948   6.643   5.005   4.259 -0.1121  0.2040 -0.8277
  363MOL0     H48949   6.685   5.177   4.252 -0.5993  1.2288  0.9351
  363MOL0     H48950   6.740   5.172   4.488 -0.7545 -0.1563 -1.2514
  363MOL0     H48951   6.668   5.018   4.517 -0.8071 -1.4646 -2.4014
  363MOL0     H48952   6.914   5.035   4.334  0.7245 -4.6745 -2.0977
  363MOL0     H48953   6.823   4.898   4.415 -0.6077  0.3758  1.7045
  363MOL0     H48954   7.054   4.980   4.500 -0.2949 -2.0550  1.5888
  363MOL0     H48955   6.965   5.122   4.554 -1.6015  0.2871 -1.5340
  363MOL0     H48956   7.037   4.773   4.593  1.4947  0.6852  0.7488
  363MOL0     H48957   6.875   4.545   4.762  2.4571 -0.9241 -0.4209
  363MOL0     H48958   7.027   4.614   4.807  0.1250 -1.0329 -0.0452
  363MOL0     H48959   6.905   4.687   5.034  1.3387 -0.4756 -0.2419
  363MOL0     H48960   6.766   4.619   4.953 -0.3650 -1.7277 -0.7148
  363MOL0     H48961   6.829   4.400   4.980  1.3780 -0.7335 -1.2797
  363MOL0     H48962   6.885   4.476   5.135  2.8076 -0.0099  0.8483
  363MOL0     H48963   7.069   4.403   4.914 -0.1199 -0.7653 -0.1721
  363MOL0     H48964   7.037   4.314   5.067 -1.0316  0.0366 -1.7495
  363MOL0     H48965   7.330   4.554   5.273 -0.5675 -0.5735  0.1525
  363MOL0     H48966   7.564   4.553   5.235 -1.6357  3.1009 -0.8758
  363MOL0     H48967   7.850   4.173   4.784  1.1632 -1.1977 -1.7261
  363MOL0     H48968   8.101   4.113   4.750  0.8290 -1.4150  4.1105
  363MOL0     H48969   8.368   4.077   4.827 -1.6823 -0.3585 -0.9321
  363MOL0     H48970   8.319   4.114   4.671  1.9197 -3.4916 -0.5560
  363MOL0     H48971   8.565   4.261   4.799  1.1436 -0.3173 -1.2160
  363MOL0     H48972   8.569   4.105   4.720 -2.1685 -1.6694  4.0735
  363MOL0     H48973   8.448   4.238   4.525 -3.6911  1.8763  2.3813
  363MOL0     H48974   8.478   4.384   4.608 -0.6108 -0.4932 -1.4952
  363MOL0     H48975   8.700   4.203   4.514 -0.2026 -0.8578  2.7468
  363MOL0     H48976   8.723   4.357   4.607  1.4523 -0.9049 -0.7456
  363MOL0     H48977   8.767   4.445   4.415  0.7437 -0.5372 -0.7445
  363MOL0     H48978   8.592   4.457   4.398 -1.6786 -1.1482 -0.8547
  363MOL0     H48979   8.752   4.222   4.275  2.5503  2.4134 -1.9560
  363MOL0     H48980   8.575   4.251   4.260 -0.9858  1.1347 -0.1053
  363MOL0     H48981   8.778   4.454   4.159  1.0465 -1.4624  0.2740
  363MOL0     H48982   8.605   4.447   4.144  0.3924 -0.4361 -0.3915
  363MOL0     H48983   8.666   4.195   4.040  2.6826 -2.1449 -2.7485
  363MOL0     H48984   8.674   4.349   3.932  0.5453 -0.0040 -0.0246
  363MOL0     H48985   8.206   4.444   4.984  0.7661  1.5227 -2.6875
  363MOL0     H48986   7.984   4.464   5.063  1.7398  0.1326  0.3713
  363MOL0     H48987   7.501   4.326   4.876  0.5347  1.2126 -1.7855
  363MOL0     H48988   7.266   4.352   4.893 -0.2983  2.6136 -1.1378
  363MOL0     H48989   5.934   5.190   4.777 -0.5693 -0.5892  2.6983
  363MOL0     H48990   5.782   5.061   4.920  1.1894  0.4314 -0.3305
  363MOL0     H48991   5.637   4.601   4.952  1.3892 -0.7689  1.8592
  363MOL0     H48992   5.536   4.455   5.108  2.5883  0.5227 -1.2472
  363MOL0     H48993   5.159   4.591   5.354  0.4220 -0.8298  0.5682
  363MOL0     H48994   5.154   4.418   5.350 -0.0926 -0.5117 -2.0413
  363MOL0     H48995   5.094   4.454   5.093  0.0877  0.2684 -0.4973
  363MOL0     H48996   5.078   4.623   5.148  0.2927  0.7232  1.1403
  363MOL0     H48997   4.918   4.562   5.305  2.3270  2.6529 -3.0071
  363MOL0     H48998   4.924   4.387   5.254 -1.5513  0.5918  3.3736
  363MOL0     H48999   4.839   4.653   5.118  3.3598  0.3185  0.6565
  363MOL0     H49000   4.837   4.513   5.021 -3.7261  3.1173 -1.2136
  363MOL0     H49001   4.507   4.468   5.301  1.0890 -1.4487  1.1981
  363MOL0     H49002   5.254   4.760   5.222  0.2605 -1.2112  1.9835
  363MOL0     H49003   5.279   4.989   5.027 -3.2890  0.0733  2.6567
  363MOL0     H49004   5.329   4.989   5.187  0.7169  0.2548 -0.0386
  363MOL0     H49005   5.452   5.026   5.071 -0.4474 -0.3353  2.2504
  364MOL0     O49006   9.625   6.582   1.106 -0.3147 -0.0207  0.0301
  364MOL0     C49007   9.547   6.554   1.192  0.1482  0.0856  0.3041
  364MOL0     O49008   9.586   6.508   1.313  0.4440 -0.1020 -0.8223
  364MOL0     C49009   9.708   6.540   1.361  0.0843  0.4196 -0.3491
  364MOL0     C49010   9.714   6.647   1.441 -0.5072  0.1885 -0.9520
  364MOL0     C49011   9.834   6.684   1.504 -0.4866  0.3603 -0.3582
  364MOL0     C49012   9.944   6.594   1.500  0.1898  0.1512  0.6675
  364MOL0     O49013  10.050   6.613   1.584  0.2294 -0.1626 -0.0694
  364MOL0     C49014  10.125   6.499   1.638  0.1156 -0.0124 -0.1361
  364MOL0     C49015  10.192   6.520   1.776  0.6139  0.0379  0.1619
  364MOL0     C49016  10.304   6.621   1.756  0.0269 -0.3179 -0.2149
  364MOL0     C49017  10.373   6.638   1.893 -0.0470  0.6885  0.7525
  364MOL0     C49018  10.477   6.751   1.894 -0.1790 -0.6161 -0.3506
  364MOL0     C49019  10.591   6.723   1.792  1.3019 -0.1778 -0.2780
  364MOL0     C49020  10.702   6.837   1.807  0.4070 -0.3483 -0.5547
  364MOL0     C49021  10.656   6.972   1.747 -0.3800 -0.6804  0.2933
  364MOL0     N49022  10.768   7.061   1.758  0.0055 -0.2406 -0.0071
  364MOL0     C49023  10.855   7.089   1.655 -0.6310  0.4100  0.3505
  364MOL0     C49024  10.918   7.203   1.696 -0.7676  0.2851  0.9432
  364MOL0     C49025  11.024   7.293   1.627 -0.4619  0.5490 -0.3959
  364MOL0     C49026  10.967   7.430   1.616 -0.5783 -0.6766 -0.1768
  364MOL0     C49027  11.045   7.531   1.525  0.3985  0.1190  0.6789
  364MOL0     C49028  11.191   7.519   1.554  0.6866 -0.0866  0.7401
  364MOL0     O49029  11.221   7.518   1.689 -0.7031 -0.5251  0.2632
  364MOL0     C49030  11.352   7.495   1.716  0.3431  0.0431  0.7207
  364MOL0     C49031  11.394   7.381   1.782 -0.0617  1.0747 -0.1748
  364MOL0     C49032  11.524   7.358   1.830 -0.7648 -0.2928  0.0746
  364MOL0     C49033  11.622   7.459   1.797 -0.0524 -1.2351 -0.5041
  364MOL0     C49034  11.764   7.422   1.817 -0.3528  0.4164  0.6264
  364MOL0     O49035  11.850   7.474   1.720 -0.9344  0.3296 -0.8350
  364MOL0     C49036  11.980   7.501   1.757 -1.3607  0.0779 -0.1286
  364MOL0     C49037  12.075   7.506   1.653  0.6129  1.0072 -0.2425
  364MOL0     C49038  12.212   7.516   1.672  0.2238  0.2571  0.1721
  364MOL0     C49039  12.264   7.535   1.801 -0.6029 -0.6350 -0.1843
  364MOL0     O49040  12.399   7.557   1.825  0.1752 -0.4025  0.2170
  364MOL0     C49041  12.497   7.527   1.723  0.4529  0.6357  0.6396
  364MOL0     C49042  12.647   7.554   1.750  0.2899 -1.2738  0.4581
  364MOL0     C49043  12.699   7.700   1.728  0.0549  0.0794 -0.3250
  364MOL0     C49044  12.749   7.773   1.852  0.1527 -0.2999  0.2954
  364MOL0     C49045  12.651   7.760   1.980  0.0851 -0.2720 -0.4137
  364MOL0     C49046  12.590   7.896   2.010 -0.5371  1.1812 -0.2658
  364MOL0     C49047  12.507   7.885   2.135  0.6550 -0.0894 -1.0231
  364MOL0     C49048  12.386   7.978   2.134 -0.6367  0.0689  0.1980
  364MOL0    Cl49049  12.394   8.133   2.045  0.4280 -0.3218 -0.4665
  364MOL0     C49050  12.170   7.536   1.909 -1.2066  0.6424 -0.0945
  364MOL0     C49051  12.036   7.524   1.886  0.4002  0.0501  0.9182
  364MOL0     O49052  11.807   7.359   1.916  0.8189  0.5024  0.2042
  364MOL0     C49053  11.587   7.575   1.726 -0.2755  0.1993 -0.7146
  364MOL0     C49054  11.455   7.591   1.684  0.8291  0.0456 -0.2138
  364MOL0     N49055  10.889   7.238   1.824 -0.3374 -0.8443 -0.4542
  364MOL0     N49056  10.798   7.152   1.859 -0.1453  0.1529  0.3665
  364MOL0     C49057   9.936   6.476   1.415 -0.2214 -0.1925 -0.4202
  364MOL0     C49058   9.818   6.451   1.350  0.2020 -0.0045  0.3056
  364MOL0     C49059   9.404   6.562   1.164  0.1097  0.7681  0.7464
  364MOL0     C49060   9.322   6.493   1.255  0.6995 -0.4461 -0.0648
  364MOL0     C49061   9.184   6.499   1.227  0.2698  0.0200 -0.4571
  364MOL0     C49062   9.133   6.570   1.121 -0.1037  0.1999  0.0063
  364MOL0     O49063   8.997   6.553   1.100  0.3285 -0.4702 -0.1849
  364MOL0     C49064   8.938   6.574   0.972 -0.0619 -1.0713 -0.4918
  364MOL0     C49065   8.789   6.544   0.984 -0.4826 -0.2086  0.5628
  364MOL0     C49066   8.692   6.596   0.877  0.4782  1.0277  0.3934
  364MOL0     C49067   8.706   6.743   0.838 -0.1861 -0.3429  0.8112
  364MOL0     C49068   8.679   6.830   0.956 -0.4639  0.0778  0.3209
  364MOL0     C49069   8.652   6.905   1.043  0.6096  0.3679 -0.0122
  364MOL0     C49070   9.215   6.646   1.042  0.6673 -0.0197 -0.4061
  364MOL0     C49071   9.348   6.657   1.069 -0.0116 -0.1996 -0.7449
  364MOL0     C49072   9.431   6.745   0.991  0.1038 -0.6475 -0.3491
  364MOL0     H49073   9.639   6.722   1.464 -1.3681 -1.0444  0.4362
  364MOL0     H49074   9.842   6.767   1.575  0.7799 -0.6622  0.7384
  364MOL0     H49075  10.056   6.416   1.656  0.0367 -0.2164 -1.3528
  364MOL0     H49076  10.193   6.472   1.557  0.5760  1.3382 -0.2124
  364MOL0     H49077  10.211   6.420   1.814  1.1397 -0.2347 -0.7808
  364MOL0     H49078  10.108   6.563   1.832  1.5893  0.2696  1.4820
  364MOL0     H49079  10.265   6.718   1.725  0.0591  0.6510  2.4741
  364MOL0     H49080  10.372   6.578   1.681 -0.9345  0.8350 -1.7999
  364MOL0     H49081  10.297   6.641   1.971  0.5337 -2.1219  1.5595
  364MOL0     H49082  10.420   6.541   1.914 -0.3926  0.3757  0.1261
  364MOL0     H49083  10.439   6.851   1.873 -1.7657 -1.0164  0.4194
  364MOL0     H49084  10.519   6.758   1.995 -0.1632 -2.4146 -0.1911
  364MOL0     H49085  10.637   6.628   1.819 -1.6991 -1.4281  0.7770
  364MOL0     H49086  10.561   6.712   1.688 -0.7309 -1.0042  0.3603
  364MOL0     H49087  10.789   6.804   1.750  0.5672 -0.6362 -0.1452
  364MOL0     H49088  10.725   6.848   1.913  3.6769  1.5427 -1.3384
  364MOL0     H49089  10.627   6.951   1.644 -0.3213  0.0868  0.1139
  364MOL0     H49090  10.581   7.027   1.806  0.8470  0.3024  0.9978
  364MOL0     H49091  10.868   7.037   1.561  3.7555 -0.8117  1.4137
  364MOL0     H49092  11.112   7.283   1.691 -1.7608  0.6846  1.5109
  364MOL0     H49093  11.044   7.253   1.527 -2.4299 -3.7048  0.6994
  364MOL0     H49094  10.865   7.438   1.577 -0.3147 -0.6440 -0.8642
  364MOL0     H49095  10.947   7.471   1.716 -2.1323 -0.1919 -0.6586
  364MOL0     H49096  11.022   7.635   1.550  1.7462  1.3903 -2.7865
  364MOL0     H49097  11.024   7.518   1.419 -2.4613 -1.5859  1.3531
  364MOL0     H49098  11.245   7.599   1.504  2.9169 -0.8608  1.7598
  364MOL0     H49099  11.228   7.427   1.506  0.5450  1.4981 -2.7050
  364MOL0     H49100  11.306   7.324   1.810  1.6752 -0.7732  1.8010
  364MOL0     H49101  11.551   7.264   1.876  1.6858  0.7605  0.9240
  364MOL0     H49102  12.035   7.491   1.553 -3.8866 -0.4149  1.5175
  364MOL0     H49103  12.280   7.510   1.587  0.1031 -1.0751  0.1531
  364MOL0     H49104  12.493   7.418   1.713  1.8821  0.6566 -0.4143
  364MOL0     H49105  12.469   7.577   1.629  0.0042 -2.4975 -1.0399
  364MOL0     H49106  12.682   7.521   1.849 -1.5046 -0.2416  1.4924
  364MOL0     H49107  12.689   7.494   1.669 -0.7254 -1.0546 -0.2468
  364MOL0     H49108  12.779   7.680   1.656 -2.4900 -5.1454 -2.1902
  364MOL0     H49109  12.620   7.766   1.690 -4.5577 -4.3721  0.5062
  364MOL0     H49110  12.775   7.876   1.828  1.2085 -0.5951  0.1462
  364MOL0     H49111  12.844   7.726   1.880  1.5483  0.8710 -2.1979
  364MOL0     H49112  12.701   7.709   2.063  2.1235 -2.7076 -2.9153
  364MOL0     H49113  12.565   7.700   1.949 -0.6670  0.5917 -0.0098
  364MOL0     H49114  12.671   7.966   2.030  0.1149  0.2053  0.5941
  364MOL0     H49115  12.528   7.931   1.926 -2.9951  0.0494  0.9545
  364MOL0     H49116  12.553   7.907   2.232 -1.0583  2.4934 -0.6709
  364MOL0     H49117  12.465   7.785   2.139  1.5719 -0.4414  1.0299
  364MOL0     H49118  12.303   7.912   2.107  0.1587 -1.6413  1.6885
  364MOL0     H49119  12.369   8.006   2.238 -2.2358  0.5491 -0.1762
  364MOL0     H49120  12.215   7.545   2.008 -1.1277 -1.3585  0.0905
  364MOL0     H49121  11.974   7.529   1.975  0.3173 -1.1052  0.9424
  364MOL0     H49122  11.657   7.643   1.678  1.6488  1.8584  3.8638
  364MOL0     H49123  11.418   7.674   1.625 -1.5855  0.7505  2.1048
  364MOL0     H49124  10.004   6.392   1.419  0.4538  0.4088  1.6181
  364MOL0     H49125   9.802   6.369   1.282 -1.6203  1.4462 -1.1076
  364MOL0     H49126   9.364   6.453   1.347 -0.8806  0.0461  0.9244
  364MOL0     H49127   9.120   6.429   1.280  0.5810 -0.2145 -0.3880
  364MOL0     H49128   8.982   6.511   0.895  2.0681  0.7009 -0.8264
  364MOL0     H49129   8.946   6.680   0.947  1.9202 -0.4611  2.2569
  364MOL0     H49130   8.762   6.603   1.072  2.5159  0.8586  0.9077
  364MOL0     H49131   8.775   6.436   0.995 -3.5855 -0.2054 -1.9066
  364MOL0     H49132   8.589   6.576   0.908 -0.0096  1.1437 -1.0586
  364MOL0     H49133   8.697   6.531   0.789 -1.7656  0.9684  0.2466
  364MOL0     H49134   8.801   6.765   0.789 -1.5210  1.6478 -1.0277
  364MOL0     H49135   8.629   6.768   0.765 -1.2076  1.3205  2.3683
  364MOL0     H49136   8.614   6.977   1.112  0.6614 -1.2963  1.8561
  364MOL0     H49137   9.167   6.714   0.972 -1.6923 -0.5324  0.6279
  364MOL0     H49138   9.515   6.695   0.942  0.2112  1.4025 -2.4557
  364MOL0     H49139   9.380   6.794   0.907  3.4234  0.1464 -2.0782
  364MOL0     H49140   9.474   6.822   1.056 -1.4345 -0.3898  0.4040
  365MOL0     O49141   5.180   8.133   0.130 -0.9926  0.1241 -0.5047
  365MOL0     C49142   5.186   8.014   0.089 -0.3028 -0.1077 -0.1224
  365MOL0     O49143   5.298   7.955   0.048 -1.2535 -0.3434 -0.0698
  365MOL0     C49144   5.399   8.035  -0.010  0.0766  0.5974  0.8130
  365MOL0     C49145   5.531   7.983  -0.005 -0.7369 -0.0494 -0.1983
  365MOL0     C49146   5.628   8.062  -0.065  0.3938  0.2876  0.5200
  365MOL0     C49147   5.599   8.187  -0.119 -0.1133 -0.5794  1.1027
  365MOL0     O49148   5.705   8.259  -0.187  0.2576  0.0570 -0.8216
  365MOL0     C49149   5.698   8.398  -0.157 -0.4910  0.1214  0.5299
  365MOL0     C49150   5.809   8.473  -0.228  0.0069  0.2302  0.1001
  365MOL0     C49151   5.816   8.466  -0.384 -0.3268  0.3048 -0.2811
  365MOL0     C49152   5.870   8.591  -0.454 -0.2905 -0.0090  0.0199
  365MOL0     C49153   5.903   8.569  -0.601 -0.7545  0.4521  0.0526
  365MOL0     C49154   6.048   8.514  -0.610 -0.1680  0.0692  0.0296
  365MOL0     C49155   6.102   8.520  -0.753  0.6799  0.8818  0.3411
  365MOL0     C49156   6.248   8.478  -0.760 -0.7636 -0.3224  0.2435
  365MOL0     N49157   6.287   8.493  -0.899  0.1584  0.9213 -0.3289
  365MOL0     C49158   6.365   8.591  -0.948 -0.2359  0.8828  0.3774
  365MOL0     C49159   6.381   8.558  -1.078 -0.2297 -0.5138  0.9822
  365MOL0     C49160   6.469   8.627  -1.169  0.2422 -0.5788 -0.2360
  365MOL0     C49161   6.616   8.639  -1.139 -0.1247 -0.5726 -0.0122
  365MOL0     C49162   6.679   8.511  -1.076 -0.4286  0.8272  0.0243
  365MOL0     C49163   6.833   8.521  -1.065 -0.7853 -0.3760 -0.4382
  365MOL0     O49164   6.875   8.602  -0.958  0.9363  0.2545 -0.8083
  365MOL0     C49165   7.006   8.648  -0.949 -0.1264  0.1551 -0.3018
  365MOL0     C49166   7.038   8.749  -0.861  0.8636  0.2631  0.8840
  365MOL0     C49167   7.168   8.779  -0.817 -0.8976 -0.9973  0.2399
  365MOL0     C49168   7.278   8.720  -0.888 -0.2644  0.0405 -0.0653
  365MOL0     C49169   7.419   8.733  -0.845 -0.1833  0.9743  0.0678
  365MOL0     O49170   7.511   8.647  -0.917  0.0145  0.7744 -0.0489
  365MOL0     C49171   7.643   8.628  -0.881  0.4000 -0.2072  0.8302
  365MOL0     C49172   7.708   8.518  -0.930  0.2996  0.9854 -1.0844
  365MOL0     C49173   7.837   8.482  -0.908 -0.6656 -0.1800  0.5569
  365MOL0     C49174   7.914   8.565  -0.830 -0.7986 -0.4939  0.9742
  365MOL0     O49175   8.042   8.515  -0.811 -0.7093 -0.3007  0.6026
  365MOL0     C49176   8.132   8.598  -0.740  0.0393 -0.2206  0.6084
  365MOL0     C49177   8.269   8.535  -0.745  0.0758  0.5339  1.3214
  365MOL0     C49178   8.266   8.387  -0.689  0.1328  0.0964  0.3193
  365MOL0     C49179   8.409   8.337  -0.696 -0.3635  0.3981  0.2005
  365MOL0     C49180   8.413   8.190  -0.647  0.6448  0.2499 -0.6715
  365MOL0     C49181   8.363   8.095  -0.757 -0.9996  0.9091 -0.5085
  365MOL0     C49182   8.317   7.967  -0.693 -0.1010  0.8234  0.3417
  365MOL0     C49183   8.281   7.863  -0.796 -0.0119 -0.2084  0.6958
  365MOL0    Cl49184   8.126   7.911  -0.880  0.1015  0.0125  0.0846
  365MOL0     C49185   7.860   8.691  -0.790 -0.2243 -0.5068  0.1541
  365MOL0     C49186   7.729   8.727  -0.826 -0.3003  0.3879 -0.1342
  365MOL0     O49187   7.448   8.824  -0.772  0.4418 -0.2288  0.0690
  365MOL0     C49188   7.244   8.632  -1.003 -0.2245 -1.1285  0.0366
  365MOL0     C49189   7.111   8.597  -1.022  0.1670 -0.3812 -0.1794
  365MOL0     N49190   6.295   8.455  -1.115  1.0872  0.6265 -0.5672
  365MOL0     N49191   6.234   8.421  -1.001 -0.7056  0.6207  0.5925
  365MOL0     C49192   5.476   8.235  -0.129  0.1559 -0.4089 -0.9214
  365MOL0     C49193   5.372   8.164  -0.074  0.5263 -0.0419  0.2521
  365MOL0     C49194   5.047   7.948   0.091  0.1298 -0.4458  0.4259
  365MOL0     C49195   5.030   7.815   0.120 -0.1092 -0.1116  0.4278
  365MOL0     C49196   4.906   7.759   0.132  0.5422 -0.0399 -1.4076
  365MOL0     C49197   4.795   7.836   0.106  0.1946  0.8279  0.0273
  365MOL0     O49198   4.662   7.770   0.117 -0.1574  0.2594  1.0051
  365MOL0     C49199   4.551   7.841   0.187  0.4556  0.0111 -0.0626
  365MOL0     C49200   4.448   7.740   0.228  0.2649  0.0934 -0.1725
  365MOL0     C49201   4.353   7.706   0.111 -0.4773 -0.1167  0.4626
  365MOL0     C49202   4.234   7.616   0.169  0.2692  0.1080  1.4135
  365MOL0     C49203   4.270   7.493   0.242 -0.7339  0.3373  0.9083
  365MOL0     C49204   4.313   7.404   0.311  0.3270 -0.5220  0.8077
  365MOL0     C49205   4.813   7.970   0.068  0.2928  1.0022 -0.0313
  365MOL0     C49206   4.934   8.029   0.056  0.3040  0.0465  0.2796
  365MOL0     C49207   4.937   8.177   0.020  0.8459  0.3177  0.5139
  365MOL0     H49208   5.559   7.885   0.033 -1.9210  0.4729  2.2343
  365MOL0     H49209   5.724   8.014  -0.083  0.1485 -1.2964  3.0021
  365MOL0     H49210   5.600   8.434  -0.189 -0.3909  0.1001  0.1914
  365MOL0     H49211   5.707   8.416  -0.049 -0.7833  0.1939  0.5437
  365MOL0     H49212   5.902   8.428  -0.192  0.4393 -0.1916 -1.4404
  365MOL0     H49213   5.800   8.575  -0.192 -2.6998 -0.7456  2.5778
  365MOL0     H49214   5.715   8.457  -0.425 -0.2713  1.9398 -0.8566
  365MOL0     H49215   5.884   8.384  -0.410  0.1521  0.3275  0.8648
  365MOL0     H49216   5.807   8.680  -0.451 -1.5748 -0.9207  1.3383
  365MOL0     H49217   5.961   8.622  -0.402  0.1398  1.8130 -1.7155
  365MOL0     H49218   5.834   8.498  -0.647 -1.3237  1.6898 -1.0837
  365MOL0     H49219   5.901   8.668  -0.648  1.8294  0.9486  0.8081
  365MOL0     H49220   6.125   8.555  -0.543  0.5344  0.6850 -1.1111
  365MOL0     H49221   6.050   8.409  -0.578 -4.1210  0.4900  2.3089
  365MOL0     H49222   6.096   8.615  -0.807  0.1194 -0.4141 -2.0325
  365MOL0     H49223   6.040   8.457  -0.819 -0.1209  0.5227  1.4121
  365MOL0     H49224   6.313   8.545  -0.704  0.6570 -0.5670 -1.0290
  365MOL0     H49225   6.260   8.377  -0.720  0.2889 -0.2201  0.2052
  365MOL0     H49226   6.414   8.670  -0.892  0.2482  1.4501 -0.8041
  365MOL0     H49227   6.464   8.579  -1.267  1.1713 -1.1190 -0.0348
  365MOL0     H49228   6.424   8.726  -1.180 -1.9168 -1.6231 -1.4723
  365MOL0     H49229   6.676   8.665  -1.227 -1.3831 -1.3455 -1.1348
  365MOL0     H49230   6.626   8.722  -1.068 -0.2390 -0.2247 -0.4013
  365MOL0     H49231   6.640   8.423  -1.127 -0.4125 -0.8063  2.6272
  365MOL0     H49232   6.640   8.496  -0.975  1.2998  3.4161  1.1868
  365MOL0     H49233   6.874   8.570  -1.154  0.3611 -2.6288 -1.2424
  365MOL0     H49234   6.867   8.418  -1.045 -0.6187  0.4004  4.6550
  365MOL0     H49235   6.947   8.786  -0.814 -1.7176 -0.8931 -2.7138
  365MOL0     H49236   7.183   8.846  -0.733 -0.4891 -2.1618  1.1096
  365MOL0     H49237   7.657   8.438  -0.983  3.4100 -2.0265  0.0599
  365MOL0     H49238   7.883   8.391  -0.946 -0.8764 -0.0599  0.0015
  365MOL0     H49239   8.145   8.696  -0.786  0.3628  1.9978  4.9044
  365MOL0     H49240   8.110   8.618  -0.635  2.1712  3.3412  0.5611
  365MOL0     H49241   8.306   8.545  -0.848 -0.9963  4.7254  1.1605
  365MOL0     H49242   8.344   8.589  -0.686 -1.8859  0.4676  4.0838
  365MOL0     H49243   8.253   8.397  -0.581  2.8989  3.1521  0.5320
  365MOL0     H49244   8.188   8.325  -0.734 -0.4154  1.0774 -0.1170
  365MOL0     H49245   8.473   8.394  -0.628 -0.5250  0.8142  0.0105
  365MOL0     H49246   8.453   8.347  -0.796  1.3775 -0.4550  0.8235
  365MOL0     H49247   8.356   8.186  -0.553  0.9830  1.3222 -0.4019
  365MOL0     H49248   8.513   8.150  -0.631  0.5080 -0.2468 -1.0633
  365MOL0     H49249   8.281   8.144  -0.811  1.5243  2.7783 -2.8928
  365MOL0     H49250   8.438   8.077  -0.834 -3.5967  1.0678 -3.2405
  365MOL0     H49251   8.230   7.983  -0.629  0.2896 -2.3013  1.8706
  365MOL0     H49252   8.391   7.911  -0.635 -0.8662 -1.3683 -0.6672
  365MOL0     H49253   8.360   7.853  -0.871 -2.0982  0.0087 -1.6739
  365MOL0     H49254   8.255   7.769  -0.746 -5.9384 -0.5739 -2.1578
  365MOL0     H49255   7.930   8.752  -0.733  2.3679 -1.8184 -1.4309
  365MOL0     H49256   7.681   8.818  -0.793 -1.7317 -0.4629  0.2191
  365MOL0     H49257   7.322   8.570  -1.047  1.6584  1.8113 -1.1148
  365MOL0     H49258   7.093   8.523  -1.099  1.3503  1.2504 -2.1141
  365MOL0     H49259   5.449   8.331  -0.172 -2.1215  0.4012  1.9999
  365MOL0     H49260   5.274   8.206  -0.096  1.5298  1.5776 -1.4324
  365MOL0     H49261   5.111   7.745   0.136  0.6796  1.0318  1.5924
  365MOL0     H49262   4.903   7.653   0.156  3.0580  0.1903  0.2514
  365MOL0     H49263   4.512   7.922   0.124  1.2437  1.2530  0.9906
  365MOL0     H49264   4.591   7.887   0.278  1.4971  1.9229 -1.4181
  365MOL0     H49265   4.395   7.793   0.308  1.9484 -0.2669  1.2440
  365MOL0     H49266   4.495   7.654   0.277 -1.6349  1.2098  4.0216
  365MOL0     H49267   4.407   7.640   0.042 -1.2721  1.3912 -1.7572
  365MOL0     H49268   4.326   7.797   0.056 -0.6636 -0.5473 -0.1785
  365MOL0     H49269   4.186   7.675   0.247  2.3519  0.6955  2.3276
  365MOL0     H49270   4.163   7.591   0.090  0.2611  0.9625  1.1371
  365MOL0     H49271   4.349   7.324   0.372 -1.3791 -1.5399  0.5285
  365MOL0     H49272   4.727   8.034   0.050  0.0153  0.0385 -2.4538
  365MOL0     H49273   4.849   8.210  -0.035 -0.0575  1.4162  2.5192
  365MOL0     H49274   4.973   8.242   0.100  1.0592  1.2051 -0.2780
  365MOL0     H49275   5.016   8.177  -0.056  0.2137 -5.5023 -0.6894
  366MOL0     O49276  10.048   1.320   8.400 -0.7168  1.0038  0.0075
  366MOL0     C49277  10.052   1.431   8.453 -0.2339 -0.5660 -0.3513
  366MOL0     O49278  10.016   1.552   8.397  0.0759 -0.1339  0.2106
  366MOL0     C49279   9.970   1.542   8.267 -0.4982 -0.4128  0.1850
  366MOL0     C49280   9.879   1.442   8.224  0.0561 -0.5825  0.3509
  366MOL0     C49281   9.818   1.450   8.097 -0.7142 -0.3749  0.7356
  366MOL0     C49282   9.842   1.565   8.020  0.3583  0.2101  0.5223
  366MOL0     O49283   9.791   1.559   7.901  0.3017  0.4014  0.3104
  366MOL0     C49284   9.854   1.636   7.804 -0.5821  0.5357 -0.2630
  366MOL0     C49285   9.774   1.610   7.674  0.5566 -0.4937  0.7294
  366MOL0     C49286   9.630   1.654   7.689 -0.7678 -0.7673 -0.4618
  366MOL0     C49287   9.539   1.601   7.572 -0.0825 -0.2052 -0.3583
  366MOL0     C49288   9.398   1.649   7.593  0.4360 -0.5977 -0.4462
  366MOL0     C49289   9.301   1.625   7.487  0.6434  0.4207  0.1078
  366MOL0     C49290   9.164   1.684   7.502  0.1342  0.5457  0.0752
  366MOL0     C49291   9.089   1.616   7.623  0.0934  0.1403  0.4880
  366MOL0     N49292   8.991   1.511   7.592 -0.0159 -0.4206 -0.2039
  366MOL0     C49293   8.883   1.519   7.510  1.0381  0.8711 -0.5861
  366MOL0     C49294   8.816   1.406   7.535  1.3102 -0.0285 -0.7902
  366MOL0     C49295   8.676   1.358   7.473 -0.6185 -0.0991  0.1931
  366MOL0     C49296   8.551   1.432   7.535  0.9176  0.2499  0.4900
  366MOL0     C49297   8.545   1.589   7.510 -0.6120  0.3528  1.1580
  366MOL0     C49298   8.538   1.624   7.359 -0.0218  0.6895  0.2474
  366MOL0     O49299   8.411   1.601   7.302 -0.3317 -0.1210  0.3075
  366MOL0     C49300   8.297   1.678   7.334  0.6604 -0.3751  0.2466
  366MOL0     C49301   8.305   1.789   7.421 -0.2211 -0.5196  0.9929
  366MOL0     C49302   8.191   1.857   7.453  1.2047  0.3097 -0.4649
  366MOL0     C49303   8.062   1.815   7.397  1.2042 -0.0010  0.1935
  366MOL0     C49304   7.941   1.903   7.420 -0.9742 -0.7182  0.0812
  366MOL0     O49305   7.823   1.859   7.379  0.1389  0.8211  0.0865
  366MOL0     C49306   7.724   1.952   7.378 -0.6463 -0.3785  0.0300
  366MOL0     C49307   7.657   1.988   7.497 -0.1605  0.0624 -0.3327
  366MOL0     C49308   7.547   2.080   7.499 -0.0499  0.8661 -0.0348
  366MOL0     C49309   7.511   2.136   7.385  0.1207  0.1946  0.6580
  366MOL0     O49310   7.414   2.235   7.394 -0.5612  0.4643 -0.0724
  366MOL0     C49311   7.385   2.321   7.283  0.6043 -1.1093 -0.6271
  366MOL0     C49312   7.267   2.416   7.335  1.1750 -0.0970  0.6466
  366MOL0     C49313   7.179   2.450   7.212  0.1671  0.2278  0.7774
  366MOL0     C49314   7.245   2.554   7.114  1.2490  0.2227  0.3152
  366MOL0     C49315   7.147   2.615   7.022 -0.1578  0.0588  0.2799
  366MOL0     C49316   7.233   2.701   6.930 -0.1563  0.1577  0.4982
  366MOL0     C49317   7.150   2.743   6.812 -0.1634 -1.1194  0.5985
  366MOL0     C49318   7.132   2.622   6.720  0.2535  0.6754 -0.1224
  366MOL0    Cl49319   7.290   2.562   6.665 -0.2334  0.4816  0.1307
  366MOL0     C49320   7.576   2.097   7.264 -0.2697 -0.3293  0.5364
  366MOL0     C49321   7.677   2.003   7.261  0.4982 -0.8036  0.5305
  366MOL0     O49322   7.956   2.013   7.474  0.1107 -0.0949  0.6443
  366MOL0     C49323   8.059   1.703   7.308  0.0149 -0.0674  0.3735
  366MOL0     C49324   8.171   1.634   7.277 -0.4728 -0.6988  0.9264
  366MOL0     N49325   8.887   1.321   7.617  0.6431  0.8157 -0.0360
  366MOL0     N49326   8.989   1.387   7.643 -0.3235 -0.4447 -0.1046
  366MOL0     C49327   9.924   1.668   8.064  0.4799 -0.5582 -0.4541
  366MOL0     C49328   9.993   1.656   8.191  0.2682 -0.3739  0.3172
  366MOL0     C49329  10.064   1.447   8.592 -0.3124 -0.4931  0.1741
  366MOL0     C49330  10.196   1.452   8.646 -0.0274 -0.3820  0.8686
  366MOL0     C49331  10.222   1.451   8.782  0.0773 -0.0212  0.1959
  366MOL0     C49332  10.106   1.439   8.871  0.0250 -0.6837  0.0808
  366MOL0     O49333  10.135   1.429   9.008  0.0778  0.2047 -0.4069
  366MOL0     C49334  10.072   1.320   9.070 -0.9123 -0.2327  0.2602
  366MOL0     C49335  10.063   1.348   9.224  0.5155  0.9626  0.1503
  366MOL0     C49336  10.197   1.312   9.297  0.8088 -1.8070 -0.0413
  366MOL0     C49337  10.234   1.420   9.407 -0.8917 -0.0629 -0.0917
  366MOL0     C49338  10.147   1.404   9.520 -0.8824 -0.0673  0.2211
  366MOL0     C49339  10.080   1.400   9.620 -0.8426 -0.2758 -0.7793
  366MOL0     C49340   9.972   1.457   8.815 -0.6634  0.1552 -0.6692
  366MOL0     C49341   9.952   1.452   8.678 -1.0679  0.6192  0.3557
  366MOL0     C49342   9.808   1.434   8.639  0.5601  0.6666 -0.6697
  366MOL0     H49343   9.849   1.356   8.282  2.7010 -2.5335 -0.9597
  366MOL0     H49344   9.753   1.372   8.060 -4.0044  2.0709  0.8602
  366MOL0     H49345   9.854   1.744   7.825 -0.8406  0.0957  2.2240
  366MOL0     H49346   9.960   1.610   7.794 -0.2427  1.1336  1.3923
  366MOL0     H49347   9.764   1.502   7.660 -0.8495 -0.2914  0.0108
  366MOL0     H49348   9.818   1.645   7.580 -0.4684 -1.8641 -0.2907
  366MOL0     H49349   9.625   1.763   7.695  2.0718 -0.5584 -0.3569
  366MOL0     H49350   9.590   1.614   7.783  1.3429  2.3513  1.9720
  366MOL0     H49351   9.578   1.630   7.474  0.8007 -2.6842 -0.8256
  366MOL0     H49352   9.538   1.492   7.563 -0.5571 -0.0020 -4.3267
  366MOL0     H49353   9.367   1.603   7.687  0.6057  1.4287  0.6471
  366MOL0     H49354   9.393   1.756   7.613  0.9953 -0.6424 -0.0308
  366MOL0     H49355   9.348   1.668   7.398 -0.1708  3.2062  0.9280
  366MOL0     H49356   9.290   1.518   7.465  3.4492  0.1349 -0.3039
  366MOL0     H49357   9.114   1.675   7.405  0.8152 -1.1865 -0.1597
  366MOL0     H49358   9.181   1.787   7.533 -2.6376  0.5204  2.0353
  366MOL0     H49359   9.152   1.596   7.710 -1.1150  1.3033  1.6742
  366MOL0     H49360   9.017   1.694   7.651 -1.2934 -1.3158  1.1194
  366MOL0     H49361   8.874   1.590   7.429  1.3783 -0.4738 -1.8591
  366MOL0     H49362   8.692   1.380   7.367 -0.2534 -3.5169 -0.5735
  366MOL0     H49363   8.666   1.250   7.482 -0.8285 -0.1953 -1.0064
  366MOL0     H49364   8.469   1.388   7.477  1.5647  0.3960 -0.5457
  366MOL0     H49365   8.543   1.411   7.642 -0.8802 -1.9161  0.0165
  366MOL0     H49366   8.635   1.636   7.551 -1.0751  1.9364  0.4303
  366MOL0     H49367   8.459   1.632   7.561 -1.3530 -0.9626  1.0719
  366MOL0     H49368   8.606   1.569   7.294  0.5976  0.7920  0.8006
  366MOL0     H49369   8.551   1.732   7.357 -2.7920  1.1441  1.4090
  366MOL0     H49370   8.399   1.842   7.435  0.7230 -1.2103 -1.9301
  366MOL0     H49371   8.186   1.943   7.519 -3.2949  2.3387 -3.0451
  366MOL0     H49372   7.693   1.946   7.591  0.6941 -0.2753 -0.8024
  366MOL0     H49373   7.507   2.108   7.596 -2.1340  0.7052 -0.7951
  366MOL0     H49374   7.473   2.382   7.262  0.5912 -1.7519 -2.8320
  366MOL0     H49375   7.355   2.268   7.192  0.0124 -0.2108 -0.9674
  366MOL0     H49376   7.206   2.356   7.403 -1.5466  2.2758  0.4500
  366MOL0     H49377   7.292   2.503   7.395 -0.3606  1.2792 -0.6257
  366MOL0     H49378   7.144   2.367   7.150  3.3513 -0.9802  0.4208
  366MOL0     H49379   7.080   2.488   7.240 -0.0429  0.3493 -0.0904
  366MOL0     H49380   7.321   2.502   7.055  1.6568 -0.2977  1.2669
  366MOL0     H49381   7.296   2.631   7.172 -0.3249  0.8744  0.8745
  366MOL0     H49382   7.079   2.684   7.072 -0.6522  0.1649 -0.5287
  366MOL0     H49383   7.100   2.530   6.972 -1.0735 -0.3688  1.7998
  366MOL0     H49384   7.260   2.787   6.992  1.1054 -0.8285  1.3653
  366MOL0     H49385   7.328   2.650   6.913  0.5291 -0.6553  5.4385
  366MOL0     H49386   7.195   2.818   6.745 -2.6886 -0.8407 -0.9390
  366MOL0     H49387   7.054   2.780   6.849  0.5569 -0.2756  1.6967
  366MOL0     H49388   7.072   2.544   6.769  0.1264  1.8101  1.6349
  366MOL0     H49389   7.077   2.647   6.629 -1.4151  0.1048  0.6842
  366MOL0     H49390   7.538   2.151   7.178 -1.5630 -0.6049  0.9130
  366MOL0     H49391   7.718   1.975   7.165  1.2431  0.1334  0.5642
  366MOL0     H49392   7.960   1.669   7.279 -0.4112 -0.0783  1.7619
  366MOL0     H49393   8.165   1.561   7.197  0.4083  0.8167 -0.6083
  366MOL0     H49394   9.947   1.759   8.009 -0.3883  1.7509  2.7587
  366MOL0     H49395  10.061   1.732   8.227 -1.9326  2.3664 -0.8745
  366MOL0     H49396  10.281   1.468   8.581 -1.4633  3.2880 -0.3583
  366MOL0     H49397  10.323   1.447   8.823 -0.4394  0.8796  1.6341
  366MOL0     H49398  10.129   1.229   9.054  0.2992  0.8593 -2.1046
  366MOL0     H49399   9.974   1.297   9.026 -1.2141 -0.5835  1.1077
  366MOL0     H49400   9.979   1.288   9.262  0.7972  0.4399 -0.0448
  366MOL0     H49401  10.037   1.453   9.237 -1.4007  0.3286  1.9023
  366MOL0     H49402  10.288   1.302   9.236  0.5149 -1.7516 -0.4935
  366MOL0     H49403  10.198   1.222   9.360  1.3511 -1.5124  0.3857
  366MOL0     H49404  10.334   1.394   9.442 -0.4283 -2.7455 -2.9866
  366MOL0     H49405  10.221   1.524   9.377  2.0709  0.4624  0.1205
  366MOL0     H49406  10.035   1.399   9.717  2.0060  1.4675  0.7096
  366MOL0     H49407   9.884   1.464   8.879 -1.0873 -0.1966 -1.1965
  366MOL0     H49408   9.802   1.403   8.534 -0.3057  0.4732 -0.5750
  366MOL0     H49409   9.765   1.356   8.703 -2.6879  0.2559 -3.0739
  366MOL0     H49410   9.749   1.523   8.663 -0.7903 -0.5151  0.6356
  367MOL0     O49411  10.563   7.542   6.581 -0.5095  0.7746 -0.0012
  367MOL0     C49412  10.602   7.603   6.489  0.3560  0.7981  0.4640
  367MOL0     O49413  10.682   7.707   6.490 -0.1639  0.1193 -0.1753
  367MOL0     C49414  10.752   7.743   6.605  0.0111  0.5163 -0.1741
  367MOL0     C49415  10.854   7.827   6.574  0.3085  0.1166  0.4692
  367MOL0     C49416  10.949   7.873   6.672 -0.7834  0.7938 -0.3742
  367MOL0     C49417  10.936   7.837   6.808  0.1992 -0.1545  0.0628
  367MOL0     O49418  11.018   7.869   6.918  0.2607  0.3324 -0.1740
  367MOL0     C49419  11.114   7.975   6.933 -0.0850  0.4475  0.4745
  367MOL0     C49420  11.194   7.972   7.074  0.5372 -0.1242  0.1473
  367MOL0     C49421  11.313   8.072   7.062 -0.7540 -0.3126  0.2162
  367MOL0     C49422  11.430   8.018   7.145 -1.3860 -0.1706  1.0141
  367MOL0     C49423  11.542   8.107   7.119  1.5250 -0.1078 -0.0123
  367MOL0     C49424  11.659   8.085   7.218 -0.0421  0.2129  0.4017
  367MOL0     C49425  11.770   8.177   7.174  0.0287 -0.6980 -0.2386
  367MOL0     C49426  11.902   8.105   7.199 -0.5931 -0.4759 -0.0828
  367MOL0     N49427  11.961   8.087   7.330 -0.0953 -0.1007 -0.4981
  367MOL0     C49428  11.896   8.046   7.442 -0.4416  0.3961 -0.1788
  367MOL0     C49429  11.991   8.021   7.540 -0.6522  0.4244  0.0259
  367MOL0     C49430  11.961   7.924   7.663  0.2103 -0.6524  0.3818
  367MOL0     C49431  11.836   7.957   7.736  0.4284 -0.4398  0.2774
  367MOL0     C49432  11.832   8.102   7.790  0.5947 -0.1830  0.3383
  367MOL0     C49433  11.776   8.212   7.710  0.3525 -0.7739  0.8449
  367MOL0     O49434  11.637   8.196   7.671 -0.3969 -0.7291  0.7314
  367MOL0     C49435  11.574   8.261   7.570 -0.0729  0.2751  0.1741
  367MOL0     C49436  11.436   8.240   7.552  0.1623  0.1162 -0.3337
  367MOL0     C49437  11.368   8.306   7.453  1.3860 -0.8277  1.0668
  367MOL0     C49438  11.437   8.402   7.373 -0.8217 -0.3996 -0.5940
  367MOL0     C49439  11.367   8.489   7.277 -0.0079  0.7339 -0.7995
  367MOL0     O49440  11.435   8.543   7.175 -0.1987  0.1602 -0.0603
  367MOL0     C49441  11.378   8.629   7.084  0.2419  1.2322 -0.7549
  367MOL0     C49442  11.352   8.758   7.121  0.7857 -0.0948 -0.1767
  367MOL0     C49443  11.294   8.846   7.023 -0.0631  0.2922 -0.4258
  367MOL0     C49444  11.290   8.820   6.890 -0.5148  0.5790  0.2414
  367MOL0     O49445  11.231   8.912   6.810  0.1608 -0.2020  0.2282
  367MOL0     C49446  11.126   8.861   6.730  0.4315  0.0028 -0.4031
  367MOL0     C49447  11.008   8.957   6.746  0.7324  0.8620 -0.5226
  367MOL0     C49448  10.891   8.906   6.659 -0.0211 -0.0239 -0.6577
  367MOL0     C49449  10.759   8.972   6.700 -0.5181  0.6516 -0.6674
  367MOL0     C49450  10.635   8.910   6.626  0.3838 -0.0085 -0.5704
  367MOL0     C49451  10.489   8.971   6.676 -0.0195  0.1198  0.0030
  367MOL0     C49452  10.377   8.883   6.616 -0.3312  0.5243 -1.1366
  367MOL0     C49453  10.337   8.912   6.467  0.8226  0.1628  0.5236
  367MOL0    Cl49454  10.265   9.079   6.445 -0.2475 -0.0009  0.3657
  367MOL0     C49455  11.329   8.691   6.852  0.2351  0.3303  0.3652
  367MOL0     C49456  11.357   8.590   6.950 -0.0137 -0.7324  0.0638
  367MOL0     O49457  11.243   8.497   7.294 -0.0458  0.0232 -0.3243
  367MOL0     C49458  11.579   8.423   7.396 -0.1179 -0.0720  0.2413
  367MOL0     C49459  11.644   8.347   7.486 -0.7745 -0.6354 -0.6777
  367MOL0     N49460  12.111   8.062   7.479 -0.3840  0.3498  0.0994
  367MOL0     N49461  12.095   8.088   7.354  0.9112  0.4478  0.1607
  367MOL0     C49462  10.836   7.745   6.836  1.0003  0.4266 -0.7956
  367MOL0     C49463  10.737   7.699   6.740 -0.0813 -0.3528  0.3611
  367MOL0     C49464  10.535   7.556   6.353 -0.5675 -1.0167 -0.7054
  367MOL0     C49465  10.536   7.652   6.250 -0.2720  0.1037 -0.2163
  367MOL0     C49466  10.517   7.618   6.114  0.2799 -0.0643 -0.1092
  367MOL0     C49467  10.475   7.493   6.087  0.3368  0.5338 -0.3778
  367MOL0     O49468  10.423   7.481   5.957 -0.2320 -0.2255 -0.0104
  367MOL0     C49469  10.521   7.422   5.863 -0.0210 -0.5213 -0.2636
  367MOL0     C49470  10.451   7.353   5.752  0.2543 -0.3273  0.5876
  367MOL0     C49471  10.406   7.212   5.785 -0.4139 -0.0305  0.4628
  367MOL0     C49472  10.366   7.134   5.663  0.7207 -0.4189 -0.2829
  367MOL0     C49473  10.482   7.082   5.590  0.0055  0.6891  0.1153
  367MOL0     C49474  10.580   7.044   5.528  0.1419  0.6522 -0.4329
  367MOL0     C49475  10.452   7.401   6.187 -0.6339 -0.6369  0.7680
  367MOL0     C49476  10.496   7.431   6.315 -0.2043 -0.5397 -0.3870
  367MOL0     C49477  10.493   7.317   6.403  0.1831 -0.3054 -0.1515
  367MOL0     H49478  10.874   7.864   6.474  0.0570  2.0448  1.1066
  367MOL0     H49479  11.026   7.946   6.648 -1.2715  0.8481 -1.8401
  367MOL0     H49480  11.192   7.976   6.856  1.6100 -1.7074  2.0333
  367MOL0     H49481  11.060   8.070   6.926 -1.5532 -0.3174  1.0109
  367MOL0     H49482  11.226   7.869   7.095  0.4000 -0.1271  0.3387
  367MOL0     H49483  11.123   8.014   7.146  1.1812 -0.6210  1.1056
  367MOL0     H49484  11.292   8.173   7.098  1.4259  0.1544  0.2943
  367MOL0     H49485  11.348   8.078   6.959  1.8299 -0.4909  1.0112
  367MOL0     H49486  11.404   8.015   7.251 -1.2896 -2.6045  1.0383
  367MOL0     H49487  11.457   7.916   7.116  0.6048  0.6084 -0.0640
  367MOL0     H49488  11.574   8.078   7.018 -3.3440 -1.1113 -1.5236
  367MOL0     H49489  11.520   8.214   7.128  1.1570  0.1790 -3.1413
  367MOL0     H49490  11.634   8.104   7.322 -0.9534 -0.0008  0.2384
  367MOL0     H49491  11.685   7.980   7.201 -0.8247  0.3232 -1.8801
  367MOL0     H49492  11.765   8.268   7.234  1.3163  0.1566 -1.3502
  367MOL0     H49493  11.766   8.213   7.070 -1.5699  0.8104  0.3005
  367MOL0     H49494  11.900   8.008   7.149  0.4851 -1.1425  1.1409
  367MOL0     H49495  11.973   8.167   7.143  0.4491 -0.6396  1.0240
  367MOL0     H49496  11.800   7.996   7.445 -0.9552  1.2653 -1.4348
  367MOL0     H49497  11.948   7.824   7.621  1.9674 -1.1376  0.9212
  367MOL0     H49498  12.042   7.922   7.737  1.1364 -2.6029 -0.6021
  367MOL0     H49499  11.746   7.932   7.678  0.9643 -2.1458  0.1170
  367MOL0     H49500  11.821   7.893   7.824  0.1731 -1.3991 -0.4430
  367MOL0     H49501  11.931   8.121   7.832  0.6489  3.5428 -1.1247
  367MOL0     H49502  11.758   8.097   7.870  1.3320  0.8263  1.1063
  367MOL0     H49503  11.843   8.238   7.627 -1.7228  1.2486 -0.3352
  367MOL0     H49504  11.765   8.301   7.773 -3.9516  0.9149 -1.8592
  367MOL0     H49505  11.381   8.177   7.621  0.7894  0.9573  0.9649
  367MOL0     H49506  11.263   8.292   7.430  0.3895  2.2777  3.1398
  367MOL0     H49507  11.344   8.781   7.227 -0.9354  0.6514 -0.4297
  367MOL0     H49508  11.258   8.946   7.045  1.3179  0.4750  1.2055
  367MOL0     H49509  11.153   8.864   6.624  2.2011  1.0539  0.0318
  367MOL0     H49510  11.086   8.764   6.761  1.6308 -0.7893 -1.2196
  367MOL0     H49511  10.981   8.958   6.852  0.9071  3.4937 -0.4353
  367MOL0     H49512  11.033   9.057   6.708 -0.5669  0.8148 -1.5927
  367MOL0     H49513  10.910   8.909   6.551 -1.0290 -1.4497 -0.9048
  367MOL0     H49514  10.883   8.800   6.685 -1.7775  0.2044 -0.1287
  367MOL0     H49515  10.760   9.080   6.684 -1.6291  0.7946  0.0595
  367MOL0     H49516  10.741   8.961   6.808  3.6551  1.6778  0.2938
  367MOL0     H49517  10.635   8.801   6.627 -0.7181 -0.1420 -3.5748
  367MOL0     H49518  10.644   8.922   6.517  2.1543  1.6040 -0.3033
  367MOL0     H49519  10.488   8.970   6.786 -2.8945  2.0863  0.0878
  367MOL0     H49520  10.484   9.075   6.645 -1.5265  0.0135 -0.1785
  367MOL0     H49521  10.295   8.895   6.688  0.9403  0.5072  0.3418
  367MOL0     H49522  10.422   8.784   6.614 -0.4634  0.2718  2.3804
  367MOL0     H49523  10.416   8.879   6.399 -0.8871  0.0405 -1.4946
  367MOL0     H49524  10.255   8.844   6.439 -1.1135  1.7317  2.0566
  367MOL0     H49525  11.334   8.672   6.745 -0.3756 -0.3510  0.4515
  367MOL0     H49526  11.377   8.493   6.905  1.1847  0.9727 -3.5305
  367MOL0     H49527  11.641   8.499   7.349 -0.9486  0.7594  0.4697
  367MOL0     H49528  11.749   8.357   7.514 -0.5186 -2.3493 -0.8955
  367MOL0     H49529  10.824   7.699   6.933  2.4590  0.9739 -0.3170
  367MOL0     H49530  10.673   7.616   6.770  0.8080 -3.0034 -4.0910
  367MOL0     H49531  10.553   7.754   6.283  1.5999 -0.9841  2.5344
  367MOL0     H49532  10.526   7.681   6.026 -1.0918  1.2974  0.6790
  367MOL0     H49533  10.587   7.345   5.902  1.7438 -0.4570 -2.8716
  367MOL0     H49534  10.582   7.506   5.829 -0.3685  0.0375  0.4692
  367MOL0     H49535  10.524   7.349   5.670 -2.7970  2.5045 -2.6329
  367MOL0     H49536  10.380   7.423   5.707  1.8135  1.4494  0.7663
  367MOL0     H49537  10.322   7.196   5.854  0.3181 -2.7628  0.8666
  367MOL0     H49538  10.482   7.158   5.842  0.2999  1.7919  1.3232
  367MOL0     H49539  10.316   7.043   5.699 -0.3525  0.1504 -0.2902
  367MOL0     H49540  10.298   7.193   5.601 -0.0195 -0.3681  0.5628
  367MOL0     H49541  10.673   7.007   5.491 -0.1439 -0.5854  0.0219
  367MOL0     H49542  10.395   7.312   6.161  0.6718 -1.9056  2.0952
  367MOL0     H49543  10.418   7.336   6.480  0.2557  2.6982 -0.7036
  367MOL0     H49544  10.459   7.234   6.341  1.6370 -0.1211 -1.2296
  367MOL0     H49545  10.592   7.314   6.449  1.1519  5.0827 -1.3083
  368MOL0     O49546   1.187   7.216   3.525  0.0724 -0.1615 -0.5047
  368MOL0     C49547   1.105   7.185   3.615  0.6106  0.6867 -0.0597
  368MOL0     O49548   1.108   7.084   3.706  0.3341  0.3458 -0.4613
  368MOL0     C49549   1.212   6.989   3.711  0.7775  0.4351 -0.6110
  368MOL0     C49550   1.257   6.949   3.837 -0.4022 -0.7733  0.5949
  368MOL0     C49551   1.354   6.848   3.850 -1.7005 -0.4989 -0.3897
  368MOL0     C49552   1.388   6.785   3.734 -0.3826  0.7481  0.0382
  368MOL0     O49553   1.474   6.675   3.746 -0.5197 -0.9603  0.2198
  368MOL0     C49554   1.422   6.545   3.713  0.0260 -0.4386 -0.7420
  368MOL0     C49555   1.521   6.484   3.617  0.8230 -0.3844 -0.3133
  368MOL0     C49556   1.668   6.475   3.672  0.5041  0.5414  0.9093
  368MOL0     C49557   1.681   6.371   3.785 -1.1618  0.1056  0.5276
  368MOL0     C49558   1.683   6.230   3.724  0.3358  0.4780 -0.1601
  368MOL0     C49559   1.672   6.121   3.840  1.1844  0.4774  0.0288
  368MOL0     C49560   1.775   6.127   3.951 -0.2118  0.6169 -0.0201
  368MOL0     C49561   1.908   6.082   3.891  0.9290 -0.1382 -0.8626
  368MOL0     N49562   1.987   6.069   4.015  0.0126  0.2940 -0.6599
  368MOL0     C49563   2.055   6.175   4.063  0.2014  1.1697 -0.9262
  368MOL0     C49564   2.124   6.124   4.167  0.0389  0.0469 -0.8525
  368MOL0     C49565   2.213   6.201   4.261 -0.2977  0.3480 -0.6492
  368MOL0     C49566   2.332   6.102   4.291  0.3225  0.3049  0.0186
  368MOL0     C49567   2.466   6.175   4.303  0.6081 -0.0826 -0.4061
  368MOL0     C49568   2.586   6.084   4.344  0.0346  0.0578 -0.3524
  368MOL0     O49569   2.595   5.974   4.249  0.0526 -0.2830  0.0154
  368MOL0     C49570   2.697   5.970   4.165  0.2159  0.2342  1.3554
  368MOL0     C49571   2.781   6.069   4.119 -0.3699  0.1684 -0.4484
  368MOL0     C49572   2.902   6.038   4.058 -0.5287 -0.2236 -0.0403
  368MOL0     C49573   2.924   5.909   4.011 -0.2962 -0.2875  0.1589
  368MOL0     C49574   3.040   5.878   3.936 -0.4367  1.3169 -0.3996
  368MOL0     O49575   3.041   5.759   3.864 -0.1668  0.1912  1.0610
  368MOL0     C49576   3.158   5.738   3.782 -0.0522 -0.4923 -0.1809
  368MOL0     C49577   3.269   5.661   3.825 -0.5365  0.5878 -0.0997
  368MOL0     C49578   3.376   5.635   3.740  0.3485  0.1596 -0.3581
  368MOL0     C49579   3.385   5.701   3.614  0.9793  0.3353  0.1659
  368MOL0     O49580   3.484   5.699   3.527 -0.9123 -0.9360 -0.1943
  368MOL0     C49581   3.599   5.629   3.567 -0.1826  0.6049 -0.0985
  368MOL0     C49582   3.724   5.653   3.481  0.0035  1.0364 -0.0361
  368MOL0     C49583   3.739   5.571   3.355  0.0184  0.0025  0.6315
  368MOL0     C49584   3.639   5.599   3.236  0.1621  0.0107  0.5489
  368MOL0     C49585   3.596   5.482   3.135  0.7048  0.5465 -0.5761
  368MOL0     C49586   3.459   5.420   3.169 -0.9523  0.3178  0.4258
  368MOL0     C49587   3.432   5.308   3.076  0.9514  0.3832  0.2281
  368MOL0     C49588   3.304   5.226   3.116 -0.3474 -0.3304 -0.3545
  368MOL0    Cl49589   3.158   5.320   3.068  0.2150  0.3765  0.1486
  368MOL0     C49590   3.285   5.790   3.574 -0.8410 -0.7560 -0.1503
  368MOL0     C49591   3.174   5.808   3.664 -0.2545  1.0302 -0.1185
  368MOL0     O49592   3.132   5.960   3.936 -0.0820  0.8886 -0.3399
  368MOL0     C49593   2.827   5.814   4.037 -0.6431  0.2016  0.5234
  368MOL0     C49594   2.723   5.839   4.113  0.4212 -0.1315 -0.0410
  368MOL0     N49595   2.078   5.990   4.186  1.2238  0.8412 -0.1281
  368MOL0     N49596   2.001   5.961   4.089  0.5031  0.6417 -0.1916
  368MOL0     C49597   1.354   6.827   3.608  0.4898  1.0920  0.1181
  368MOL0     C49598   1.258   6.924   3.589 -0.0274  0.3839 -0.3026
  368MOL0     C49599   0.992   7.272   3.648  0.6608 -0.4963 -0.6244
  368MOL0     C49600   0.940   7.269   3.777 -0.0547  0.1007 -0.2337
  368MOL0     C49601   0.838   7.352   3.823 -0.3200 -0.4962 -0.7623
  368MOL0     C49602   0.771   7.433   3.731  0.5936 -0.4975 -0.1914
  368MOL0     O49603   0.661   7.503   3.775 -0.3475  0.1178 -0.0800
  368MOL0     C49604   0.621   7.612   3.693  1.0409 -0.7009 -0.2988
  368MOL0     C49605   0.527   7.702   3.774  0.3733  0.0900 -0.4298
  368MOL0     C49606   0.498   7.830   3.690  0.3219 -0.1376  0.0506
  368MOL0     C49607   0.401   7.911   3.780 -1.2713 -0.0901 -0.8813
  368MOL0     C49608   0.263   7.867   3.784 -0.4538 -0.7176  0.6847
  368MOL0     C49609   0.147   7.817   3.793  0.4704 -0.7871 -0.0352
  368MOL0     C49610   0.816   7.441   3.600  0.1054  1.0130  0.1511
  368MOL0     C49611   0.928   7.366   3.556  0.2972 -0.5612 -0.1083
  368MOL0     C49612   0.980   7.386   3.422  0.4278  0.8742 -0.2509
  368MOL0     H49613   1.231   7.013   3.921 -0.8076  0.1546 -0.2190
  368MOL0     H49614   1.400   6.835   3.947 -0.3908  2.3468 -0.5329
  368MOL0     H49615   1.398   6.496   3.808 -0.8676  2.2525  0.5356
  368MOL0     H49616   1.328   6.558   3.658  1.3307 -2.1250 -3.5399
  368MOL0     H49617   1.513   6.539   3.523 -0.3413  1.7712  0.9548
  368MOL0     H49618   1.471   6.390   3.592 -2.4750  0.4839  2.2956
  368MOL0     H49619   1.686   6.581   3.693 -4.1017  1.4741  1.1755
  368MOL0     H49620   1.741   6.445   3.596  0.3974  1.9496  0.2335
  368MOL0     H49621   1.777   6.381   3.836 -1.2034 -0.8076  0.7988
  368MOL0     H49622   1.600   6.385   3.857 -0.8525 -0.5686  1.0131
  368MOL0     H49623   1.600   6.225   3.653 -1.7714  2.1931  1.9884
  368MOL0     H49624   1.780   6.217   3.675  1.4594  3.0482  1.1638
  368MOL0     H49625   1.576   6.119   3.893  1.9250  0.5506  1.4331
  368MOL0     H49626   1.676   6.026   3.786 -1.1810  1.2941 -1.7867
  368MOL0     H49627   1.743   6.052   4.024 -1.3715  1.4315  0.3335
  368MOL0     H49628   1.771   6.218   4.010 -0.2037  1.5211 -1.3656
  368MOL0     H49629   1.908   5.984   3.841  3.6747 -0.7474  0.1693
  368MOL0     H49630   1.947   6.166   3.833  0.9502  1.9129  1.9081
  368MOL0     H49631   2.061   6.272   4.014  0.3479  0.4008 -2.4908
  368MOL0     H49632   2.255   6.287   4.208  1.3834  0.9700  1.5487
  368MOL0     H49633   2.165   6.226   4.356  1.6078  1.0744  0.1763
  368MOL0     H49634   2.315   6.057   4.389 -0.8446  0.5816 -0.0373
  368MOL0     H49635   2.327   6.024   4.214 -0.8511  0.7487 -0.3792
  368MOL0     H49636   2.448   6.256   4.375 -0.0054 -2.3362  2.1692
  368MOL0     H49637   2.491   6.215   4.204 -0.0972 -1.3943 -1.1376
  368MOL0     H49638   2.565   6.039   4.442  0.2424 -1.0660 -0.8067
  368MOL0     H49639   2.667   6.155   4.361 -0.3040  0.0470  1.4953
  368MOL0     H49640   2.758   6.172   4.143 -0.1215 -0.5044  3.1603
  368MOL0     H49641   2.978   6.113   4.045  1.3767 -1.8926  0.9323
  368MOL0     H49642   3.272   5.619   3.925  0.8982 -0.3561 -0.5211
  368MOL0     H49643   3.461   5.578   3.776  0.0458 -1.1028 -1.5369
  368MOL0     H49644   3.633   5.653   3.668  1.5619  0.1558 -0.5434
  368MOL0     H49645   3.586   5.520   3.569  0.0632  0.5203 -1.5019
  368MOL0     H49646   3.736   5.759   3.459 -0.2959  0.5203 -3.1983
  368MOL0     H49647   3.817   5.632   3.535  0.8431 -4.5469 -2.8944
  368MOL0     H49648   3.844   5.580   3.327 -0.9339  2.6943 -2.7429
  368MOL0     H49649   3.723   5.468   3.390 -4.0993 -0.0868 -0.9532
  368MOL0     H49650   3.697   5.671   3.176  0.9263 -1.9360 -1.1742
  368MOL0     H49651   3.560   5.660   3.282  3.3183  5.2523 -0.1668
  368MOL0     H49652   3.670   5.402   3.134  0.4214  0.2573  0.6164
  368MOL0     H49653   3.574   5.523   3.036 -1.7595  1.5691  0.3058
  368MOL0     H49654   3.457   5.382   3.272  0.7199  0.6341  0.6049
  368MOL0     H49655   3.376   5.489   3.154  0.1370  1.2922 -1.3483
  368MOL0     H49656   3.514   5.237   3.074 -0.5907 -1.5029  0.6630
  368MOL0     H49657   3.408   5.362   2.984 -1.5346  0.4060  0.7952
  368MOL0     H49658   3.310   5.129   3.064 -1.5039  0.2828 -1.7151
  368MOL0     H49659   3.293   5.209   3.224 -1.8166 -0.8917 -0.5743
  368MOL0     H49660   3.284   5.837   3.476 -0.1308 -0.3334  0.0320
  368MOL0     H49661   3.087   5.855   3.619 -0.3414 -0.9489 -2.1695
  368MOL0     H49662   2.830   5.710   4.008  0.2641 -1.0827  4.5025
  368MOL0     H49663   2.655   5.761   4.146  1.1714 -0.4986  0.7044
  368MOL0     H49664   1.390   6.767   3.525 -2.2934 -0.1058 -0.3671
  368MOL0     H49665   1.228   6.943   3.486  0.7593  0.6085 -0.4988
  368MOL0     H49666   0.979   7.196   3.848  0.1675 -3.1876 -3.4456
  368MOL0     H49667   0.803   7.365   3.925  1.5042  2.6602 -0.4085
  368MOL0     H49668   0.577   7.579   3.599  1.2523  1.0172 -1.0407
  368MOL0     H49669   0.704   7.677   3.664  0.7411  0.1766  0.7227
  368MOL0     H49670   0.582   7.727   3.865  1.1071  2.0094 -1.3333
  368MOL0     H49671   0.443   7.636   3.797  1.9455 -2.8635 -2.4536
  368MOL0     H49672   0.446   7.806   3.598 -2.1436 -2.2031  1.8449
  368MOL0     H49673   0.590   7.886   3.667 -0.5272  1.6229  0.7646
  368MOL0     H49674   0.433   7.930   3.883  0.2866  0.3278 -1.4170
  368MOL0     H49675   0.402   8.011   3.738 -2.6943  0.8485  1.1303
  368MOL0     H49676   0.048   7.777   3.804  0.0023  0.8677  2.5723
  368MOL0     H49677   0.765   7.512   3.536 -0.4859  0.4591 -0.0066
  368MOL0     H49678   1.074   7.442   3.428 -2.3393  6.0014  1.8550
  368MOL0     H49679   0.995   7.291   3.370  1.1608 -1.2361  3.4898
  368MOL0     H49680   0.917   7.453   3.363  0.6522  1.9120  0.6563
  369MOL0     O49681   4.445   8.602  10.211  0.5988  0.0633  0.2612
  369MOL0     C49682   4.491   8.590  10.323  0.5865 -0.8874  0.6366
  369MOL0     O49683   4.428   8.621  10.436 -0.2683 -0.2635  0.1781
  369MOL0     C49684   4.317   8.696  10.430  0.1831 -0.0364 -1.6284
  369MOL0     C49685   4.210   8.668  10.355  1.2073  0.3522  0.6732
  369MOL0     C49686   4.097   8.751  10.342 -0.0027 -0.4000 -0.8367
  369MOL0     C49687   4.095   8.875  10.407  1.3620 -0.4310 -1.2892
  369MOL0     O49688   3.989   8.960  10.377  0.1496  0.2403  0.0769
  369MOL0     C49689   3.989   9.096  10.422 -0.9847 -0.1821 -0.3524
  369MOL0     C49690   3.866   9.143  10.358  0.5676 -0.7513  0.7362
  369MOL0     C49691   3.814   9.275  10.424  0.3884 -0.3454 -0.1682
  369MOL0     C49692   3.729   9.347  10.317  0.0138  0.1717  0.1323
  369MOL0     C49693   3.821   9.432  10.225  0.2671 -0.5314  0.0275
  369MOL0     C49694   3.743   9.529  10.133  0.8296  0.7529  0.1095
  369MOL0     C49695   3.810   9.647  10.061  0.0957 -0.5064 -0.6791
  369MOL0     C49696   3.851   9.767  10.165 -0.4090 -0.3215 -0.0039
  369MOL0     N49697   3.748   9.838  10.244  0.1752  0.1065 -0.0687
  369MOL0     C49698   3.692   9.957  10.201 -1.0773 -0.6140 -0.1891
  369MOL0     C49699   3.602   9.985  10.298  0.5119  0.1734 -0.1428
  369MOL0     C49700   3.512  10.103  10.287  0.3904 -0.7217 -0.0006
  369MOL0     C49701   3.571  10.249  10.313 -0.2511  0.1781  0.0358
  369MOL0     C49702   3.673  10.298  10.204 -0.5615  0.6143 -0.2403
  369MOL0     C49703   3.751  10.419  10.252  1.1242 -1.0714 -0.9283
  369MOL0     O49704   3.654  10.520  10.291  0.0659 -0.2461 -0.2099
  369MOL0     C49705   3.706  10.638  10.326  0.8817 -0.6163  0.5766
  369MOL0     C49706   3.693  10.750  10.236 -0.4391  0.5336  0.1343
  369MOL0     C49707   3.750  10.874  10.270 -0.4880  0.8728  0.6778
  369MOL0     C49708   3.821  10.885  10.395 -0.2598  1.1730 -0.0729
  369MOL0     C49709   3.911  11.002  10.425 -0.5701  0.1223  0.3587
  369MOL0     O49710   3.874  11.113  10.347 -0.1266 -0.1167 -0.4511
  369MOL0     C49711   3.926  11.237  10.353  0.2064  0.8752 -0.4763
  369MOL0     C49712   4.055  11.264  10.410 -0.2539 -1.0273 -0.4647
  369MOL0     C49713   4.094  11.404  10.433 -0.5804 -0.4708 -0.3307
  369MOL0     C49714   4.011  11.502  10.389  0.3022 -0.1893  0.4288
  369MOL0     O49715   4.029  11.630  10.424  0.4298  0.0743 -0.5198
  369MOL0     C49716   4.010  11.730  10.326 -0.2436  0.0116  0.6869
  369MOL0     C49717   4.079  11.853  10.371 -0.0613 -0.9880  0.0813
  369MOL0     C49718   4.081  11.952  10.257  0.1170  0.4424 -0.1349
  369MOL0     C49719   4.145  12.084  10.307 -0.0366 -0.4971  0.6465
  369MOL0     C49720   4.140  12.181  10.184  0.6714  0.8533  0.2610
  369MOL0     C49721   4.218  12.318  10.212  0.6223  0.4869  0.6595
  369MOL0     C49722   4.359  12.291  10.156  0.4720 -0.1997  0.2464
  369MOL0     C49723   4.450  12.397  10.206 -0.0587 -0.3166 -0.4053
  369MOL0    Cl49724   4.601  12.368  10.109 -0.2327  0.2668 -0.0399
  369MOL0     C49725   3.893  11.469  10.319 -0.9271  0.6532  0.3189
  369MOL0     C49726   3.850  11.337  10.294  0.1642  0.0296  0.1200
  369MOL0     O49727   3.992  11.001  10.516  0.3367  0.9943 -0.1808
  369MOL0     C49728   3.812  10.783  10.485  0.3304 -0.7826  0.3029
  369MOL0     C49729   3.757  10.658  10.449 -0.3413 -0.0410 -0.2038
  369MOL0     N49730   3.608   9.884  10.396 -0.3483  0.4666 -0.3177
  369MOL0     N49731   3.694   9.793  10.365 -0.2191  0.4109  0.2559
  369MOL0     C49732   4.202   8.903  10.497 -0.0840 -0.5581 -0.4748
  369MOL0     C49733   4.304   8.814  10.506 -0.2399  0.5292  0.3270
  369MOL0     C49734   4.614   8.516  10.328 -0.2657  0.0163  1.0641
  369MOL0     C49735   4.625   8.409  10.236 -0.4912  0.8100 -0.2110
  369MOL0     C49736   4.725   8.311  10.251  0.5253 -0.1717 -0.6481
  369MOL0     C49737   4.817   8.321  10.354 -0.2626  0.5154  0.4760
  369MOL0     O49738   4.930   8.232  10.369 -0.4663  0.3306 -0.5458
  369MOL0     C49739   4.949   8.121  10.281 -0.2650 -1.0205  0.2476
  369MOL0     C49740   5.006   8.158  10.146 -1.3530 -0.4830 -0.3151
  369MOL0     C49741   5.041   8.040  10.069  0.0327  0.1010 -0.2363
  369MOL0     C49742   5.125   8.076   9.946  0.2142  0.4133 -0.1666
  369MOL0     C49743   5.125   7.970   9.847  0.3096 -0.4705  0.1322
  369MOL0     C49744   5.127   7.877   9.762  0.2499 -0.6244  0.4440
  369MOL0     C49745   4.814   8.432  10.435 -0.0922 -0.3944  0.2519
  369MOL0     C49746   4.711   8.530  10.429  0.3011 -0.1376 -0.2279
  369MOL0     C49747   4.727   8.640  10.515  0.0866  0.2336  0.6751
  369MOL0     H49748   4.216   8.573  10.302  1.3421 -0.4076  1.9927
  369MOL0     H49749   4.018   8.726  10.272 -2.7805 -0.2656  2.0631
  369MOL0     H49750   3.972   9.099  10.530 -2.3679 -2.3005 -0.4422
  369MOL0     H49751   4.083   9.145  10.394 -0.6738 -0.7336 -0.3030
  369MOL0     H49752   3.779   9.077  10.368 -0.0623  0.1619  1.3969
  369MOL0     H49753   3.897   9.164  10.255 -0.3144  2.8478  1.0623
  369MOL0     H49754   3.898   9.334  10.462  0.3766 -1.6609  2.0561
  369MOL0     H49755   3.741   9.255  10.502  1.7973  0.3971  1.3891
  369MOL0     H49756   3.677   9.272  10.257  1.8018  0.7821 -2.3028
  369MOL0     H49757   3.654   9.409  10.367 -1.2977 -1.0863 -0.2290
  369MOL0     H49758   3.883   9.499  10.286  3.2784  1.3910 -4.5682
  369MOL0     H49759   3.891   9.366  10.174  2.1726  1.0148  0.5098
  369MOL0     H49760   3.675   9.480  10.061  1.3681  0.4786 -0.2172
  369MOL0     H49761   3.674   9.580  10.201  2.1312  1.6715  0.7733
  369MOL0     H49762   3.737   9.694   9.995 -0.9433  0.7597  1.2774
  369MOL0     H49763   3.897   9.619  10.000  1.6403  1.8963  0.2716
  369MOL0     H49764   3.932   9.726  10.226 -1.8654  0.4811  2.6427
  369MOL0     H49765   3.896   9.846  10.104 -2.9044  0.7987 -0.5190
  369MOL0     H49766   3.708  10.009  10.107 -1.9851 -2.5257 -1.4839
  369MOL0     H49767   3.457  10.094  10.193  0.7280 -0.3291 -0.2400
  369MOL0     H49768   3.439  10.082  10.366 -1.5559 -0.0761 -1.5509
  369MOL0     H49769   3.488  10.318  10.324  0.2856  0.5020  2.8640
  369MOL0     H49770   3.632  10.242  10.404 -1.6253 -1.7789  0.8786
  369MOL0     H49771   3.623  10.335  10.114 -0.3795  2.3538  0.3282
  369MOL0     H49772   3.741  10.212  10.202 -2.8538 -1.3465  0.7915
  369MOL0     H49773   3.806  10.466  10.170 -0.8548 -1.0592 -2.3350
  369MOL0     H49774   3.815  10.386  10.334  1.2072 -0.3427 -0.6932
  369MOL0     H49775   3.649  10.731  10.138  0.4515  1.0424 -0.3762
  369MOL0     H49776   3.747  10.951  10.193 -1.6564  0.2845  0.1171
  369MOL0     H49777   4.106  11.177  10.448 -2.3065 -2.8044 -1.5123
  369MOL0     H49778   4.182  11.420  10.494  0.3533 -2.6174 -1.0113
  369MOL0     H49779   4.052  11.707  10.228 -0.4120  2.2997  0.0302
  369MOL0     H49780   3.901  11.741  10.327 -0.0787  2.0186  1.7654
  369MOL0     H49781   4.019  11.884  10.458  0.4652  1.4122 -0.3598
  369MOL0     H49782   4.178  11.817  10.400  0.3970 -0.9851 -1.4030
  369MOL0     H49783   4.158  11.914  10.188  0.6580 -0.1091  0.7615
  369MOL0     H49784   3.979  11.976  10.225 -0.2362 -1.5121 -0.5515
  369MOL0     H49785   4.245  12.058  10.343 -1.0864 -0.2024  4.1623
  369MOL0     H49786   4.086  12.123  10.391  0.3540 -0.0215  0.7048
  369MOL0     H49787   4.036  12.212  10.172  1.5342  3.3269 -1.6495
  369MOL0     H49788   4.173  12.124  10.097  0.3830 -2.0472  1.9081
  369MOL0     H49789   4.162  12.385  10.146 -1.0371 -0.1953  1.3293
  369MOL0     H49790   4.218  12.358  10.313 -0.8761  5.7066 -1.0830
  369MOL0     H49791   4.356  12.281  10.047  3.3201 -1.5325  0.1927
  369MOL0     H49792   4.390  12.196  10.201  2.4802  0.9380  1.4039
  369MOL0     H49793   4.405  12.492  10.175 -0.3608 -1.0620 -2.3978
  369MOL0     H49794   4.452  12.375  10.313 -2.4883  0.7533 -0.0859
  369MOL0     H49795   3.827  11.545  10.279 -2.2581  1.7042  4.0483
  369MOL0     H49796   3.763  11.313  10.235  0.5266 -2.6229  0.5462
  369MOL0     H49797   3.861  10.791  10.581 -0.8179 -2.5289  1.0945
  369MOL0     H49798   3.765  10.580  10.524 -1.4237  0.9610  1.0015
  369MOL0     H49799   4.195   8.989  10.561  0.1179  0.6704 -2.0364
  369MOL0     H49800   4.367   8.842  10.590 -1.1771  4.2900 -0.0465
  369MOL0     H49801   4.560   8.384  10.153 -2.5373  0.9692  1.2684
  369MOL0     H49802   4.720   8.236  10.173  1.5703 -2.9388  1.7654
  369MOL0     H49803   4.856   8.064  10.267 -1.6352  1.3907 -1.0386
  369MOL0     H49804   5.022   8.055  10.329  2.7112  2.9723  1.7609
  369MOL0     H49805   5.095   8.222  10.149 -1.2488 -0.5880 -0.9100
  369MOL0     H49806   4.931   8.219  10.095 -0.5773  1.6212  0.9214
  369MOL0     H49807   4.951   7.993  10.029 -0.7030 -0.4054  1.9006
  369MOL0     H49808   5.088   7.965  10.132  0.5410  1.4943  1.0883
  369MOL0     H49809   5.075   8.158   9.894  2.3397  1.7758 -0.1956
  369MOL0     H49810   5.226   8.114   9.965  0.2208  0.2372  0.1518
  369MOL0     H49811   5.138   7.791   9.699  1.3836 -1.0280  1.1653
  369MOL0     H49812   4.898   8.461  10.498  1.7578 -1.4135 -1.6023
  369MOL0     H49813   4.749   8.607  10.617  1.7302  0.2434  0.3485
  369MOL0     H49814   4.814   8.689  10.469  1.2041 -1.0341  1.3778
  369MOL0     H49815   4.636   8.701  10.512  0.7984  1.3303  1.0782
  370MOL0     O49816   4.589   8.739   2.359 -0.3448 -0.6857 -0.5518
  370MOL0     C49817   4.599   8.664   2.451 -0.4180 -0.6230 -0.0221
  370MOL0     O49818   4.633   8.713   2.581  0.5118 -0.0291 -0.5111
  370MOL0     C49819   4.686   8.838   2.598 -0.6826  0.3099  0.3948
  370MOL0     C49820   4.663   8.956   2.528  1.5085 -0.9726  0.4624
  370MOL0     C49821   4.736   9.075   2.552  0.6518 -0.8392  0.0942
  370MOL0     C49822   4.837   9.073   2.647 -0.2930 -0.3762  0.1032
  370MOL0     O49823   4.910   9.178   2.698  0.2417  0.5457 -0.2527
  370MOL0     C49824   4.977   9.271   2.612  0.2343 -0.2209  0.1580
  370MOL0     C49825   5.001   9.407   2.673 -0.6259  0.4031 -0.3272
  370MOL0     C49826   4.879   9.470   2.734 -1.1344 -0.4240  0.3002
  370MOL0     C49827   4.892   9.620   2.773  1.3276  0.0881 -0.2896
  370MOL0     C49828   4.986   9.665   2.886 -0.1618 -0.6411  0.2204
  370MOL0     C49829   4.970   9.817   2.905  0.0578 -0.2781 -0.0648
  370MOL0     C49830   5.058   9.864   3.020 -0.2283  0.8038  0.3964
  370MOL0     C49831   5.054  10.016   3.018 -0.2047 -0.3561  0.2341
  370MOL0     N49832   5.146  10.080   3.108  0.6078 -0.5082  0.3830
  370MOL0     C49833   5.281  10.088   3.089 -0.0294  0.3677 -0.2770
  370MOL0     C49834   5.329  10.180   3.177 -0.2188  0.4240 -0.3969
  370MOL0     C49835   5.468  10.238   3.192  0.6058 -0.1303  0.0881
  370MOL0     C49836   5.557  10.156   3.278  0.4630  0.1456  0.2532
  370MOL0     C49837   5.634  10.222   3.394 -0.6328  0.3807 -0.1395
  370MOL0     C49838   5.754  10.138   3.451  0.1260  0.0962 -0.4437
  370MOL0     O49839   5.718  10.001   3.471  1.0512 -0.5115  0.5669
  370MOL0     C49840   5.806   9.907   3.505  0.4742 -0.0318 -0.0056
  370MOL0     C49841   5.938   9.907   3.470 -0.3896  0.4189  0.0074
  370MOL0     C49842   6.012   9.787   3.468 -0.3686 -0.4097  0.1494
  370MOL0     C49843   5.962   9.689   3.555 -0.0327 -0.3982 -0.5172
  370MOL0     C49844   6.041   9.562   3.557 -0.5832 -0.1126 -0.8257
  370MOL0     O49845   5.989   9.460   3.641 -0.4140 -0.3714  0.2589
  370MOL0     C49846   6.069   9.351   3.632  0.8422 -0.4535 -0.3085
  370MOL0     C49847   6.199   9.347   3.691  0.4316  0.2460 -1.0344
  370MOL0     C49848   6.282   9.230   3.679 -0.1348  0.5269  0.9170
  370MOL0     C49849   6.238   9.114   3.609  0.3693  1.0988  0.7654
  370MOL0     O49850   6.343   9.022   3.590  0.3885 -0.1090 -0.0561
  370MOL0     C49851   6.308   8.909   3.520 -0.0283  0.1665 -0.2382
  370MOL0     C49852   6.422   8.816   3.523 -0.8704  0.3844 -0.0920
  370MOL0     C49853   6.427   8.761   3.666  0.2978 -0.6624  0.2880
  370MOL0     C49854   6.561   8.691   3.669  0.5780 -1.2583  0.5245
  370MOL0     C49855   6.589   8.673   3.818 -0.9313  0.4010 -0.7435
  370MOL0     C49856   6.732   8.611   3.843  0.6169  0.1039  0.1282
  370MOL0     C49857   6.759   8.555   3.978  0.5389 -0.0033  0.5164
  370MOL0     C49858   6.769   8.657   4.092 -0.0279  0.4137  0.1504
  370MOL0    Cl49859   6.945   8.702   4.109 -0.4115  0.0561  0.1489
  370MOL0     C49860   6.108   9.116   3.552  0.0158 -0.2156  0.6470
  370MOL0     C49861   6.031   9.240   3.560 -0.2206  0.0458  0.8077
  370MOL0     O49862   6.134   9.549   3.480 -0.6692  0.1699  0.3752
  370MOL0     C49863   5.838   9.690   3.616 -0.3325  0.0710  0.6981
  370MOL0     C49864   5.758   9.800   3.581  0.4872 -0.3234 -0.3355
  370MOL0     N49865   5.222  10.213   3.257  0.4056 -0.1007 -1.6397
  370MOL0     N49866   5.117  10.148   3.223  0.8273 -0.0908 -0.1746
  370MOL0     C49867   4.856   8.961   2.731 -0.0224 -0.0853  0.8707
  370MOL0     C49868   4.782   8.851   2.695  0.1087  0.5964 -0.6405
  370MOL0     C49869   4.566   8.526   2.441  0.6349  0.4966  0.5070
  370MOL0     C49870   4.442   8.485   2.497 -0.2324 -0.6370 -0.1910
  370MOL0     C49871   4.394   8.356   2.491 -0.0075  0.5548  0.2304
  370MOL0     C49872   4.459   8.253   2.433 -0.3583 -0.0252  0.5471
  370MOL0     O49873   4.392   8.131   2.427  0.7929 -0.3074 -0.2106
  370MOL0     C49874   4.451   8.027   2.359  0.6119 -0.7994 -0.3289
  370MOL0     C49875   4.366   7.898   2.371 -0.5983 -0.8379  0.1670
  370MOL0     C49876   4.344   7.862   2.513 -0.1780 -0.0429 -0.2854
  370MOL0     C49877   4.289   7.715   2.534 -0.0618  0.0195  1.2693
  370MOL0     C49878   4.364   7.609   2.471  0.3202 -0.5403 -0.2326
  370MOL0     C49879   4.429   7.518   2.439 -0.1514  0.2160  0.2828
  370MOL0     C49880   4.588   8.288   2.371  0.2117 -0.7264 -0.0102
  370MOL0     C49881   4.629   8.425   2.365  0.1006  0.0057 -0.7233
  370MOL0     C49882   4.731   8.469   2.265 -0.0664 -0.1510 -0.2010
  370MOL0     H49883   4.573   8.962   2.467  3.2176 -2.1615 -2.3795
  370MOL0     H49884   4.711   9.169   2.503  0.0162  0.7264  3.1562
  370MOL0     H49885   5.076   9.229   2.593  0.3751  0.4731 -0.7078
  370MOL0     H49886   4.930   9.291   2.515  0.4459 -2.4859 -0.4828
  370MOL0     H49887   5.052   9.470   2.600 -1.6646 -1.5271 -2.8608
  370MOL0     H49888   5.071   9.388   2.755 -0.8595 -1.4002 -0.5031
  370MOL0     H49889   4.847   9.420   2.826  0.0386 -2.1723 -0.1848
  370MOL0     H49890   4.798   9.461   2.660  0.0486  0.0229 -1.0980
  370MOL0     H49891   4.918   9.660   2.674 -1.2578  2.7568 -0.0078
  370MOL0     H49892   4.791   9.660   2.785  1.3538  0.2883 -0.7327
  370MOL0     H49893   4.965   9.608   2.977  0.4425 -1.0957  0.0849
  370MOL0     H49894   5.091   9.641   2.868  1.0957  1.5466  3.6904
  370MOL0     H49895   5.004   9.867   2.814  0.3632 -2.3976 -1.1877
  370MOL0     H49896   4.869   9.833   2.943 -0.6519 -1.9797 -1.1017
  370MOL0     H49897   5.162   9.836   3.009 -1.4731 -3.3963 -3.0492
  370MOL0     H49898   5.030   9.834   3.122 -1.6099  4.6110  1.3223
  370MOL0     H49899   5.062  10.066   2.921  2.8909  0.3057  0.7329
  370MOL0     H49900   4.949  10.035   3.044 -0.7924 -1.6237 -1.0241
  370MOL0     H49901   5.347  10.045   3.014 -1.4161  0.5269 -1.6553
  370MOL0     H49902   5.505  10.255   3.091  2.3629  0.3447  0.7796
  370MOL0     H49903   5.446  10.333   3.241 -0.5091 -0.2335 -0.1941
  370MOL0     H49904   5.506  10.069   3.321  2.3405 -1.0935  0.0961
  370MOL0     H49905   5.633  10.117   3.210 -1.7870  0.8764 -2.9452
  370MOL0     H49906   5.567  10.239   3.479 -1.8862 -1.3187 -0.7201
  370MOL0     H49907   5.668  10.320   3.359 -2.5773  0.8481 -0.8320
  370MOL0     H49908   5.789  10.187   3.542 -2.2430  1.3111 -0.1068
  370MOL0     H49909   5.845  10.147   3.390  0.2156 -1.5251 -0.5859
  370MOL0     H49910   5.986   9.986   3.414 -0.3028  1.3023  1.2780
  370MOL0     H49911   6.099   9.777   3.403 -1.8236  1.1481 -2.1820
  370MOL0     H49912   6.239   9.432   3.746 -2.8091  2.7350 -2.2454
  370MOL0     H49913   6.383   9.225   3.716  1.0404  1.0717 -1.9193
  370MOL0     H49914   6.214   8.858   3.544  0.8132 -0.6646  1.3792
  370MOL0     H49915   6.294   8.934   3.414  0.1198 -3.1946 -1.1591
  370MOL0     H49916   6.435   8.741   3.445  0.4479  0.6350 -0.1411
  370MOL0     H49917   6.519   8.867   3.516 -1.8712  2.5068  0.6372
  370MOL0     H49918   6.433   8.846   3.735  2.2459 -1.7557  1.5658
  370MOL0     H49919   6.347   8.689   3.684  0.7856 -1.0302  1.0029
  370MOL0     H49920   6.641   8.747   3.619  1.9533 -0.8976  2.9510
  370MOL0     H49921   6.561   8.600   3.608 -0.5088 -0.2909 -0.9896
  370MOL0     H49922   6.518   8.602   3.861  0.9773 -0.5056  1.0455
  370MOL0     H49923   6.591   8.767   3.873  3.9232  1.2928 -1.9739
  370MOL0     H49924   6.745   8.533   3.767  0.2181  1.8460 -1.8295
  370MOL0     H49925   6.811   8.684   3.822  0.4732  0.0204 -0.7374
  370MOL0     H49926   6.857   8.508   3.993  1.7440  2.6230  1.5378
  370MOL0     H49927   6.688   8.472   3.985 -0.0082  0.5824  2.8701
  370MOL0     H49928   6.699   8.737   4.067  1.6136  1.1928 -2.3956
  370MOL0     H49929   6.734   8.616   4.187  0.0479  0.7662  0.3342
  370MOL0     H49930   6.078   9.041   3.479  2.7875 -1.4434  0.6758
  370MOL0     H49931   5.940   9.254   3.502  0.7910 -1.3385 -1.2282
  370MOL0     H49932   5.797   9.606   3.671  1.6301 -2.3894 -1.3027
  370MOL0     H49933   5.652   9.812   3.601  0.2978  3.2030 -2.4998
  370MOL0     H49934   4.928   8.959   2.812  1.5611  1.3957 -0.4391
  370MOL0     H49935   4.806   8.763   2.753  1.6240  1.9262  0.8987
  370MOL0     H49936   4.371   8.560   2.529 -2.1968 -2.9160  1.0639
  370MOL0     H49937   4.295   8.331   2.528 -0.2100 -0.5243 -0.9556
  370MOL0     H49938   4.550   8.007   2.400  0.7147  3.7253  2.3899
  370MOL0     H49939   4.476   8.060   2.258 -0.4878  0.5190 -0.2183
  370MOL0     H49940   4.421   7.819   2.319  0.6425 -1.6114  2.5234
  370MOL0     H49941   4.268   7.907   2.322 -0.3844  0.9614 -0.0058
  370MOL0     H49942   4.266   7.925   2.557 -2.1950 -2.4184 -0.2278
  370MOL0     H49943   4.439   7.858   2.567 -1.0891 -2.7634  1.3116
  370MOL0     H49944   4.285   7.688   2.640  0.7303 -2.1180  0.7960
  370MOL0     H49945   4.183   7.703   2.510 -0.1526  0.6483  1.3353
  370MOL0     H49946   4.485   7.433   2.405  1.6311  0.8800  1.3865
  370MOL0     H49947   4.639   8.216   2.307  1.1787 -0.2744  0.2376
  370MOL0     H49948   4.709   8.473   2.157 -2.0858  0.2699  0.1787
  370MOL0     H49949   4.768   8.569   2.288  1.9943 -0.5176 -1.6407
  370MOL0     H49950   4.820   8.407   2.279 -1.2692 -2.3425 -1.6699
  371MOL0     O49951   2.564  11.327   8.921  0.1132  0.5074  0.1479
  371MOL0     C49952   2.596  11.381   8.810 -0.0855  0.0251  0.3194
  371MOL0     O49953   2.512  11.397   8.701 -0.4336 -0.1916 -0.1149
  371MOL0     C49954   2.378  11.365   8.709 -0.3234  0.5431  0.2864
  371MOL0     C49955   2.284  11.438   8.784  0.9359 -0.1532  0.2899
  371MOL0     C49956   2.152  11.390   8.782  0.3118  0.1275  0.2119
  371MOL0     C49957   2.109  11.282   8.701  0.1466 -0.1328 -0.2872
  371MOL0     O49958   1.979  11.247   8.720 -0.0580  0.0285  0.3997
  371MOL0     C49959   1.899  11.223   8.596 -0.6854 -0.0148 -0.7340
  371MOL0     C49960   1.754  11.181   8.622  0.5476 -0.4415 -0.0261
  371MOL0     C49961   1.655  11.221   8.513 -0.1376  0.7576 -0.4844
  371MOL0     C49962   1.513  11.218   8.566 -0.4826  0.4156  0.0146
  371MOL0     C49963   1.417  11.266   8.453 -0.3184  0.1251 -0.4865
  371MOL0     C49964   1.266  11.229   8.490  0.3333 -0.4203  0.0390
  371MOL0     C49965   1.174  11.273   8.377 -0.0596  0.4333  0.7771
  371MOL0     C49966   1.032  11.222   8.407  0.8650  0.9548  0.2355
  371MOL0     N49967   0.934  11.275   8.306 -0.4091 -0.2973 -0.0315
  371MOL0     C49968   0.882  11.405   8.309  0.9227  1.2846  0.4966
  371MOL0     C49969   0.775  11.395   8.224  0.3715 -1.3839 -0.0823
  371MOL0     C49970   0.668  11.508   8.201  1.1066  0.0233  0.2944
  371MOL0     C49971   0.572  11.499   8.084  0.4450 -0.1371  0.9010
  371MOL0     C49972   0.631  11.560   7.959 -0.2600  0.2328 -0.7151
  371MOL0     C49973   0.517  11.557   7.857 -0.3341  0.7492  1.3001
  371MOL0     O49974   0.560  11.644   7.761 -0.4554 -0.4969 -0.5041
  371MOL0     C49975   0.461  11.682   7.679 -0.3744  0.4539  0.2901
  371MOL0     C49976   0.486  11.807   7.615 -0.0017 -0.0639  0.0172
  371MOL0     C49977   0.387  11.843   7.519 -0.5136 -0.7174 -0.0188
  371MOL0     C49978   0.277  11.768   7.469  0.3445  0.2422 -1.1741
  371MOL0     C49979   0.190  11.806   7.363  0.0839 -0.3874  0.1898
  371MOL0     O49980   0.062  11.749   7.356  0.1375 -0.0539  0.3217
  371MOL0     C49981  -0.037  11.781   7.269  0.9583 -1.0980  0.5785
  371MOL0     C49982  -0.047  11.883   7.169  0.3580  0.4349  1.4852
  371MOL0     C49983  -0.166  11.902   7.092 -0.7343 -0.8988 -0.5090
  371MOL0     C49984  -0.275  11.812   7.097 -0.4202  0.4547 -0.7333
  371MOL0     O49985  -0.373  11.830   7.012  0.3844 -0.1575 -0.1603
  371MOL0     C49986  -0.493  11.752   7.006 -0.2984 -0.8401  0.1148
  371MOL0     C49987  -0.597  11.811   7.101  0.2680  0.3831 -0.7141
  371MOL0     C49988  -0.620  11.952   7.098 -0.6421 -0.2667 -0.8278
  371MOL0     C49989  -0.770  11.988   7.102  0.3442 -0.0728 -0.2542
  371MOL0     C49990  -0.784  12.146   7.076 -0.5784  0.0348  0.3702
  371MOL0     C49991  -0.909  12.181   7.012  0.2294 -0.1403  0.0976
  371MOL0     C49992  -1.033  12.179   7.108 -0.0697  0.2592 -0.9578
  371MOL0     C49993  -1.158  12.160   7.044  0.2644  0.3120  0.5082
  371MOL0    Cl49994  -1.195  12.305   6.957  0.1993  0.3154  0.3081
  371MOL0     C49995  -0.259  11.696   7.178 -0.6011 -0.3980 -0.7232
  371MOL0     C49996  -0.148  11.688   7.269 -0.3006  0.5338 -0.9949
  371MOL0     O49997   0.222  11.896   7.284  0.7477  0.4606 -0.5742
  371MOL0     C49998   0.259  11.644   7.540 -0.5854  0.1213  0.4470
  371MOL0     C49999   0.353  11.598   7.637  0.2666  0.3628 -0.3721
  371MOL0     N50000   0.765  11.268   8.177 -0.0291 -0.3700  0.7462
  371MOL0     N50001   0.850  11.192   8.237 -0.2040  0.1727 -0.0831
  371MOL0     C50002   2.200  11.215   8.629 -0.6098 -0.2239 -0.0523
  371MOL0     C50003   2.334  11.255   8.628 -0.0718 -0.4328  0.3089
  371MOL0     C50004   2.728  11.418   8.780 -0.6708 -0.5170  1.0185
  371MOL0     C50005   2.743  11.540   8.706 -0.4433  0.3972 -0.8131
  371MOL0     C50006   2.863  11.598   8.681 -0.6591  0.5439 -0.0782
  371MOL0     C50007   2.980  11.535   8.723  0.7041 -0.3582 -0.3598
  371MOL0     O50008   3.086  11.616   8.708 -1.0874  0.7064 -0.2605
  371MOL0     C50009   3.201  11.611   8.800  0.6312 -0.0011 -0.2242
  371MOL0     C50010   3.323  11.577   8.728  0.0145 -0.8821  1.3321
  371MOL0     C50011   3.379  11.664   8.609  1.5434  0.4062 -0.4007
  371MOL0     C50012   3.387  11.810   8.643  0.2322  0.6102 -0.5432
  371MOL0     C50013   3.461  11.851   8.765 -1.1966 -0.0229 -0.1232
  371MOL0     C50014   3.531  11.868   8.860 -0.2050  0.8953  0.1924
  371MOL0     C50015   2.978  11.420   8.792 -0.3789  0.3635 -0.8872
  371MOL0     C50016   2.852  11.363   8.833 -0.2322 -0.2173  0.0617
  371MOL0     C50017   2.858  11.231   8.906 -0.4711 -0.6195  0.2625
  371MOL0     H50018   2.313  11.528   8.838 -0.6161 -0.3253  1.4925
  371MOL0     H50019   2.086  11.457   8.835 -1.3636 -0.5122 -0.9677
  371MOL0     H50020   1.884  11.313   8.536 -2.5735  0.3207  0.1744
  371MOL0     H50021   1.947  11.143   8.538  3.2935  1.3599  0.3276
  371MOL0     H50022   1.731  11.220   8.721 -0.3483 -1.7329  0.3007
  371MOL0     H50023   1.741  11.073   8.638 -1.4392  0.1178  2.6646
  371MOL0     H50024   1.661  11.153   8.428 -2.5315  0.7554 -0.7197
  371MOL0     H50025   1.674  11.325   8.485  2.0330  0.8864  1.1679
  371MOL0     H50026   1.486  11.120   8.604 -0.4930  0.9860  1.5369
  371MOL0     H50027   1.521  11.282   8.654  1.3066 -0.2129  0.3604
  371MOL0     H50028   1.425  11.374   8.438 -2.1548  0.3313 -0.2514
  371MOL0     H50029   1.445  11.217   8.359 -3.6155 -1.4376 -0.8030
  371MOL0     H50030   1.258  11.123   8.516 -0.1885  0.4606  4.2213
  371MOL0     H50031   1.236  11.287   8.578  3.4004 -0.0846  0.9753
  371MOL0     H50032   1.210  11.224   8.287  0.7408  0.5180  1.0442
  371MOL0     H50033   1.174  11.380   8.351  0.2427 -0.1604 -1.9383
  371MOL0     H50034   1.038  11.113   8.395  0.9159  0.8372  1.2209
  371MOL0     H50035   0.992  11.240   8.508 -3.8988 -0.7765 -1.0901
  371MOL0     H50036   0.917  11.490   8.366  1.3180 -0.4895  3.0570
  371MOL0     H50037   0.604  11.525   8.288  0.6756  2.9054 -0.4993
  371MOL0     H50038   0.729  11.599   8.208  0.7781  0.2607  0.0979
  371MOL0     H50039   0.541  11.394   8.075 -0.4745  0.0229  2.0330
  371MOL0     H50040   0.483  11.556   8.111 -0.8150 -1.6622  0.1582
  371MOL0     H50041   0.722  11.509   7.926  0.0203  0.0063  0.3524
  371MOL0     H50042   0.667  11.661   7.983  1.6370 -0.7712  0.9743
  371MOL0     H50043   0.419  11.585   7.898 -1.7301  1.6395 -2.1896
  371MOL0     H50044   0.515  11.457   7.813  0.7531  0.8017  1.0997
  371MOL0     H50045   0.553  11.884   7.651  0.0818  0.0265 -0.3284
  371MOL0     H50046   0.397  11.941   7.474 -1.6981 -0.0845  1.0224
  371MOL0     H50047   0.033  11.954   7.148  0.3790 -0.0673 -0.2137
  371MOL0     H50048  -0.167  11.987   7.024 -0.4548  0.2084  0.8307
  371MOL0     H50049  -0.523  11.755   6.901 -1.1228  0.8966  0.3581
  371MOL0     H50050  -0.463  11.652   7.038  1.6614 -0.2088  0.4009
  371MOL0     H50051  -0.688  11.756   7.077 -2.7528  4.5667  0.0742
  371MOL0     H50052  -0.568  11.784   7.203 -2.0874 -1.7703 -0.5139
  371MOL0     H50053  -0.562  12.014   7.167 -0.3379 -1.6582  0.2100
  371MOL0     H50054  -0.591  11.979   6.996 -1.8442  1.2494 -0.7953
  371MOL0     H50055  -0.822  11.963   7.195 -0.6589 -1.3643 -1.1219
  371MOL0     H50056  -0.828  11.933   7.027 -4.4854  1.5425  1.8593
  371MOL0     H50057  -0.708  12.172   7.001 -1.7676  0.4307 -0.7432
  371MOL0     H50058  -0.767  12.200   7.170 -0.2561 -1.2747  1.0927
  371MOL0     H50059  -0.892  12.281   6.972  4.0760 -0.6079  0.2188
  371MOL0     H50060  -0.914  12.109   6.929  2.3530 -2.4455  1.8295
  371MOL0     H50061  -1.035  12.269   7.170  0.8409 -0.6038  0.3751
  371MOL0     H50062  -1.016  12.102   7.184 -0.5837  3.4404  2.6663
  371MOL0     H50063  -1.151  12.076   6.975  2.6329  1.6924 -1.1015
  371MOL0     H50064  -1.239  12.139   7.114 -1.3909  1.9216 -0.8178
  371MOL0     H50065  -0.340  11.624   7.187 -0.4698 -0.6058 -1.2040
  371MOL0     H50066  -0.151  11.607   7.341  2.3287 -0.0727 -1.4591
  371MOL0     H50067   0.170  11.587   7.517 -0.5090 -0.0427  0.5550
  371MOL0     H50068   0.344  11.502   7.687 -4.6910  1.9185  2.4805
  371MOL0     H50069   2.169  11.126   8.575 -0.0126  1.0748 -2.7488
  371MOL0     H50070   2.399  11.213   8.552 -2.2582 -0.4705 -1.6561
  371MOL0     H50071   2.664  11.599   8.662  0.1583  0.2952 -2.0933
  371MOL0     H50072   2.881  11.694   8.634  1.6125 -0.4576 -1.3579
  371MOL0     H50073   3.180  11.535   8.876 -3.2583  0.3451 -0.7585
  371MOL0     H50074   3.223  11.705   8.852  0.6010 -1.6278  2.9926
  371MOL0     H50075   3.296  11.476   8.698 -1.0510 -0.1619 -0.2953
  371MOL0     H50076   3.409  11.572   8.796  1.5225  0.9355 -0.3182
  371MOL0     H50077   3.309  11.649   8.526  0.3295  0.9975  0.4734
  371MOL0     H50078   3.479  11.624   8.592  1.3719 -0.6511  0.9268
  371MOL0     H50079   3.428  11.857   8.553  0.2382 -0.6943 -1.2455
  371MOL0     H50080   3.298  11.872   8.659 -0.0315 -0.2914  1.9910
  371MOL0     H50081   3.575  11.910   8.948  0.5585  1.8914 -0.6402
  371MOL0     H50082   3.074  11.377   8.820 -0.4422 -0.4906 -1.8908
  371MOL0     H50083   2.875  11.150   8.835  0.1255 -2.2809  2.2208
  371MOL0     H50084   2.933  11.224   8.985  0.2855  1.8097 -0.1453
  371MOL0     H50085   2.760  11.208   8.950 -2.0677  2.5662 -1.2426
  372MOL0     O50086   6.645   5.937   3.628 -0.2840  0.8444 -0.3793
  372MOL0     C50087   6.607   6.004   3.723  0.0318 -0.6790  0.4724
  372MOL0     O50088   6.676   6.038   3.834 -0.1041  0.2969  0.1250
  372MOL0     C50089   6.815   6.009   3.822  1.6995  0.0222  0.2260
  372MOL0     C50090   6.899   6.118   3.816 -0.4234 -0.0930 -0.5141
  372MOL0     C50091   7.037   6.093   3.796 -0.0999  0.4653  0.0876
  372MOL0     C50092   7.091   5.962   3.789  0.0396  0.7184  0.8713
  372MOL0     O50093   7.222   5.945   3.754  0.4153  0.1376 -0.1530
  372MOL0     C50094   7.300   5.846   3.819  0.5263  0.7290 -0.0225
  372MOL0     C50095   7.431   5.924   3.856  0.4757  0.9253  0.3198
  372MOL0     C50096   7.491   5.970   3.720 -0.2439  1.0000 -0.0600
  372MOL0     C50097   7.631   6.017   3.742  0.3322  0.3213 -0.5691
  372MOL0     C50098   7.663   6.126   3.637  0.1955 -0.1103 -0.1618
  372MOL0     C50099   7.807   6.154   3.642 -0.5696 -0.7968  0.4051
  372MOL0     C50100   7.848   6.267   3.544  0.4830 -0.0361 -0.5111
  372MOL0     C50101   7.988   6.312   3.569  0.7046  1.0701  0.6559
  372MOL0     N50102   8.078   6.244   3.463 -0.3040  0.2597 -0.4387
  372MOL0     C50103   8.090   6.279   3.327  1.3649  0.1762 -0.3413
  372MOL0     C50104   8.191   6.203   3.282  0.3891 -0.3460 -0.0894
  372MOL0     C50105   8.248   6.221   3.142 -0.0894 -0.1029  0.1630
  372MOL0     C50106   8.153   6.169   3.031 -0.0143 -0.2213  0.4779
  372MOL0     C50107   8.121   6.019   3.028  1.0117 -0.5146 -0.0937
  372MOL0     C50108   8.243   5.932   2.993 -0.2458 -0.4326  0.4384
  372MOL0     O50109   8.282   5.973   2.860  0.0235 -0.4123 -0.9232
  372MOL0     C50110   8.405   5.930   2.813 -0.4018 -0.0365 -0.1329
  372MOL0     C50111   8.496   5.857   2.891 -0.0968 -0.1529  1.1953
  372MOL0     C50112   8.608   5.807   2.824 -0.4834 -1.2588 -0.0285
  372MOL0     C50113   8.636   5.840   2.690 -0.0340  0.3353  1.0320
  372MOL0     C50114   8.757   5.789   2.622 -0.4695 -0.6772 -0.4512
  372MOL0     O50115   8.851   5.724   2.704 -0.5850 -0.2408  0.7536
  372MOL0     C50116   8.957   5.668   2.640  0.6330 -0.5026 -0.0606
  372MOL0     C50117   8.968   5.539   2.591  0.4673 -0.0046 -0.7360
  372MOL0     C50118   9.077   5.486   2.521 -0.0655 -0.0353 -0.2916
  372MOL0     C50119   9.192   5.567   2.509  0.5056 -1.4617  0.2968
  372MOL0     O50120   9.303   5.521   2.448 -0.0006 -1.0903  0.1331
  372MOL0     C50121   9.427   5.562   2.518  0.2396  0.8498 -0.3226
  372MOL0     C50122   9.537   5.474   2.471 -0.8591  0.6928  0.2121
  372MOL0     C50123   9.605   5.512   2.338  0.4006 -0.0316  0.3835
  372MOL0     C50124   9.697   5.636   2.360 -0.3873 -0.1597  0.1367
  372MOL0     C50125   9.754   5.688   2.225  0.9577 -0.3402  0.4553
  372MOL0     C50126   9.653   5.785   2.167  0.5011 -0.1088  0.1206
  372MOL0     C50127   9.701   5.870   2.047  0.7210  0.4816 -0.1873
  372MOL0     C50128   9.823   5.941   2.095 -0.0209  0.5606 -1.1965
  372MOL0    Cl50129   9.796   6.017   2.259 -0.4583  0.6705 -0.0364
  372MOL0     C50130   9.187   5.700   2.555 -0.3379 -0.0721 -0.6654
  372MOL0     C50131   9.069   5.751   2.619 -0.5351 -0.7076 -0.4669
  372MOL0     O50132   8.769   5.814   2.501  0.1824 -0.4578  0.2664
  372MOL0     C50133   8.546   5.920   2.621  0.2548  0.2877  0.4389
  372MOL0     C50134   8.433   5.972   2.684 -0.4335 -0.3773 -0.1582
  372MOL0     N50135   8.248   6.131   3.386 -0.0095 -1.0893  0.3999
  372MOL0     N50136   8.172   6.151   3.494  0.0268 -0.1701 -2.6193
  372MOL0     C50137   7.006   5.857   3.805  0.1299 -0.1840  0.2385
  372MOL0     C50138   6.866   5.876   3.822 -0.1350 -0.3534  0.4898
  372MOL0     C50139   6.462   6.037   3.725  0.0336 -0.6204 -0.0932
  372MOL0     C50140   6.401   6.079   3.608 -0.9338  0.0654 -0.6122
  372MOL0     C50141   6.257   6.094   3.592 -1.1889  0.4272  0.3694
  372MOL0     C50142   6.176   6.080   3.703  0.4028  0.6899 -0.4486
  372MOL0     O50143   6.045   6.097   3.684 -0.1643 -0.3937 -0.7489
  372MOL0     C50144   5.968   6.161   3.794  0.5253 -0.1575 -0.6522
  372MOL0     C50145   5.834   6.196   3.737 -0.5912 -0.0563 -0.4895
  372MOL0     C50146   5.772   6.324   3.786 -0.0915 -0.2520  0.0274
  372MOL0     C50147   5.660   6.301   3.898  0.6133  0.2730  0.8361
  372MOL0     C50148   5.540   6.255   3.820 -0.6265  0.5738  0.1833
  372MOL0     C50149   5.448   6.197   3.764  0.2820  0.5502  0.0721
  372MOL0     C50150   6.236   6.041   3.826 -0.1523  0.2548 -0.1345
  372MOL0     C50151   6.380   6.011   3.836  0.4981  0.5414 -0.7112
  372MOL0     C50152   6.430   5.983   3.979 -1.2414 -0.2847 -0.7588
  372MOL0     H50153   6.861   6.220   3.817  2.6066  1.1398 -1.1288
  372MOL0     H50154   7.110   6.174   3.796 -0.6156  0.9844  2.3975
  372MOL0     H50155   7.263   5.797   3.910  1.1313 -0.8412 -0.5859
  372MOL0     H50156   7.315   5.754   3.762  1.6660  0.7657  0.1960
  372MOL0     H50157   7.507   5.857   3.897 -0.8183 -0.0420  1.2290
  372MOL0     H50158   7.411   6.010   3.921  0.2982  1.0015  0.1643
  372MOL0     H50159   7.424   6.027   3.655  1.3184  0.1322 -2.5586
  372MOL0     H50160   7.509   5.879   3.662 -2.0694  0.4530  0.1614
  372MOL0     H50161   7.647   6.058   3.842 -1.0684  0.1866 -0.2677
  372MOL0     H50162   7.714   5.946   3.747  0.9758  1.1224  0.6450
  372MOL0     H50163   7.637   6.087   3.538 -2.5251  1.7848 -0.3035
  372MOL0     H50164   7.607   6.216   3.662  0.4300 -0.1431  0.5060
  372MOL0     H50165   7.835   6.187   3.742  0.7233 -0.1664 -0.1448
  372MOL0     H50166   7.852   6.057   3.620 -0.8678 -1.0002  0.6887
  372MOL0     H50167   7.785   6.357   3.553  1.3666  0.5952 -0.5029
  372MOL0     H50168   7.824   6.227   3.445 -1.1186 -1.5499  0.4330
  372MOL0     H50169   7.993   6.421   3.562 -0.4029  1.0720 -0.5093
  372MOL0     H50170   8.025   6.278   3.666  0.4659 -0.6440  0.1829
  372MOL0     H50171   8.032   6.348   3.267  1.0924  0.1386 -0.1265
  372MOL0     H50172   8.264   6.329   3.129  1.0671 -0.0167  1.9993
  372MOL0     H50173   8.346   6.176   3.125  0.5904  1.7149 -1.0439
  372MOL0     H50174   8.063   6.231   3.035  1.7153  2.4506  0.2598
  372MOL0     H50175   8.204   6.202   2.940 -1.0520 -0.6821 -0.2941
  372MOL0     H50176   8.038   5.999   2.961  1.4859  1.3978 -1.3071
  372MOL0     H50177   8.087   5.978   3.124 -0.5281 -3.0554 -1.6121
  372MOL0     H50178   8.228   5.824   3.006  0.1407 -0.8101 -1.7595
  372MOL0     H50179   8.323   5.964   3.060  0.9950 -2.7766  0.2142
  372MOL0     H50180   8.480   5.835   2.996 -1.7920 -2.9543  0.4538
  372MOL0     H50181   8.683   5.756   2.884  0.7990  0.6732  0.0828
  372MOL0     H50182   8.884   5.474   2.613 -0.8514  2.4234  2.1165
  372MOL0     H50183   9.075   5.385   2.480  0.9730 -1.1939  2.2630
  372MOL0     H50184   9.453   5.667   2.505 -2.2514  2.1400  3.3677
  372MOL0     H50185   9.427   5.542   2.626  0.2631 -0.6621 -0.5739
  372MOL0     H50186   9.622   5.472   2.541  1.6054  1.6484 -2.5251
  372MOL0     H50187   9.502   5.370   2.472  1.4920 -0.1963 -0.6986
  372MOL0     H50188   9.658   5.423   2.303 -0.1387 -0.2011 -0.0115
  372MOL0     H50189   9.527   5.536   2.265  1.5180 -0.0243 -0.8455
  372MOL0     H50190   9.789   5.615   2.414 -0.9707  2.0218  2.1686
  372MOL0     H50191   9.653   5.714   2.423  1.8279  2.8104 -1.6877
  372MOL0     H50192   9.767   5.603   2.157  0.2855  0.1578 -0.2994
  372MOL0     H50193   9.843   5.748   2.245 -0.9176  1.8253  2.9210
  372MOL0     H50194   9.556   5.737   2.152  1.3762 -1.8381 -0.2820
  372MOL0     H50195   9.626   5.855   2.246  0.1980 -0.3270  0.2136
  372MOL0     H50196   9.626   5.944   2.018  2.5940  1.8102 -1.9566
  372MOL0     H50197   9.722   5.813   1.956 -2.0488 -1.5824  0.3248
  372MOL0     H50198   9.909   5.874   2.083 -0.4122 -1.2096  3.7064
  372MOL0     H50199   9.846   6.032   2.037  0.9121  1.1941  0.1147
  372MOL0     H50200   9.261   5.771   2.522  2.0073 -1.5312  1.1450
  372MOL0     H50201   9.059   5.857   2.641  3.3172 -0.4681  0.9168
  372MOL0     H50202   8.564   5.954   2.520 -2.6655  2.6835  0.5876
  372MOL0     H50203   8.372   6.042   2.628  1.6589  0.1003 -1.9701
  372MOL0     H50204   7.039   5.755   3.792  2.9061  0.2511  2.8494
  372MOL0     H50205   6.802   5.788   3.823  1.6499 -1.9871 -4.1374
  372MOL0     H50206   6.471   6.090   3.526 -0.5454  1.0845 -0.1738
  372MOL0     H50207   6.234   6.110   3.487  2.9660  1.3392 -0.5796
  372MOL0     H50208   6.027   6.246   3.828  1.0461 -0.5559 -0.5350
  372MOL0     H50209   5.943   6.090   3.874 -0.3403  0.3583 -0.4552
  372MOL0     H50210   5.775   6.107   3.759 -0.7235  0.6714  2.4829
  372MOL0     H50211   5.829   6.217   3.629 -3.7821  0.9016 -0.2695
  372MOL0     H50212   5.740   6.382   3.699 -0.3105 -1.0001 -0.3917
  372MOL0     H50213   5.850   6.384   3.834 -1.5834  1.0510  0.9388
  372MOL0     H50214   5.700   6.235   3.977  2.5029  1.7955  1.2225
  372MOL0     H50215   5.631   6.398   3.937  0.8832  0.1143  1.4559
  372MOL0     H50216   5.368   6.151   3.708 -0.6565  0.8596  1.1406
  372MOL0     H50217   6.171   6.025   3.912  1.2225  0.2754  0.9371
  372MOL0     H50218   6.504   5.903   3.988  0.8917  1.8004  2.8080
  372MOL0     H50219   6.489   6.066   4.018  0.2408 -1.7444  0.2351
  372MOL0     H50220   6.348   5.973   4.052 -1.4405 -1.8567 -1.1676
  373MOL0     O50221   1.401  10.702   3.074  0.2798 -0.5897 -0.3694
  373MOL0     C50222   1.402  10.597   3.008 -0.4612 -0.8243  0.4529
  373MOL0     O50223   1.419  10.593   2.871 -0.3420  0.7794  0.1043
  373MOL0     C50224   1.440  10.712   2.811  0.6004 -0.8613 -0.2076
  373MOL0     C50225   1.336  10.757   2.734  0.7636 -0.2271  0.6097
  373MOL0     C50226   1.334  10.883   2.670 -0.3847 -0.6243 -0.0629
  373MOL0     C50227   1.448  10.966   2.681 -0.2170 -0.8886  0.4922
  373MOL0     O50228   1.446  11.089   2.613  0.1043  0.4270 -0.3787
  373MOL0     C50229   1.427  11.088   2.471  0.5310  0.4318  0.2246
  373MOL0     C50230   1.434  11.222   2.406  0.5067 -0.2920  0.1383
  373MOL0     C50231   1.334  11.326   2.454 -0.3121  0.4510  0.3141
  373MOL0     C50232   1.396  11.422   2.548 -0.3204  0.5501  0.1791
  373MOL0     C50233   1.311  11.539   2.604 -0.2645 -0.3528  0.4256
  373MOL0     C50234   1.394  11.640   2.686  0.8053  0.0656 -1.1266
  373MOL0     C50235   1.484  11.729   2.610 -1.0514 -0.1330  0.6853
  373MOL0     C50236   1.547  11.832   2.698  0.5104  0.2318  0.6894
  373MOL0     N50237   1.447  11.933   2.737 -0.0837  0.2399 -0.3829
  373MOL0     C50238   1.367  11.921   2.848  0.0795  0.6264  0.0625
  373MOL0     C50239   1.298  12.037   2.848 -0.1376  0.3546 -0.0501
  373MOL0     C50240   1.208  12.089   2.962 -0.8378  0.3016  0.2889
  373MOL0     C50241   1.061  12.122   2.937 -0.1684  0.2484 -0.6089
  373MOL0     C50242   1.044  12.225   2.821  0.4202 -0.4457 -0.2310
  373MOL0     C50243   0.891  12.242   2.799  0.2457 -0.6085  0.5822
  373MOL0     O50244   0.814  12.228   2.921  0.1405  0.7072  0.3791
  373MOL0     C50245   0.681  12.221   2.910 -0.0416  0.3616  0.0481
  373MOL0     C50246   0.600  12.265   2.806 -0.5462  0.3670  0.6010
  373MOL0     C50247   0.466  12.243   2.790 -0.1397  0.4080 -0.9421
  373MOL0     C50248   0.391  12.184   2.892 -0.8523  0.2566  0.7053
  373MOL0     C50249   0.247  12.185   2.877 -0.1781 -1.1182 -0.3727
  373MOL0     O50250   0.191  12.082   2.945  0.2475 -0.3865 -0.1906
  373MOL0     C50251   0.054  12.060   2.932  0.3078 -0.5773  0.7074
  373MOL0     C50252  -0.048  12.163   2.924 -0.5848 -0.5496  0.3349
  373MOL0     C50253  -0.189  12.142   2.928 -0.1395 -0.5246 -0.8543
  373MOL0     C50254  -0.235  12.013   2.940 -0.6652 -0.4387 -0.3854
  373MOL0     O50255  -0.366  11.979   2.958  0.8224 -0.7630 -0.0580
  373MOL0     C50256  -0.463  12.078   2.910 -0.2330  0.5913 -0.4437
  373MOL0     C50257  -0.614  12.032   2.926  0.7041  0.2469  0.5066
  373MOL0     C50258  -0.666  12.037   2.781 -0.6904  0.4778  0.3268
  373MOL0     C50259  -0.818  12.013   2.778  0.5247 -1.1758  0.1252
  373MOL0     C50260  -0.896  12.129   2.831 -0.2005 -0.6704  0.5146
  373MOL0     C50261  -1.048  12.114   2.788 -0.3880  0.4104  0.2504
  373MOL0     C50262  -1.139  12.219   2.857 -0.0072 -0.4389  0.3976
  373MOL0     C50263  -1.278  12.201   2.812 -0.1236  0.1492  0.2965
  373MOL0    Cl50264  -1.308  12.221   2.633 -0.1311  0.2706  0.1586
  373MOL0     C50265  -0.135  11.910   2.947 -0.1048  0.3036 -0.1863
  373MOL0     C50266   0.004  11.930   2.936 -0.0968  0.4290 -0.6166
  373MOL0     O50267   0.188  12.270   2.818 -0.4146 -0.3016  0.1097
  373MOL0     C50268   0.468  12.117   2.993  0.1405 -0.0442  0.2737
  373MOL0     C50269   0.610  12.135   3.000 -0.1736  0.2778  0.1727
  373MOL0     N50270   1.347  12.118   2.752  0.0560  0.5312  0.6195
  373MOL0     N50271   1.444  12.056   2.682 -0.3740 -0.3471  0.3847
  373MOL0     C50272   1.558  10.920   2.754 -1.2985  0.0569 -0.0538
  373MOL0     C50273   1.556  10.793   2.810 -0.1162 -1.2130  0.3734
  373MOL0     C50274   1.351  10.476   3.076  0.6439  0.0079 -0.1044
  373MOL0     C50275   1.284  10.490   3.200 -0.2317  0.6542 -0.0111
  373MOL0     C50276   1.243  10.374   3.276  0.3110 -0.6573 -0.3792
  373MOL0     C50277   1.235  10.249   3.212 -0.4517 -0.8196 -1.0472
  373MOL0     O50278   1.197  10.137   3.287 -0.4214  0.8239  0.1882
  373MOL0     C50279   1.260  10.114   3.416 -0.6561  0.4588  0.1030
  373MOL0     C50280   1.167  10.160   3.532 -0.1222 -0.2198  0.2956
  373MOL0     C50281   1.060  10.066   3.573  0.3655 -0.6656  0.2298
  373MOL0     C50282   1.104   9.911   3.572  0.1316  0.2704 -1.0800
  373MOL0     C50283   0.999   9.831   3.629  0.2928  1.4350 -0.8069
  373MOL0     C50284   0.909   9.756   3.676  0.3994 -0.4432 -0.1533
  373MOL0     C50285   1.291  10.239   3.085  0.1037 -0.3730  0.6525
  373MOL0     C50286   1.344  10.351   3.013  0.3672 -0.0219  0.2501
  373MOL0     C50287   1.388  10.316   2.864  0.4226  0.1246  0.4337
  373MOL0     H50288   1.248  10.694   2.720 -0.6890  1.7816  0.2474
  373MOL0     H50289   1.251  10.917   2.607  0.5479 -0.3367 -1.1788
  373MOL0     H50290   1.506  11.025   2.431  0.2940  1.4195 -1.9430
  373MOL0     H50291   1.327  11.053   2.445 -1.0965  1.9157  3.7119
  373MOL0     H50292   1.429  11.222   2.296  0.6683  0.7378  0.1180
  373MOL0     H50293   1.529  11.273   2.422 -0.3048  1.1801  0.4858
  373MOL0     H50294   1.250  11.278   2.506  1.5344  0.2274  3.3406
  373MOL0     H50295   1.292  11.379   2.368 -0.4186  0.0404  0.1092
  373MOL0     H50296   1.430  11.359   2.631  2.7201 -1.5184 -2.3699
  373MOL0     H50297   1.486  11.457   2.496  0.8732 -1.5720  0.7171
  373MOL0     H50298   1.262  11.589   2.520 -2.2285 -3.1666 -0.2601
  373MOL0     H50299   1.231  11.495   2.664 -0.4962 -0.9909 -0.3346
  373MOL0     H50300   1.327  11.704   2.744  1.6628 -1.1294  1.3706
  373MOL0     H50301   1.453  11.583   2.759 -3.6666 -0.1460  2.8895
  373MOL0     H50302   1.419  11.782   2.541  1.4232 -0.8710 -2.4310
  373MOL0     H50303   1.553  11.665   2.554 -1.2661  1.0882 -1.0454
  373MOL0     H50304   1.591  11.779   2.783  2.4216 -1.0875 -1.0262
  373MOL0     H50305   1.629  11.880   2.644  0.8379 -2.8111 -1.7703
  373MOL0     H50306   1.352  11.830   2.906  1.1029 -1.1810 -2.3553
  373MOL0     H50307   1.198  12.014   3.041 -2.5734  1.7848  1.5603
  373MOL0     H50308   1.256  12.178   3.005  0.7078 -0.6370  0.5624
  373MOL0     H50309   1.006  12.030   2.916  1.7108 -0.7993 -1.2282
  373MOL0     H50310   1.034  12.164   3.034  0.4065 -0.4676 -0.1220
  373MOL0     H50311   1.096  12.199   2.729 -0.7359 -0.4350 -0.8980
  373MOL0     H50312   1.087  12.323   2.845 -1.4249 -0.0802  1.9030
  373MOL0     H50313   0.862  12.174   2.718 -1.6563  1.2451 -0.4069
  373MOL0     H50314   0.880  12.348   2.775  3.3019 -0.1578  0.7541
  373MOL0     H50315   0.660  12.318   2.733 -0.0525  0.0137  0.7412
  373MOL0     H50316   0.415  12.288   2.706 -1.8219  0.3535  0.0076
  373MOL0     H50317  -0.024  12.268   2.933 -2.8375 -0.0672  1.6498
  373MOL0     H50318  -0.256  12.228   2.916  1.8709  1.6517  2.1317
  373MOL0     H50319  -0.460  12.170   2.969  0.4436  0.1318  0.2592
  373MOL0     H50320  -0.442  12.101   2.805 -1.1825  4.2012  0.0188
  373MOL0     H50321  -0.627  11.928   2.957 -0.3399 -0.1885 -1.2583
  373MOL0     H50322  -0.672  12.100   2.988  0.1271  1.2246 -1.0450
  373MOL0     H50323  -0.638  12.131   2.734  1.6168  1.5806  3.5781
  373MOL0     H50324  -0.630  11.945   2.733 -0.8727 -0.2823  1.5856
  373MOL0     H50325  -0.851  11.926   2.836  0.6567  0.1999  2.4271
  373MOL0     H50326  -0.839  11.995   2.673  2.1067  0.1183 -0.4528
  373MOL0     H50327  -0.858  12.224   2.791  0.6816 -0.6260  1.4202
  373MOL0     H50328  -0.892  12.136   2.940  2.6068  0.1905  0.4294
  373MOL0     H50329  -1.071  12.112   2.681 -0.2591 -0.6245  0.2329
  373MOL0     H50330  -1.081  12.013   2.815 -0.8882  0.5932  0.3318
  373MOL0     H50331  -1.109  12.321   2.832 -3.8664  0.6249 -0.6457
  373MOL0     H50332  -1.129  12.194   2.963  0.9367 -0.0519  0.4104
  373MOL0     H50333  -1.300  12.102   2.854  1.2831  0.2539  1.3338
  373MOL0     H50334  -1.347  12.271   2.862  0.1716 -0.3686  1.4655
  373MOL0     H50335  -0.161  11.806   2.961  1.3815 -0.2608 -1.3182
  373MOL0     H50336   0.068  11.843   2.950 -2.6738 -1.4969 -0.0450
  373MOL0     H50337   0.428  12.038   3.055  0.3691 -0.0223  0.4509
  373MOL0     H50338   0.660  12.075   3.075  2.5717 -1.2253 -2.6103
  373MOL0     H50339   1.649  10.979   2.761 -3.1018  2.7978  2.6270
  373MOL0     H50340   1.641  10.761   2.869 -1.1291  0.1308  2.7314
  373MOL0     H50341   1.283  10.593   3.232 -0.7351 -0.2355  3.2057
  373MOL0     H50342   1.207  10.403   3.374 -2.2007 -0.2818 -1.3372
  373MOL0     H50343   1.346  10.179   3.432 -1.9306  1.8653  1.5930
  373MOL0     H50344   1.300  10.013   3.431 -0.8286  0.0750 -1.7238
  373MOL0     H50345   1.117  10.254   3.507 -0.5093 -0.4266  0.2873
  373MOL0     H50346   1.216  10.180   3.628 -4.2933 -0.6549  2.7765
  373MOL0     H50347   0.968  10.080   3.517 -0.7376  1.9546  2.4848
  373MOL0     H50348   1.028  10.083   3.676 -0.6263  0.9855 -0.3167
  373MOL0     H50349   1.132   9.867   3.476 -2.1764 -2.7723 -0.4919
  373MOL0     H50350   1.195   9.906   3.634 -1.0984 -1.2221  0.7181
  373MOL0     H50351   0.835   9.689   3.717 -1.4633  1.2055 -0.6519
  373MOL0     H50352   1.278  10.142   3.037  0.1364 -2.1233  3.9231
  373MOL0     H50353   1.488  10.354   2.843  0.3308  0.7550  1.1344
  373MOL0     H50354   1.379  10.207   2.850 -2.0597  0.5277 -2.0087
  373MOL0     H50355   1.315  10.367   2.801 -0.9455 -3.7566 -1.4959
  374MOL0     O50356   9.473   3.208   4.859  0.2254 -0.3446 -0.2301
  374MOL0     C50357   9.489   3.106   4.926  0.3255 -0.5420 -0.3622
  374MOL0     O50358   9.407   2.992   4.921  0.0751  0.2968  0.4485
  374MOL0     C50359   9.316   2.963   4.816  0.2405 -0.2064 -0.4533
  374MOL0     C50360   9.245   2.849   4.845 -0.3816  0.0702 -0.2210
  374MOL0     C50361   9.171   2.787   4.744  0.0351  0.2026  0.4095
  374MOL0     C50362   9.163   2.832   4.615  0.2098 -0.3194  0.6598
  374MOL0     O50363   9.072   2.779   4.518 -0.4700 -0.4459  0.3014
  374MOL0     C50364   9.007   2.656   4.547  0.2772  0.3319 -0.0874
  374MOL0     C50365   8.947   2.585   4.426  0.2959 -1.1266 -0.0275
  374MOL0     C50366   8.814   2.648   4.375 -0.8226  0.6887  0.9179
  374MOL0     C50367   8.692   2.616   4.457 -0.2404 -0.6096  0.7446
  374MOL0     C50368   8.559   2.691   4.413  0.1585  0.3682 -0.5886
  374MOL0     C50369   8.505   2.658   4.285  0.4399 -0.4042  0.2007
  374MOL0     C50370   8.379   2.732   4.234  0.8297 -0.0082 -0.0784
  374MOL0     C50371   8.358   2.698   4.086  0.6473  0.4249 -0.4465
  374MOL0     N50372   8.221   2.709   4.057 -0.6813  0.9136  0.6711
  374MOL0     C50373   8.155   2.819   4.009 -0.1249 -0.4384 -0.5675
  374MOL0     C50374   8.022   2.788   4.008 -0.0627 -0.3957 -0.4587
  374MOL0     C50375   7.914   2.882   3.979  0.4049 -0.5322 -0.4639
  374MOL0     C50376   7.801   2.864   4.080  0.7651 -0.2971 -0.2576
  374MOL0     C50377   7.695   2.981   4.053 -0.4963  0.6646 -0.1772
  374MOL0     C50378   7.558   2.953   4.115 -0.0954  0.0099  0.3507
  374MOL0     O50379   7.574   2.951   4.256  1.3019 -0.4080 -0.3323
  374MOL0     C50380   7.475   2.894   4.332 -0.1888 -0.5471  0.0081
  374MOL0     C50381   7.366   2.967   4.358 -0.2690 -0.5877 -1.5598
  374MOL0     C50382   7.262   2.912   4.440 -0.3061 -0.1695 -0.2048
  374MOL0     C50383   7.262   2.780   4.485  0.3777  0.1910  0.0674
  374MOL0     C50384   7.156   2.723   4.568 -0.0702  0.1897 -0.2004
  374MOL0     O50385   7.046   2.805   4.592 -1.0736 -0.0772 -0.2151
  374MOL0     C50386   6.928   2.751   4.635 -0.4574 -0.3739 -1.2198
  374MOL0     C50387   6.852   2.843   4.706  0.6190  0.2695  0.5702
  374MOL0     C50388   6.736   2.796   4.769 -0.3437 -0.0945 -1.1626
  374MOL0     C50389   6.690   2.666   4.760 -0.4943 -0.1384 -0.1571
  374MOL0     O50390   6.579   2.621   4.826  0.1308  0.2222  0.1052
  374MOL0     C50391   6.557   2.489   4.864 -0.6183 -0.2733 -0.0143
  374MOL0     C50392   6.414   2.447   4.853  0.3839 -0.3668 -0.1556
  374MOL0     C50393   6.394   2.430   4.700  0.8704  0.4166  0.1594
  374MOL0     C50394   6.246   2.402   4.683  0.1130 -0.5980 -0.7659
  374MOL0     C50395   6.225   2.329   4.547 -0.2218 -0.5643 -1.1704
  374MOL0     C50396   6.078   2.282   4.530  0.3031 -0.0868 -0.2646
  374MOL0     C50397   6.055   2.258   4.377 -0.8778  0.1499 -0.6075
  374MOL0     C50398   6.090   2.117   4.334  0.0272 -0.3149 -0.9415
  374MOL0    Cl50399   5.960   1.988   4.383  0.2932 -0.7103 -0.0730
  374MOL0     C50400   6.759   2.586   4.671  0.2308  0.4406 -0.9311
  374MOL0     C50401   6.877   2.627   4.602 -0.3937  0.1925  0.0770
  374MOL0     O50402   7.184   2.617   4.622 -0.2928 -0.1601 -0.2918
  374MOL0     C50403   7.378   2.705   4.452  0.6475 -0.3405 -0.4719
  374MOL0     C50404   7.484   2.765   4.378  0.3485  1.0141  0.7473
  374MOL0     N50405   8.006   2.663   4.050 -0.3749  0.6120  0.0750
  374MOL0     N50406   8.131   2.614   4.082 -0.0591  0.0116 -0.7267
  374MOL0     C50407   9.225   2.959   4.586  0.2266 -0.1220  0.0226
  374MOL0     C50408   9.297   3.021   4.689 -0.6299 -0.2720  0.6753
  374MOL0     C50409   9.592   3.119   5.024  0.4170 -0.3937  0.1194
  374MOL0     C50410   9.597   3.230   5.110 -0.6178  0.1335 -0.4669
  374MOL0     C50411   9.690   3.242   5.217  1.1134  0.3770  1.0860
  374MOL0     C50412   9.802   3.155   5.205  0.6750 -1.2791 -0.0821
  374MOL0     O50413   9.905   3.175   5.292 -0.7029 -0.4385  0.0782
  374MOL0     C50414   9.907   3.295   5.374 -0.4622 -0.2356  0.0294
  374MOL0     C50415  10.029   3.288   5.468 -0.5417  0.3390 -0.7914
  374MOL0     C50416  10.159   3.312   5.379  0.1197  0.4583  0.9640
  374MOL0     C50417  10.259   3.417   5.417  0.3411 -0.6455 -0.3819
  374MOL0     C50418  10.392   3.367   5.364  0.1474 -0.5172 -0.5566
  374MOL0     C50419  10.496   3.325   5.315 -0.5167  0.0780 -0.1234
  374MOL0     C50420   9.794   3.045   5.113 -0.7149 -0.5520 -0.7004
  374MOL0     C50421   9.683   3.018   5.034  0.5433  0.5090  0.4747
  374MOL0     C50422   9.677   2.895   4.947  0.4249  0.2791  0.2933
  374MOL0     H50423   9.246   2.782   4.931  1.1744 -0.5058 -0.6679
  374MOL0     H50424   9.117   2.695   4.766  1.6124 -0.6235  1.0521
  374MOL0     H50425   9.070   2.583   4.597  0.4736  0.8116  0.3777
  374MOL0     H50426   8.927   2.689   4.615  0.7960 -0.1711  0.7767
  374MOL0     H50427   8.936   2.481   4.457  3.2525 -1.6373 -0.4285
  374MOL0     H50428   9.026   2.581   4.351  0.5840 -0.0724  0.1962
  374MOL0     H50429   8.803   2.625   4.269 -3.6127  2.8638  0.6261
  374MOL0     H50430   8.833   2.755   4.384 -2.0281  0.8394  1.9292
  374MOL0     H50431   8.672   2.509   4.468  0.1490 -0.5335  2.4545
  374MOL0     H50432   8.720   2.645   4.558 -0.4727 -3.5990  1.7608
  374MOL0     H50433   8.484   2.673   4.491 -0.0235 -2.8869 -1.3854
  374MOL0     H50434   8.579   2.799   4.416  2.4822 -0.0147  1.7735
  374MOL0     H50435   8.592   2.668   4.218  1.0392 -1.6560  0.7603
  374MOL0     H50436   8.482   2.552   4.298  2.4336 -0.7844  1.0882
  374MOL0     H50437   8.385   2.840   4.250 -7.2276  0.7106  1.9284
  374MOL0     H50438   8.288   2.713   4.292 -0.6351 -1.7812 -2.7548
  374MOL0     H50439   8.418   2.769   4.029  1.9394  0.3145  0.7045
  374MOL0     H50440   8.392   2.596   4.067 -0.1048 -0.3208  1.8066
  374MOL0     H50441   8.194   2.920   4.002  0.8231 -0.8360 -1.1592
  374MOL0     H50442   7.955   2.980   4.003  1.5503 -1.0027 -0.3854
  374MOL0     H50443   7.886   2.870   3.874 -0.5190  1.5507 -0.4894
  374MOL0     H50444   7.745   2.770   4.078  0.6076 -0.1900 -1.1020
  374MOL0     H50445   7.834   2.871   4.184 -1.1027  0.3735  0.3189
  374MOL0     H50446   7.687   2.995   3.945 -0.7069 -1.9154 -0.5702
  374MOL0     H50447   7.731   3.071   4.103 -0.9052  0.3680  0.6872
  374MOL0     H50448   7.515   2.858   4.081 -3.3918  1.1460  0.9264
  374MOL0     H50449   7.489   3.028   4.075  1.6276  0.1252 -2.6953
  374MOL0     H50450   7.354   3.068   4.320 -1.5068 -0.4465 -0.8605
  374MOL0     H50451   7.179   2.976   4.467  0.6393  0.3842  1.4880
  374MOL0     H50452   6.879   2.945   4.730 -3.4176  1.3602  1.1852
  374MOL0     H50453   6.704   2.864   4.848  0.8249 -0.2731 -0.5141
  374MOL0     H50454   6.619   2.418   4.808 -0.9199  0.5692 -1.4807
  374MOL0     H50455   6.586   2.492   4.969  0.0332  1.9704 -0.2177
  374MOL0     H50456   6.393   2.358   4.914  0.2682  0.4538  1.0541
  374MOL0     H50457   6.344   2.527   4.878 -0.0392 -0.8833  0.3555
  374MOL0     H50458   6.412   2.518   4.637 -1.6032  0.1384 -1.0525
  374MOL0     H50459   6.456   2.343   4.675  0.2166 -0.9329  2.8303
  374MOL0     H50460   6.186   2.493   4.691  1.2223 -0.0168  2.9574
  374MOL0     H50461   6.221   2.333   4.764  3.1661 -0.4964  0.4119
  374MOL0     H50462   6.291   2.243   4.540  1.3894  0.4996  0.1058
  374MOL0     H50463   6.238   2.405   4.469 -3.8828 -1.0859 -2.4833
  374MOL0     H50464   6.058   2.194   4.591  3.9795 -1.0941 -0.2665
  374MOL0     H50465   6.009   2.360   4.564 -0.6026 -0.6523 -0.7769
  374MOL0     H50466   6.121   2.324   4.320 -1.1486 -1.4640 -2.9458
  374MOL0     H50467   5.954   2.284   4.343 -0.7162  1.3107 -0.2375
  374MOL0     H50468   6.102   2.124   4.225  0.9054  1.2357 -0.7825
  374MOL0     H50469   6.192   2.104   4.373 -0.7865  0.5889  1.6518
  374MOL0     H50470   6.729   2.484   4.650  0.6991  0.4071 -1.4600
  374MOL0     H50471   6.933   2.563   4.535 -0.2623  0.3812  0.0066
  374MOL0     H50472   7.390   2.608   4.497  3.7819  0.1179 -0.1083
  374MOL0     H50473   7.572   2.706   4.356 -0.1625  0.0114  1.3251
  374MOL0     H50474   9.196   3.015   4.498  0.4970  1.6725  1.0360
  374MOL0     H50475   9.353   3.112   4.670 -2.7052  0.8983 -0.0935
  374MOL0     H50476   9.512   3.295   5.094 -2.1884 -1.9623 -1.1414
  374MOL0     H50477   9.690   3.329   5.282  1.2847 -0.4781  2.2722
  374MOL0     H50478   9.821   3.296   5.442 -1.1331 -3.0672 -0.6506
  374MOL0     H50479   9.905   3.383   5.309 -1.3888  0.9156  1.5403
  374MOL0     H50480  10.041   3.189   5.514 -1.1363 -0.6543 -2.6588
  374MOL0     H50481  10.017   3.359   5.550 -0.4649 -0.9663  0.4035
  374MOL0     H50482  10.136   3.338   5.275 -1.0745 -2.6715  0.3137
  374MOL0     H50483  10.217   3.219   5.379  2.4210  1.6129  5.6612
  374MOL0     H50484  10.242   3.514   5.369 -0.2391 -0.9384 -0.7892
  374MOL0     H50485  10.261   3.434   5.525 -0.1360  0.1468 -0.4941
  374MOL0     H50486  10.579   3.267   5.279 -0.7042  1.1574 -2.4723
  374MOL0     H50487   9.882   2.982   5.114 -0.9691 -0.8981 -0.2052
  374MOL0     H50488   9.606   2.821   4.985  0.0713 -0.0630 -0.9809
  374MOL0     H50489   9.659   2.908   4.840  3.2005 -0.7910 -0.4132
  374MOL0     H50490   9.778   2.853   4.954 -0.8992 -3.1639  0.9591
  375MOL0     O50491   6.882   4.116   7.997 -0.3369 -1.2618 -0.5017
  375MOL0     C50492   6.935   4.207   7.933  0.7456  0.4227 -0.4837
  375MOL0     O50493   7.070   4.231   7.934  0.0698 -0.0354  0.1464
  375MOL0     C50494   7.166   4.142   7.976  0.4005 -0.0243 -0.3386
  375MOL0     C50495   7.159   4.000   7.968  0.3016 -0.8197  0.5779
  375MOL0     C50496   7.273   3.933   8.003  0.5789 -0.5115 -0.0823
  375MOL0     C50497   7.385   3.994   8.056 -0.2334 -0.7102  0.1791
  375MOL0     O50498   7.498   3.926   8.082  0.5014  0.3331 -0.1473
  375MOL0     C50499   7.491   3.861   8.216  0.4327 -0.3854  1.8594
  375MOL0     C50500   7.631   3.848   8.288  0.3477  0.5489 -0.2644
  375MOL0     C50501   7.709   3.982   8.292 -0.0109  0.2285  0.3636
  375MOL0     C50502   7.814   3.979   8.400 -0.5134 -0.0120 -0.1646
  375MOL0     C50503   7.909   4.091   8.397 -0.4012 -0.5152 -0.4629
  375MOL0     C50504   8.023   4.070   8.298  0.2231  1.2480 -0.7648
  375MOL0     C50505   8.127   4.177   8.316 -0.1318 -0.7133  0.8964
  375MOL0     C50506   8.221   4.190   8.190 -0.0904 -0.9648 -1.1379
  375MOL0     N50507   8.330   4.096   8.196 -0.0267  0.3828  0.7039
  375MOL0     C50508   8.312   3.969   8.162 -0.2482  1.1172  0.6277
  375MOL0     C50509   8.426   3.901   8.183  0.4424  0.8866  0.8056
  375MOL0     C50510   8.446   3.755   8.187 -0.0457  0.8071  0.9514
  375MOL0     C50511   8.590   3.712   8.237  0.2397 -0.0879 -1.0372
  375MOL0     C50512   8.606   3.730   8.389  0.0280 -0.0613  0.3386
  375MOL0     C50513   8.734   3.813   8.405  0.3374 -0.0914  0.0603
  375MOL0     O50514   8.739   3.852   8.538 -0.5521 -0.2340 -0.0217
  375MOL0     C50515   8.643   3.945   8.575 -0.2801  0.0622 -0.3552
  375MOL0     C50516   8.611   4.054   8.503 -0.0351 -1.1022 -0.3821
  375MOL0     C50517   8.489   4.123   8.537  0.1512 -0.2497 -0.5644
  375MOL0     C50518   8.422   4.092   8.655 -0.8679  0.6709 -0.2363
  375MOL0     C50519   8.296   4.172   8.690  0.0989 -0.1693 -0.2211
  375MOL0     O50520   8.206   4.124   8.776 -0.3444  0.0276  1.0421
  375MOL0     C50521   8.078   4.174   8.782  0.2703 -0.2331 -0.1609
  375MOL0     C50522   8.004   4.265   8.702  0.3896  0.0561  0.2036
  375MOL0     C50523   7.866   4.281   8.729  0.2969  0.8549  0.8004
  375MOL0     C50524   7.801   4.213   8.829 -0.6052  0.0912 -0.0658
  375MOL0     O50525   7.666   4.217   8.863  0.4240  0.5821  0.5575
  375MOL0     C50526   7.597   4.342   8.829  0.0446  0.2856  0.1653
  375MOL0     C50527   7.452   4.342   8.894 -0.4740  0.8651 -0.1755
  375MOL0     C50528   7.464   4.324   9.047  0.5217 -0.1027  0.3071
  375MOL0     C50529   7.449   4.181   9.103  0.4244 -1.0470  0.4599
  375MOL0     C50530   7.469   4.182   9.253  0.5123  0.8580  0.2342
  375MOL0     C50531   7.482   4.046   9.329  0.3720  0.0343  0.0052
  375MOL0     C50532   7.356   3.970   9.375  0.2277 -1.0459  0.5319
  375MOL0     C50533   7.260   3.917   9.275 -0.4086  0.5127 -0.2978
  375MOL0    Cl50534   7.346   3.816   9.163 -0.1345  0.1018 -0.1891
  375MOL0     C50535   7.879   4.131   8.905  0.7481  0.6455 -0.2644
  375MOL0     C50536   8.011   4.105   8.878 -0.7213  0.4241  0.2991
  375MOL0     O50537   8.274   4.266   8.620  0.1184 -0.7621  0.2233
  375MOL0     C50538   8.459   3.973   8.728  0.0258  0.5307  0.3533
  375MOL0     C50539   8.576   3.909   8.695  0.1559 -0.4518  0.2927
  375MOL0     N50540   8.525   3.997   8.198 -0.4734 -0.4466  0.8290
  375MOL0     N50541   8.465   4.114   8.206 -0.0343 -0.1515 -0.2720
  375MOL0     C50542   7.395   4.136   8.056  0.6207 -0.3907  0.0956
  375MOL0     C50543   7.282   4.210   8.022  0.2042  0.2228  1.1836
  375MOL0     C50544   6.851   4.286   7.838  0.3795 -0.7973 -0.3724
  375MOL0     C50545   6.757   4.215   7.765  0.8687  0.9106  0.3512
  375MOL0     C50546   6.685   4.284   7.663  1.0226  0.1249 -0.5487
  375MOL0     C50547   6.707   4.421   7.634  0.5019 -0.3065  0.8182
  375MOL0     O50548   6.643   4.496   7.530  0.1166  0.5590 -0.3815
  375MOL0     C50549   6.554   4.428   7.452  0.4015  0.0049  0.1315
  375MOL0     C50550   6.493   4.510   7.338  0.2780 -0.1271  0.4692
  375MOL0     C50551   6.431   4.640   7.399 -0.0260 -0.4059  0.8087
  375MOL0     C50552   6.344   4.702   7.290  0.7093 -0.4535  0.2936
  375MOL0     C50553   6.300   4.831   7.324 -0.2983  1.2575  0.2485
  375MOL0     C50554   6.237   4.934   7.351  0.7436  0.1698 -0.0726
  375MOL0     C50555   6.790   4.492   7.722  0.0606  0.2801  0.6008
  375MOL0     C50556   6.879   4.418   7.804 -0.4749  0.7240 -0.4731
  375MOL0     C50557   6.987   4.495   7.878 -0.1836  0.1542 -0.1551
  375MOL0     H50558   7.068   3.954   7.931 -0.1670 -0.6547  1.5025
  375MOL0     H50559   7.269   3.825   8.015 -0.3210 -0.3214  1.7373
  375MOL0     H50560   7.426   3.922   8.280 -1.2917  0.4384 -0.5310
  375MOL0     H50561   7.437   3.766   8.208  0.4047 -0.1852 -2.4057
  375MOL0     H50562   7.698   3.777   8.239  1.9358  0.9240  1.2750
  375MOL0     H50563   7.607   3.834   8.394  0.2668  2.3571 -0.0173
  375MOL0     H50564   7.640   4.067   8.299  0.3997  0.8676 -2.1281
  375MOL0     H50565   7.765   3.995   8.199  1.6000  0.2837  1.3020
  375MOL0     H50566   7.768   3.969   8.499 -2.8420 -1.6347 -1.3214
  375MOL0     H50567   7.879   3.895   8.377  0.9065  0.9507  0.2099
  375MOL0     H50568   7.867   4.189   8.371 -0.5572 -0.7009 -0.9233
  375MOL0     H50569   7.957   4.106   8.494 -0.8771 -2.6743  0.1515
  375MOL0     H50570   8.061   3.970   8.321 -1.3283  0.9485  0.6603
  375MOL0     H50571   7.989   4.075   8.194  0.9625  1.8476 -0.9875
  375MOL0     H50572   8.191   4.155   8.402  0.5740 -0.3093  0.4881
  375MOL0     H50573   8.076   4.272   8.330 -1.0581 -0.8469 -1.1412
  375MOL0     H50574   8.167   4.181   8.095 -2.3379  0.0276 -0.0355
  375MOL0     H50575   8.263   4.291   8.192 -0.2058 -0.8244  2.8083
  375MOL0     H50576   8.211   3.930   8.155 -0.4484  1.6725  0.3582
  375MOL0     H50577   8.363   3.708   8.241 -1.1418 -1.1162 -2.1604
  375MOL0     H50578   8.448   3.710   8.087 -2.1100 -0.5783  1.4586
  375MOL0     H50579   8.601   3.606   8.214  3.3537  0.0592 -0.5928
  375MOL0     H50580   8.668   3.770   8.187 -0.5774  3.7145  1.6801
  375MOL0     H50581   8.626   3.633   8.436  1.8118 -0.1035 -0.4254
  375MOL0     H50582   8.512   3.765   8.433  0.0498 -1.2022  1.3397
  375MOL0     H50583   8.736   3.908   8.350  2.3371  0.1062  0.3955
  375MOL0     H50584   8.822   3.754   8.379  0.5769  1.2426 -2.5192
  375MOL0     H50585   8.661   4.091   8.414 -0.0194  1.5079  0.6354
  375MOL0     H50586   8.460   4.218   8.492 -2.4475 -0.4371  0.5240
  375MOL0     H50587   8.051   4.308   8.614  1.0549 -3.9359 -1.6145
  375MOL0     H50588   7.811   4.354   8.671  0.0267 -0.7615 -1.1035
  375MOL0     H50589   7.663   4.419   8.871  1.8620 -1.4262  0.5959
  375MOL0     H50590   7.586   4.357   8.722 -2.8570  2.7136  0.6489
  375MOL0     H50591   7.389   4.425   8.862  0.0250 -0.3221 -4.8492
  375MOL0     H50592   7.403   4.253   8.855 -0.4954  0.7298  0.1610
  375MOL0     H50593   7.561   4.360   9.081 -0.6830  1.8463  1.9303
  375MOL0     H50594   7.386   4.389   9.087  0.3423 -0.9509  1.3711
  375MOL0     H50595   7.518   4.114   9.051 -0.6369 -1.9158  0.1235
  375MOL0     H50596   7.347   4.142   9.094  0.2900 -1.0194  1.7200
  375MOL0     H50597   7.376   4.224   9.291  0.0466 -0.9965  1.2414
  375MOL0     H50598   7.547   4.247   9.293 -0.6715  3.0009 -0.7837
  375MOL0     H50599   7.551   3.974   9.284  0.6249 -0.5078  1.2386
  375MOL0     H50600   7.541   4.080   9.415 -0.7546  0.2161  0.7143
  375MOL0     H50601   7.299   4.034   9.443  1.2509  3.7271 -2.5364
  375MOL0     H50602   7.394   3.883   9.429  1.1272 -2.1283 -1.7217
  375MOL0     H50603   7.189   3.857   9.332 -1.4246 -0.1227 -2.1461
  375MOL0     H50604   7.216   3.994   9.210  0.2815  2.4776  1.4675
  375MOL0     H50605   7.827   4.077   8.984  2.5033  1.0748  1.2364
  375MOL0     H50606   8.061   4.026   8.935 -1.3566 -0.2929 -0.1225
  375MOL0     H50607   8.399   3.939   8.812  1.4297 -0.8468  0.8283
  375MOL0     H50608   8.597   3.820   8.754 -3.5515 -0.9406  1.1390
  375MOL0     H50609   7.487   4.188   8.079  1.1596 -0.0261 -2.5703
  375MOL0     H50610   7.277   4.318   8.014 -1.6937  0.1156  0.2843
  375MOL0     H50611   6.735   4.113   7.796 -0.9734  0.8301 -1.0896
  375MOL0     H50612   6.604   4.229   7.616  2.4272 -1.5030 -1.1491
  375MOL0     H50613   6.474   4.400   7.520 -0.2057  3.7699  1.1797
  375MOL0     H50614   6.595   4.344   7.395  2.1287  1.2219 -0.4931
  375MOL0     H50615   6.421   4.458   7.274 -1.9806  3.8711 -0.5649
  375MOL0     H50616   6.577   4.554   7.283  0.6124 -2.3823 -0.9679
  375MOL0     H50617   6.515   4.707   7.416  0.2377  0.2684 -2.3910
  375MOL0     H50618   6.375   4.629   7.492 -1.5698  0.0222 -0.0341
  375MOL0     H50619   6.377   4.721   7.187 -1.9201 -0.5403 -0.6377
  375MOL0     H50620   6.256   4.639   7.279  0.5422  0.2152 -4.2904
  375MOL0     H50621   6.193   5.025   7.388  3.1821  0.5100  2.3097
  375MOL0     H50622   6.788   4.600   7.715  0.5847  0.1943 -1.8073
  375MOL0     H50623   6.969   4.602   7.869  2.8144  0.6755 -1.0787
  375MOL0     H50624   6.976   4.469   7.983 -2.3989  0.3921 -0.2765
  375MOL0     H50625   7.083   4.476   7.828 -1.0589 -1.4567 -1.3304
  376MOL0     O50626   8.722   0.222  10.686  0.8086  0.1024  0.2454
  376MOL0     C50627   8.597   0.245  10.670 -0.0920  0.6897 -0.0508
  376MOL0     O50628   8.528   0.260  10.556 -0.0093  1.2879  0.3046
  376MOL0     C50629   8.621   0.276  10.460  0.2917 -0.3386  0.2525
  376MOL0     C50630   8.710   0.386  10.450  0.1238  0.0534 -0.9490
  376MOL0     C50631   8.793   0.404  10.339  0.5615  0.4327 -0.7869
  376MOL0     C50632   8.806   0.301  10.244 -0.5290  0.2614  0.9315
  376MOL0     O50633   8.908   0.281  10.151 -0.0334  0.4407  0.3465
  376MOL0     C50634   9.000   0.379  10.114  0.6216  0.1174  0.2740
  376MOL0     C50635   9.115   0.307  10.030 -0.1447  0.4721  0.0897
  376MOL0     C50636   9.222   0.395   9.967  0.0398 -0.5442 -0.2254
  376MOL0     C50637   9.294   0.333   9.847  0.4896  0.0410 -0.0875
  376MOL0     C50638   9.373   0.211   9.889 -0.4345 -0.5395 -0.3697
  376MOL0     C50639   9.470   0.158   9.785  0.4981  0.1039 -0.2009
  376MOL0     C50640   9.491   0.007   9.775  0.3439  0.1924  0.1985
  376MOL0     C50641   9.614  -0.010   9.678 -0.5501 -0.1034 -0.8064
  376MOL0     N50642   9.739  -0.042   9.763  0.1538 -0.0592  0.0658
  376MOL0     C50643   9.770  -0.159   9.830  0.6727  0.4493  1.0877
  376MOL0     C50644   9.900  -0.142   9.872 -0.6843 -0.1479 -0.2428
  376MOL0     C50645   9.985  -0.248   9.943 -0.3487  0.4199  0.6197
  376MOL0     C50646   9.976  -0.273  10.093 -0.3303  0.2714  0.5331
  376MOL0     C50647  10.010  -0.138  10.173  0.7857  0.6332 -0.0473
  376MOL0     C50648  10.063  -0.172  10.318  0.0495 -0.3564  0.3791
  376MOL0     O50649  10.185  -0.252  10.315 -0.3016  0.0296 -0.4990
  376MOL0     C50650  10.275  -0.264  10.422  0.2504 -0.5241  0.0293
  376MOL0     C50651  10.386  -0.344  10.404  0.7959 -0.9485  1.0156
  376MOL0     C50652  10.477  -0.369  10.506 -0.8896  0.1781 -0.6173
  376MOL0     C50653  10.464  -0.290  10.619 -0.0773 -0.2038  0.2913
  376MOL0     C50654  10.542  -0.322  10.739  0.3204 -0.3550 -0.3681
  376MOL0     O50655  10.578  -0.218  10.827  0.4082 -0.3788 -0.4306
  376MOL0     C50656  10.654  -0.236  10.940  0.6235 -0.2701  0.1959
  376MOL0     C50657  10.675  -0.357  11.013  0.2421  0.0105 -0.5173
  376MOL0     C50658  10.772  -0.357  11.118  1.0994  0.9693 -0.3059
  376MOL0     C50659  10.830  -0.234  11.161  1.2160 -0.4066 -0.0517
  376MOL0     O50660  10.913  -0.237  11.273 -0.0020  0.2921  0.1308
  376MOL0     C50661  10.928  -0.125  11.361 -0.9900  0.2520  0.3162
  376MOL0     C50662  11.029  -0.163  11.480 -0.1292  0.2905  0.1180
  376MOL0     C50663  11.173  -0.204  11.439  0.2396  0.3717  0.4995
  376MOL0     C50664  11.268  -0.091  11.433  0.0116  0.2623 -0.2025
  376MOL0     C50665  11.370  -0.132  11.325 -0.3825 -0.3969 -0.2730
  376MOL0     C50666  11.500  -0.078  11.372  0.0004  0.7204  0.3860
  376MOL0     C50667  11.613  -0.143  11.291  0.4971  0.4500  0.7702
  376MOL0     C50668  11.754  -0.088  11.327 -0.1478  0.1658  0.1267
  376MOL0    Cl50669  11.843  -0.175  11.442 -0.0233  0.1173 -0.4615
  376MOL0     C50670  10.806  -0.119  11.092 -0.4716  0.5733  0.9264
  376MOL0     C50671  10.715  -0.113  10.989 -0.3051  0.1373  0.7793
  376MOL0     O50672  10.575  -0.442  10.752  0.7074 -0.4692 -0.0416
  376MOL0     C50673  10.359  -0.201  10.637 -0.3974  0.0436  0.1636
  376MOL0     C50674  10.255  -0.194  10.542 -0.3454  0.4128 -0.3262
  376MOL0     N50675   9.939  -0.015   9.851  0.0659 -0.6209  0.5765
  376MOL0     N50676   9.841   0.044   9.780 -0.3097 -0.2883  0.9057
  376MOL0     C50677   8.720   0.190  10.258 -0.6120 -0.5162  0.0087
  376MOL0     C50678   8.636   0.177  10.369 -0.2909 -0.0058 -0.2667
  376MOL0     C50679   8.504   0.245  10.785  0.4038 -0.5328  0.1724
  376MOL0     C50680   8.428   0.364  10.811 -0.3565  0.1112  0.2806
  376MOL0     C50681   8.341   0.369  10.921  0.2592 -0.0809 -0.3715
  376MOL0     C50682   8.331   0.258  11.002 -0.0731 -0.5921  1.0039
  376MOL0     O50683   8.240   0.267  11.104  0.1691  0.0664 -0.5138
  376MOL0     C50684   8.288   0.194  11.214  1.0499  0.8587 -0.4170
  376MOL0     C50685   8.203   0.231  11.333  0.1843 -0.5048 -0.2727
  376MOL0     C50686   8.267   0.199  11.474  0.0211  0.1632  0.3676
  376MOL0     C50687   8.298   0.054  11.495  0.1228  0.2956 -0.7326
  376MOL0     C50688   8.172  -0.029  11.477 -0.7553  0.1012  0.7046
  376MOL0     C50689   8.067  -0.095  11.463 -0.4870 -0.2905 -1.0402
  376MOL0     C50690   8.393   0.133  10.966  0.2724  0.2819  0.7703
  376MOL0     C50691   8.476   0.130  10.855  0.6458 -0.1914 -0.0351
  376MOL0     C50692   8.538   0.002  10.804  0.3723 -0.3693 -1.1482
  376MOL0     H50693   8.716   0.471  10.518  0.9405 -0.8452  0.1428
  376MOL0     H50694   8.875   0.474  10.348  0.3461  0.6212 -0.2477
  376MOL0     H50695   8.947   0.452  10.053 -0.0320  1.3458  2.2158
  376MOL0     H50696   9.046   0.430  10.199  0.4655  0.6762  0.0260
  376MOL0     H50697   9.064   0.256   9.948 -0.4795 -0.3141  0.7729
  376MOL0     H50698   9.163   0.225  10.083 -1.6891 -1.0033 -0.7073
  376MOL0     H50699   9.301   0.422  10.037  0.0174  3.5126 -1.5455
  376MOL0     H50700   9.187   0.492   9.930  1.0076 -0.4266 -0.8556
  376MOL0     H50701   9.219   0.301   9.774 -1.0894  1.3245  0.9050
  376MOL0     H50702   9.352   0.411   9.795 -0.7000  0.3826 -0.9722
  376MOL0     H50703   9.437   0.233   9.974  0.2878  1.6603 -1.4182
  376MOL0     H50704   9.304   0.128   9.910 -0.3953 -0.4853 -0.0322
  376MOL0     H50705   9.444   0.197   9.686  2.3575  0.8059 -0.4614
  376MOL0     H50706   9.571   0.195   9.808 -0.0629  1.2371  0.4899
  376MOL0     H50707   9.397  -0.043   9.747  0.5299  0.1054 -0.2701
  376MOL0     H50708   9.511  -0.032   9.875 -1.0573  3.0593  1.7255
  376MOL0     H50709   9.605  -0.090   9.603  1.3970  0.2744 -1.4996
  376MOL0     H50710   9.623   0.083   9.621 -1.4067  0.1359 -0.5601
  376MOL0     H50711   9.708  -0.247   9.846  3.3834 -1.5086  1.4490
  376MOL0     H50712   9.941  -0.339   9.900 -0.5311 -0.6098  2.8843
  376MOL0     H50713  10.087  -0.236   9.903 -0.0779 -0.1845  1.1290
  376MOL0     H50714   9.874  -0.309  10.113 -0.1331 -2.3050 -2.3530
  376MOL0     H50715  10.040  -0.356  10.123 -0.2900 -0.1916 -0.8075
  376MOL0     H50716   9.919  -0.079  10.178  0.9233  1.1787 -2.7812
  376MOL0     H50717  10.080  -0.072  10.120  0.4853 -0.2812 -1.6484
  376MOL0     H50718   9.989  -0.225  10.378 -1.9452  0.5508 -1.1754
  376MOL0     H50719  10.087  -0.087  10.383 -0.8203 -1.1673  1.8203
  376MOL0     H50720  10.393  -0.399  10.311  0.1411 -0.5373  0.7188
  376MOL0     H50721  10.566  -0.429  10.487 -0.7916  0.2728 -0.4658
  376MOL0     H50722  10.618  -0.448  11.004 -0.5842  0.2263  1.8175
  376MOL0     H50723  10.773  -0.444  11.183  1.2431  0.0097 -1.5690
  376MOL0     H50724  10.986  -0.060  11.295  1.5971 -2.0738  0.1156
  376MOL0     H50725  10.839  -0.071  11.394 -0.0154  1.7190  0.6349
  376MOL0     H50726  11.028  -0.075  11.545 -0.1118  1.2442 -1.1379
  376MOL0     H50727  10.971  -0.232  11.542 -1.0209  0.6672 -0.2803
  376MOL0     H50728  11.205  -0.281  11.510  0.5824 -0.6899 -0.7554
  376MOL0     H50729  11.178  -0.267  11.349 -0.1344 -1.8196  1.9267
  376MOL0     H50730  11.313  -0.064  11.528  0.6385  1.2450 -0.7591
  376MOL0     H50731  11.222   0.001  11.394 -0.2990  0.4236  0.5262
  376MOL0     H50732  11.354  -0.092  11.224  3.9925  0.9652 -0.6632
  376MOL0     H50733  11.372  -0.241  11.326 -0.9956 -0.4292 -1.2973
  376MOL0     H50734  11.492   0.030  11.354 -0.6583  0.7814  1.0026
  376MOL0     H50735  11.525  -0.097  11.477 -2.5431  1.2437  1.1477
  376MOL0     H50736  11.613  -0.115  11.185  0.9879  0.7244  0.8404
  376MOL0     H50737  11.608  -0.252  11.297 -1.9319  0.1445 -3.1425
  376MOL0     H50738  11.819  -0.066  11.242  0.6289 -3.5108 -0.3753
  376MOL0     H50739  11.742   0.001  11.389 -0.9183 -0.2989  0.6546
  376MOL0     H50740  10.863  -0.031  11.115 -2.4686  2.0247  0.6109
  376MOL0     H50741  10.702  -0.017  10.938  0.8609 -1.4134 -2.7200
  376MOL0     H50742  10.367  -0.141  10.727  0.5067  1.7431 -0.9907
  376MOL0     H50743  10.162  -0.139  10.553  0.2231  1.5280 -0.8361
  376MOL0     H50744   8.719   0.119  10.175 -1.6426 -1.4150  0.7597
  376MOL0     H50745   8.564   0.096  10.378 -0.8433  0.6354  1.6227
  376MOL0     H50746   8.443   0.454  10.754 -1.6244  2.0320  2.7735
  376MOL0     H50747   8.278   0.457  10.935 -2.3500 -1.7818 -0.6507
  376MOL0     H50748   8.389   0.228  11.239  1.2699  0.5398 -0.8560
  376MOL0     H50749   8.283   0.085  11.202 -0.3182  0.8876 -0.3042
  376MOL0     H50750   8.111   0.172  11.341 -0.3300  0.3965  0.5792
  376MOL0     H50751   8.176   0.336  11.347 -2.1935 -1.4326  3.7483
  376MOL0     H50752   8.202   0.232  11.555  0.0559  2.6812 -0.5391
  376MOL0     H50753   8.357   0.260  11.486  0.2528 -0.1811  0.3902
  376MOL0     H50754   8.380   0.034  11.425 -0.6616  0.6972 -1.8003
  376MOL0     H50755   8.341   0.020  11.590  1.3282 -0.7671 -1.6162
  376MOL0     H50756   7.976  -0.141  11.496 -3.7534  4.3349 -2.6393
  376MOL0     H50757   8.388   0.046  11.030 -1.7518  1.4893  2.3785
  376MOL0     H50758   8.646  -0.008  10.820  0.4791  0.0551 -1.5649
  376MOL0     H50759   8.497  -0.086  10.854 -2.5440  1.0878 -0.7398
  376MOL0     H50760   8.521  -0.015  10.698 -0.1895 -3.2496 -0.6813
  377MOL0     O50761   8.989   6.313   5.549 -0.8425 -0.1185 -0.0007
  377MOL0     C50762   9.063   6.271   5.639  0.1468 -0.2617  0.4399
  377MOL0     O50763   9.101   6.353   5.746 -0.7187 -0.0503 -0.5850
  377MOL0     C50764   9.043   6.479   5.766  0.8561 -0.5504 -0.1913
  377MOL0     C50765   9.064   6.540   5.896 -0.1176 -0.0202  0.0059
  377MOL0     C50766   9.012   6.667   5.916 -0.2979  0.1920 -0.3132
  377MOL0     C50767   8.953   6.740   5.816  1.4072 -0.4387  0.0211
  377MOL0     O50768   8.899   6.854   5.858 -0.0462  0.1886  1.0031
  377MOL0     C50769   8.882   6.960   5.766  0.9088 -0.2089 -0.3157
  377MOL0     C50770   8.852   7.098   5.842  0.9138  0.0877  0.2720
  377MOL0     C50771   8.824   7.211   5.735  0.5591  0.4599 -0.0484
  377MOL0     C50772   8.675   7.208   5.708  0.7255  0.8794  0.4347
  377MOL0     C50773   8.596   7.280   5.821  0.6574  0.1212 -0.3374
  377MOL0     C50774   8.472   7.361   5.771 -0.1622  0.0910  0.2555
  377MOL0     C50775   8.377   7.274   5.693  0.7181 -0.9348  0.5884
  377MOL0     C50776   8.246   7.369   5.679  0.3337 -0.8968 -0.5827
  377MOL0     N50777   8.136   7.305   5.604 -1.2485  0.7948 -0.1938
  377MOL0     C50778   8.008   7.296   5.661  0.8345  0.2915  0.2529
  377MOL0     C50779   7.939   7.208   5.569  0.5219  0.3104 -1.4622
  377MOL0     C50780   7.806   7.131   5.597 -0.5376 -0.1612 -0.5386
  377MOL0     C50781   7.709   7.198   5.493  0.3949 -0.1281  0.1626
  377MOL0     C50782   7.571   7.129   5.491 -0.4446  0.1137  0.3052
  377MOL0     C50783   7.480   7.173   5.372  0.0774 -0.1044  0.0896
  377MOL0     O50784   7.525   7.113   5.255 -0.7638  0.3856 -0.1852
  377MOL0     C50785   7.441   7.112   5.149  0.1863  0.7112 -0.7499
  377MOL0     C50786   7.486   7.046   5.037 -0.8284 -1.0833  0.0956
  377MOL0     C50787   7.400   7.025   4.925 -0.0806  0.5646 -0.5247
  377MOL0     C50788   7.276   7.100   4.916 -0.9146  0.7551  0.2457
  377MOL0     C50789   7.184   7.073   4.803  0.1374  0.2813  0.7323
  377MOL0     O50790   7.231   6.986   4.703  0.1760  0.3395  0.2132
  377MOL0     C50791   7.161   6.983   4.587  0.2086 -0.2931  0.1596
  377MOL0     C50792   7.207   7.022   4.466 -1.2297 -0.9568  0.4127
  377MOL0     C50793   7.132   6.997   4.353 -0.0947  0.1735  0.0380
  377MOL0     C50794   7.003   6.946   4.362 -0.8547 -0.8500 -0.7187
  377MOL0     O50795   6.929   6.935   4.259  0.0028 -0.3333  0.2041
  377MOL0     C50796   6.782   6.957   4.277 -0.3237  0.7484 -0.0258
  377MOL0     C50797   6.696   6.949   4.148  0.9204  0.3051 -0.2490
  377MOL0     C50798   6.639   6.807   4.111 -0.7993 -0.1806 -0.5073
  377MOL0     C50799   6.490   6.796   4.142 -0.2169  0.4342 -0.6916
  377MOL0     C50800   6.431   6.663   4.104  0.0882  0.3115 -0.0073
  377MOL0     C50801   6.279   6.653   4.119  0.9191 -0.2316 -0.2839
  377MOL0     C50802   6.205   6.771   4.067 -0.1165  0.1223 -0.5707
  377MOL0     C50803   6.056   6.747   4.059  0.3666 -0.7047 -0.5911
  377MOL0    Cl50804   6.009   6.648   3.915 -0.0416  0.2574 -0.5548
  377MOL0     C50805   6.947   6.917   4.494 -0.3362  0.9164 -0.3724
  377MOL0     C50806   7.034   6.926   4.596 -0.4172  0.5036  0.2954
  377MOL0     O50807   7.075   7.118   4.814 -0.1926  0.0676  0.3633
  377MOL0     C50808   7.243   7.174   5.031 -0.5331  0.1990 -0.4603
  377MOL0     C50809   7.327   7.187   5.143  0.1295  0.4845  0.2272
  377MOL0     N50810   8.029   7.195   5.464  0.1931  0.4393  0.0127
  377MOL0     N50811   8.145   7.238   5.486 -0.5314 -0.0245  0.2536
  377MOL0     C50812   8.930   6.686   5.694  0.5932 -0.6529 -0.0692
  377MOL0     C50813   8.976   6.562   5.667 -0.5868  0.6151  0.2187
  377MOL0     C50814   9.087   6.126   5.643 -1.0090  0.2689 -0.3591
  377MOL0     C50815   8.979   6.035   5.629 -0.4174  0.4606  0.4329
  377MOL0     C50816   9.010   5.897   5.626  0.2561  0.5918  0.1037
  377MOL0     C50817   9.143   5.848   5.640 -0.6308  0.4938  0.6201
  377MOL0     O50818   9.152   5.712   5.642 -0.7940 -0.0736 -0.8310
  377MOL0     C50819   9.278   5.647   5.616  0.9014 -0.3115  0.8064
  377MOL0     C50820   9.325   5.656   5.470 -0.0992 -0.2103  0.1877
  377MOL0     C50821   9.196   5.628   5.383 -1.0785 -0.5484 -0.2714
  377MOL0     C50822   9.205   5.607   5.229  0.0957 -0.2825 -0.0361
  377MOL0     C50823   9.080   5.634   5.161  0.2323  0.6044  1.3767
  377MOL0     C50824   8.969   5.652   5.109 -0.2525  0.4060  0.5383
  377MOL0     C50825   9.252   5.934   5.661  0.2201  0.3619  0.0300
  377MOL0     C50826   9.218   6.072   5.662  0.3154 -0.6158 -0.4555
  377MOL0     C50827   9.339   6.168   5.673 -0.6796  0.1648 -0.1040
  377MOL0     H50828   9.095   6.493   5.988 -1.1141 -1.5825 -0.4321
  377MOL0     H50829   9.014   6.707   6.017  0.5139  0.2169 -0.3379
  377MOL0     H50830   8.972   6.988   5.710 -0.2689 -0.1713 -2.2821
  377MOL0     H50831   8.798   6.936   5.700 -0.6811  2.9743  0.3625
  377MOL0     H50832   8.934   7.120   5.912  2.6149 -5.1736  0.3236
  377MOL0     H50833   8.768   7.084   5.911 -0.7443 -3.1442 -2.1509
  377MOL0     H50834   8.886   7.188   5.648  1.2335  3.8000 -0.5925
  377MOL0     H50835   8.864   7.304   5.779  3.0142  0.1582 -1.4486
  377MOL0     H50836   8.661   7.268   5.618 -2.0589  0.1050  0.2792
  377MOL0     H50837   8.638   7.107   5.688  2.5790  0.2572 -0.1094
  377MOL0     H50838   8.577   7.211   5.903  1.5727 -0.7616 -0.8480
  377MOL0     H50839   8.664   7.362   5.847  1.8046 -0.3293 -1.7433
  377MOL0     H50840   8.416   7.394   5.859  1.5111 -0.4394  1.5601
  377MOL0     H50841   8.499   7.450   5.713  2.0070  0.5904  1.8834
  377MOL0     H50842   8.374   7.174   5.736  2.6372 -0.3157  2.3218
  377MOL0     H50843   8.418   7.265   5.592  2.4198  2.8751  0.7331
  377MOL0     H50844   8.212   7.392   5.780 -0.4119 -3.6573 -0.1512
  377MOL0     H50845   8.283   7.460   5.631  1.1388 -0.1396  1.3570
  377MOL0     H50846   7.968   7.349   5.746  1.3402  0.7522  0.2141
  377MOL0     H50847   7.827   7.025   5.577 -0.5010 -0.9002  2.9293
  377MOL0     H50848   7.774   7.150   5.699 -1.2128 -2.4425 -0.2516
  377MOL0     H50849   7.694   7.305   5.510 -1.6200 -0.0741 -1.5665
  377MOL0     H50850   7.746   7.206   5.390  0.3493  3.3022  0.2920
  377MOL0     H50851   7.515   7.150   5.583 -0.1114 -0.5718  0.6693
  377MOL0     H50852   7.585   7.021   5.485  0.5130  0.2188  0.4794
  377MOL0     H50853   7.477   7.282   5.362  1.6926 -0.0945 -0.4813
  377MOL0     H50854   7.382   7.138   5.406  0.8409 -1.4885  0.9909
  377MOL0     H50855   7.577   6.987   5.036  1.6422  2.4189  0.4043
  377MOL0     H50856   7.433   6.962   4.844 -3.3677 -1.3772 -0.5242
  377MOL0     H50857   7.313   7.048   4.463 -1.0580 -1.6741  0.2245
  377MOL0     H50858   7.165   6.997   4.250  1.1317 -2.6462  0.3377
  377MOL0     H50859   6.733   6.894   4.352 -0.5370  1.8593  0.7962
  377MOL0     H50860   6.771   7.054   4.328  0.9789 -0.4940  2.8242
  377MOL0     H50861   6.608   7.011   4.171 -0.0559 -1.2934  0.5318
  377MOL0     H50862   6.757   6.985   4.065  1.4764 -0.3198 -0.1191
  377MOL0     H50863   6.671   6.799   4.007 -1.2083  2.3147 -0.8872
  377MOL0     H50864   6.686   6.727   4.169 -3.6999 -1.0138  0.9284
  377MOL0     H50865   6.437   6.886   4.109  0.5897  1.6717  1.2063
  377MOL0     H50866   6.476   6.789   4.251 -0.3485 -3.8261 -0.8139
  377MOL0     H50867   6.471   6.590   4.174 -3.6913 -0.0228  2.0858
  377MOL0     H50868   6.459   6.646   4.000  0.2985 -0.4816  0.1755
  377MOL0     H50869   6.252   6.562   4.065 -0.6248 -2.9259  4.5074
  377MOL0     H50870   6.263   6.642   4.226  3.1413 -0.3469  0.0909
  377MOL0     H50871   6.242   6.798   3.968 -1.4160  1.3770 -0.7425
  377MOL0     H50872   6.227   6.849   4.141  0.1436  0.2636 -0.7946
  377MOL0     H50873   6.009   6.715   4.153  1.4039  1.0226  0.5615
  377MOL0     H50874   6.022   6.847   4.032  1.2033  0.1597  1.3374
  377MOL0     H50875   6.850   6.876   4.519  1.0793 -0.0580  4.6440
  377MOL0     H50876   7.014   6.895   4.699  1.8492 -0.8299  0.4068
  377MOL0     H50877   7.144   7.217   5.036 -0.1847  0.8893  3.3229
  377MOL0     H50878   7.296   7.240   5.233 -0.1040  0.8950 -0.0898
  377MOL0     H50879   8.866   6.733   5.620 -3.4270 -1.1495  2.7676
  377MOL0     H50880   8.965   6.523   5.566 -1.7032  1.5895 -0.0522
  377MOL0     H50881   8.880   6.077   5.619 -0.9446 -0.3042  2.0376
  377MOL0     H50882   8.930   5.825   5.607 -2.1365  3.3941 -1.2578
  377MOL0     H50883   9.259   5.540   5.623 -1.7302 -0.1301 -1.5654
  377MOL0     H50884   9.358   5.673   5.686  0.1896  1.0606  1.1341
  377MOL0     H50885   9.399   5.578   5.449  0.5892  0.7802 -1.2377
  377MOL0     H50886   9.376   5.751   5.449 -1.1072 -0.0648 -1.8537
  377MOL0     H50887   9.150   5.727   5.380  1.7270  0.8507 -1.5734
  377MOL0     H50888   9.132   5.553   5.429 -1.7581  0.0148 -0.2919
  377MOL0     H50889   9.276   5.679   5.187  0.7240 -1.7819 -1.6760
  377MOL0     H50890   9.235   5.503   5.212 -0.3369 -0.0788 -2.3672
  377MOL0     H50891   8.869   5.668   5.075  0.0135  4.7066  1.1783
  377MOL0     H50892   9.350   5.888   5.665  0.1353  0.2254  4.0365
  377MOL0     H50893   9.369   6.206   5.575 -0.7136 -0.0205 -0.1853
  377MOL0     H50894   9.314   6.241   5.751 -0.7049 -2.8550  2.9614
  377MOL0     H50895   9.429   6.118   5.711 -1.9105 -3.0033 -1.0117
  378MOL0     O50896   3.418   6.796   5.922 -0.3296 -0.3035 -0.1680
  378MOL0     C50897   3.344   6.721   5.981  0.7556 -0.0576  0.1241
  378MOL0     O50898   3.305   6.599   5.931  0.8307  0.1109 -0.3301
  378MOL0     C50899   3.346   6.556   5.809 -0.2466 -0.7298 -0.6932
  378MOL0     C50900   3.262   6.564   5.696 -0.2044  0.5320  0.6218
  378MOL0     C50901   3.295   6.499   5.575 -0.0382 -0.8941  0.1508
  378MOL0     C50902   3.417   6.432   5.563  0.0408 -0.5626 -0.7417
  378MOL0     O50903   3.447   6.374   5.436 -0.3048  0.2842 -0.8090
  378MOL0     C50904   3.570   6.298   5.424  0.1625  0.6601  0.1439
  378MOL0     C50905   3.570   6.145   5.462  0.0459 -0.8466  0.1872
  378MOL0     C50906   3.453   6.067   5.405  0.7305 -0.8210  0.6285
  378MOL0     C50907   3.398   5.979   5.519  0.0442  0.9537 -0.3014
  378MOL0     C50908   3.267   5.894   5.494  0.5572  0.3861 -0.4040
  378MOL0     C50909   3.291   5.755   5.452  0.1349  0.9803  0.6538
  378MOL0     C50910   3.156   5.689   5.409 -0.6643  0.6918  0.2039
  378MOL0     C50911   3.059   5.661   5.526 -0.5714  0.1583 -0.9763
  378MOL0     N50912   3.129   5.590   5.634  0.6151 -0.4165  0.6553
  378MOL0     C50913   3.194   5.468   5.610  0.2393  0.0039 -0.1119
  378MOL0     C50914   3.261   5.456   5.727 -0.0569 -1.4352 -0.3465
  378MOL0     C50915   3.349   5.351   5.777 -0.1134  0.2127 -0.2175
  378MOL0     C50916   3.489   5.378   5.718  1.1060 -0.3489  1.2429
  378MOL0     C50917   3.538   5.529   5.735 -0.3174 -0.7948  0.1058
  378MOL0     C50918   3.685   5.544   5.692  0.0519  0.1344  0.3077
  378MOL0     O50919   3.726   5.677   5.683 -0.6210 -0.7577  0.7839
  378MOL0     C50920   3.852   5.695   5.619 -0.2691  0.4347 -0.8115
  378MOL0     C50921   3.876   5.815   5.550 -0.1290 -0.3576 -0.3647
  378MOL0     C50922   4.004   5.849   5.517  0.8108  0.5681 -0.2080
  378MOL0     C50923   4.114   5.768   5.556  0.7037  0.4394 -0.7621
  378MOL0     C50924   4.252   5.812   5.528 -0.4175 -0.5698  0.8113
  378MOL0     O50925   4.287   5.923   5.464 -0.5222 -0.4805  0.0164
  378MOL0     C50926   4.425   5.943   5.443 -0.4364  0.7182  0.5516
  378MOL0     C50927   4.496   6.025   5.530  0.3374  0.0077  0.2766
  378MOL0     C50928   4.629   6.050   5.503  1.0214 -0.0361 -0.3910
  378MOL0     C50929   4.692   6.015   5.384  0.0680  0.5445  0.4837
  378MOL0     O50930   4.832   6.032   5.356  0.6322 -0.5352 -0.3568
  378MOL0     C50931   4.905   6.047   5.479 -0.9063  0.6802  0.4491
  378MOL0     C50932   5.056   6.011   5.460 -0.0126 -0.0570 -0.5242
  378MOL0     C50933   5.130   6.029   5.586 -0.2490  0.3080  0.0414
  378MOL0     C50934   5.278   6.043   5.558 -0.1367  0.1024  0.5695
  378MOL0     C50935   5.356   6.061   5.689  0.9259  0.2392  1.5157
  378MOL0     C50936   5.502   6.096   5.658 -1.1296  0.1669 -0.5965
  378MOL0     C50937   5.531   6.239   5.603  0.4118 -0.2602  0.0276
  378MOL0     C50938   5.664   6.290   5.654  0.0987  0.2358 -0.0221
  378MOL0    Cl50939   5.695   6.424   5.539  0.0713 -1.0778 -0.0629
  378MOL0     C50940   4.619   5.936   5.296 -0.7758 -0.1725  0.2823
  378MOL0     C50941   4.494   5.899   5.328  0.1990  0.1734 -0.2910
  378MOL0     O50942   4.337   5.731   5.566 -0.5440  0.2600 -0.8059
  378MOL0     C50943   4.088   5.655   5.631  0.2618 -0.4521  0.3705
  378MOL0     C50944   3.959   5.612   5.657  0.2043 -0.6550 -0.0638
  378MOL0     N50945   3.238   5.569   5.811  0.5915 -0.3151 -0.6878
  378MOL0     N50946   3.150   5.648   5.757 -0.3325 -0.8166 -0.1742
  378MOL0     C50947   3.505   6.429   5.674 -0.0063  0.8465  1.2248
  378MOL0     C50948   3.472   6.503   5.788 -0.8949 -0.3074 -0.3658
  378MOL0     C50949   3.266   6.771   6.104 -0.5705 -0.0037 -0.3507
  378MOL0     C50950   3.300   6.893   6.163  0.5174  0.1564  0.4644
  378MOL0     C50951   3.238   6.925   6.282 -0.6925 -0.6718  0.5316
  378MOL0     C50952   3.137   6.857   6.334 -0.2691  0.6881  0.7459
  378MOL0     O50953   3.079   6.875   6.455 -0.5764 -0.0449  0.0190
  378MOL0     C50954   3.093   7.003   6.520 -0.4725  0.2752  0.4852
  378MOL0     C50955   3.197   7.007   6.631  0.1543  0.1557  0.2612
  378MOL0     C50956   3.182   6.887   6.723  0.4703 -0.5021  0.1861
  378MOL0     C50957   3.256   6.888   6.862 -0.1606  0.8689 -0.6333
  378MOL0     C50958   3.399   6.861   6.854  0.5160  0.8773 -0.0069
  378MOL0     C50959   3.518   6.841   6.847 -0.4341 -0.1688  0.0746
  378MOL0     C50960   3.093   6.739   6.265 -0.1736 -0.2924  0.1167
  378MOL0     C50961   3.149   6.702   6.149  0.6487 -0.8685  0.3955
  378MOL0     C50962   3.072   6.592   6.075  0.1031 -0.5015 -0.4842
  378MOL0     H50963   3.165   6.609   5.713 -2.7351 -4.0060 -0.3231
  378MOL0     H50964   3.226   6.493   5.491 -0.3133  2.6363 -0.0070
  378MOL0     H50965   3.584   6.303   5.315 -1.1611  0.8407 -0.0393
  378MOL0     H50966   3.653   6.342   5.479  1.2862  1.2798 -1.9121
  378MOL0     H50967   3.571   6.140   5.572 -0.9877  0.9567  0.3116
  378MOL0     H50968   3.665   6.097   5.438  0.7205  1.2800 -1.6791
  378MOL0     H50969   3.493   6.013   5.319  0.0466 -1.2746  0.5838
  378MOL0     H50970   3.372   6.127   5.363 -0.6973 -1.8643  1.7740
  378MOL0     H50971   3.475   5.916   5.565  0.9905  3.4021  1.7194
  378MOL0     H50972   3.358   6.045   5.595  2.2196 -0.5375  2.3424
  378MOL0     H50973   3.228   5.889   5.596  0.9177 -1.4721 -0.3272
  378MOL0     H50974   3.192   5.952   5.439 -1.4741 -1.6806  0.0367
  378MOL0     H50975   3.342   5.775   5.357 -0.2622 -0.4605  0.1095
  378MOL0     H50976   3.356   5.702   5.522 -1.5778  1.2208  2.5334
  378MOL0     H50977   3.170   5.594   5.357 -2.0250  2.2766 -3.4417
  378MOL0     H50978   3.102   5.751   5.337 -2.4635 -1.8098 -0.7382
  378MOL0     H50979   3.024   5.753   5.575  0.0925 -0.3357  0.4992
  378MOL0     H50980   2.974   5.604   5.487 -0.6339 -0.0423 -0.5497
  378MOL0     H50981   3.194   5.397   5.529  0.7651 -0.0750 -0.0469
  378MOL0     H50982   3.348   5.356   5.886 -1.0747  1.0951 -0.2457
  378MOL0     H50983   3.294   5.263   5.743 -1.7642  1.8857 -2.2013
  378MOL0     H50984   3.567   5.312   5.756  2.8414  0.6038 -0.5138
  378MOL0     H50985   3.480   5.353   5.612 -0.3006 -0.8091  1.4401
  378MOL0     H50986   3.527   5.557   5.840 -0.0851  1.4896 -0.4298
  378MOL0     H50987   3.479   5.603   5.681  1.2026  0.3510 -0.0271
  378MOL0     H50988   3.701   5.493   5.597  0.9586  0.9032  0.0238
  378MOL0     H50989   3.743   5.497   5.772  0.2962 -1.3121 -0.6880
  378MOL0     H50990   3.802   5.889   5.524 -1.0602 -2.1501 -3.2894
  378MOL0     H50991   4.028   5.947   5.476 -0.6000  0.0705 -2.4334
  378MOL0     H50992   4.462   6.047   5.631 -0.6977  5.2343 -0.9204
  378MOL0     H50993   4.680   6.110   5.577 -1.2358 -1.1542  2.2803
  378MOL0     H50994   4.890   6.148   5.520  2.1269  0.6487  1.9044
  378MOL0     H50995   4.877   5.970   5.551  0.8071 -0.8473 -0.4265
  378MOL0     H50996   5.064   5.909   5.423  4.3781 -0.0727 -0.0349
  378MOL0     H50997   5.098   6.073   5.380 -2.4487  2.2364 -0.1762
  378MOL0     H50998   5.099   6.120   5.637  0.4615  0.1445  0.7873
  378MOL0     H50999   5.106   5.943   5.649  0.4995 -1.1372 -1.5565
  378MOL0     H51000   5.284   6.132   5.495  0.2344 -0.8824 -0.8232
  378MOL0     H51001   5.308   5.951   5.508 -2.0316 -0.2547  0.0026
  378MOL0     H51002   5.351   5.977   5.758 -2.9592  1.3386  2.7840
  378MOL0     H51003   5.308   6.150   5.731 -1.2193 -0.3462  0.4212
  378MOL0     H51004   5.547   6.085   5.758 -1.8419  1.6465 -0.0855
  378MOL0     H51005   5.535   6.024   5.583 -1.9763 -1.7882  0.7840
  378MOL0     H51006   5.448   6.306   5.627  1.4574  1.0723  0.0672
  378MOL0     H51007   5.528   6.230   5.494  1.7934 -2.9897  0.1281
  378MOL0     H51008   5.656   6.318   5.759  0.6140 -0.0751  0.1019
  378MOL0     H51009   5.749   6.222   5.640  1.4389  1.0551  3.3458
  378MOL0     H51010   4.671   5.903   5.206  0.1119  2.2888 -0.1984
  378MOL0     H51011   4.437   5.833   5.264 -1.1339 -1.9576  2.8658
  378MOL0     H51012   4.177   5.601   5.661  1.5719  0.4157 -1.7176
  378MOL0     H51013   3.951   5.517   5.709  0.7258 -0.7105 -0.0750
  378MOL0     H51014   3.597   6.372   5.678  0.9441  2.3552  1.3833
  378MOL0     H51015   3.538   6.503   5.874 -1.3475  0.1698 -0.0162
  378MOL0     H51016   3.365   6.968   6.120 -1.0866 -0.0030 -2.4700
  378MOL0     H51017   3.281   7.016   6.323 -0.9403 -0.1953 -0.2448
  378MOL0     H51018   3.000   7.008   6.577 -1.6167 -2.7233 -0.8976
  378MOL0     H51019   3.100   7.082   6.445  0.1551 -1.2060 -1.0838
  378MOL0     H51020   3.188   7.099   6.689  1.3309 -0.3506  1.2949
  378MOL0     H51021   3.300   7.013   6.595 -0.2909  0.2883 -1.0443
  378MOL0     H51022   3.225   6.799   6.673  3.7901 -0.7336  3.0910
  378MOL0     H51023   3.075   6.866   6.724 -0.1174  2.0431 -1.4762
  378MOL0     H51024   3.243   6.975   6.926  1.5584  1.0882 -0.5374
  378MOL0     H51025   3.226   6.799   6.919  0.8155 -0.8077 -2.6115
  378MOL0     H51026   3.624   6.837   6.836 -0.4292 -0.1663  0.1231
  378MOL0     H51027   3.012   6.685   6.313 -1.6828 -0.7705 -2.7257
  378MOL0     H51028   3.049   6.628   5.975 -1.0537  2.2967  0.6948
  378MOL0     H51029   3.124   6.497   6.091 -0.3733 -0.3767  2.5510
  378MOL0     H51030   2.969   6.582   6.111 -0.2438  1.9635 -0.6163
  379MOL0     O51031  11.009   9.824   9.678  0.3857  0.3775 -0.4832
  379MOL0     C51032  11.043   9.760   9.579  0.1178 -0.1300 -0.4953
  379MOL0     O51033  11.162   9.774   9.520  0.6751  0.0538 -0.9299
  379MOL0     C51034  11.198   9.690   9.421 -1.2273  0.0132  0.2377
  379MOL0     C51035  11.271   9.749   9.309 -0.1141  0.8245 -0.1995
  379MOL0     C51036  11.311   9.666   9.197 -0.0991  0.1461 -0.2610
  379MOL0     C51037  11.285   9.531   9.204 -0.4174 -0.2727 -0.2257
  379MOL0     O51038  11.311   9.427   9.109 -0.2530 -0.6734 -0.3734
  379MOL0     C51039  11.365   9.475   8.987  0.3512 -0.0194  0.4997
  379MOL0     C51040  11.399   9.360   8.899  0.1456  1.4452 -0.5647
  379MOL0     C51041  11.452   9.404   8.763 -0.1220 -0.4505  0.1901
  379MOL0     C51042  11.471   9.279   8.676  0.4277  0.2318  0.5249
  379MOL0     C51043  11.374   9.252   8.565  0.1944 -0.6469  0.2291
  379MOL0     C51044  11.238   9.193   8.613  0.3609 -0.4032 -0.4316
  379MOL0     C51045  11.138   9.165   8.502 -0.6997 -0.8793 -0.2119
  379MOL0     C51046  11.009   9.105   8.553  0.3771 -0.0294  0.0538
  379MOL0     N51047  11.017   8.964   8.574 -0.1018 -0.0863  0.1496
  379MOL0     C51048  10.922   8.883   8.541 -0.4840  0.1371  0.6000
  379MOL0     C51049  10.968   8.759   8.544  0.9682 -0.8145 -0.3340
  379MOL0     C51050  10.857   8.663   8.526 -0.4466  0.7714  0.1370
  379MOL0     C51051  10.850   8.630   8.377 -0.8032 -0.2368  0.5059
  379MOL0     C51052  10.739   8.545   8.325  0.2833  0.1325 -0.0845
  379MOL0     C51053  10.749   8.527   8.169 -1.0364 -0.3584  0.2466
  379MOL0     O51054  10.629   8.472   8.111 -0.4159  0.0994 -0.2082
  379MOL0     C51055  10.638   8.433   7.977  0.5822  0.7336 -0.2719
  379MOL0     C51056  10.564   8.323   7.928 -0.5683 -0.4132  0.3402
  379MOL0     C51057  10.573   8.285   7.789 -0.4136 -0.0706  0.4547
  379MOL0     C51058  10.651   8.353   7.700  0.6437 -0.0421 -0.1142
  379MOL0     C51059  10.659   8.305   7.557  0.2554  0.0372 -0.6087
  379MOL0     O51060  10.662   8.167   7.541 -0.4638 -0.4637 -0.9449
  379MOL0     C51061  10.793   8.120   7.560  0.4399  0.9686  0.2104
  379MOL0     C51062  10.907   8.204   7.538 -0.2509 -0.0125  0.3581
  379MOL0     C51063  11.032   8.146   7.570  0.5834 -1.1349  0.2766
  379MOL0     C51064  11.049   8.014   7.609  0.7865  0.7245  0.1040
  379MOL0     O51065  11.178   7.958   7.617 -0.2675  0.6521 -0.3837
  379MOL0     C51066  11.230   7.891   7.499  0.4823  0.2553 -0.3407
  379MOL0     C51067  11.243   7.743   7.530 -0.0277 -1.2709 -1.1824
  379MOL0     C51068  11.265   7.651   7.419 -0.1783  0.7959 -0.4921
  379MOL0     C51069  11.383   7.677   7.324 -0.3014  0.5244  0.4086
  379MOL0     C51070  11.406   7.566   7.214 -0.0249 -0.9793  0.4216
  379MOL0     C51071  11.556   7.548   7.172 -0.1255 -0.4908 -0.1836
  379MOL0     C51072  11.617   7.670   7.104 -0.4023  0.5957  0.3495
  379MOL0     C51073  11.749   7.648   7.030 -0.1566  0.5108 -0.0242
  379MOL0    Cl51074  11.814   7.806   6.977  0.1175  0.2474  0.2237
  379MOL0     C51075  10.941   7.933   7.619  0.1361  0.0986 -0.5166
  379MOL0     C51076  10.812   7.987   7.607  0.3367  0.0264 -0.1544
  379MOL0     O51077  10.676   8.386   7.463 -1.0708 -0.3438 -0.3000
  379MOL0     C51078  10.713   8.472   7.738  0.0935 -0.1476  0.0085
  379MOL0     C51079  10.703   8.506   7.876  0.1622 -0.7643  0.3272
  379MOL0     N51080  11.090   8.768   8.604 -0.4918  0.1611 -0.2759
  379MOL0     N51081  11.126   8.887   8.618  0.5438 -0.2910  0.1680
  379MOL0     C51082  11.228   9.470   9.317  0.2598 -0.3344 -0.4082
  379MOL0     C51083  11.183   9.553   9.427 -0.4521 -0.6132 -0.5149
  379MOL0     C51084  10.926   9.698   9.516 -0.8631 -0.1033 -0.0642
  379MOL0     C51085  10.881   9.567   9.563  0.3590 -0.1894  0.6550
  379MOL0     C51086  10.794   9.497   9.477  0.7221  0.3673 -0.1346
  379MOL0     C51087  10.747   9.553   9.358 -0.4830  0.2242  0.8743
  379MOL0     O51088  10.672   9.483   9.268 -0.1932  0.3795  0.0907
  379MOL0     C51089  10.534   9.514   9.264  0.4134  0.1490  0.3194
  379MOL0     C51090  10.470   9.452   9.144  0.8034  0.4896 -0.4176
  379MOL0     C51091  10.429   9.555   9.038 -0.1188 -0.5726 -0.8888
  379MOL0     C51092  10.542   9.625   8.967 -0.3529  0.5656  0.7154
  379MOL0     C51093  10.589   9.549   8.850  0.1283 -0.7653 -0.3197
  379MOL0     C51094  10.608   9.464   8.765 -0.1664  0.7889  0.8808
  379MOL0     C51095  10.788   9.676   9.319  0.3271  0.0423 -0.4019
  379MOL0     C51096  10.881   9.748   9.389 -0.5541 -0.4797  0.3989
  379MOL0     C51097  10.939   9.875   9.326  0.3213  0.4573  0.4026
  379MOL0     H51098  11.290   9.856   9.305 -1.9463  1.2029  0.3511
  379MOL0     H51099  11.370   9.700   9.113 -0.6263  3.2281  0.4862
  379MOL0     H51100  11.300   9.546   8.935 -0.3263 -0.8137  0.2481
  379MOL0     H51101  11.455   9.539   8.993  0.7188 -0.4768 -0.0653
  379MOL0     H51102  11.326   9.280   8.885  2.4664 -1.2760  1.6159
  379MOL0     H51103  11.480   9.312   8.954  0.3510  1.6611 -0.6749
  379MOL0     H51104  11.551   9.440   8.792  0.1552 -1.2017  0.1999
  379MOL0     H51105  11.394   9.490   8.730  0.1611 -0.4350 -0.2758
  379MOL0     H51106  11.572   9.279   8.632 -0.2925 -0.7342 -1.2374
  379MOL0     H51107  11.454   9.188   8.734 -1.1427  0.1956  0.0483
  379MOL0     H51108  11.369   9.350   8.516  0.6534  0.0689  1.5552
  379MOL0     H51109  11.416   9.190   8.486 -0.6633 -1.3097  0.2839
  379MOL0     H51110  11.251   9.098   8.665  1.5498 -2.2138 -3.7257
  379MOL0     H51111  11.189   9.270   8.673 -1.1155 -0.8283 -1.0643
  379MOL0     H51112  11.180   9.105   8.421  1.0464  0.5286 -0.3999
  379MOL0     H51113  11.130   9.258   8.445  0.8175 -1.3370 -1.2269
  379MOL0     H51114  10.978   9.147   8.649  0.1599 -0.2307  0.0726
  379MOL0     H51115  10.925   9.127   8.486 -0.0844 -1.1355  0.2436
  379MOL0     H51116  10.822   8.912   8.510 -0.5926  1.6739  2.2151
  379MOL0     H51117  10.890   8.580   8.589  0.7935  0.7841 -0.4491
  379MOL0     H51118  10.765   8.700   8.572  1.2931  0.8173  3.9212
  379MOL0     H51119  10.839   8.722   8.319  0.3218 -2.2194 -3.1488
  379MOL0     H51120  10.946   8.596   8.337 -0.0966  0.2710  1.7158
  379MOL0     H51121  10.644   8.587   8.358 -0.1412 -1.5379  0.9239
  379MOL0     H51122  10.745   8.449   8.377 -1.5309 -0.5365 -1.0363
  379MOL0     H51123  10.828   8.455   8.145  0.2396 -0.6306  4.4521
  379MOL0     H51124  10.763   8.625   8.123 -2.6709 -1.2760 -2.4040
  379MOL0     H51125  10.513   8.255   7.995 -1.1906 -1.5486 -1.2043
  379MOL0     H51126  10.515   8.201   7.753 -2.8995  0.9163  1.9058
  379MOL0     H51127  10.902   8.301   7.489  0.4593 -1.2200 -2.2890
  379MOL0     H51128  11.115   8.216   7.576  0.2349 -0.7030  0.0440
  379MOL0     H51129  11.155   7.897   7.420 -1.0436  0.6060  1.0808
  379MOL0     H51130  11.326   7.931   7.462  0.1544 -0.4862 -2.0854
  379MOL0     H51131  11.330   7.729   7.595  0.8228  1.3353 -1.6259
  379MOL0     H51132  11.151   7.719   7.583 -0.3387 -2.2349 -2.1106
  379MOL0     H51133  11.278   7.548   7.453  0.9975  1.8434  2.5497
  379MOL0     H51134  11.174   7.652   7.357 -2.0317 -1.8174  1.9048
  379MOL0     H51135  11.477   7.692   7.378 -0.4806  1.5332  0.4684
  379MOL0     H51136  11.379   7.774   7.272 -0.8303  0.0910 -0.3720
  379MOL0     H51137  11.362   7.602   7.120  1.7560 -2.5151 -1.0941
  379MOL0     H51138  11.351   7.478   7.248 -0.0313 -1.3330 -0.4599
  379MOL0     H51139  11.608   7.520   7.264  3.6335 -2.0644 -2.5591
  379MOL0     H51140  11.575   7.460   7.109 -1.4322 -2.5821  2.1373
  379MOL0     H51141  11.630   7.733   7.193  1.3086  0.3179  0.3394
  379MOL0     H51142  11.543   7.717   7.038 -1.3306  0.2011  1.0901
  379MOL0     H51143  11.827   7.603   7.092 -1.1263 -1.6957 -0.3019
  379MOL0     H51144  11.737   7.598   6.934  1.0827  2.5032 -1.3027
  379MOL0     H51145  10.958   7.828   7.640  1.9649  0.8755  2.6736
  379MOL0     H51146  10.721   7.929   7.622  1.5122 -1.6898  0.5781
  379MOL0     H51147  10.758   8.539   7.666 -3.9864 -0.2685 -3.0249
  379MOL0     H51148  10.764   8.594   7.897 -0.5563 -0.5589  1.6383
  379MOL0     H51149  11.215   9.363   9.316 -3.1423 -0.0847  0.8876
  379MOL0     H51150  11.148   9.498   9.514 -4.0614 -0.7311 -1.8839
  379MOL0     H51151  10.917   9.523   9.655 -2.8763  0.7737  2.5427
  379MOL0     H51152  10.753   9.406   9.520 -0.6479 -0.1813 -2.4260
  379MOL0     H51153  10.518   9.623   9.262 -2.0300 -0.1650 -1.1863
  379MOL0     H51154  10.500   9.473   9.359  3.1805 -1.9236  0.5303
  379MOL0     H51155  10.380   9.400   9.177  0.4915  1.4270  0.2536
  379MOL0     H51156  10.521   9.371   9.090 -0.0753 -1.6757  1.8661
  379MOL0     H51157  10.372   9.631   9.092  0.0216  0.4883 -2.1899
  379MOL0     H51158  10.365   9.516   8.958 -1.9211  1.3929 -0.4975
  379MOL0     H51159  10.512   9.720   8.922 -0.1858 -0.3563 -1.4681
  379MOL0     H51160  10.614   9.632   9.050 -1.8772 -0.5799  2.1996
  379MOL0     H51161  10.630   9.393   8.688  2.0294 -0.1008  2.2558
  379MOL0     H51162  10.755   9.712   9.223  1.4130 -1.6752 -1.4852
  379MOL0     H51163  11.025   9.846   9.264 -1.2755 -0.9578 -1.2822
  379MOL0     H51164  10.871   9.938   9.268  0.9843  0.5817 -0.2540
  379MOL0     H51165  10.976   9.937   9.408  0.5714  3.7527 -1.9986
  380MOL0     O51166   7.125   3.175   9.721  0.2501 -0.1249  0.7885
  380MOL0     C51167   7.101   3.279   9.780  0.0070 -0.2900  0.0728
  380MOL0     O51168   7.196   3.375   9.817 -0.6711  1.0340  0.1333
  380MOL0     C51169   7.320   3.380   9.763  0.3731  0.2743  0.3092
  380MOL0     C51170   7.416   3.441   9.845 -0.0479 -0.3211  1.0830
  380MOL0     C51171   7.554   3.437   9.814  0.2169 -0.5309  0.5674
  380MOL0     C51172   7.599   3.368   9.703 -1.0430  0.6048  0.8395
  380MOL0     O51173   7.735   3.339   9.692  0.9901  0.6720  1.0683
  380MOL0     C51174   7.799   3.380   9.566  0.4224 -0.2331  0.5235
  380MOL0     C51175   7.943   3.342   9.582  0.1034  0.0285  0.0688
  380MOL0     C51176   8.029   3.381   9.456 -0.3537 -0.3363 -0.3283
  380MOL0     C51177   8.147   3.283   9.456 -0.8330  0.1019  0.2297
  380MOL0     C51178   8.244   3.337   9.351  0.2423  0.9504 -0.2451
  380MOL0     C51179   8.374   3.267   9.393 -0.7003 -0.6248 -0.5527
  380MOL0     C51180   8.451   3.311   9.512  1.0183 -0.4921  0.6281
  380MOL0     C51181   8.585   3.237   9.522  0.3516 -0.5014 -0.3076
  380MOL0     N51182   8.685   3.245   9.409  0.0219 -0.8414 -0.4234
  380MOL0     C51183   8.739   3.365   9.363  0.5076 -0.1630 -0.2439
  380MOL0     C51184   8.811   3.329   9.263 -0.4237 -0.9134 -0.3012
  380MOL0     C51185   8.890   3.425   9.174  0.2491  0.0549 -0.4205
  380MOL0     C51186   8.823   3.560   9.148  0.7566 -0.8833 -0.1222
  380MOL0     C51187   8.921   3.670   9.114 -0.5339 -0.3059  0.2718
  380MOL0     C51188   8.839   3.790   9.068  0.5318 -0.1737  0.7007
  380MOL0     O51189   8.751   3.844   9.167  0.0196  0.2112 -0.3023
  380MOL0     C51190   8.672   3.956   9.147 -0.6356 -0.4015  0.1466
  380MOL0     C51191   8.604   4.028   9.251  0.0101 -0.4390  0.3270
  380MOL0     C51192   8.515   4.143   9.225 -0.7373 -0.0460 -0.1718
  380MOL0     C51193   8.513   4.192   9.098  0.2601  0.3083 -1.2040
  380MOL0     C51194   8.429   4.317   9.077  0.8097  0.4852  0.4490
  380MOL0     O51195   8.365   4.384   9.183  0.2021  0.8074  0.5165
  380MOL0     C51196   8.298   4.497   9.148  0.2427 -0.1671 -0.5868
  380MOL0     C51197   8.178   4.492   9.089 -0.5285 -0.7783  0.0131
  380MOL0     C51198   8.112   4.612   9.039 -0.2643 -0.7148 -0.5873
  380MOL0     C51199   8.172   4.737   9.066  0.3275 -0.2841  0.5821
  380MOL0     O51200   8.113   4.858   9.034 -0.5975 -0.0237 -0.3966
  380MOL0     C51201   8.030   4.878   8.927  0.1017 -0.1205 -0.0263
  380MOL0     C51202   8.015   5.030   8.898 -0.5419 -0.0110 -0.1732
  380MOL0     C51203   7.919   5.092   9.005  0.7109  0.1850  0.2312
  380MOL0     C51204   7.781   5.118   8.949  0.2025 -0.1951 -0.1386
  380MOL0     C51205   7.678   5.185   9.033  0.5640 -0.2635  0.6960
  380MOL0     C51206   7.550   5.212   8.950  0.1229 -0.4465 -0.7820
  380MOL0     C51207   7.431   5.239   9.053 -0.0914 -0.1117  0.9019
  380MOL0     C51208   7.305   5.303   8.981 -1.1499  0.6488  0.3466
  380MOL0    Cl51209   7.225   5.182   8.867 -0.4966  0.1208  0.4236
  380MOL0     C51210   8.288   4.742   9.135 -0.0080 -0.7304 -0.8057
  380MOL0     C51211   8.355   4.627   9.176 -1.0239  0.0511  0.0738
  380MOL0     O51212   8.414   4.346   8.960 -0.1973  0.0908  1.5584
  380MOL0     C51213   8.584   4.129   9.000 -0.0228  0.2273  0.0167
  380MOL0     C51214   8.663   4.012   9.019  0.2997  0.1683 -0.0812
  380MOL0     N51215   8.789   3.192   9.232 -0.8405  0.0032  0.4870
  380MOL0     N51216   8.701   3.148   9.315  0.2276  0.5126 -0.1151
  380MOL0     C51217   7.513   3.322   9.604 -0.1956  0.1507 -0.1998
  380MOL0     C51218   7.370   3.329   9.637 -0.3240 -0.1140 -0.3060
  380MOL0     C51219   6.957   3.309   9.818 -0.1275 -1.0383  0.9453
  380MOL0     C51220   6.886   3.200   9.856 -1.0707 -1.8391 -0.3667
  380MOL0     C51221   6.747   3.210   9.898  0.1126  0.1431  0.0104
  380MOL0     C51222   6.694   3.343   9.909 -0.4755  0.8706  0.8743
  380MOL0     O51223   6.567   3.349   9.968 -0.7892 -0.2659  0.1871
  380MOL0     C51224   6.557   3.310  10.105  0.0341  0.3264 -0.7856
  380MOL0     C51225   6.470   3.175  10.122 -0.1599 -0.5043 -1.0407
  380MOL0     C51226   6.323   3.209  10.082 -0.5658 -0.7837  1.2316
  380MOL0     C51227   6.238   3.311  10.160 -0.6002 -0.2203  0.2464
  380MOL0     C51228   6.097   3.283  10.163 -0.2041 -0.8380 -0.2467
  380MOL0     C51229   5.978   3.247  10.152  0.1268 -0.6590  0.6823
  380MOL0     C51230   6.767   3.458   9.857 -0.4340 -0.6668 -0.4020
  380MOL0     C51231   6.906   3.441   9.815  1.0056  0.6435 -0.0433
  380MOL0     C51232   6.981   3.563   9.785 -0.3568  0.6797  0.5530
  380MOL0     H51233   7.389   3.479   9.943  1.3532  0.0721  1.3465
  380MOL0     H51234   7.622   3.470   9.892  4.5183 -0.4730 -2.8250
  380MOL0     H51235   7.754   3.322   9.485  2.4203 -0.9987 -0.0961
  380MOL0     H51236   7.788   3.488   9.546 -2.5010 -0.5021  0.1953
  380MOL0     H51237   7.945   3.233   9.586 -0.2610 -0.1539 -2.6371
  380MOL0     H51238   7.985   3.390   9.671  1.1239  4.4949 -2.4954
  380MOL0     H51239   8.048   3.489   9.454 -1.4473  0.0400  2.9687
  380MOL0     H51240   7.978   3.366   9.361  2.0354  1.4870 -2.0268
  380MOL0     H51241   8.185   3.283   9.559  0.2173 -2.4393 -0.0862
  380MOL0     H51242   8.114   3.182   9.434 -2.0679  1.1919 -3.7307
  380MOL0     H51243   8.224   3.317   9.245 -1.2932  1.6269 -0.1181
  380MOL0     H51244   8.263   3.445   9.357  4.2335  0.5272 -1.9437
  380MOL0     H51245   8.360   3.158   9.394  1.1338 -0.9763 -3.1592
  380MOL0     H51246   8.445   3.284   9.312  1.6541 -4.1674  0.5166
  380MOL0     H51247   8.382   3.308   9.596 -1.5138 -1.6069 -1.3707
  380MOL0     H51248   8.478   3.415   9.490 -1.0771  0.1282  0.8139
  380MOL0     H51249   8.635   3.291   9.603 -1.7875  3.5550 -1.4104
  380MOL0     H51250   8.571   3.130   9.537 -1.0619 -0.2021  0.7377
  380MOL0     H51251   8.721   3.458   9.416  0.1012 -0.3060 -0.1266
  380MOL0     H51252   8.984   3.448   9.226  0.4632  0.9388 -1.1595
  380MOL0     H51253   8.915   3.367   9.085  1.9993  1.5825 -0.9822
  380MOL0     H51254   8.756   3.545   9.062 -1.5700 -1.3768  1.6840
  380MOL0     H51255   8.759   3.591   9.231 -0.9324 -1.5734 -1.1073
  380MOL0     H51256   8.992   3.633   9.039  1.0757  0.3388  1.4109
  380MOL0     H51257   8.985   3.696   9.199  1.7512 -0.0654 -1.4457
  380MOL0     H51258   8.780   3.772   8.977  0.2144  2.6093  0.2477
  380MOL0     H51259   8.917   3.863   9.045  2.0991 -1.6277  1.2476
  380MOL0     H51260   8.610   4.003   9.356  0.1266 -0.2348  0.3705
  380MOL0     H51261   8.476   4.195   9.312 -1.6489 -2.9332  1.2592
  380MOL0     H51262   8.136   4.393   9.070 -1.6298 -0.1004 -1.2960
  380MOL0     H51263   8.017   4.598   8.990 -2.4481  0.2730  2.9716
  380MOL0     H51264   8.077   4.833   8.839  0.5403 -3.2080  1.6723
  380MOL0     H51265   7.929   4.841   8.944  0.3592 -0.0227  1.8864
  380MOL0     H51266   8.115   5.073   8.904 -0.1214 -1.0941  1.3432
  380MOL0     H51267   7.968   5.043   8.800  1.6992  2.8075 -0.9893
  380MOL0     H51268   7.922   5.010   9.077  5.1598 -2.0118 -2.0219
  380MOL0     H51269   7.965   5.181   9.048 -1.2920  1.2493  0.3056
  380MOL0     H51270   7.737   5.024   8.912 -0.6203  1.0509 -2.5263
  380MOL0     H51271   7.797   5.179   8.860 -1.5256  0.8993  0.2713
  380MOL0     H51272   7.700   5.287   9.068  0.8418  0.5857 -1.7774
  380MOL0     H51273   7.657   5.121   9.119  0.7791 -0.1012  0.8700
  380MOL0     H51274   7.556   5.309   8.900  0.4908  1.5751  2.8776
  380MOL0     H51275   7.527   5.130   8.882  1.4859 -1.2953 -0.2608
  380MOL0     H51276   7.473   5.306   9.129 -0.2766  0.8549  0.1726
  380MOL0     H51277   7.403   5.152   9.112 -1.2615 -0.1527  0.2994
  380MOL0     H51278   7.231   5.350   9.047 -3.4410  0.8920 -2.2363
  380MOL0     H51279   7.344   5.389   8.926  1.5834  0.4407  1.7882
  380MOL0     H51280   8.326   4.839   9.163 -1.4094  0.1855 -1.9361
  380MOL0     H51281   8.452   4.625   9.227  0.3622 -0.5611 -2.4411
  380MOL0     H51282   8.582   4.175   8.902 -2.9551  1.6816  0.6442
  380MOL0     H51283   8.723   3.957   8.947  0.7519 -2.3222  2.0753
  380MOL0     H51284   7.550   3.264   9.520  2.6717 -0.9193  1.6604
  380MOL0     H51285   7.296   3.289   9.569 -1.6308  2.7078 -0.6715
  380MOL0     H51286   6.941   3.106   9.855  0.2465 -1.0902 -0.4194
  380MOL0     H51287   6.691   3.123   9.931 -1.3072  0.5678 -1.1501
  380MOL0     H51288   6.524   3.395  10.164 -0.6571 -0.8783  0.6245
  380MOL0     H51289   6.648   3.286  10.159 -1.5646 -0.1496  1.8751
  380MOL0     H51290   6.464   3.145  10.227 -0.4707 -0.0533 -0.9273
  380MOL0     H51291   6.507   3.084  10.075 -0.6119 -2.6831  2.4852
  380MOL0     H51292   6.264   3.117  10.084  0.0124 -1.1910  0.1910
  380MOL0     H51293   6.321   3.240   9.977 -1.7535 -2.1860  0.8080
  380MOL0     H51294   6.285   3.308  10.258  0.7435 -0.1984 -0.3804
  380MOL0     H51295   6.253   3.407  10.109  0.3482  0.9675  2.6294
  380MOL0     H51296   5.876   3.217  10.135 -0.8034  1.3285  2.3814
  380MOL0     H51297   6.714   3.552   9.853 -0.8757 -0.8301  1.1730
  380MOL0     H51298   6.913   3.647   9.768 -2.4163 -1.3316 -2.0166
  380MOL0     H51299   7.059   3.576   9.861  0.8897  1.7161 -0.8230
  380MOL0     H51300   7.034   3.549   9.690  0.0056 -0.2131  0.8748
  381MOL0     O51301   2.576  10.124   2.011  0.1032  0.5994 -0.2056
  381MOL0     C51302   2.501  10.214   2.053  0.4441 -0.6967 -0.8331
  381MOL0     O51303   2.400  10.203   2.150  0.2625 -0.7090 -0.3045
  381MOL0     C51304   2.387  10.086   2.214  0.0408 -0.0060 -0.3580
  381MOL0     C51305   2.265  10.019   2.204 -1.3225  0.2635 -0.7356
  381MOL0     C51306   2.252   9.886   2.257  0.3035  0.6011  0.3276
  381MOL0     C51307   2.356   9.823   2.328  0.3215  1.2611  0.2081
  381MOL0     O51308   2.331   9.694   2.378 -0.0252  0.5958  0.4854
  381MOL0     C51309   2.440   9.596   2.374  0.4171 -0.4661 -0.4470
  381MOL0     C51310   2.401   9.461   2.441 -0.6665  0.5968  0.0651
  381MOL0     C51311   2.381   9.496   2.585  0.1345 -1.2294  0.0094
  381MOL0     C51312   2.311   9.380   2.657  0.4743  0.3615  0.0355
  381MOL0     C51313   2.330   9.377   2.810 -0.0079  0.0508  0.3300
  381MOL0     C51314   2.279   9.506   2.878  0.3706 -0.0674 -0.7526
  381MOL0     C51315   2.219   9.480   3.009  0.8801  0.0344 -0.3164
  381MOL0     C51316   2.183   9.600   3.103  0.7230  0.0204 -0.2390
  381MOL0     N51317   2.301   9.688   3.122 -0.3373  0.4247  0.1772
  381MOL0     C51318   2.333   9.806   3.055  0.2558  0.0504  0.3564
  381MOL0     C51319   2.447   9.842   3.108 -0.4731 -0.0039 -0.1022
  381MOL0     C51320   2.533   9.955   3.056  0.5204 -0.0256 -1.0012
  381MOL0     C51321   2.639   9.906   2.956  0.5825 -0.2624 -0.5467
  381MOL0     C51322   2.755  10.010   2.984 -0.1059  0.1291  0.0178
  381MOL0     C51323   2.866  10.014   2.882  0.1577  0.3073 -0.2987
  381MOL0     O51324   2.818  10.016   2.743 -0.3099 -0.0949  0.5232
  381MOL0     C51325   2.917  10.029   2.650  0.3210 -0.3393 -0.2356
  381MOL0     C51326   2.890  10.143   2.567  0.6171  0.4478 -1.3475
  381MOL0     C51327   2.968  10.165   2.456 -0.1427 -0.3759 -0.0244
  381MOL0     C51328   3.070  10.075   2.424 -0.1014  0.0980 -0.7196
  381MOL0     C51329   3.168  10.102   2.309  0.3008  0.0773  0.7320
  381MOL0     O51330   3.124  10.186   2.204 -0.3279  0.1093 -0.6798
  381MOL0     C51331   3.194  10.258   2.114  0.2321 -1.3537  1.1054
  381MOL0     C51332   3.130  10.344   2.024  0.2916  0.4687  0.0650
  381MOL0     C51333   3.200  10.405   1.916  0.1230 -0.5285 -0.2677
  381MOL0     C51334   3.340  10.399   1.909 -0.5990 -0.1266 -0.1385
  381MOL0     O51335   3.415  10.463   1.807 -0.2867  0.0612 -0.3276
  381MOL0     C51336   3.359  10.534   1.692  0.4763  0.6120  0.1091
  381MOL0     C51337   3.358  10.435   1.579  0.0213  0.8332 -0.0012
  381MOL0     C51338   3.489  10.404   1.521 -0.2547 -0.0347  0.7271
  381MOL0     C51339   3.560  10.521   1.449  0.0433  0.0932 -0.5169
  381MOL0     C51340   3.710  10.482   1.424 -0.5810 -0.2093  0.4328
  381MOL0     C51341   3.798  10.595   1.354 -0.1631  0.1838  0.4170
  381MOL0     C51342   3.819  10.719   1.442  0.2916 -0.9915  0.0831
  381MOL0     C51343   3.846  10.839   1.356 -0.0547 -0.1313 -1.5519
  381MOL0    Cl51344   4.010  10.835   1.288 -0.3191 -0.1271 -0.2932
  381MOL0     C51345   3.409  10.324   2.006 -0.7160 -0.3628  0.3944
  381MOL0     C51346   3.336  10.257   2.110  0.0801 -0.5851  0.8688
  381MOL0     O51347   3.276  10.042   2.315  0.2608 -0.0309 -0.1343
  381MOL0     C51348   3.090   9.959   2.501 -0.9744 -0.3755 -0.9516
  381MOL0     C51349   3.012   9.935   2.611  0.2767 -0.9216 -0.5710
  381MOL0     N51350   2.479   9.753   3.211  0.5094 -0.7589 -0.0148
  381MOL0     N51351   2.394   9.655   3.207  0.1339  0.4729 -0.5592
  381MOL0     C51352   2.474   9.894   2.339  0.1128  0.0230  0.2250
  381MOL0     C51353   2.502  10.019   2.279 -0.6862  0.4417 -0.0993
  381MOL0     C51354   2.520  10.348   1.999  1.1796  0.1104 -0.3202
  381MOL0     C51355   2.460  10.464   2.067  0.7241  0.5648  0.3074
  381MOL0     C51356   2.494  10.598   2.041  0.2846 -0.1357  0.3786
  381MOL0     C51357   2.575  10.618   1.931  0.7518  0.5445  0.5786
  381MOL0     O51358   2.623  10.737   1.890 -0.2397  0.1941  0.0212
  381MOL0     C51359   2.634  10.835   1.991  0.0818 -0.0370 -1.0449
  381MOL0     C51360   2.755  10.910   1.958 -0.9660  0.5348 -0.9584
  381MOL0     C51361   2.884  10.835   1.989 -0.4313  0.9990 -0.4227
  381MOL0     C51362   2.969  10.824   1.865 -0.7283  0.4971  0.7293
  381MOL0     C51363   2.934  10.730   1.757 -0.2551 -0.2480 -0.1050
  381MOL0     C51364   2.905  10.642   1.677 -0.5668  0.7335  0.6232
  381MOL0     C51365   2.612  10.507   1.847  0.1822  0.2145 -0.0636
  381MOL0     C51366   2.597  10.380   1.888 -0.7604  0.2478  0.0627
  381MOL0     C51367   2.679  10.264   1.808 -0.0620 -0.5288  0.1722
  381MOL0     H51368   2.187  10.061   2.141  0.2427  1.5750 -1.9010
  381MOL0     H51369   2.148   9.857   2.243  0.6678 -0.9169  0.6077
  381MOL0     H51370   2.473   9.571   2.273  1.9785 -1.5148  0.2861
  381MOL0     H51371   2.527   9.637   2.426  1.1933  1.8372 -3.3109
  381MOL0     H51372   2.483   9.394   2.412 -1.3119 -0.0861 -0.2024
  381MOL0     H51373   2.310   9.419   2.398 -0.8471  0.2866  0.7466
  381MOL0     H51374   2.310   9.578   2.600 -0.9543 -2.2973  0.9270
  381MOL0     H51375   2.475   9.513   2.638 -0.7568  0.1579  1.2082
  381MOL0     H51376   2.207   9.389   2.624 -0.0307 -1.0424  1.1257
  381MOL0     H51377   2.361   9.287   2.627  0.3522  0.8175 -1.7038
  381MOL0     H51378   2.282   9.288   2.853 -1.0087  0.7741  0.7313
  381MOL0     H51379   2.437   9.370   2.833  0.6492 -0.4227 -2.4928
  381MOL0     H51380   2.358   9.579   2.900  0.1344 -0.4106  1.5119
  381MOL0     H51381   2.195   9.547   2.820 -0.1378 -2.0574 -1.4851
  381MOL0     H51382   2.293   9.421   3.063 -0.2950 -2.7091 -1.4917
  381MOL0     H51383   2.130   9.419   2.990  1.2112 -0.9008  1.0497
  381MOL0     H51384   2.101   9.661   3.064  0.1825 -1.6616 -1.8783
  381MOL0     H51385   2.154   9.559   3.200 -3.1516 -1.8646 -1.9650
  381MOL0     H51386   2.284   9.847   2.967  0.0270 -2.4874 -0.7985
  381MOL0     H51387   2.469  10.036   3.020  1.0769  1.3736  1.0070
  381MOL0     H51388   2.573  10.017   3.137 -0.5423  1.1860 -1.3680
  381MOL0     H51389   2.671   9.803   2.970  2.9474  0.0718 -2.8126
  381MOL0     H51390   2.604   9.906   2.853 -0.1843 -3.4374 -0.3867
  381MOL0     H51391   2.795   9.979   3.082 -2.1835 -0.7002  0.6595
  381MOL0     H51392   2.726  10.115   2.989 -2.0821 -0.3388 -0.9480
  381MOL0     H51393   2.920   9.920   2.898 -0.4599  0.0150  0.0811
  381MOL0     H51394   2.920  10.104   2.912  0.0537  0.7273 -1.3150
  381MOL0     H51395   2.806  10.205   2.596  0.5979 -0.4785  0.7760
  381MOL0     H51396   2.950  10.252   2.393 -0.2304  1.6371  2.6213
  381MOL0     H51397   3.023  10.357   2.034  0.4556  0.4776  2.1931
  381MOL0     H51398   3.136  10.459   1.847 -0.9437  0.7423  1.6243
  381MOL0     H51399   3.260  10.569   1.724 -1.1343 -3.1756 -0.0953
  381MOL0     H51400   3.423  10.620   1.672  1.2482  0.7341  2.7174
  381MOL0     H51401   3.310  10.344   1.614  1.0287 -0.9223 -2.8524
  381MOL0     H51402   3.295  10.468   1.496 -0.8738  0.6847  0.6061
  381MOL0     H51403   3.543  10.364   1.607 -0.5796 -1.8650  0.1149
  381MOL0     H51404   3.472  10.335   1.438 -1.5257  0.6247  0.4176
  381MOL0     H51405   3.555  10.613   1.508  0.3371  1.3098 -2.2857
  381MOL0     H51406   3.498  10.542   1.361  0.1753 -0.2739 -0.6991
  381MOL0     H51407   3.708  10.395   1.358  3.8298  0.1354 -0.5062
  381MOL0     H51408   3.757  10.449   1.517 -0.3959  3.2580  1.7140
  381MOL0     H51409   3.890  10.541   1.330  1.3492  2.5177  0.6360
  381MOL0     H51410   3.758  10.626   1.257  1.3759 -2.6681 -1.2723
  381MOL0     H51411   3.908  10.705   1.504 -0.6578 -1.5550  1.3713
  381MOL0     H51412   3.727  10.734   1.500  2.0386 -0.1380  2.8064
  381MOL0     H51413   3.769  10.841   1.278 -1.0137  2.5341 -0.6617
  381MOL0     H51414   3.825  10.935   1.403 -2.1452 -0.1013 -2.4505
  381MOL0     H51415   3.516  10.307   1.995 -0.3453  1.8051  0.3617
  381MOL0     H51416   3.390  10.190   2.176 -2.0983 -1.0841  2.2821
  381MOL0     H51417   3.171   9.889   2.481  0.8721  1.6408 -0.9456
  381MOL0     H51418   3.025   9.857   2.685 -0.4789 -1.6710 -1.2031
  381MOL0     H51419   2.561   9.849   2.386  2.0033  0.7197 -2.4106
  381MOL0     H51420   2.605  10.055   2.276  0.1798 -1.7599  0.6750
  381MOL0     H51421   2.389  10.451   2.148 -0.0525 -2.6220 -0.7402
  381MOL0     H51422   2.452  10.686   2.089 -0.3809 -0.3876  0.2709
  381MOL0     H51423   2.642  10.792   2.091 -0.0310 -1.1459 -1.4907
  381MOL0     H51424   2.541  10.889   1.973 -0.5915 -1.1713 -1.0523
  381MOL0     H51425   2.750  10.994   2.029  2.0558 -0.9516  1.2478
  381MOL0     H51426   2.748  10.944   1.855 -2.9726 -0.0895 -1.0721
  381MOL0     H51427   2.864  10.733   2.023  0.5147  1.4985  1.8241
  381MOL0     H51428   2.936  10.887   2.070 -3.1634  2.8244  0.2614
  381MOL0     H51429   2.982  10.919   1.812 -0.8909  0.4106  0.5309
  381MOL0     H51430   3.072  10.802   1.896 -0.7555 -0.5200  0.1595
  381MOL0     H51431   2.876  10.573   1.601 -0.3095  1.1202  0.1715
  381MOL0     H51432   2.662  10.519   1.751 -1.2271 -1.1376 -1.0135
  381MOL0     H51433   2.717  10.301   1.713 -0.8338 -1.0348 -0.3502
  381MOL0     H51434   2.764  10.235   1.870 -0.3132 -2.4540 -0.3256
  381MOL0     H51435   2.619  10.174   1.792 -0.2600  0.1100 -3.4828
  382MOL0     O51436   7.556   3.090   0.690 -0.0808 -0.0926 -0.1894
  382MOL0     C51437   7.533   3.213   0.701  0.0844  0.0602 -0.8411
  382MOL0     O51438   7.627   3.312   0.723 -0.2776  0.3479  0.2572
  382MOL0     C51439   7.746   3.283   0.777 -0.1539 -0.0443 -0.0858
  382MOL0     C51440   7.849   3.375   0.757  1.0385 -0.1360 -0.4337
  382MOL0     C51441   7.978   3.370   0.810  0.6722  0.2043 -0.1599
  382MOL0     C51442   8.010   3.248   0.872  0.1607  0.1716 -0.2086
  382MOL0     O51443   8.132   3.224   0.929 -0.7881  0.0373  0.3772
  382MOL0     C51444   8.247   3.284   0.872 -0.0599  0.0649  0.5701
  382MOL0     C51445   8.367   3.191   0.881 -0.1965 -0.0727 -0.3587
  382MOL0     C51446   8.504   3.247   0.928  0.8021  0.2613 -0.0295
  382MOL0     C51447   8.473   3.302   1.071 -0.0185 -0.0594  0.1036
  382MOL0     C51448   8.597   3.337   1.152 -0.2677  0.1019  0.8498
  382MOL0     C51449   8.696   3.433   1.087 -0.2581  0.0013  0.4474
  382MOL0     C51450   8.800   3.476   1.198  0.1883 -0.2384  0.1188
  382MOL0     C51451   8.872   3.355   1.272 -0.2272 -0.6505  0.0462
  382MOL0     N51452   8.975   3.416   1.354  0.2073 -0.8560  0.4835
  382MOL0     C51453   9.105   3.432   1.313 -0.0069 -0.6038  0.1714
  382MOL0     C51454   9.173   3.482   1.416  0.8271 -0.0452  0.7868
  382MOL0     C51455   9.319   3.523   1.426  0.1094 -0.7820  0.5292
  382MOL0     C51456   9.427   3.419   1.409  0.2047  0.2799 -0.7918
  382MOL0     C51457   9.394   3.280   1.469 -0.5779  0.1238 -0.3539
  382MOL0     C51458   9.476   3.162   1.437 -0.2755  0.0898 -0.5935
  382MOL0     O51459   9.616   3.199   1.457  0.3029  0.0698  0.3526
  382MOL0     C51460   9.705   3.107   1.407 -0.4242  1.3791 -0.9642
  382MOL0     C51461   9.681   2.968   1.396 -0.3495 -0.0616  0.3306
  382MOL0     C51462   9.785   2.895   1.331  0.8445 -0.1777  1.0368
  382MOL0     C51463   9.908   2.954   1.288  0.4842 -0.3182 -0.5598
  382MOL0     C51464  10.021   2.866   1.245 -0.0014  0.7586 -0.6364
  382MOL0     O51465   9.992   2.738   1.217 -0.5399  0.8302 -0.1745
  382MOL0     C51466  10.077   2.644   1.143 -0.5575  0.6477 -0.6184
  382MOL0     C51467  10.053   2.503   1.146  0.9031 -0.3199 -0.2852
  382MOL0     C51468  10.125   2.419   1.059 -0.7734  0.2177 -0.3985
  382MOL0     C51469  10.220   2.463   0.967  0.5535 -0.7119 -0.4741
  382MOL0     O51470  10.310   2.391   0.898 -0.5260  0.2985 -0.8262
  382MOL0     C51471  10.261   2.260   0.848  0.2980 -0.1750  0.0519
  382MOL0     C51472  10.348   2.233   0.737 -0.3842 -0.0126 -0.1221
  382MOL0     C51473  10.501   2.200   0.771 -0.0380 -0.0644 -0.6807
  382MOL0     C51474  10.581   2.144   0.652 -0.1980 -0.7360  0.3971
  382MOL0     C51475  10.563   1.990   0.646  0.0763 -0.1191 -0.4208
  382MOL0     C51476  10.630   1.939   0.527  0.0950  0.9845  0.0710
  382MOL0     C51477  10.594   1.795   0.481  0.4059 -0.9026 -0.4711
  382MOL0     C51478  10.677   1.699   0.556 -0.4655  0.0870 -0.2659
  382MOL0    Cl51479  10.601   1.532   0.520 -0.1623 -0.7343  0.3392
  382MOL0     C51480  10.229   2.601   0.964 -0.6254  0.1654 -1.4876
  382MOL0     C51481  10.155   2.689   1.042 -0.4868 -0.0974 -0.5593
  382MOL0     O51482  10.139   2.907   1.257  0.6395 -0.2899 -0.5729
  382MOL0     C51483   9.928   3.090   1.307 -0.3359 -0.2128 -0.8740
  382MOL0     C51484   9.817   3.159   1.351 -0.7185  0.2022  1.0343
  382MOL0     N51485   9.086   3.497   1.522  0.5691  0.1516  0.3315
  382MOL0     N51486   8.968   3.451   1.488 -0.1794 -0.1551 -0.3708
  382MOL0     C51487   7.903   3.165   0.915  0.0151  0.0644 -0.1765
  382MOL0     C51488   7.772   3.187   0.868  0.1452  0.0229  0.4121
  382MOL0     C51489   7.391   3.246   0.671 -0.3559 -0.0683 -0.6474
  382MOL0     C51490   7.353   3.239   0.539  0.5865 -0.5048  0.0071
  382MOL0     C51491   7.217   3.266   0.510  0.3803  0.0936 -0.3332
  382MOL0     C51492   7.122   3.303   0.602 -0.5635  0.1758  0.7808
  382MOL0     O51493   6.991   3.331   0.586 -0.0148 -0.0042  0.9332
  382MOL0     C51494   6.934   3.321   0.457 -0.5758 -0.9041  0.3161
  382MOL0     C51495   6.786   3.340   0.470  0.1304  0.2981 -0.9029
  382MOL0     C51496   6.698   3.211   0.481  0.4266 -0.1297  0.3350
  382MOL0     C51497   6.678   3.160   0.621 -0.7284 -0.2393 -1.0636
  382MOL0     C51498   6.627   3.028   0.635  0.3986 -0.7270 -0.3068
  382MOL0     C51499   6.572   2.917   0.642 -0.2691  0.1795 -0.3307
  382MOL0     C51500   7.164   3.317   0.732  0.3626  0.1785  0.9225
  382MOL0     C51501   7.294   3.285   0.769 -0.4521  1.0681  0.1099
  382MOL0     C51502   7.330   3.303   0.911  0.6348 -0.3423  0.4447
  382MOL0     H51503   7.822   3.457   0.691  0.8394  1.0354  1.0586
  382MOL0     H51504   8.054   3.446   0.795  2.2370 -1.2680 -0.0395
  382MOL0     H51505   8.232   3.294   0.764 -0.9975  1.6044  0.8125
  382MOL0     H51506   8.269   3.381   0.916  3.9996 -0.3870 -0.1256
  382MOL0     H51507   8.372   3.143   0.783  2.2246  0.2506 -0.4485
  382MOL0     H51508   8.339   3.098   0.932  0.7981 -1.2786 -1.8856
  382MOL0     H51509   8.546   3.320   0.858  2.2236 -1.3145 -0.8903
  382MOL0     H51510   8.574   3.164   0.936  2.5292  1.5735 -0.9331
  382MOL0     H51511   8.426   3.397   1.043  3.1414  1.0908 -1.7879
  382MOL0     H51512   8.397   3.252   1.132 -1.5469  2.3486  0.2932
  382MOL0     H51513   8.576   3.370   1.255 -2.6546  2.1265 -0.1982
  382MOL0     H51514   8.636   3.238   1.177 -3.2181 -1.4421 -0.2264
  382MOL0     H51515   8.746   3.384   1.004 -0.3155  3.6466 -1.9538
  382MOL0     H51516   8.647   3.523   1.050  0.6648  0.7539  1.0048
  382MOL0     H51517   8.747   3.535   1.273  0.4112  1.1685 -0.7859
  382MOL0     H51518   8.870   3.545   1.150 -2.2871  2.7752  0.5210
  382MOL0     H51519   8.808   3.291   1.333 -0.1570 -0.3207  0.4726
  382MOL0     H51520   8.913   3.289   1.195  0.2661 -2.5007  1.8226
  382MOL0     H51521   9.146   3.410   1.215 -0.5416  0.9229 -0.4265
  382MOL0     H51522   9.331   3.597   1.346 -5.2991  0.6030  0.5568
  382MOL0     H51523   9.330   3.585   1.516 -2.7307 -0.5169  0.8141
  382MOL0     H51524   9.453   3.411   1.303  1.2932  1.1062 -0.6074
  382MOL0     H51525   9.512   3.459   1.465 -0.7533 -0.0266  0.9639
  382MOL0     H51526   9.288   3.253   1.461 -0.7358  0.8848 -0.9004
  382MOL0     H51527   9.416   3.282   1.577 -0.3697  0.5812 -0.4019
  382MOL0     H51528   9.454   3.130   1.335 -2.0895  0.0511 -0.2265
  382MOL0     H51529   9.453   3.076   1.501  0.2727  2.0435  2.4629
  382MOL0     H51530   9.586   2.925   1.427 -0.6499  1.0012  0.9528
  382MOL0     H51531   9.773   2.788   1.318  0.7091  0.2389 -5.4439
  382MOL0     H51532   9.985   2.461   1.220  3.4851 -2.0193  1.2763
  382MOL0     H51533  10.094   2.315   1.059  1.1699 -0.4713  2.4184
  382MOL0     H51534  10.258   2.197   0.937 -1.2936  0.0388  0.1803
  382MOL0     H51535  10.164   2.272   0.799  0.8306  3.6363 -0.3925
  382MOL0     H51536  10.302   2.142   0.697 -0.5694 -0.8175  1.8554
  382MOL0     H51537  10.354   2.321   0.672 -1.6616  0.7560  0.7733
  382MOL0     H51538  10.550   2.289   0.811  2.3684 -0.7159 -1.9859
  382MOL0     H51539  10.502   2.126   0.851  1.1042 -1.6235 -2.0503
  382MOL0     H51540  10.689   2.165   0.656 -0.4915  1.0899 -0.0161
  382MOL0     H51541  10.541   2.186   0.559 -2.6957 -2.4121  0.6411
  382MOL0     H51542  10.456   1.968   0.653 -0.3797  2.0932  0.3854
  382MOL0     H51543  10.609   1.940   0.732  0.7686 -0.4997 -0.9907
  382MOL0     H51544  10.617   2.009   0.444  2.6951  1.4492 -0.0313
  382MOL0     H51545  10.737   1.939   0.551 -0.1585 -1.6094  1.4730
  382MOL0     H51546  10.608   1.789   0.373  0.9893  1.5472 -0.6007
  382MOL0     H51547  10.489   1.788   0.509  0.5883  3.0631  2.0088
  382MOL0     H51548  10.778   1.703   0.515  0.7928 -0.5271  2.5342
  382MOL0     H51549  10.677   1.712   0.665  0.0629  2.3552 -0.4673
  382MOL0     H51550  10.303   2.650   0.901  1.0495 -0.1423  0.1407
  382MOL0     H51551  10.164   2.795   1.022 -2.9696  0.0921 -0.8958
  382MOL0     H51552  10.020   3.142   1.280 -1.2173  0.5566 -2.5995
  382MOL0     H51553   9.829   3.267   1.355  0.2384  0.0802  3.3444
  382MOL0     H51554   7.920   3.087   0.987  1.7328  0.2779 -0.3219
  382MOL0     H51555   7.685   3.136   0.908  1.1181  0.0718  2.7309
  382MOL0     H51556   7.423   3.234   0.456  0.7031  1.8967 -0.0945
  382MOL0     H51557   7.196   3.287   0.405 -1.7107  4.0052  0.6642
  382MOL0     H51558   6.949   3.228   0.402 -0.5738 -1.5387  1.3765
  382MOL0     H51559   6.983   3.390   0.386 -0.3237 -1.7551 -0.3518
  382MOL0     H51560   6.759   3.387   0.375  1.1706  1.1201 -0.8118
  382MOL0     H51561   6.769   3.400   0.560  1.5377  1.7283 -1.5522
  382MOL0     H51562   6.734   3.145   0.401  2.5725 -0.5530  1.5574
  382MOL0     H51563   6.602   3.246   0.442  0.4399 -1.4803 -0.9873
  382MOL0     H51564   6.777   3.162   0.667 -1.4652  1.7998  0.6191
  382MOL0     H51565   6.615   3.235   0.669 -0.9864 -1.2610  0.2478
  382MOL0     H51566   6.513   2.833   0.672  2.5362 -0.7661  3.3136
  382MOL0     H51567   7.097   3.349   0.811 -1.6649 -1.4366 -0.0435
  382MOL0     H51568   7.398   3.221   0.933 -0.6517 -1.7540 -0.6007
  382MOL0     H51569   7.373   3.401   0.934 -0.7868 -0.2124  2.9888
  382MOL0     H51570   7.237   3.282   0.966 -1.9721  3.7572 -1.8670
  383MOL0     O51571   9.785   9.668   3.354  0.4771 -0.4964  0.3231
  383MOL0     C51572   9.717   9.662   3.463 -0.9202 -0.2220 -0.3061
  383MOL0     O51573   9.760   9.706   3.590  0.3690 -1.4263 -0.5269
  383MOL0     C51574   9.873   9.776   3.638 -0.4621  0.7458  0.2959
  383MOL0     C51575   9.993   9.775   3.567  0.0233  0.7754 -0.6706
  383MOL0     C51576  10.111   9.824   3.624  0.4025  0.4260 -1.0395
  383MOL0     C51577  10.110   9.879   3.755 -0.5817 -0.2613 -0.1947
  383MOL0     O51578  10.235   9.921   3.798 -0.1681  0.4955  0.8734
  383MOL0     C51579  10.248   9.958   3.931 -0.5315 -0.4867 -0.1010
  383MOL0     C51580  10.360   9.875   3.987 -0.3444  0.8577 -0.5118
  383MOL0     C51581  10.373   9.865   4.136  0.3144 -0.1149 -0.3050
  383MOL0     C51582  10.469   9.746   4.169  0.1882 -0.2328  0.0597
  383MOL0     C51583  10.615   9.797   4.166 -0.5082 -0.0453 -0.3950
  383MOL0     C51584  10.699   9.683   4.209 -0.6956  0.2075  0.3285
  383MOL0     C51585  10.837   9.716   4.244 -0.3680  0.3200  0.6593
  383MOL0     C51586  10.846   9.795   4.371  1.1057 -0.4112  0.3597
  383MOL0     N51587  10.874   9.720   4.487 -0.5197  0.3234  0.2436
  383MOL0     C51588  10.786   9.675   4.582  0.3757  0.2265  0.0270
  383MOL0     C51589  10.857   9.621   4.685 -0.4589 -0.1605 -0.0841
  383MOL0     C51590  10.791   9.551   4.797  0.1282 -0.4441 -0.2599
  383MOL0     C51591  10.841   9.580   4.934  0.0819 -0.1065 -0.7389
  383MOL0     C51592  10.891   9.729   4.957  0.5959  0.7182 -0.9330
  383MOL0     C51593  10.970   9.735   5.088  0.3445  0.4076 -0.0913
  383MOL0     O51594  11.096   9.657   5.082 -0.4258 -1.0108  0.0799
  383MOL0     C51595  11.192   9.674   5.180 -0.4271 -0.7248  0.2833
  383MOL0     C51596  11.154   9.726   5.307  0.0474 -0.0922  0.3400
  383MOL0     C51597  11.253   9.774   5.392  0.8631 -0.7093  1.0256
  383MOL0     C51598  11.386   9.761   5.356 -0.2394 -0.9463  0.2289
  383MOL0     C51599  11.499   9.817   5.441  0.3926 -0.0996 -0.5744
  383MOL0     O51600  11.463   9.931   5.510 -0.1307 -0.2378  0.2887
  383MOL0     C51601  11.542   9.981   5.605  0.2041 -0.1598 -0.1259
  383MOL0     C51602  11.596   9.914   5.719  0.3842 -0.2604 -0.0690
  383MOL0     C51603  11.669   9.975   5.812  0.6524 -0.2825 -0.0558
  383MOL0     C51604  11.683  10.115   5.808  0.3211  0.2440  1.1222
  383MOL0     O51605  11.754  10.187   5.898 -0.1009  0.7432  0.7641
  383MOL0     C51606  11.855  10.116   5.971 -0.1545  0.1290  0.0175
  383MOL0     C51607  11.962  10.213   6.027 -0.0283  0.3712  0.4790
  383MOL0     C51608  11.912  10.304   6.140 -0.7184 -0.2157  0.3686
  383MOL0     C51609  12.032  10.395   6.190  0.2293 -0.4892  0.5827
  383MOL0     C51610  11.991  10.471   6.319 -0.0095  0.0339 -0.2340
  383MOL0     C51611  12.116  10.544   6.357 -0.7558  1.1649 -0.5496
  383MOL0     C51612  12.131  10.623   6.485  1.0153 -0.3653 -0.1966
  383MOL0     C51613  12.158  10.540   6.612  0.1266  0.5989 -0.2695
  383MOL0    Cl51614  12.328  10.479   6.594 -0.7090 -0.2781  0.4496
  383MOL0     C51615  11.622  10.189   5.703 -0.3804  0.6299 -0.7004
  383MOL0     C51616  11.553  10.122   5.601  0.3104 -0.5989  0.6903
  383MOL0     O51617  11.606   9.771   5.456 -0.1100 -0.0351 -0.8347
  383MOL0     C51618  11.420   9.693   5.238  0.9930  0.3793  0.2653
  383MOL0     C51619  11.325   9.658   5.139  0.2805 -0.7251 -0.4469
  383MOL0     N51620  10.989   9.634   4.653 -0.0157  0.0269  0.1057
  383MOL0     N51621  10.993   9.689   4.536  0.3319  0.3179  0.2777
  383MOL0     C51622   9.984   9.893   3.817 -0.1071 -0.7569 -0.1046
  383MOL0     C51623   9.878   9.824   3.767 -0.2917 -0.1036  0.6613
  383MOL0     C51624   9.570   9.622   3.456  0.5783  0.2191  0.2655
  383MOL0     C51625   9.491   9.660   3.567 -0.7794  0.4482  0.5558
  383MOL0     C51626   9.358   9.620   3.584  0.4931  0.0731  0.1411
  383MOL0     C51627   9.293   9.553   3.481 -0.4682  0.1692  0.2090
  383MOL0     O51628   9.161   9.531   3.506 -0.2346 -0.4803  0.5256
  383MOL0     C51629   9.090   9.428   3.420 -0.4025  0.4257 -0.1303
  383MOL0     C51630   8.961   9.398   3.486  0.1229 -0.1277  1.1176
  383MOL0     C51631   8.895   9.283   3.415 -1.0692  0.2278  0.0381
  383MOL0     C51632   8.745   9.265   3.446  0.1510 -0.3453  0.4369
  383MOL0     C51633   8.686   9.152   3.374  1.1465 -0.9574 -0.7249
  383MOL0     C51634   8.647   9.052   3.323 -0.3327  0.5705 -0.3558
  383MOL0     C51635   9.367   9.527   3.364  0.8704  0.3423 -0.1612
  383MOL0     C51636   9.492   9.572   3.344  0.4007  0.6104 -0.3211
  383MOL0     C51637   9.559   9.533   3.211 -0.0174  0.0481  0.0153
  383MOL0     H51638  10.001   9.737   3.466  0.9363  0.3901 -0.4563
  383MOL0     H51639  10.206   9.823   3.571 -0.2757  1.2540 -2.3195
  383MOL0     H51640  10.279  10.060   3.953  0.3611 -0.5180 -1.1698
  383MOL0     H51641  10.165   9.933   3.998  1.0401 -2.3592  1.2803
  383MOL0     H51642  10.454   9.912   3.945 -0.5681  1.4444 -0.5039
  383MOL0     H51643  10.338   9.774   3.951  0.5629  1.0859 -1.7770
  383MOL0     H51644  10.273   9.844   4.177 -1.0609  4.5251 -0.7673
  383MOL0     H51645  10.418   9.953   4.182  2.0627  0.1242 -2.3401
  383MOL0     H51646  10.462   9.711   4.273  2.4839 -0.3929  0.2022
  383MOL0     H51647  10.446   9.670   4.094  0.7896 -1.0003  0.6398
  383MOL0     H51648  10.645   9.829   4.066 -1.4000  2.8329  0.1621
  383MOL0     H51649  10.628   9.881   4.235 -1.8459 -1.2697  1.4473
  383MOL0     H51650  10.648   9.635   4.294 -1.7992  2.3747  0.9623
  383MOL0     H51651  10.701   9.606   4.131 -0.8190 -1.5457  1.9679
  383MOL0     H51652  10.881   9.781   4.169 -1.7358  1.5971  0.9103
  383MOL0     H51653  10.887   9.618   4.240  0.2525  0.6664 -0.7225
  383MOL0     H51654  10.921   9.873   4.352 -0.5830  0.7993 -1.9919
  383MOL0     H51655  10.752   9.851   4.373 -0.4964 -2.8407 -1.6532
  383MOL0     H51656  10.680   9.678   4.560  0.3768  0.4745  0.0566
  383MOL0     H51657  10.686   9.583   4.801  0.1941 -0.1705 -0.6745
  383MOL0     H51658  10.798   9.443   4.780  1.3638 -0.5983  1.0127
  383MOL0     H51659  10.762   9.562   5.007  1.2187 -0.0776  0.5393
  383MOL0     H51660  10.921   9.507   4.950  0.0394  0.3998  2.6150
  383MOL0     H51661  10.804   9.795   4.965  0.8114  0.8739  0.5165
  383MOL0     H51662  10.949   9.772   4.875  0.8423 -0.1465 -1.2198
  383MOL0     H51663  10.912   9.706   5.176  3.4050  1.4474  2.4748
  383MOL0     H51664  10.984   9.841   5.108 -4.6647  0.8155  2.6337
  383MOL0     H51665  11.053   9.748   5.339 -0.3040 -1.0129 -0.1439
  383MOL0     H51666  11.221   9.840   5.473  0.7791  0.8762 -0.2423
  383MOL0     H51667  11.582   9.808   5.734 -1.8073  0.0081  0.1313
  383MOL0     H51668  11.716   9.917   5.890  0.8192  0.0660  0.1080
  383MOL0     H51669  11.806  10.057   6.049 -0.4410 -1.7629 -1.5382
  383MOL0     H51670  11.907  10.055   5.897  1.1975  1.5754 -0.2953
  383MOL0     H51671  12.037  10.150   6.075 -1.4064 -1.6206  0.1469
  383MOL0     H51672  11.993  10.275   5.942  0.4147 -0.9191 -0.3381
  383MOL0     H51673  11.816  10.345   6.106 -1.9829 -2.5436  0.8717
  383MOL0     H51674  11.874  10.242   6.222 -1.3920  1.0943  1.0793
  383MOL0     H51675  12.078  10.465   6.119  0.9167 -0.5012  1.0088
  383MOL0     H51676  12.111  10.326   6.221 -1.1191 -2.4780 -0.2103
  383MOL0     H51677  11.964  10.405   6.402 -2.0004  3.3299  1.9396
  383MOL0     H51678  11.912  10.545   6.304  1.2580  1.1383 -1.8824
  383MOL0     H51679  12.198  10.471   6.364 -0.7635  1.0127 -1.8586
  383MOL0     H51680  12.148  10.594   6.265 -1.1394 -0.5084 -1.6265
  383MOL0     H51681  12.046  10.686   6.513  0.3389 -1.6144  0.6300
  383MOL0     H51682  12.219  10.688   6.472  1.4864 -1.3626 -2.5282
  383MOL0     H51683  12.148  10.604   6.700 -0.2729 -1.2207  1.0674
  383MOL0     H51684  12.086  10.458   6.625  3.0392 -2.2718 -0.9493
  383MOL0     H51685  11.627  10.297   5.692 -1.5728  0.5628 -2.2687
  383MOL0     H51686  11.510  10.190   5.527 -2.3942 -3.7212 -0.8505
  383MOL0     H51687  11.525   9.681   5.213  0.7896 -0.1646 -0.3426
  383MOL0     H51688  11.351   9.629   5.038  0.7095 -0.0130 -0.5452
  383MOL0     H51689   9.970   9.932   3.918 -4.2500 -3.7030  0.7388
  383MOL0     H51690   9.787   9.818   3.828  1.4191  1.5044  3.6342
  383MOL0     H51691   9.530   9.730   3.640 -0.1415  2.3019 -1.4478
  383MOL0     H51692   9.305   9.639   3.677  0.0124 -2.6874  0.4936
  383MOL0     H51693   9.155   9.341   3.409  0.6744  0.9534  1.7811
  383MOL0     H51694   9.074   9.461   3.316  1.3704 -0.3919 -0.7000
  383MOL0     H51695   8.904   9.491   3.479  0.7769  0.1431 -3.1816
  383MOL0     H51696   8.995   9.370   3.587  0.1604 -1.9238  0.6459
  383MOL0     H51697   8.946   9.191   3.446 -1.9999 -0.5322 -0.6355
  383MOL0     H51698   8.912   9.286   3.307 -4.2452 -0.3487 -0.5721
  383MOL0     H51699   8.742   9.247   3.554 -2.6587 -1.2171  0.2928
  383MOL0     H51700   8.698   9.360   3.419  4.0167  2.1147  1.6101
  383MOL0     H51701   8.616   8.962   3.273  0.1252 -0.3097  0.8981
  383MOL0     H51702   9.319   9.472   3.283  0.4814 -0.8917  0.8812
  383MOL0     H51703   9.499   9.471   3.144  1.8173  0.5628 -2.2233
  383MOL0     H51704   9.574   9.626   3.156 -3.2284 -1.2062 -3.3785
  383MOL0     H51705   9.660   9.492   3.227 -0.4611  0.3257  5.9634
  384MOL0     O51706   2.920   7.951   6.875  0.9456 -0.4315  0.0109
  384MOL0     C51707   3.038   7.931   6.900  0.0263  0.8303  0.1838
  384MOL0     O51708   3.095   7.940   7.025 -0.3717  0.3180  1.4811
  384MOL0     C51709   3.013   8.000   7.123 -0.1003 -0.4158 -0.0248
  384MOL0     C51710   2.963   7.918   7.225 -0.2932  0.7966  0.0776
  384MOL0     C51711   2.901   7.976   7.337  0.1098  0.0929  0.0975
  384MOL0     C51712   2.884   8.111   7.359  0.2376 -0.4048  1.0930
  384MOL0     O51713   2.824   8.174   7.469 -0.1749  0.7272  0.6502
  384MOL0     C51714   2.917   8.229   7.560  0.7864  0.4630  0.9126
  384MOL0     C51715   2.839   8.283   7.676  0.0442  0.6542  0.0600
  384MOL0     C51716   2.793   8.166   7.758 -0.0133  0.5309 -0.8586
  384MOL0     C51717   2.719   8.230   7.881  0.0964  0.7858  0.3162
  384MOL0     C51718   2.649   8.130   7.972 -1.1262  0.2126  0.4475
  384MOL0     C51719   2.756   8.063   8.057 -0.4999 -0.2471 -0.3080
  384MOL0     C51720   2.682   7.997   8.174 -0.3184 -0.2782  0.1301
  384MOL0     C51721   2.720   8.051   8.318 -0.0832  0.1800  0.5316
  384MOL0     N51722   2.679   8.198   8.331  0.4955  0.5399 -0.3944
  384MOL0     C51723   2.562   8.257   8.283  0.5299  0.3515 -0.1021
  384MOL0     C51724   2.588   8.387   8.296 -0.0549 -0.0866  0.1523
  384MOL0     C51725   2.509   8.501   8.235 -0.7568  0.0888 -0.6810
  384MOL0     C51726   2.510   8.490   8.082 -0.1650 -0.1349 -0.0148
  384MOL0     C51727   2.440   8.603   8.017 -0.1983 -0.8407  1.1845
  384MOL0     C51728   2.407   8.563   7.864 -0.9679 -0.7213 -0.2298
  384MOL0     O51729   2.525   8.564   7.791  0.2908 -0.0235 -0.0131
  384MOL0     C51730   2.587   8.692   7.768  0.5713 -0.2059  0.0372
  384MOL0     C51731   2.523   8.822   7.790 -0.5369  1.0552  0.1963
  384MOL0     C51732   2.594   8.943   7.765  0.3795 -0.1174 -0.9420
  384MOL0     C51733   2.727   8.932   7.727  0.3165  0.0034  0.0689
  384MOL0     C51734   2.819   9.053   7.713 -0.1992 -0.5120 -0.3979
  384MOL0     O51735   2.765   9.173   7.695 -0.7492  0.6309  0.5199
  384MOL0     C51736   2.848   9.272   7.656 -0.1261  0.2079 -0.0904
  384MOL0     C51737   2.931   9.336   7.747  0.6214 -0.2002 -0.4094
  384MOL0     C51738   3.005   9.456   7.718 -0.2232  0.4048  0.6425
  384MOL0     C51739   2.991   9.514   7.588  0.0681  0.8153  0.3304
  384MOL0     O51740   3.046   9.633   7.554 -0.0725  0.5811  0.7813
  384MOL0     C51741   3.095   9.717   7.652 -0.4532  0.5735  0.7082
  384MOL0     C51742   3.086   9.866   7.621 -0.1021  0.2944  0.8100
  384MOL0     C51743   2.945   9.922   7.626 -0.4251  0.4063  0.1035
  384MOL0     C51744   2.909  10.042   7.540 -0.2997 -0.5310 -0.1087
  384MOL0     C51745   2.764  10.098   7.545  0.4157  0.6617  0.4404
  384MOL0     C51746   2.721  10.181   7.665  0.5395 -0.3021  0.1136
  384MOL0     C51747   2.588  10.251   7.632  0.5235 -0.4429  0.9844
  384MOL0     C51748   2.510  10.283   7.758 -0.5674 -0.9383 -0.2565
  384MOL0    Cl51749   2.453  10.127   7.827 -0.3904 -0.1410 -0.0143
  384MOL0     C51750   2.911   9.441   7.497  0.3182 -0.0123 -0.0214
  384MOL0     C51751   2.835   9.324   7.529 -1.1513 -0.8087 -0.1250
  384MOL0     O51752   2.935   9.031   7.718  0.0143 -0.4022 -0.0928
  384MOL0     C51753   2.783   8.812   7.696  0.2574 -0.4043 -0.0376
  384MOL0     C51754   2.716   8.693   7.731  0.8130  0.3405  0.4515
  384MOL0     N51755   2.700   8.399   8.375 -0.1812 -0.3900 -0.2300
  384MOL0     N51756   2.762   8.292   8.397 -0.8610  0.2791 -0.4205
  384MOL0     C51757   2.920   8.188   7.249 -1.0107  0.2573 -0.5248
  384MOL0     C51758   2.988   8.134   7.138  0.2028 -0.3414  0.0548
  384MOL0     C51759   3.128   7.902   6.785  0.4909  0.6326 -0.5647
  384MOL0     C51760   3.265   7.886   6.825  0.0497 -0.0340  0.7975
  384MOL0     C51761   3.347   7.840   6.719  0.6186  0.6467  0.6479
  384MOL0     C51762   3.307   7.821   6.592 -0.1393 -0.5940  0.5941
  384MOL0     O51763   3.392   7.794   6.484  0.5745  0.0998  0.2148
  384MOL0     C51764   3.529   7.777   6.512  0.1924 -0.9535  0.6913
  384MOL0     C51765   3.621   7.748   6.390  0.5047 -0.6910 -0.4619
  384MOL0     C51766   3.616   7.613   6.344 -0.2088 -0.5329  0.0677
  384MOL0     C51767   3.694   7.598   6.224  0.8316  0.7936  0.1855
  384MOL0     C51768   3.680   7.460   6.173 -0.4495 -0.1629  0.7547
  384MOL0     C51769   3.661   7.349   6.136 -0.6784  0.5526 -0.1043
  384MOL0     C51770   3.176   7.856   6.559  0.1675 -0.6181  0.1216
  384MOL0     C51771   3.077   7.885   6.649  0.3995 -0.6193 -0.9621
  384MOL0     C51772   2.927   7.906   6.614 -0.1152 -0.4782 -0.7081
  384MOL0     H51773   2.981   7.811   7.221  2.3586  1.1696  0.0381
  384MOL0     H51774   2.851   7.923   7.417 -2.3344  2.9433  0.6293
  384MOL0     H51775   2.997   8.158   7.583 -0.5111 -1.3677  0.0987
  384MOL0     H51776   2.962   8.318   7.515 -0.7607  1.2483  0.8488
  384MOL0     H51777   2.756   8.347   7.642  0.1675  0.6210 -0.3050
  384MOL0     H51778   2.905   8.343   7.738  1.2416  0.2820 -0.8224
  384MOL0     H51779   2.868   8.089   7.773 -0.0825 -0.0866 -3.2930
  384MOL0     H51780   2.714   8.120   7.699  1.8796 -1.0065 -2.3052
  384MOL0     H51781   2.778   8.301   7.940 -0.4664  2.1488 -0.7225
  384MOL0     H51782   2.633   8.287   7.845 -1.0394 -1.0780 -0.0827
  384MOL0     H51783   2.576   8.184   8.033 -0.1779 -1.1908  2.9756
  384MOL0     H51784   2.596   8.054   7.915 -1.3207 -0.5154  1.5575
  384MOL0     H51785   2.801   7.981   8.001  0.4299 -1.9442  2.6997
  384MOL0     H51786   2.819   8.147   8.088  0.2481 -0.1690 -1.9509
  384MOL0     H51787   2.699   7.890   8.159  0.3971 -0.0423 -0.7885
  384MOL0     H51788   2.575   8.020   8.175 -0.3943 -0.4025  2.8678
  384MOL0     H51789   2.670   7.982   8.387  2.1124 -2.0979 -0.0144
  384MOL0     H51790   2.825   8.036   8.344 -0.0411  0.3652  0.4667
  384MOL0     H51791   2.486   8.209   8.222  0.7831  0.5008 -0.5453
  384MOL0     H51792   2.405   8.488   8.266  0.5429  0.0589  4.6612
  384MOL0     H51793   2.540   8.597   8.277  2.2882 -1.1852  0.2607
  384MOL0     H51794   2.615   8.474   8.055 -0.0357 -3.6383  1.9763
  384MOL0     H51795   2.463   8.393   8.065 -3.3812  1.0339  1.3823
  384MOL0     H51796   2.492   8.698   8.031  1.7925 -1.5040 -1.0636
  384MOL0     H51797   2.341   8.607   8.064 -1.0494 -1.0952 -0.4932
  384MOL0     H51798   2.342   8.637   7.816  1.7777  3.0300  1.3030
  384MOL0     H51799   2.363   8.463   7.857  1.5406 -1.8704 -0.6646
  384MOL0     H51800   2.421   8.830   7.828 -0.3613 -2.6570  1.8070
  384MOL0     H51801   2.542   9.037   7.781 -0.4112 -0.6904 -0.0026
  384MOL0     H51802   2.928   9.291   7.845 -3.2276 -3.8342 -1.8687
  384MOL0     H51803   3.067   9.484   7.802 -1.9536 -3.5480  3.5982
  384MOL0     H51804   3.050   9.695   7.749  0.2900 -2.0413  0.5473
  384MOL0     H51805   3.199   9.682   7.654 -0.0848  1.3170 -2.0513
  384MOL0     H51806   3.151   9.916   7.694 -0.2695 -0.2579  1.3484
  384MOL0     H51807   3.135   9.883   7.525 -0.3264 -0.0766  0.6301
  384MOL0     H51808   2.874   9.840   7.613 -0.5081 -0.0513  2.8164
  384MOL0     H51809   2.931   9.953   7.730 -1.5110 -0.9270  0.3794
  384MOL0     H51810   2.928  10.013   7.436  3.8537  0.7795  0.1039
  384MOL0     H51811   2.986  10.121   7.542  0.3406 -1.1045 -1.0644
  384MOL0     H51812   2.695  10.013   7.538  2.3459 -1.0467  1.2377
  384MOL0     H51813   2.751  10.148   7.449  1.8011  0.6950  0.2577
  384MOL0     H51814   2.706  10.127   7.759 -2.7396  1.2266  0.6003
  384MOL0     H51815   2.790  10.265   7.672  2.0942 -1.4872 -0.5021
  384MOL0     H51816   2.528  10.198   7.558 -1.0408  0.6959  1.3674
  384MOL0     H51817   2.624  10.338   7.576 -0.0315 -1.8208 -1.6316
  384MOL0     H51818   2.552  10.341   7.840  1.0654 -0.6344 -1.2732
  384MOL0     H51819   2.422  10.345   7.735 -0.3613 -0.9300 -1.0549
  384MOL0     H51820   2.893   9.477   7.396  2.6369 -3.6671 -1.9554
  384MOL0     H51821   2.758   9.292   7.460 -2.5937  1.3963  0.3617
  384MOL0     H51822   2.885   8.816   7.660  0.4048 -1.5931  0.2108
  384MOL0     H51823   2.762   8.595   7.723 -0.5509 -0.3074  0.2520
  384MOL0     H51824   2.904   8.295   7.260 -0.1270  0.1445  3.3559
  384MOL0     H51825   3.031   8.198   7.062 -0.2353 -0.4240 -0.2683
  384MOL0     H51826   3.311   7.908   6.921 -0.8938  0.9841  1.0412
  384MOL0     H51827   3.448   7.833   6.759  0.8826  2.3264  0.3460
  384MOL0     H51828   3.534   7.694   6.583 -0.2297 -2.0262 -0.4940
  384MOL0     H51829   3.573   7.865   6.558  1.2054 -0.4554 -1.1406
  384MOL0     H51830   3.723   7.768   6.423  0.2606  1.3986 -0.8313
  384MOL0     H51831   3.594   7.821   6.312 -0.6806 -2.6006 -1.9353
  384MOL0     H51832   3.517   7.580   6.312 -0.2184 -0.5947  0.1624
  384MOL0     H51833   3.655   7.542   6.418 -1.9988 -0.8364  0.7677
  384MOL0     H51834   3.668   7.669   6.145  2.5802 -1.7660 -2.9320
  384MOL0     H51835   3.801   7.611   6.245  1.9615 -2.1733 -2.7446
  384MOL0     H51836   3.641   7.252   6.094 -1.3475  0.3623  0.6233
  384MOL0     H51837   3.139   7.847   6.457 -1.3322 -2.0084  0.7534
  384MOL0     H51838   2.900   8.005   6.652  1.3221 -0.5580  0.5702
  384MOL0     H51839   2.916   7.898   6.505  2.5435 -3.2456 -0.8908
  384MOL0     H51840   2.857   7.833   6.656 -1.7067  1.9110  1.1533
  385MOL0     O51841   7.183   0.350   0.623  0.6998 -0.5091 -0.2220
  385MOL0     C51842   7.147   0.245   0.571  0.3051 -0.9090 -0.0550
  385MOL0     O51843   7.210   0.131   0.582 -0.1474  0.7615 -0.2286
  385MOL0     C51844   7.314   0.126   0.673 -0.5028 -0.5781  0.2464
  385MOL0     C51845   7.293   0.058   0.784  0.1146 -0.0451  0.3438
  385MOL0     C51846   7.390   0.036   0.876 -0.1951  0.4866 -0.2874
  385MOL0     C51847   7.522   0.082   0.854 -0.0997  0.7911  0.8553
  385MOL0     O51848   7.624   0.056   0.929 -0.3847 -0.4836 -0.2567
  385MOL0     C51849   7.638  -0.076   0.981 -0.3941 -0.3482  1.0555
  385MOL0     C51850   7.651  -0.195   0.875 -0.2128  0.0935 -0.8400
  385MOL0     C51851   7.783  -0.174   0.795 -0.2045 -0.7301  0.3268
  385MOL0     C51852   7.803  -0.299   0.697  0.3140 -0.3830 -0.2175
  385MOL0     C51853   7.941  -0.314   0.636  0.1090  0.1125  0.2659
  385MOL0     C51854   7.996  -0.186   0.560 -0.1338 -0.2165 -0.1742
  385MOL0     C51855   8.115  -0.225   0.464  0.2051 -0.1606 -0.2735
  385MOL0     C51856   8.242  -0.254   0.539  0.8177  1.1075 -0.2012
  385MOL0     N51857   8.355  -0.303   0.460  0.5418 -0.0998  0.6487
  385MOL0     C51858   8.356  -0.376   0.342  0.1486 -0.0168  0.9925
  385MOL0     C51859   8.484  -0.420   0.315 -0.8767 -0.6995 -0.7480
  385MOL0     C51860   8.527  -0.501   0.201 -0.6009 -0.4556  0.5112
  385MOL0     C51861   8.556  -0.411   0.082 -0.3389  0.1741  0.9582
  385MOL0     C51862   8.678  -0.320   0.092  0.1084 -0.4457 -0.2124
  385MOL0     C51863   8.801  -0.412   0.108  0.6395  0.2250 -0.9526
  385MOL0     O51864   8.922  -0.334   0.089 -0.5343  0.2468 -0.5389
  385MOL0     C51865   9.038  -0.392   0.035  0.2537  0.3500 -1.2960
  385MOL0     C51866   9.070  -0.523   0.038  0.8034 -0.2016  0.4204
  385MOL0     C51867   9.202  -0.565   0.007 -0.3412  0.8232  0.6937
  385MOL0     C51868   9.294  -0.480  -0.053 -0.0171  0.3339  1.5193
  385MOL0     C51869   9.440  -0.517  -0.076 -0.0620 -0.2036 -0.1794
  385MOL0     O51870   9.468  -0.647  -0.047  1.0104  0.1852  0.2190
  385MOL0     C51871   9.595  -0.676  -0.074 -0.7901 -0.2890  0.0354
  385MOL0     C51872   9.699  -0.650   0.011 -0.5958  0.1994  0.0044
  385MOL0     C51873   9.832  -0.663  -0.019  0.1402  0.9263  0.2122
  385MOL0     C51874   9.877  -0.716  -0.140 -0.3891 -0.1174  0.3523
  385MOL0     O51875  10.006  -0.737  -0.182  0.1801 -0.1070 -0.4658
  385MOL0     C51876  10.105  -0.642  -0.135  0.7546 -0.3141 -0.0150
  385MOL0     C51877  10.209  -0.700  -0.041 -0.0399  0.0886  0.2355
  385MOL0     C51878  10.172  -0.691   0.103  0.4711 -0.4817 -0.2069
  385MOL0     C51879  10.289  -0.762   0.187  1.0178  0.0145  0.4181
  385MOL0     C51880  10.269  -0.759   0.337 -0.2507  0.4163 -0.0192
  385MOL0     C51881  10.379  -0.847   0.404  0.4055 -0.2113  0.0008
  385MOL0     C51882  10.416  -0.816   0.541  0.7317  0.7620  0.7324
  385MOL0     C51883  10.299  -0.835   0.642 -0.5486 -0.4216 -0.3266
  385MOL0    Cl51884  10.269  -1.008   0.631 -0.0004  0.3725  0.3596
  385MOL0     C51885   9.773  -0.762  -0.227 -0.2229 -0.3243  0.3072
  385MOL0     C51886   9.631  -0.740  -0.194 -0.3805  0.3700 -0.4874
  385MOL0     O51887   9.515  -0.432  -0.124  0.5827 -0.6923  0.1264
  385MOL0     C51888   9.248  -0.356  -0.082  0.6390  0.1529  0.2410
  385MOL0     C51889   9.125  -0.310  -0.036  0.4997  0.0097 -0.1665
  385MOL0     N51890   8.563  -0.377   0.426 -0.1784 -0.5316 -0.4924
  385MOL0     N51891   8.477  -0.330   0.520  0.1723 -0.8164 -0.2486
  385MOL0     C51892   7.538   0.164   0.744 -0.8148 -0.3432 -0.5920
  385MOL0     C51893   7.446   0.184   0.647  0.6886  0.3358 -0.2936
  385MOL0     C51894   7.017   0.261   0.503  0.2147  0.2677  0.3858
  385MOL0     C51895   6.989   0.385   0.435 -0.2797  1.3311  0.1459
  385MOL0     C51896   6.875   0.395   0.343 -0.2129 -0.1627 -0.5746
  385MOL0     C51897   6.780   0.300   0.343 -0.4164  0.6154  0.7274
  385MOL0     O51898   6.673   0.318   0.256 -1.3893 -0.7602  0.4925
  385MOL0     C51899   6.597   0.212   0.207  0.0484  1.0784 -0.9578
  385MOL0     C51900   6.668   0.109   0.124 -0.0706 -0.7011 -0.0526
  385MOL0     C51901   6.662   0.126  -0.026  0.1470  0.7641  1.3627
  385MOL0     C51902   6.695   0.269  -0.056  0.3410 -0.9033 -0.4022
  385MOL0     C51903   6.697   0.302  -0.197 -0.2812  0.8596  0.1744
  385MOL0     C51904   6.707   0.327  -0.317  0.4384  0.7006  0.4226
  385MOL0     C51905   6.792   0.192   0.428 -1.3799  0.5899 -0.3391
  385MOL0     C51906   6.908   0.170   0.511  0.6193  0.2405  0.1912
  385MOL0     C51907   6.926   0.034   0.579  0.5364  0.5921  0.3455
  385MOL0     H51908   7.192   0.027   0.811 -0.6614  0.2433 -1.9539
  385MOL0     H51909   7.361  -0.029   0.958 -3.1671  1.5345 -0.4101
  385MOL0     H51910   7.728  -0.083   1.044 -0.4798  1.7801  1.4892
  385MOL0     H51911   7.547  -0.090   1.040 -0.3379  0.7932  1.4495
  385MOL0     H51912   7.574  -0.185   0.799 -0.4695  1.9338 -0.3816
  385MOL0     H51913   7.644  -0.289   0.930  1.3055 -0.7269 -1.9709
  385MOL0     H51914   7.869  -0.167   0.862 -0.5097 -0.0304  0.6563
  385MOL0     H51915   7.777  -0.079   0.741 -0.1203 -1.4755 -1.0170
  385MOL0     H51916   7.767  -0.390   0.744  2.1088 -1.1066 -0.1416
  385MOL0     H51917   7.736  -0.289   0.611 -0.0262 -2.3318 -0.2255
  385MOL0     H51918   8.011  -0.341   0.715  0.4020 -0.6938 -0.2496
  385MOL0     H51919   7.951  -0.392   0.559  3.4349  2.3371 -1.8238
  385MOL0     H51920   7.919  -0.134   0.502  0.8241  0.4199 -0.9293
  385MOL0     H51921   8.036  -0.112   0.630 -2.6157 -0.0614  1.1652
  385MOL0     H51922   8.145  -0.139   0.403  1.6942 -0.3792  0.1200
  385MOL0     H51923   8.068  -0.300   0.399 -3.1205  0.0939  1.5938
  385MOL0     H51924   8.270  -0.158   0.584  1.4596  1.6313 -1.6352
  385MOL0     H51925   8.224  -0.315   0.627 -0.8620  0.8346 -0.7106
  385MOL0     H51926   8.268  -0.387   0.279  1.9625 -0.0402 -1.7502
  385MOL0     H51927   8.617  -0.556   0.230  2.0226  2.9710 -0.4240
  385MOL0     H51928   8.451  -0.567   0.157  0.2038 -2.0174  1.3762
  385MOL0     H51929   8.574  -0.482   0.001 -0.3120 -0.7959  1.7969
  385MOL0     H51930   8.469  -0.351   0.053  0.2879  1.0332  0.8157
  385MOL0     H51931   8.667  -0.249   0.174 -4.4270 -0.0394 -0.9282
  385MOL0     H51932   8.701  -0.267  -0.001  1.1172 -1.8321 -0.7959
  385MOL0     H51933   8.807  -0.494   0.037  1.9268  0.1419 -0.7786
  385MOL0     H51934   8.815  -0.445   0.211 -1.0015  3.3335  0.4208
  385MOL0     H51935   9.003  -0.598   0.078 -3.3756  2.4497 -0.9560
  385MOL0     H51936   9.234  -0.664   0.039 -0.0724  0.8493  0.5079
  385MOL0     H51937   9.679  -0.599   0.105 -0.8706 -0.1976  0.1662
  385MOL0     H51938   9.907  -0.629   0.052  0.1820 -0.0768  0.6608
  385MOL0     H51939  10.139  -0.611  -0.235 -1.6786 -4.0197 -2.2397
  385MOL0     H51940  10.054  -0.561  -0.083 -2.1304 -0.0445 -2.9273
  385MOL0     H51941  10.224  -0.804  -0.074  0.1148  0.6847 -1.6680
  385MOL0     H51942  10.304  -0.646  -0.043  1.2782 -1.8973  2.5088
  385MOL0     H51943  10.154  -0.586   0.127 -0.9130 -0.3242 -1.7876
  385MOL0     H51944  10.087  -0.751   0.135 -0.0740 -0.2661 -1.2275
  385MOL0     H51945  10.392  -0.734   0.166  1.7746 -0.7795  2.7501
  385MOL0     H51946  10.283  -0.864   0.149 -0.2766  0.7870 -1.6411
  385MOL0     H51947  10.181  -0.813   0.373  1.2471 -3.2410 -1.4166
  385MOL0     H51948  10.276  -0.653   0.363  4.7271  0.3928 -0.4475
  385MOL0     H51949  10.350  -0.952   0.405  2.3253 -0.8514 -2.5807
  385MOL0     H51950  10.465  -0.833   0.339 -0.0490  0.0841 -0.5430
  385MOL0     H51951  10.453  -0.713   0.543 -3.3479  2.4960 -0.7710
  385MOL0     H51952  10.507  -0.869   0.569  2.3107  2.1382 -1.4510
  385MOL0     H51953  10.325  -0.816   0.747  0.2810 -0.4244 -0.5248
  385MOL0     H51954  10.218  -0.765   0.620 -0.7816 -0.6812 -0.2979
  385MOL0     H51955   9.810  -0.818  -0.312 -2.2354  0.3398 -1.0598
  385MOL0     H51956   9.549  -0.774  -0.256 -1.5056  2.9109 -0.5035
  385MOL0     H51957   9.310  -0.296  -0.149 -1.5839 -0.7773 -2.8834
  385MOL0     H51958   9.097  -0.207  -0.057  0.0719  0.1671  1.1353
  385MOL0     H51959   7.634   0.214   0.740 -0.8354 -0.2192  0.3346
  385MOL0     H51960   7.466   0.256   0.568  2.8041  1.9435  1.5706
  385MOL0     H51961   7.061   0.466   0.427  2.1361 -0.7645 -0.5669
  385MOL0     H51962   6.873   0.487   0.284  1.4806  0.1447 -0.2085
  385MOL0     H51963   6.505   0.244   0.158 -1.6558 -2.5577 -0.4977
  385MOL0     H51964   6.571   0.148   0.291 -0.5820  2.0492 -0.4050
  385MOL0     H51965   6.627   0.008   0.137 -0.1023 -0.4025  2.6987
  385MOL0     H51966   6.771   0.105   0.162  0.5436  2.3240 -1.1319
  385MOL0     H51967   6.560   0.101  -0.057  0.5400 -0.3308  0.9223
  385MOL0     H51968   6.718   0.054  -0.085 -4.2142 -3.2070  1.5067
  385MOL0     H51969   6.627   0.338  -0.005  1.3958  0.3674 -0.6548
  385MOL0     H51970   6.786   0.299  -0.003 -1.0343  0.6320  1.2244
  385MOL0     H51971   6.719   0.351  -0.420 -2.0574  3.1905  0.5746
  385MOL0     H51972   6.710   0.124   0.446 -1.9720  1.0022 -1.3657
  385MOL0     H51973   6.968   0.045   0.679  1.4649 -1.0873  0.1762
  385MOL0     H51974   6.837  -0.031   0.574  0.6508  0.4934 -0.7204
  385MOL0     H51975   7.013  -0.013   0.532  0.4114  3.2183 -2.8577
  386MOL0     O51976  11.076   0.760   3.947 -0.2672 -0.4985  0.9781
  386MOL0     C51977  11.131   0.717   3.846  1.2007 -0.1477  0.7653
  386MOL0     O51978  11.083   0.747   3.713 -0.1329 -0.1973  0.0608
  386MOL0     C51979  10.989   0.851   3.703 -0.2026  0.4002 -0.5469
  386MOL0     C51980  10.886   0.829   3.615 -0.7603  0.0099  0.2641
  386MOL0     C51981  10.786   0.924   3.582  0.0323  0.3680  0.0472
  386MOL0     C51982  10.793   1.045   3.649  0.2856 -0.3138  0.3740
  386MOL0     O51983  10.691   1.128   3.632  0.4142  0.4643 -0.0147
  386MOL0     C51984  10.734   1.248   3.571 -0.4309 -0.2177  0.1638
  386MOL0     C51985  10.617   1.291   3.487  0.1453 -0.8256  0.1041
  386MOL0     C51986  10.594   1.210   3.359 -1.1187 -0.5944  0.4944
  386MOL0     C51987  10.694   1.238   3.232 -0.4515 -1.0899 -0.3117
  386MOL0     C51988  10.643   1.173   3.101  0.5623 -0.1417 -0.1879
  386MOL0     C51989  10.627   1.021   3.077  0.5257 -0.5682 -0.1323
  386MOL0     C51990  10.753   0.939   3.082  0.1706  0.2567 -0.3081
  386MOL0     C51991  10.792   0.893   3.226 -0.5827 -1.1896 -0.6277
  386MOL0     N51992  10.938   0.909   3.264  0.1267 -0.1036 -0.2316
  386MOL0     C51993  11.028   0.806   3.258  0.6709  1.0383 -1.1348
  386MOL0     C51994  11.145   0.853   3.305 -0.5982 -0.1718 -0.0782
  386MOL0     C51995  11.262   0.766   3.317 -0.3550 -1.0549  0.9628
  386MOL0     C51996  11.395   0.836   3.269 -0.4381 -0.6627  0.4823
  386MOL0     C51997  11.511   0.734   3.281 -0.0216 -0.8388 -0.8577
  386MOL0     C51998  11.648   0.797   3.259 -0.2869  0.6942  0.4648
  386MOL0     O51999  11.710   0.868   3.367  0.0940  0.0117 -0.7960
  386MOL0     C52000  11.830   0.940   3.340 -0.3725  1.6281  0.3926
  386MOL0     C52001  11.884   1.019   3.442  0.7257  0.7732  0.4175
  386MOL0     C52002  11.993   1.101   3.427  0.3501 -0.0144 -0.9664
  386MOL0     C52003  12.061   1.107   3.304  0.1705 -0.5469  0.7738
  386MOL0     C52004  12.186   1.193   3.279  0.0279 -0.3992 -0.2929
  386MOL0     O52005  12.228   1.216   3.142  0.2163  0.7160 -0.3949
  386MOL0     C52006  12.346   1.288   3.135  1.3856  0.3075 -0.5624
  386MOL0     C52007  12.349   1.427   3.110 -0.1388 -0.7185 -0.5262
  386MOL0     C52008  12.472   1.485   3.083 -0.4951  0.3713 -0.7476
  386MOL0     C52009  12.594   1.404   3.099  0.2641  0.2632  0.0341
  386MOL0     O52010  12.719   1.455   3.076  0.0319 -0.0566  0.5486
  386MOL0     C52011  12.742   1.578   3.021  0.7616  0.7502 -0.6368
  386MOL0     C52012  12.887   1.608   3.007  0.7715 -0.9352  0.5595
  386MOL0     C52013  12.898   1.763   3.028  0.8445  0.7860  0.1465
  386MOL0     C52014  13.037   1.819   3.016 -0.8531 -0.2633 -0.1428
  386MOL0     C52015  13.025   1.976   2.996  0.1122  0.0310 -0.3012
  386MOL0     C52016  13.154   2.050   3.040  0.1836  0.6599 -0.0132
  386MOL0     C52017  13.285   2.000   2.981  0.1706  0.5842  0.5548
  386MOL0     C52018  13.403   2.028   3.077 -0.0591  0.0608  1.0653
  386MOL0    Cl52019  13.402   1.933   3.223  0.2335 -0.1813  0.3702
  386MOL0     C52020  12.578   1.265   3.113 -0.3553 -0.1228  0.6700
  386MOL0     C52021  12.458   1.209   3.134  0.5235  0.0872  0.0771
  386MOL0     O52022  12.252   1.221   3.382 -0.3844 -0.4989 -0.7050
  386MOL0     C52023  12.009   1.019   3.201  0.3595  0.9497  0.6834
  386MOL0     C52024  11.899   0.946   3.219  0.1452 -0.1715  0.5015
  386MOL0     N52025  11.130   0.984   3.337  0.6755  0.1730 -0.5252
  386MOL0     N52026  11.008   1.017   3.322  0.5292 -0.2069 -0.1772
  386MOL0     C52027  10.896   1.074   3.736 -0.1714 -0.1664  0.6441
  386MOL0     C52028  10.985   0.972   3.768 -0.2130  0.1556  0.0267
  386MOL0     C52029  11.253   0.628   3.854 -0.7136  0.0298 -0.7319
  386MOL0     C52030  11.291   0.561   3.738 -0.0735  0.5903 -0.2393
  386MOL0     C52031  11.404   0.481   3.731 -0.0301 -0.3615 -0.3576
  386MOL0     C52032  11.490   0.474   3.838 -0.5844 -0.5106 -0.1127
  386MOL0     O52033  11.604   0.404   3.814 -0.3846 -0.9245  0.3781
  386MOL0     C52034  11.714   0.406   3.902  0.4491 -0.4036 -0.5468
  386MOL0     C52035  11.803   0.539   3.905  0.4608 -0.2920  0.6146
  386MOL0     C52036  11.881   0.547   3.766 -0.9811  0.2338  0.5597
  386MOL0     C52037  11.901   0.688   3.714  0.6249 -0.1750 -0.9199
  386MOL0     C52038  11.953   0.771   3.820 -0.2804  0.4533 -0.2695
  386MOL0     C52039  11.985   0.825   3.931 -0.5081 -0.4426  0.4251
  386MOL0     C52040  11.457   0.540   3.959  0.8423 -0.0461  0.2246
  386MOL0     C52041  11.339   0.619   3.969  1.0760  0.2130 -0.8823
  386MOL0     C52042  11.314   0.669   4.106  0.2907 -0.9038  0.3445
  386MOL0     H52043  10.898   0.737   3.559  3.3195  1.2949 -1.3767
  386MOL0     H52044  10.712   0.899   3.507  1.3207 -2.6683 -0.3775
  386MOL0     H52045  10.748   1.325   3.648 -0.8394 -1.1380  1.1975
  386MOL0     H52046  10.826   1.238   3.513  1.1448 -0.0042  2.4638
  386MOL0     H52047  10.613   1.394   3.451 -1.8093 -0.3413  1.5809
  386MOL0     H52048  10.526   1.280   3.546  1.7395 -1.4646  2.5631
  386MOL0     H52049  10.500   1.228   3.307  0.7142  0.7480 -2.5969
  386MOL0     H52050  10.597   1.103   3.382  2.0734 -0.2482  2.3200
  386MOL0     H52051  10.718   1.343   3.214  2.2332 -1.4749  0.5123
  386MOL0     H52052  10.791   1.191   3.250 -0.6275 -0.7386  1.8734
  386MOL0     H52053  10.540   1.209   3.092  1.0357  1.9700  1.8130
  386MOL0     H52054  10.692   1.226   3.019 -1.2688  1.8281 -0.0917
  386MOL0     H52055  10.567   0.972   3.154  0.6076  0.6913  0.7641
  386MOL0     H52056  10.565   1.013   2.987 -0.4578  0.5684  0.4252
  386MOL0     H52057  10.836   1.006   3.055  1.0810 -0.2091  1.2048
  386MOL0     H52058  10.749   0.862   3.005 -1.7927  0.7417 -0.7421
  386MOL0     H52059  10.741   0.953   3.302  0.6402  0.8386 -1.3231
  386MOL0     H52060  10.755   0.791   3.224 -2.8191 -0.4297 -1.4851
  386MOL0     H52061  11.017   0.701   3.233 -0.2106  0.7014  0.5917
  386MOL0     H52062  11.281   0.715   3.412  0.2030 -3.8205 -0.5128
  386MOL0     H52063  11.235   0.684   3.250 -2.9729  1.6407 -1.5917
  386MOL0     H52064  11.392   0.876   3.167 -0.2086 -0.4433  0.5594
  386MOL0     H52065  11.421   0.913   3.342 -0.8457 -3.4696  3.8955
  386MOL0     H52066  11.506   0.648   3.214  2.2004 -2.3207  0.7678
  386MOL0     H52067  11.513   0.699   3.385 -0.5092  1.6065  0.0436
  386MOL0     H52068  11.656   0.856   3.167  0.1100  2.1472  1.4003
  386MOL0     H52069  11.717   0.713   3.245  0.5717  1.7792 -2.7899
  386MOL0     H52070  11.833   1.023   3.538  0.8386  0.6138  0.4841
  386MOL0     H52071  12.017   1.166   3.511 -0.7951 -1.9414  0.9708
  386MOL0     H52072  12.257   1.483   3.125 -0.0922 -0.7190 -0.2268
  386MOL0     H52073  12.471   1.591   3.060 -0.0498 -0.0694 -3.1344
  386MOL0     H52074  12.703   1.572   2.919  1.9881 -2.6780 -1.0149
  386MOL0     H52075  12.688   1.655   3.078  1.6275  0.4007  0.6993
  386MOL0     H52076  12.945   1.551   3.081 -1.1964 -3.1477  0.5187
  386MOL0     H52077  12.923   1.579   2.908 -0.6521  0.8926 -0.5653
  386MOL0     H52078  12.827   1.815   2.962 -0.4631  2.0342  2.4144
  386MOL0     H52079  12.858   1.779   3.129 -2.0719  0.6627 -0.8700
  386MOL0     H52080  13.086   1.762   2.936  0.0845 -1.2091  1.0643
  386MOL0     H52081  13.084   1.792   3.111 -0.8149  0.4055  0.0279
  386MOL0     H52082  12.945   2.011   3.062 -2.4744 -3.5712 -1.2226
  386MOL0     H52083  13.004   1.996   2.891  0.5372  1.1951 -0.1782
  386MOL0     H52084  13.156   2.157   3.019  1.7842  0.1314 -3.2079
  386MOL0     H52085  13.166   2.030   3.147 -1.0493 -1.0302 -0.1488
  386MOL0     H52086  13.301   2.048   2.883  1.4096 -0.6277  0.1247
  386MOL0     H52087  13.273   1.892   2.972  1.0852  0.4650  0.7079
  386MOL0     H52088  13.494   1.988   3.034  1.5295  2.6521  1.7615
  386MOL0     H52089  13.404   2.133   3.108 -2.3132 -0.7059  4.3292
  386MOL0     H52090  12.667   1.204   3.123 -0.4856 -0.0778  2.7026
  386MOL0     H52091  12.460   1.102   3.151  3.1998  0.2251  1.1411
  386MOL0     H52092  12.048   1.029   3.100 -0.0246  1.8782  0.6141
  386MOL0     H52093  11.861   0.901   3.127  1.1088  0.5985 -0.2986
  386MOL0     H52094  10.890   1.167   3.792  0.7706 -0.4583  1.2537
  386MOL0     H52095  11.062   0.994   3.841  1.0149 -0.4422 -1.0476
  386MOL0     H52096  11.234   0.578   3.648  1.0444 -0.8244 -1.2718
  386MOL0     H52097  11.418   0.423   3.641 -0.0688 -0.4070 -0.3341
  386MOL0     H52098  11.782   0.323   3.879 -1.2692 -1.6254 -1.5183
  386MOL0     H52099  11.670   0.384   4.000 -3.2744  3.6217 -0.9938
  386MOL0     H52100  11.873   0.540   3.989  2.1318 -2.4841 -0.6238
  386MOL0     H52101  11.743   0.629   3.920  2.0740  0.5026  2.7945
  386MOL0     H52102  11.822   0.489   3.694  3.2473 -1.7985 -1.6779
  386MOL0     H52103  11.979   0.500   3.759 -1.7569 -1.4192  0.4796
  386MOL0     H52104  11.966   0.684   3.626 -0.9374 -2.7769 -2.0936
  386MOL0     H52105  11.799   0.719   3.691  0.1041 -2.1439 -1.4415
  386MOL0     H52106  11.999   0.864   4.029 -0.6210 -0.6403  0.5210
  386MOL0     H52107  11.532   0.536   4.036  1.4234 -0.8293 -0.3666
  386MOL0     H52108  11.221   0.624   4.140  0.3738 -0.7323  0.8064
  386MOL0     H52109  11.388   0.640   4.181  0.6088  0.3755  0.5573
  386MOL0     H52110  11.310   0.778   4.111  1.2373 -0.8300 -0.2149
  387MOL0     O52111  10.662   0.776  10.548  0.3453  0.1450  0.2204
  387MOL0     C52112  10.664   0.763  10.427  0.1066  0.4980  0.0972
  387MOL0     O52113  10.770   0.806  10.355  0.3018  0.9842 -0.3896
  387MOL0     C52114  10.883   0.866  10.410  0.1844  0.4140  1.6224
  387MOL0     C52115  11.004   0.857  10.331  1.4354 -0.4700  0.6299
  387MOL0     C52116  11.125   0.911  10.367  1.2647  0.4171 -0.2810
  387MOL0     C52117  11.135   0.974  10.493 -0.9769  0.0544  0.2067
  387MOL0     O52118  11.255   1.035  10.517 -0.1048 -0.9069 -1.1610
  387MOL0     C52119  11.264   1.122  10.637  0.1844 -0.7175 -0.0583
  387MOL0     C52120  11.402   1.170  10.684  0.0350  0.0259  0.2054
  387MOL0     C52121  11.513   1.058  10.681  0.6631 -0.9426  0.3789
  387MOL0     C52122  11.498   0.951  10.787 -0.5042 -0.0508  1.4091
  387MOL0     C52123  11.610   0.846  10.780 -0.3096 -0.5079  0.8704
  387MOL0     C52124  11.622   0.780  10.915 -0.2614  0.7348 -0.0001
  387MOL0     C52125  11.727   0.663  10.916  0.4239 -0.3032  0.3289
  387MOL0     C52126  11.708   0.556  10.806 -0.2652  0.6209 -0.5781
  387MOL0     N52127  11.806   0.448  10.824 -0.5630  0.0438 -0.2066
  387MOL0     C52128  11.945   0.456  10.811 -0.1828 -0.5836  0.0516
  387MOL0     C52129  11.983   0.334  10.853 -0.4223 -0.4754 -0.3772
  387MOL0     C52130  12.132   0.293  10.861  0.5000 -0.5364 -0.7592
  387MOL0     C52131  12.159   0.189  10.756  0.1638  0.4478  0.6549
  387MOL0     C52132  12.307   0.151  10.742 -1.0452 -0.1964  0.4894
  387MOL0     C52133  12.376   0.103  10.872  0.5688 -0.4130  0.0659
  387MOL0     O52134  12.514   0.074  10.846 -0.1648  0.7518 -0.3348
  387MOL0     C52135  12.607   0.164  10.878 -0.3533 -0.7128  1.1400
  387MOL0     C52136  12.598   0.264  10.983 -0.7456 -0.2986 -0.1467
  387MOL0     C52137  12.707   0.351  11.003  0.3443  1.0695  0.6559
  387MOL0     C52138  12.824   0.350  10.926  0.2364 -0.6238  0.4261
  387MOL0     C52139  12.938   0.446  10.947 -0.9535  0.7934  0.1581
  387MOL0     O52140  13.055   0.415  10.879 -0.0149 -0.0098  0.4401
  387MOL0     C52141  13.159   0.505  10.897 -0.0544 -0.4360 -0.4976
  387MOL0     C52142  13.221   0.581  10.800  1.3185  0.1195  0.0941
  387MOL0     C52143  13.325   0.673  10.830 -0.0068  0.8116  0.1894
  387MOL0     C52144  13.377   0.680  10.958 -0.0259  0.3834  0.5100
  387MOL0     O52145  13.491   0.757  10.988  0.0259 -0.2476  0.2869
  387MOL0     C52146  13.507   0.882  10.927 -0.5690 -0.1154 -0.2963
  387MOL0     C52147  13.608   0.960  11.005 -0.6789 -0.5899  0.5082
  387MOL0     C52148  13.693   1.051  10.906  0.3024 -0.4617  0.3473
  387MOL0     C52149  13.772   1.158  10.972  0.1877  0.0277  1.0704
  387MOL0     C52150  13.898   1.095  11.021  0.9431  0.0767 -0.4029
  387MOL0     C52151  13.991   1.188  11.105  0.1280 -0.1685 -0.4630
  387MOL0     C52152  14.107   1.112  11.175  0.0016 -0.3232 -0.3859
  387MOL0     C52153  14.224   1.091  11.079  0.9118 -0.1367 -0.8615
  387MOL0    Cl52154  14.303   1.241  11.033 -0.2883  0.7016 -0.0258
  387MOL0     C52155  13.333   0.590  11.050  0.5084  0.5394 -0.7201
  387MOL0     C52156  13.221   0.506  11.022  0.6614 -0.4013 -0.3919
  387MOL0     O52157  12.926   0.543  11.022  0.3320 -0.5461  0.4124
  387MOL0     C52158  12.840   0.238  10.839 -0.5282 -0.3190 -0.3644
  387MOL0     C52159  12.732   0.153  10.809  0.0639  0.3540 -0.6557
  387MOL0     N52160  11.874   0.256  10.876  0.3208  1.3251  0.0790
  387MOL0     N52161  11.772   0.328  10.888 -0.2264  0.1548 -0.7456
  387MOL0     C52162  11.018   0.978  10.584 -0.9090 -1.0526  0.3066
  387MOL0     C52163  10.898   0.929  10.536  1.2469 -0.4221  0.5982
  387MOL0     C52164  10.551   0.703  10.354  0.4778  0.2537  0.6461
  387MOL0     C52165  10.516   0.762  10.232  0.1046  0.3056  0.4529
  387MOL0     C52166  10.414   0.711  10.150 -0.8114 -0.2452 -0.6561
  387MOL0     C52167  10.341   0.593  10.191 -0.3236 -0.2733 -0.5985
  387MOL0     O52168  10.246   0.525  10.126  0.2799 -0.5575 -0.0622
  387MOL0     C52169  10.195   0.572   9.994 -0.9551  0.4633 -0.1416
  387MOL0     C52170  10.075   0.478   9.951 -0.6330  0.1248 -0.2941
  387MOL0     C52171  10.106   0.321   9.937  0.3256 -0.4294 -0.2532
  387MOL0     C52172  10.063   0.246  10.063  0.1758 -0.0874  0.5942
  387MOL0     C52173  10.177   0.219  10.156 -0.0849 -0.2135 -1.1938
  387MOL0     C52174  10.275   0.211  10.233  0.2842  0.4423 -0.8852
  387MOL0     C52175  10.373   0.544  10.319 -0.7314  0.9407 -0.2791
  387MOL0     C52176  10.471   0.595  10.402 -0.0600  1.0434 -0.0893
  387MOL0     C52177  10.497   0.510  10.532 -0.2490 -0.7533  0.1865
  387MOL0     H52178  10.994   0.811  10.233 -0.2411  1.4343 -0.1650
  387MOL0     H52179  11.223   0.916  10.321  2.5452 -2.7051  1.7527
  387MOL0     H52180  11.194   1.206  10.629  1.9059  0.6930 -0.7642
  387MOL0     H52181  11.223   1.076  10.728  0.5938  1.7741  1.4728
  387MOL0     H52182  11.404   1.197  10.790  2.0376 -1.6347  0.6563
  387MOL0     H52183  11.430   1.257  10.624 -0.2127 -0.5129 -0.7016
  387MOL0     H52184  11.607   1.112  10.695 -0.1911  1.1885 -1.3965
  387MOL0     H52185  11.505   1.019  10.578 -0.3393  2.4234 -0.9535
  387MOL0     H52186  11.499   1.007  10.881 -1.2010  2.5193  0.0009
  387MOL0     H52187  11.402   0.903  10.766  0.1345 -2.3534  3.2646
  387MOL0     H52188  11.605   0.786  10.688  2.9483  0.2427  0.0713
  387MOL0     H52189  11.706   0.896  10.766 -0.5527  0.1153  1.4077
  387MOL0     H52190  11.636   0.853  10.996 -0.7129  2.9878 -1.8451
  387MOL0     H52191  11.529   0.727  10.936 -0.3758  0.9921  0.1509
  387MOL0     H52192  11.705   0.609  11.009  0.3691 -0.9816 -0.0702
  387MOL0     H52193  11.828   0.699  10.933  0.7273 -0.2134 -1.4377
  387MOL0     H52194  11.603   0.526  10.804 -0.2950  0.2121  2.7291
  387MOL0     H52195  11.739   0.600  10.710  1.7036  0.8101  0.1042
  387MOL0     H52196  12.007   0.539  10.778 -0.6040 -0.2441  0.1125
  387MOL0     H52197  12.188   0.385  10.846  0.8544 -1.1689 -4.1519
  387MOL0     H52198  12.151   0.250  10.960 -0.3075 -2.7434 -1.4851
  387MOL0     H52199  12.086   0.109  10.773 -2.1407  2.4953  0.9923
  387MOL0     H52200  12.127   0.227  10.658  0.8098  1.2407  0.7391
  387MOL0     H52201  12.371   0.231  10.704  0.0212 -0.4983  1.5687
  387MOL0     H52202  12.316   0.067  10.673 -3.1980  0.6104 -0.8653
  387MOL0     H52203  12.340   0.002  10.896  1.8557 -1.2349 -1.3186
  387MOL0     H52204  12.361   0.170  10.957 -0.4085 -0.2463 -0.2175
  387MOL0     H52205  12.507   0.289  11.035 -1.4840  0.3709 -1.6941
  387MOL0     H52206  12.680   0.431  11.071 -0.6995 -0.1075  1.6707
  387MOL0     H52207  13.187   0.570  10.697  1.1541  1.1443  0.0357
  387MOL0     H52208  13.379   0.718  10.748  2.8474 -0.0101  1.4910
  387MOL0     H52209  13.557   0.869  10.831 -0.8264 -0.1376 -0.4290
  387MOL0     H52210  13.409   0.928  10.912 -1.4976 -1.9539 -0.0842
  387MOL0     H52211  13.557   1.025  11.077 -0.5847 -0.2010  0.2280
  387MOL0     H52212  13.674   0.891  11.058 -1.2335 -1.8873 -0.4258
  387MOL0     H52213  13.754   1.004  10.829 -0.2808 -0.1989 -0.2761
  387MOL0     H52214  13.609   1.089  10.848  1.8396  1.7969 -0.5392
  387MOL0     H52215  13.718   1.212  11.050 -1.7015 -1.0603  0.5825
  387MOL0     H52216  13.796   1.229  10.892 -0.2606  0.0064  0.9116
  387MOL0     H52217  13.962   1.043  10.949  0.0482 -1.3309 -0.2244
  387MOL0     H52218  13.868   1.013  11.088  3.7146  0.2013  1.1201
  387MOL0     H52219  14.034   1.271  11.048  1.5220 -1.6132 -1.6356
  387MOL0     H52220  13.924   1.234  11.177 -0.5679 -1.0650 -0.5186
  387MOL0     H52221  14.069   1.015  11.207  2.2759 -0.5151  2.0753
  387MOL0     H52222  14.133   1.166  11.266  0.7111  0.6843 -1.1691
  387MOL0     H52223  14.301   1.025  11.120  0.4483  1.6740  3.4699
  387MOL0     H52224  14.191   1.035  10.990  2.0834 -1.1689 -0.6723
  387MOL0     H52225  13.364   0.586  11.153 -1.2527 -3.8437 -0.1378
  387MOL0     H52226  13.187   0.430  11.093 -1.1423 -0.4581 -1.2625
  387MOL0     H52227  12.939   0.218  10.799 -0.0816 -0.2393  0.6555
  387MOL0     H52228  12.750   0.074  10.736 -0.3474 -4.2895  3.7161
  387MOL0     H52229  11.017   1.035  10.676  2.5108  3.1818 -1.8601
  387MOL0     H52230  10.802   0.956  10.579  0.0026 -0.3471 -2.0036
  387MOL0     H52231  10.585   0.834  10.189  1.1284 -1.3520 -0.8522
  387MOL0     H52232  10.385   0.767  10.062 -0.7415  1.6772  0.4892
  387MOL0     H52233  10.283   0.557   9.930  1.2893 -0.4201  2.9001
  387MOL0     H52234  10.157   0.675   9.994  0.1165  0.8810  0.8482
  387MOL0     H52235  10.050   0.507   9.848  3.1219 -2.6674 -2.2290
  387MOL0     H52236   9.990   0.496  10.018  0.8574 -2.6352  2.6158
  387MOL0     H52237  10.204   0.307   9.891  0.4849 -0.8297  0.2101
  387MOL0     H52238  10.037   0.281   9.863 -0.5732 -2.4398  1.5747
  387MOL0     H52239   9.979   0.285  10.122  0.9746  1.2760  0.8735
  387MOL0     H52240  10.031   0.150  10.020 -0.2051  1.2120 -2.2221
  387MOL0     H52241  10.353   0.212  10.306 -0.7521 -2.3241  0.3970
  387MOL0     H52242  10.318   0.457  10.353  4.1793 -1.6195  2.1463
  387MOL0     H52243  10.455   0.562  10.618 -0.2827 -0.3789 -0.0552
  387MOL0     H52244  10.454   0.410  10.523  0.7516 -1.3370  1.5654
  387MOL0     H52245  10.606   0.499  10.540  0.5409  3.4075 -1.8709
  388MOL0     O52246   3.215   2.999   0.057  0.1133 -0.1160 -0.0989
  388MOL0     C52247   3.159   3.043   0.159  0.3590  0.0132 -0.0406
  388MOL0     O52248   3.032   2.999   0.207 -0.1084  0.0698 -0.4749
  388MOL0     C52249   2.989   2.874   0.174  1.3149 -0.2765 -0.0319
  388MOL0     C52250   3.057   2.758   0.223 -0.1795  0.2220  0.1654
  388MOL0     C52251   3.013   2.629   0.180 -0.1272  1.2249 -0.6128
  388MOL0     C52252   2.903   2.608   0.099 -0.0218 -0.7576  0.1362
  388MOL0     O52253   2.853   2.487   0.074 -0.6103 -0.2380  0.1864
  388MOL0     C52254   2.897   2.429  -0.049  0.2484  0.0406  0.1928
  388MOL0     C52255   2.778   2.391  -0.126  0.2514 -0.5989 -0.3871
  388MOL0     C52256   2.670   2.497  -0.170 -0.3191  0.7352 -1.2460
  388MOL0     C52257   2.550   2.436  -0.246 -0.7426  0.0352 -1.1854
  388MOL0     C52258   2.431   2.531  -0.276 -1.3314  0.6084 -0.9176
  388MOL0     C52259   2.473   2.669  -0.331 -0.2752 -0.4866  0.9605
  388MOL0     C52260   2.575   2.646  -0.435 -0.0140 -0.3258  0.0804
  388MOL0     C52261   2.596   2.767  -0.526 -0.7260 -1.0937 -0.9374
  388MOL0     N52262   2.693   2.857  -0.462  0.2049 -0.7113 -0.1062
  388MOL0     C52263   2.815   2.836  -0.473 -0.9682 -0.0317  0.7984
  388MOL0     C52264   2.876   2.918  -0.386 -0.3527  0.9170  0.6647
  388MOL0     C52265   3.021   2.915  -0.363  0.1398  0.5509 -0.2951
  388MOL0     C52266   3.080   3.045  -0.302  0.4428  0.6012  0.1028
  388MOL0     C52267   3.126   3.138  -0.410 -0.3946 -0.6352 -0.3117
  388MOL0     C52268   3.008   3.191  -0.495 -0.4478  0.3956  0.7687
  388MOL0     O52269   3.043   3.282  -0.594  0.1896  0.0376  0.0820
  388MOL0     C52270   3.090   3.229  -0.711 -0.3883  0.0733  0.6901
  388MOL0     C52271   3.019   3.127  -0.776 -0.6174  0.1884  0.6054
  388MOL0     C52272   3.062   3.062  -0.893 -0.5904  0.0956  0.5973
  388MOL0     C52273   3.181   3.104  -0.953 -0.1876  0.1112  0.3284
  388MOL0     C52274   3.219   3.032  -1.084  0.5308  0.0816 -0.8166
  388MOL0     O52275   3.125   2.942  -1.130  0.3511  0.6293  0.0394
  388MOL0     C52276   3.106   2.925  -1.266 -0.1078  0.4595 -0.5416
  388MOL0     C52277   3.176   2.817  -1.322 -0.0057  0.3974  0.0095
  388MOL0     C52278   3.173   2.795  -1.460 -0.2845  0.6749 -0.3141
  388MOL0     C52279   3.092   2.878  -1.537  0.0284  0.1063 -0.2515
  388MOL0     O52280   3.079   2.854  -1.674  0.0760 -0.3901  0.2431
  388MOL0     C52281   3.194   2.838  -1.750  0.3634  0.3687  0.3924
  388MOL0     C52282   3.284   2.969  -1.748 -0.4155 -0.3096  0.4844
  388MOL0     C52283   3.378   2.968  -1.870 -0.0211 -0.4126  0.5120
  388MOL0     C52284   3.454   3.094  -1.894  0.4258 -0.1671 -0.5836
  388MOL0     C52285   3.509   3.098  -2.036  0.5237 -0.1587  0.3246
  388MOL0     C52286   3.624   3.199  -2.045 -0.4719 -1.0862 -0.4364
  388MOL0     C52287   3.685   3.201  -2.188 -0.5924  0.4480  0.6240
  388MOL0     C52288   3.814   3.282  -2.192 -0.8112 -0.4352  0.1350
  388MOL0    Cl52289   3.885   3.244  -2.349 -0.0168 -0.4303  0.1303
  388MOL0     C52290   3.016   2.981  -1.481 -0.4023  0.1097  0.6320
  388MOL0     C52291   3.019   3.001  -1.338 -0.1440  0.7225 -0.1504
  388MOL0     O52292   3.330   3.048  -1.136 -0.1351 -0.3087 -0.3580
  388MOL0     C52293   3.244   3.221  -0.904 -0.0167  0.5724  0.4879
  388MOL0     C52294   3.192   3.288  -0.786 -0.3154 -0.2035  0.6789
  388MOL0     N52295   2.779   2.992  -0.329 -0.3864  0.4293 -0.4084
  388MOL0     N52296   2.671   2.951  -0.373 -0.4708  0.6512  0.0943
  388MOL0     C52297   2.826   2.715   0.068  0.8775 -0.2123 -1.1467
  388MOL0     C52298   2.872   2.848   0.102  0.3896 -0.2289 -1.2837
  388MOL0     C52299   3.197   3.166   0.225  0.2352  0.4551  0.6372
  388MOL0     C52300   3.135   3.199   0.342  0.2706 -1.1114 -0.1497
  388MOL0     C52301   3.161   3.310   0.421 -0.2805 -0.6893 -0.2826
  388MOL0     C52302   3.249   3.408   0.382  0.1017 -0.0337 -0.5185
  388MOL0     O52303   3.260   3.521   0.463 -0.5401 -0.2772  0.7060
  388MOL0     C52304   3.385   3.592   0.457  0.0454 -0.7686  0.4030
  388MOL0     C52305   3.381   3.726   0.385 -0.8295  0.0519  1.1365
  388MOL0     C52306   3.298   3.816   0.473  0.5825 -0.7177 -0.1174
  388MOL0     C52307   3.308   3.960   0.425  0.0735 -0.1634 -0.0243
  388MOL0     C52308   3.212   3.994   0.319 -0.5657  0.2055 -0.9704
  388MOL0     C52309   3.126   4.019   0.238  0.3570  0.2746 -0.3019
  388MOL0     C52310   3.308   3.387   0.252  0.3095  0.0028 -0.1825
  388MOL0     C52311   3.285   3.271   0.175  0.2394 -0.1531 -0.2628
  388MOL0     C52312   3.361   3.274   0.046 -0.3638  0.1002  0.1389
  388MOL0     H52313   3.141   2.754   0.292 -3.1883  2.2277  4.4307
  388MOL0     H52314   3.052   2.535   0.216 -1.7945  1.1656  1.1822
  388MOL0     H52315   2.967   2.492  -0.105  0.9753 -1.7874 -1.0712
  388MOL0     H52316   2.946   2.333  -0.029 -1.8801 -0.8228  1.5777
  388MOL0     H52317   2.732   2.307  -0.073 -2.7155  1.7003  0.9834
  388MOL0     H52318   2.812   2.362  -0.226 -0.1173  0.5453 -0.8652
  388MOL0     H52319   2.727   2.573  -0.223  1.4425  2.5461  2.8153
  388MOL0     H52320   2.629   2.537  -0.077 -3.6647 -1.0354 -1.7894
  388MOL0     H52321   2.591   2.404  -0.342  0.0795  1.8640 -1.4787
  388MOL0     H52322   2.503   2.346  -0.206  0.6691 -0.0065  0.4993
  388MOL0     H52323   2.355   2.486  -0.341 -0.3313  1.5907 -2.8188
  388MOL0     H52324   2.372   2.548  -0.185  0.4717  1.2640  0.1606
  388MOL0     H52325   2.384   2.706  -0.382  0.4433 -2.7857 -2.3073
  388MOL0     H52326   2.518   2.725  -0.249  0.6906  2.1719 -1.2413
  388MOL0     H52327   2.527   2.573  -0.500  0.8008 -0.9173  0.1204
  388MOL0     H52328   2.679   2.626  -0.406  0.4725  0.8917 -0.7340
  388MOL0     H52329   2.632   2.725  -0.621  1.8477  0.8826 -0.9419
  388MOL0     H52330   2.503   2.824  -0.540  0.3491  1.5949  1.8592
  388MOL0     H52331   2.859   2.755  -0.530 -0.5262  0.1154  0.9220
  388MOL0     H52332   3.040   2.832  -0.296 -0.4294 -0.6683 -1.5959
  388MOL0     H52333   3.071   2.891  -0.458 -1.0001  0.5521 -0.9149
  388MOL0     H52334   3.003   3.090  -0.239  0.0942 -0.4125  0.4113
  388MOL0     H52335   3.167   3.022  -0.239  0.9646  0.2037 -0.7423
  388MOL0     H52336   3.181   3.083  -0.486 -1.8158 -0.1862 -1.7181
  388MOL0     H52337   3.186   3.219  -0.366  1.7683 -1.1898 -2.0845
  388MOL0     H52338   2.954   3.254  -0.424 -1.5356  2.1467 -1.4934
  388MOL0     H52339   2.930   3.123  -0.530 -0.4954 -0.1507  1.8762
  388MOL0     H52340   2.923   3.085  -0.750 -0.5343 -1.3598 -1.3749
  388MOL0     H52341   3.016   2.969  -0.924 -1.6220  0.1021  2.0163
  388MOL0     H52342   3.249   2.759  -1.266  2.3462  1.9191 -1.3484
  388MOL0     H52343   3.235   2.714  -1.498  2.1782  1.5290  1.6046
  388MOL0     H52344   3.256   2.749  -1.733 -0.8476 -0.3336  1.2077
  388MOL0     H52345   3.147   2.829  -1.849 -3.1719 -0.2665  2.0018
  388MOL0     H52346   3.214   3.053  -1.750 -2.5620 -1.7015  4.6780
  388MOL0     H52347   3.339   2.984  -1.655 -0.6240  2.8941  0.2127
  388MOL0     H52348   3.456   2.893  -1.855  2.4523  1.7983 -0.5181
  388MOL0     H52349   3.302   2.957  -1.949 -1.3300 -0.3395  1.7156
  388MOL0     H52350   3.538   3.100  -1.825 -0.1537  0.7433  0.0601
  388MOL0     H52351   3.389   3.180  -1.877  0.9482 -0.2861  2.6113
  388MOL0     H52352   3.431   3.113  -2.111  0.9197  0.3363  0.0084
  388MOL0     H52353   3.554   3.004  -2.067  1.4751  0.7272 -1.0855
  388MOL0     H52354   3.579   3.299  -2.039  3.9076  1.0523  0.6510
  388MOL0     H52355   3.687   3.182  -1.958 -2.3830  2.3682  1.8552
  388MOL0     H52356   3.623   3.250  -2.263  0.0340 -0.3035 -0.4235
  388MOL0     H52357   3.703   3.097  -2.219  1.2311  0.7803  0.4391
  388MOL0     H52358   3.807   3.391  -2.204  1.2944 -0.2756  0.1175
  388MOL0     H52359   3.886   3.263  -2.111 -0.6780  1.6669  0.5651
  388MOL0     H52360   2.954   3.037  -1.550 -2.8045 -2.4190  0.5640
  388MOL0     H52361   2.948   3.065  -1.286  0.4317  1.4147 -0.1881
  388MOL0     H52362   3.322   3.280  -0.950 -1.0265  2.8218  1.4839
  388MOL0     H52363   3.240   3.380  -0.755  3.0307 -1.5435  0.0005
  388MOL0     H52364   2.732   2.696   0.017 -0.4044 -3.8239  2.0841
  388MOL0     H52365   2.823   2.939   0.070 -0.6088  0.7411  2.5073
  388MOL0     H52366   3.063   3.131   0.388 -2.7575  2.1013  0.3116
  388MOL0     H52367   3.117   3.326   0.519  0.2212 -0.2142 -0.1298
  388MOL0     H52368   3.472   3.545   0.411  1.7801  0.5816  2.1420
  388MOL0     H52369   3.414   3.616   0.559 -0.9385  1.4675  0.2311
  388MOL0     H52370   3.340   3.725   0.283 -0.7838  1.1321  1.0957
  388MOL0     H52371   3.484   3.752   0.359 -0.8708 -2.3995 -2.1891
  388MOL0     H52372   3.338   3.824   0.575 -0.5967 -0.2215  0.3346
  388MOL0     H52373   3.192   3.791   0.470  0.1233  1.0033  0.2255
  388MOL0     H52374   3.279   4.019   0.511  0.8406 -3.0631  2.4169
  388MOL0     H52375   3.413   3.977   0.399  0.7053 -3.7652 -0.4269
  388MOL0     H52376   3.053   4.042   0.164 -1.8463  1.6108  2.1133
  388MOL0     H52377   3.360   3.475   0.216  0.3181 -0.3645 -1.0838
  388MOL0     H52378   3.439   3.199   0.055 -1.2464 -0.6420  2.2303
  388MOL0     H52379   3.289   3.246  -0.031 -1.5941  1.0498  0.8883
  388MOL0     H52380   3.420   3.363   0.020 -1.7563  0.8755 -0.4747
  389MOL0     O52381   8.873   1.410   8.685  0.3294  0.1261  0.0068
  389MOL0     C52382   8.754   1.408   8.661  0.3653  0.0697  0.1679
  389MOL0     O52383   8.694   1.356   8.551 -0.1708  1.0333 -1.0112
  389MOL0     C52384   8.748   1.240   8.499 -0.3684 -0.2167 -0.2493
  389MOL0     C52385   8.729   1.236   8.363  0.3748 -0.9695  0.0755
  389MOL0     C52386   8.790   1.139   8.276 -0.7078  0.0703 -0.4183
  389MOL0     C52387   8.871   1.049   8.341 -1.0283  0.0414  0.3868
  389MOL0     O52388   8.933   0.944   8.275  0.0245 -0.7151 -0.3240
  389MOL0     C52389   8.961   0.944   8.138  0.0176  0.1128  0.0617
  389MOL0     C52390   9.010   0.804   8.112  0.0649  0.1689  0.9267
  389MOL0     C52391   9.156   0.784   8.128 -0.6436  0.5670  0.3774
  389MOL0     C52392   9.231   0.831   8.010 -0.0926  0.2212  0.4538
  389MOL0     C52393   9.385   0.835   8.027  0.4765  0.8315  0.5482
  389MOL0     C52394   9.424   0.950   8.119  1.0882  0.4182 -0.7094
  389MOL0     C52395   9.580   0.958   8.120  0.6645  0.5411 -0.5772
  389MOL0     C52396   9.639   1.098   8.166  0.9402  0.1030  0.0097
  389MOL0     N52397   9.584   1.126   8.294 -0.5751  0.3088 -0.7027
  389MOL0     C52398   9.610   1.057   8.415 -0.0984  0.2230 -0.2242
  389MOL0     C52399   9.531   1.117   8.511 -0.7475 -0.4011  0.4531
  389MOL0     C52400   9.541   1.078   8.657  0.4836  0.8317  0.3298
  389MOL0     C52401   9.469   0.943   8.705 -0.2413 -0.9380  0.4958
  389MOL0     C52402   9.568   0.872   8.794  0.4705 -0.1765  0.5861
  389MOL0     C52403   9.487   0.764   8.869 -0.0708 -0.0499  0.4938
  389MOL0     O52404   9.568   0.697   8.971  0.2792  0.2786  0.3946
  389MOL0     C52405   9.501   0.676   9.089 -0.1885  0.6301  0.7227
  389MOL0     C52406   9.366   0.654   9.103 -0.0469  0.0255 -0.1091
  389MOL0     C52407   9.318   0.599   9.220 -0.5059 -0.7213 -0.5444
  389MOL0     C52408   9.393   0.583   9.337  0.2377  0.3338  0.1485
  389MOL0     C52409   9.323   0.545   9.464 -0.1196 -0.5052 -0.0407
  389MOL0     O52410   9.212   0.470   9.439  0.0299 -0.1252  0.5162
  389MOL0     C52411   9.119   0.438   9.537  0.1668 -0.3567  0.2015
  389MOL0     C52412   9.043   0.322   9.516  0.0358  0.0322  0.2432
  389MOL0     C52413   8.941   0.286   9.608 -0.5663  0.1863  0.4286
  389MOL0     C52414   8.917   0.366   9.719 -0.5178  0.5536 -0.2617
  389MOL0     O52415   8.813   0.333   9.797  0.0737 -0.1094  0.5695
  389MOL0     C52416   8.680   0.387   9.756  0.1574 -0.6322 -0.0101
  389MOL0     C52417   8.598   0.428   9.879  0.0767  0.5144  0.0342
  389MOL0     C52418   8.476   0.343   9.908 -1.1355 -0.0955 -0.1544
  389MOL0     C52419   8.497   0.243  10.025 -0.2478  0.8415 -0.1467
  389MOL0     C52420   8.364   0.173  10.065  0.5637  0.1443 -0.4056
  389MOL0     C52421   8.294   0.100   9.957  0.7791  0.1972 -0.2216
  389MOL0     C52422   8.364  -0.027   9.906  0.0755  0.0789  1.3266
  389MOL0     C52423   8.329  -0.063   9.759  1.2603  0.8052  1.1767
  389MOL0    Cl52424   8.153  -0.123   9.749 -0.1476 -0.0783 -0.0177
  389MOL0     C52425   8.988   0.490   9.734 -0.3497 -0.5736  0.0940
  389MOL0     C52426   9.085   0.531   9.642  0.2114  0.3722  1.1717
  389MOL0     O52427   9.373   0.578   9.573  0.4074 -0.1705  0.2542
  389MOL0     C52428   9.525   0.618   9.325 -0.9539  0.3485  0.2027
  389MOL0     C52429   9.584   0.664   9.201 -0.2669  0.4059 -0.7897
  389MOL0     N52430   9.459   1.214   8.452  0.6827 -0.4638 -0.2499
  389MOL0     N52431   9.495   1.224   8.326  0.2366 -1.4392 -0.2401
  389MOL0     C52432   8.889   1.050   8.479 -0.2272 -0.1593 -0.4115
  389MOL0     C52433   8.827   1.137   8.560  0.7233 -0.1403  0.5977
  389MOL0     C52434   8.674   1.497   8.746 -0.7944 -1.0159 -0.3570
  389MOL0     C52435   8.706   1.632   8.753 -0.8944 -0.4652  0.2226
  389MOL0     C52436   8.640   1.727   8.831  0.1903 -0.1769 -1.0652
  389MOL0     C52437   8.535   1.691   8.912  0.2880 -1.5289 -0.6958
  389MOL0     O52438   8.448   1.775   8.980  0.3592 -0.2799  0.4753
  389MOL0     C52439   8.466   1.921   8.977 -0.5376  0.3188 -0.0390
  389MOL0     C52440   8.401   1.979   8.849  0.4664 -0.3134 -0.1201
  389MOL0     C52441   8.242   1.979   8.852 -1.1595  0.8167 -0.3129
  389MOL0     C52442   8.180   2.055   8.969 -0.3289 -0.0264  0.0793
  389MOL0     C52443   8.037   2.054   8.943  0.4526 -0.8356  0.2902
  389MOL0     C52444   7.920   2.059   8.912  0.8439 -0.0420  0.2260
  389MOL0     C52445   8.504   1.556   8.914  0.0900 -0.4971  0.4910
  389MOL0     C52446   8.564   1.460   8.830 -0.3713 -0.2023  0.0733
  389MOL0     C52447   8.522   1.322   8.852 -0.7450  0.8897  0.9935
  389MOL0     H52448   8.667   1.315   8.323  1.5341 -0.2759 -0.4154
  389MOL0     H52449   8.773   1.133   8.169  1.7639 -1.3047 -0.7911
  389MOL0     H52450   8.876   0.967   8.074  0.7308 -1.5306 -1.5721
  389MOL0     H52451   9.039   1.017   8.114 -0.7302  0.8088 -0.2603
  389MOL0     H52452   8.982   0.783   8.008  2.9099  0.4930  0.0039
  389MOL0     H52453   8.953   0.735   8.176  0.1550 -0.6041  0.1973
  389MOL0     H52454   9.183   0.678   8.131  1.3789  0.7835 -3.3307
  389MOL0     H52455   9.191   0.828   8.221 -0.2336 -0.2073  0.6006
  389MOL0     H52456   9.215   0.766   7.923 -1.5220 -0.2900  1.0726
  389MOL0     H52457   9.190   0.923   7.968 -1.4274 -0.1272  0.9637
  389MOL0     H52458   9.405   0.739   8.075 -0.0794  1.9653  3.2345
  389MOL0     H52459   9.435   0.850   7.931  0.8382  2.2447  0.9316
  389MOL0     H52460   9.372   1.043   8.096  2.8001  2.0086  1.3784
  389MOL0     H52461   9.389   0.933   8.221 -0.4702 -2.2773 -1.5885
  389MOL0     H52462   9.632   0.931   8.028 -0.3644  0.5714 -1.1826
  389MOL0     H52463   9.606   0.878   8.190  0.7964  2.4451  1.6870
  389MOL0     H52464   9.748   1.099   8.161  0.9093 -1.1582 -1.5058
  389MOL0     H52465   9.591   1.176   8.105 -1.8214 -1.6185 -0.2237
  389MOL0     H52466   9.685   0.983   8.443 -2.2020 -0.9460  2.8549
  389MOL0     H52467   9.647   1.074   8.684  0.2510 -0.5408  1.1213
  389MOL0     H52468   9.491   1.159   8.711 -1.2143  1.3972 -1.9525
  389MOL0     H52469   9.373   0.973   8.747 -0.2235 -1.6890  1.0875
  389MOL0     H52470   9.465   0.865   8.628  4.0819  1.1483 -2.2432
  389MOL0     H52471   9.626   0.931   8.865 -0.5838  1.7658 -0.0922
  389MOL0     H52472   9.639   0.812   8.735  0.7551 -0.8302  1.5664
  389MOL0     H52473   9.459   0.695   8.789  3.8893  0.9166 -2.0276
  389MOL0     H52474   9.396   0.813   8.906 -1.6829 -1.6484 -1.1253
  389MOL0     H52475   9.295   0.680   9.025  0.7475  3.0227  0.0308
  389MOL0     H52476   9.213   0.611   9.241 -0.3094  0.2613 -0.1069
  389MOL0     H52477   9.044   0.272   9.420 -1.3325  2.0140 -0.8802
  389MOL0     H52478   8.882   0.196   9.595 -0.6650  0.2533  0.4129
  389MOL0     H52479   8.680   0.479   9.697 -3.0896 -0.5258 -0.0613
  389MOL0     H52480   8.636   0.318   9.683  2.3562 -2.8702  0.6540
  389MOL0     H52481   8.666   0.427   9.965 -1.6677  2.6745  1.5483
  389MOL0     H52482   8.555   0.527   9.863 -1.4637 -0.2458 -0.6963
  389MOL0     H52483   8.386   0.398   9.936 -1.1917  0.2213 -0.9317
  389MOL0     H52484   8.458   0.291   9.813  0.5695  0.7412 -0.9774
  389MOL0     H52485   8.548   0.286  10.111  0.5753 -0.0574 -0.1716
  389MOL0     H52486   8.575   0.175   9.992 -0.3680  0.4312  0.3996
  389MOL0     H52487   8.301   0.256  10.098 -1.0468 -1.2091  0.1159
  389MOL0     H52488   8.386   0.124  10.161  3.0261  2.1899  0.1756
  389MOL0     H52489   8.192   0.071   9.985 -0.0119  0.0600 -3.0220
  389MOL0     H52490   8.272   0.173   9.879 -3.3266  2.5756  2.7732
  389MOL0     H52491   8.346  -0.110   9.975 -0.8910 -0.8646  0.0018
  389MOL0     H52492   8.473  -0.029   9.905  0.1960 -2.7993 -1.6469
  389MOL0     H52493   8.342   0.026   9.697  1.7231 -0.9276 -1.3698
  389MOL0     H52494   8.393  -0.142   9.718 -1.5751 -0.4608 -1.2302
  389MOL0     H52495   8.982   0.542   9.829  0.4382 -0.9696  0.3661
  389MOL0     H52496   9.135   0.627   9.645  0.3695  0.7412 -3.9121
  389MOL0     H52497   9.575   0.611   9.421 -1.8223 -0.4804  0.6002
  389MOL0     H52498   9.692   0.672   9.197 -0.0175 -1.6278  0.2824
  389MOL0     H52499   8.954   0.972   8.517 -1.5377 -1.6357 -1.0870
  389MOL0     H52500   8.850   1.138   8.666 -0.3607 -0.6778  0.8436
  389MOL0     H52501   8.777   1.666   8.678  2.0847 -3.6617  1.3018
  389MOL0     H52502   8.671   1.830   8.815 -3.0814  1.3344  1.2043
  389MOL0     H52503   8.575   1.934   8.979 -0.0709 -2.3225  3.9641
  389MOL0     H52504   8.420   1.962   9.067 -2.1037 -2.9507  0.7933
  389MOL0     H52505   8.434   1.925   8.760 -1.2890 -1.3825 -0.1715
  389MOL0     H52506   8.434   2.083   8.847 -2.3625  0.6749 -1.6536
  389MOL0     H52507   8.206   1.877   8.835 -0.3550  0.3812  0.5560
  389MOL0     H52508   8.219   2.038   8.762  0.8733 -1.2142 -2.3068
  389MOL0     H52509   8.182   2.004   9.065 -1.1272  2.4864  1.5276
  389MOL0     H52510   8.219   2.157   8.968 -1.3572  0.3868 -1.0212
  389MOL0     H52511   7.825   2.056   8.864  1.6182 -4.1528 -1.5129
  389MOL0     H52512   8.426   1.519   8.979  0.7486 -3.5415 -0.2880
  389MOL0     H52513   8.532   1.262   8.761 -1.6388 -1.3332  2.2988
  389MOL0     H52514   8.585   1.287   8.934  1.3125  0.3021 -0.7501
  389MOL0     H52515   8.419   1.302   8.884 -1.0662  0.2186 -0.3640
  390MOL0     O52516   7.064   5.436   5.466  0.6137 -0.1445 -0.9728
  390MOL0     C52517   7.129   5.378   5.549  0.4640 -0.2505 -0.0542
  390MOL0     O52518   7.144   5.422   5.683  0.0932  0.3680  0.6156
  390MOL0     C52519   7.081   5.536   5.735 -0.2235  0.8951 -0.4255
  390MOL0     C52520   7.144   5.602   5.832  0.3270 -1.0519 -0.9599
  390MOL0     C52521   7.092   5.722   5.888  0.5464  0.5888 -0.4748
  390MOL0     C52522   6.965   5.764   5.853 -0.8212 -0.9220 -0.1775
  390MOL0     O52523   6.893   5.872   5.902  0.4893  0.2157  0.5253
  390MOL0     C52524   6.924   5.921   6.035  0.6095  0.4299  0.6245
  390MOL0     C52525   6.915   5.810   6.141 -0.2357 -0.1222  0.2234
  390MOL0     C52526   7.047   5.808   6.234  0.5999 -0.7844 -0.0719
  390MOL0     C52527   7.104   5.946   6.296 -0.1183  0.3418  0.6984
  390MOL0     C52528   7.230   5.914   6.382 -0.5971 -0.0485  0.2889
  390MOL0     C52529   7.363   5.897   6.302  0.9752  0.4682  0.4026
  390MOL0     C52530   7.447   5.804   6.382 -0.4051  0.0156  0.2025
  390MOL0     C52531   7.439   5.653   6.322 -0.2568 -0.0822 -0.6329
  390MOL0     N52532   7.484   5.645   6.184  0.0721 -0.5277 -0.7440
  390MOL0     C52533   7.588   5.704   6.124  0.1701  0.3634 -0.3916
  390MOL0     C52534   7.597   5.637   6.005  1.1076 -0.4552 -0.5310
  390MOL0     C52535   7.705   5.658   5.903  0.2406  0.0070 -0.8837
  390MOL0     C52536   7.839   5.612   5.966  0.1032 -1.1205 -0.4441
  390MOL0     C52537   7.947   5.597   5.856 -0.1123 -0.1528 -0.2659
  390MOL0     C52538   8.087   5.591   5.918 -1.1908  0.2159  0.1719
  390MOL0     O52539   8.113   5.482   6.004  0.6383 -0.0562  0.2614
  390MOL0     C52540   8.229   5.427   6.034 -0.6097 -0.0373 -0.7773
  390MOL0     C52541   8.230   5.340   6.145 -0.6781 -0.5656 -0.0243
  390MOL0     C52542   8.348   5.293   6.200 -0.6956  0.7998 -0.6272
  390MOL0     C52543   8.469   5.326   6.140 -0.6202  0.6334  0.1542
  390MOL0     C52544   8.603   5.268   6.189  0.2371  0.3919 -0.3731
  390MOL0     O52545   8.721   5.305   6.131 -0.2372 -0.4147 -0.3636
  390MOL0     C52546   8.830   5.265   6.192 -0.4651  0.8106 -0.5560
  390MOL0     C52547   8.871   5.125   6.180 -0.0038  0.0798 -0.1435
  390MOL0     C52548   8.992   5.078   6.235 -0.6016  0.2597  0.8123
  390MOL0     C52549   9.071   5.172   6.298  0.7797  0.3044  1.0012
  390MOL0     O52550   9.206   5.155   6.325  0.9608  0.1571 -0.1554
  390MOL0     C52551   9.270   5.047   6.251 -0.1266 -0.2531 -0.1628
  390MOL0     C52552   9.418   5.049   6.278 -0.8323  0.8484  1.0267
  390MOL0     C52553   9.444   4.985   6.412  0.0967  0.2349  0.3176
  390MOL0     C52554   9.591   5.025   6.451  0.3431  0.9483  0.0121
  390MOL0     C52555   9.615   4.955   6.585 -0.7442  0.7417 -1.6874
  390MOL0     C52556   9.745   4.981   6.650  0.0109 -0.2284 -0.5727
  390MOL0     C52557   9.860   4.908   6.575  0.5875  0.3441 -0.2529
  390MOL0     C52558   9.983   4.913   6.660  0.1957 -0.1389  0.2887
  390MOL0    Cl52559  10.123   4.829   6.579  0.0262  0.6735 -0.1461
  390MOL0     C52560   9.021   5.303   6.317 -0.9514  0.8977 -0.3954
  390MOL0     C52561   8.909   5.351   6.267  0.6349  0.2224  0.6317
  390MOL0     O52562   8.600   5.187   6.283 -0.2292 -0.6231 -0.0953
  390MOL0     C52563   8.467   5.411   6.026  0.7406 -0.1009  1.0563
  390MOL0     C52564   8.348   5.454   5.969 -0.1685 -0.3152  0.2444
  390MOL0     N52565   7.502   5.543   5.997 -0.7517 -0.2785 -0.1469
  390MOL0     N52566   7.431   5.553   6.100  0.2039  0.1508  0.5285
  390MOL0     C52567   6.902   5.688   5.746  0.4782  0.2555 -0.7777
  390MOL0     C52568   6.956   5.581   5.693  0.4439  0.7646 -0.4728
  390MOL0     C52569   7.203   5.267   5.496 -0.1269 -0.0904  0.5780
  390MOL0     C52570   7.176   5.226   5.366  0.1769  0.2191 -0.2505
  390MOL0     C52571   7.263   5.121   5.308  0.0605 -0.5423 -0.9205
  390MOL0     C52572   7.362   5.056   5.382 -0.0928 -0.5018  1.3173
  390MOL0     O52573   7.442   4.949   5.344  0.1062  0.1115  0.0830
  390MOL0     C52574   7.411   4.875   5.225 -0.6450  0.4993 -0.7580
  390MOL0     C52575   7.486   4.932   5.101 -0.2991 -0.6975  0.4928
  390MOL0     C52576   7.612   5.017   5.127  0.0135 -0.6114 -0.1471
  390MOL0     C52577   7.732   4.955   5.196  0.2180 -0.5390 -0.6273
  390MOL0     C52578   7.844   5.043   5.164  0.3778 -0.3253 -0.5217
  390MOL0     C52579   7.913   5.127   5.113 -0.6646 -0.1443  0.1110
  390MOL0     C52580   7.378   5.093   5.512 -0.6014  0.4428  0.4490
  390MOL0     C52581   7.309   5.193   5.562 -0.1427  0.2872 -0.3916
  390MOL0     C52582   7.344   5.221   5.708 -0.0467  0.9731 -0.4125
  390MOL0     H52583   7.234   5.553   5.869  0.4657 -1.7764 -2.2135
  390MOL0     H52584   7.142   5.772   5.970 -2.1783 -0.7367  2.1807
  390MOL0     H52585   7.021   5.970   6.044  0.7739  0.2125  0.0991
  390MOL0     H52586   6.842   5.992   6.053  2.2061  1.5518  4.2422
  390MOL0     H52587   6.889   5.715   6.093 -0.6557  0.1034  0.0005
  390MOL0     H52588   6.830   5.831   6.206 -2.0753 -2.2758 -1.3490
  390MOL0     H52589   7.129   5.765   6.176  0.5496 -0.5138 -0.3437
  390MOL0     H52590   7.022   5.737   6.313 -2.7230  2.3052  1.9169
  390MOL0     H52591   7.136   6.011   6.214 -2.8601  0.5504 -0.3438
  390MOL0     H52592   7.016   5.990   6.345  1.0890  3.1431  0.4933
  390MOL0     H52593   7.247   5.995   6.453  3.0331 -0.8198  0.4961
  390MOL0     H52594   7.222   5.830   6.451  4.6718 -0.5920  0.6807
  390MOL0     H52595   7.347   5.851   6.205  1.2837 -0.4400  0.7720
  390MOL0     H52596   7.414   5.992   6.284  0.0038  0.7456 -1.0268
  390MOL0     H52597   7.414   5.789   6.485  1.5473 -3.6252  0.4550
  390MOL0     H52598   7.553   5.827   6.369 -0.7413  0.2803 -3.0710
  390MOL0     H52599   7.505   5.590   6.382 -0.1054 -1.9553 -2.6590
  390MOL0     H52600   7.343   5.601   6.322  0.6056 -1.7606 -1.8813
  390MOL0     H52601   7.660   5.780   6.153 -0.6504  2.2519 -2.9154
  390MOL0     H52602   7.682   5.612   5.807 -0.6044  0.5644 -0.9648
  390MOL0     H52603   7.715   5.765   5.880  0.0170  1.1173  3.2770
  390MOL0     H52604   7.881   5.679   6.041  2.3788 -0.9369 -1.7566
  390MOL0     H52605   7.824   5.511   6.005 -1.0152 -0.1849  1.6638
  390MOL0     H52606   7.944   5.669   5.774 -0.2521  0.0940 -0.0487
  390MOL0     H52607   7.940   5.502   5.803  3.0697  0.9673 -3.0630
  390MOL0     H52608   8.117   5.680   5.974  1.1147 -0.4037  0.0383
  390MOL0     H52609   8.154   5.586   5.831 -1.5964 -0.9342 -0.0885
  390MOL0     H52610   8.137   5.318   6.196 -1.5578  1.0851 -0.8317
  390MOL0     H52611   8.353   5.233   6.290  4.3192  2.2971  0.3918
  390MOL0     H52612   8.802   5.052   6.139  0.7764  0.6924 -2.7720
  390MOL0     H52613   9.027   4.976   6.230  0.7404  0.4237  4.3028
  390MOL0     H52614   9.225   4.954   6.287  0.1202 -0.5290 -0.5544
  390MOL0     H52615   9.247   5.052   6.144  0.7546 -0.6913 -0.3783
  390MOL0     H52616   9.472   4.987   6.206 -2.1348  0.2165  0.5525
  390MOL0     H52617   9.454   5.152   6.270 -0.1760  0.4779 -1.9546
  390MOL0     H52618   9.374   5.032   6.481 -0.1238  0.1490  0.1530
  390MOL0     H52619   9.434   4.876   6.414 -3.1720  0.4276  0.6903
  390MOL0     H52620   9.608   5.132   6.462 -1.2177  1.2506 -0.2552
  390MOL0     H52621   9.668   4.992   6.381  0.7667 -1.9134  1.6703
  390MOL0     H52622   9.609   4.845   6.590 -1.0905  0.7324  3.1424
  390MOL0     H52623   9.531   4.977   6.652 -0.3973 -2.2246 -0.1056
  390MOL0     H52624   9.766   5.088   6.661 -3.6387  0.6342 -0.5877
  390MOL0     H52625   9.737   4.941   6.752  0.2543  2.1766  0.4702
  390MOL0     H52626   9.879   4.962   6.483  1.8083  0.0864 -0.1763
  390MOL0     H52627   9.833   4.803   6.559  3.2665 -0.3641 -0.6333
  390MOL0     H52628  10.022   5.015   6.669  2.7035 -0.9828 -0.3100
  390MOL0     H52629   9.971   4.865   6.757  4.0884 -0.1330  0.9393
  390MOL0     H52630   9.095   5.367   6.364  0.0077 -0.1598 -0.4162
  390MOL0     H52631   8.887   5.456   6.285  0.5323  0.2567  0.3243
  390MOL0     H52632   8.553   5.441   5.967  0.9230  0.5690  1.6482
  390MOL0     H52633   8.359   5.526   5.889 -0.8962 -1.9415 -1.3995
  390MOL0     H52634   6.805   5.725   5.712  0.2249 -1.2219 -1.7157
  390MOL0     H52635   6.898   5.520   5.624 -1.8904 -2.0549  3.5858
  390MOL0     H52636   7.107   5.270   5.295  0.5027 -0.2503 -0.8673
  390MOL0     H52637   7.259   5.094   5.203 -0.6778 -0.7307 -0.8520
  390MOL0     H52638   7.303   4.870   5.210 -0.8043  0.9979  0.1486
  390MOL0     H52639   7.453   4.775   5.242  0.4825  1.2144  0.9569
  390MOL0     H52640   7.419   5.002   5.052  0.7688  1.3085  1.7640
  390MOL0     H52641   7.522   4.852   5.036 -1.0038 -0.8988  0.3409
  390MOL0     H52642   7.564   5.097   5.185 -1.0448 -0.8287 -0.6988
  390MOL0     H52643   7.637   5.058   5.029 -2.9083  0.6420 -0.4717
  390MOL0     H52644   7.725   4.949   5.305  4.0721  1.4350 -0.0842
  390MOL0     H52645   7.754   4.849   5.178  0.5569 -1.1554  2.6638
  390MOL0     H52646   7.980   5.187   5.055 -1.1899 -0.6914 -1.0898
  390MOL0     H52647   7.448   5.039   5.575  1.3277 -1.3774 -2.9588
  390MOL0     H52648   7.375   5.324   5.724 -0.7147  0.9964  0.9178
  390MOL0     H52649   7.255   5.203   5.769 -1.5036  0.1681 -2.6643
  390MOL0     H52650   7.422   5.152   5.744  3.4714  3.0130 -3.4790
  391MOL0     O52651   9.435   9.222   3.682  0.2033 -0.3076  0.4402
  391MOL0     C52652   9.475   9.313   3.746  0.0784  0.5982  1.0410
  391MOL0     O52653   9.428   9.345   3.869  0.3821 -0.0620 -0.6268
  391MOL0     C52654   9.294   9.351   3.903  1.3753 -0.0331 -0.6128
  391MOL0     C52655   9.189   9.369   3.808 -0.2573 -0.1354  0.0956
  391MOL0     C52656   9.062   9.362   3.850 -0.2529  0.3982 -1.0271
  391MOL0     C52657   9.033   9.322   3.987 -0.6796  0.0423 -0.7534
  391MOL0     O52658   8.899   9.302   4.038 -0.8784 -0.1840 -0.5437
  391MOL0     C52659   8.791   9.314   3.947  0.0068  0.3019 -1.1642
  391MOL0     C52660   8.661   9.279   4.005  0.3971  0.0352 -0.0304
  391MOL0     C52661   8.555   9.294   3.893 -0.1036 -0.0717  0.6676
  391MOL0     C52662   8.450   9.180   3.915 -0.1418  0.1548 -0.6170
  391MOL0     C52663   8.351   9.175   3.802 -0.3123 -1.1757 -0.0003
  391MOL0     C52664   8.227   9.110   3.858 -0.5636 -0.3837 -0.2682
  391MOL0     C52665   8.100   9.113   3.765  0.1438  0.0799 -0.2254
  391MOL0     C52666   8.120   9.070   3.624  0.2128  0.0209  0.2202
  391MOL0     N52667   8.004   9.055   3.532 -0.0939  0.0823 -0.2630
  391MOL0     C52668   7.939   8.938   3.499  0.6141  1.1698 -1.1696
  391MOL0     C52669   7.845   8.977   3.412  0.5865  0.1762  0.6186
  391MOL0     C52670   7.758   8.872   3.340 -0.6582  0.3271 -0.9340
  391MOL0     C52671   7.618   8.923   3.299 -0.4201  0.7263 -0.6708
  391MOL0     C52672   7.538   8.997   3.412  0.6953 -0.4117 -0.4348
  391MOL0     C52673   7.399   9.038   3.356  0.0988  1.1841 -1.0183
  391MOL0     O52674   7.323   8.916   3.364 -0.2161 -1.2337  0.4853
  391MOL0     C52675   7.197   8.922   3.309  0.1878 -0.2378 -0.0384
  391MOL0     C52676   7.145   9.030   3.232  0.6325 -0.6755  0.7302
  391MOL0     C52677   7.016   9.020   3.177  0.4162 -0.0343  0.4516
  391MOL0     C52678   6.935   8.905   3.196  0.3332 -0.0986  0.6367
  391MOL0     C52679   6.793   8.905   3.154 -0.0823 -0.3411  0.3016
  391MOL0     O52680   6.748   9.010   3.094 -0.6423 -0.3296 -0.4809
  391MOL0     C52681   6.621   9.024   3.050 -0.9831  0.3795  0.4272
  391MOL0     C52682   6.603   9.097   2.930 -0.8475  0.2116  0.1764
  391MOL0     C52683   6.479   9.099   2.863 -0.5317  0.3805  0.5827
  391MOL0     C52684   6.370   9.033   2.907  0.4580  0.1710 -0.6718
  391MOL0     O52685   6.244   9.031   2.851 -0.4895  0.0830 -1.1535
  391MOL0     C52686   6.210   9.148   2.767  0.4781  0.7061  0.0011
  391MOL0     C52687   6.064   9.166   2.724 -0.2607 -0.3982  0.4393
  391MOL0     C52688   6.020   9.057   2.623 -0.2338  0.2048  0.1694
  391MOL0     C52689   5.872   9.071   2.592  0.4174 -0.2606 -0.2406
  391MOL0     C52690   5.799   8.939   2.596 -0.7998  0.4399  0.3800
  391MOL0     C52691   5.792   8.857   2.469  0.1028  0.4342 -0.5009
  391MOL0     C52692   5.681   8.748   2.487  0.2502 -0.2154 -0.3136
  391MOL0     C52693   5.706   8.655   2.604 -0.5418  0.2954 -0.5486
  391MOL0    Cl52694   5.856   8.574   2.592 -0.1677  0.5106 -0.5123
  391MOL0     C52695   6.381   8.983   3.039  0.4880  0.3257  0.7708
  391MOL0     C52696   6.504   8.977   3.108  0.1849  0.5456 -0.3426
  391MOL0     O52697   6.731   8.794   3.168 -0.0850  0.1689  0.3566
  391MOL0     C52698   6.995   8.800   3.263 -0.0373  0.5071  0.7130
  391MOL0     C52699   7.121   8.808   3.312  0.2585  0.2611 -0.0225
  391MOL0     N52700   7.845   9.113   3.395 -0.5873  0.2112 -0.0329
  391MOL0     N52701   7.948   9.154   3.467 -0.7634 -0.3173 -0.5556
  391MOL0     C52702   9.144   9.314   4.081  0.1663 -0.1402 -0.1563
  391MOL0     C52703   9.271   9.334   4.036 -0.8002  0.8295 -1.0007
  391MOL0     C52704   9.607   9.358   3.700 -1.2002  0.4533 -0.0705
  391MOL0     C52705   9.656   9.331   3.568  0.3318 -0.4009  0.7416
  391MOL0     C52706   9.789   9.344   3.537 -0.9478 -0.3949  0.6938
  391MOL0     C52707   9.883   9.402   3.625  0.2181  0.8972  0.3502
  391MOL0     O52708  10.021   9.411   3.610 -0.3958 -0.2722  0.5785
  391MOL0     C52709  10.078   9.414   3.481  0.2249 -0.6666 -0.2515
  391MOL0     C52710  10.231   9.439   3.501 -0.8058 -0.1881 -0.2294
  391MOL0     C52711  10.310   9.411   3.372  0.5042  0.2565  0.4304
  391MOL0     C52712  10.295   9.543   3.290 -0.2932 -0.3580 -0.2147
  391MOL0     C52713  10.352   9.520   3.150  0.4316  0.0038  0.1287
  391MOL0     C52714  10.388   9.514   3.031 -0.0528  0.4287 -0.6899
  391MOL0     C52715   9.843   9.445   3.751  0.3499  0.2654 -0.0999
  391MOL0     C52716   9.702   9.420   3.782 -0.3529 -0.9670 -0.0546
  391MOL0     C52717   9.657   9.487   3.914 -0.3349  0.8242  0.1470
  391MOL0     H52718   9.218   9.417   3.715 -2.1762  1.2936  0.1757
  391MOL0     H52719   8.974   9.391   3.795 -2.2229 -0.9209  1.1989
  391MOL0     H52720   8.796   9.415   3.907  1.0315  0.3391 -0.9649
  391MOL0     H52721   8.814   9.238   3.871 -0.9981 -3.6671  2.1086
  391MOL0     H52722   8.631   9.334   4.095 -0.4037 -0.5472  0.0687
  391MOL0     H52723   8.665   9.172   4.028 -1.1303 -0.0651 -0.1562
  391MOL0     H52724   8.608   9.280   3.798  0.9889  0.0919  1.2412
  391MOL0     H52725   8.511   9.394   3.904  1.0390  0.6947 -1.2249
  391MOL0     H52726   8.515   9.092   3.918  2.7707  2.1038 -1.3763
  391MOL0     H52727   8.403   9.196   4.012  3.1389  1.5516  0.8882
  391MOL0     H52728   8.346   9.271   3.751  3.0228 -2.5236 -3.2648
  391MOL0     H52729   8.386   9.111   3.721 -2.2147 -1.5408 -0.5934
  391MOL0     H52730   8.253   9.006   3.879 -1.5593 -0.8263 -1.1300
  391MOL0     H52731   8.201   9.151   3.956 -4.6478 -1.8304 -0.5478
  391MOL0     H52732   8.062   9.215   3.761  0.3018  0.1590  0.2672
  391MOL0     H52733   8.020   9.053   3.810  0.6615  1.5174  2.8922
  391MOL0     H52734   8.193   9.132   3.571  0.4424 -1.8086 -1.7581
  391MOL0     H52735   8.162   8.973   3.654 -0.0234  0.0198  0.5544
  391MOL0     H52736   7.958   8.836   3.531 -0.9878  1.4693  0.9411
  391MOL0     H52737   7.816   8.845   3.251 -1.2947 -1.1257 -0.9174
  391MOL0     H52738   7.750   8.778   3.394 -2.2198 -0.3575 -2.2620
  391MOL0     H52739   7.611   8.998   3.219 -1.3095  4.1412  2.3168
  391MOL0     H52740   7.560   8.836   3.268 -0.6764  1.3252 -1.9171
  391MOL0     H52741   7.592   9.072   3.470 -3.0821 -1.2811  4.9703
  391MOL0     H52742   7.526   8.917   3.486  1.5192 -0.5960 -0.4888
  391MOL0     H52743   7.403   9.065   3.250  1.2764 -0.0323 -1.3122
  391MOL0     H52744   7.362   9.120   3.418 -1.3006 -1.4256  1.8290
  391MOL0     H52745   7.204   9.118   3.209 -1.0631  0.4004  0.3255
  391MOL0     H52746   6.966   9.104   3.129 -0.5413 -0.4701  0.6609
  391MOL0     H52747   6.690   9.149   2.892  0.9358 -1.9444  1.0276
  391MOL0     H52748   6.479   9.148   2.766  1.2384 -2.3189 -0.8904
  391MOL0     H52749   6.240   9.243   2.811  1.7525  0.4542 -0.2883
  391MOL0     H52750   6.270   9.124   2.678 -1.1387 -3.2177 -0.2656
  391MOL0     H52751   5.998   9.163   2.811  0.5024  0.9324  1.1000
  391MOL0     H52752   6.057   9.263   2.675  3.2155  0.5836  1.6173
  391MOL0     H52753   6.070   9.074   2.528 -1.8219 -2.8940 -1.3776
  391MOL0     H52754   6.044   8.961   2.671  1.4213  1.9328  3.1061
  391MOL0     H52755   5.851   9.120   2.496 -0.9448 -0.8373 -0.2585
  391MOL0     H52756   5.827   9.143   2.662  0.3909  0.0366 -0.5595
  391MOL0     H52757   5.694   8.963   2.612 -2.4252 -3.1540 -3.1216
  391MOL0     H52758   5.839   8.884   2.681  1.2284  2.7292  1.0313
  391MOL0     H52759   5.772   8.920   2.381 -0.2945  4.1366  2.0282
  391MOL0     H52760   5.883   8.800   2.447  0.8238  1.1825  0.4362
  391MOL0     H52761   5.685   8.690   2.394 -2.5083  0.9327 -1.2426
  391MOL0     H52762   5.580   8.787   2.502  0.0667 -1.1355  1.1036
  391MOL0     H52763   5.700   8.703   2.702 -1.3177 -0.8657  0.0015
  391MOL0     H52764   5.639   8.569   2.611  0.6401 -0.5552  1.3733
  391MOL0     H52765   6.296   8.935   3.087  1.8557  0.2891  3.3220
  391MOL0     H52766   6.508   8.909   3.192 -2.4265 -1.3316 -1.5673
  391MOL0     H52767   6.952   8.700   3.270 -0.5253  0.1766 -3.6501
  391MOL0     H52768   7.165   8.719   3.356  0.5865 -1.8561 -4.0994
  391MOL0     H52769   9.116   9.275   4.178 -1.4870 -2.2272 -1.3899
  391MOL0     H52770   9.355   9.341   4.105 -0.1545  1.0706 -1.7914
  391MOL0     H52771   9.582   9.300   3.495 -0.8109  2.7708  0.3919
  391MOL0     H52772   9.825   9.308   3.441 -2.9994  2.2927 -1.2482
  391MOL0     H52773  10.025   9.493   3.426 -2.1908 -0.5424  2.0080
  391MOL0     H52774  10.061   9.324   3.421  2.0919 -1.4209  0.2711
  391MOL0     H52775  10.280   9.363   3.563  1.4783  0.2765 -1.3736
  391MOL0     H52776  10.258   9.537   3.541 -1.1360 -0.2066  0.0507
  391MOL0     H52777  10.272   9.323   3.319  1.9108  1.1131 -2.1611
  391MOL0     H52778  10.409   9.381   3.405 -0.0549 -0.3924  1.6013
  391MOL0     H52779  10.198   9.593   3.284  1.1103  2.4257 -1.8185
  391MOL0     H52780  10.371   9.609   3.331 -0.6918  1.0440 -1.6146
  391MOL0     H52781  10.426   9.508   2.931  2.0317  0.3848  0.0577
  391MOL0     H52782   9.920   9.484   3.816 -0.2284  0.2888  0.5897
  391MOL0     H52783   9.644   9.409   3.989  2.2756 -0.3606 -0.5294
  391MOL0     H52784   9.733   9.559   3.947 -0.0154 -0.0123  1.2610
  391MOL0     H52785   9.567   9.547   3.895  0.5401  1.6055 -1.9037
  392MOL0     O52786   0.702   1.053   7.843  1.3170  0.3038 -0.1040
  392MOL0     C52787   0.685   1.073   7.724 -0.4259  0.8705  0.4113
  392MOL0     O52788   0.763   1.148   7.639 -0.2470 -0.0805  0.0319
  392MOL0     C52789   0.865   1.221   7.682  0.2364 -0.6789 -0.1929
  392MOL0     C52790   0.977   1.228   7.603 -0.2786 -0.3704 -1.2480
  392MOL0     C52791   1.083   1.321   7.625  0.1379  0.6526  0.3924
  392MOL0     C52792   1.073   1.408   7.735  0.3261  0.7372  0.6759
  392MOL0     O52793   1.171   1.495   7.754  0.7424  0.0327 -0.2273
  392MOL0     C52794   1.166   1.602   7.851 -0.8871  0.2444  0.2756
  392MOL0     C52795   1.305   1.674   7.849 -0.3227 -0.6980 -0.2436
  392MOL0     C52796   1.427   1.587   7.877  0.3015 -1.0648 -0.3652
  392MOL0     C52797   1.557   1.672   7.892  0.8643 -0.4352 -0.2389
  392MOL0     C52798   1.669   1.575   7.935  0.3026  0.6814 -0.1028
  392MOL0     C52799   1.808   1.639   7.947  0.1357  0.0057  0.1920
  392MOL0     C52800   1.927   1.542   8.009 -0.9129 -0.2991 -0.2104
  392MOL0     C52801   1.902   1.488   8.152 -0.3121  0.3680 -0.1592
  392MOL0     N52802   2.027   1.462   8.224  1.0420  0.6420 -0.1446
  392MOL0     C52803   2.106   1.565   8.273 -0.4650  0.3840  0.1893
  392MOL0     C52804   2.229   1.506   8.292  0.1418  0.6496  0.5089
  392MOL0     C52805   2.351   1.563   8.341 -0.4327 -0.5789 -0.1482
  392MOL0     C52806   2.441   1.612   8.222 -0.7845  0.2527 -1.2772
  392MOL0     C52807   2.559   1.514   8.204  0.1590 -0.4277 -0.5276
  392MOL0     C52808   2.689   1.574   8.276  0.0306 -0.2750 -1.1311
  392MOL0     O52809   2.788   1.475   8.261 -0.8880  0.7663 -0.1177
  392MOL0     C52810   2.920   1.505   8.293  0.2234 -1.1630  0.5228
  392MOL0     C52811   2.965   1.620   8.355  0.2927 -0.4004 -0.2541
  392MOL0     C52812   3.095   1.653   8.378 -0.1797  0.1155  0.5652
  392MOL0     C52813   3.195   1.563   8.326  0.4431 -0.5117  0.2503
  392MOL0     C52814   3.343   1.571   8.370 -0.2519 -0.5600 -0.4915
  392MOL0     O52815   3.426   1.466   8.342  0.0237 -0.0621  0.5700
  392MOL0     C52816   3.561   1.483   8.352 -0.5138  0.0916  0.0370
  392MOL0     C52817   3.629   1.412   8.454  0.1535 -0.7108  0.4779
  392MOL0     C52818   3.765   1.439   8.482 -0.0773 -1.0417 -0.1484
  392MOL0     C52819   3.839   1.540   8.409  0.4751 -0.1280  0.5094
  392MOL0     O52820   3.965   1.589   8.446  0.4219 -0.4744  0.8084
  392MOL0     C52821   4.028   1.696   8.382  0.1677  0.1841 -0.5777
  392MOL0     C52822   4.166   1.730   8.445 -0.9448 -0.2754  0.4382
  392MOL0     C52823   4.266   1.617   8.395 -0.0478  0.1490  0.5894
  392MOL0     C52824   4.412   1.651   8.431 -0.2618 -0.3158  0.7059
  392MOL0     C52825   4.509   1.546   8.383  0.5758 -0.5455  0.5092
  392MOL0     C52826   4.531   1.515   8.234  0.0935 -0.4639  0.4973
  392MOL0     C52827   4.649   1.426   8.218  0.2688  0.8951  0.4467
  392MOL0     C52828   4.678   1.386   8.074  0.4992  0.3963  0.4370
  392MOL0    Cl52829   4.787   1.240   8.059 -0.1060  0.1652 -0.1938
  392MOL0     C52830   3.769   1.599   8.304  0.6099 -0.1015  0.6361
  392MOL0     C52831   3.638   1.574   8.273  0.2098 -0.3723  0.0002
  392MOL0     O52832   3.388   1.676   8.415 -0.6383 -0.7451 -0.0988
  392MOL0     C52833   3.153   1.447   8.257  0.3960 -0.1579  0.3248
  392MOL0     C52834   3.019   1.420   8.242  0.9805 -0.1019  0.9016
  392MOL0     N52835   2.218   1.372   8.247 -0.2271 -0.0600  0.3429
  392MOL0     N52836   2.101   1.348   8.210 -0.2077  0.3432  0.6478
  392MOL0     C52837   0.954   1.403   7.817 -0.3053 -0.1568  0.3403
  392MOL0     C52838   0.850   1.311   7.787  0.0428 -0.1120  0.2377
  392MOL0     C52839   0.570   0.984   7.668  0.1938  0.0589 -0.4884
  392MOL0     C52840   0.520   0.885   7.760  0.6749  0.0368 -0.1228
  392MOL0     C52841   0.409   0.811   7.725 -0.4690 -0.1129 -0.6582
  392MOL0     C52842   0.343   0.841   7.605  1.0389  0.3404  0.1859
  392MOL0     O52843   0.244   0.756   7.570 -0.5411 -0.3055  0.3841
  392MOL0     C52844   0.132   0.809   7.495  0.9170  0.8757 -0.2843
  392MOL0     C52845   0.012   0.720   7.494  0.0427 -0.3661  0.0796
  392MOL0     C52846  -0.080   0.763   7.384 -0.4600  0.5140 -0.5802
  392MOL0     C52847  -0.208   0.673   7.390  0.2782  0.3701  0.6407
  392MOL0     C52848  -0.295   0.724   7.277 -0.0966 -0.2066  0.1375
  392MOL0     C52849  -0.361   0.791   7.204 -0.5505 -0.5167  0.6384
  392MOL0     C52850   0.380   0.944   7.524 -0.3282  0.1763  0.4193
  392MOL0     C52851   0.497   1.009   7.552  0.3695 -0.4825  0.4624
  392MOL0     C52852   0.553   1.103   7.440 -0.0248  0.1945  0.1921
  392MOL0     H52853   0.973   1.164   7.515 -1.7106 -0.6648 -0.9982
  392MOL0     H52854   1.169   1.331   7.560 -1.1998 -0.1269 -1.5833
  392MOL0     H52855   1.082   1.667   7.826 -0.6586  0.8995  1.1550
  392MOL0     H52856   1.138   1.572   7.953 -1.8322 -0.7157 -0.2552
  392MOL0     H52857   1.298   1.754   7.924 -1.5608 -1.9224  1.0185
  392MOL0     H52858   1.318   1.724   7.753  0.2716 -1.9039 -0.8170
  392MOL0     H52859   1.454   1.520   7.795  2.4531  1.5061 -1.8862
  392MOL0     H52860   1.407   1.534   7.971 -0.3643  0.4266  0.3718
  392MOL0     H52861   1.581   1.724   7.799 -5.1238  1.0868 -1.3620
  392MOL0     H52862   1.543   1.756   7.961 -0.7148  0.3318 -1.4426
  392MOL0     H52863   1.633   1.535   8.030  0.8921 -1.0041 -0.5566
  392MOL0     H52864   1.678   1.487   7.871 -0.8003 -1.7239  2.8374
  392MOL0     H52865   1.845   1.669   7.849  1.2865 -0.5841  0.4398
  392MOL0     H52866   1.803   1.729   8.009 -0.5984  1.2323 -1.5813
  392MOL0     H52867   2.023   1.593   7.995 -1.1192 -0.1339 -1.1106
  392MOL0     H52868   1.921   1.459   7.937  0.0651  1.7917 -2.8801
  392MOL0     H52869   1.829   1.545   8.211  1.6616  1.9261  0.9206
  392MOL0     H52870   1.849   1.393   8.145  0.1669  0.1805 -1.3448
  392MOL0     H52871   2.079   1.669   8.291 -1.7328  0.2104 -0.5308
  392MOL0     H52872   2.319   1.633   8.419 -1.7519  0.2147 -1.3723
  392MOL0     H52873   2.402   1.483   8.397 -2.0516 -1.2314  0.4578
  392MOL0     H52874   2.399   1.593   8.122  0.9970  1.1252 -2.2409
  392MOL0     H52875   2.463   1.718   8.235  2.8973 -0.6370  1.2876
  392MOL0     H52876   2.585   1.514   8.098 -0.4906 -1.3020 -0.6999
  392MOL0     H52877   2.539   1.412   8.239  1.8964 -0.3524  0.8362
  392MOL0     H52878   2.678   1.594   8.383 -0.6547  1.1316 -1.4416
  392MOL0     H52879   2.711   1.665   8.219  1.0125 -0.8805 -1.7504
  392MOL0     H52880   2.886   1.692   8.376  0.2957 -0.8539  1.4895
  392MOL0     H52881   3.113   1.743   8.436  0.0666  2.2154 -2.5485
  392MOL0     H52882   3.576   1.345   8.521  0.6143 -1.8931 -0.3075
  392MOL0     H52883   3.816   1.384   8.560 -2.6962 -0.7529  1.8783
  392MOL0     H52884   4.049   1.652   8.284  1.6852 -0.2400 -0.1041
  392MOL0     H52885   3.976   1.792   8.381 -0.0674  0.0562 -0.4870
  392MOL0     H52886   4.203   1.830   8.422 -0.9287  0.0709  1.8421
  392MOL0     H52887   4.179   1.726   8.554  2.0044 -1.3271  0.1404
  392MOL0     H52888   4.240   1.518   8.432 -1.0927  0.9414  2.0835
  392MOL0     H52889   4.264   1.613   8.286  3.2212 -1.4174  0.4874
  392MOL0     H52890   4.404   1.673   8.538 -5.6319  2.9876  0.0367
  392MOL0     H52891   4.440   1.744   8.381 -1.3823 -0.1083  0.4425
  392MOL0     H52892   4.473   1.455   8.430 -2.6715  2.2063  3.9802
  392MOL0     H52893   4.604   1.563   8.434 -0.2796 -0.8005  2.2580
  392MOL0     H52894   4.440   1.470   8.194  0.0692  3.0191 -4.1290
  392MOL0     H52895   4.560   1.607   8.183  5.4519 -0.3600  3.0603
  392MOL0     H52896   4.618   1.329   8.258 -1.6883  0.1536 -2.5807
  392MOL0     H52897   4.741   1.458   8.269  2.2749 -1.5140 -1.4350
  392MOL0     H52898   4.584   1.361   8.025 -0.0775 -1.7235  2.4552
  392MOL0     H52899   4.711   1.474   8.017  0.1683 -0.6724 -1.5158
  392MOL0     H52900   3.809   1.686   8.252 -2.5879  1.7793  1.0512
  392MOL0     H52901   3.576   1.635   8.208  0.5151  1.2206  1.1219
  392MOL0     H52902   3.214   1.374   8.203 -1.9049 -0.8778 -1.4595
  392MOL0     H52903   2.985   1.339   8.179  2.5129  0.5205 -0.8264
  392MOL0     H52904   0.932   1.473   7.897 -0.3399 -0.2351  0.4002
  392MOL0     H52905   0.766   1.304   7.856  0.1924  3.4889  0.9343
  392MOL0     H52906   0.569   0.842   7.848 -0.1652 -3.0980 -1.0553
  392MOL0     H52907   0.387   0.720   7.780 -0.6663 -0.4941 -1.3582
  392MOL0     H52908   0.155   0.841   7.393  1.4057 -0.6340 -0.6841
  392MOL0     H52909   0.098   0.901   7.542 -1.3552 -0.3108  0.5306
  392MOL0     H52910  -0.040   0.720   7.591 -1.7187 -0.2596 -0.8277
  392MOL0     H52911   0.038   0.614   7.481  0.5588 -0.0996 -1.1548
  392MOL0     H52912  -0.024   0.761   7.290  2.0519  1.8338  0.7816
  392MOL0     H52913  -0.114   0.867   7.393 -1.1228  0.2260  0.3771
  392MOL0     H52914  -0.195   0.565   7.386  1.8203  0.5043  1.1684
  392MOL0     H52915  -0.262   0.696   7.482 -2.8644  3.8683 -1.7825
  392MOL0     H52916  -0.428   0.849   7.143  0.9863 -2.1007 -2.8076
  392MOL0     H52917   0.320   0.973   7.438 -1.5137 -1.5129  0.6273
  392MOL0     H52918   0.479   1.116   7.361 -1.3110 -3.0629  0.7001
  392MOL0     H52919   0.578   1.203   7.478  0.5596  1.2116 -2.6406
  392MOL0     H52920   0.644   1.063   7.395  0.1265  1.2228 -0.4571
  393MOL0     O52921   0.132   7.999   4.537 -0.2500  0.0230 -0.0406
  393MOL0     C52922   0.201   7.896   4.536  0.5755  0.8652  0.0526
  393MOL0     O52923   0.329   7.881   4.579 -0.4585  0.0797 -0.5332
  393MOL0     C52924   0.380   7.984   4.646 -0.4013 -0.4733 -0.2731
  393MOL0     C52925   0.413   7.961   4.781  0.3866 -0.8621  0.5946
  393MOL0     C52926   0.465   8.073   4.853  0.0945  0.9324 -0.2372
  393MOL0     C52927   0.508   8.189   4.783 -0.4978  0.1159 -0.4835
  393MOL0     O52928   0.575   8.293   4.840  0.1173  0.4609 -0.9853
  393MOL0     C52929   0.640   8.283   4.969 -0.4408 -0.2402  0.6634
  393MOL0     C52930   0.689   8.416   5.021  0.0441  1.4303  0.0938
  393MOL0     C52931   0.678   8.431   5.171 -0.8952 -0.0774  1.2330
  393MOL0     C52932   0.742   8.560   5.217  0.3625 -0.2347 -0.6052
  393MOL0     C52933   0.763   8.557   5.365 -0.6256  0.2489  0.0567
  393MOL0     C52934   0.818   8.689   5.418  0.3441 -0.8438 -0.1385
  393MOL0     C52935   0.953   8.727   5.357 -0.4351  0.2447 -0.3772
  393MOL0     C52936   1.005   8.862   5.422 -1.1879 -0.0576  0.2442
  393MOL0     N52937   1.118   8.916   5.352  0.3492 -0.0916  0.5627
  393MOL0     C52938   1.119   9.002   5.242 -0.4856 -0.1971 -0.7057
  393MOL0     C52939   1.252   9.036   5.241 -0.3228 -1.0272 -0.2612
  393MOL0     C52940   1.300   9.152   5.158 -0.2189  0.0290  0.7072
  393MOL0     C52941   1.434   9.129   5.090  0.3798 -0.3863  0.8381
  393MOL0     C52942   1.435   9.026   4.976  0.1766 -0.0306  0.1857
  393MOL0     C52943   1.363   9.080   4.851 -0.6695 -0.0131 -0.1116
  393MOL0     O52944   1.463   9.140   4.770 -0.6763  0.1681 -0.8089
  393MOL0     C52945   1.432   9.137   4.638  0.2328  0.2626  0.1090
  393MOL0     C52946   1.368   9.247   4.578 -0.1995  0.1255 -1.0249
  393MOL0     C52947   1.347   9.241   4.441 -0.3128  0.2056  0.2086
  393MOL0     C52948   1.382   9.128   4.360 -0.7401 -0.3410  0.2231
  393MOL0     C52949   1.367   9.121   4.215  0.8317  0.5865 -0.3045
  393MOL0     O52950   1.313   9.235   4.162 -0.4476 -0.1412 -0.1972
  393MOL0     C52951   1.254   9.247   4.036  0.3840  0.8737 -0.5233
  393MOL0     C52952   1.185   9.364   4.020 -0.2409 -0.2634 -0.4689
  393MOL0     C52953   1.129   9.405   3.895 -0.5538 -0.2401 -0.2232
  393MOL0     C52954   1.120   9.304   3.789 -0.5726 -0.2514 -0.8369
  393MOL0     O52955   1.060   9.344   3.670 -0.7561 -0.5896 -0.5057
  393MOL0     C52956   1.049   9.249   3.567  0.0756 -0.0466  0.4241
  393MOL0     C52957   0.989   9.308   3.435 -0.4357 -0.3295  0.5090
  393MOL0     C52958   0.841   9.352   3.462  0.0600  0.7636  0.2759
  393MOL0     C52959   0.733   9.243   3.457  0.2854  0.8575  0.2651
  393MOL0     C52960   0.599   9.299   3.504 -0.0184  0.3229  0.5430
  393MOL0     C52961   0.474   9.236   3.440 -0.2545  0.1479 -0.6360
  393MOL0     C52962   0.346   9.258   3.524  0.1696  0.1308  0.3681
  393MOL0     C52963   0.225   9.188   3.464 -0.0762 -0.2820  0.4455
  393MOL0    Cl52964   0.088   9.174   3.577 -0.3020 -0.4196  0.4684
  393MOL0     C52965   1.183   9.178   3.813 -0.6914  0.1902  0.8029
  393MOL0     C52966   1.249   9.145   3.932  0.6182 -0.8398  0.5402
  393MOL0     O52967   1.400   9.018   4.154 -0.0437 -0.1088  0.4096
  393MOL0     C52968   1.449   9.032   4.423  0.0025  0.6572 -0.7367
  393MOL0     C52969   1.476   9.035   4.562  1.0559 -0.0067 -0.0013
  393MOL0     N52970   1.330   8.966   5.327  0.0845  0.3492 -0.7482
  393MOL0     N52971   1.248   8.886   5.384 -0.5597  0.3951  0.1526
  393MOL0     C52972   0.466   8.202   4.652 -1.0229  0.0626 -0.7493
  393MOL0     C52973   0.395   8.107   4.586  0.8895 -0.3680 -0.6767
  393MOL0     C52974   0.139   7.773   4.504  0.2344  0.5557  0.5084
  393MOL0     C52975   0.163   7.664   4.595 -0.3331  0.6448 -0.1129
  393MOL0     C52976   0.122   7.536   4.561  0.3574 -1.0129 -0.3480
  393MOL0     C52977   0.054   7.511   4.439  1.0456  0.2511  0.8083
  393MOL0     O52978  -0.002   7.388   4.404 -0.7693  0.2179 -0.3058
  393MOL0     C52979   0.061   7.271   4.442  1.2675 -0.1168  0.2567
  393MOL0     C52980   0.208   7.272   4.411  0.0257  0.1064  0.3552
  393MOL0     C52981   0.276   7.154   4.485 -0.5477  0.6002  0.7300
  393MOL0     C52982   0.423   7.174   4.451  0.8205 -0.7255  0.6453
  393MOL0     C52983   0.499   7.083   4.542 -0.2123  0.1377 -0.4101
  393MOL0     C52984   0.569   7.012   4.612  0.6441  0.7841 -0.6407
  393MOL0     C52985   0.036   7.617   4.345 -0.2437  0.3216 -0.0901
  393MOL0     C52986   0.080   7.746   4.378 -0.2767  1.2249 -0.7645
  393MOL0     C52987   0.075   7.849   4.277 -0.2340 -0.8566  0.0270
  393MOL0     H52988   0.391   7.859   4.811  0.4318 -1.2726 -0.6897
  393MOL0     H52989   0.492   8.041   4.954  2.1832  4.0801  0.3576
  393MOL0     H52990   0.560   8.264   5.042  0.5081 -0.2088  1.7368
  393MOL0     H52991   0.718   8.207   4.980  1.0303  1.0770 -0.3390
  393MOL0     H52992   0.624   8.495   4.982 -0.1072  2.0248  1.4950
  393MOL0     H52993   0.788   8.436   4.980  0.1678  0.8084  0.0869
  393MOL0     H52994   0.718   8.343   5.222  0.9345 -0.4407 -0.6809
  393MOL0     H52995   0.574   8.441   5.203 -0.8052  3.1796  0.8285
  393MOL0     H52996   0.838   8.567   5.166 -1.1691 -0.5149 -3.7586
  393MOL0     H52997   0.700   8.659   5.197  0.5468  0.8457  3.3685
  393MOL0     H52998   0.670   8.532   5.417  1.2098  0.7744  3.9116
  393MOL0     H52999   0.835   8.477   5.381  0.6199  0.7491 -2.5066
  393MOL0     H53000   0.744   8.767   5.397 -0.1363 -1.1279  0.4448
  393MOL0     H53001   0.818   8.676   5.527 -1.3832 -0.6235 -0.0848
  393MOL0     H53002   0.921   8.759   5.258 -3.2863  2.2363  1.0300
  393MOL0     H53003   1.033   8.654   5.368  2.1697  3.0464  0.8170
  393MOL0     H53004   0.929   8.940   5.430 -1.5282 -0.4226  0.6093
  393MOL0     H53005   1.031   8.843   5.526  2.7530  0.6840 -0.4451
  393MOL0     H53006   1.037   9.059   5.200 -1.1560 -0.3779  0.3094
  393MOL0     H53007   1.228   9.172   5.078 -0.8853  0.8937  1.5036
  393MOL0     H53008   1.302   9.238   5.225 -2.8671 -1.1602  2.4642
  393MOL0     H53009   1.464   9.221   5.039 -0.4867 -0.9390 -0.7526
  393MOL0     H53010   1.518   9.105   5.156  2.5418  0.0604 -1.5887
  393MOL0     H53011   1.380   8.937   5.004 -0.3590  0.2502  0.0335
  393MOL0     H53012   1.539   8.992   4.972 -0.7831 -3.0476 -1.2403
  393MOL0     H53013   1.281   9.147   4.879 -1.9495 -1.2112 -0.8948
  393MOL0     H53014   1.322   8.988   4.810 -2.0382  0.1338  0.8610
  393MOL0     H53015   1.328   9.325   4.642 -1.2234 -0.3741 -1.0384
  393MOL0     H53016   1.303   9.331   4.399  2.2421  2.7971  2.5955
  393MOL0     H53017   1.192   9.433   4.104  0.2098 -1.1696  0.2660
  393MOL0     H53018   1.105   9.511   3.896  0.4002  0.0342 -1.9509
  393MOL0     H53019   1.143   9.199   3.542 -0.6594 -1.2557  0.0052
  393MOL0     H53020   0.978   9.173   3.601 -1.3743 -0.4693 -3.0786
  393MOL0     H53021   1.058   9.391   3.415  0.1194 -0.7126  0.8040
  393MOL0     H53022   0.994   9.244   3.347 -1.8935  0.0764  0.0927
  393MOL0     H53023   0.835   9.401   3.560  2.0659 -0.1467  0.9121
  393MOL0     H53024   0.814   9.414   3.376  1.9856  2.0292  0.5329
  393MOL0     H53025   0.749   9.153   3.519 -1.5271  2.1253  2.7563
  393MOL0     H53026   0.723   9.205   3.355  3.1980  0.8603 -0.1026
  393MOL0     H53027   0.593   9.408   3.494 -1.5525  0.1535 -0.7586
  393MOL0     H53028   0.593   9.278   3.611 -0.4269  0.7677  0.6127
  393MOL0     H53029   0.459   9.273   3.338 -1.8808 -0.1028 -0.5176
  393MOL0     H53030   0.486   9.128   3.441 -2.1899 -0.1178  1.0948
  393MOL0     H53031   0.325   9.365   3.527  1.2674  0.4148 -1.0764
  393MOL0     H53032   0.355   9.240   3.632  2.6206  0.9307  0.3581
  393MOL0     H53033   0.191   9.244   3.376 -0.8304  1.5477  1.8418
  393MOL0     H53034   0.243   9.086   3.429 -0.0051 -0.3253  0.6085
  393MOL0     H53035   1.190   9.108   3.731 -0.8176 -1.2826  1.9926
  393MOL0     H53036   1.303   9.051   3.939  2.0735 -0.2990 -2.0160
  393MOL0     H53037   1.495   8.951   4.367 -3.1860  1.0001 -4.2088
  393MOL0     H53038   1.518   8.951   4.616  2.4396 -0.2697 -1.4176
  393MOL0     H53039   0.494   8.296   4.607 -0.1602  1.2478  2.0698
  393MOL0     H53040   0.360   8.108   4.483  2.0209 -1.2399 -1.0941
  393MOL0     H53041   0.219   7.676   4.687 -2.4332 -3.0425  1.9287
  393MOL0     H53042   0.139   7.454   4.630  2.4436 -1.2907 -1.1281
  393MOL0     H53043   0.003   7.198   4.384 -2.0949  3.0277 -0.7394
  393MOL0     H53044   0.032   7.233   4.541  1.7971 -2.4242 -0.4147
  393MOL0     H53045   0.259   7.365   4.438 -0.7901 -0.3725  4.0445
  393MOL0     H53046   0.234   7.284   4.306  2.5093  2.5953  1.1463
  393MOL0     H53047   0.251   7.055   4.445 -0.2316  0.7342  0.1815
  393MOL0     H53048   0.259   7.147   4.593  0.6404  0.7628  0.9458
  393MOL0     H53049   0.439   7.154   4.345 -0.4231 -2.1981  0.6929
  393MOL0     H53050   0.454   7.275   4.478 -1.0466 -0.0110  0.2481
  393MOL0     H53051   0.619   6.940   4.673  0.7689  0.2761 -1.3352
  393MOL0     H53052  -0.002   7.581   4.250  1.7440 -4.2671  0.5671
  393MOL0     H53053   0.067   7.815   4.173 -5.2883 -1.0149  0.2455
  393MOL0     H53054  -0.017   7.901   4.303 -0.2377 -0.2216 -1.1768
  393MOL0     H53055   0.161   7.916   4.278 -1.5068  0.8496 -0.5027
  394MOL0     O53056   4.757  10.450   3.848 -0.3330  0.2288  1.0260
  394MOL0     C53057   4.835  10.429   3.759 -0.2896  0.1016 -0.5937
  394MOL0     O53058   4.958  10.380   3.787  0.3033 -0.2024 -0.4326
  394MOL0     C53059   4.975  10.298   3.897  0.0123  0.2242 -0.1948
  394MOL0     C53060   5.101  10.304   3.954 -0.7267 -0.1849 -0.3376
  394MOL0     C53061   5.138  10.210   4.045  0.4694  0.0645  0.1818
  394MOL0     C53062   5.062  10.094   4.073 -0.8683  0.5551 -0.5177
  394MOL0     O53063   5.124   9.991   4.140  0.5772  0.5580 -0.3060
  394MOL0     C53064   5.209  10.035   4.249 -0.4495  0.5243  0.4674
  394MOL0     C53065   5.225   9.916   4.349  0.1567  0.4989 -0.3757
  394MOL0     C53066   5.334   9.930   4.466  0.1149  0.0415  0.1380
  394MOL0     C53067   5.318  10.067   4.540 -0.2162  0.3216  0.0683
  394MOL0     C53068   5.401  10.090   4.674 -0.4606 -0.1105 -0.2225
  394MOL0     C53069   5.546  10.025   4.672  0.1048  0.4184  0.5275
  394MOL0     C53070   5.624  10.068   4.788 -0.6606  0.2041 -0.2342
  394MOL0     C53071   5.747   9.969   4.821 -0.4865  0.1289 -0.0516
  394MOL0     N53072   5.852  10.047   4.876 -0.1886 -0.2626 -0.3208
  394MOL0     C53073   5.846  10.109   5.003 -0.6962  0.8991  0.5894
  394MOL0     C53074   5.968  10.174   5.008 -0.2352  0.4190  0.5445
  394MOL0     C53075   6.016  10.258   5.125 -0.3625  0.3472  0.2147
  394MOL0     C53076   6.141  10.194   5.190  0.1345 -0.1846  0.4986
  394MOL0     C53077   6.276  10.208   5.119 -0.0847 -0.2682 -0.6631
  394MOL0     C53078   6.300  10.354   5.075  0.0276  0.4330 -0.6013
  394MOL0     O53079   6.261  10.442   5.183 -0.1318  0.1400 -0.5599
  394MOL0     C53080   6.228  10.568   5.159  0.3502 -0.1755 -0.9209
  394MOL0     C53081   6.150  10.631   5.261 -0.1289  0.2703 -0.6658
  394MOL0     C53082   6.117  10.767   5.244  0.5077 -0.0827 -0.6007
  394MOL0     C53083   6.151  10.833   5.122  0.8912  0.0735  0.5893
  394MOL0     C53084   6.106  10.970   5.108  0.6892  0.0414  0.4131
  394MOL0     O53085   6.067  11.027   5.228 -0.1840  0.3137 -0.4920
  394MOL0     C53086   6.073  11.163   5.233  0.2062  0.3280  0.5174
  394MOL0     C53087   5.983  11.226   5.315 -0.4731 -0.4015  0.6474
  394MOL0     C53088   5.977  11.366   5.318  1.3022 -0.5265 -0.1511
  394MOL0     C53089   6.060  11.449   5.245 -0.3144 -0.2766 -0.1305
  394MOL0     O53090   6.048  11.590   5.253  0.4289  0.4368 -0.2102
  394MOL0     C53091   6.150  11.671   5.181  0.1119 -0.3740 -0.5654
  394MOL0     C53092   6.111  11.810   5.198 -0.0957  0.4125 -0.1367
  394MOL0     C53093   6.154  11.870   5.333  0.1648  0.3983 -0.1962
  394MOL0     C53094   6.291  11.931   5.355  0.8291 -0.5098 -0.4640
  394MOL0     C53095   6.312  11.988   5.499 -0.6680  0.3205 -0.4055
  394MOL0     C53096   6.244  12.119   5.516  0.0865  0.1200  0.1560
  394MOL0     C53097   6.276  12.201   5.635 -0.0630 -0.0337  0.0307
  394MOL0     C53098   6.242  12.121   5.767 -0.6951  0.2472 -0.0328
  394MOL0    Cl53099   6.068  12.085   5.800  0.1610  0.2822  0.0887
  394MOL0     C53100   6.156  11.386   5.172 -0.7186 -0.4213 -0.1094
  394MOL0     C53101   6.163  11.248   5.158  0.0518  0.4253  0.1449
  394MOL0     O53102   6.104  11.026   4.996  0.7968 -0.7513 -0.2751
  394MOL0     C53103   6.210  10.768   5.013  0.4762  0.6742  0.2400
  394MOL0     C53104   6.257  10.639   5.043 -0.0799  0.1659  0.4089
  394MOL0     N53105   6.042  10.155   4.894  0.1813 -0.4102  0.5389
  394MOL0     N53106   5.973  10.066   4.826 -0.4028 -0.6661  0.4512
  394MOL0     C53107   4.935  10.086   4.020 -0.6626 -0.1169  0.2525
  394MOL0     C53108   4.897  10.182   3.924  0.8864 -0.6813  0.4630
  394MOL0     C53109   4.812  10.478   3.619 -0.0582 -0.7147  0.0035
  394MOL0     C53110   4.923  10.488   3.534 -0.3434 -0.0486 -0.8305
  394MOL0     C53111   4.913  10.560   3.407 -0.3442  0.6203  0.0138
  394MOL0     C53112   4.788  10.609   3.367 -0.0643 -0.3258 -0.8782
  394MOL0     O53113   4.783  10.671   3.248  0.1427 -0.0043  0.2175
  394MOL0     C53114   4.661  10.726   3.197  0.3765  1.1867 -0.0790
  394MOL0     C53115   4.677  10.774   3.051 -0.6162 -0.1199  0.0675
  394MOL0     C53116   4.795  10.872   3.016  1.2793 -0.6407 -0.1990
  394MOL0     C53117   4.795  10.942   2.877  0.9583  0.9403 -0.0533
  394MOL0     C53118   4.838  10.849   2.776  0.6823  0.7021  1.1690
  394MOL0     C53119   4.887  10.765   2.698  1.4568  0.7102 -0.0761
  394MOL0     C53120   4.678  10.589   3.454  0.5902 -1.9208 -0.2423
  394MOL0     C53121   4.688  10.535   3.582  1.1954  0.3475  0.2115
  394MOL0     C53122   4.556  10.507   3.653  0.3587 -0.0015 -0.0191
  394MOL0     H53123   5.175  10.375   3.917  1.6374 -1.3762  1.7906
  394MOL0     H53124   5.238  10.215   4.086  0.9901 -0.4922 -0.9820
  394MOL0     H53125   5.312  10.060   4.219 -0.3323 -0.0610  0.3721
  394MOL0     H53126   5.166  10.116   4.308  0.2516 -0.1223  1.9145
  394MOL0     H53127   5.256   9.828   4.293 -0.5895 -1.5078  2.1582
  394MOL0     H53128   5.127   9.902   4.395 -0.8600  0.1085 -2.5450
  394MOL0     H53129   5.434   9.912   4.425 -0.5643 -1.0620 -1.0942
  394MOL0     H53130   5.317   9.861   4.549 -0.1795  0.0376  0.0738
  394MOL0     H53131   5.353  10.147   4.474  1.0844  0.1794  0.5509
  394MOL0     H53132   5.215  10.093   4.567  0.5178  2.3834  1.0758
  394MOL0     H53133   5.409  10.197   4.693 -1.5937 -0.0758  0.1181
  394MOL0     H53134   5.346  10.036   4.751 -1.2328 -0.1606 -0.7993
  394MOL0     H53135   5.532   9.917   4.665 -0.8877  0.5745 -0.0646
  394MOL0     H53136   5.607  10.051   4.585 -0.6591 -1.1816 -0.5176
  394MOL0     H53137   5.561  10.053   4.877 -2.3209 -3.9038 -1.8303
  394MOL0     H53138   5.651  10.170   4.761  0.1148 -0.3484 -1.6293
  394MOL0     H53139   5.717   9.884   4.882  1.7289  0.3153  1.3877
  394MOL0     H53140   5.789   9.921   4.732  3.0906 -2.1942  2.6216
  394MOL0     H53141   5.782  10.104   5.091  0.2022  1.7380  1.3098
  394MOL0     H53142   6.043  10.358   5.091 -2.1998  0.4557 -1.0059
  394MOL0     H53143   5.935  10.270   5.198  0.1199  1.2184  0.6307
  394MOL0     H53144   6.151  10.244   5.287  2.2182 -2.6296  1.6593
  394MOL0     H53145   6.118  10.089   5.210  0.4461 -0.7769 -1.8988
  394MOL0     H53146   6.290  10.124   5.051  0.5617 -3.1550  2.7225
  394MOL0     H53147   6.343  10.175   5.199  0.2536 -0.9648 -1.2224
  394MOL0     H53148   6.257  10.359   4.974  1.2628 -0.9749 -1.2538
  394MOL0     H53149   6.406  10.374   5.061 -0.4314  1.6788 -2.7667
  394MOL0     H53150   6.121  10.573   5.348  1.3251  0.1674 -0.2332
  394MOL0     H53151   6.076  10.821   5.329 -0.1028 -0.7151 -0.4798
  394MOL0     H53152   5.913  11.173   5.377 -1.2587 -1.0562 -0.7438
  394MOL0     H53153   5.898  11.413   5.375  0.0985  0.8900 -2.7916
  394MOL0     H53154   6.250  11.658   5.223 -1.1960 -1.7729  2.3986
  394MOL0     H53155   6.144  11.652   5.074 -1.1540  2.5981 -1.1245
  394MOL0     H53156   6.160  11.873   5.123  1.9426  1.1265  1.7014
  394MOL0     H53157   6.002  11.815   5.184 -0.8345 -3.3301  2.6875
  394MOL0     H53158   6.078  11.943   5.361 -1.3615 -1.4898  0.8156
  394MOL0     H53159   6.144  11.790   5.407  0.6881  0.6326  0.1305
  394MOL0     H53160   6.295  12.023   5.297  2.1819 -0.4107 -0.2407
  394MOL0     H53161   6.376  11.868   5.326  2.2610  2.0164 -2.0978
  394MOL0     H53162   6.421  11.993   5.510 -0.5680 -1.2567 -0.3774
  394MOL0     H53163   6.284  11.915   5.576  1.8050 -0.1321  0.1740
  394MOL0     H53164   6.260  12.169   5.420  1.7216  0.8762  0.7939
  394MOL0     H53165   6.138  12.091   5.526 -0.1603  1.1944  0.7510
  394MOL0     H53166   6.212  12.289   5.643  0.8915  0.6800 -0.0343
  394MOL0     H53167   6.378  12.238   5.620 -0.8730  2.3078 -0.1332
  394MOL0     H53168   6.306  12.032   5.760 -0.1214  0.5379  1.1742
  394MOL0     H53169   6.283  12.175   5.853  2.9933 -1.4922 -0.4975
  394MOL0     H53170   6.221  11.447   5.111 -1.0922  0.5821  0.4841
  394MOL0     H53171   6.247  11.220   5.094  0.2614  0.4354  0.4120
  394MOL0     H53172   6.227  10.821   4.920  1.0781 -0.7035 -0.4649
  394MOL0     H53173   6.304  10.588   4.960  4.0085  0.7356  2.1448
  394MOL0     H53174   4.890   9.991   4.049  0.4405 -1.1963 -1.3594
  394MOL0     H53175   4.806  10.177   3.866 -0.3795  3.8199  1.6752
  394MOL0     H53176   5.014  10.431   3.545 -0.4865 -0.7419 -2.8411
  394MOL0     H53177   5.006  10.577   3.353 -1.0642  3.2218 -0.5387
  394MOL0     H53178   4.623  10.806   3.262  0.5077 -0.2688  1.8779
  394MOL0     H53179   4.588  10.645   3.194 -0.6835  2.1294 -0.3985
  394MOL0     H53180   4.580  10.821   3.033 -0.7794 -0.6197 -0.3943
  394MOL0     H53181   4.695  10.680   2.998  3.6588  0.2519  0.5343
  394MOL0     H53182   4.890  10.826   3.043  1.3251  1.2026  3.3042
  394MOL0     H53183   4.781  10.950   3.091  0.3374 -0.4651 -0.5393
  394MOL0     H53184   4.701  10.990   2.847  1.6759  2.4074 -0.0249
  394MOL0     H53185   4.873  11.018   2.889  2.1411  0.0942 -1.9390
  394MOL0     H53186   4.923  10.682   2.641 -0.8860 -1.0239  0.7998
  394MOL0     H53187   4.583  10.617   3.409  0.5722  0.8760  1.2937
  394MOL0     H53188   4.571  10.564   3.745 -0.8022  0.1621  0.0903
  394MOL0     H53189   4.470  10.541   3.595  2.6294  2.0927 -2.4058
  394MOL0     H53190   4.545  10.401   3.678 -0.5394  0.1366  0.2106
  395MOL0     O53191   3.996  11.047   4.409  0.8245  0.1742 -0.8501
  395MOL0     C53192   3.989  11.175   4.419  0.5544  0.2785 -0.7041
  395MOL0     O53193   3.940  11.261   4.323 -0.4792  0.9221  0.3469
  395MOL0     C53194   3.872  11.195   4.219  0.0071  0.6462 -0.9705
  395MOL0     C53195   3.936  11.118   4.120 -0.6605 -0.1347 -0.3038
  395MOL0     C53196   3.879  11.072   4.003 -0.0230 -0.3519  0.1541
  395MOL0     C53197   3.742  11.087   3.982 -0.4210  0.3310 -0.1752
  395MOL0     O53198   3.696  11.038   3.862 -0.4826  0.0334 -1.0294
  395MOL0     C53199   3.579  11.095   3.802 -0.7344  0.1404 -0.0093
  395MOL0     C53200   3.605  11.242   3.773  0.0486 -0.0567 -0.5512
  395MOL0     C53201   3.472  11.320   3.735 -0.5179 -0.7477  0.1921
  395MOL0     C53202   3.412  11.277   3.603 -0.4521  0.7013  0.4352
  395MOL0     C53203   3.304  11.366   3.562  0.2683 -0.0225  0.4630
  395MOL0     C53204   3.268  11.329   3.418  0.0588 -0.5536  0.7312
  395MOL0     C53205   3.146  11.414   3.371 -0.3802 -0.2316 -0.4478
  395MOL0     C53206   3.098  11.379   3.229 -0.2735 -0.1630  0.4216
  395MOL0     N53207   3.195  11.403   3.122 -0.5944 -1.2858 -0.1929
  395MOL0     C53208   3.219  11.523   3.059 -0.8279 -0.1620 -0.1600
  395MOL0     C53209   3.327  11.496   2.985  0.3331 -0.6162  0.2569
  395MOL0     C53210   3.412  11.599   2.914 -0.5813  0.9985  0.3818
  395MOL0     C53211   3.542  11.631   2.995 -0.4403  0.8927  0.0614
  395MOL0     C53212   3.665  11.647   2.906 -0.4446 -0.1609  0.4036
  395MOL0     C53213   3.786  11.666   2.986 -0.0851 -0.1455 -0.1951
  395MOL0     O53214   3.896  11.686   2.903  0.5436  0.0084 -0.4042
  395MOL0     C53215   3.940  11.595   2.817 -0.1686 -0.0686  0.8628
  395MOL0     C53216   3.949  11.456   2.834 -0.4805 -0.3050  0.4553
  395MOL0     C53217   4.003  11.374   2.730 -0.2711  0.4726  1.0584
  395MOL0     C53218   4.041  11.433   2.608 -0.9194  0.0645  0.1577
  395MOL0     C53219   4.106  11.350   2.515 -0.6000 -0.3060  0.0533
  395MOL0     O53220   4.079  11.215   2.510  0.8287  0.4918 -0.4474
  395MOL0     C53221   4.097  11.147   2.397  0.6025 -0.3850 -0.3494
  395MOL0     C53222   4.127  11.011   2.407 -0.8969  0.5455 -0.4618
  395MOL0     C53223   4.175  10.940   2.289 -0.1150 -0.1673 -0.3553
  395MOL0     C53224   4.162  11.005   2.166  0.2590  0.6402  0.3137
  395MOL0     O53225   4.200  10.922   2.064  0.9218 -0.3730 -0.2278
  395MOL0     C53226   4.208  10.992   1.935 -0.5234 -0.0976  0.4068
  395MOL0     C53227   4.248  10.884   1.839  0.3275 -0.5194  0.4746
  395MOL0     C53228   4.262  10.929   1.696 -0.2119 -0.9621  0.7923
  395MOL0     C53229   4.361  10.836   1.608  0.0073  0.1518 -0.2793
  395MOL0     C53230   4.287  10.709   1.577  0.4389  0.0362  0.6948
  395MOL0     C53231   4.374  10.618   1.482 -0.1679  0.8611  0.1349
  395MOL0     C53232   4.326  10.468   1.482 -0.8091 -0.1445  0.6855
  395MOL0     C53233   4.214  10.447   1.385 -0.0738  0.2359 -0.2725
  395MOL0    Cl53234   4.203  10.261   1.357  0.6715  0.5044 -0.1267
  395MOL0     C53235   4.117  11.141   2.155 -0.1574  0.0572  0.4394
  395MOL0     C53236   4.090  11.211   2.273  0.1354  0.2156 -0.1753
  395MOL0     O53237   4.172  11.413   2.439  0.0695 -0.4804 -0.1727
  395MOL0     C53238   4.016  11.570   2.587  1.1020 -0.4947  0.3639
  395MOL0     C53239   3.966  11.646   2.694 -0.3068  0.5660 -0.3792
  395MOL0     N53240   3.368  11.368   3.005  0.4875 -0.4346  0.3288
  395MOL0     N53241   3.289  11.310   3.092 -0.5768  0.5925  0.7947
  395MOL0     C53242   3.674  11.151   4.083 -0.3620  0.4096 -0.0520
  395MOL0     C53243   3.735  11.210   4.199 -0.0360 -0.0506 -0.1022
  395MOL0     C53244   4.035  11.224   4.553  0.5801 -0.6572  0.0733
  395MOL0     C53245   4.150  11.172   4.616 -0.1712  1.0308 -0.5822
  395MOL0     C53246   4.193  11.208   4.739 -0.2809  0.6468 -0.1609
  395MOL0     C53247   4.120  11.290   4.814  0.4548  0.1103 -0.6496
  395MOL0     O53248   4.169  11.310   4.940  0.3772  0.7925  0.2473
  395MOL0     C53249   4.096  11.387   5.035 -0.3967  0.8643  0.4451
  395MOL0     C53250   4.137  11.372   5.183  0.1145  0.3240  0.1935
  395MOL0     C53251   4.290  11.393   5.204 -0.2782 -0.7256 -0.1571
  395MOL0     C53252   4.374  11.280   5.163 -0.6127  0.0227  0.7831
  395MOL0     C53253   4.516  11.297   5.202 -0.6325 -0.0218  0.0848
  395MOL0     C53254   4.631  11.308   5.251 -0.2768  0.1047  0.5714
  395MOL0     C53255   4.002  11.343   4.761  0.6778  0.2998 -0.3981
  395MOL0     C53256   3.954  11.319   4.631 -0.1740  0.4012  0.5408
  395MOL0     C53257   3.822  11.372   4.581 -0.6864  0.9263 -0.3754
  395MOL0     H53258   4.042  11.096   4.128 -0.1003  1.8907 -1.3631
  395MOL0     H53259   3.949  11.015   3.942  0.6559 -2.5729  2.7998
  395MOL0     H53260   3.577  11.048   3.703  1.4068  0.1898 -0.1222
  395MOL0     H53261   3.491  11.094   3.867 -0.0968  1.4597  0.9091
  395MOL0     H53262   3.687  11.246   3.700  0.9688 -2.5111  0.2410
  395MOL0     H53263   3.649  11.289   3.861  3.1556 -1.9421 -0.9381
  395MOL0     H53264   3.507  11.424   3.734  0.1344 -0.9118  2.0864
  395MOL0     H53265   3.401  11.317   3.818  0.4811  4.0261  1.5168
  395MOL0     H53266   3.490  11.276   3.526  2.3480  4.0610  2.9083
  395MOL0     H53267   3.363  11.180   3.614 -0.7319  0.6296 -1.1436
  395MOL0     H53268   3.218  11.360   3.630 -1.2316 -0.8398 -1.4127
  395MOL0     H53269   3.334  11.471   3.566 -0.9348  0.3145  2.9068
  395MOL0     H53270   3.355  11.347   3.353 -0.8855 -3.7178 -1.6400
  395MOL0     H53271   3.234  11.227   3.399  2.5891 -1.5209  0.9770
  395MOL0     H53272   3.161  11.521   3.387  1.0235 -0.5983  1.0261
  395MOL0     H53273   3.060  11.387   3.433 -0.1852  2.5461  1.2353
  395MOL0     H53274   3.057  11.278   3.238  0.1663 -0.3533  0.3068
  395MOL0     H53275   3.018  11.448   3.201  0.2772 -0.0480 -0.9773
  395MOL0     H53276   3.175  11.621   3.075  2.6508  1.6493 -0.7952
  395MOL0     H53277   3.435  11.563   2.814 -2.0153  0.8136  0.0955
  395MOL0     H53278   3.362  11.694   2.891 -0.1166  0.5352 -2.9975
  395MOL0     H53279   3.537  11.718   3.062 -0.1485 -0.9983  2.7040
  395MOL0     H53280   3.569  11.546   3.058 -0.8782 -1.3617 -2.5998
  395MOL0     H53281   3.648  11.738   2.848  1.6156  0.2876  0.4184
  395MOL0     H53282   3.678  11.560   2.841  1.0191 -0.3310  0.8791
  395MOL0     H53283   3.809  11.585   3.056 -1.7476  0.4798  1.1230
  395MOL0     H53284   3.766  11.751   3.051 -2.2901 -0.0910 -0.8800
  395MOL0     H53285   3.930  11.412   2.931 -1.0471 -0.5265  0.2429
  395MOL0     H53286   4.023  11.270   2.753  0.2587 -0.3586 -2.5490
  395MOL0     H53287   4.118  10.970   2.507  2.5456 -4.7439 -1.8873
  395MOL0     H53288   4.196  10.834   2.293 -2.6046 -0.6960 -0.0552
  395MOL0     H53289   4.107  11.020   1.904 -0.2130  0.6788  0.0775
  395MOL0     H53290   4.274  11.078   1.942 -0.6194 -0.1693  3.4376
  395MOL0     H53291   4.345  10.847   1.873  0.0885 -0.4830  1.2014
  395MOL0     H53292   4.172  10.806   1.845 -0.6643  0.4485  0.6552
  395MOL0     H53293   4.173  10.929   1.631  2.9873 -2.8495 -4.1560
  395MOL0     H53294   4.315  11.024   1.701  1.7857 -1.7306 -2.5792
  395MOL0     H53295   4.449  10.820   1.671  0.4580 -0.0440 -0.9509
  395MOL0     H53296   4.387  10.882   1.512  0.0517  0.6529 -0.0349
  395MOL0     H53297   4.192  10.731   1.528 -0.0297 -3.3100 -0.1202
  395MOL0     H53298   4.266  10.654   1.668  2.6499 -1.4589  0.3891
  395MOL0     H53299   4.375  10.653   1.378 -1.1869 -1.1917 -0.6273
  395MOL0     H53300   4.475  10.617   1.524 -0.8094  0.6299  1.7244
  395MOL0     H53301   4.293  10.452   1.585 -1.8093 -0.6073  0.3042
  395MOL0     H53302   4.418  10.412   1.461 -1.8212 -0.9167 -2.1894
  395MOL0     H53303   4.124  10.480   1.438 -0.5068 -0.6741 -0.4174
  395MOL0     H53304   4.231  10.507   1.294 -0.4343 -1.9488 -1.8604
  395MOL0     H53305   4.103  11.185   2.057 -0.2492 -1.0819 -0.0664
  395MOL0     H53306   4.058  11.315   2.267 -0.9454  0.1099  2.4698
  395MOL0     H53307   4.034  11.618   2.491 -4.7923  1.4342 -0.1461
  395MOL0     H53308   3.944  11.752   2.694 -0.7288  0.4851 -0.8355
  395MOL0     H53309   3.568  11.173   4.072 -0.7063  1.0248  3.3718
  395MOL0     H53310   3.670  11.274   4.258  3.2802  3.1431  0.3793
  395MOL0     H53311   4.222  11.103   4.573 -0.5914 -0.0649  0.3952
  395MOL0     H53312   4.285  11.169   4.781 -0.6575  1.4995  1.5584
  395MOL0     H53313   3.988  11.370   5.025  0.1332 -3.4151  0.1800
  395MOL0     H53314   4.112  11.490   5.002 -0.7418  0.4087 -1.2173
  395MOL0     H53315   4.104  11.272   5.212 -1.7148  1.6054  3.0637
  395MOL0     H53316   4.084  11.436   5.255 -0.7380 -1.5598  1.3264
  395MOL0     H53317   4.316  11.417   5.307  2.2406  0.5008 -0.9950
  395MOL0     H53318   4.316  11.484   5.150 -4.2641  1.8052  1.7310
  395MOL0     H53319   4.348  11.185   5.212 -1.8806  0.5595  1.1731
  395MOL0     H53320   4.387  11.274   5.054  2.5842 -0.9719  1.1111
  395MOL0     H53321   4.725  11.290   5.298 -0.6822 -0.9362  1.0239
  395MOL0     H53322   3.959  11.420   4.824  2.5281  0.2158  1.0602
  395MOL0     H53323   3.767  11.415   4.665  2.8027 -1.2043  3.3650
  395MOL0     H53324   3.839  11.456   4.513 -1.3808  0.3826 -1.2382
  395MOL0     H53325   3.767  11.297   4.524  0.6271  0.8624 -1.6206
  396MOL0     O53326   1.763   4.391   7.416  0.4811  0.1946 -0.2359
  396MOL0     C53327   1.814   4.456   7.319 -0.4281 -0.6120 -0.1745
  396MOL0     O53328   1.758   4.557   7.246 -0.2450 -0.7864 -0.5791
  396MOL0     C53329   1.625   4.597   7.267  0.0577 -0.4030 -0.5912
  396MOL0     C53330   1.523   4.506   7.309  0.6219 -0.4681  0.1234
  396MOL0     C53331   1.390   4.551   7.314 -0.8660 -0.0295  0.5922
  396MOL0     C53332   1.359   4.684   7.282 -0.4683  0.1203 -0.8766
  396MOL0     O53333   1.231   4.729   7.286 -0.0532  0.2654  0.6820
  396MOL0     C53334   1.180   4.750   7.421 -0.4598  1.1309  0.6939
  396MOL0     C53335   1.025   4.745   7.420 -0.0801 -0.5142  0.2606
  396MOL0     C53336   0.973   4.865   7.331 -0.1935 -0.2655  0.0268
  396MOL0     C53337   0.823   4.891   7.340  0.2232  0.3125  0.1103
  396MOL0     C53338   0.781   5.016   7.261  0.3013  0.5230 -0.5510
  396MOL0     C53339   0.632   5.046   7.277  0.0007 -0.3295 -0.3348
  396MOL0     C53340   0.568   5.166   7.196 -1.3263 -0.1235 -0.1081
  396MOL0     C53341   0.620   5.302   7.238 -0.3021 -0.2126 -0.5750
  396MOL0     N53342   0.590   5.321   7.380  0.1788 -0.1420 -0.5121
  396MOL0     C53343   0.467   5.350   7.435  0.2764 -0.0365 -0.7547
  396MOL0     C53344   0.496   5.382   7.568 -0.7861 -0.0964  0.0270
  396MOL0     C53345   0.392   5.424   7.664 -0.0291 -0.5447 -0.4756
  396MOL0     C53346   0.439   5.560   7.735 -0.0925  0.7643 -0.5266
  396MOL0     C53347   0.450   5.682   7.641 -0.3726 -0.2561 -0.4495
  396MOL0     C53348   0.538   5.802   7.695  0.3066  0.3580  0.4092
  396MOL0     O53349   0.476   5.856   7.809 -0.9601  0.0703  0.2042
  396MOL0     C53350   0.534   5.979   7.833 -0.0077  0.7226  0.3954
  396MOL0     C53351   0.455   6.086   7.803  0.3845  0.3490 -1.0553
  396MOL0     C53352   0.483   6.218   7.851 -0.4664 -0.3161 -0.2264
  396MOL0     C53353   0.608   6.235   7.909  0.1058  0.0852 -0.6363
  396MOL0     C53354   0.664   6.368   7.961  1.0570  0.0026 -0.1923
  396MOL0     O53355   0.791   6.377   8.011  0.1763  1.3273  0.3229
  396MOL0     C53356   0.830   6.496   8.063  0.2716 -0.9769  0.0289
  396MOL0     C53357   0.771   6.566   8.167  0.7388  0.2954 -0.2636
  396MOL0     C53358   0.823   6.672   8.232  0.5045  0.7579  0.0967
  396MOL0     C53359   0.955   6.711   8.199 -0.4366 -0.0193 -0.0961
  396MOL0     O53360   1.024   6.814   8.255 -0.9964  0.7240 -0.8904
  396MOL0     C53361   0.962   6.915   8.331 -0.2289 -0.8792 -0.0962
  396MOL0     C53362   1.067   7.032   8.355  0.1798  0.1443 -0.0797
  396MOL0     C53363   1.064   7.121   8.232 -0.0519  0.0453  0.9021
  396MOL0     C53364   1.161   7.236   8.257 -0.1142 -0.6115  0.1928
  396MOL0     C53365   1.161   7.345   8.146 -0.5025  0.4397  0.5308
  396MOL0     C53366   1.044   7.443   8.151  0.1940 -0.5873 -0.4406
  396MOL0     C53367   1.003   7.490   8.007  0.4154  0.3825 -0.8095
  396MOL0     C53368   1.113   7.526   7.909  0.3214 -0.2932 -0.4722
  396MOL0    Cl53369   1.132   7.387   7.796  0.1913  0.3328 -0.1758
  396MOL0     C53370   1.013   6.654   8.090 -0.1034 -0.4329  0.0641
  396MOL0     C53371   0.951   6.547   8.018 -0.4519  0.0892 -1.0539
  396MOL0     O53372   0.589   6.466   7.955  0.0887  0.9008  0.2382
  396MOL0     C53373   0.693   6.126   7.942  0.5779  0.5813  0.8831
  396MOL0     C53374   0.659   5.993   7.901  0.6230 -0.4237 -0.6251
  396MOL0     N53375   0.632   5.362   7.585  0.0829 -0.1566 -0.0869
  396MOL0     N53376   0.685   5.327   7.471 -0.9845  0.2170 -0.9908
  396MOL0     C53377   1.460   4.771   7.245 -0.4570 -0.1105  0.0580
  396MOL0     C53378   1.597   4.735   7.250  0.5291 -0.4677  0.6256
  396MOL0     C53379   1.951   4.428   7.277  0.2709  0.1751 -0.4115
  396MOL0     C53380   2.022   4.521   7.201 -0.2074  0.5661  0.2260
  396MOL0     C53381   2.148   4.495   7.153  1.0296 -0.7370  0.1049
  396MOL0     C53382   2.216   4.380   7.191  0.3859 -0.4618 -0.5904
  396MOL0     O53383   2.347   4.347   7.147 -0.6613  0.4142  0.4085
  396MOL0     C53384   2.389   4.411   7.028 -0.2788  0.4401  0.5413
  396MOL0     C53385   2.511   4.332   6.990  0.3191  0.0345  1.6825
  396MOL0     C53386   2.572   4.388   6.856 -0.0670  0.1896  0.8054
  396MOL0     C53387   2.703   4.323   6.831 -0.3687  0.3222  0.8114
  396MOL0     C53388   2.789   4.362   6.717 -0.0578  0.1364 -0.9811
  396MOL0     C53389   2.861   4.396   6.634 -0.3670 -0.0443  0.4907
  396MOL0     C53390   2.155   4.292   7.278 -0.7644 -0.0772  0.0034
  396MOL0     C53391   2.023   4.316   7.320  0.3399 -0.1175  0.1002
  396MOL0     C53392   1.967   4.217   7.419 -0.6405  0.1294  0.7181
  396MOL0     H53393   1.537   4.400   7.328  2.2510 -0.5675 -1.3900
  396MOL0     H53394   1.317   4.472   7.335 -1.7628  0.9890  1.4430
  396MOL0     H53395   1.215   4.670   7.488 -0.6750  0.8826  0.5108
  396MOL0     H53396   1.218   4.839   7.471  1.3294  0.3671  0.7829
  396MOL0     H53397   0.980   4.743   7.520  1.0016  2.2451  0.9207
  396MOL0     H53398   0.997   4.653   7.369 -0.2437 -1.4671  1.9874
  396MOL0     H53399   1.002   4.852   7.226 -0.3721 -2.6859  0.2220
  396MOL0     H53400   1.020   4.956   7.370  0.8657 -1.3308  1.3282
  396MOL0     H53401   0.762   4.808   7.303  1.0574 -0.0707 -0.4107
  396MOL0     H53402   0.789   4.911   7.442 -2.5106 -1.4196 -0.3535
  396MOL0     H53403   0.844   5.097   7.301  1.4032 -1.0131  1.0009
  396MOL0     H53404   0.808   4.990   7.158 -3.7923 -0.6253 -1.4810
  396MOL0     H53405   0.570   4.958   7.256 -0.7959  0.2035 -0.2261
  396MOL0     H53406   0.606   5.058   7.382 -2.8177 -2.7120 -0.6204
  396MOL0     H53407   0.460   5.162   7.216 -1.2926  3.7759  1.8435
  396MOL0     H53408   0.591   5.141   7.092  1.5465  0.2585  0.3443
  396MOL0     H53409   0.727   5.296   7.219 -0.3258 -1.7472 -0.4072
  396MOL0     H53410   0.586   5.383   7.173  4.7290  0.7493 -2.4705
  396MOL0     H53411   0.370   5.349   7.386 -0.9532 -0.5133  1.5630
  396MOL0     H53412   0.301   5.442   7.605 -0.4795 -0.5642  0.1897
  396MOL0     H53413   0.365   5.348   7.738  2.6065 -2.1788 -1.1012
  396MOL0     H53414   0.370   5.591   7.815  0.5773 -1.9096  1.1990
  396MOL0     H53415   0.534   5.536   7.781  0.8456 -2.1884 -3.5869
  396MOL0     H53416   0.349   5.718   7.617 -0.1786  0.6831  0.1094
  396MOL0     H53417   0.503   5.647   7.552  1.0697 -0.7584  0.5688
  396MOL0     H53418   0.555   5.887   7.627  0.5415  1.3713  1.6873
  396MOL0     H53419   0.635   5.762   7.725  1.1202  1.4977 -0.5707
  396MOL0     H53420   0.356   6.073   7.760 -1.5728  1.0915  2.8068
  396MOL0     H53421   0.411   6.289   7.812 -1.3838 -0.1093  1.6860
  396MOL0     H53422   0.671   6.541   8.200  0.5334  1.9172  0.4289
  396MOL0     H53423   0.771   6.708   8.320  1.4269 -0.1828  1.0669
  396MOL0     H53424   0.868   6.949   8.286  0.2443  0.6672  0.0602
  396MOL0     H53425   0.923   6.880   8.427  0.2576 -0.2618  0.3293
  396MOL0     H53426   1.042   7.065   8.456 -0.6400 -0.3165 -0.1195
  396MOL0     H53427   1.167   6.988   8.358  0.3677  0.5368 -0.5325
  396MOL0     H53428   1.097   7.074   8.139  2.6668  1.2264  1.1774
  396MOL0     H53429   0.961   7.156   8.222  0.0421  0.6050  1.7507
  396MOL0     H53430   1.266   7.204   8.262  0.7495  1.8380 -0.5170
  396MOL0     H53431   1.146   7.273   8.359 -1.6095  0.5571 -0.4222
  396MOL0     H53432   1.159   7.293   8.051  3.1574  0.5080  0.2973
  396MOL0     H53433   1.254   7.401   8.133  1.0209 -2.3894 -1.9830
  396MOL0     H53434   0.948   7.401   8.183 -1.3761  1.6606 -1.8773
  396MOL0     H53435   1.074   7.529   8.211  2.2819 -0.2818 -1.8179
  396MOL0     H53436   0.941   7.580   8.011  1.7045  1.2813 -0.0889
  396MOL0     H53437   0.940   7.411   7.966 -1.3352  1.7839 -0.9691
  396MOL0     H53438   1.099   7.621   7.858  1.9237 -0.0519 -0.5103
  396MOL0     H53439   1.206   7.548   7.962  0.8787 -0.9996 -1.1343
  396MOL0     H53440   1.110   6.686   8.055  0.0721 -0.1799  0.7597
  396MOL0     H53441   1.006   6.505   7.934  1.1880 -0.1433  0.1067
  396MOL0     H53442   0.781   6.141   8.004  0.5676 -1.3721  1.4306
  396MOL0     H53443   0.703   5.901   7.938 -0.8639 -0.7867  0.3775
  396MOL0     H53444   1.422   4.871   7.229  1.6399  0.8997  0.9390
  396MOL0     H53445   1.676   4.802   7.216  0.6846 -1.6195 -1.4383
  396MOL0     H53446   1.966   4.606   7.164  0.3894 -0.8414 -4.7335
  396MOL0     H53447   2.177   4.561   7.072  1.2217 -2.6408 -1.4515
  396MOL0     H53448   2.422   4.512   7.055  2.8531 -0.2955 -0.1669
  396MOL0     H53449   2.316   4.421   6.947 -1.6715  2.3716  1.9288
  396MOL0     H53450   2.487   4.226   6.985  1.2817 -0.2196  2.1148
  396MOL0     H53451   2.581   4.339   7.074  1.0690  1.3009  0.9859
  396MOL0     H53452   2.589   4.493   6.881  4.0654  0.0836 -0.6602
  396MOL0     H53453   2.512   4.378   6.765  1.9462  4.2081 -1.2204
  396MOL0     H53454   2.766   4.331   6.920  0.5850 -2.7916  0.5376
  396MOL0     H53455   2.680   4.216   6.822 -0.5620  0.1768  2.6412
  396MOL0     H53456   2.915   4.426   6.546  0.3738  1.6821  1.4855
  396MOL0     H53457   2.215   4.203   7.294 -0.2740 -0.1975 -2.1523
  396MOL0     H53458   1.974   4.274   7.512  1.6775  4.5070 -1.7543
  396MOL0     H53459   1.866   4.195   7.382 -0.5956  1.0460 -0.0070
  396MOL0     H53460   2.021   4.122   7.428  1.1763  1.1908  1.7724
  397MOL0     O53461   1.584   8.461   3.667  0.3056 -0.4684 -1.5517
  397MOL0     C53462   1.540   8.439   3.554 -0.9017  0.2700 -0.3335
  397MOL0     O53463   1.463   8.334   3.520 -0.2363  0.5800  0.5153
  397MOL0     C53464   1.425   8.247   3.615 -0.1137  0.5501 -0.8929
  397MOL0     C53465   1.296   8.200   3.615  0.0073 -0.0440  0.7288
  397MOL0     C53466   1.256   8.095   3.699  0.1960  0.6804 -0.5161
  397MOL0     C53467   1.340   8.039   3.795  0.2137  0.1748 -0.6682
  397MOL0     O53468   1.290   7.932   3.866  0.0268 -0.3436 -1.3396
  397MOL0     C53469   1.350   7.882   3.988 -0.3240 -0.5040 -0.0298
  397MOL0     C53470   1.459   7.777   3.942  0.0331  0.4506 -0.3811
  397MOL0     C53471   1.408   7.665   3.858 -0.1663  0.3675 -0.0514
  397MOL0     C53472   1.492   7.541   3.851  0.4939  0.0329 -0.6170
  397MOL0     C53473   1.440   7.427   3.760 -0.0433  0.8165  0.1123
  397MOL0     C53474   1.559   7.334   3.731 -0.3309 -0.7296 -0.8450
  397MOL0     C53475   1.522   7.208   3.660 -0.0935  0.2746  0.3599
  397MOL0     C53476   1.641   7.115   3.677 -0.8005  0.2363 -0.1395
  397MOL0     N53477   1.761   7.172   3.616 -0.8883 -0.4549  0.1398
  397MOL0     C53478   1.779   7.211   3.484  0.5586  0.0550  0.4203
  397MOL0     C53479   1.903   7.250   3.469  0.1857 -0.7988 -0.0465
  397MOL0     C53480   1.959   7.320   3.353  0.4050 -0.2858  0.5071
  397MOL0     C53481   2.084   7.250   3.302 -0.3059  1.0280 -0.1286
  397MOL0     C53482   2.055   7.144   3.188 -0.0377  0.2285 -0.4237
  397MOL0     C53483   2.194   7.073   3.165 -0.4765 -0.9640 -1.0422
  397MOL0     O53484   2.298   7.172   3.146  0.6927 -1.0686 -0.5593
  397MOL0     C53485   2.283   7.249   3.029 -0.3785  0.4300  0.4951
  397MOL0     C53486   2.324   7.388   3.027  0.1228 -0.2569 -0.5665
  397MOL0     C53487   2.303   7.458   2.910 -0.5399 -0.4334 -0.3165
  397MOL0     C53488   2.248   7.409   2.793  0.4009  0.1424  0.0863
  397MOL0     C53489   2.202   7.499   2.683  0.5743 -0.6886 -1.1969
  397MOL0     O53490   2.222   7.636   2.707  0.1852 -1.0665  0.4563
  397MOL0     C53491   2.206   7.730   2.606 -0.4259 -0.2023  0.0204
  397MOL0     C53492   2.213   7.865   2.655 -0.5391  0.7097 -0.3035
  397MOL0     C53493   2.207   7.973   2.564 -0.1672  0.5336 -1.2425
  397MOL0     C53494   2.182   7.956   2.427  0.0998 -0.7150 -0.3633
  397MOL0     O53495   2.196   8.070   2.354 -0.1181 -0.3334  0.6544
  397MOL0     C53496   2.076   8.102   2.286  0.6673 -0.3681 -0.6929
  397MOL0     C53497   2.073   8.230   2.198 -0.7791  0.8772  0.3171
  397MOL0     C53498   2.092   8.353   2.279  0.8775 -0.0696 -0.0344
  397MOL0     C53499   1.986   8.371   2.395 -0.4752  0.2587 -0.2278
  397MOL0     C53500   1.841   8.385   2.343 -0.0050 -0.0428 -0.0560
  397MOL0     C53501   1.823   8.475   2.224  0.5190  0.0666 -0.2317
  397MOL0     C53502   1.679   8.457   2.176 -0.1899 -0.6039 -0.2138
  397MOL0     C53503   1.660   8.561   2.060 -0.2769  1.0601  0.7181
  397MOL0    Cl53504   1.685   8.740   2.113  0.3231  0.0302 -0.3918
  397MOL0     C53505   2.156   7.830   2.381 -0.1772 -0.1079 -0.1552
  397MOL0     C53506   2.177   7.717   2.470 -0.4489 -0.6864 -0.2108
  397MOL0     O53507   2.156   7.444   2.588  0.2267 -0.2168 -0.0990
  397MOL0     C53508   2.214   7.276   2.786  0.8385 -1.4238 -0.1145
  397MOL0     C53509   2.219   7.208   2.911 -0.3192  0.7399  0.3157
  397MOL0     N53510   1.964   7.229   3.587 -0.4833  0.5214  0.7925
  397MOL0     N53511   1.886   7.180   3.675  0.6068 -0.0120 -0.5307
  397MOL0     C53512   1.473   8.090   3.803 -0.2671  0.2082 -0.0306
  397MOL0     C53513   1.515   8.189   3.710  0.7012  0.7287 -0.3694
  397MOL0     C53514   1.565   8.538   3.461  0.3157 -0.0610  0.8639
  397MOL0     C53515   1.463   8.554   3.366 -0.3016 -0.5107  0.1112
  397MOL0     C53516   1.476   8.648   3.260  0.5245  0.1022 -0.3990
  397MOL0     C53517   1.598   8.712   3.237 -0.2742  0.4496  0.7156
  397MOL0     O53518   1.598   8.780   3.117  0.2964 -0.3933  1.3335
  397MOL0     C53519   1.698   8.870   3.075 -0.5978  0.2533 -0.2307
  397MOL0     C53520   1.667   8.930   2.937 -0.3793 -0.2787 -0.2350
  397MOL0     C53521   1.696   8.824   2.833 -0.2448 -0.1035  0.1864
  397MOL0     C53522   1.702   8.914   2.709  0.6589  0.2590  0.1495
  397MOL0     C53523   1.752   8.834   2.592  0.8736 -0.9328  0.0507
  397MOL0     C53524   1.791   8.780   2.491  0.1074 -1.1984 -0.2885
  397MOL0     C53525   1.701   8.694   3.328  0.2339 -0.0378  1.4900
  397MOL0     C53526   1.684   8.616   3.446  0.4120  0.1292  0.1956
  397MOL0     C53527   1.798   8.600   3.535 -0.7298 -0.4956 -0.1527
  397MOL0     H53528   1.213   8.232   3.552 -0.7268 -2.3305  0.4324
  397MOL0     H53529   1.150   8.073   3.699 -0.2541  2.6244 -0.2637
  397MOL0     H53530   1.399   7.970   4.031 -1.0388  1.8140 -3.5409
  397MOL0     H53531   1.283   7.824   4.052 -2.1636  1.2031 -0.2940
  397MOL0     H53532   1.514   7.732   4.026  3.5332  1.6584 -1.8211
  397MOL0     H53533   1.537   7.826   3.883  2.1361 -2.4172 -0.2192
  397MOL0     H53534   1.403   7.697   3.754  0.3761  1.0179  0.1134
  397MOL0     H53535   1.307   7.636   3.890 -0.1764  2.2485  1.8227
  397MOL0     H53536   1.593   7.581   3.835 -0.1060  0.8404 -2.8681
  397MOL0     H53537   1.505   7.511   3.955  2.9684  0.2563 -0.7972
  397MOL0     H53538   1.355   7.381   3.810  1.6126 -1.5967  0.9061
  397MOL0     H53539   1.409   7.464   3.662 -0.0250 -0.4310 -0.3771
  397MOL0     H53540   1.630   7.395   3.675  0.3107 -0.2491  0.4542
  397MOL0     H53541   1.608   7.312   3.826 -0.2411 -1.1452 -0.9862
  397MOL0     H53542   1.510   7.232   3.554  0.3197  0.8361  0.4402
  397MOL0     H53543   1.434   7.158   3.704  1.0484 -2.3482 -0.1220
  397MOL0     H53544   1.649   7.083   3.782 -1.0709 -1.7525 -0.6767
  397MOL0     H53545   1.614   7.020   3.630 -0.6474  0.3624 -0.4787
  397MOL0     H53546   1.711   7.213   3.399  3.4753  1.0302 -2.0470
  397MOL0     H53547   1.883   7.336   3.275  1.4030  2.5648 -0.0233
  397MOL0     H53548   2.001   7.417   3.381  0.6430  0.1838 -1.3065
  397MOL0     H53549   2.154   7.328   3.271  1.8383 -0.5729  0.4899
  397MOL0     H53550   2.136   7.204   3.386  3.4940  3.2945 -1.0001
  397MOL0     H53551   2.026   7.191   3.094 -0.2575 -0.3497 -0.6507
  397MOL0     H53552   1.980   7.075   3.226  1.4857 -1.3724 -0.1820
  397MOL0     H53553   2.174   7.005   3.082 -1.7015  2.6083 -3.9816
  397MOL0     H53554   2.222   7.019   3.256  2.8120  0.5030 -1.0329
  397MOL0     H53555   2.388   7.428   3.105 -0.4491 -1.9946  0.8415
  397MOL0     H53556   2.324   7.564   2.907 -0.0613 -0.5388 -1.8383
  397MOL0     H53557   2.223   7.884   2.762 -2.7744 -0.6561  0.2245
  397MOL0     H53558   2.223   8.072   2.606  0.8010 -0.6188  1.3098
  397MOL0     H53559   2.046   8.023   2.217  1.9238 -0.6645 -0.9124
  397MOL0     H53560   1.993   8.114   2.356  0.0392 -3.1793 -0.8304
  397MOL0     H53561   2.145   8.227   2.115  0.9861 -1.1339  1.8017
  397MOL0     H53562   1.982   8.240   2.138 -1.3528  1.1033  1.2074
  397MOL0     H53563   2.192   8.346   2.323  0.7716 -1.1053  0.0694
  397MOL0     H53564   2.103   8.438   2.211  1.0538 -1.3926 -1.7484
  397MOL0     H53565   2.018   8.468   2.434 -1.4455  0.2447  0.6661
  397MOL0     H53566   1.991   8.300   2.478  0.3880  1.6661  0.9949
  397MOL0     H53567   1.758   8.405   2.411 -0.5822  0.0949 -0.7903
  397MOL0     H53568   1.818   8.284   2.309 -2.0379 -0.2632  1.7485
  397MOL0     H53569   1.843   8.580   2.248 -1.2429  0.1187  1.3323
  397MOL0     H53570   1.891   8.444   2.145 -2.4350 -2.0200 -2.1722
  397MOL0     H53571   1.601   8.471   2.252 -1.0262 -3.6901 -0.3747
  397MOL0     H53572   1.678   8.352   2.145  0.2969 -1.0500  1.1791
  397MOL0     H53573   1.732   8.534   1.983  0.1924  1.7804  0.8917
  397MOL0     H53574   1.559   8.544   2.022 -0.5320 -1.7286  2.3737
  397MOL0     H53575   2.129   7.819   2.276  1.6001 -1.9219 -0.4795
  397MOL0     H53576   2.186   7.618   2.426  1.6750 -0.2006 -0.9700
  397MOL0     H53577   2.158   7.234   2.702  0.3542 -0.9365 -0.0430
  397MOL0     H53578   2.165   7.114   2.908  0.9791 -0.0958  1.4160
  397MOL0     H53579   1.551   8.067   3.875  0.2852  1.8859 -0.0537
  397MOL0     H53580   1.618   8.221   3.693  0.7937 -0.5275 -2.5914
  397MOL0     H53581   1.365   8.508   3.365 -0.0951 -0.9462 -0.6417
  397MOL0     H53582   1.402   8.654   3.182  0.5318  3.1684 -0.3178
  397MOL0     H53583   1.790   8.813   3.094 -2.3341 -2.7497 -0.2616
  397MOL0     H53584   1.715   8.937   3.160  2.5977 -3.9805  2.8783
  397MOL0     H53585   1.723   9.023   2.926 -0.2952  0.1359  2.8204
  397MOL0     H53586   1.564   8.965   2.935  0.4311  2.5548  1.2569
  397MOL0     H53587   1.613   8.753   2.830 -1.0180  0.7928 -0.5132
  397MOL0     H53588   1.788   8.767   2.846  0.0455 -0.2254 -2.0617
  397MOL0     H53589   1.600   8.951   2.694  0.0098 -1.1840  0.7818
  397MOL0     H53590   1.774   8.995   2.720  2.6309 -1.2824 -0.8811
  397MOL0     H53591   1.798   8.725   2.400  1.4979 -3.8571  1.2809
  397MOL0     H53592   1.791   8.754   3.316  0.6212 -0.4302  2.3526
  397MOL0     H53593   1.803   8.673   3.617  1.3073 -0.7545 -0.0049
  397MOL0     H53594   1.809   8.498   3.572 -1.4763 -1.0856 -1.4977
  397MOL0     H53595   1.893   8.617   3.485 -0.7947 -0.9471 -0.4351
  398MOL0     O53596  10.845   9.533   7.646 -0.5008  0.4842  0.9303
  398MOL0     C53597  10.910   9.640   7.655  1.0830  0.0560 -0.0090
  398MOL0     O53598  11.035   9.647   7.719  0.3062 -0.4153 -0.5822
  398MOL0     C53599  11.107   9.535   7.739 -0.6049  0.2067  0.1694
  398MOL0     C53600  11.061   9.417   7.792  0.1974  0.5838  0.6634
  398MOL0     C53601  11.149   9.311   7.798  0.1584 -0.2540 -0.1000
  398MOL0     C53602  11.289   9.324   7.772  0.4019  0.1310  0.0472
  398MOL0     O53603  11.386   9.220   7.787  0.4213 -0.5708 -0.1743
  398MOL0     C53604  11.341   9.083   7.778 -0.0329  0.4260  0.5268
  398MOL0     C53605  11.336   9.030   7.921  0.3704 -0.2762 -0.0644
  398MOL0     C53606  11.474   9.035   7.998  0.9580  0.3270  0.9347
  398MOL0     C53607  11.472   8.961   8.136  0.2102 -0.3005 -1.0139
  398MOL0     C53608  11.602   8.995   8.203  0.6203 -0.0651  0.1314
  398MOL0     C53609  11.611   8.939   8.345 -0.0388  0.8970  0.0611
  398MOL0     C53610  11.753   8.930   8.410  0.7140  0.6015  0.8014
  398MOL0     C53611  11.853   8.850   8.332  0.5667  0.9726 -0.3466
  398MOL0     N53612  11.988   8.864   8.374 -0.2065 -0.4625  0.8646
  398MOL0     C53613  12.092   8.911   8.288  0.2262  0.0874  0.6711
  398MOL0     C53614  12.201   8.907   8.368 -0.2390 -0.3653 -0.0862
  398MOL0     C53615  12.335   8.969   8.331 -0.4257 -1.6043 -0.2407
  398MOL0     C53616  12.347   9.105   8.400  0.0122  0.0029 -0.1922
  398MOL0     C53617  12.468   9.145   8.469 -0.0666 -0.1339  0.1556
  398MOL0     C53618  12.494   9.045   8.593  0.3047  0.0801 -0.4157
  398MOL0     O53619  12.610   8.962   8.571  0.2983  0.5367  0.1697
  398MOL0     C53620  12.734   9.019   8.580 -0.7054  0.1926  0.4895
  398MOL0     C53621  12.851   8.944   8.534 -0.8384  0.1923 -0.3617
  398MOL0     C53622  12.984   8.989   8.554  0.6931  0.6573 -0.7974
  398MOL0     C53623  12.999   9.115   8.613  1.2237  0.2355  0.5780
  398MOL0     C53624  13.128   9.174   8.633  0.5414 -0.1103  0.4774
  398MOL0     O53625  13.226   9.084   8.615  0.1910 -0.2902 -0.5414
  398MOL0     C53626  13.360   9.122   8.614 -0.2720 -0.2284 -0.0124
  398MOL0     C53627  13.425   9.204   8.701  0.9108 -0.5813  0.7149
  398MOL0     C53628  13.553   9.218   8.691 -0.8544 -0.8982  1.0698
  398MOL0     C53629  13.635   9.173   8.587  0.1229 -0.3764  0.3575
  398MOL0     O53630  13.774   9.188   8.575 -0.3042 -0.0801 -0.4135
  398MOL0     C53631  13.852   9.284   8.643  0.9268  0.3600  0.0967
  398MOL0     C53632  13.988   9.302   8.587 -0.1311  0.3410 -0.7225
  398MOL0     C53633  14.054   9.165   8.561  0.1504  0.1735  0.4169
  398MOL0     C53634  14.203   9.188   8.514  0.4029 -1.0201 -0.2635
  398MOL0     C53635  14.308   9.182   8.630 -0.1023 -0.2227  0.7852
  398MOL0     C53636  14.322   9.041   8.689 -0.4007  0.1144 -0.2529
  398MOL0     C53637  14.410   8.945   8.599  0.5013 -0.0100  0.8896
  398MOL0     C53638  14.504   8.841   8.674 -0.0621 -0.1213  1.5381
  398MOL0    Cl53639  14.653   8.918   8.729  0.3809  0.2812 -0.2140
  398MOL0     C53640  13.580   9.077   8.512 -0.4049  0.2560 -0.7242
  398MOL0     C53641  13.439   9.055   8.530  0.8635  0.2348  0.5541
  398MOL0     O53642  13.133   9.297   8.647  0.4540  0.1625  0.5873
  398MOL0     C53643  12.889   9.187   8.657 -0.4186  0.5536  0.8579
  398MOL0     C53644  12.757   9.145   8.639 -0.3929  0.5671  0.6388
  398MOL0     N53645  12.159   8.869   8.496  0.9312  0.0995  0.6389
  398MOL0     N53646  12.034   8.851   8.499  0.9517  1.0512  1.5370
  398MOL0     C53647  11.331   9.443   7.728  0.0236  0.2531 -0.5223
  398MOL0     C53648  11.245   9.545   7.706 -0.0485 -0.6172 -0.6184
  398MOL0     C53649  10.829   9.765   7.641 -0.7300  0.6767 -0.0721
  398MOL0     C53650  10.700   9.767   7.681  0.0601  0.5661 -0.0379
  398MOL0     C53651  10.620   9.883   7.672  0.0033  0.5242  0.7841
  398MOL0     C53652  10.670   9.997   7.621 -0.7081 -0.1180  0.3237
  398MOL0     O53653  10.578  10.099   7.626  0.4301  0.0399  0.5316
  398MOL0     C53654  10.609  10.220   7.560 -0.9193  0.2069  0.2869
  398MOL0     C53655  10.485  10.311   7.534  0.7922 -0.8604  0.3167
  398MOL0     C53656  10.381  10.230   7.444  0.1256 -0.5257  0.3439
  398MOL0     C53657  10.275  10.159   7.527 -0.3019  0.6089 -0.2790
  398MOL0     C53658  10.217  10.040   7.457 -0.5003  0.0786 -0.2086
  398MOL0     C53659  10.162   9.945   7.408  0.5635 -0.2593  0.5731
  398MOL0     C53660  10.808  10.005   7.591  0.5260 -1.0889  0.2946
  398MOL0     C53661  10.887   9.888   7.607 -0.3753 -0.1964 -0.5480
  398MOL0     C53662  11.029   9.906   7.571 -1.1692 -0.1378 -0.6749
  398MOL0     H53663  10.957   9.406   7.822  0.7023  0.2422  2.4356
  398MOL0     H53664  11.116   9.224   7.854  3.3427 -1.7136 -0.2531
  398MOL0     H53665  11.241   9.084   7.732 -0.7553  2.7781  2.0027
  398MOL0     H53666  11.411   9.013   7.731 -0.6121 -1.3481  2.1599
  398MOL0     H53667  11.307   8.924   7.918 -2.8133  0.4425  0.9225
  398MOL0     H53668  11.260   9.085   7.977 -0.0039 -1.0869  0.2501
  398MOL0     H53669  11.510   9.138   7.998 -0.3917  0.8194  1.4983
  398MOL0     H53670  11.541   8.968   7.943 -2.8624 -2.0273 -1.2752
  398MOL0     H53671  11.391   9.012   8.191  1.5392 -0.9511  1.7261
  398MOL0     H53672  11.447   8.855   8.137  1.5671 -0.6515 -2.0940
  398MOL0     H53673  11.671   8.944   8.136 -1.4011  0.0666 -2.1902
  398MOL0     H53674  11.629   9.101   8.207  1.7881 -0.3813  2.6276
  398MOL0     H53675  11.542   8.991   8.412 -1.2392 -0.3410 -0.1614
  398MOL0     H53676  11.571   8.838   8.355  0.7477  0.1101 -3.5782
  398MOL0     H53677  11.737   8.888   8.510  1.2896 -2.3361 -0.2586
  398MOL0     H53678  11.793   9.031   8.426  0.9857  0.3199  2.0384
  398MOL0     H53679  11.825   8.748   8.361  1.6201  1.2767  2.0144
  398MOL0     H53680  11.848   8.857   8.223  1.7827 -5.4449 -1.2390
  398MOL0     H53681  12.094   8.929   8.181  2.0017 -1.0804  0.4694
  398MOL0     H53682  12.416   8.901   8.360 -2.1746 -3.2479  1.0989
  398MOL0     H53683  12.335   8.994   8.225 -2.0575  0.7308  0.2377
  398MOL0     H53684  12.327   9.177   8.321  1.8738  0.5460 -0.2248
  398MOL0     H53685  12.268   9.109   8.476  1.1303 -2.2423  1.2070
  398MOL0     H53686  12.438   9.243   8.507  1.2269 -0.3623  1.9193
  398MOL0     H53687  12.548   9.149   8.395 -0.8852  1.0037 -0.7007
  398MOL0     H53688  12.405   8.986   8.620 -0.4613  1.4476  0.1547
  398MOL0     H53689  12.501   9.101   8.687  0.3436  2.4828 -1.7784
  398MOL0     H53690  12.854   8.841   8.500  2.5751 -0.1214  0.5824
  398MOL0     H53691  13.066   8.920   8.535  0.1909 -0.5775  1.2274
  398MOL0     H53692  13.359   9.252   8.773  0.1947  3.5516 -2.3525
  398MOL0     H53693  13.590   9.287   8.767 -1.8571 -0.3133  1.0517
  398MOL0     H53694  13.799   9.380   8.638 -1.1359 -0.7050  0.7761
  398MOL0     H53695  13.853   9.266   8.751 -1.9506 -0.3810  0.0613
  398MOL0     H53696  13.978   9.368   8.500 -1.6778  0.1422 -0.7217
  398MOL0     H53697  14.056   9.353   8.656 -2.6268 -1.2497  3.2352
  398MOL0     H53698  14.048   9.105   8.653 -0.0208 -1.1026 -0.3987
  398MOL0     H53699  14.006   9.112   8.479 -0.7194  0.6294  0.6237
  398MOL0     H53700  14.215   9.286   8.467 -0.9915 -0.4549  0.5027
  398MOL0     H53701  14.228   9.110   8.442  2.2370  1.4338 -2.4856
  398MOL0     H53702  14.273   9.257   8.701 -0.1874 -1.2962  1.9033
  398MOL0     H53703  14.407   9.211   8.592 -1.4241  0.8510 -2.1412
  398MOL0     H53704  14.370   9.059   8.786  2.4636  1.5893 -1.8030
  398MOL0     H53705  14.229   8.991   8.714  2.1595 -5.2593 -0.0052
  398MOL0     H53706  14.467   9.007   8.531 -1.1297  0.1773 -0.3778
  398MOL0     H53707  14.338   8.896   8.531 -1.0675  2.0093  1.0130
  398MOL0     H53708  14.448   8.800   8.759 -2.1954 -2.2073 -0.7021
  398MOL0     H53709  14.533   8.765   8.601  3.3356  2.1787  0.2312
  398MOL0     H53710  13.634   9.026   8.433 -1.7321 -1.4877 -0.5575
  398MOL0     H53711  13.396   8.996   8.449 -0.1810  0.8245  0.6633
  398MOL0     H53712  12.902   9.287   8.698  1.9381  1.1326 -1.0573
  398MOL0     H53713  12.675   9.204   8.679 -0.5472  0.7474  0.0687
  398MOL0     H53714  11.437   9.456   7.707 -0.1567  0.7417 -1.1499
  398MOL0     H53715  11.282   9.632   7.654 -1.0828  0.4385  0.3477
  398MOL0     H53716  10.657   9.679   7.729  3.0952 -0.8755  0.2563
  398MOL0     H53717  10.512   9.889   7.688  0.1035  2.5685  0.8753
  398MOL0     H53718  10.649  10.196   7.461 -1.8923 -3.4656  0.6448
  398MOL0     H53719  10.682  10.276   7.619 -0.4478  1.9054 -1.8033
  398MOL0     H53720  10.511  10.403   7.482 -3.5050  0.3389 -0.0651
  398MOL0     H53721  10.437  10.338   7.628  0.9167 -0.4631  0.2660
  398MOL0     H53722  10.436  10.158   7.382 -1.5224 -0.8501 -0.8140
  398MOL0     H53723  10.332  10.304   7.380  1.0600 -1.0354 -1.0024
  398MOL0     H53724  10.309  10.126   7.625 -0.3617 -4.4975 -1.6364
  398MOL0     H53725  10.191  10.228   7.531 -1.0139 -0.2802  0.5393
  398MOL0     H53726  10.112   9.861   7.364 -0.8158  0.1443  1.3010
  398MOL0     H53727  10.859  10.098   7.570 -0.1855 -0.7150  0.1836
  398MOL0     H53728  11.099   9.834   7.614 -0.6670  1.9039  2.1950
  398MOL0     H53729  11.039   9.908   7.462 -1.5292  1.4721 -0.7025
  398MOL0     H53730  11.069  10.001   7.608  0.0220  0.1895 -2.6616
  399MOL0     O53731   3.958   9.481   4.585 -0.2598 -0.2446  0.4708
  399MOL0     C53732   3.980   9.518   4.703 -0.1704  0.5371  0.1442
  399MOL0     O53733   3.932   9.632   4.761  0.1294 -0.6402  0.0209
  399MOL0     C53734   3.852   9.734   4.702  0.3630 -0.1074  0.8190
  399MOL0     C53735   3.755   9.709   4.607 -0.1256  0.2341  0.2247
  399MOL0     C53736   3.688   9.811   4.543 -0.8192 -0.3559  0.0898
  399MOL0     C53737   3.722   9.941   4.575  0.1495  0.0844 -0.4942
  399MOL0     O53738   3.658  10.042   4.510 -0.1737 -0.3599  0.4333
  399MOL0     C53739   3.721  10.066   4.382 -0.0041  0.2456  0.4134
  399MOL0     C53740   3.680  10.207   4.341 -0.4590 -0.8412  0.0158
  399MOL0     C53741   3.748  10.303   4.433 -0.9303  0.0486 -0.6354
  399MOL0     C53742   3.716  10.440   4.396  0.6027 -0.8277 -0.5174
  399MOL0     C53743   3.758  10.541   4.504 -0.0206  0.2994  0.8121
  399MOL0     C53744   3.906  10.574   4.518  0.1227 -0.3009 -1.0269
  399MOL0     C53745   3.932  10.634   4.658 -0.9726 -0.7382  0.6832
  399MOL0     C53746   4.082  10.673   4.666 -0.1772 -0.5179 -0.3227
  399MOL0     N53747   4.169  10.556   4.673 -0.2456  0.1184 -1.3088
  399MOL0     C53748   4.260  10.512   4.572 -0.3267 -0.1234  0.0333
  399MOL0     C53749   4.298  10.388   4.612 -0.0536 -0.3685  0.2725
  399MOL0     C53750   4.364  10.295   4.517  0.3997  0.3013  0.3663
  399MOL0     C53751   4.251  10.235   4.429  0.2025  0.1852 -1.5055
  399MOL0     C53752   4.229  10.324   4.304 -0.6224  0.9750  0.1430
  399MOL0     C53753   4.113  10.281   4.210  0.6708 -0.1375 -0.4439
  399MOL0     O53754   4.030  10.388   4.167  0.3100 -0.2116 -0.7303
  399MOL0     C53755   4.055  10.454   4.044  0.3353 -0.1394 -0.5066
  399MOL0     C53756   4.178  10.471   3.977  0.0005 -0.0128 -0.2100
  399MOL0     C53757   4.186  10.535   3.856 -0.3858  0.4369 -0.2384
  399MOL0     C53758   4.078  10.581   3.783  0.4395 -0.6231 -0.0443
  399MOL0     C53759   4.083  10.644   3.654 -0.5782 -0.2975 -0.1403
  399MOL0     O53760   4.208  10.649   3.585  0.3646  0.8881 -0.3341
  399MOL0     C53761   4.226  10.727   3.478 -0.0543 -0.8975  0.2584
  399MOL0     C53762   4.313  10.839   3.479  1.3799 -0.3782  0.3163
  399MOL0     C53763   4.321  10.926   3.363 -0.4168  0.4276 -0.0773
  399MOL0     C53764   4.248  10.895   3.240  0.3141  0.7811 -0.7617
  399MOL0     O53765   4.239  10.963   3.121 -0.1482 -0.5644 -0.9209
  399MOL0     C53766   4.346  11.059   3.105 -0.6032  0.2924 -0.1201
  399MOL0     C53767   4.335  11.138   2.982 -0.7747 -0.2904 -0.7082
  399MOL0     C53768   4.327  11.051   2.857  0.6091  0.5351 -0.6651
  399MOL0     C53769   4.346  11.128   2.728 -0.3834  0.1235  0.2894
  399MOL0     C53770   4.499  11.168   2.703 -0.2689 -0.8763 -0.4490
  399MOL0     C53771   4.525  11.223   2.570  0.4559  0.0267  0.3311
  399MOL0     C53772   4.673  11.269   2.573  0.2550 -0.6198  0.0217
  399MOL0     C53773   4.709  11.357   2.458 -0.0255 -0.5062  0.4404
  399MOL0    Cl53774   4.889  11.395   2.477 -0.0058  0.1474  0.1993
  399MOL0     C53775   4.163  10.788   3.253 -0.2773 -0.2633  0.0796
  399MOL0     C53776   4.151  10.700   3.363  0.1419  0.0998 -0.0534
  399MOL0     O53777   3.978  10.685   3.602  0.4554  0.0093  0.4981
  399MOL0     C53778   3.953  10.574   3.848  0.2412  0.5305  0.4218
  399MOL0     C53779   3.944  10.514   3.983 -0.4609  0.2266 -0.0022
  399MOL0     N53780   4.242  10.367   4.729  0.3824  1.2255  0.2398
  399MOL0     N53781   4.174  10.461   4.782 -0.4115 -0.1188  0.0989
  399MOL0     C53782   3.814   9.969   4.675 -0.7447 -0.6270  0.3121
  399MOL0     C53783   3.887   9.868   4.739  0.0390  0.0610  0.0122
  399MOL0     C53784   4.047   9.430   4.798  1.4355  0.6084  0.2572
  399MOL0     C53785   4.023   9.444   4.937 -0.4593 -0.2278  0.5672
  399MOL0     C53786   4.073   9.356   5.020 -0.8066  0.7547  1.2194
  399MOL0     C53787   4.169   9.264   4.986  0.0276  0.0608 -0.3770
  399MOL0     O53788   4.242   9.181   5.076  0.5277 -0.2984 -0.0476
  399MOL0     C53789   4.252   9.244   5.211 -0.3822 -0.4795 -0.0491
  399MOL0     C53790   4.356   9.160   5.277  0.3244 -0.2097 -0.0190
  399MOL0     C53791   4.370   9.178   5.435 -0.6387  0.1032  0.9815
  399MOL0     C53792   4.433   9.315   5.475  0.4530  0.1180  0.7173
  399MOL0     C53793   4.328   9.416   5.480 -0.3290  0.0056 -0.6686
  399MOL0     C53794   4.230   9.495   5.495 -0.2553 -0.0553  0.6592
  399MOL0     C53795   4.199   9.256   4.849  0.2040  0.3066 -0.0751
  399MOL0     C53796   4.137   9.326   4.755  0.8613  0.1028 -0.4059
  399MOL0     C53797   4.166   9.287   4.607 -0.2339  0.2031 -0.6695
  399MOL0     H53798   3.722   9.608   4.586 -1.2279  0.7325 -0.5447
  399MOL0     H53799   3.612   9.800   4.466 -0.7966  0.2252 -0.0257
  399MOL0     H53800   3.829  10.058   4.373 -0.1880  0.0603 -3.9945
  399MOL0     H53801   3.684   9.998   4.304  0.3032  3.4634 -2.7840
  399MOL0     H53802   3.570  10.204   4.338 -0.5007 -2.4068  1.4699
  399MOL0     H53803   3.701  10.236   4.237 -2.3093  0.0594 -0.1659
  399MOL0     H53804   3.856  10.288   4.435 -0.6901  1.4451 -1.6200
  399MOL0     H53805   3.713  10.282   4.534 -0.7370 -2.6008 -1.0406
  399MOL0     H53806   3.772  10.474   4.308  1.0034  0.6581  0.2826
  399MOL0     H53807   3.609  10.446   4.373  0.4274  2.2016  0.6252
  399MOL0     H53808   3.701  10.633   4.486  1.0594  1.4174  2.7842
  399MOL0     H53809   3.731  10.505   4.604  1.5675  0.2507  1.2449
  399MOL0     H53810   3.970  10.486   4.514 -0.7062 -1.1774  2.2589
  399MOL0     H53811   3.942  10.645   4.443 -1.0326  3.3710  1.5574
  399MOL0     H53812   3.908  10.555   4.730  1.5439 -0.7486  1.6341
  399MOL0     H53813   3.875  10.724   4.680 -0.2893 -0.1043 -0.0523
  399MOL0     H53814   4.117  10.746   4.592  0.7864  0.6672  1.2382
  399MOL0     H53815   4.098  10.730   4.758 -2.7816 -1.0829  0.5539
  399MOL0     H53816   4.269  10.565   4.477 -0.1491  2.9120  1.6225
  399MOL0     H53817   4.436  10.345   4.451 -0.9232 -0.8082 -2.0776
  399MOL0     H53818   4.420  10.220   4.573  0.9287 -1.5512 -2.4222
  399MOL0     H53819   4.282  10.138   4.388 -1.3387 -1.0558  0.0796
  399MOL0     H53820   4.149  10.234   4.470  0.0495  1.6299 -1.8136
  399MOL0     H53821   4.316  10.334   4.238 -2.4576  0.4818 -2.5266
  399MOL0     H53822   4.205  10.430   4.320  5.2357  3.6627 -4.6008
  399MOL0     H53823   4.054  10.205   4.262 -0.8692  2.1391  1.3405
  399MOL0     H53824   4.161  10.233   4.124  3.3828  0.3417  0.7052
  399MOL0     H53825   4.266  10.415   4.008  0.4017 -1.3056 -3.2520
  399MOL0     H53826   4.287  10.545   3.817 -0.9243  1.6100 -1.4166
  399MOL0     H53827   4.359  10.858   3.575 -0.0974 -0.7956  1.1486
  399MOL0     H53828   4.389  11.010   3.377 -0.5065  0.0907  3.0171
  399MOL0     H53829   4.351  11.120   3.195 -2.0564 -1.8752  1.5494
  399MOL0     H53830   4.440  11.005   3.096 -0.7533 -0.0288  0.1832
  399MOL0     H53831   4.253  11.210   2.991 -0.8600 -0.3312 -1.1162
  399MOL0     H53832   4.430  11.190   2.973 -0.3906 -1.1792 -2.2764
  399MOL0     H53833   4.394  10.965   2.867 -1.1818 -1.0529 -1.6497
  399MOL0     H53834   4.228  11.005   2.856  1.6298 -2.0187  1.8965
  399MOL0     H53835   4.281  11.216   2.737  0.7401  1.2895 -1.9529
  399MOL0     H53836   4.316  11.059   2.648 -2.0257  1.1164 -0.0130
  399MOL0     H53837   4.546  11.069   2.710  0.7906 -0.5899 -2.6509
  399MOL0     H53838   4.522  11.239   2.783 -3.3135  0.3645 -0.5736
  399MOL0     H53839   4.504  11.159   2.484  2.9694  2.7311 -2.5288
  399MOL0     H53840   4.461  11.309   2.547 -0.6453 -1.4214 -2.4622
  399MOL0     H53841   4.733  11.179   2.589 -1.5367 -1.8463  0.2065
  399MOL0     H53842   4.684  11.341   2.655  0.3749 -0.9766  0.3243
  399MOL0     H53843   4.702  11.303   2.363 -0.9915  0.9803 -0.3497
  399MOL0     H53844   4.649  11.448   2.463 -1.5704 -1.5565  2.7007
  399MOL0     H53845   4.097  10.764   3.170  1.8702  1.3991 -2.2788
  399MOL0     H53846   4.082  10.616   3.368  0.6101 -0.2366  1.0687
  399MOL0     H53847   3.862  10.617   3.805 -2.0909 -1.6288  2.8093
  399MOL0     H53848   3.851  10.520   4.039 -0.4723  1.0210 -0.0946
  399MOL0     H53849   3.843  10.072   4.690 -2.1552 -0.1499 -0.0605
  399MOL0     H53850   3.957   9.880   4.821 -2.0230 -3.0745  2.5044
  399MOL0     H53851   3.969   9.528   4.980  1.0109  2.9762 -3.2266
  399MOL0     H53852   4.047   9.356   5.125 -1.0654 -2.0228  1.2343
  399MOL0     H53853   4.161   9.235   5.270  1.5365 -1.3939  2.9979
  399MOL0     H53854   4.287   9.348   5.209  1.3370 -1.0391 -0.9005
  399MOL0     H53855   4.456   9.180   5.236 -0.5807  1.1854 -1.7116
  399MOL0     H53856   4.324   9.056   5.271  3.3056 -1.1622 -1.3102
  399MOL0     H53857   4.436   9.102   5.478 -2.3401 -1.7731  0.4778
  399MOL0     H53858   4.284   9.155   5.498  0.0478  0.8575  2.2313
  399MOL0     H53859   4.469   9.309   5.578  0.7218  1.7065  0.7368
  399MOL0     H53860   4.522   9.340   5.417 -0.6163  1.1977 -0.5620
  399MOL0     H53861   4.144   9.554   5.519 -0.3466  0.3264 -0.5520
  399MOL0     H53862   4.270   9.176   4.830  0.0344  0.6874 -2.7497
  399MOL0     H53863   4.070   9.249   4.570 -1.2872  2.3014 -0.2458
  399MOL0     H53864   4.196   9.371   4.544 -0.4205  2.7018  2.3407
  399MOL0     H53865   4.240   9.207   4.611  1.8304  2.0421 -0.4721
  400MOL0     O53866   2.240   6.903  10.680  0.4862 -0.1943 -0.6001
  400MOL0     C53867   2.308   7.004  10.695  0.2905  0.1157 -0.0247
  400MOL0     O53868   2.427   7.024  10.637 -0.1422  0.1791 -0.0258
  400MOL0     C53869   2.514   6.932  10.601  0.0110  0.0691 -0.2989
  400MOL0     C53870   2.625   6.958  10.519 -0.1475 -0.2734 -1.0131
  400MOL0     C53871   2.714   6.858  10.476  0.5754  1.1478 -0.5564
  400MOL0     C53872   2.686   6.719  10.512  0.9215 -0.4127  0.2002
  400MOL0     O53873   2.759   6.619  10.453 -0.5955 -0.5187 -0.6027
  400MOL0     C53874   2.694   6.532  10.364  0.4738  0.3797  0.5876
  400MOL0     C53875   2.788   6.513  10.244  0.0502 -0.1394 -0.2356
  400MOL0     C53876   2.903   6.423  10.274 -0.1980  0.3559  0.0495
  400MOL0     C53877   2.985   6.394  10.146  0.3050 -0.8522 -0.0487
  400MOL0     C53878   3.057   6.520  10.101  0.1659  0.2931  0.5115
  400MOL0     C53879   3.134   6.495   9.967 -1.0146  0.3085 -0.2871
  400MOL0     C53880   3.191   6.619   9.916 -0.0364 -0.1191  0.0485
  400MOL0     C53881   3.320   6.684   9.983 -0.5026  0.1091  0.3097
  400MOL0     N53882   3.441   6.621   9.923  0.8774  0.3440  0.2577
  400MOL0     C53883   3.492   6.655   9.798 -0.3180  0.3000  0.2904
  400MOL0     C53884   3.594   6.573   9.777  0.7608  0.0912  0.6756
  400MOL0     C53885   3.686   6.574   9.656  0.3389 -0.5747 -0.4546
  400MOL0     C53886   3.818   6.506   9.692  0.2621 -0.5209  0.7947
  400MOL0     C53887   3.895   6.573   9.807  0.1764 -0.5008 -0.6954
  400MOL0     C53888   4.019   6.506   9.857 -0.2636  0.2209 -0.0628
  400MOL0     O53889   4.096   6.450   9.750 -0.1175 -0.2035 -0.5693
  400MOL0     C53890   4.198   6.516   9.690  0.3488  1.0992  0.6246
  400MOL0     C53891   4.223   6.648   9.699  0.3422  0.0351  0.7038
  400MOL0     C53892   4.320   6.711   9.619 -0.5359 -0.1351  0.0928
  400MOL0     C53893   4.395   6.634   9.529  0.3526  0.0082  0.6038
  400MOL0     C53894   4.503   6.699   9.459  0.3039 -1.1767  0.1447
  400MOL0     O53895   4.562   6.636   9.349  0.3398 -0.2741  0.3088
  400MOL0     C53896   4.665   6.693   9.287  0.6091  0.5230  0.1234
  400MOL0     C53897   4.793   6.658   9.316 -0.1126 -0.1576  0.2819
  400MOL0     C53898   4.895   6.702   9.233  0.0485 -0.1307 -0.4951
  400MOL0     C53899   4.879   6.781   9.125 -0.3834 -0.5810 -0.7341
  400MOL0     O53900   4.975   6.814   9.033  0.1162 -0.2674 -0.2246
  400MOL0     C53901   4.995   6.959   9.036  0.6672 -0.2999  0.3846
  400MOL0     C53902   5.140   6.995   9.005 -0.1761 -0.3339 -0.7815
  400MOL0     C53903   5.191   6.937   8.877  0.0140  0.2233  0.4607
  400MOL0     C53904   5.331   6.988   8.844  0.2020  0.6666  0.3687
  400MOL0     C53905   5.359   6.973   8.696 -0.5165  0.4663 -0.3370
  400MOL0     C53906   5.503   7.012   8.660  0.6525  0.4427  0.2692
  400MOL0     C53907   5.615   6.920   8.702  0.1700 -0.6734 -0.5413
  400MOL0     C53908   5.617   6.778   8.644  0.6856  0.3892 -0.0103
  400MOL0    Cl53909   5.728   6.690   8.748  0.0721 -0.2777 -0.2030
  400MOL0     C53910   4.746   6.823   9.100 -0.9801  0.1630  0.0259
  400MOL0     C53911   4.637   6.781   9.182  0.1496  0.0488 -0.2044
  400MOL0     O53912   4.553   6.803   9.505  0.0851 -0.0084  0.0678
  400MOL0     C53913   4.374   6.498   9.515  0.0053 -0.6423 -0.5417
  400MOL0     C53914   4.269   6.442   9.587 -0.1760 -0.0469  0.0902
  400MOL0     N53915   3.603   6.496   9.900  0.6766  0.4515  0.0860
  400MOL0     N53916   3.530   6.543   9.993 -0.1974  0.3110 -0.5850
  400MOL0     C53917   2.573   6.691  10.589  0.0449  0.8397 -0.4880
  400MOL0     C53918   2.502   6.796  10.642  0.4862  0.9116 -0.2639
  400MOL0     C53919   2.254   7.116  10.782  0.7240 -0.2582  0.7462
  400MOL0     C53920   2.341   7.218  10.817 -0.7255  0.1909 -0.2406
  400MOL0     C53921   2.304   7.322  10.899  0.5001  0.6772  0.5577
  400MOL0     C53922   2.175   7.336  10.950  0.6636 -0.7823  0.3993
  400MOL0     O53923   2.125   7.448  11.020 -0.3195 -0.0390  0.1060
  400MOL0     C53924   2.028   7.433  11.125  0.0506 -0.1685 -0.8828
  400MOL0     C53925   1.950   7.559  11.122  1.0743 -0.8128  0.3639
  400MOL0     C53926   1.884   7.576  10.989  0.9543  0.3707  0.4873
  400MOL0     C53927   1.802   7.706  10.993  0.0598  0.5647 -0.0678
  400MOL0     C53928   1.707   7.698  10.890 -0.2569 -0.1072  0.7731
  400MOL0     C53929   1.625   7.686  10.804  1.0720 -0.9032 -0.4567
  400MOL0     C53930   2.081   7.231  10.912 -0.1914  0.2525  0.2136
  400MOL0     C53931   2.119   7.119  10.836  0.1768 -0.3021  0.1218
  400MOL0     C53932   2.006   7.009  10.811 -0.2618  0.1609 -0.9422
  400MOL0     H53933   2.634   7.060  10.483  1.1684 -0.2563 -0.6838
  400MOL0     H53934   2.797   6.870  10.408  1.4942 -1.4443 -0.0176
  400MOL0     H53935   2.676   6.433  10.407 -0.8188 -0.4687 -1.7491
  400MOL0     H53936   2.599   6.572  10.326  0.3064  0.6222  1.2399
  400MOL0     H53937   2.836   6.610  10.230  1.1877 -0.3478  1.8075
  400MOL0     H53938   2.730   6.494  10.153  3.1442  1.5774 -2.7363
  400MOL0     H53939   2.876   6.323  10.308 -2.2591  0.9556  0.2819
  400MOL0     H53940   2.968   6.459  10.353 -0.7282  0.1965  0.5617
  400MOL0     H53941   3.059   6.315  10.162  0.8349 -0.0043  2.0406
  400MOL0     H53942   2.910   6.356  10.077 -0.3531 -2.1704  1.3102
  400MOL0     H53943   2.986   6.601  10.081 -0.4896 -0.4859 -0.3956
  400MOL0     H53944   3.129   6.545  10.180 -1.3987  1.0995  1.7424
  400MOL0     H53945   3.216   6.424   9.980 -1.6123 -0.3835 -0.2667
  400MOL0     H53946   3.060   6.461   9.894 -1.9480 -0.7622  1.1226
  400MOL0     H53947   3.111   6.692   9.929  0.4171  0.0676  2.3147
  400MOL0     H53948   3.212   6.613   9.809  0.8948 -0.2373  0.2266
  400MOL0     H53949   3.332   6.792   9.977 -0.1897  0.0548 -0.0877
  400MOL0     H53950   3.310   6.666  10.091  2.1123 -5.0399  0.0299
  400MOL0     H53951   3.445   6.736   9.743  1.6984  2.9083  2.1565
  400MOL0     H53952   3.627   6.530   9.575 -1.2834 -0.0941  0.4241
  400MOL0     H53953   3.705   6.679   9.634  0.9752 -0.8862 -1.5083
  400MOL0     H53954   3.795   6.400   9.706 -0.5679 -0.4209  0.2376
  400MOL0     H53955   3.878   6.505   9.601  1.7602 -2.7790  1.6919
  400MOL0     H53956   3.830   6.602   9.889  0.5556  1.2302 -0.9679
  400MOL0     H53957   3.938   6.668   9.773  1.3858 -1.5768 -2.3149
  400MOL0     H53958   3.972   6.421   9.908 -2.9510  0.1858 -2.3217
  400MOL0     H53959   4.081   6.551   9.934 -0.3720 -0.0368  0.1778
  400MOL0     H53960   4.154   6.711   9.754 -0.9995  1.7237 -2.6708
  400MOL0     H53961   4.345   6.806   9.666 -0.3594 -1.8896  3.9386
  400MOL0     H53962   4.831   6.571   9.369 -0.5209  0.3435  1.4207
  400MOL0     H53963   4.997   6.675   9.260  0.8045  0.7943 -2.2732
  400MOL0     H53964   4.931   7.017   8.969  1.9920  3.3763  2.0602
  400MOL0     H53965   4.975   7.010   9.131  1.0409 -0.1874  0.4047
  400MOL0     H53966   5.152   7.103   9.019  0.5508 -0.5716  0.6348
  400MOL0     H53967   5.185   6.948   9.093 -2.6363  2.3268  2.1274
  400MOL0     H53968   5.203   6.829   8.891  2.3204  0.2640 -0.6969
  400MOL0     H53969   5.115   6.962   8.802 -0.3067 -0.7484  0.4466
  400MOL0     H53970   5.403   6.927   8.900  0.4942 -1.8304 -2.5126
  400MOL0     H53971   5.335   7.092   8.878  0.9245  0.5893  0.5468
  400MOL0     H53972   5.299   7.042   8.636  0.0365  0.6985 -0.6290
  400MOL0     H53973   5.342   6.868   8.669  0.1422  0.3804 -0.4214
  400MOL0     H53974   5.507   7.022   8.551 -2.4381 -0.5660 -0.0538
  400MOL0     H53975   5.524   7.104   8.715 -0.5767  1.4822 -0.9117
  400MOL0     H53976   5.619   6.922   8.812 -4.3193  0.6950 -0.1781
  400MOL0     H53977   5.708   6.971   8.675  0.3200 -0.3683  0.5078
  400MOL0     H53978   5.515   6.736   8.639  1.4568 -1.5872 -0.1223
  400MOL0     H53979   5.664   6.786   8.545  3.6486 -1.2447  1.1414
  400MOL0     H53980   4.732   6.878   9.007  3.5046  1.7054  0.0310
  400MOL0     H53981   4.533   6.808   9.166 -0.4761 -2.7706 -1.5402
  400MOL0     H53982   4.419   6.438   9.436  1.2172  0.5232 -0.7707
  400MOL0     H53983   4.249   6.339   9.561 -2.8141  0.1214  1.2065
  400MOL0     H53984   2.556   6.584  10.600 -0.6886  1.1159  1.4600
  400MOL0     H53985   2.423   6.771  10.712 -0.3818  3.0392 -0.4225
  400MOL0     H53986   2.441   7.223  10.775 -0.1927  2.2439  1.1151
  400MOL0     H53987   2.359   7.410  10.930  2.2566  0.4988 -1.7716
  400MOL0     H53988   2.084   7.415  11.217  0.5836  0.6334 -1.0427
  400MOL0     H53989   1.964   7.345  11.112  2.0973 -1.7811 -0.5012
  400MOL0     H53990   2.021   7.638  11.147  2.6608 -1.8600 -0.5784
  400MOL0     H53991   1.875   7.556  11.201  1.4288  0.3912  0.7562
  400MOL0     H53992   1.822   7.494  10.950  1.9690  0.6174 -1.8281
  400MOL0     H53993   1.965   7.596  10.919  1.4647  2.6194  1.6278
  400MOL0     H53994   1.757   7.723  11.091  1.0607  0.7690  0.3671
  400MOL0     H53995   1.870   7.790  10.983  0.4044  0.7928  3.0978
  400MOL0     H53996   1.544   7.667  10.736 -0.9625 -0.9405  1.8674
  400MOL0     H53997   1.975   7.238  10.934 -0.1906  0.3104  0.1990
  400MOL0     H53998   2.034   6.911  10.848 -0.8593 -0.8956 -3.0887
  400MOL0     H53999   1.908   7.048  10.840  0.1122  1.9611 -1.9280
  400MOL0     H54000   1.991   6.988  10.704 -1.7461 -3.3384 -0.1670
  401MOL0     O54001   1.034   9.456   6.367 -0.0050  0.8513 -0.3587
  401MOL0     C54002   0.914   9.435   6.385  0.8228 -0.6242 -0.6214
  401MOL0     O54003   0.825   9.510   6.320  0.3258  0.1512 -0.0068
  401MOL0     C54004   0.883   9.595   6.234  0.6440 -0.2719  0.2418
  401MOL0     C54005   0.854   9.725   6.265 -0.5807  0.2529  0.5177
  401MOL0     C54006   0.889   9.830   6.178 -0.0647 -0.9569  0.3055
  401MOL0     C54007   0.962   9.803   6.062 -0.4232 -0.3997  0.3320
  401MOL0     O54008   1.003   9.892   5.966 -0.5898  0.3111 -0.9100
  401MOL0     C54009   1.030  10.026   6.008 -0.5323 -0.5497  0.3759
  401MOL0     C54010   1.097  10.108   5.893 -0.4532 -0.8259  0.5382
  401MOL0     C54011   0.986  10.140   5.780 -1.0569  0.5445  0.5953
  401MOL0     C54012   0.882  10.258   5.813 -0.0305  0.2907 -0.1282
  401MOL0     C54013   0.776  10.292   5.696 -0.0986 -0.2471  0.3838
  401MOL0     C54014   0.683  10.175   5.648  0.2020 -0.3213 -1.1583
  401MOL0     C54015   0.560  10.222   5.579 -1.0511 -0.5140  0.1520
  401MOL0     C54016   0.479  10.108   5.517  0.6160 -0.2038  0.3375
  401MOL0     N54017   0.417  10.131   5.384  0.8044 -0.5492  0.8719
  401MOL0     C54018   0.459  10.095   5.253 -0.1147 -0.0549  0.8765
  401MOL0     C54019   0.369  10.150   5.169  0.1173  0.3278  0.9388
  401MOL0     C54020   0.341  10.127   5.019 -0.1988  0.0751  0.3087
  401MOL0     C54021   0.297   9.986   4.990 -0.7004  0.3971 -0.4489
  401MOL0     C54022   0.197   9.922   5.086 -0.4517 -0.4739  0.0259
  401MOL0     C54023   0.052   9.977   5.072  0.5023  0.4806  0.2889
  401MOL0     O54024  -0.023   9.916   4.966 -0.5167 -0.1311  0.5552
  401MOL0     C54025  -0.145   9.983   4.928 -0.0389  1.7247  0.1770
  401MOL0     C54026  -0.220   9.914   4.841 -0.1830 -1.1073  0.8067
  401MOL0     C54027  -0.342   9.967   4.797  1.1476 -0.2414  0.1576
  401MOL0     C54028  -0.385  10.091   4.836 -0.5208 -0.1852 -0.6346
  401MOL0     C54029  -0.516  10.138   4.785  0.8581 -0.3284 -1.1637
  401MOL0     O54030  -0.564  10.081   4.670  0.5180  0.6151 -0.1586
  401MOL0     C54031  -0.696  10.092   4.628 -0.4676 -0.6885 -0.1494
  401MOL0     C54032  -0.732  10.188   4.532 -0.0223  0.3588 -0.2747
  401MOL0     C54033  -0.857  10.173   4.473 -0.3206  0.3274  0.1149
  401MOL0     C54034  -0.948  10.072   4.510 -0.4772 -0.2069  0.5260
  401MOL0     O54035  -1.063  10.065   4.441 -0.5390 -0.5240 -0.4295
  401MOL0     C54036  -1.174   9.986   4.486  0.3962  0.0173  0.3887
  401MOL0     C54037  -1.293  10.060   4.438  0.1642  0.2126  0.5498
  401MOL0     C54038  -1.334  10.181   4.527 -0.0141  1.2488 -0.1242
  401MOL0     C54039  -1.434  10.261   4.449 -0.1887  0.4913  1.3869
  401MOL0     C54040  -1.516  10.354   4.536  0.0938  0.3294  0.8829
  401MOL0     C54041  -1.632  10.419   4.461 -0.0496 -0.0721 -0.3471
  401MOL0     C54042  -1.612  10.470   4.316 -0.0591 -0.2282 -0.5223
  401MOL0     C54043  -1.530  10.601   4.305 -1.1239 -0.6415 -0.4112
  401MOL0    Cl54044  -1.510  10.642   4.136  0.7044  0.1052 -0.3336
  401MOL0     C54045  -0.915   9.988   4.616 -0.1688  0.3654  0.1287
  401MOL0     C54046  -0.790   9.998   4.671  0.3348 -0.3683  0.8053
  401MOL0     O54047  -0.567  10.231   4.840  0.2510 -0.6259 -1.2572
  401MOL0     C54048  -0.311  10.165   4.924 -0.3389 -0.6836  0.0503
  401MOL0     C54049  -0.195  10.102   4.972  0.0168  0.2689  0.0022
  401MOL0     N54050   0.270  10.215   5.248  1.1449 -0.3046 -0.1423
  401MOL0     N54051   0.295  10.195   5.370  0.4468 -0.1853  0.4922
  401MOL0     C54052   1.003   9.675   6.039 -1.1183  0.6580 -0.0193
  401MOL0     C54053   0.971   9.570   6.123  0.8950  0.3379 -0.3645
  401MOL0     C54054   0.873   9.318   6.458 -0.1684 -0.5085 -1.0111
  401MOL0     C54055   0.765   9.317   6.538  0.7439  0.4283  0.8380
  401MOL0     C54056   0.721   9.210   6.612  0.5708  0.8951  0.7128
  401MOL0     C54057   0.787   9.091   6.603  0.2039 -1.6586  0.2565
  401MOL0     O54058   0.777   8.987   6.691  1.1164 -0.5666 -0.2165
  401MOL0     C54059   0.655   8.915   6.727  1.0296 -0.8577 -0.2481
  401MOL0     C54060   0.563   8.879   6.603  0.6568 -0.3826 -0.3992
  401MOL0     C54061   0.636   8.830   6.479  0.4202 -1.3518 -0.2991
  401MOL0     C54062   0.712   8.704   6.503  0.0447  0.1478 -0.1805
  401MOL0     C54063   0.623   8.599   6.544 -0.1391 -0.1552 -0.1829
  401MOL0     C54064   0.550   8.514   6.581  0.4594 -0.3630 -0.5711
  401MOL0     C54065   0.907   9.098   6.534 -0.4420  0.2727 -1.0263
  401MOL0     C54066   0.956   9.204   6.462  0.7113  0.0192 -0.1315
  401MOL0     C54067   1.093   9.175   6.404 -0.0555 -0.1353 -0.0306
  401MOL0     H54068   0.793   9.744   6.353  1.5970 -1.6021  2.5671
  401MOL0     H54069   0.849   9.930   6.195 -0.3001 -1.0278  0.1772
  401MOL0     H54070   0.938  10.081   6.030 -0.9823 -0.2873 -1.9424
  401MOL0     H54071   1.100  10.027   6.092  0.5918 -0.6960 -0.5322
  401MOL0     H54072   1.178  10.055   5.843  1.4473  3.1438 -1.0119
  401MOL0     H54073   1.138  10.194   5.947  1.8643 -3.1990  2.8523
  401MOL0     H54074   0.925  10.055   5.750  0.6905 -0.7184  0.4525
  401MOL0     H54075   1.054  10.161   5.697  1.4576 -1.3492  2.0357
  401MOL0     H54076   0.826  10.230   5.903 -1.8183 -0.1966 -1.3314
  401MOL0     H54077   0.938  10.350   5.833  0.0443  0.3502 -0.5937
  401MOL0     H54078   0.713  10.379   5.716  0.5934  0.3514  0.0124
  401MOL0     H54079   0.836  10.316   5.607 -1.3319 -2.8383 -1.2711
  401MOL0     H54080   0.739  10.107   5.583  1.3296 -0.3802 -0.1577
  401MOL0     H54081   0.651  10.118   5.736 -0.7202  0.3396 -1.0451
  401MOL0     H54082   0.589  10.284   5.494  1.6128 -1.2265  0.4741
  401MOL0     H54083   0.502  10.288   5.644  1.2731  0.6739  1.1276
  401MOL0     H54084   0.550  10.025   5.509  1.7122  0.9001 -3.1997
  401MOL0     H54085   0.407  10.074   5.592 -0.4694 -1.4380 -1.1949
  401MOL0     H54086   0.537  10.028   5.218 -0.8896 -0.8952  0.7400
  401MOL0     H54087   0.264  10.203   5.006 -0.0352  0.7222  2.6173
  401MOL0     H54088   0.437  10.153   4.973  0.6838 -1.3510  1.2426
  401MOL0     H54089   0.257   9.979   4.889 -0.7302  1.3617 -0.5126
  401MOL0     H54090   0.393   9.933   4.994 -0.1774  1.4006  1.0589
  401MOL0     H54091   0.218   9.917   5.193 -1.6655 -0.3064  0.2897
  401MOL0     H54092   0.207   9.817   5.058 -1.6032  0.0070 -2.4442
  401MOL0     H54093   0.061  10.083   5.047  0.1114  0.1992 -1.1447
  401MOL0     H54094  -0.002   9.968   5.166  2.4221  0.2944  1.4293
  401MOL0     H54095  -0.191   9.813   4.814  3.1392 -1.0578  3.4424
  401MOL0     H54096  -0.399   9.896   4.738  2.7199 -0.0047 -1.7194
  401MOL0     H54097  -0.671  10.270   4.495 -0.2384  0.6346 -0.0306
  401MOL0     H54098  -0.904  10.243   4.403  0.4774  1.5711  0.7949
  401MOL0     H54099  -1.162   9.888   4.437  2.3781  1.4688 -2.2865
  401MOL0     H54100  -1.188   9.982   4.594  0.1180 -0.7065  0.3297
  401MOL0     H54101  -1.274  10.083   4.333  2.5513  1.9378  1.2662
  401MOL0     H54102  -1.387  10.005   4.425  0.9279 -0.6541 -1.9602
  401MOL0     H54103  -1.383  10.134   4.612 -0.4143  0.4286 -0.7941
  401MOL0     H54104  -1.244  10.235   4.558  1.3659 -0.9626 -0.0831
  401MOL0     H54105  -1.508  10.194   4.406  0.1122  0.4384  0.9477
  401MOL0     H54106  -1.389  10.316   4.365 -1.8950  0.5699  0.4920
  401MOL0     H54107  -1.442  10.424   4.578 -0.7074 -0.1411  3.2143
  401MOL0     H54108  -1.556  10.295   4.619 -1.0769 -3.2452 -1.9970
  401MOL0     H54109  -1.710  10.342   4.459 -0.0437 -0.0862 -0.0786
  401MOL0     H54110  -1.665  10.508   4.515  1.6385  0.7477 -0.6114
  401MOL0     H54111  -1.712  10.487   4.273  0.3452  1.8558 -0.7123
  401MOL0     H54112  -1.571  10.387   4.257  0.0180 -2.2348  2.1701
  401MOL0     H54113  -1.575  10.688   4.353  3.0378  2.4507 -1.5296
  401MOL0     H54114  -1.436  10.574   4.354 -2.4718 -0.4538  2.4727
  401MOL0     H54115  -0.991   9.913   4.637 -0.8587  1.0709  0.1704
  401MOL0     H54116  -0.776   9.925   4.750 -0.9036 -0.4802  0.9454
  401MOL0     H54117  -0.348  10.258   4.965  0.4876  0.6119 -2.0179
  401MOL0     H54118  -0.150  10.152   5.057 -1.1110  1.5661 -0.1278
  401MOL0     H54119   1.072   9.660   5.956 -2.0701  1.3482 -0.9569
  401MOL0     H54120   1.003   9.468   6.102  4.1933  0.3106  3.6082
  401MOL0     H54121   0.703   9.405   6.548 -0.1853 -0.2465  1.0951
  401MOL0     H54122   0.636   9.217   6.678  0.7934  1.2129  0.9723
  401MOL0     H54123   0.602   8.989   6.786 -0.5553 -3.6746  2.1171
  401MOL0     H54124   0.670   8.827   6.790  1.6055 -0.4090  0.2499
  401MOL0     H54125   0.516   8.974   6.576 -1.5011 -0.9976  0.9490
  401MOL0     H54126   0.487   8.804   6.628 -2.6838  2.5882 -0.9442
  401MOL0     H54127   0.705   8.909   6.449 -1.0779  0.4008  0.7270
  401MOL0     H54128   0.560   8.812   6.403  0.4619  0.5978 -0.8501
  401MOL0     H54129   0.752   8.677   6.404 -1.8132 -3.5128 -0.1059
  401MOL0     H54130   0.787   8.717   6.582 -0.9297  0.6398  0.6724
  401MOL0     H54131   0.484   8.431   6.597  0.3929 -0.1412  0.3563
  401MOL0     H54132   0.980   9.020   6.554 -2.1804 -0.9026  1.2660
  401MOL0     H54133   1.110   9.073   6.370  2.0122  1.1045 -3.1838
  401MOL0     H54134   1.113   9.232   6.313  0.9258 -0.3237  0.0502
  401MOL0     H54135   1.169   9.196   6.480  0.8890  0.0665 -0.9971
  402MOL0     O54136   9.062   6.375   9.254  0.0029 -0.0044 -0.0930
  402MOL0     C54137   8.990   6.370   9.353 -0.3152  0.1298  0.1463
  402MOL0     O54138   8.964   6.475   9.432 -0.2601  0.9263  0.0964
  402MOL0     C54139   9.032   6.586   9.403  0.5266 -0.6604  0.0607
  402MOL0     C54140   9.141   6.639   9.486 -0.0994  0.6817  0.3489
  402MOL0     C54141   9.215   6.756   9.444 -0.2331 -0.6634  0.1904
  402MOL0     C54142   9.184   6.823   9.325 -0.9570  0.1179  0.6816
  402MOL0     O54143   9.261   6.929   9.271  0.1389  0.1158 -0.0452
  402MOL0     C54144   9.378   6.970   9.333 -0.5523 -0.6224 -0.3713
  402MOL0     C54145   9.438   7.107   9.297  0.1890  0.5020  0.8289
  402MOL0     C54146   9.504   7.082   9.158 -0.3899  0.3478  0.4423
  402MOL0     C54147   9.574   7.204   9.109  0.0370  0.4516  0.1593
  402MOL0     C54148   9.635   7.191   8.967  0.5351 -0.0946  0.7543
  402MOL0     C54149   9.691   7.317   8.911 -0.9766  0.2653 -0.9213
  402MOL0     C54150   9.845   7.322   8.957  0.2055  0.0375 -1.4444
  402MOL0     C54151   9.921   7.417   8.859 -0.5993  0.0862  0.0034
  402MOL0     N54152   9.915   7.558   8.886  0.5321  0.0733 -0.0743
  402MOL0     C54153  10.020   7.645   8.905 -0.3204  1.9975 -0.4177
  402MOL0     C54154   9.970   7.765   8.908 -1.1649 -0.3925  0.8434
  402MOL0     C54155  10.052   7.886   8.940  0.2190  0.2271  0.1950
  402MOL0     C54156   9.966   7.975   9.037  0.2748 -0.5853 -0.1139
  402MOL0     C54157   9.932   7.906   9.168  0.4477  0.1491 -0.4849
  402MOL0     C54158   9.866   8.008   9.260  0.0456  0.0102  0.0462
  402MOL0     O54159   9.731   8.013   9.209  0.8082 -0.9853 -0.4152
  402MOL0     C54160   9.635   8.062   9.300 -0.2891 -0.2471  0.4178
  402MOL0     C54161   9.507   8.017   9.296  0.1289 -0.9725 -0.4443
  402MOL0     C54162   9.399   8.060   9.374 -0.1858 -0.0059 -0.0741
  402MOL0     C54163   9.427   8.166   9.460 -0.2719  0.3986  0.0408
  402MOL0     C54164   9.316   8.227   9.543 -0.2873 -0.1492  0.6257
  402MOL0     O54165   9.355   8.338   9.625  0.0057 -0.0275  0.0302
  402MOL0     C54166   9.249   8.393   9.696 -0.4294 -0.1690  0.0353
  402MOL0     C54167   9.172   8.496   9.647  0.6292  0.6545 -0.0305
  402MOL0     C54168   9.065   8.543   9.717 -0.4061  0.6458  0.2111
  402MOL0     C54169   9.040   8.482   9.842  0.5067 -0.3981  0.5576
  402MOL0     O54170   8.934   8.514   9.914 -0.6183 -0.2040  0.3862
  402MOL0     C54171   8.873   8.647   9.899  0.0866  0.2676  0.1059
  402MOL0     C54172   8.727   8.646   9.949 -0.2099  0.0730  0.0247
  402MOL0     C54173   8.665   8.780   9.942 -0.1366 -0.1772  0.6147
  402MOL0     C54174   8.512   8.769   9.899 -0.3202 -0.6257  0.2170
  402MOL0     C54175   8.412   8.719   9.998  0.0449 -0.1020  0.3712
  402MOL0     C54176   8.380   8.811  10.116 -0.2563  0.4276  1.0531
  402MOL0     C54177   8.280   8.741  10.212 -0.9229 -0.1870  0.3809
  402MOL0     C54178   8.227   8.832  10.316  0.2481 -0.1055 -0.3258
  402MOL0    Cl54179   8.354   8.853  10.442  0.0624  0.0000  0.5415
  402MOL0     C54180   9.107   8.368   9.885  0.3087 -0.1808 -0.2668
  402MOL0     C54181   9.220   8.328   9.813  1.1637  0.2841  0.6200
  402MOL0     O54182   9.207   8.175   9.535 -0.2585 -0.0947 -0.0561
  402MOL0     C54183   9.558   8.223   9.464  1.0180  0.5257  0.0424
  402MOL0     C54184   9.661   8.166   9.392  0.1252  0.0835 -1.0437
  402MOL0     N54185   9.835   7.751   8.876  0.2422  0.6459 -0.5042
  402MOL0     N54186   9.799   7.626   8.878 -0.4040 -0.7701  0.2884
  402MOL0     C54187   9.072   6.775   9.250 -0.5556 -1.3228 -0.2489
  402MOL0     C54188   8.992   6.669   9.294 -0.2044  0.6116  0.8993
  402MOL0     C54189   8.927   6.245   9.396 -0.0053  1.0759 -0.2892
  402MOL0     C54190   8.868   6.230   9.521  0.5401  0.1133  0.5751
  402MOL0     C54191   8.811   6.109   9.565  0.1229  0.0283 -0.7524
  402MOL0     C54192   8.796   6.003   9.473 -0.0492  0.5741  0.3199
  402MOL0     O54193   8.750   5.884   9.523  0.0732  0.2860  0.1040
  402MOL0     C54194   8.789   5.762   9.460 -0.8564 -0.2030  0.2227
  402MOL0     C54195   8.778   5.649   9.564  0.5131 -0.3537  0.2728
  402MOL0     C54196   8.881   5.539   9.544 -0.1164 -0.7515 -0.0139
  402MOL0     C54197   8.887   5.442   9.664 -1.1977  0.4641 -0.1495
  402MOL0     C54198   9.015   5.370   9.654 -0.1891 -0.5057  0.1679
  402MOL0     C54199   9.118   5.312   9.637  0.0620  0.0180 -0.1808
  402MOL0     C54200   8.836   6.020   9.335 -0.2266 -0.5107  0.8079
  402MOL0     C54201   8.904   6.138   9.297 -0.1859  1.3990 -0.0323
  402MOL0     C54202   8.953   6.128   9.150 -0.4911 -0.3068  0.1901
  402MOL0     H54203   9.178   6.594   9.578 -4.8450  1.3162  2.8945
  402MOL0     H54204   9.299   6.784   9.506 -2.2060 -0.1155  2.7770
  402MOL0     H54205   9.360   6.980   9.441 -2.2409 -0.2124 -0.6662
  402MOL0     H54206   9.458   6.899   9.315  1.5235  1.2989  0.7378
  402MOL0     H54207   9.510   7.130   9.375  1.5307 -0.9393  0.0817
  402MOL0     H54208   9.364   7.187   9.289  0.2662  0.4648 -0.7536
  402MOL0     H54209   9.424   7.052   9.091  2.0265 -0.8389 -2.1079
  402MOL0     H54210   9.577   7.000   9.154  0.6353  1.2323  0.4926
  402MOL0     H54211   9.496   7.280   9.115  0.1574  0.5238  0.8447
  402MOL0     H54212   9.652   7.225   9.182 -2.7930  0.6206  3.3778
  402MOL0     H54213   9.708   7.109   8.955  0.1237 -0.0589 -2.9648
  402MOL0     H54214   9.548   7.169   8.905  1.4677  0.6327 -0.8808
  402MOL0     H54215   9.694   7.311   8.801 -0.9973 -0.0404 -0.9056
  402MOL0     H54216   9.654   7.417   8.936  1.6282  1.2217 -0.5820
  402MOL0     H54217   9.898   7.228   8.940  2.0767  1.0047 -1.1771
  402MOL0     H54218   9.854   7.360   9.059  0.6713 -1.3375 -0.9530
  402MOL0     H54219  10.027   7.389   8.865 -0.5672 -0.2689 -1.7485
  402MOL0     H54220   9.889   7.407   8.755  0.8082  1.6372 -0.6082
  402MOL0     H54221  10.121   7.617   8.932 -1.3673  0.0926  1.8934
  402MOL0     H54222  10.155   7.882   8.978  0.0911  1.7069  0.7718
  402MOL0     H54223  10.060   7.933   8.842 -0.3850  0.0784  0.0727
  402MOL0     H54224  10.010   8.074   9.051  1.0641 -0.8690 -0.4915
  402MOL0     H54225   9.872   7.988   8.983  0.7170 -3.2481 -1.6921
  402MOL0     H54226  10.028   7.869   9.206  1.2925  4.1062  1.7524
  402MOL0     H54227   9.862   7.822   9.158  1.8563 -1.2878  1.2296
  402MOL0     H54228   9.921   8.103   9.261  0.6468 -0.3374  1.1033
  402MOL0     H54229   9.854   7.962   9.359 -0.2699  1.1368  0.5541
  402MOL0     H54230   9.494   7.953   9.209 -0.9942  1.4023 -2.1389
  402MOL0     H54231   9.300   8.015   9.372 -0.4999 -0.0153  4.3294
  402MOL0     H54232   9.196   8.538   9.550  1.6157 -2.1980 -1.1475
  402MOL0     H54233   9.009   8.626   9.676 -2.6495 -0.2119  1.3518
  402MOL0     H54234   8.927   8.708   9.973 -0.1115  0.6184 -0.0399
  402MOL0     H54235   8.877   8.700   9.804  2.7568 -1.0239 -0.6130
  402MOL0     H54236   8.666   8.572   9.896 -0.6473  0.7464 -0.4287
  402MOL0     H54237   8.720   8.607  10.051  0.2746 -0.8152 -0.2698
  402MOL0     H54238   8.683   8.824  10.041  4.0370 -1.4422  0.6206
  402MOL0     H54239   8.711   8.842   9.865 -2.8795  1.1618 -0.0748
  402MOL0     H54240   8.505   8.695   9.818  0.3250 -3.0523  2.2250
  402MOL0     H54241   8.478   8.867   9.867  2.5237  0.3400 -0.1546
  402MOL0     H54242   8.433   8.618  10.034  1.0211 -0.7785 -1.9147
  402MOL0     H54243   8.319   8.712   9.941 -0.8131 -0.7041  1.7864
  402MOL0     H54244   8.465   8.832  10.181 -0.5955  1.9744  1.0362
  402MOL0     H54245   8.349   8.909  10.076  1.3762  0.9252  0.9475
  402MOL0     H54246   8.329   8.657  10.261  2.0113  1.2024  0.1044
  402MOL0     H54247   8.196   8.690  10.165 -1.5259 -1.4901  2.7393
  402MOL0     H54248   8.189   8.924  10.270 -0.4128 -0.0786  0.2601
  402MOL0     H54249   8.141   8.781  10.361  0.8973 -3.3729 -2.4237
  402MOL0     H54250   9.068   8.318   9.973  0.0607 -0.2360 -0.4099
  402MOL0     H54251   9.273   8.237   9.840 -1.0674 -0.7581  1.6949
  402MOL0     H54252   9.561   8.309   9.531  0.2966 -2.0042  3.5891
  402MOL0     H54253   9.758   8.212   9.404 -0.8003  1.5001  2.5406
  402MOL0     H54254   9.056   6.827   9.155  0.6513 -2.9116 -1.3802
  402MOL0     H54255   8.905   6.643   9.235  0.8676  1.7330 -1.2885
  402MOL0     H54256   8.886   6.305   9.598 -1.9378  0.4694  0.8864
  402MOL0     H54257   8.796   6.098   9.672  0.9784 -0.2638 -0.6504
  402MOL0     H54258   8.896   5.769   9.438 -0.7882  0.0306  0.6191
  402MOL0     H54259   8.718   5.752   9.377 -0.4353 -0.6201 -0.0948
  402MOL0     H54260   8.676   5.612   9.546 -0.3401  0.3839  3.0969
  402MOL0     H54261   8.799   5.687   9.664  1.8267  1.2910 -0.5950
  402MOL0     H54262   8.979   5.588   9.536 -0.1142 -0.5582  1.0132
  402MOL0     H54263   8.862   5.486   9.450 -0.5001 -1.6717  0.5691
  402MOL0     H54264   8.874   5.503   9.754 -1.7142 -0.0536  0.1388
  402MOL0     H54265   8.806   5.368   9.668 -0.2529 -0.7620 -2.0024
  402MOL0     H54266   9.204   5.254   9.611 -0.5501 -0.9169 -0.1669
  402MOL0     H54267   8.827   5.937   9.265  0.7865  0.2606 -0.2768
  402MOL0     H54268   9.060   6.150   9.149 -0.5911  0.6826  3.1882
  402MOL0     H54269   8.937   6.032   9.100  0.1272 -0.0796 -0.4703
  402MOL0     H54270   8.889   6.197   9.095 -0.0129  0.3770  0.4765
  403MOL0     O54271  11.394   0.909   9.707  0.9776  1.2285  0.4841
  403MOL0     C54272  11.393   0.842   9.604 -0.5296  0.5393  0.6030
  403MOL0     O54273  11.486   0.747   9.571 -0.0601 -0.2156 -0.1679
  403MOL0     C54274  11.589   0.722   9.653  0.0195  0.1649 -0.1700
  403MOL0     C54275  11.574   0.663   9.780  0.7348  0.1884  1.1955
  403MOL0     C54276  11.688   0.601   9.842  0.4834 -0.1429  0.2259
  403MOL0     C54277  11.814   0.635   9.793  0.0132 -0.6463  0.1599
  403MOL0     O54278  11.918   0.603   9.876 -0.7324  0.4749 -0.1366
  403MOL0     C54279  12.044   0.620   9.817  0.3480 -0.2334 -0.0224
  403MOL0     C54280  12.144   0.610   9.933 -0.3992  0.8091 -0.8180
  403MOL0     C54281  12.160   0.737  10.018 -0.4324 -0.1886 -0.0289
  403MOL0     C54282  12.197   0.865   9.939 -1.0920  0.3461  0.0920
  403MOL0     C54283  12.271   0.977  10.009  0.2889  0.0577 -0.0962
  403MOL0     C54284  12.424   0.991   9.987 -0.3210 -0.4718  0.5310
  403MOL0     C54285  12.446   1.053   9.836  0.9030 -0.3386  0.0208
  403MOL0     C54286  12.595   1.067   9.805  0.4225  0.3431 -0.2134
  403MOL0     N54287  12.621   1.102   9.666 -0.1353  0.0916 -0.3615
  403MOL0     C54288  12.651   1.025   9.566 -0.3934  1.2847  0.7994
  403MOL0     C54289  12.682   1.099   9.459  1.1611 -0.7708  0.3758
  403MOL0     C54290  12.720   1.048   9.315 -0.4511 -0.2074 -0.3783
  403MOL0     C54291  12.658   1.134   9.205  0.2166 -0.1929 -0.8883
  403MOL0     C54292  12.689   1.095   9.060  0.0737 -0.6905 -0.0994
  403MOL0     C54293  12.840   1.100   9.041  0.2408 -0.8374 -0.1900
  403MOL0     O54294  12.885   0.967   9.036 -0.3878  0.7218 -0.1819
  403MOL0     C54295  13.018   0.929   9.031  0.0267 -0.4443  0.7361
  403MOL0     C54296  13.058   0.800   9.008 -0.7247  0.0202 -0.2799
  403MOL0     C54297  13.200   0.763   8.994  0.5871  0.1225  0.0855
  403MOL0     C54298  13.299   0.856   9.027  0.0634 -0.4427 -0.5775
  403MOL0     C54299  13.444   0.831   9.004  0.0447 -0.8639  0.4557
  403MOL0     O54300  13.479   0.720   8.932  0.3114  0.2695 -0.0378
  403MOL0     C54301  13.607   0.710   8.894  0.4670  0.3788 -0.1340
  403MOL0     C54302  13.628   0.767   8.769 -1.5553  0.5223  0.5248
  403MOL0     C54303  13.760   0.793   8.728 -0.0928  0.4798 -0.0148
  403MOL0     C54304  13.872   0.762   8.814  0.2740 -1.1083 -0.2093
  403MOL0     O54305  13.998   0.803   8.776 -0.7449 -0.8477 -0.1874
  403MOL0     C54306  14.110   0.721   8.824  0.9349 -0.1160 -0.3046
  403MOL0     C54307  14.227   0.760   8.732 -0.6416 -0.2338  0.1224
  403MOL0     C54308  14.209   0.723   8.582  0.3785 -0.0426  0.0829
  403MOL0     C54309  14.192   0.579   8.565 -0.4290  0.8095  0.1450
  403MOL0     C54310  14.188   0.527   8.417  0.3296  0.1664  0.8780
  403MOL0     C54311  14.102   0.609   8.329  0.1151  0.8689  0.9303
  403MOL0     C54312  14.085   0.543   8.192 -0.1635  0.1555  0.2697
  403MOL0     C54313  14.086   0.648   8.084 -0.6979  0.2935  0.0712
  403MOL0    Cl54314  14.115   0.581   7.924 -0.1338 -0.0959 -0.2022
  403MOL0     C54315  13.847   0.697   8.929 -0.8163 -0.5411  0.3978
  403MOL0     C54316  13.723   0.675   8.969 -0.4526 -0.2387  0.1769
  403MOL0     O54317  13.523   0.912   9.055  0.5632 -0.7447 -0.6103
  403MOL0     C54318  13.252   0.984   9.063 -0.7474 -0.1660  0.2412
  403MOL0     C54319  13.119   1.022   9.063  0.0368  0.1124 -0.0948
  403MOL0     N54320  12.685   1.234   9.503  0.3270  0.1220 -0.8779
  403MOL0     N54321  12.655   1.235   9.627  0.4728  0.2877  0.5831
  403MOL0     C54322  11.828   0.702   9.672 -0.2726  0.7846  0.7312
  403MOL0     C54323  11.715   0.732   9.596 -0.1018 -0.7421  0.0188
  403MOL0     C54324  11.288   0.847   9.507 -0.5187 -0.1602  0.0938
  403MOL0     C54325  11.267   0.750   9.408 -0.5647 -0.4073  0.4223
  403MOL0     C54326  11.161   0.754   9.320  0.1598  0.1528  1.5691
  403MOL0     C54327  11.062   0.853   9.323  0.1326 -0.0542 -0.1134
  403MOL0     O54328  10.952   0.831   9.236 -0.7241 -0.2589 -0.2376
  403MOL0     C54329  10.848   0.932   9.243  0.4833 -0.5816 -0.5712
  403MOL0     C54330  10.894   1.075   9.194  0.2628 -0.1845 -0.3940
  403MOL0     C54331  10.792   1.142   9.115  0.1284  0.6317 -0.0172
  403MOL0     C54332  10.693   1.218   9.203  0.7490 -0.0836  0.1273
  403MOL0     C54333  10.599   1.299   9.128 -0.6202 -0.4249 -0.3406
  403MOL0     C54334  10.526   1.372   9.065 -0.1229  0.2720 -0.4398
  403MOL0     C54335  11.075   0.955   9.418 -0.5656  0.5888  0.1847
  403MOL0     C54336  11.187   0.954   9.506 -0.3764  0.0145 -0.0268
  403MOL0     C54337  11.188   1.074   9.601 -0.3281 -0.4228  0.2854
  403MOL0     H54338  11.473   0.650   9.818  0.0484  2.9755  0.4895
  403MOL0     H54339  11.667   0.540   9.930 -5.6092  3.6933  2.1108
  403MOL0     H54340  12.073   0.536   9.753 -0.4096 -0.2857 -0.3143
  403MOL0     H54341  12.064   0.716   9.768 -0.3207  0.2218  0.5868
  403MOL0     H54342  12.239   0.586   9.883  0.1274  0.4706  0.3142
  403MOL0     H54343  12.120   0.524   9.996  0.9985 -2.1446 -3.9349
  403MOL0     H54344  12.224   0.721  10.105  0.9633 -0.3843 -1.0585
  403MOL0     H54345  12.061   0.765  10.055  1.5232  1.9477  4.2187
  403MOL0     H54346  12.272   0.841   9.863  0.5983  1.7942  1.2181
  403MOL0     H54347  12.106   0.899   9.888 -0.9725 -0.3661 -0.6209
  403MOL0     H54348  12.224   1.075   9.992 -0.2522 -0.0745  0.6272
  403MOL0     H54349  12.265   0.958  10.116 -0.9820 -1.4314 -0.3933
  403MOL0     H54350  12.470   1.062  10.057  0.2640  0.0024 -0.3117
  403MOL0     H54351  12.480   0.898   9.994  2.8289  0.9850 -2.2033
  403MOL0     H54352  12.388   1.144   9.821 -1.4225 -1.4065  1.8921
  403MOL0     H54353  12.405   0.990   9.757 -0.2283 -0.5785  0.7756
  403MOL0     H54354  12.647   1.143   9.866  1.3444 -1.6613  1.6325
  403MOL0     H54355  12.638   0.967   9.817  1.5306  0.6350 -1.4523
  403MOL0     H54356  12.645   0.917   9.570  1.5938  0.9207 -2.3835
  403MOL0     H54357  12.829   1.056   9.313 -0.1434 -2.9072  0.9179
  403MOL0     H54358  12.696   0.944   9.292 -0.2882  0.2577 -3.0305
  403MOL0     H54359  12.549   1.127   9.220  0.4309 -0.3197  0.7745
  403MOL0     H54360  12.680   1.240   9.224 -1.7064  0.0879  0.1394
  403MOL0     H54361  12.641   1.168   8.995 -0.3417  0.2299  1.1828
  403MOL0     H54362  12.641   1.000   9.034 -0.4479 -0.5819  0.4467
  403MOL0     H54363  12.885   1.164   9.117 -0.3314 -1.1774  0.4425
  403MOL0     H54364  12.866   1.150   8.947  2.8643  0.0155  0.8850
  403MOL0     H54365  12.981   0.726   8.989 -0.6159 -0.4037  0.8716
  403MOL0     H54366  13.230   0.665   8.958  1.5132  0.2035  0.6003
  403MOL0     H54367  13.538   0.782   8.711 -1.5537 -0.1390  0.3363
  403MOL0     H54368  13.788   0.824   8.628  0.5250 -1.5513 -0.5208
  403MOL0     H54369  14.138   0.750   8.926  1.2486  2.1404 -0.9807
  403MOL0     H54370  14.067   0.620   8.817  1.7352 -0.5233  0.5227
  403MOL0     H54371  14.234   0.869   8.731 -0.9022 -0.2236 -0.8499
  403MOL0     H54372  14.326   0.721   8.757  0.4863  2.1357 -0.4040
  403MOL0     H54373  14.122   0.767   8.534  0.3856 -1.1285 -0.9703
  403MOL0     H54374  14.289   0.764   8.519 -0.1671  2.8575  1.1007
  403MOL0     H54375  14.105   0.543   8.620 -1.5960 -1.3632 -2.8677
  403MOL0     H54376  14.272   0.521   8.612 -1.3961 -0.8729 -0.2121
  403MOL0     H54377  14.138   0.430   8.421  1.1046 -0.2741  0.1806
  403MOL0     H54378  14.285   0.518   8.368 -0.0207 -1.7747  0.4456
  403MOL0     H54379  14.006   0.627   8.379  0.1212  0.7013  1.0029
  403MOL0     H54380  14.152   0.706   8.318  1.8555 -0.0927  0.1248
  403MOL0     H54381  13.992   0.487   8.193 -2.7619  4.0503 -0.7550
  403MOL0     H54382  14.171   0.477   8.174  2.5471  2.4817  3.2737
  403MOL0     H54383  13.994   0.707   8.097 -0.0431  1.3011  0.2586
  403MOL0     H54384  14.168   0.716   8.108 -0.4632 -0.7769  2.5832
  403MOL0     H54385  13.924   0.671   9.001 -1.2346  0.3440  1.1915
  403MOL0     H54386  13.721   0.618   9.061  0.1981 -2.2711 -0.9979
  403MOL0     H54387  13.319   1.066   9.088  0.3364 -1.5625  2.2281
  403MOL0     H54388  13.085   1.121   9.094 -2.1474 -0.7235  0.3327
  403MOL0     H54389  11.918   0.731   9.620  2.5497 -3.2482  2.8039
  403MOL0     H54390  11.725   0.774   9.496  1.8324 -2.0766 -0.4127
  403MOL0     H54391  11.331   0.663   9.398 -0.2121 -0.4035  2.2446
  403MOL0     H54392  11.158   0.678   9.243  1.8477 -0.0939  1.7010
  403MOL0     H54393  10.777   0.935   9.326 -0.3345  2.4292 -1.2546
  403MOL0     H54394  10.772   0.897   9.172  0.9592 -0.8210 -0.9689
  403MOL0     H54395  10.980   1.059   9.128  1.1993 -2.5051  1.2843
  403MOL0     H54396  10.928   1.137   9.278  1.3975 -0.4763 -0.6201
  403MOL0     H54397  10.738   1.070   9.053  1.1070  0.0761 -0.2482
  403MOL0     H54398  10.840   1.213   9.046  1.7418 -1.1217 -0.7830
  403MOL0     H54399  10.621   1.156   9.258 -1.3571  1.4782 -0.7517
  403MOL0     H54400  10.748   1.275   9.278  1.0908  0.2405 -0.3702
  403MOL0     H54401  10.450   1.439   9.028  0.4167  0.8704 -0.4836
  403MOL0     H54402  10.992   1.020   9.443 -0.2556  0.0551  2.8893
  403MOL0     H54403  11.110   1.147   9.577 -0.3495 -0.8631 -1.0843
  403MOL0     H54404  11.164   1.055   9.706  0.9575  0.4885  0.7590
  403MOL0     H54405  11.285   1.123   9.592 -0.8358  1.1633  2.5455
  404MOL0     O54406   6.028   7.972  11.083 -0.0009 -0.5353  0.3256
  404MOL0     C54407   6.095   8.010  10.992 -0.6853  1.2421  0.4278
  404MOL0     O54408   6.230   7.993  10.981  0.8707  0.3416 -0.7287
  404MOL0     C54409   6.304   7.880  11.018 -0.0590  0.8188  0.9590
  404MOL0     C54410   6.261   7.765  11.083  0.2624 -1.0226 -0.4844
  404MOL0     C54411   6.343   7.654  11.090 -0.6974 -0.3542  0.6167
  404MOL0     C54412   6.474   7.653  11.048 -0.5092  0.9864 -0.5070
  404MOL0     O54413   6.549   7.538  11.076 -0.3419 -0.4119  1.4727
  404MOL0     C54414   6.689   7.549  11.041  0.6663  0.4976 -0.3077
  404MOL0     C54415   6.760   7.410  11.053 -0.3036  0.1966 -0.6262
  404MOL0     C54416   6.907   7.429  11.072  0.7366 -0.7204 -0.0556
  404MOL0     C54417   6.981   7.299  11.048 -0.8213 -0.1262  0.3490
  404MOL0     C54418   7.137   7.290  11.049 -0.1188 -0.6013 -0.1936
  404MOL0     C54419   7.191   7.151  11.047 -0.3745 -0.8631 -0.0228
  404MOL0     C54420   7.336   7.132  11.088 -1.1081  1.4752  0.4205
  404MOL0     C54421   7.438   7.206  11.008  0.7392 -0.1158 -0.8462
  404MOL0     N54422   7.454   7.342  11.038 -0.3381  0.0931 -0.1444
  404MOL0     C54423   7.430   7.401  11.159 -0.3989  0.6081  0.7856
  404MOL0     C54424   7.437   7.536  11.142  0.7678  0.1885  0.2146
  404MOL0     C54425   7.405   7.651  11.221  0.0767  0.6103 -0.8263
  404MOL0     C54426   7.534   7.692  11.290  0.5188  0.0197  0.4508
  404MOL0     C54427   7.502   7.794  11.392 -0.6213  0.3235 -0.3041
  404MOL0     C54428   7.511   7.744  11.526 -0.2405 -0.0528  0.5728
  404MOL0     O54429   7.404   7.663  11.569 -0.1859  0.0430  0.7139
  404MOL0     C54430   7.393   7.531  11.546  0.3572  1.2186  0.3354
  404MOL0     C54431   7.267   7.472  11.533 -0.3898 -0.1240  0.7241
  404MOL0     C54432   7.258   7.332  11.511 -0.5760 -0.3255  0.3837
  404MOL0     C54433   7.374   7.250  11.509  1.4235 -1.3480  0.1457
  404MOL0     C54434   7.369   7.102  11.495 -0.2736 -0.7164 -0.4971
  404MOL0     O54435   7.248   7.058  11.463 -0.2191 -0.4208 -0.1427
  404MOL0     C54436   7.227   6.925  11.438 -0.6440  0.7929 -0.4445
  404MOL0     C54437   7.209   6.849  11.557  0.5451  0.3359  0.2663
  404MOL0     C54438   7.159   6.720  11.554 -0.4687 -0.2257 -0.7878
  404MOL0     C54439   7.113   6.658  11.440  0.1576 -0.0310  0.1936
  404MOL0     O54440   7.073   6.519  11.429 -0.6098  0.1987  0.3987
  404MOL0     C54441   7.060   6.429  11.543 -0.3427 -0.4558  1.1981
  404MOL0     C54442   7.041   6.279  11.501  0.3273 -1.5138  0.0414
  404MOL0     C54443   7.157   6.247  11.407  0.4049 -0.3226 -0.6715
  404MOL0     C54444   7.171   6.091  11.377  0.1974 -0.4340 -0.3502
  404MOL0     C54445   7.299   6.064  11.292  0.2878  1.4413 -0.3059
  404MOL0     C54446   7.291   5.917  11.254 -0.7976 -0.0035 -1.0432
  404MOL0     C54447   7.419   5.869  11.185  0.1638 -0.3537 -0.0088
  404MOL0     C54448   7.436   5.914  11.044  0.0546  0.2951 -0.5767
  404MOL0    Cl54449   7.315   5.838  10.944  0.0406  0.0686 -0.5997
  404MOL0     C54450   7.120   6.739  11.320 -0.4347 -0.7506  0.3132
  404MOL0     C54451   7.183   6.864  11.318 -0.5222 -1.2191  0.0143
  404MOL0     O54452   7.474   7.038  11.499 -0.0153  0.5350  0.1547
  404MOL0     C54453   7.499   7.312  11.526 -0.1270  0.8885  0.2655
  404MOL0     C54454   7.505   7.449  11.540 -0.0933  1.1795  0.9170
  404MOL0     N54455   7.459   7.551  11.009 -0.1332  0.8583  0.3812
  404MOL0     N54456   7.462   7.438  10.940  0.2722  0.4597 -0.3520
  404MOL0     C54457   6.513   7.771  10.976  0.0214 -1.0486 -0.6200
  404MOL0     C54458   6.436   7.885  10.966  0.4659 -0.0983  0.5958
  404MOL0     C54459   6.023   8.070  10.870  0.2056  0.3571 -0.0483
  404MOL0     C54460   6.100   8.093  10.758  0.1151 -0.2614  0.1411
  404MOL0     C54461   6.045   8.154  10.647  0.3624  0.0867 -0.0742
  404MOL0     C54462   5.909   8.191  10.650 -0.2681  0.4436 -0.2599
  404MOL0     O54463   5.834   8.251  10.552 -0.3987  0.1836 -0.7345
  404MOL0     C54464   5.897   8.271  10.429  0.0788 -0.7216  1.2153
  404MOL0     C54465   5.781   8.275  10.326 -0.4692  0.0302  0.5258
  404MOL0     C54466   5.847   8.288  10.186 -0.4016  0.6116 -0.1907
  404MOL0     C54467   5.929   8.420  10.164 -0.7858 -0.0214 -0.4980
  404MOL0     C54468   5.848   8.539  10.173  0.3787 -0.8061  0.1277
  404MOL0     C54469   5.778   8.634  10.177  0.1711 -0.0407 -0.2438
  404MOL0     C54470   5.835   8.175  10.763  0.3321  0.0045 -0.4135
  404MOL0     C54471   5.888   8.117  10.878 -1.0195  0.2560  1.2111
  404MOL0     C54472   5.789   8.076  10.983  0.7657  0.0472 -0.4113
  404MOL0     H54473   6.162   7.752  11.126  0.3622  0.2175  0.1783
  404MOL0     H54474   6.312   7.575  11.157  0.6822 -0.2281  1.4433
  404MOL0     H54475   6.707   7.578  10.937  0.8722 -2.9732 -1.3591
  404MOL0     H54476   6.736   7.615  11.115 -0.4731 -1.2200  2.0680
  404MOL0     H54477   6.733   7.354  10.963  1.9334  1.2389 -2.0443
  404MOL0     H54478   6.719   7.352  11.136 -1.6761 -1.7157 -2.5239
  404MOL0     H54479   6.918   7.473  11.171  0.5561  3.0816 -1.5577
  404MOL0     H54480   6.941   7.501  10.997 -1.0884  1.3623  1.0258
  404MOL0     H54481   6.939   7.221  11.112  0.4820 -0.5668  0.7087
  404MOL0     H54482   6.963   7.264  10.946  0.8780 -2.3726  0.7246
  404MOL0     H54483   7.187   7.340  10.965  0.9474 -0.7520  0.3300
  404MOL0     H54484   7.157   7.334  11.147 -0.1588  0.1539 -0.5121
  404MOL0     H54485   7.128   7.110  11.127  0.0392 -0.2077  0.6482
  404MOL0     H54486   7.163   7.103  10.953  0.3861 -4.7802  1.5574
  404MOL0     H54487   7.370   7.030  11.109 -1.0955  1.4126  0.1083
  404MOL0     H54488   7.334   7.162  11.194 -1.5161 -3.5880  2.1048
  404MOL0     H54489   7.539   7.167  11.025  0.0935 -0.7697  1.9854
  404MOL0     H54490   7.425   7.197  10.900  0.8685 -0.0268 -0.8704
  404MOL0     H54491   7.421   7.351  11.255  1.9248  1.3814  1.4548
  404MOL0     H54492   7.367   7.729  11.155 -1.9951 -2.0924 -3.0662
  404MOL0     H54493   7.325   7.635  11.295 -0.2462 -2.6372 -1.7283
  404MOL0     H54494   7.590   7.606  11.329 -0.3892 -0.9555 -0.3332
  404MOL0     H54495   7.603   7.738  11.220  1.5995 -2.6497 -0.3571
  404MOL0     H54496   7.405   7.842  11.379 -0.6600  0.5054  0.5618
  404MOL0     H54497   7.571   7.876  11.369 -1.2031  0.4485 -1.6495
  404MOL0     H54498   7.503   7.826  11.598 -2.1594  0.2910  0.0356
  404MOL0     H54499   7.607   7.694  11.535  0.4423  0.7106 -1.7515
  404MOL0     H54500   7.176   7.530  11.531 -0.1424  0.2528  0.0345
  404MOL0     H54501   7.160   7.287  11.499  0.6768 -4.2416  2.7342
  404MOL0     H54502   7.244   6.888  11.652  1.8029  0.9581 -0.4251
  404MOL0     H54503   7.157   6.673  11.652  1.8083 -0.5855 -0.8468
  404MOL0     H54504   7.153   6.436  11.601  0.6946  0.5763 -0.5260
  404MOL0     H54505   6.973   6.458  11.603 -1.8881  0.5384 -1.3837
  404MOL0     H54506   7.047   6.220  11.592  3.0466 -2.0766 -0.4077
  404MOL0     H54507   6.944   6.245  11.464 -1.9808  2.9296  1.1994
  404MOL0     H54508   7.157   6.296  11.309 -1.5689  0.2434 -0.4144
  404MOL0     H54509   7.248   6.278  11.459  1.3903 -1.6179 -1.5283
  404MOL0     H54510   7.081   6.062  11.323 -0.3734  0.6499 -0.0161
  404MOL0     H54511   7.192   6.039  11.471 -0.9685 -1.7545 -0.7826
  404MOL0     H54512   7.386   6.085  11.355  1.8842 -1.0469 -1.5316
  404MOL0     H54513   7.295   6.121  11.199 -2.8100 -0.9790 -1.8370
  404MOL0     H54514   7.273   5.848  11.337  1.9476 -0.4676 -0.7247
  404MOL0     H54515   7.216   5.913  11.174  0.1321 -0.1274 -1.9380
  404MOL0     H54516   7.425   5.761  11.199  0.6336 -0.2874  0.3082
  404MOL0     H54517   7.508   5.902  11.238 -1.3560 -2.4077  4.2389
  404MOL0     H54518   7.431   6.023  11.034 -1.5618  0.5489  1.8553
  404MOL0     H54519   7.535   5.879  11.016 -0.1947 -0.2103 -0.8227
  404MOL0     H54520   7.095   6.700  11.223  2.4449 -0.2919 -0.7079
  404MOL0     H54521   7.187   6.917  11.224 -4.3358  0.2536  0.5040
  404MOL0     H54522   7.587   7.249  11.517 -0.8603  0.1223 -2.2174
  404MOL0     H54523   7.606   7.490  11.541  0.3871  0.2531 -1.9741
  404MOL0     H54524   6.611   7.786  10.930 -0.6827  3.0353 -1.1262
  404MOL0     H54525   6.453   7.971  10.903 -0.2037  0.1111  0.6953
  404MOL0     H54526   6.207   8.080  10.744  0.0242 -1.0825  0.1536
  404MOL0     H54527   6.106   8.173  10.559  1.8884  0.5760  1.0280
  404MOL0     H54528   5.958   8.183  10.407  0.3882 -0.4144  0.8304
  404MOL0     H54529   5.957   8.362  10.427 -3.3830  1.8726 -3.0491
  404MOL0     H54530   5.717   8.363  10.338 -0.7210 -0.2172  1.0169
  404MOL0     H54531   5.728   8.179  10.331 -1.3134  0.3613 -1.2274
  404MOL0     H54532   5.773   8.289  10.105 -3.2763  0.2668  2.2572
  404MOL0     H54533   5.919   8.205  10.179 -0.9846  0.1969 -1.5488
  404MOL0     H54534   6.006   8.418  10.241 -1.5637 -2.9177  0.3373
  404MOL0     H54535   5.982   8.427  10.069  0.9588  0.5600  0.4855
  404MOL0     H54536   5.703   8.711  10.180  0.9042  0.7123 -0.8028
  404MOL0     H54537   5.733   8.211  10.771  1.1930  2.4638  0.4377
  404MOL0     H54538   5.818   8.122  11.077  3.3549 -0.3731 -0.9006
  404MOL0     H54539   5.687   8.109  10.966 -0.4319 -1.4943  3.0081
  404MOL0     H54540   5.789   7.967  10.997  0.6190  0.0966 -0.0281
  405MOL0     O54541   3.652   5.050   2.607  0.1613  0.0344  0.1400
  405MOL0     C54542   3.599   5.036   2.718 -0.4814 -0.9638  0.1875
  405MOL0     O54543   3.531   5.138   2.786 -0.2339  0.6205 -0.3856
  405MOL0     C54544   3.526   5.256   2.724  0.1527  0.3545  0.5471
  405MOL0     C54545   3.642   5.331   2.703 -0.3075 -0.2113  0.6199
  405MOL0     C54546   3.651   5.447   2.623 -0.3699  0.0529  0.6461
  405MOL0     C54547   3.527   5.501   2.591  0.7684  0.0485  0.4002
  405MOL0     O54548   3.507   5.617   2.515 -0.0358 -0.3603 -0.2934
  405MOL0     C54549   3.621   5.710   2.498  0.4865 -0.0883 -0.5399
  405MOL0     C54550   3.575   5.824   2.404 -0.3738  0.0202  0.2941
  405MOL0     C54551   3.693   5.898   2.350  0.3390 -0.6720  0.2436
  405MOL0     C54552   3.799   5.951   2.457  0.3677 -0.8565 -0.5550
  405MOL0     C54553   3.879   6.068   2.404 -0.6261  0.2980 -0.2878
  405MOL0     C54554   4.012   6.094   2.485 -0.3061 -0.1387 -0.2951
  405MOL0     C54555   4.055   6.247   2.489 -1.0209  0.2165 -0.0120
  405MOL0     C54556   4.056   6.305   2.352  0.5744 -0.1921 -0.1524
  405MOL0     N54557   4.142   6.426   2.354 -0.5360 -0.0828 -0.0031
  405MOL0     C54558   4.117   6.538   2.431  0.1470 -0.2726 -0.3706
  405MOL0     C54559   4.232   6.604   2.435  0.5247  0.0037 -0.9999
  405MOL0     C54560   4.262   6.733   2.510 -0.1746 -0.9851 -0.3662
  405MOL0     C54561   4.201   6.854   2.419  0.1062  0.0480 -0.0575
  405MOL0     C54562   4.238   6.860   2.270 -0.4330 -0.2906 -0.9884
  405MOL0     C54563   4.171   6.977   2.201  0.8914  0.0503  0.0107
  405MOL0     O54564   4.215   7.103   2.262 -0.5663 -0.2741  0.5202
  405MOL0     C54565   4.149   7.216   2.232 -0.6007 -0.6032 -0.6800
  405MOL0     C54566   4.162   7.316   2.329  0.6330  0.0002 -0.1705
  405MOL0     C54567   4.087   7.433   2.318 -0.0971  0.5874  0.0092
  405MOL0     C54568   3.999   7.453   2.210 -0.0127 -0.4426  0.2527
  405MOL0     C54569   3.930   7.576   2.195 -0.5842 -0.3571 -0.4172
  405MOL0     O54570   3.965   7.674   2.285  0.5880 -0.1832 -0.2653
  405MOL0     C54571   3.982   7.805   2.251  0.0337 -1.4762  0.3418
  405MOL0     C54572   3.977   7.851   2.119  1.2557  0.3175  0.4509
  405MOL0     C54573   3.998   7.985   2.089  0.1452  0.5833  0.5537
  405MOL0     C54574   4.037   8.077   2.178  0.9392  0.4360 -0.7046
  405MOL0     O54575   4.078   8.204   2.143  0.2214  0.8185 -0.1853
  405MOL0     C54576   4.222   8.217   2.143  0.7225 -0.1387 -0.8189
  405MOL0     C54577   4.272   8.361   2.120  0.9049 -0.5946  0.3309
  405MOL0     C54578   4.171   8.438   2.037  0.0842 -0.7915 -0.5329
  405MOL0     C54579   4.158   8.382   1.898 -0.1530  0.0913  0.0713
  405MOL0     C54580   4.029   8.445   1.838  1.0877 -0.7349 -0.9079
  405MOL0     C54581   4.007   8.389   1.700  0.3584  0.1375 -0.1953
  405MOL0     C54582   3.884   8.450   1.638  0.1291 -0.2622 -0.0578
  405MOL0     C54583   3.834   8.353   1.522 -0.6957 -0.2222  0.3677
  405MOL0    Cl54584   3.938   8.365   1.381 -0.1903 -0.2642 -0.3553
  405MOL0     C54585   4.047   8.041   2.317  1.1020  0.1265 -0.4779
  405MOL0     C54586   4.015   7.911   2.344 -0.5928  0.0042  0.2719
  405MOL0     O54587   3.833   7.584   2.121 -0.2456 -0.2632 -0.1720
  405MOL0     C54588   3.990   7.351   2.113  1.2447  0.7944 -0.5219
  405MOL0     C54589   4.064   7.231   2.125  0.5519 -0.4532  0.2876
  405MOL0     N54590   4.323   6.533   2.363 -0.7919 -1.2605 -0.6636
  405MOL0     N54591   4.274   6.429   2.316 -0.0924 -0.3836 -0.2036
  405MOL0     C54592   3.409   5.434   2.629  0.0970  0.5227 -0.2415
  405MOL0     C54593   3.404   5.310   2.690 -0.0411 -0.3660 -0.2289
  405MOL0     C54594   3.624   4.905   2.781  0.1233 -0.1724 -0.1581
  405MOL0     C54595   3.754   4.857   2.775 -0.0790  0.3249  0.1964
  405MOL0     C54596   3.783   4.731   2.834  0.3387 -1.2183  0.0735
  405MOL0     C54597   3.690   4.656   2.903 -0.3023  0.1617  0.0562
  405MOL0     O54598   3.733   4.542   2.971  0.3815  0.5017  0.4092
  405MOL0     C54599   3.634   4.467   3.020  0.8400 -0.5671 -0.1265
  405MOL0     C54600   3.691   4.323   3.050  0.0823 -0.1870  0.2432
  405MOL0     C54601   3.708   4.233   2.929  0.4162 -0.2198  0.4092
  405MOL0     C54602   3.804   4.288   2.823  0.9220  0.3372  0.4879
  405MOL0     C54603   3.798   4.217   2.695  0.1397  0.6886 -0.2469
  405MOL0     C54604   3.776   4.159   2.586  1.0289 -0.7584  0.2973
  405MOL0     C54605   3.559   4.699   2.893  1.2541 -0.1325 -0.0593
  405MOL0     C54606   3.525   4.828   2.838 -0.4677  0.8316 -0.3956
  405MOL0     C54607   3.386   4.868   2.851  0.3161 -0.2711 -0.2488
  405MOL0     H54608   3.742   5.298   2.730 -0.7860 -1.7383  0.6157
  405MOL0     H54609   3.749   5.491   2.607  0.0702 -0.7402  1.0607
  405MOL0     H54610   3.642   5.742   2.600  0.6524 -0.8424 -0.3327
  405MOL0     H54611   3.709   5.664   2.452 -1.4153 -4.0722 -0.6076
  405MOL0     H54612   3.502   5.885   2.457  0.6641  2.2768 -0.7307
  405MOL0     H54613   3.528   5.786   2.313 -0.5075  1.6280 -0.3435
  405MOL0     H54614   3.660   5.979   2.284 -0.5195 -2.7572 -2.0211
  405MOL0     H54615   3.741   5.834   2.276  0.0172 -0.2829 -0.3149
  405MOL0     H54616   3.746   5.978   2.548 -0.9277  1.8191 -1.9970
  405MOL0     H54617   3.870   5.872   2.487  0.0037 -1.7342 -1.9100
  405MOL0     H54618   3.910   6.068   2.299  0.9139 -1.0717  0.1342
  405MOL0     H54619   3.806   6.149   2.400 -1.2818 -0.2989 -0.6055
  405MOL0     H54620   3.978   6.078   2.588 -0.6151 -1.0490 -0.5232
  405MOL0     H54621   4.096   6.027   2.466  0.5096 -0.6387  4.0574
  405MOL0     H54622   4.158   6.247   2.528 -1.6881  0.8684  1.8798
  405MOL0     H54623   3.996   6.297   2.567 -0.6758 -1.1332  1.1666
  405MOL0     H54624   4.091   6.228   2.283 -0.0824 -0.3913 -0.2745
  405MOL0     H54625   3.952   6.332   2.331  0.4985 -0.1001  0.3200
  405MOL0     H54626   4.022   6.550   2.480  0.6580  0.9761  0.3597
  405MOL0     H54627   4.210   6.731   2.606  0.4126 -0.3657 -0.0281
  405MOL0     H54628   4.371   6.735   2.515 -0.0576 -0.5545 -2.2297
  405MOL0     H54629   4.092   6.851   2.428  0.2743 -1.0393  2.1794
  405MOL0     H54630   4.235   6.948   2.465  3.4982 -1.2283  0.3694
  405MOL0     H54631   4.200   6.766   2.230 -1.8507  0.2822 -1.0226
  405MOL0     H54632   4.346   6.875   2.256 -0.1985 -0.4041  0.4587
  405MOL0     H54633   4.064   6.977   2.226  0.5792  3.7941 -0.6314
  405MOL0     H54634   4.192   6.988   2.095 -0.9590  0.4689 -0.3487
  405MOL0     H54635   4.225   7.296   2.415  2.0797  3.3217 -0.2942
  405MOL0     H54636   4.096   7.505   2.399  2.7935 -0.6762  0.9277
  405MOL0     H54637   3.962   7.790   2.030 -2.4078  1.6319 -0.0173
  405MOL0     H54638   3.995   8.021   1.987 -1.2972 -2.4204 -0.6068
  405MOL0     H54639   4.265   8.180   2.236 -0.5489 -0.2407 -0.2462
  405MOL0     H54640   4.261   8.155   2.061  1.2149 -0.6966 -0.1709
  405MOL0     H54641   4.284   8.419   2.212  0.4014  0.3634 -0.1927
  405MOL0     H54642   4.369   8.356   2.071  0.3647  1.5269 -1.1031
  405MOL0     H54643   4.072   8.461   2.078 -0.7523  1.0457 -3.2277
  405MOL0     H54644   4.205   8.540   2.016 -0.1071  0.0293  2.6808
  405MOL0     H54645   4.161   8.273   1.897  2.2000  0.0595  1.9310
  405MOL0     H54646   4.242   8.403   1.831  0.9685 -0.7112  1.2002
  405MOL0     H54647   4.034   8.554   1.839 -4.8773 -0.1345 -1.2964
  405MOL0     H54648   3.936   8.438   1.896 -0.2431  1.5586 -2.5877
  405MOL0     H54649   4.092   8.399   1.632 -1.7843 -0.9970 -3.3144
  405MOL0     H54650   3.984   8.284   1.719  3.3106 -0.3055  1.3249
  405MOL0     H54651   3.914   8.548   1.601  1.8400  0.2339  2.4189
  405MOL0     H54652   3.810   8.472   1.715  0.0631 -0.7411  0.0218
  405MOL0     H54653   3.835   8.250   1.559 -1.3235 -0.5207 -0.4078
  405MOL0     H54654   3.732   8.377   1.490  0.4248  1.5517 -2.2761
  405MOL0     H54655   4.069   8.118   2.391  3.0622 -1.4810  0.6998
  405MOL0     H54656   4.020   7.880   2.448 -0.2595  0.4841  0.4030
  405MOL0     H54657   3.943   7.363   2.016  1.6495  1.5034 -0.6380
  405MOL0     H54658   4.060   7.156   2.047  1.1676 -1.4546  1.1992
  405MOL0     H54659   3.311   5.469   2.600  0.0831  0.9046  0.2565
  405MOL0     H54660   3.303   5.274   2.707 -0.6757  0.6424 -1.6458
  405MOL0     H54661   3.835   4.911   2.728  0.6119 -0.5935  0.2858
  405MOL0     H54662   3.886   4.696   2.837  0.6475 -0.4363 -0.8136
  405MOL0     H54663   3.555   4.449   2.946 -1.5218  3.2633  1.1490
  405MOL0     H54664   3.584   4.510   3.108 -0.5333 -2.1109 -0.0869
  405MOL0     H54665   3.625   4.270   3.119  0.6830  1.5618  2.2761
  405MOL0     H54666   3.783   4.338   3.108  0.0771  1.0619 -0.0391
  405MOL0     H54667   3.623   4.224   2.862  2.8553  0.4658 -3.0176
  405MOL0     H54668   3.733   4.133   2.964 -2.1077 -0.4457  1.8133
  405MOL0     H54669   3.772   4.389   2.796  1.5468  0.0510 -1.4704
  405MOL0     H54670   3.904   4.276   2.866  0.8400  1.7047  1.1121
  405MOL0     H54671   3.769   4.103   2.495 -0.9637 -1.8176  1.0279
  405MOL0     H54672   3.476   4.637   2.926 -0.3102  0.2561 -2.9323
  405MOL0     H54673   3.324   4.812   2.921  1.1590 -2.0386 -0.8388
  405MOL0     H54674   3.377   4.973   2.881  0.9024 -0.0814 -0.7098
  405MOL0     H54675   3.333   4.857   2.756  0.0212  0.8508 -0.2285
  406MOL0     O54676   8.755   5.858   8.973 -0.5351  0.3643  0.4306
  406MOL0     C54677   8.701   5.783   9.051  0.3281  0.7474  0.1329
  406MOL0     O54678   8.744   5.655   9.077 -0.4430 -0.7362  0.4848
  406MOL0     C54679   8.863   5.612   9.025  0.2227 -1.4750 -0.1956
  406MOL0     C54680   8.974   5.574   9.107 -0.1346 -0.6653  0.1914
  406MOL0     C54681   9.097   5.550   9.051 -0.7727 -0.1539 -0.1089
  406MOL0     C54682   9.117   5.539   8.911  0.0663 -0.2170 -0.5723
  406MOL0     O54683   9.242   5.510   8.855  0.9753 -0.2301 -0.3827
  406MOL0     C54684   9.317   5.413   8.921 -0.2662  0.0218 -0.8591
  406MOL0     C54685   9.439   5.394   8.838 -0.2027 -0.2437  0.9658
  406MOL0     C54686   9.514   5.270   8.891 -0.0676 -0.1418  0.2263
  406MOL0     C54687   9.581   5.196   8.778  0.4469  0.1457  0.0696
  406MOL0     C54688   9.635   5.061   8.823  0.5607  0.3647 -0.2870
  406MOL0     C54689   9.696   4.972   8.709 -0.0734  0.8366 -0.3539
  406MOL0     C54690   9.750   4.842   8.777 -0.1637 -0.6625  0.0287
  406MOL0     C54691   9.792   4.751   8.662 -0.4100 -0.3202  0.6854
  406MOL0     N54692   9.810   4.607   8.702 -0.0085  0.4349  0.1361
  406MOL0     C54693   9.921   4.543   8.751  0.5516  0.6397  0.4197
  406MOL0     C54694   9.886   4.412   8.776  0.1675  0.5813 -0.6869
  406MOL0     C54695   9.971   4.296   8.833  0.3142 -0.5950 -0.4511
  406MOL0     C54696  10.015   4.322   8.981 -0.0148  0.5099  0.7349
  406MOL0     C54697   9.901   4.362   9.077 -0.3437  0.4079 -0.0843
  406MOL0     C54698   9.943   4.483   9.158  0.8398 -0.6749  0.0445
  406MOL0     O54699   9.945   4.594   9.063 -0.7077  0.0485 -0.5824
  406MOL0     C54700   9.856   4.700   9.083  0.3230 -0.2851  1.1221
  406MOL0     C54701   9.718   4.671   9.085 -0.1667  0.0447  0.3471
  406MOL0     C54702   9.630   4.780   9.099  0.2899 -0.5257  0.0644
  406MOL0     C54703   9.678   4.909   9.151  1.3759  1.3583  0.1289
  406MOL0     C54704   9.583   5.011   9.213 -0.4675  0.1343  0.1832
  406MOL0     O54705   9.615   5.144   9.196  0.9412 -0.5087  0.5988
  406MOL0     C54706   9.523   5.247   9.229 -0.3031  0.6334 -0.8081
  406MOL0     C54707   9.383   5.238   9.227  0.8015  0.2497 -0.1829
  406MOL0     C54708   9.308   5.347   9.277 -0.0052 -0.1284 -0.5318
  406MOL0     C54709   9.362   5.460   9.328  0.3638 -0.5564  0.6123
  406MOL0     O54710   9.275   5.546   9.383 -0.1411 -0.2350  0.0628
  406MOL0     C54711   9.335   5.671   9.417  0.0367  0.1828  0.2424
  406MOL0     C54712   9.229   5.777   9.460 -0.0095  0.8161 -1.0099
  406MOL0     C54713   9.280   5.911   9.513  0.7019  0.5186 -0.5391
  406MOL0     C54714   9.287   6.023   9.417 -0.2332  0.1926  0.4084
  406MOL0     C54715   9.324   6.159   9.483  0.4105 -0.1506  0.0418
  406MOL0     C54716   9.385   6.267   9.386 -0.7233  0.1040  0.3764
  406MOL0     C54717   9.410   6.394   9.476 -0.5900 -0.2871 -0.9883
  406MOL0     C54718   9.467   6.514   9.395  0.4271 -0.2895  0.2432
  406MOL0    Cl54719   9.637   6.467   9.358 -0.4422  0.4238  0.0450
  406MOL0     C54720   9.497   5.457   9.348  0.1382  0.2106  0.0506
  406MOL0     C54721   9.575   5.363   9.288  0.1221 -0.0724 -0.2408
  406MOL0     O54722   9.486   4.963   9.268 -0.3544  0.5534  0.0342
  406MOL0     C54723   9.812   4.927   9.152  0.0830  0.1126 -0.3422
  406MOL0     C54724   9.903   4.828   9.118 -0.6569  0.9562 -0.1657
  406MOL0     N54725   9.754   4.407   8.758  0.2651 -0.2023 -0.4383
  406MOL0     N54726   9.709   4.523   8.709  0.5570  0.0832  0.4031
  406MOL0     C54727   9.010   5.559   8.826 -0.7267  0.7839  0.4623
  406MOL0     C54728   8.880   5.595   8.883 -0.2088 -0.2033  0.5576
  406MOL0     C54729   8.572   5.824   9.120  0.4901 -0.3553  0.5298
  406MOL0     C54730   8.525   5.720   9.197 -0.3723  0.3306  0.3987
  406MOL0     C54731   8.408   5.723   9.261  0.4953 -0.3143  0.2265
  406MOL0     C54732   8.322   5.835   9.254  0.4951  0.0532 -0.3729
  406MOL0     O54733   8.203   5.817   9.325  0.4826 -0.1230  0.8720
  406MOL0     C54734   8.118   5.928   9.354  0.8515 -0.2286  0.2259
  406MOL0     C54735   8.019   5.895   9.468  0.5513 -0.5337 -0.4059
  406MOL0     C54736   8.063   5.841   9.602  0.9202 -1.2265 -1.8188
  406MOL0     C54737   8.110   5.687   9.594  0.2191  0.9131 -0.5215
  406MOL0     C54738   8.249   5.677   9.597  0.3148  0.8138 -0.3318
  406MOL0     C54739   8.366   5.650   9.587  0.3824  0.7039 -1.1098
  406MOL0     C54740   8.372   5.947   9.184 -0.0500 -0.3092  0.0656
  406MOL0     C54741   8.500   5.945   9.117 -0.2788 -1.3868 -0.3886
  406MOL0     C54742   8.559   6.068   9.060  0.4696 -0.4533 -0.4888
  406MOL0     H54743   8.976   5.556   9.214 -1.3698  2.5132  0.8529
  406MOL0     H54744   9.186   5.541   9.113 -0.9618 -1.3718  0.0122
  406MOL0     H54745   9.333   5.426   9.028 -4.6572 -0.6731  0.0837
  406MOL0     H54746   9.265   5.317   8.907 -0.0853  0.1354 -2.6432
  406MOL0     H54747   9.510   5.475   8.853  1.8418 -1.1043 -2.7424
  406MOL0     H54748   9.419   5.392   8.730 -3.3275 -0.5308  1.4566
  406MOL0     H54749   9.449   5.197   8.941 -2.2124  1.9932  0.7245
  406MOL0     H54750   9.590   5.313   8.956 -1.6103  2.5530  0.4214
  406MOL0     H54751   9.507   5.179   8.699 -0.2114 -0.1051  0.7314
  406MOL0     H54752   9.666   5.252   8.737  0.5303  0.0745  0.1443
  406MOL0     H54753   9.715   5.072   8.897  0.5830 -0.0062 -0.2534
  406MOL0     H54754   9.561   5.002   8.877  1.0148  0.8496  0.9104
  406MOL0     H54755   9.613   4.956   8.639  0.0847 -0.1270 -0.3396
  406MOL0     H54756   9.782   5.021   8.663  0.1171  0.7001 -0.1465
  406MOL0     H54757   9.674   4.801   8.844 -1.6844  0.8285 -0.6955
  406MOL0     H54758   9.837   4.878   8.832  1.1369  0.7868 -2.7122
  406MOL0     H54759   9.720   4.755   8.579  1.2660  1.9979 -0.7852
  406MOL0     H54760   9.886   4.792   8.622 -0.6516 -1.2403 -0.9112
  406MOL0     H54761  10.019   4.587   8.764  0.2539  1.1684  0.9174
  406MOL0     H54762   9.910   4.205   8.834  2.4528 -2.1414  1.9437
  406MOL0     H54763  10.053   4.274   8.764  0.0921 -2.1403 -0.2720
  406MOL0     H54764  10.051   4.225   9.015  0.4854 -0.4489 -2.2017
  406MOL0     H54765  10.097   4.393   8.995 -0.0068  1.5226 -3.2247
  406MOL0     H54766   9.870   4.277   9.138  0.8570 -1.1032 -1.4663
  406MOL0     H54767   9.808   4.384   9.023  0.4546  1.5529 -1.0773
  406MOL0     H54768  10.045   4.468   9.196  0.5390 -1.2694  0.6484
  406MOL0     H54769   9.863   4.498   9.231  1.2050  0.8453  0.1617
  406MOL0     H54770   9.696   4.565   9.077 -2.4033  0.3227  1.9861
  406MOL0     H54771   9.524   4.758   9.103  0.5078 -1.4466  1.7726
  406MOL0     H54772   9.336   5.159   9.169 -0.9036  0.6066  0.6149
  406MOL0     H54773   9.202   5.346   9.255 -0.2289  1.2013  0.3289
  406MOL0     H54774   9.404   5.657   9.500  0.9194 -0.2857 -0.5599
  406MOL0     H54775   9.387   5.710   9.329  0.2552  0.7566  0.6183
  406MOL0     H54776   9.156   5.798   9.381 -2.3050 -3.7444 -0.4322
  406MOL0     H54777   9.162   5.733   9.534 -1.1940  0.1449 -2.4325
  406MOL0     H54778   9.226   5.929   9.606  2.9760  1.2971  0.7088
  406MOL0     H54779   9.378   5.898   9.560 -0.2256  1.3027  1.7193
  406MOL0     H54780   9.190   6.033   9.369  0.3821 -1.4295 -1.3065
  406MOL0     H54781   9.355   5.997   9.335  1.0611 -2.5695  2.1789
  406MOL0     H54782   9.394   6.152   9.567 -0.5068  3.8361  1.3838
  406MOL0     H54783   9.235   6.202   9.531  1.5865  0.3186  1.9207
  406MOL0     H54784   9.477   6.218   9.353  0.3506 -0.5736  3.8878
  406MOL0     H54785   9.323   6.295   9.301 -0.2586 -0.9219 -0.3234
  406MOL0     H54786   9.481   6.366   9.554  1.5505  0.4964 -2.5646
  406MOL0     H54787   9.312   6.426   9.512 -0.7249 -1.7540  0.0080
  406MOL0     H54788   9.417   6.539   9.302  0.8060 -1.3952 -0.2765
  406MOL0     H54789   9.470   6.607   9.453  1.2322 -1.7131  2.6325
  406MOL0     H54790   9.546   5.536   9.404 -0.8155  1.0205 -0.2041
  406MOL0     H54791   9.682   5.374   9.294  0.2660 -1.2249 -0.3752
  406MOL0     H54792   9.859   5.023   9.170  2.3413 -1.1535  0.9644
  406MOL0     H54793  10.009   4.850   9.124 -0.3326 -0.7365  1.1773
  406MOL0     H54794   9.027   5.563   8.719  0.4001  1.4608  0.6485
  406MOL0     H54795   8.792   5.626   8.826  1.6023  1.3299 -1.5891
  406MOL0     H54796   8.571   5.622   9.208  0.5964  0.7315  0.0342
  406MOL0     H54797   8.381   5.632   9.314 -0.0834 -0.1910  0.1507
  406MOL0     H54798   8.062   5.955   9.264 -0.0159  0.1393  0.8602
  406MOL0     H54799   8.176   6.019   9.375 -0.5122  1.3416 -2.3379
  406MOL0     H54800   7.949   5.820   9.431  0.1345 -1.5036  2.1039
  406MOL0     H54801   7.962   5.988   9.484 -1.3071 -2.0195  2.6249
  406MOL0     H54802   7.972   5.842   9.662  0.3396  0.9608 -2.6724
  406MOL0     H54803   8.144   5.901   9.646  0.1722  0.9135 -3.2176
  406MOL0     H54804   8.080   5.648   9.692  2.5260  2.2211  0.7860
  406MOL0     H54805   8.066   5.626   9.515 -1.4970 -1.5834  2.1399
  406MOL0     H54806   8.468   5.619   9.593  0.3875  0.8628 -0.3018
  406MOL0     H54807   8.329   6.046   9.194  0.4149  0.1842 -2.1843
  406MOL0     H54808   8.645   6.104   9.116 -0.2295  0.4302  0.0491
  406MOL0     H54809   8.595   6.051   8.958 -1.4207  2.7777 -1.8553
  406MOL0     H54810   8.483   6.147   9.054  0.3695 -0.5956 -1.2684
  407MOL0     O54811   9.632   1.844   7.191  0.5865 -0.1446 -0.0696
  407MOL0     C54812   9.664   1.733   7.153  0.2713 -1.2384 -0.2696
  407MOL0     O54813   9.780   1.690   7.087 -0.2623 -0.3982 -0.0865
  407MOL0     C54814   9.888   1.771   7.086  0.3041  0.3557 -0.0915
  407MOL0     C54815   9.951   1.835   7.197  0.3311 -0.4052  0.5868
  407MOL0     C54816  10.079   1.898   7.193 -0.8136 -0.7401 -1.1283
  407MOL0     C54817  10.110   1.934   7.062 -0.7326 -0.0256  0.3271
  407MOL0     O54818  10.227   2.001   7.055 -0.7018 -0.3430  0.1829
  407MOL0     C54819  10.333   1.937   6.986  0.6361  0.0758 -0.1333
  407MOL0     C54820  10.444   2.034   6.999 -0.9052 -0.5175  0.4095
  407MOL0     C54821  10.575   1.963   6.947  1.2016 -0.3059  0.3983
  407MOL0     C54822  10.692   2.061   6.908 -0.0097 -0.2730 -0.6836
  407MOL0     C54823  10.811   1.977   6.868  0.1645  0.4748  0.1628
  407MOL0     C54824  10.935   2.063   6.850 -0.3116 -0.4918 -0.0403
  407MOL0     C54825  11.039   1.982   6.762  0.4129  0.1740  0.1645
  407MOL0     C54826  11.070   1.842   6.809  0.1936 -0.9279  0.2369
  407MOL0     N54827  11.178   1.787   6.735  0.0316  0.5110  0.2959
  407MOL0     C54828  11.162   1.691   6.636 -0.8777  0.4127  0.2617
  407MOL0     C54829  11.293   1.671   6.580 -1.2036 -0.9292  0.3487
  407MOL0     C54830  11.343   1.580   6.473  0.8691 -1.0998  0.0183
  407MOL0     C54831  11.355   1.443   6.535 -0.4328  0.2858  0.9362
  407MOL0     C54832  11.413   1.337   6.439 -0.1417  1.2745 -0.1702
  407MOL0     C54833  11.396   1.196   6.505  0.6729 -0.7952  0.8864
  407MOL0     O54834  11.481   1.186   6.617 -0.3065 -0.0138  0.2277
  407MOL0     C54835  11.589   1.094   6.628  1.3926  0.2488 -0.3269
  407MOL0     C54836  11.573   0.960   6.585  0.8164  0.2668  0.6222
  407MOL0     C54837  11.679   0.863   6.620 -0.5780  0.2622  0.1482
  407MOL0     C54838  11.794   0.901   6.686 -0.0876 -0.0021  1.1747
  407MOL0     C54839  11.914   0.809   6.700 -0.0178 -0.3591  0.5728
  407MOL0     O54840  11.897   0.680   6.654 -0.7363  0.8406 -0.5991
  407MOL0     C54841  12.013   0.604   6.638  0.3141  0.0240  0.0264
  407MOL0     C54842  12.077   0.543   6.745 -0.7400  0.1422  0.3414
  407MOL0     C54843  12.189   0.456   6.721 -0.9501 -0.7050 -0.6124
  407MOL0     C54844  12.225   0.427   6.594 -0.3938  0.0460 -0.1722
  407MOL0     O54845  12.346   0.357   6.581  0.1095  0.3132 -0.5328
  407MOL0     C54846  12.395   0.310   6.455  0.9380 -0.8098 -0.8709
  407MOL0     C54847  12.527   0.241   6.483 -0.2478  0.2095  0.3457
  407MOL0     C54848  12.600   0.221   6.351  0.8297  0.4721 -0.9358
  407MOL0     C54849  12.736   0.168   6.390 -0.7345  0.0660 -0.2601
  407MOL0     C54850  12.844   0.194   6.282  1.1241 -0.6632  0.4321
  407MOL0     C54851  12.981   0.152   6.317 -0.3833  0.4700 -0.3321
  407MOL0     C54852  13.090   0.154   6.205  0.5006 -0.7170 -0.0669
  407MOL0     C54853  13.232   0.118   6.262  0.1416 -0.8484  1.1028
  407MOL0    Cl54854  13.341   0.127   6.123  0.2171  0.0760 -0.4670
  407MOL0     C54855  12.148   0.477   6.483  0.5422  0.0238  0.1556
  407MOL0     C54856  12.048   0.572   6.508  0.1607  0.1170  0.3443
  407MOL0     O54857  12.017   0.855   6.745  0.4696 -0.2210  0.0103
  407MOL0     C54858  11.797   1.030   6.734  0.6140 -0.1172 -0.0111
  407MOL0     C54859  11.693   1.127   6.706 -0.5977 -0.6500 -0.0424
  407MOL0     N54860  11.378   1.769   6.645  0.6442 -0.4696  0.4277
  407MOL0     N54861  11.308   1.826   6.740  0.1098  0.2245 -0.0523
  407MOL0     C54862  10.050   1.883   6.946  0.1751 -0.7192 -0.3416
  407MOL0     C54863   9.940   1.811   6.962  0.3241  0.3269  0.1917
  407MOL0     C54864   9.567   1.625   7.168 -0.1076 -1.1769  0.8072
  407MOL0     C54865   9.448   1.646   7.096  0.2231  0.0542  0.3359
  407MOL0     C54866   9.365   1.539   7.072 -0.1606 -0.7937 -0.2371
  407MOL0     C54867   9.396   1.409   7.117  0.5979  0.3621  0.1016
  407MOL0     O54868   9.321   1.301   7.071 -0.0425  0.0738 -1.1167
  407MOL0     C54869   9.310   1.194   7.173 -0.5348  0.0557 -0.1964
  407MOL0     C54870   9.176   1.123   7.183  0.2443 -0.4999  0.5697
  407MOL0     C54871   9.061   1.213   7.255 -0.5780 -0.4105 -0.2466
  407MOL0     C54872   8.933   1.143   7.296  0.3016 -0.0075  0.4254
  407MOL0     C54873   8.883   1.052   7.195 -0.0426 -0.5259  0.2006
  407MOL0     C54874   8.850   0.990   7.096  0.4616 -0.3275 -0.0365
  407MOL0     C54875   9.508   1.392   7.199 -1.9771 -0.4739  0.6289
  407MOL0     C54876   9.598   1.499   7.229 -0.3942 -0.1536 -0.5198
  407MOL0     C54877   9.726   1.461   7.299  0.1772 -0.4425  0.2906
  407MOL0     H54878   9.897   1.814   7.288 -2.5687 -2.2235 -1.3790
  407MOL0     H54879  10.135   1.912   7.285 -0.8686 -1.6103 -0.9556
  407MOL0     H54880  10.370   1.846   7.034  3.3218  0.2888 -1.6183
  407MOL0     H54881  10.309   1.911   6.883  4.2688  0.0932 -1.1093
  407MOL0     H54882  10.446   2.079   7.098 -1.9470  1.4878 -0.4143
  407MOL0     H54883  10.416   2.116   6.932  1.4113 -0.1332 -0.1582
  407MOL0     H54884  10.543   1.913   6.854  1.0651  0.5299 -0.0176
  407MOL0     H54885  10.620   1.890   7.014  1.1393  0.0025  0.7760
  407MOL0     H54886  10.660   2.127   6.828 -1.2274  1.8444  1.4105
  407MOL0     H54887  10.716   2.132   6.988 -0.6288  2.3663 -2.7121
  407MOL0     H54888  10.820   1.894   6.939 -0.4997 -0.1616 -0.4765
  407MOL0     H54889  10.785   1.926   6.775 -0.0914 -1.9409  1.4914
  407MOL0     H54890  10.912   2.158   6.803 -0.5140  0.2372  1.4756
  407MOL0     H54891  10.968   2.074   6.954 -2.0553 -0.8637  0.5909
  407MOL0     H54892  11.126   2.048   6.761  1.1173 -0.7435 -0.0825
  407MOL0     H54893  11.007   1.967   6.658 -2.4294 -2.7581  1.3023
  407MOL0     H54894  11.098   1.841   6.915  3.7212 -1.9317 -0.5524
  407MOL0     H54895  10.982   1.780   6.788  0.7939 -0.9103 -2.8695
  407MOL0     H54896  11.075   1.636   6.602 -0.9355  0.5034  0.2645
  407MOL0     H54897  11.267   1.566   6.395  3.0365  0.3769 -2.5173
  407MOL0     H54898  11.434   1.614   6.422  0.0831  1.8828  0.4059
  407MOL0     H54899  11.426   1.440   6.618 -0.9600 -1.0806  1.3717
  407MOL0     H54900  11.255   1.413   6.569  0.2217 -1.0049  1.7967
  407MOL0     H54901  11.516   1.360   6.414 -0.2966  0.6927 -1.4096
  407MOL0     H54902  11.346   1.350   6.354 -2.0157  0.5433  1.1156
  407MOL0     H54903  11.427   1.115   6.439  1.9328 -1.1207  1.8355
  407MOL0     H54904  11.291   1.180   6.532 -0.3412  1.8672 -1.0026
  407MOL0     H54905  11.490   0.926   6.524 -1.0223  4.7261  0.2706
  407MOL0     H54906  11.676   0.758   6.591 -2.7527  0.0765  0.8594
  407MOL0     H54907  12.049   0.553   6.849  1.5463 -3.2194  1.4458
  407MOL0     H54908  12.253   0.414   6.798 -0.7706 -2.1823 -1.5227
  407MOL0     H54909  12.331   0.228   6.422  1.7915 -2.9894  2.4252
  407MOL0     H54910  12.399   0.395   6.386  2.0128 -1.2394 -1.3531
  407MOL0     H54911  12.590   0.317   6.532  0.3942  1.0636 -1.6992
  407MOL0     H54912  12.518   0.152   6.545 -1.9318 -0.4738 -0.8183
  407MOL0     H54913  12.541   0.155   6.287  2.2294 -1.4735 -0.3129
  407MOL0     H54914  12.606   0.308   6.285 -0.0004 -0.6253 -2.5366
  407MOL0     H54915  12.731   0.060   6.408 -0.8396  0.2556  0.9019
  407MOL0     H54916  12.786   0.218   6.474  0.0524 -0.0330 -0.6565
  407MOL0     H54917  12.839   0.302   6.264 -2.4120 -0.0914  3.4116
  407MOL0     H54918  12.805   0.147   6.191 -1.5682  0.8082  0.7065
  407MOL0     H54919  13.013   0.213   6.402  1.0651 -1.3772  0.5163
  407MOL0     H54920  12.981   0.045   6.339  2.2011  0.3313 -0.6404
  407MOL0     H54921  13.095   0.248   6.147  3.3852 -1.1155 -0.6315
  407MOL0     H54922  13.062   0.078   6.131  3.3378 -1.2346 -0.7539
  407MOL0     H54923  13.262   0.190   6.339 -0.8101  0.1248  0.5912
  407MOL0     H54924  13.245   0.015   6.297 -0.4190 -1.9271 -1.5721
  407MOL0     H54925  12.174   0.458   6.379  1.2314  2.4323 -0.1797
  407MOL0     H54926  11.992   0.633   6.439  0.8134  3.1531  2.3007
  407MOL0     H54927  11.873   1.067   6.801  0.1415 -0.0224  0.4771
  407MOL0     H54928  11.703   1.223   6.756 -1.9225  1.6158 -3.7644
  407MOL0     H54929  10.069   1.914   6.844 -4.3549  2.2687 -0.5703
  407MOL0     H54930   9.885   1.773   6.877 -0.5204  1.6029  0.1254
  407MOL0     H54931   9.429   1.744   7.054 -2.7570 -1.8322 -3.3185
  407MOL0     H54932   9.282   1.540   7.003 -0.1869  0.4946 -0.2037
  407MOL0     H54933   9.342   1.224   7.273  0.6649  3.0009 -1.3505
  407MOL0     H54934   9.390   1.128   7.139 -0.0605  1.0428 -1.0718
  407MOL0     H54935   9.213   1.035   7.237 -0.6532  0.0119  2.0942
  407MOL0     H54936   9.135   1.093   7.086 -0.1567 -4.6366  1.8343
  407MOL0     H54937   9.052   1.292   7.180  4.6773 -0.1637 -0.9882
  407MOL0     H54938   9.095   1.264   7.346  1.2896  2.4389 -2.3827
  407MOL0     H54939   8.939   1.099   7.395 -0.3925 -0.4266  0.2884
  407MOL0     H54940   8.854   1.217   7.312 -0.5719 -0.8488  0.0883
  407MOL0     H54941   8.848   0.940   7.002  3.6348 -1.9191  0.5918
  407MOL0     H54942   9.543   1.291   7.219  0.0980 -0.4221 -2.1131
  407MOL0     H54943   9.707   1.410   7.394  1.7505  1.3851  1.6754
  407MOL0     H54944   9.784   1.399   7.230  0.6960  0.4563 -0.0944
  407MOL0     H54945   9.773   1.556   7.325 -0.3854 -0.3321  0.9439
  408MOL0     O54946  11.049   3.280   0.042  0.2098 -0.6239  0.4513
  408MOL0     C54947  10.953   3.332   0.096  0.4996  0.6741 -0.2781
  408MOL0     O54948  10.950   3.473   0.137  0.2139  0.2623 -0.2135
  408MOL0     C54949  11.049   3.550   0.089 -1.0819 -0.4221  0.2884
  408MOL0     C54950  11.187   3.520   0.112 -0.2775 -0.4659 -0.4805
  408MOL0     C54951  11.285   3.594   0.048 -0.5835  0.4950 -0.1927
  408MOL0     C54952  11.254   3.693  -0.039  0.8813 -0.3080 -0.6393
  408MOL0     O54953  11.359   3.762  -0.096  0.6290 -0.1495  0.0452
  408MOL0     C54954  11.380   3.895  -0.049 -0.0957 -0.1919  0.4741
  408MOL0     C54955  11.527   3.926  -0.084 -0.2869  0.2605  0.2535
  408MOL0     C54956  11.562   4.068  -0.041 -0.5828  0.6364  0.4103
  408MOL0     C54957  11.719   4.097  -0.071 -0.1196  0.7330  0.8047
  408MOL0     C54958  11.766   4.056  -0.213  1.0036 -0.4062 -0.3475
  408MOL0     C54959  11.842   4.167  -0.284  0.4515  0.3046  0.3949
  408MOL0     C54960  11.988   4.150  -0.273 -0.3238 -0.1283 -0.6435
  408MOL0     C54961  12.060   4.279  -0.328  0.3621 -0.5559  0.5072
  408MOL0     N54962  12.199   4.287  -0.308 -1.3119 -0.0681  0.6129
  408MOL0     C54963  12.304   4.207  -0.354  0.5353 -0.3105 -0.2762
  408MOL0     C54964  12.427   4.254  -0.321 -0.0115  0.1490  0.7523
  408MOL0     C54965  12.553   4.190  -0.349 -0.5048 -0.1912  0.0272
  408MOL0     C54966  12.618   4.154  -0.219 -0.3221 -0.0268  0.1757
  408MOL0     C54967  12.731   4.061  -0.233  0.0446 -0.7616  0.2017
  408MOL0     C54968  12.848   4.135  -0.304 -0.4521  0.1482  0.3682
  408MOL0     O54969  12.819   4.159  -0.443 -0.7465 -0.2579 -0.6290
  408MOL0     C54970  12.918   4.226  -0.511 -0.4967  0.1954  0.6122
  408MOL0     C54971  13.047   4.251  -0.466  0.6794 -0.7005  1.1082
  408MOL0     C54972  13.132   4.333  -0.548 -0.5142  0.4216 -0.6628
  408MOL0     C54973  13.094   4.379  -0.671 -0.2209 -0.1897  0.7983
  408MOL0     C54974  13.190   4.454  -0.758 -0.1806 -0.4049  0.7729
  408MOL0     O54975  13.302   4.498  -0.691 -0.4241  0.1035 -0.5800
  408MOL0     C54976  13.395   4.572  -0.757  0.3023 -0.2364 -0.2447
  408MOL0     C54977  13.370   4.665  -0.867 -0.2501  0.5900 -0.7931
  408MOL0     C54978  13.487   4.718  -0.926 -0.0149  0.0096  0.4421
  408MOL0     C54979  13.613   4.707  -0.872  0.3237 -0.6144  0.0569
  408MOL0     O54980  13.711   4.777  -0.939 -0.4329  0.1333  0.0527
  408MOL0     C54981  13.845   4.720  -0.950  0.2425  0.6101  0.1409
  408MOL0     C54982  13.854   4.608  -1.046  0.3197 -0.3409  0.3933
  408MOL0     C54983  13.772   4.626  -1.177 -0.2225 -0.6978 -0.9436
  408MOL0     C54984  13.836   4.727  -1.278 -0.4487  0.7919  0.5015
  408MOL0     C54985  13.810   4.686  -1.423 -0.4912 -0.4415  1.2092
  408MOL0     C54986  13.663   4.711  -1.450 -0.2958 -0.6276 -0.5205
  408MOL0     C54987  13.621   4.680  -1.602  0.2421 -0.0086  0.9014
  408MOL0     C54988  13.644   4.807  -1.687  0.6668  0.5081  0.3857
  408MOL0    Cl54989  13.821   4.833  -1.713 -0.0709  0.5159  0.0946
  408MOL0     C54990  13.630   4.630  -0.762 -0.6258 -0.1404 -0.8901
  408MOL0     C54991  13.524   4.563  -0.712  0.6857  0.4770  0.3259
  408MOL0     O54992  13.182   4.437  -0.878  0.0592 -0.8868 -0.4388
  408MOL0     C54993  12.964   4.346  -0.722  0.4276 -0.5624  0.5055
  408MOL0     C54994  12.884   4.267  -0.636 -0.2370  0.0216 -0.2796
  408MOL0     N54995  12.401   4.364  -0.245 -0.2864  0.6904  0.5008
  408MOL0     N54996  12.272   4.382  -0.233 -0.0382  0.2011 -0.0040
  408MOL0     C54997  11.121   3.714  -0.070  0.4856 -0.3346 -0.0009
  408MOL0     C54998  11.019   3.641  -0.003 -0.4399 -0.1668  0.8175
  408MOL0     C54999  10.833   3.252   0.116 -0.3623 -0.4545  0.0339
  408MOL0     C55000  10.846   3.119   0.077  0.6433 -0.7654 -0.2853
  408MOL0     C55001  10.746   3.020   0.099 -0.0481  0.0008 -0.0821
  408MOL0     C55002  10.618   3.065   0.144  0.5186  0.3651 -0.6451
  408MOL0     O55003  10.517   2.976   0.162  0.9764 -0.0577  0.6748
  408MOL0     C55004  10.516   2.857   0.084 -0.4563 -1.1468  0.6300
  408MOL0     C55005  10.384   2.792   0.093 -0.4442 -0.2979 -0.4404
  408MOL0     C55006  10.261   2.875   0.047  0.1398  0.2488 -1.4551
  408MOL0     C55007  10.297   2.949  -0.087  0.0039  0.8400 -0.1135
  408MOL0     C55008  10.174   2.987  -0.163 -0.2933  0.5222 -0.3841
  408MOL0     C55009  10.079   3.044  -0.199  0.4513 -1.4891  0.6574
  408MOL0     C55010  10.611   3.199   0.186  0.2275  0.5308  0.4570
  408MOL0     C55011  10.713   3.293   0.175  1.4616  0.5866 -0.5457
  408MOL0     C55012  10.701   3.425   0.248  0.5044  0.8236  0.4171
  408MOL0     H55013  11.197   3.444   0.188  0.4840 -0.5473 -0.6547
  408MOL0     H55014  11.392   3.578   0.061 -0.6962 -0.6884 -0.5525
  408MOL0     H55015  11.306   3.960  -0.098  0.2049 -1.8367 -2.4112
  408MOL0     H55016  11.365   3.899   0.059 -3.1452 -3.8544  0.4072
  408MOL0     H55017  11.539   3.915  -0.192  1.9539  0.4014  0.4404
  408MOL0     H55018  11.603   3.861  -0.040 -0.7209 -1.3095 -1.1877
  408MOL0     H55019  11.547   4.073   0.067  2.8250  0.3712  1.0223
  408MOL0     H55020  11.507   4.142  -0.099  0.2109  0.3175 -0.7768
  408MOL0     H55021  11.751   4.200  -0.056  3.5756 -0.2230  0.5502
  408MOL0     H55022  11.788   4.063   0.007 -0.0471  0.8855  0.8092
  408MOL0     H55023  11.820   3.962  -0.202 -0.9315 -1.4219  1.1321
  408MOL0     H55024  11.673   4.046  -0.271 -0.0876 -1.6305  1.5184
  408MOL0     H55025  11.824   4.156  -0.391  0.2052 -0.9001  0.5460
  408MOL0     H55026  11.802   4.261  -0.246 -0.8996 -0.3446  0.6211
  408MOL0     H55027  12.019   4.060  -0.327 -1.2827  0.5494 -2.4047
  408MOL0     H55028  12.010   4.147  -0.166  0.1163  2.1214 -0.6078
  408MOL0     H55029  12.029   4.283  -0.433 -0.7302  5.5473  0.7418
  408MOL0     H55030  12.020   4.370  -0.283  0.9224  0.4354 -0.9620
  408MOL0     H55031  12.294   4.117  -0.414 -2.4417  1.0202 -1.9594
  408MOL0     H55032  12.536   4.089  -0.387 -1.0743  0.3476 -1.2182
  408MOL0     H55033  12.624   4.252  -0.405 -1.6296  1.2622  0.1494
  408MOL0     H55034  12.651   4.242  -0.162  0.6219 -1.7949  2.5685
  408MOL0     H55035  12.550   4.114  -0.144  3.0862 -2.2449  2.4047
  408MOL0     H55036  12.692   3.976  -0.289 -2.8001  0.6850 -0.1698
  408MOL0     H55037  12.763   4.038  -0.130 -0.3163 -3.1277 -0.1644
  408MOL0     H55038  12.940   4.076  -0.294 -1.2807 -1.5882 -1.5488
  408MOL0     H55039  12.856   4.232  -0.253 -0.2110  0.6793 -0.6535
  408MOL0     H55040  13.081   4.230  -0.365  1.4344  0.1782  1.0432
  408MOL0     H55041  13.224   4.358  -0.496 -2.3187  1.8841  2.1207
  408MOL0     H55042  13.271   4.677  -0.911 -0.2136 -0.3252 -1.1461
  408MOL0     H55043  13.469   4.786  -1.009 -0.0330 -0.2034  0.2696
  408MOL0     H55044  13.899   4.803  -0.996 -1.7526  0.4473 -2.7220
  408MOL0     H55045  13.898   4.702  -0.856  1.3908  1.7416 -0.2461
  408MOL0     H55046  13.957   4.600  -1.083 -0.5222 -0.5277 -2.0802
  408MOL0     H55047  13.832   4.513  -0.996 -2.2284 -1.2785 -2.2590
  408MOL0     H55048  13.744   4.533  -1.228 -3.2304  0.6797 -2.0211
  408MOL0     H55049  13.669   4.655  -1.154 -0.4537 -2.5029  0.5840
  408MOL0     H55050  13.945   4.721  -1.266 -0.3113  0.6195 -0.7699
  408MOL0     H55051  13.802   4.829  -1.260 -1.1445  0.5226  0.7469
  408MOL0     H55052  13.826   4.580  -1.445 -0.6945 -0.2003 -0.1960
  408MOL0     H55053  13.882   4.733  -1.490  1.3815 -3.1796  1.1794
  408MOL0     H55054  13.610   4.642  -1.383 -2.3403 -1.6112 -2.9803
  408MOL0     H55055  13.624   4.809  -1.420  0.9906 -0.8486  2.1283
  408MOL0     H55056  13.518   4.642  -1.606  1.2965 -3.1873  1.1827
  408MOL0     H55057  13.679   4.598  -1.646 -1.4992  0.2955 -2.2217
  408MOL0     H55058  13.591   4.784  -1.780 -1.5878 -0.4186  1.7989
  408MOL0     H55059  13.600   4.899  -1.648 -1.0042 -0.0357 -0.1184
  408MOL0     H55060  13.724   4.620  -0.709 -0.4037 -1.5118 -1.4920
  408MOL0     H55061  13.547   4.502  -0.625  1.4643 -1.0155 -0.8789
  408MOL0     H55062  12.929   4.362  -0.823 -1.9123 -0.8912  1.2092
  408MOL0     H55063  12.792   4.234  -0.683  2.0999 -0.6501 -4.9002
  408MOL0     H55064  11.109   3.795  -0.142 -1.7327 -3.1798 -3.1407
  408MOL0     H55065  10.913   3.664  -0.011 -1.0935 -1.9840  2.9634
  408MOL0     H55066  10.942   3.086   0.039  0.3220 -0.5497 -1.3357
  408MOL0     H55067  10.764   2.920   0.060 -3.0112 -1.9987  3.1109
  408MOL0     H55068  10.606   2.796   0.100  0.3182 -0.4063 -0.7112
  408MOL0     H55069  10.520   2.891  -0.020 -0.8597  2.0161  1.5454
  408MOL0     H55070  10.363   2.769   0.198  0.4756  0.1246 -0.1531
  408MOL0     H55071  10.392   2.694   0.043  4.4653  0.2483 -1.1740
  408MOL0     H55072  10.231   2.945   0.125  0.4126 -0.2393 -0.8965
  408MOL0     H55073  10.179   2.803   0.042 -0.5680  0.6439  1.9666
  408MOL0     H55074  10.355   3.039  -0.067  2.3429 -0.9521  1.9564
  408MOL0     H55075  10.362   2.898  -0.159 -0.5749  0.5996 -0.4741
  408MOL0     H55076   9.990   3.088  -0.239  1.6787  0.1899 -0.3953
  408MOL0     H55077  10.510   3.223   0.215 -1.4401 -3.4548 -1.3304
  408MOL0     H55078  10.766   3.429   0.335 -1.5805 -0.4471  2.1409
  408MOL0     H55079  10.726   3.506   0.179  1.2939 -0.4043 -0.7787
  408MOL0     H55080  10.596   3.444   0.272 -0.5011 -0.1985 -2.7380
  409MOL0     O55081   7.084   2.740   2.900  0.3383 -0.4629  0.4717
  409MOL0     C55082   6.999   2.822   2.864  0.4674  1.1985  0.1236
  409MOL0     O55083   6.932   2.822   2.742 -0.1796  0.1995 -0.9382
  409MOL0     C55084   6.970   2.720   2.654 -0.2843  0.1061  0.6556
  409MOL0     C55085   7.062   2.746   2.554  0.1668  0.2916  0.4330
  409MOL0     C55086   7.078   2.646   2.455 -0.7453  0.1311 -0.4224
  409MOL0     C55087   7.018   2.523   2.458  0.1626 -0.2756 -0.2387
  409MOL0     O55088   7.035   2.426   2.368 -0.5056 -0.5504  0.6976
  409MOL0     C55089   7.169   2.378   2.363 -0.1725  0.2836 -0.4987
  409MOL0     C55090   7.193   2.261   2.454 -0.0001  0.0163 -0.2995
  409MOL0     C55091   7.123   2.128   2.425 -0.4074  0.5077 -0.0609
  409MOL0     C55092   7.137   2.039   2.543  0.1171 -0.0300  0.5394
  409MOL0     C55093   7.049   1.911   2.535 -0.4735 -0.1326 -0.3378
  409MOL0     C55094   7.032   1.837   2.661  1.1755 -0.7466  0.4580
  409MOL0     C55095   6.990   1.693   2.640 -0.4502 -0.0325 -0.0064
  409MOL0     C55096   6.971   1.629   2.782 -0.8278 -0.3470 -0.1655
  409MOL0     N55097   6.905   1.498   2.789 -0.5130 -0.2631 -0.5164
  409MOL0     C55098   6.961   1.379   2.815 -0.1578 -0.0831  0.3602
  409MOL0     C55099   6.860   1.286   2.815 -0.6753 -0.0741 -0.1202
  409MOL0     C55100   6.851   1.138   2.836 -0.3913 -0.2864  0.3984
  409MOL0     C55101   6.967   1.048   2.789 -0.8637 -0.4581 -0.2394
  409MOL0     C55102   6.921   0.906   2.740 -0.3773 -0.3419 -0.7383
  409MOL0     C55103   7.037   0.797   2.740  0.4801 -0.4883  0.3244
  409MOL0     O55104   7.151   0.842   2.667  0.0259 -1.0552  0.6462
  409MOL0     C55105   7.274   0.789   2.671  0.7451  0.3152  0.8938
  409MOL0     C55106   7.321   0.702   2.763  0.0467 -0.8615 -0.6574
  409MOL0     C55107   7.457   0.660   2.765  0.6733 -0.9021 -0.1240
  409MOL0     C55108   7.544   0.685   2.661  0.4143 -0.1419  0.0046
  409MOL0     C55109   7.672   0.619   2.659 -0.1695  0.0111  0.3129
  409MOL0     O55110   7.756   0.647   2.549 -0.2872 -0.5304 -0.6248
  409MOL0     C55111   7.879   0.592   2.556  0.1328  0.0392  0.0683
  409MOL0     C55112   7.906   0.454   2.517 -0.1732 -0.3339  0.7287
  409MOL0     C55113   8.030   0.396   2.541 -0.0290 -0.3840  0.0146
  409MOL0     C55114   8.144   0.470   2.595  1.2958  0.2824  0.5026
  409MOL0     O55115   8.264   0.419   2.620 -0.3085 -0.0789 -0.4034
  409MOL0     C55116   8.259   0.273   2.623 -0.8226 -0.7754  0.2177
  409MOL0     C55117   8.394   0.239   2.683 -0.0502  0.5658  0.2457
  409MOL0     C55118   8.417   0.087   2.656 -0.4907  0.4528  0.3433
  409MOL0     C55119   8.533   0.035   2.734  0.3484  0.0850  0.3052
  409MOL0     C55120   8.556  -0.115   2.709 -0.4044 -0.3345  0.2424
  409MOL0     C55121   8.660  -0.171   2.803 -0.1441 -0.3172  0.2543
  409MOL0     C55122   8.803  -0.146   2.775 -0.2225 -0.0101  0.7404
  409MOL0     C55123   8.872  -0.233   2.661  0.2310  0.3993  0.1579
  409MOL0    Cl55124   8.910  -0.397   2.719  0.1070  0.2804  0.1916
  409MOL0     C55125   8.120   0.604   2.627  0.2821 -0.4151 -0.3836
  409MOL0     C55126   7.989   0.657   2.615  0.7508  0.2229 -0.3870
  409MOL0     O55127   7.703   0.542   2.751  0.7233 -0.4222 -0.3419
  409MOL0     C55128   7.496   0.773   2.562  0.2087 -0.3587 -0.8961
  409MOL0     C55129   7.364   0.820   2.573  0.0354  0.0834 -0.5154
  409MOL0     N55130   6.739   1.359   2.783  0.2821  0.4571 -0.1785
  409MOL0     N55131   6.776   1.482   2.762 -0.0697 -0.4503 -0.0575
  409MOL0     C55132   6.925   2.493   2.565  0.6569 -0.1355  0.2528
  409MOL0     C55133   6.900   2.598   2.658  0.1001  0.0461  0.5127
  409MOL0     C55134   6.959   2.932   2.960 -0.4149  0.0556  0.0383
  409MOL0     C55135   6.828   2.977   2.945 -0.0714 -0.5545  0.0123
  409MOL0     C55136   6.778   3.073   3.034 -0.2597  0.2347 -0.5653
  409MOL0     C55137   6.854   3.150   3.119 -0.0654 -0.2074  0.3138
  409MOL0     O55138   6.820   3.261   3.193  0.3613 -0.9282 -0.6847
  409MOL0     C55139   6.680   3.300   3.208  0.4141  0.6460 -0.3185
  409MOL0     C55140   6.603   3.216   3.311 -0.8745 -0.5038  0.2193
  409MOL0     C55141   6.458   3.236   3.308 -0.0508 -0.1657  0.0899
  409MOL0     C55142   6.418   3.360   3.402 -0.0860  0.1799  0.5305
  409MOL0     C55143   6.285   3.410   3.348 -0.6545  0.4272  0.1733
  409MOL0     C55144   6.197   3.472   3.295  0.7169 -0.2202 -0.9714
  409MOL0     C55145   6.985   3.102   3.146  0.6000 -0.2347 -0.1391
  409MOL0     C55146   7.038   2.990   3.063 -0.4793 -0.3604  0.5436
  409MOL0     C55147   7.191   2.959   3.069  1.7960 -0.0754  0.1315
  409MOL0     H55148   7.118   2.838   2.546 -1.4300  1.1467 -2.0078
  409MOL0     H55149   7.154   2.667   2.381  1.6574  1.4207  2.2312
  409MOL0     H55150   7.188   2.343   2.261  1.5749  0.3051 -0.2136
  409MOL0     H55151   7.250   2.445   2.391  0.2358 -0.8569  1.1605
  409MOL0     H55152   7.152   2.288   2.551 -4.2872 -3.6217 -0.7801
  409MOL0     H55153   7.300   2.247   2.474  0.0187 -0.2443 -0.5702
  409MOL0     H55154   7.164   2.077   2.337 -1.3018 -1.3101  0.5124
  409MOL0     H55155   7.018   2.151   2.409 -0.4056  1.7567  1.5289
  409MOL0     H55156   7.239   1.999   2.550 -0.0593 -0.6701 -0.3857
  409MOL0     H55157   7.127   2.100   2.633  2.8455 -1.5049  1.9648
  409MOL0     H55158   6.949   1.929   2.495 -2.1518 -2.9687  2.1371
  409MOL0     H55159   7.099   1.850   2.460  0.5554 -2.0347  1.7865
  409MOL0     H55160   7.135   1.833   2.701  0.7428  0.9802  1.8741
  409MOL0     H55161   6.960   1.889   2.725 -1.4971 -0.3854 -2.6264
  409MOL0     H55162   7.065   1.637   2.584 -0.2088 -1.6112  1.7844
  409MOL0     H55163   6.901   1.677   2.578 -0.4429 -2.6082  0.5319
  409MOL0     H55164   7.068   1.610   2.829 -0.6548 -2.9575 -1.3720
  409MOL0     H55165   6.912   1.692   2.849  0.2488 -0.4396  0.9060
  409MOL0     H55166   7.068   1.365   2.827  0.3904  1.9543 -1.5016
  409MOL0     H55167   6.828   1.122   2.942  0.3978 -2.8038  0.2398
  409MOL0     H55168   6.767   1.104   2.775 -2.2220  1.1725  1.9588
  409MOL0     H55169   7.015   1.092   2.702  2.6237  4.2230  3.5153
  409MOL0     H55170   7.054   1.053   2.855 -0.7209  1.8172 -0.5223
  409MOL0     H55171   6.883   0.905   2.637 -0.3177 -2.1372 -0.7757
  409MOL0     H55172   6.846   0.886   2.818  0.8552 -0.5482  0.4237
  409MOL0     H55173   7.002   0.700   2.701 -1.7424  0.3307  0.1449
  409MOL0     H55174   7.064   0.783   2.845 -0.7596 -0.7959  0.6201
  409MOL0     H55175   7.257   0.684   2.849  1.4438  2.7763  1.3224
  409MOL0     H55176   7.489   0.609   2.855  2.3430 -0.7452 -0.5911
  409MOL0     H55177   7.824   0.392   2.482 -0.4024  0.5449 -0.3606
  409MOL0     H55178   8.029   0.289   2.524 -2.7790 -0.2398 -1.1627
  409MOL0     H55179   8.179   0.244   2.691 -1.6015  1.8231  0.5168
  409MOL0     H55180   8.240   0.225   2.527 -0.9922 -0.3900  0.0577
  409MOL0     H55181   8.477   0.284   2.627  1.7867 -4.1181 -1.2896
  409MOL0     H55182   8.400   0.269   2.788  3.2309  0.5429  0.1821
  409MOL0     H55183   8.332   0.032   2.696  1.3222 -1.0056  2.4153
  409MOL0     H55184   8.425   0.079   2.547 -1.1905  0.4234  0.2919
  409MOL0     H55185   8.511   0.046   2.841  2.5195  1.5361  0.6745
  409MOL0     H55186   8.621   0.093   2.703 -0.0265  0.1142 -0.7458
  409MOL0     H55187   8.588  -0.123   2.605 -0.0955  1.8377  0.1209
  409MOL0     H55188   8.459  -0.164   2.720 -0.3792 -0.4200  0.0831
  409MOL0     H55189   8.635  -0.161   2.909  1.9789  2.0960  0.6179
  409MOL0     H55190   8.649  -0.279   2.788 -1.2861 -0.2642  0.6423
  409MOL0     H55191   8.862  -0.160   2.866  0.0342  1.2095  0.7797
  409MOL0     H55192   8.818  -0.042   2.745  1.4582 -0.9450 -2.0528
  409MOL0     H55193   8.798  -0.241   2.580 -2.5809  0.0842  2.5811
  409MOL0     H55194   8.964  -0.189   2.623 -0.4146  1.1953 -0.5439
  409MOL0     H55195   8.192   0.671   2.672  1.1794  0.2622 -2.6629
  409MOL0     H55196   7.965   0.758   2.649  0.1625  0.2915 -0.9872
  409MOL0     H55197   7.561   0.803   2.480  3.4176  1.8903  2.1744
  409MOL0     H55198   7.317   0.886   2.501  0.1614 -0.4957 -1.1366
  409MOL0     H55199   6.883   2.393   2.571  2.1993 -0.7491  1.8105
  409MOL0     H55200   6.830   2.585   2.740 -0.8477 -0.2096 -0.3141
  409MOL0     H55201   6.764   2.937   2.867  0.5615 -0.4153 -0.5805
  409MOL0     H55202   6.673   3.096   3.020 -0.6420 -1.2323 -0.3374
  409MOL0     H55203   6.618   3.290   3.118 -1.8185 -1.8785  1.3263
  409MOL0     H55204   6.669   3.398   3.255 -0.5240 -0.3435  1.6682
  409MOL0     H55205   6.640   3.245   3.409  1.2336 -1.1477 -0.3470
  409MOL0     H55206   6.625   3.111   3.294 -0.4947 -0.0655 -2.3855
  409MOL0     H55207   6.401   3.152   3.347 -0.9170  0.5375  0.3839
  409MOL0     H55208   6.422   3.256   3.206 -0.6485  3.0966  0.8006
  409MOL0     H55209   6.407   3.321   3.503  0.6825  2.0486  1.3752
  409MOL0     H55210   6.494   3.440   3.398  2.2255 -1.8907  0.3359
  409MOL0     H55211   6.127   3.540   3.253  1.1723  0.7760 -0.1747
  409MOL0     H55212   7.048   3.156   3.216  0.3239 -0.1125  0.0140
  409MOL0     H55213   7.208   2.856   3.103  2.9111 -0.5090 -1.6247
  409MOL0     H55214   7.241   2.969   2.972  1.0802 -2.5063 -0.5682
  409MOL0     H55215   7.244   3.028   3.136  2.3822  0.4128 -0.8185
  410MOL0     O55216  10.654   3.697   9.326  0.4858  0.8398 -0.4091
  410MOL0     C55217  10.566   3.753   9.257 -0.2830 -0.6498  0.0135
  410MOL0     O55218  10.574   3.752   9.117  0.0433 -0.3781  0.5021
  410MOL0     C55219  10.657   3.662   9.056  0.2732  0.2424  0.0610
  410MOL0     C55220  10.756   3.705   8.962 -0.1051  0.3911 -0.5302
  410MOL0     C55221  10.863   3.621   8.921  0.1290 -0.0355 -0.2619
  410MOL0     C55222  10.858   3.486   8.955 -0.5005  0.0721 -1.0627
  410MOL0     O55223  10.938   3.392   8.895 -0.1775 -0.1236  0.1648
  410MOL0     C55224  11.036   3.443   8.794 -0.5182  0.6514 -0.3381
  410MOL0     C55225  11.111   3.321   8.720 -0.3962 -0.2599 -0.1439
  410MOL0     C55226  11.203   3.245   8.816 -0.2233 -0.9136 -0.6145
  410MOL0     C55227  11.341   3.211   8.751  0.5568 -0.5056 -0.6174
  410MOL0     C55228  11.430   3.092   8.806  0.2397 -0.1546  0.4115
  410MOL0     C55229  11.582   3.104   8.769 -0.5239 -0.5373  0.4669
  410MOL0     C55230  11.598   3.091   8.613  0.4087  0.9923  0.5681
  410MOL0     C55231  11.740   3.126   8.557  1.0700 -0.2317 -0.3779
  410MOL0     N55232  11.728   3.106   8.412  0.2438  0.3172  0.1882
  410MOL0     C55233  11.709   3.210   8.329  0.2712 -0.0861 -0.4080
  410MOL0     C55234  11.703   3.155   8.206  1.5824  0.3154  0.5254
  410MOL0     C55235  11.671   3.238   8.078 -0.3269 -0.2700 -0.4538
  410MOL0     C55236  11.653   3.137   7.958  0.9119  0.2961 -0.6706
  410MOL0     C55237  11.613   3.225   7.831  0.0753  0.8400  0.2312
  410MOL0     C55238  11.618   3.141   7.704  0.3576 -0.0546 -0.3750
  410MOL0     O55239  11.497   3.061   7.698 -0.9458  0.2506 -0.6529
  410MOL0     C55240  11.378   3.114   7.664 -0.0102 -0.4150  0.1308
  410MOL0     C55241  11.263   3.042   7.685 -0.8410  0.1322 -0.3329
  410MOL0     C55242  11.134   3.095   7.658 -0.0631 -0.4222 -0.0304
  410MOL0     C55243  11.118   3.221   7.596 -0.7015  0.0216 -0.1799
  410MOL0     C55244  10.987   3.286   7.567  0.0358 -0.5968 -0.5039
  410MOL0     O55245  10.972   3.344   7.446  0.3109  0.4268  0.2839
  410MOL0     C55246  10.851   3.385   7.399 -0.9989  0.8195 -0.0732
  410MOL0     C55247  10.856   3.395   7.256  0.3300  0.5989 -0.7943
  410MOL0     C55248  10.740   3.437   7.192  0.0607 -0.4861 -0.0293
  410MOL0     C55249  10.620   3.466   7.263  0.8222  0.1626 -0.3699
  410MOL0     O55250  10.501   3.497   7.188 -0.5849 -0.8989  0.0556
  410MOL0     C55251  10.387   3.504   7.268  0.0131  0.4180  0.0349
  410MOL0     C55252  10.254   3.530   7.181 -0.2838  0.4798 -0.1951
  410MOL0     C55253  10.126   3.515   7.262  0.0832  0.9520  0.0396
  410MOL0     C55254  10.010   3.569   7.179  0.1051 -0.5053 -0.1579
  410MOL0     C55255   9.873   3.552   7.241 -0.8717  0.0099  0.2999
  410MOL0     C55256   9.767   3.582   7.127 -0.7814 -0.9132  0.4776
  410MOL0     C55257   9.630   3.575   7.184  0.5223  0.1139 -0.3637
  410MOL0     C55258   9.542   3.631   7.076  0.3412 -0.6425  0.3665
  410MOL0    Cl55259   9.371   3.668   7.139  0.6829  0.3069 -0.1092
  410MOL0     C55260  10.620   3.452   7.398 -0.2113  0.4177 -0.4864
  410MOL0     C55261  10.730   3.419   7.466 -0.7918  0.2532 -0.4572
  410MOL0     O55262  10.908   3.270   7.657 -0.0696 -0.2430 -0.0656
  410MOL0     C55263  11.242   3.281   7.554 -0.4303 -0.5724 -0.5335
  410MOL0     C55264  11.371   3.230   7.590  0.1785 -0.3893  0.4432
  410MOL0     N55265  11.731   3.018   8.213 -0.3863  0.0845  0.3367
  410MOL0     N55266  11.752   2.997   8.339  0.3618  0.1170  0.4747
  410MOL0     C55267  10.763   3.441   9.046  0.9272 -0.4644 -0.5364
  410MOL0     C55268  10.665   3.530   9.097 -0.4705  0.0791  0.4486
  410MOL0     C55269  10.460   3.832   9.336  0.4525  0.7799  0.0996
  410MOL0     C55270  10.490   3.946   9.418  0.2266 -0.6143 -0.6637
  410MOL0     C55271  10.388   4.030   9.467  0.0170  0.1648  0.6848
  410MOL0     C55272  10.264   4.014   9.419  0.3174 -0.4221 -0.5001
  410MOL0     O55273  10.168   4.094   9.442  0.7974 -0.2483  0.4127
  410MOL0     C55274  10.182   4.191   9.552  0.8021  0.5215 -0.1398
  410MOL0     C55275  10.060   4.284   9.544  0.0700  0.2564  0.7829
  410MOL0     C55276   9.952   4.236   9.649  0.1625  0.0432  1.0439
  410MOL0     C55277   9.863   4.121   9.599  0.1335 -0.6584 -0.1323
  410MOL0     C55278   9.762   4.171   9.506 -0.7492 -0.3150  0.7515
  410MOL0     C55279   9.677   4.199   9.416 -0.6597  0.5479 -1.2534
  410MOL0     C55280  10.231   3.924   9.324 -0.1504 -0.6176  0.1358
  410MOL0     C55281  10.317   3.822   9.297 -0.0988  0.0120 -0.8828
  410MOL0     C55282  10.279   3.718   9.202 -0.8640 -1.0517 -0.2586
  410MOL0     H55283  10.756   3.801   8.912  1.9807 -1.2324 -4.0335
  410MOL0     H55284  10.938   3.661   8.854  0.8033  1.7717  1.4987
  410MOL0     H55285  10.990   3.500   8.714  0.9572  4.5412  1.3373
  410MOL0     H55286  11.107   3.514   8.839  0.5439 -1.3593  1.3959
  410MOL0     H55287  11.161   3.357   8.630 -2.4621 -1.3110 -1.7912
  410MOL0     H55288  11.034   3.251   8.687  0.4084 -1.2403  0.0082
  410MOL0     H55289  11.159   3.149   8.846  0.6869 -1.5375 -1.2140
  410MOL0     H55290  11.218   3.300   8.909 -2.2249  0.7783 -1.2054
  410MOL0     H55291  11.329   3.184   8.645 -4.9321  0.7648 -0.6220
  410MOL0     H55292  11.396   3.306   8.750 -0.1369 -0.0963 -0.5257
  410MOL0     H55293  11.429   3.098   8.916  0.9134 -0.0102  0.4125
  410MOL0     H55294  11.387   2.995   8.779 -2.1645  1.1235 -0.6393
  410MOL0     H55295  11.630   3.198   8.800 -0.9719  0.2186 -1.0708
  410MOL0     H55296  11.646   3.033   8.823  1.6614  0.5855 -0.5104
  410MOL0     H55297  11.527   3.159   8.566  1.0002 -0.9494 -3.5331
  410MOL0     H55298  11.573   2.991   8.578 -2.9787  2.9210 -3.3973
  410MOL0     H55299  11.755   3.229   8.591 -3.7272  0.3882  0.5756
  410MOL0     H55300  11.822   3.068   8.600 -2.2709 -3.7202  1.8573
  410MOL0     H55301  11.699   3.316   8.352  0.8471 -0.3550  1.1369
  410MOL0     H55302  11.581   3.299   8.094  1.2795  2.8926 -2.4618
  410MOL0     H55303  11.751   3.311   8.062 -0.4628  0.1092  0.5605
  410MOL0     H55304  11.744   3.078   7.941  0.5033 -0.9267  1.0880
  410MOL0     H55305  11.574   3.065   7.981  1.6673  0.0997  1.5410
  410MOL0     H55306  11.684   3.308   7.819  2.3743 -0.9266  0.9363
  410MOL0     H55307  11.517   3.277   7.839 -1.2573 -1.1082 -1.7789
  410MOL0     H55308  11.707   3.077   7.715  0.8970  0.7921  0.3551
  410MOL0     H55309  11.641   3.200   7.615  0.7420 -3.9122 -3.0641
  410MOL0     H55310  11.283   2.956   7.748  3.0720  2.5247  2.1301
  410MOL0     H55311  11.052   3.037   7.699 -0.7886  1.0049  0.6241
  410MOL0     H55312  10.947   3.370   7.202  0.6921 -2.2503  0.9477
  410MOL0     H55313  10.754   3.442   7.084  0.8439  0.1069  0.0873
  410MOL0     H55314  10.369   3.403   7.308 -3.4260  1.7048  2.2783
  410MOL0     H55315  10.390   3.576   7.350 -0.2511  0.3174  0.1367
  410MOL0     H55316  10.257   3.627   7.132  2.1039 -0.7681 -2.8406
  410MOL0     H55317  10.254   3.460   7.096 -5.2083  0.9257 -0.8256
  410MOL0     H55318  10.093   3.415   7.292 -4.0709  1.8658 -0.8414
  410MOL0     H55319  10.137   3.567   7.357 -0.9183  0.5661  0.3839
  410MOL0     H55320  10.013   3.506   7.089  1.4119  0.4345 -0.8037
  410MOL0     H55321  10.034   3.673   7.158  4.3523 -0.5163  3.1436
  410MOL0     H55322   9.864   3.624   7.323  2.1264  2.0560 -0.9560
  410MOL0     H55323   9.861   3.451   7.282 -0.2898 -0.8724 -1.5757
  410MOL0     H55324   9.796   3.682   7.094 -0.7636 -1.0847 -0.0419
  410MOL0     H55325   9.782   3.516   7.041 -0.0851  1.1406 -1.0563
  410MOL0     H55326   9.623   3.640   7.272 -1.1459 -0.5908  0.0474
  410MOL0     H55327   9.608   3.475   7.220  0.4440  0.6286  1.0874
  410MOL0     H55328   9.583   3.730   7.055  3.1791 -2.1454 -1.9165
  410MOL0     H55329   9.538   3.568   6.987  0.5797 -0.5189  0.2697
  410MOL0     H55330  10.541   3.450   7.473  0.6371 -0.3858  0.4044
  410MOL0     H55331  10.726   3.391   7.570  0.3576 -1.4438 -0.8224
  410MOL0     H55332  11.235   3.372   7.495  0.7505 -0.0358  0.1206
  410MOL0     H55333  11.468   3.267   7.558  0.7349 -3.1491 -1.4820
  410MOL0     H55334  10.764   3.338   9.078  0.9340  0.8644  4.7821
  410MOL0     H55335  10.593   3.482   9.163 -1.3595 -1.3902 -1.5016
  410MOL0     H55336  10.593   3.956   9.449  0.6816 -0.0464 -2.2513
  410MOL0     H55337  10.410   4.105   9.543  0.3563  2.1156 -1.2204
  410MOL0     H55338  10.265   4.261   9.541 -1.1281  3.5195  2.6184
  410MOL0     H55339  10.202   4.146   9.650  4.3425  1.4022 -0.3256
  410MOL0     H55340  10.021   4.278   9.442 -2.8205  0.2974  1.7980
  410MOL0     H55341  10.084   4.390   9.556  2.7033  0.0390 -1.4671
  410MOL0     H55342   9.900   4.326   9.683  0.3804  0.5817  0.0024
  410MOL0     H55343  10.008   4.201   9.736 -1.6065 -1.0284  1.8071
  410MOL0     H55344   9.923   4.041   9.556 -1.0076 -0.8869 -1.3613
  410MOL0     H55345   9.801   4.071   9.674 -0.6461 -2.9950 -2.1893
  410MOL0     H55346   9.605   4.206   9.337  0.0318 -0.1055 -1.9630
  410MOL0     H55347  10.134   3.926   9.275 -0.7572 -0.8423  1.3088
  410MOL0     H55348  10.219   3.768   9.125  1.8942  1.3546 -1.0009
  410MOL0     H55349  10.363   3.677   9.146  1.4989  1.6173  1.0903
  410MOL0     H55350  10.215   3.641   9.246 -2.4513 -1.8431 -3.5649
  411MOL0     O55351  10.734   3.281   5.031  0.6082 -0.4451 -0.0506
  411MOL0     C55352  10.725   3.229   4.920 -0.5642 -0.1734 -0.2939
  411MOL0     O55353  10.604   3.214   4.853  0.5232 -0.2653 -0.0419
  411MOL0     C55354  10.486   3.277   4.899  0.3512  0.0142 -1.0992
  411MOL0     C55355  10.470   3.378   4.994 -0.3230  0.4562  0.1558
  411MOL0     C55356  10.347   3.423   5.025  0.3349 -0.5762  0.4440
  411MOL0     C55357  10.236   3.376   4.970  0.3173 -0.1948  0.1579
  411MOL0     O55358  10.116   3.440   5.009 -0.1357  0.1341 -0.2690
  411MOL0     C55359   9.998   3.381   4.961  0.9341 -0.0324 -0.7337
  411MOL0     C55360   9.890   3.477   5.005  0.4634 -0.5636  0.6016
  411MOL0     C55361   9.879   3.605   4.925 -0.0376 -0.4828  1.5872
  411MOL0     C55362   9.749   3.686   4.943 -0.5954 -0.6278 -0.4403
  411MOL0     C55363   9.750   3.815   4.882 -0.3864 -0.3245  0.3480
  411MOL0     C55364   9.641   3.916   4.911 -0.1809 -0.3913 -0.7200
  411MOL0     C55365   9.513   3.903   4.821  0.4025  0.2408 -0.2269
  411MOL0     C55366   9.423   4.025   4.853 -1.0437  1.1674  0.5947
  411MOL0     N55367   9.350   4.013   4.984 -0.3663  0.0949  1.1295
  411MOL0     C55368   9.408   4.050   5.106 -0.8331 -0.4792  0.1365
  411MOL0     C55369   9.329   3.997   5.205 -0.6095 -0.8043 -0.7828
  411MOL0     C55370   9.326   4.028   5.342 -1.3333  0.5924 -0.4790
  411MOL0     C55371   9.214   4.117   5.373 -0.0332 -0.0541 -0.1356
  411MOL0     C55372   9.185   4.158   5.522 -0.3994 -0.5088 -0.8522
  411MOL0     C55373   9.058   4.244   5.529  0.2564  0.1284 -0.1736
  411MOL0     O55374   8.945   4.166   5.571 -0.3240  0.2152 -0.1981
  411MOL0     C55375   8.920   4.157   5.704  0.9734  0.2132 -0.1618
  411MOL0     C55376   8.786   4.147   5.748  0.6716  0.1341  0.5284
  411MOL0     C55377   8.739   4.122   5.882 -0.0669  0.2975 -0.4206
  411MOL0     C55378   8.835   4.095   5.978 -0.1397  0.2923 -0.5198
  411MOL0     C55379   8.801   4.081   6.124  1.3937  0.5677  0.4894
  411MOL0     O55380   8.900   4.118   6.205 -0.4701 -0.0451 -0.8379
  411MOL0     C55381   8.888   4.091   6.339  0.2828  0.1031 -0.5053
  411MOL0     C55382   8.869   4.194   6.433 -0.1874  0.7417 -0.6167
  411MOL0     C55383   8.884   4.162   6.571 -0.9581  0.1775  0.0775
  411MOL0     C55384   8.902   4.039   6.611  0.4994  0.7366  0.7868
  411MOL0     O55385   8.896   4.017   6.746 -0.3046  0.7983  0.4896
  411MOL0     C55386   8.885   3.891   6.816  0.6539  0.7114  0.5973
  411MOL0     C55387   8.784   3.892   6.920  0.0947 -0.4761 -0.0803
  411MOL0     C55388   8.650   3.944   6.864 -0.0382  0.8932 -0.0384
  411MOL0     C55389   8.536   3.951   6.966  0.0690  0.9839 -0.5542
  411MOL0     C55390   8.407   3.979   6.900  1.1165 -0.5514 -0.3734
  411MOL0     C55391   8.363   3.859   6.810  0.3808 -0.4463 -0.6150
  411MOL0     C55392   8.205   3.845   6.802 -1.2414  0.3115 -0.0467
  411MOL0     C55393   8.170   3.705   6.746  0.3693  0.4827  0.0767
  411MOL0    Cl55394   8.160   3.582   6.883 -0.1853  0.2046 -0.0342
  411MOL0     C55395   8.904   3.929   6.516 -0.4752  0.0786  0.4462
  411MOL0     C55396   8.902   3.963   6.381  0.5307  0.1985  0.5571
  411MOL0     O55397   8.690   4.034   6.160  0.5693  0.4227 -0.3795
  411MOL0     C55398   8.972   4.107   5.936 -0.2475  0.0488  0.1750
  411MOL0     C55399   9.017   4.132   5.802  0.8412  0.5517  0.2319
  411MOL0     N55400   9.229   3.926   5.140  0.0360  0.1225 -0.0793
  411MOL0     N55401   9.240   3.937   5.013  1.0710 -1.0348  0.0190
  411MOL0     C55402  10.244   3.276   4.873  0.3058 -0.2857 -0.2858
  411MOL0     C55403  10.370   3.226   4.840  0.6150 -1.0004 -0.4098
  411MOL0     C55404  10.851   3.190   4.856 -0.2788 -0.6925  0.3398
  411MOL0     C55405  10.857   3.125   4.735  0.2061  0.6734 -0.2360
  411MOL0     C55406  10.971   3.101   4.663 -0.4132  0.6625 -0.0122
  411MOL0     C55407  11.097   3.142   4.713 -0.0478 -0.7514 -0.1811
  411MOL0     O55408  11.229   3.148   4.658  0.2187  0.1551  0.4204
  411MOL0     C55409  11.231   3.082   4.530  0.6820 -0.5974  0.4578
  411MOL0     C55410  11.265   2.933   4.563  0.5542  0.1202 -0.4285
  411MOL0     C55411  11.392   2.904   4.645  1.2935  0.2290 -0.5850
  411MOL0     C55412  11.422   2.751   4.655  1.0156 -0.4977 -0.2237
  411MOL0     C55413  11.530   2.708   4.743  0.0098  0.9874 -0.0491
  411MOL0     C55414  11.623   2.666   4.814  0.9688 -0.3244  0.4637
  411MOL0     C55415  11.089   3.212   4.835  0.6639  1.1926 -0.5476
  411MOL0     C55416  10.980   3.237   4.905 -0.1929 -0.4407 -1.0665
  411MOL0     C55417  11.005   3.312   5.037 -0.1856 -0.0977  0.6101
  411MOL0     H55418  10.557   3.425   5.039  1.3222 -2.3078  0.0796
  411MOL0     H55419  10.334   3.505   5.096  0.9380 -1.0851  1.1591
  411MOL0     H55420   9.997   3.385   4.852 -0.4769  1.4132 -0.7075
  411MOL0     H55421   9.992   3.274   4.984  2.9528 -0.4152 -1.7445
  411MOL0     H55422   9.882   3.483   5.114  3.3713  1.0897  0.8111
  411MOL0     H55423   9.793   3.429   4.990 -0.7389  0.8588  3.0863
  411MOL0     H55424   9.897   3.580   4.821  0.4875  0.8790  1.3237
  411MOL0     H55425   9.965   3.670   4.944  0.6653 -0.6899 -0.6384
  411MOL0     H55426   9.662   3.635   4.901  0.0154 -2.1040  0.0279
  411MOL0     H55427   9.739   3.699   5.052  3.0772 -0.7008  0.0062
  411MOL0     H55428   9.843   3.852   4.926  0.8691 -2.3970 -0.4105
  411MOL0     H55429   9.769   3.795   4.776  1.4958 -1.8414  0.9008
  411MOL0     H55430   9.606   3.899   5.013  1.4515 -4.4687 -0.6352
  411MOL0     H55431   9.696   4.011   4.912  1.4945 -1.3193 -0.5010
  411MOL0     H55432   9.453   3.815   4.847 -2.0690  1.9782  0.2753
  411MOL0     H55433   9.532   3.911   4.713  2.5163  1.4214  0.1814
  411MOL0     H55434   9.487   4.112   4.842 -2.4652  2.0574 -1.0729
  411MOL0     H55435   9.341   4.042   4.784  1.4515  0.7298 -2.7105
  411MOL0     H55436   9.494   4.114   5.122  0.0769 -1.6788  0.1810
  411MOL0     H55437   9.329   3.942   5.409  0.9427  0.1270 -1.0974
  411MOL0     H55438   9.421   4.080   5.359 -1.1324 -0.3757  1.6938
  411MOL0     H55439   9.225   4.215   5.326 -0.6454  2.4262  4.4024
  411MOL0     H55440   9.122   4.071   5.336 -0.0515  1.2269 -1.8239
  411MOL0     H55441   9.271   4.216   5.556 -0.7892  0.6254 -1.7713
  411MOL0     H55442   9.173   4.071   5.588 -3.0703  0.6471  0.3305
  411MOL0     H55443   9.049   4.273   5.424  2.7909  1.3438 -0.1374
  411MOL0     H55444   9.069   4.334   5.591 -3.0339  0.1271  0.5953
  411MOL0     H55445   8.716   4.167   5.668  1.9895  3.5739  0.0678
  411MOL0     H55446   8.632   4.119   5.899 -0.0218 -1.6678 -0.2562
  411MOL0     H55447   8.851   4.299   6.413  0.0205  0.7612 -0.7118
  411MOL0     H55448   8.883   4.239   6.648  1.7241  0.1962  0.2028
  411MOL0     H55449   8.853   3.814   6.745 -4.7529  0.5510  2.7318
  411MOL0     H55450   8.984   3.858   6.850  1.0908  2.0779  0.6941
  411MOL0     H55451   8.788   3.798   6.974 -1.1801 -0.2074  0.5177
  411MOL0     H55452   8.823   3.958   6.998 -0.3476 -0.7093  0.3365
  411MOL0     H55453   8.664   4.045   6.825 -4.2182  1.7055  0.1342
  411MOL0     H55454   8.625   3.873   6.785 -1.3939 -1.3376  2.2461
  411MOL0     H55455   8.559   4.029   7.039  1.8380 -0.5103  0.5797
  411MOL0     H55456   8.519   3.865   7.031  1.7883  0.4768 -0.7479
  411MOL0     H55457   8.417   4.075   6.849  4.0891 -1.7510 -2.3183
  411MOL0     H55458   8.330   4.002   6.975  0.1369  2.0354 -2.0298
  411MOL0     H55459   8.400   3.873   6.708  0.0037  0.0223 -0.6896
  411MOL0     H55460   8.407   3.767   6.852  0.7696 -0.5498 -1.2361
  411MOL0     H55461   8.167   3.925   6.738 -0.9717 -0.4795 -1.2395
  411MOL0     H55462   8.146   3.846   6.894 -3.9469 -0.6103 -1.6492
  411MOL0     H55463   8.076   3.705   6.691 -0.7048 -1.6058  1.7994
  411MOL0     H55464   8.249   3.666   6.681 -1.0541  2.4271 -3.0855
  411MOL0     H55465   8.911   3.822   6.536 -0.9346  0.4655  3.0857
  411MOL0     H55466   8.929   3.895   6.300 -1.2882 -0.7970  0.7367
  411MOL0     H55467   9.054   4.085   6.004  1.0729  2.1679 -0.6500
  411MOL0     H55468   9.123   4.139   5.779  1.2954 -1.2895  1.5369
  411MOL0     H55469  10.161   3.235   4.816 -0.1609  2.4422 -1.7450
  411MOL0     H55470  10.372   3.134   4.782 -0.7052 -2.4229  1.6562
  411MOL0     H55471  10.770   3.099   4.675  0.1361  3.5999 -1.6105
  411MOL0     H55472  10.965   3.055   4.565 -0.8037  4.6081 -2.0279
  411MOL0     H55473  11.308   3.131   4.470  0.0809  4.6398  3.3962
  411MOL0     H55474  11.139   3.097   4.473 -0.2974 -1.8994  1.6218
  411MOL0     H55475  11.291   2.875   4.474 -2.6573 -1.7583 -0.2894
  411MOL0     H55476  11.168   2.897   4.600  1.0158 -2.0223 -1.1442
  411MOL0     H55477  11.386   2.958   4.740  1.2603  1.7474 -1.4287
  411MOL0     H55478  11.477   2.949   4.592  1.9982  1.0066  1.1401
  411MOL0     H55479  11.328   2.702   4.681  0.6031  0.9400  1.1468
  411MOL0     H55480  11.445   2.718   4.553 -0.3964  0.8501 -1.0202
  411MOL0     H55481  11.700   2.625   4.877  1.5167  2.1391  1.5069
  411MOL0     H55482  11.187   3.248   4.868  0.0740  1.4725  0.9771
  411MOL0     H55483  11.107   3.292   5.072  0.0654  2.1931  1.3826
  411MOL0     H55484  10.981   3.419   5.035  0.9024  0.2353  2.3218
  411MOL0     H55485  10.947   3.267   5.118  1.0674 -0.4098  1.3570
  412MOL0     O55486   3.781  10.728   2.663  0.7839 -0.5146  0.3161
  412MOL0     C55487   3.836  10.618   2.658 -0.2274  0.3011 -0.4363
  412MOL0     O55488   3.842  10.527   2.764 -0.3654 -0.0442 -0.0230
  412MOL0     C55489   3.796  10.564   2.888 -0.1147 -0.6217 -0.5400
  412MOL0     C55490   3.857  10.664   2.966 -0.1879 -0.1760 -0.0563
  412MOL0     C55491   3.808  10.685   3.094  0.0668 -0.0712 -0.1393
  412MOL0     C55492   3.701  10.618   3.152 -0.1980  0.2300  0.2331
  412MOL0     O55493   3.653  10.640   3.279 -0.2578  0.9183  0.4882
  412MOL0     C55494   3.697  10.754   3.349  0.0452 -0.0908  0.0399
  412MOL0     C55495   3.614  10.796   3.475  0.5275 -0.1363 -0.5950
  412MOL0     C55496   3.598  10.674   3.565  0.9973 -0.6387  0.8887
  412MOL0     C55497   3.446  10.629   3.561 -0.8668 -0.4859  0.0215
  412MOL0     C55498   3.402  10.511   3.655 -0.6397  0.4138  0.8256
  412MOL0     C55499   3.390  10.523   3.810 -0.1142  0.0626 -0.1883
  412MOL0     C55500   3.372  10.389   3.885 -0.7940 -0.6036 -0.0506
  412MOL0     C55501   3.411  10.389   4.028  0.5589 -0.0581  0.3026
  412MOL0     N55502   3.386  10.256   4.088  0.2167 -0.8343  0.5508
  412MOL0     C55503   3.283  10.226   4.177  0.3487 -1.1748  0.2067
  412MOL0     C55504   3.268  10.096   4.179  1.2435  0.3970 -1.2335
  412MOL0     C55505   3.150  10.019   4.237  0.6485 -0.9571 -0.0209
  412MOL0     C55506   3.028   9.990   4.140  0.4675  0.3797 -0.4016
  412MOL0     C55507   2.916   9.923   4.219  0.4051  1.0142  0.3110
  412MOL0     C55508   2.922   9.787   4.295  0.4696 -0.4927  0.4995
  412MOL0     O55509   2.951   9.675   4.204 -0.4800 -0.7438  0.6579
  412MOL0     C55510   3.020   9.572   4.252  0.2330  0.4345 -0.7038
  412MOL0     C55511   3.073   9.488   4.158 -1.2495 -0.3835  1.2487
  412MOL0     C55512   3.155   9.379   4.191 -0.4466 -0.1922 -0.5063
  412MOL0     C55513   3.176   9.341   4.324  0.0444  0.4051 -0.4852
  412MOL0     C55514   3.254   9.220   4.365  0.8726 -0.8539 -0.2615
  412MOL0     O55515   3.328   9.162   4.266 -0.8048 -0.1131 -0.2792
  412MOL0     C55516   3.438   9.087   4.309  0.2466 -0.1751  0.4474
  412MOL0     C55517   3.564   9.153   4.334  0.0008 -0.0420 -0.0392
  412MOL0     C55518   3.673   9.070   4.368 -0.1084  1.1901 -0.1008
  412MOL0     C55519   3.663   8.926   4.387 -0.6527 -0.5577  0.8103
  412MOL0     O55520   3.770   8.846   4.429  0.3730 -0.3072  0.1449
  412MOL0     C55521   3.904   8.873   4.378  0.1568  0.4267 -0.6466
  412MOL0     C55522   4.015   8.827   4.467  1.0194 -0.4519 -0.0090
  412MOL0     C55523   4.007   8.863   4.618  0.2472 -0.7683  0.2721
  412MOL0     C55524   4.145   8.853   4.660 -0.8029 -0.4819  0.2759
  412MOL0     C55525   4.155   8.846   4.810  0.4860 -0.0809 -1.2562
  412MOL0     C55526   4.302   8.859   4.850  0.5378  0.1203 -0.2440
  412MOL0     C55527   4.326   8.837   5.002  0.0944 -0.4835  0.0389
  412MOL0     C55528   4.460   8.918   5.025  0.3379 -0.1018 -0.9265
  412MOL0    Cl55529   4.543   8.893   5.187 -0.0922 -0.0520  0.4690
  412MOL0     C55530   3.532   8.871   4.364  0.2615 -0.2982 -0.8057
  412MOL0     C55531   3.427   8.954   4.328  0.3632  0.8526  1.0415
  412MOL0     O55532   3.238   9.177   4.481  0.2863  0.0993  0.9161
  412MOL0     C55533   3.102   9.413   4.425 -0.9899  0.3931 -0.7918
  412MOL0     C55534   3.029   9.535   4.391 -0.0973 -0.3313  0.2506
  412MOL0     N55535   3.371  10.042   4.111  0.0944 -0.5535 -0.6702
  412MOL0     N55536   3.438  10.136   4.050 -0.0592  0.2079  0.3906
  412MOL0     C55537   3.637  10.518   3.070 -0.4497  0.5859 -0.1342
  412MOL0     C55538   3.680  10.496   2.944  0.0352  0.1941  0.0431
  412MOL0     C55539   3.908  10.576   2.532 -0.3357 -1.1169 -0.3649
  412MOL0     C55540   3.994  10.462   2.541 -0.3976 -0.0518 -1.2668
  412MOL0     C55541   4.070  10.420   2.430 -0.4346 -0.0607 -0.1831
  412MOL0     C55542   4.057  10.474   2.304  0.5099  1.3417  0.3618
  412MOL0     O55543   4.135  10.415   2.209  0.3152  0.9570 -0.0108
  412MOL0     C55544   4.196  10.497   2.119 -0.3700  0.3183 -0.3096
  412MOL0     C55545   4.332  10.431   2.083 -0.3519  0.0647 -0.0878
  412MOL0     C55546   4.423  10.536   2.008  1.0710  0.4483 -0.1946
  412MOL0     C55547   4.556  10.465   1.963  0.4837  0.2131  0.6610
  412MOL0     C55548   4.526  10.374   1.853 -0.0807  0.2837 -0.1592
  412MOL0     C55549   4.489  10.308   1.756 -0.2987  0.0877 -0.7636
  412MOL0     C55550   3.974  10.582   2.293  0.7855 -0.2590  0.0995
  412MOL0     C55551   3.898  10.640   2.405 -0.8653  0.0594 -0.2128
  412MOL0     C55552   3.794  10.750   2.375  0.2123 -0.5877 -0.1244
  412MOL0     H55553   3.939  10.715   2.918  1.0901 -2.1817 -0.0908
  412MOL0     H55554   3.861  10.752   3.161  3.1348  0.3371 -2.7479
  412MOL0     H55555   3.786  10.723   3.405 -0.4976 -0.4200  0.7383
  412MOL0     H55556   3.703  10.848   3.294 -0.9722 -0.6067 -0.9949
  412MOL0     H55557   3.517  10.829   3.436 -0.7941 -1.0202  1.7904
  412MOL0     H55558   3.661  10.876   3.532  1.6405 -0.8594 -0.4617
  412MOL0     H55559   3.615  10.705   3.668  3.6317 -0.5131  0.4717
  412MOL0     H55560   3.647  10.580   3.539  0.3920 -0.6354 -0.3444
  412MOL0     H55561   3.380  10.716   3.562 -0.0758  0.2269 -2.2056
  412MOL0     H55562   3.438  10.583   3.462  2.7300 -2.9465  0.6580
  412MOL0     H55563   3.317  10.465   3.605  0.4964 -0.9834  0.0713
  412MOL0     H55564   3.487  10.443   3.644 -0.3642  0.8039  0.5151
  412MOL0     H55565   3.482  10.568   3.849 -1.6635  0.1392  3.8927
  412MOL0     H55566   3.304  10.589   3.824 -2.0495 -1.5144 -3.3630
  412MOL0     H55567   3.429  10.309   3.837  4.6831  1.2154  2.5138
  412MOL0     H55568   3.267  10.367   3.865 -0.9770 -0.2983  0.5501
  412MOL0     H55569   3.518  10.410   4.041  0.8899  0.5021 -2.5879
  412MOL0     H55570   3.342  10.454   4.083  0.7284 -2.0111  2.9832
  412MOL0     H55571   3.204  10.289   4.216  0.7307 -2.4501  3.3813
  412MOL0     H55572   3.185   9.924   4.278  2.0139 -1.4781 -2.2197
  412MOL0     H55573   3.114  10.090   4.312 -0.4511 -1.9995  0.4726
  412MOL0     H55574   2.990  10.086   4.103 -1.8546 -0.0939  0.5921
  412MOL0     H55575   3.056   9.929   4.053 -2.2805 -0.1931 -0.9809
  412MOL0     H55576   2.832   9.924   4.149  1.0291  2.3474 -0.4533
  412MOL0     H55577   2.874  10.000   4.286 -1.8359 -0.0730  0.2647
  412MOL0     H55578   2.822   9.770   4.335 -0.7196  0.2389 -1.9815
  412MOL0     H55579   2.994   9.807   4.375  2.4074  0.8237 -1.4610
  412MOL0     H55580   3.054   9.520   4.056  1.2175 -1.5032  0.3535
  412MOL0     H55581   3.208   9.324   4.113  3.1864 -0.3739  1.8749
  412MOL0     H55582   3.586   9.258   4.319 -0.5419 -0.1285 -1.5749
  412MOL0     H55583   3.766   9.125   4.378  0.5697  0.2987 -1.2240
  412MOL0     H55584   3.917   8.832   4.277  2.8207 -0.8942  0.1685
  412MOL0     H55585   3.920   8.981   4.380  0.3179  0.4510 -2.1195
  412MOL0     H55586   4.004   8.718   4.473 -0.2382 -0.2633  2.2962
  412MOL0     H55587   4.117   8.846   4.432  2.1747 -1.6818  2.3916
  412MOL0     H55588   3.977   8.963   4.650  0.2557 -1.0237  1.0977
  412MOL0     H55589   3.938   8.793   4.666  0.1288  0.7619  2.4566
  412MOL0     H55590   4.195   8.946   4.630 -0.0780 -1.8841 -3.4663
  412MOL0     H55591   4.201   8.768   4.620  0.6024  0.2253  0.6348
  412MOL0     H55592   4.117   8.753   4.855 -0.1705  0.1581 -1.3027
  412MOL0     H55593   4.095   8.927   4.854  3.7133  2.3483 -0.9633
  412MOL0     H55594   4.360   8.780   4.801  3.0711  0.3860  2.1009
  412MOL0     H55595   4.339   8.956   4.813  1.4346  0.4768  1.4909
  412MOL0     H55596   4.335   8.731   5.023 -1.3835 -1.3986 -3.2134
  412MOL0     H55597   4.240   8.883   5.050 -0.2611 -0.6553 -0.4276
  412MOL0     H55598   4.534   8.886   4.952 -0.1836 -0.3292 -1.3560
  412MOL0     H55599   4.449   9.027   5.015  1.0600 -0.0044 -0.7202
  412MOL0     H55600   3.516   8.764   4.364  3.0366 -0.7752 -1.0850
  412MOL0     H55601   3.337   8.899   4.304  1.3424 -0.6747  0.6811
  412MOL0     H55602   3.104   9.387   4.530  2.5040  0.8153 -0.6216
  412MOL0     H55603   2.977   9.584   4.471 -0.1757 -0.8842  0.5448
  412MOL0     H55604   3.555  10.463   3.114 -0.6674  1.3391  0.4394
  412MOL0     H55605   3.632  10.413   2.893 -0.8672 -1.0116  2.7044
  412MOL0     H55606   4.009  10.413   2.637  2.5490  1.3237 -0.8921
  412MOL0     H55607   4.134  10.332   2.432 -1.2967 -0.8076 -2.1374
  412MOL0     H55608   4.215  10.593   2.168 -1.4182 -0.1308  1.0625
  412MOL0     H55609   4.134  10.514   2.030 -0.2460 -2.0507 -0.9293
  412MOL0     H55610   4.305  10.352   2.013 -4.1519 -0.0851  1.3185
  412MOL0     H55611   4.384  10.395   2.172  1.2995  1.8731 -0.2423
  412MOL0     H55612   4.450  10.608   2.087 -0.7930 -0.6480  1.5431
  412MOL0     H55613   4.362  10.581   1.930  0.2429 -1.4866 -0.7235
  412MOL0     H55614   4.637  10.527   1.923  1.4979 -2.3134 -1.5224
  412MOL0     H55615   4.602  10.404   2.041  1.1534 -2.8780 -1.9611
  412MOL0     H55616   4.454  10.240   1.681 -1.6639 -0.5180  0.3793
  412MOL0     H55617   3.965  10.625   2.194 -0.5611 -1.2670 -0.2418
  412MOL0     H55618   3.700  10.720   2.422  1.7427 -0.2127  3.5289
  412MOL0     H55619   3.828  10.847   2.412 -2.7530 -0.3473  2.4257
  412MOL0     H55620   3.784  10.764   2.267 -1.0480 -0.4060  0.0049
  413MOL0     O55621   6.754   1.404   9.936 -0.5853  0.3965 -0.4779
  413MOL0     C55622   6.763   1.498  10.017 -0.6682  0.4532 -0.2318
  413MOL0     O55623   6.664   1.580  10.049 -0.2536  0.4215 -0.2259
  413MOL0     C55624   6.540   1.578   9.997  0.5966 -0.3218  0.4981
  413MOL0     C55625   6.470   1.461   9.949 -0.0500 -0.6743  0.1184
  413MOL0     C55626   6.354   1.486   9.863  0.8562  0.3894 -0.4462
  413MOL0     C55627   6.307   1.608   9.843 -0.9317 -0.1521 -0.0754
  413MOL0     O55628   6.187   1.607   9.777  0.4096 -0.0589 -0.6185
  413MOL0     C55629   6.123   1.732   9.751 -0.8854 -0.6697  1.2813
  413MOL0     C55630   6.051   1.716   9.615  0.1995  0.0121  1.1840
  413MOL0     C55631   5.928   1.616   9.613  0.1958  0.7720 -0.3177
  413MOL0     C55632   5.884   1.602   9.467  0.2238 -0.9730  0.7732
  413MOL0     C55633   5.746   1.664   9.431 -0.2234  0.9212  0.8532
  413MOL0     C55634   5.623   1.587   9.492  0.4049  0.0855  0.9508
  413MOL0     C55635   5.581   1.457   9.421 -0.6123 -0.0864 -0.5935
  413MOL0     C55636   5.606   1.459   9.269  0.3579  0.5288 -0.7568
  413MOL0     N55637   5.557   1.331   9.212 -0.1831 -0.4598 -0.7515
  413MOL0     C55638   5.606   1.205   9.231 -0.5674 -0.6083  0.2913
  413MOL0     C55639   5.534   1.127   9.142  0.4552  0.4271 -0.0779
  413MOL0     C55640   5.516   0.977   9.143 -0.3253  0.0193  0.3198
  413MOL0     C55641   5.532   0.905   9.004  0.7719  0.8439  0.5286
  413MOL0     C55642   5.566   0.760   9.010 -0.7142 -0.9163  1.1448
  413MOL0     C55643   5.617   0.698   8.878  0.9895 -0.1352  0.5970
  413MOL0     O55644   5.737   0.762   8.830 -0.1457  0.2680  0.1073
  413MOL0     C55645   5.756   0.839   8.720  0.5878  0.3955 -0.2349
  413MOL0     C55646   5.888   0.855   8.668  0.5406 -0.0478  0.7543
  413MOL0     C55647   5.905   0.950   8.561 -0.9567  0.2440 -0.2820
  413MOL0     C55648   5.803   1.009   8.490  0.5796  0.4401 -0.3056
  413MOL0     C55649   5.816   1.094   8.371  0.4022 -0.3583 -0.1079
  413MOL0     O55650   5.697   1.122   8.304  0.0188 -0.0966  0.4831
  413MOL0     C55651   5.685   1.240   8.233  0.3508  1.6855  0.8031
  413MOL0     C55652   5.616   1.233   8.107  1.1958  0.7131  0.1681
  413MOL0     C55653   5.610   1.346   8.020 -0.1399  0.5471 -0.2210
  413MOL0     C55654   5.680   1.456   8.048  0.1338 -0.2191  0.6919
  413MOL0     O55655   5.666   1.557   7.960  0.2220 -0.2102 -0.3463
  413MOL0     C55656   5.585   1.667   8.013 -0.2895 -0.2783 -0.0541
  413MOL0     C55657   5.476   1.699   7.906 -0.2070  0.1192  0.8111
  413MOL0     C55658   5.371   1.791   7.946 -0.8017  0.1948 -0.2074
  413MOL0     C55659   5.259   1.782   7.842 -1.0246  0.0717 -0.4428
  413MOL0     C55660   5.145   1.865   7.890  0.2037  0.1626 -0.1948
  413MOL0     C55661   5.111   1.980   7.784  0.5389  0.5414 -0.1426
  413MOL0     C55662   5.056   1.919   7.652  0.0330 -0.2758 -0.1106
  413MOL0     C55663   5.016   2.030   7.554  0.1517 -0.5528  0.4444
  413MOL0    Cl55664   5.147   2.131   7.507 -0.4109  0.0657 -0.0677
  413MOL0     C55665   5.747   1.475   8.168  0.3670  0.1456 -0.1543
  413MOL0     C55666   5.746   1.367   8.262  0.1443  0.2666  0.3443
  413MOL0     O55667   5.919   1.160   8.365 -0.3174  0.1920  0.4447
  413MOL0     C55668   5.672   0.977   8.537  0.6925  0.1276 -0.7979
  413MOL0     C55669   5.653   0.906   8.652  0.6482  0.2114 -0.2190
  413MOL0     N55670   5.454   1.212   9.070 -0.7653  0.1566  0.3208
  413MOL0     N55671   5.462   1.334   9.119 -0.3158 -0.4497 -0.8621
  413MOL0     C55672   6.369   1.719   9.906  0.2778 -0.6401  1.0990
  413MOL0     C55673   6.489   1.702   9.973 -0.4222 -1.1036  0.3651
  413MOL0     C55674   6.888   1.500  10.087 -0.3600  0.4245 -0.4026
  413MOL0     C55675   6.938   1.629  10.109 -0.0290 -0.1828  0.2910
  413MOL0     C55676   7.051   1.653  10.188 -0.0245 -0.4995  0.3035
  413MOL0     C55677   7.112   1.552  10.255  0.2638 -0.1433  0.0031
  413MOL0     O55678   7.217   1.582  10.335 -0.4851 -0.9691 -0.6758
  413MOL0     C55679   7.225   1.516  10.463 -0.0134  0.2154 -0.2982
  413MOL0     C55680   7.347   1.427  10.478 -0.1628  0.7438  0.4631
  413MOL0     C55681   7.494   1.487  10.456  0.6240 -0.3518  0.1405
  413MOL0     C55682   7.534   1.519  10.308  0.4417 -0.4018 -0.5411
  413MOL0     C55683   7.673   1.571  10.310  0.5520 -0.0916 -0.5698
  413MOL0     C55684   7.791   1.587  10.313  0.2750 -0.9723 -0.1609
  413MOL0     C55685   7.070   1.419  10.230  0.0348  0.3344 -0.2776
  413MOL0     C55686   6.963   1.395  10.144 -0.1159  0.4436 -1.0892
  413MOL0     C55687   6.928   1.246  10.132 -0.3661 -1.4751  0.2041
  413MOL0     H55688   6.510   1.365   9.981 -3.3232 -2.4009 -0.5856
  413MOL0     H55689   6.293   1.408   9.820  2.0343  0.1846 -1.7928
  413MOL0     H55690   6.048   1.766   9.822 -1.2812  1.4397 -0.0427
  413MOL0     H55691   6.190   1.815   9.730 -0.2081 -0.0293  5.2740
  413MOL0     H55692   6.124   1.694   9.537  1.1819  3.2096  1.0602
  413MOL0     H55693   6.017   1.818   9.597 -2.2633 -0.6972  1.4067
  413MOL0     H55694   5.843   1.632   9.681  0.3999  1.6218 -0.2475
  413MOL0     H55695   5.966   1.520   9.648 -2.5154  0.2002  1.3742
  413MOL0     H55696   5.947   1.645   9.389 -0.2670 -1.0521  0.3246
  413MOL0     H55697   5.888   1.494   9.451  0.8690 -1.0235  1.2352
  413MOL0     H55698   5.750   1.769   9.460  0.7518  0.8634  0.9319
  413MOL0     H55699   5.737   1.690   9.325  0.4951  0.3194  0.6348
  413MOL0     H55700   5.644   1.571   9.598 -0.1854  0.1731  1.0844
  413MOL0     H55701   5.541   1.659   9.490 -0.6768 -1.1378 -0.2284
  413MOL0     H55702   5.476   1.445   9.448 -1.3265  4.7606 -0.2407
  413MOL0     H55703   5.646   1.382   9.468  0.1254  1.8309  1.6935
  413MOL0     H55704   5.556   1.543   9.220  1.3560  0.3655 -2.1268
  413MOL0     H55705   5.711   1.457   9.239  0.5008 -1.8162 -0.2790
  413MOL0     H55706   5.687   1.183   9.301  0.9253 -2.6384 -1.9110
  413MOL0     H55707   5.584   0.923   9.209 -1.5871 -2.5928 -0.3907
  413MOL0     H55708   5.411   0.963   9.171 -0.5152  2.2962  1.0035
  413MOL0     H55709   5.440   0.931   8.951 -1.2452 -2.9325  1.8443
  413MOL0     H55710   5.619   0.950   8.955  1.4848  3.1455  3.6545
  413MOL0     H55711   5.481   0.697   9.037 -2.5567 -0.4029 -2.7702
  413MOL0     H55712   5.646   0.750   9.084  1.2128 -0.5124 -0.8013
  413MOL0     H55713   5.539   0.697   8.800 -0.0767 -2.3154  1.5936
  413MOL0     H55714   5.644   0.598   8.914 -0.4309 -0.8028 -0.0861
  413MOL0     H55715   5.979   0.807   8.704  2.0781  3.2086  1.5436
  413MOL0     H55716   6.011   0.961   8.540  0.1635 -0.7849  3.7662
  413MOL0     H55717   5.555   1.145   8.086  0.0701  1.1828  1.3756
  413MOL0     H55718   5.544   1.339   7.933 -0.6138  1.9951 -0.0003
  413MOL0     H55719   5.541   1.639   8.109  3.3000 -0.6738  1.6210
  413MOL0     H55720   5.647   1.753   8.042  0.2382 -1.0498  1.1747
  413MOL0     H55721   5.526   1.746   7.821 -0.6590 -2.9969 -1.3455
  413MOL0     H55722   5.432   1.604   7.873 -0.1876 -0.0500  1.2653
  413MOL0     H55723   5.323   1.751   8.035  1.3664 -3.4915 -0.4702
  413MOL0     H55724   5.418   1.889   7.956  1.7723 -0.8721 -0.7998
  413MOL0     H55725   5.228   1.677   7.840  1.7314 -0.8636  0.9426
  413MOL0     H55726   5.298   1.814   7.745  0.6923 -2.0444 -0.5144
  413MOL0     H55727   5.172   1.912   7.985 -1.7644  1.5884 -0.2837
  413MOL0     H55728   5.067   1.791   7.911  0.7161 -0.0155  1.1931
  413MOL0     H55729   5.034   2.041   7.832  2.7378  2.0972  1.6527
  413MOL0     H55730   5.203   2.035   7.762  1.6037 -0.4121  1.7017
  413MOL0     H55731   4.981   1.842   7.673  0.8293 -1.2018 -0.6162
  413MOL0     H55732   5.138   1.868   7.602  2.3853  1.4238  1.7980
  413MOL0     H55733   4.973   1.994   7.460  2.6603 -1.1103 -0.5690
  413MOL0     H55734   4.942   2.102   7.591  1.0973  0.8631 -0.3278
  413MOL0     H55735   5.779   1.574   8.200  2.1388 -0.7567  1.0560
  413MOL0     H55736   5.794   1.395   8.356  1.8621 -2.1601  0.2659
  413MOL0     H55737   5.586   1.029   8.495 -1.3475 -1.4222  1.2148
  413MOL0     H55738   5.551   0.895   8.687  0.5781 -0.1155 -0.5219
  413MOL0     H55739   6.321   1.816   9.894 -0.9859 -1.0489  2.6083
  413MOL0     H55740   6.544   1.790  10.003  0.0188  0.3912 -4.1213
  413MOL0     H55741   6.880   1.708  10.063 -2.5354 -2.1465 -0.1313
  413MOL0     H55742   7.087   1.756  10.194 -0.5739 -0.2408 -0.6626
  413MOL0     H55743   7.133   1.460  10.479  1.1909 -1.7315  0.1438
  413MOL0     H55744   7.224   1.596  10.538 -1.4332 -0.4882  0.4509
  413MOL0     H55745   7.332   1.346  10.405  0.7424  0.4577  0.5781
  413MOL0     H55746   7.344   1.382  10.578  2.4855  0.7784  0.6371
  413MOL0     H55747   7.576   1.431  10.502 -0.0143  1.1988  3.4567
  413MOL0     H55748   7.504   1.584  10.506  2.1707  0.2005 -1.1520
  413MOL0     H55749   7.523   1.430  10.245  1.2259 -0.5887 -0.4254
  413MOL0     H55750   7.465   1.600  10.284  0.6941  0.9118  2.6650
  413MOL0     H55751   7.897   1.598  10.315  0.4252 -0.4961 -3.7994
  413MOL0     H55752   7.105   1.331  10.284 -0.3123  0.7014  0.5559
  413MOL0     H55753   7.004   1.191  10.076 -1.1872 -2.1854 -0.2386
  413MOL0     H55754   6.931   1.197  10.230 -2.0694 -2.1273 -0.0245
  413MOL0     H55755   6.827   1.227  10.092 -0.2442  1.0598 -1.5063
  414MOL0     O55756  10.767   2.445   6.015  0.5764 -0.5067  0.1699
  414MOL0     C55757  10.687   2.358   5.981  0.7697  0.7516 -0.6688
  414MOL0     O55758  10.715   2.230   5.936  1.0346  0.4759  0.0315
  414MOL0     C55759  10.845   2.192   5.908  0.2095 -0.2393  0.0059
  414MOL0     C55760  10.845   2.053   5.888  0.9737  0.9013 -0.6357
  414MOL0     C55761  10.965   1.992   5.865 -0.6585 -0.2554  0.3256
  414MOL0     C55762  11.086   2.063   5.871  0.5491 -0.4872 -0.4293
  414MOL0     O55763  11.200   1.984   5.851  0.0019 -0.0750 -0.6319
  414MOL0     C55764  11.331   2.033   5.885  1.2891 -0.4146 -0.2390
  414MOL0     C55765  11.408   2.095   5.769 -0.3154  0.7912  0.0170
  414MOL0     C55766  11.532   2.022   5.720  0.4166  0.6918 -1.0645
  414MOL0     C55767  11.489   1.918   5.617 -0.0565 -0.6759  0.2016
  414MOL0     C55768  11.622   1.871   5.550  0.0172 -0.3982 -0.1764
  414MOL0     C55769  11.585   1.790   5.426 -0.2400 -0.1687 -0.1360
  414MOL0     C55770  11.698   1.736   5.339  1.0478  0.2693  0.2110
  414MOL0     C55771  11.780   1.639   5.433 -0.3202  0.4988  0.2453
  414MOL0     N55772  11.884   1.563   5.357  0.4306 -0.4847 -0.2910
  414MOL0     C55773  11.997   1.614   5.301  0.4219 -0.2393  0.6271
  414MOL0     C55774  12.056   1.498   5.251 -0.7022  0.5192  0.0467
  414MOL0     C55775  12.181   1.495   5.178  0.6724 -0.0949 -0.2065
  414MOL0     C55776  12.259   1.379   5.228  0.4110  0.0327  0.1438
  414MOL0     C55777  12.380   1.341   5.141  0.3342 -0.3017 -0.2690
  414MOL0     C55778  12.465   1.232   5.209  0.4820  0.8391  0.3564
  414MOL0     O55779  12.572   1.184   5.119 -0.0940 -0.0381 -0.3044
  414MOL0     C55780  12.653   1.270   5.046 -0.4327  0.6516 -0.7294
  414MOL0     C55781  12.690   1.395   5.096  0.0884  0.3254  0.5148
  414MOL0     C55782  12.772   1.485   5.023  0.6215 -0.3275  0.1621
  414MOL0     C55783  12.805   1.459   4.887 -0.1290 -0.3504  0.3399
  414MOL0     C55784  12.887   1.561   4.805  0.0101  0.8132 -0.0899
  414MOL0     O55785  12.936   1.538   4.677 -0.1624 -0.3032 -0.1613
  414MOL0     C55786  13.043   1.606   4.608 -0.1878  0.3002 -0.6474
  414MOL0     C55787  13.154   1.663   4.674  0.6973 -0.0005 -0.9095
  414MOL0     C55788  13.250   1.722   4.600  0.0535 -0.1112  0.4103
  414MOL0     C55789  13.244   1.734   4.463 -0.4190  0.1527 -0.4428
  414MOL0     O55790  13.347   1.799   4.392  0.3452  0.1157  0.3795
  414MOL0     C55791  13.297   1.904   4.307 -0.4434 -0.2708  0.4474
  414MOL0     C55792  13.428   1.975   4.247  0.4272  0.2949 -0.5744
  414MOL0     C55793  13.387   2.084   4.148 -0.3670 -1.0505 -0.5128
  414MOL0     C55794  13.487   2.113   4.034  0.4720  0.6087 -0.1630
  414MOL0     C55795  13.633   2.127   4.085 -0.0630 -0.2396  0.6966
  414MOL0     C55796  13.726   2.201   3.986  0.2064  0.8510  0.3365
  414MOL0     C55797  13.690   2.345   3.951 -0.5720 -0.1284 -0.5269
  414MOL0     C55798  13.776   2.386   3.834  0.8311 -0.0137  0.7370
  414MOL0    Cl55799  13.935   2.419   3.902 -0.2384 -0.5177  0.1653
  414MOL0     C55800  13.132   1.674   4.392  0.3730  0.1294 -0.2386
  414MOL0     C55801  13.033   1.607   4.471 -0.5466 -0.4799 -0.7055
  414MOL0     O55802  12.911   1.658   4.874 -0.6543 -0.1432 -0.7569
  414MOL0     C55803  12.770   1.333   4.836  0.5415 -0.0326  0.2491
  414MOL0     C55804  12.686   1.246   4.908  0.0751 -0.6539 -0.0835
  414MOL0     N55805  11.974   1.389   5.280 -0.0353 -0.7885  0.3969
  414MOL0     N55806  11.866   1.430   5.339  0.2781  0.0035  0.4587
  414MOL0     C55807  11.087   2.200   5.886 -0.1346 -0.1151  0.5396
  414MOL0     C55808  10.965   2.267   5.902  0.0967 -0.4566 -0.0143
  414MOL0     C55809  10.549   2.399   5.973 -0.3253 -0.0477  0.0533
  414MOL0     C55810  10.517   2.537   6.009 -0.0726 -0.2941 -0.8119
  414MOL0     C55811  10.387   2.587   6.021 -0.5965 -0.0782  0.4039
  414MOL0     C55812  10.281   2.497   5.996  0.0669 -1.5614 -0.7789
  414MOL0     O55813  10.147   2.536   5.994 -0.7977  1.1013  0.1154
  414MOL0     C55814  10.092   2.587   6.114  0.6129 -0.1488 -0.5632
  414MOL0     C55815   9.940   2.612   6.112 -0.1937 -0.6366 -0.4640
  414MOL0     C55816   9.859   2.502   6.037 -1.0063  0.2767  0.1359
  414MOL0     C55817   9.706   2.527   6.027 -0.5403  0.4635 -0.7979
  414MOL0     C55818   9.642   2.542   6.156 -0.2545 -0.6504  0.7951
  414MOL0     C55819   9.611   2.569   6.273 -0.1017  0.3108  0.5396
  414MOL0     C55820  10.309   2.369   5.957 -0.1421 -0.7782  0.0062
  414MOL0     C55821  10.435   2.313   5.948 -0.3997 -0.6772  0.1825
  414MOL0     C55822  10.442   2.162   5.922 -0.1021  0.6863 -0.3424
  414MOL0     H55823  10.756   1.994   5.866  0.7413  1.2572 -0.6464
  414MOL0     H55824  10.969   1.885   5.847 -0.4142 -1.0029  3.9914
  414MOL0     H55825  11.327   2.107   5.966 -1.1207 -0.7338  0.0164
  414MOL0     H55826  11.385   1.948   5.926  1.2090 -1.0393 -1.4168
  414MOL0     H55827  11.444   2.194   5.800 -0.0630  0.6473  0.1777
  414MOL0     H55828  11.339   2.105   5.684  0.4332  0.5189 -0.6337
  414MOL0     H55829  11.585   1.957   5.790 -2.0378 -0.7719 -0.4475
  414MOL0     H55830  11.595   2.100   5.676 -0.3954  0.8773 -1.9442
  414MOL0     H55831  11.433   1.832   5.657 -1.1059 -0.3714 -0.5897
  414MOL0     H55832  11.436   1.980   5.545  0.7440  0.6316  0.7079
  414MOL0     H55833  11.685   1.957   5.524  1.0963 -0.5661  1.7145
  414MOL0     H55834  11.691   1.819   5.617 -0.0592 -1.3054 -0.7723
  414MOL0     H55835  11.521   1.708   5.460  1.4022 -2.0081 -1.2792
  414MOL0     H55836  11.517   1.854   5.368 -0.4261 -2.3916 -2.5745
  414MOL0     H55837  11.757   1.827   5.321  1.5081  0.3316  1.8218
  414MOL0     H55838  11.671   1.680   5.250 -0.4573  0.9787  0.2024
  414MOL0     H55839  11.819   1.693   5.520 -2.9402  1.4211  0.9228
  414MOL0     H55840  11.713   1.564   5.475 -0.0487  0.5959  0.8677
  414MOL0     H55841  12.043   1.711   5.287  4.0237 -2.1056 -1.9275
  414MOL0     H55842  12.156   1.478   5.072 -1.4270  3.3960 -0.4132
  414MOL0     H55843  12.241   1.586   5.176 -0.7903  0.9447 -3.0610
  414MOL0     H55844  12.286   1.406   5.331  1.0678 -0.0041 -0.0174
  414MOL0     H55845  12.195   1.290   5.235 -1.3523  1.1995 -0.3337
  414MOL0     H55846  12.442   1.430   5.125  0.7566 -0.4070  0.7289
  414MOL0     H55847  12.346   1.308   5.042  2.2664 -0.9038 -0.7860
  414MOL0     H55848  12.402   1.145   5.231 -2.4589  2.0985 -2.2852
  414MOL0     H55849  12.489   1.274   5.307 -3.5822  1.2271  1.3642
  414MOL0     H55850  12.669   1.416   5.201 -0.7452 -0.0359  0.4318
  414MOL0     H55851  12.798   1.580   5.068  0.3288  0.8929 -2.0782
  414MOL0     H55852  13.169   1.659   4.781  2.9857 -2.2832 -1.2153
  414MOL0     H55853  13.338   1.751   4.656 -0.9105 -1.4899  2.7790
  414MOL0     H55854  13.236   1.876   4.221  1.3379  0.3279 -1.0651
  414MOL0     H55855  13.231   1.979   4.353 -1.1631 -1.5356  1.5708
  414MOL0     H55856  13.490   2.011   4.330  1.4461  0.0660 -1.2038
  414MOL0     H55857  13.495   1.898   4.207  0.4357  0.2361 -0.4465
  414MOL0     H55858  13.289   2.069   4.101 -0.1893  0.2509 -1.3267
  414MOL0     H55859  13.392   2.171   4.213  0.2523 -1.5181  0.0887
  414MOL0     H55860  13.451   2.194   3.971  1.3819 -0.1371 -1.6929
  414MOL0     H55861  13.496   2.022   3.973  2.1440  0.0503  0.8225
  414MOL0     H55862  13.675   2.030   4.113 -1.0422 -0.4656  1.4180
  414MOL0     H55863  13.632   2.195   4.171  1.3483 -0.2159  0.7157
  414MOL0     H55864  13.827   2.195   4.029 -0.1272  0.4695  1.0877
  414MOL0     H55865  13.727   2.135   3.899 -4.1015  0.6358  0.2320
  414MOL0     H55866  13.712   2.412   4.035 -3.9300 -0.2327  0.6165
  414MOL0     H55867  13.582   2.346   3.933 -0.6476 -0.0856 -0.0881
  414MOL0     H55868  13.776   2.311   3.755  2.2140 -0.5491  1.2305
  414MOL0     H55869  13.731   2.479   3.796  0.9667  0.2008  1.0991
  414MOL0     H55870  13.121   1.682   4.285 -2.3854 -3.7423 -0.4834
  414MOL0     H55871  12.946   1.573   4.417  0.0056 -2.2032 -0.5800
  414MOL0     H55872  12.780   1.305   4.732 -0.7262  1.4618 -0.3157
  414MOL0     H55873  12.658   1.161   4.847 -0.3554 -0.7947  0.2998
  414MOL0     H55874  11.175   2.261   5.867 -1.7791  1.5466 -2.7102
  414MOL0     H55875  10.969   2.375   5.907  1.9139 -0.4565 -0.6209
  414MOL0     H55876  10.590   2.610   6.041 -1.0468  1.4796 -2.4565
  414MOL0     H55877  10.363   2.688   6.050 -1.7491 -0.7871  2.0939
  414MOL0     H55878  10.135   2.686   6.129 -0.1501 -0.1896  2.4316
  414MOL0     H55879  10.110   2.516   6.195 -1.0323 -0.1371 -0.1464
  414MOL0     H55880   9.917   2.705   6.059 -2.7736 -2.0073 -1.9770
  414MOL0     H55881   9.913   2.627   6.217 -0.7932  0.8956 -0.8124
  414MOL0     H55882   9.864   2.405   6.087 -3.0941 -0.0967 -0.2969
  414MOL0     H55883   9.904   2.479   5.941  1.8617  0.2285  1.3943
  414MOL0     H55884   9.686   2.617   5.968 -0.1224  1.2155  0.1890
  414MOL0     H55885   9.670   2.434   5.982 -0.0530 -0.0942 -0.0682
  414MOL0     H55886   9.592   2.593   6.376 -3.6764  4.7903 -0.8136
  414MOL0     H55887  10.223   2.308   5.931 -1.8341  1.4419  0.0122
  414MOL0     H55888  10.342   2.119   5.909  0.5513 -0.9265 -0.2847
  414MOL0     H55889  10.487   2.134   5.826  0.7791 -2.5979  0.8835
  414MOL0     H55890  10.486   2.110   6.007  1.1141  1.1068 -0.7044
  415MOL0     O55891   1.001   6.963  10.939  0.2272 -0.1109  0.6679
  415MOL0     C55892   0.920   6.939  11.027  0.8010 -0.9575 -0.2295
  415MOL0     O55893   0.948   6.959  11.163 -0.2703 -0.3163  0.1675
  415MOL0     C55894   1.072   7.019  11.202 -0.4229 -1.3443 -0.3824
  415MOL0     C55895   1.201   6.974  11.159  0.4214  0.6562  0.1056
  415MOL0     C55896   1.317   7.041  11.203 -0.6870  0.3739 -0.4136
  415MOL0     C55897   1.297   7.146  11.292  0.0398  0.3865 -0.6787
  415MOL0     O55898   1.408   7.217  11.330 -0.1696 -0.2908  0.5809
  415MOL0     C55899   1.423   7.349  11.281  1.1734 -1.1015  0.1832
  415MOL0     C55900   1.433   7.372  11.134 -0.0558  0.9893  0.3604
  415MOL0     C55901   1.547   7.310  11.059 -0.7856  0.3166 -0.7421
  415MOL0     C55902   1.550   7.321  10.905 -0.4231  0.4901 -0.9382
  415MOL0     C55903   1.672   7.243  10.861  0.2367 -0.3704  0.3610
  415MOL0     C55904   1.690   7.234  10.703  0.3459  0.3584 -0.2416
  415MOL0     C55905   1.667   7.368  10.632 -0.6330  0.7761 -1.7936
  415MOL0     C55906   1.669   7.367  10.479 -0.1497  1.4401  0.4517
  415MOL0     N55907   1.798   7.322  10.426  0.3211  0.1094  0.3402
  415MOL0     C55908   1.884   7.408  10.359 -0.5282 -0.1744 -0.0248
  415MOL0     C55909   1.989   7.339  10.321 -0.5703  0.8282 -0.3678
  415MOL0     C55910   2.111   7.366  10.245  0.1001  0.6208 -0.2109
  415MOL0     C55911   2.080   7.486  10.142 -0.3903  0.1609 -0.0703
  415MOL0     C55912   2.202   7.566  10.106  0.2729 -0.2883  0.5861
  415MOL0     C55913   2.318   7.481  10.044 -0.3150  0.4760 -0.5272
  415MOL0     O55914   2.432   7.554  10.023 -0.1076 -0.1122 -0.5346
  415MOL0     C55915   2.540   7.486   9.957 -0.3980 -0.4226 -0.8103
  415MOL0     C55916   2.641   7.574   9.906 -1.1693  0.4458  0.1741
  415MOL0     C55917   2.762   7.518   9.861 -0.7686  0.4263  0.4545
  415MOL0     C55918   2.780   7.383   9.839 -0.0656  0.3287  0.0664
  415MOL0     C55919   2.906   7.319   9.796 -0.8317  0.0098 -0.3510
  415MOL0     O55920   3.002   7.405   9.748  0.1179  0.3077  0.2920
  415MOL0     C55921   3.132   7.356   9.721  0.7040 -0.5915  0.3676
  415MOL0     C55922   3.229   7.382   9.812 -0.1260  0.1235 -0.2440
  415MOL0     C55923   3.363   7.337   9.795  0.8900  0.0578  0.1797
  415MOL0     C55924   3.393   7.265   9.683  0.5209  0.4846  1.0947
  415MOL0     O55925   3.518   7.210   9.662  0.0648 -0.4112  0.3100
  415MOL0     C55926   3.546   7.112   9.762 -0.4186  0.5316  0.9374
  415MOL0     C55927   3.663   7.037   9.716  0.5539  0.7608  0.7781
  415MOL0     C55928   3.797   7.109   9.725  0.0830  0.2046  0.4671
  415MOL0     C55929   3.921   7.034   9.662  0.2966  0.0325  0.3219
  415MOL0     C55930   4.029   7.119   9.669 -0.5867 -0.4648 -1.0670
  415MOL0     C55931   4.156   7.058   9.599 -0.1418 -0.4773 -0.4581
  415MOL0     C55932   4.268   7.160   9.610  0.0461 -0.0402 -0.1915
  415MOL0     C55933   4.391   7.105   9.539 -0.1312 -0.3626 -0.3993
  415MOL0    Cl55934   4.497   7.238   9.484  0.0149 -0.1501  0.3924
  415MOL0     C55935   3.291   7.234   9.591 -0.3276 -0.7740 -1.0098
  415MOL0     C55936   3.172   7.296   9.598  0.1744  0.2781 -0.0815
  415MOL0     O55937   2.919   7.197   9.802  0.1080 -0.9125  0.1124
  415MOL0     C55938   2.679   7.300   9.875  0.0583 -0.2158  0.3086
  415MOL0     C55939   2.561   7.342   9.934  0.9105 -0.4945 -0.3950
  415MOL0     N55940   1.965   7.210  10.369 -0.4924 -0.3497  0.3693
  415MOL0     N55941   1.843   7.196  10.397 -0.1040 -0.1557 -0.2893
  415MOL0     C55942   1.170   7.196  11.336  0.8170 -0.0901 -0.0888
  415MOL0     C55943   1.058   7.122  11.300  0.0006 -0.3914 -0.5881
  415MOL0     C55944   0.795   6.852  10.995 -0.0921 -1.1279 -0.2384
  415MOL0     C55945   0.737   6.775  11.096  0.4610  0.3983  0.8102
  415MOL0     C55946   0.637   6.686  11.063  0.1132 -0.3587  0.2221
  415MOL0     C55947   0.600   6.659  10.932 -0.0683  0.2102 -0.1318
  415MOL0     O55948   0.512   6.552  10.919 -0.5941  0.4586  0.0784
  415MOL0     C55949   0.465   6.523  10.792 -0.4232 -0.4544 -0.4494
  415MOL0     C55950   0.369   6.409  10.788  0.5310  0.0037  0.3390
  415MOL0     C55951   0.342   6.372  10.639  0.9198  0.6862  0.3511
  415MOL0     C55952   0.188   6.328  10.615 -0.2400 -0.3316 -0.5738
  415MOL0     C55953   0.176   6.254  10.496 -0.3084  0.5106  0.3335
  415MOL0     C55954   0.168   6.181  10.400  0.5802  0.4751  0.3149
  415MOL0     C55955   0.649   6.740  10.834 -1.0789  0.0553  0.2615
  415MOL0     C55956   0.740   6.839  10.863 -0.2770 -0.3926  0.3139
  415MOL0     C55957   0.791   6.918  10.749  0.5945 -0.6072  0.4652
  415MOL0     H55958   1.209   6.893  11.088  1.2986  2.1990 -1.6367
  415MOL0     H55959   1.417   7.007  11.175  0.3808  0.6007  2.6894
  415MOL0     H55960   1.337   7.401  11.323 -0.3045 -2.9151 -0.4290
  415MOL0     H55961   1.509   7.400  11.325  0.7174  1.9569 -2.1071
  415MOL0     H55962   1.431   7.480  11.114 -0.1642  1.5437  3.0350
  415MOL0     H55963   1.338   7.324  11.107 -0.7594  0.5645  3.2712
  415MOL0     H55964   1.543   7.202  11.079 -1.0427  0.6182  1.0134
  415MOL0     H55965   1.641   7.347  11.102  0.3193 -2.1764 -0.8447
  415MOL0     H55966   1.471   7.271  10.849  2.6976 -3.4965 -2.2488
  415MOL0     H55967   1.542   7.424  10.868 -1.1629  0.0606 -2.0123
  415MOL0     H55968   1.762   7.286  10.906 -1.0967  0.9372  1.8718
  415MOL0     H55969   1.662   7.138  10.888 -0.5819 -0.8577 -1.6173
  415MOL0     H55970   1.785   7.191  10.672  0.6455  1.5742 -1.0676
  415MOL0     H55971   1.609   7.169  10.668 -1.7966  1.8871  1.5846
  415MOL0     H55972   1.750   7.435  10.656 -0.2372 -0.6557  1.2799
  415MOL0     H55973   1.584   7.424  10.675  1.4293  1.7490  1.2759
  415MOL0     H55974   1.597   7.292  10.444 -1.4143  2.5338  0.6732
  415MOL0     H55975   1.643   7.465  10.438 -0.3820  1.3223  0.3112
  415MOL0     H55976   1.852   7.509  10.337 -0.8811 -0.4557 -0.8312
  415MOL0     H55977   2.192   7.395  10.313 -0.2844  0.6659  0.2335
  415MOL0     H55978   2.157   7.285  10.189  3.1653  1.2663  1.1623
  415MOL0     H55979   2.033   7.449  10.050 -0.4875  0.8906 -0.3142
  415MOL0     H55980   2.002   7.550  10.183  1.1104  1.8720  0.2005
  415MOL0     H55981   2.229   7.619  10.198 -1.7403 -0.4036  1.2934
  415MOL0     H55982   2.182   7.645  10.034  0.9285  1.0860  1.8502
  415MOL0     H55983   2.282   7.452   9.945  0.7968  0.3030 -0.8942
  415MOL0     H55984   2.345   7.404  10.116 -2.2639 -0.1760 -0.4480
  415MOL0     H55985   2.637   7.679   9.934  1.8365  0.6521  0.0801
  415MOL0     H55986   2.846   7.585   9.846  0.8147 -1.4963  0.2897
  415MOL0     H55987   3.192   7.429   9.902 -2.2132  0.7641 -1.3684
  415MOL0     H55988   3.445   7.354   9.864  0.6977  0.7636  0.2404
  415MOL0     H55989   3.579   7.167   9.851 -0.4433  0.9380  0.6992
  415MOL0     H55990   3.465   7.044   9.788 -1.0915  1.4241  1.2100
  415MOL0     H55991   3.667   6.943   9.772 -3.3522 -0.2016 -0.2685
  415MOL0     H55992   3.639   6.998   9.617 -0.5175 -0.0918  1.3498
  415MOL0     H55993   3.780   7.207   9.679  2.5692 -0.8055 -3.0613
  415MOL0     H55994   3.797   7.127   9.833 -0.9960 -2.7355  1.0717
  415MOL0     H55995   3.897   7.014   9.557  0.5252 -0.0644  0.2889
  415MOL0     H55996   3.927   6.936   9.711 -1.8778 -0.3197 -0.0088
  415MOL0     H55997   4.051   7.143   9.773 -0.5672 -1.4336 -0.8398
  415MOL0     H55998   4.013   7.218   9.625 -0.9828 -0.1367 -0.2004
  415MOL0     H55999   4.191   6.967   9.647 -2.3912  0.2429  2.8804
  415MOL0     H56000   4.142   7.030   9.495  1.5003 -1.8214 -0.3644
  415MOL0     H56001   4.297   7.169   9.714  0.7239 -0.8052 -0.3047
  415MOL0     H56002   4.234   7.252   9.562 -0.9527 -1.2125 -1.8798
  415MOL0     H56003   4.442   7.042   9.613  2.3503  1.1236 -0.7479
  415MOL0     H56004   4.359   7.050   9.450  2.0419  0.2469 -1.6248
  415MOL0     H56005   3.324   7.178   9.504 -0.1438  2.0077 -2.8650
  415MOL0     H56006   3.098   7.284   9.520 -0.2119 -2.1461  0.5832
  415MOL0     H56007   2.693   7.193   9.871  2.3265 -0.0280  1.5280
  415MOL0     H56008   2.476   7.281   9.961  0.0741  0.4086 -0.9385
  415MOL0     H56009   1.165   7.284  11.400  0.8104 -1.3519  1.7354
  415MOL0     H56010   0.967   7.146  11.354 -0.0579  1.4310 -1.4193
  415MOL0     H56011   0.752   6.783  11.203 -0.0066 -0.0087  0.9079
  415MOL0     H56012   0.601   6.634  11.151  0.9710 -0.3638  0.5815
  415MOL0     H56013   0.548   6.495  10.727  1.2725 -0.7694  1.7329
  415MOL0     H56014   0.423   6.614  10.748 -0.8253  0.0155  0.8797
  415MOL0     H56015   0.278   6.439  10.843  1.7672  0.3046  2.3358
  415MOL0     H56016   0.402   6.322  10.845  0.8906  1.8001  3.0625
  415MOL0     H56017   0.408   6.293  10.604  1.4600  2.1668 -2.2615
  415MOL0     H56018   0.355   6.452  10.566  1.9465  0.1394 -0.0744
  415MOL0     H56019   0.148   6.283  10.706 -4.3450  0.0431 -1.9725
  415MOL0     H56020   0.125   6.417  10.610 -0.3866 -0.1828  2.5148
  415MOL0     H56021   0.156   6.120  10.312 -0.9729 -0.6828  1.2809
  415MOL0     H56022   0.645   6.717  10.728  0.1782 -0.9391  0.3992
  415MOL0     H56023   0.879   6.869  10.705  1.7469  0.3261  1.6455
  415MOL0     H56024   0.714   6.919  10.672 -0.2404  0.0769  1.2959
  415MOL0     H56025   0.805   7.022  10.779  1.6103 -0.1489 -1.4420
  416MOL0     O56026   9.294   9.923   0.428  0.2484  0.3932  0.3808
  416MOL0     C56027   9.375   9.944   0.339 -0.1525  0.0463 -0.0039
  416MOL0     O56028   9.354   9.983   0.208  0.2518 -0.3222  0.3682
  416MOL0     C56029   9.222  10.008   0.182  0.0580 -0.8371  0.4517
  416MOL0     C56030   9.207  10.143   0.154  0.1305 -0.4673  0.4521
  416MOL0     C56031   9.079  10.194   0.119  0.1996  0.2762 -0.2994
  416MOL0     C56032   8.968  10.110   0.131  0.2621 -1.0999 -0.2421
  416MOL0     O56033   8.845  10.160   0.103  0.2330  0.0500  0.1201
  416MOL0     C56034   8.728  10.080   0.112 -0.4745 -0.3813 -1.1658
  416MOL0     C56035   8.610  10.171   0.058 -0.8156 -0.0084 -0.5245
  416MOL0     C56036   8.474  10.133   0.115  0.3730 -1.1967 -0.2440
  416MOL0     C56037   8.371  10.247   0.099  0.2485  0.5394  1.0414
  416MOL0     C56038   8.321  10.247  -0.047  0.7420  0.3908 -0.6447
  416MOL0     C56039   8.222  10.356  -0.083  0.1083  0.1727 -0.2028
  416MOL0     C56040   8.111  10.379   0.012  0.8414 -0.2432 -0.1641
  416MOL0     C56041   8.029  10.248   0.007  0.2182  0.2882 -0.5070
  416MOL0     N56042   7.879  10.259   0.025 -0.3604 -0.3609 -0.2491
  416MOL0     C56043   7.825  10.314   0.137  0.1264  0.8933 -0.1257
  416MOL0     C56044   7.691  10.280   0.127 -0.1980 -0.3705  0.1976
  416MOL0     C56045   7.582  10.333   0.228  0.1865 -0.2705 -0.1907
  416MOL0     C56046   7.474  10.428   0.158 -0.4210 -0.2861 -0.9253
  416MOL0     C56047   7.469  10.578   0.197  0.8917 -0.1750  0.2687
  416MOL0     C56048   7.598  10.649   0.167 -0.5196  0.2159  0.4623
  416MOL0     O56049   7.631  10.680   0.031  0.0235 -0.3826 -1.1033
  416MOL0     C56050   7.748  10.759   0.017  0.8255 -0.0638 -0.7359
  416MOL0     C56051   7.803  10.780  -0.111  0.7774  0.2739 -0.9110
  416MOL0     C56052   7.916  10.858  -0.141  0.6909 -0.0469  0.4399
  416MOL0     C56053   8.001  10.900  -0.033  0.5976  0.3607 -0.2949
  416MOL0     C56054   8.137  10.966  -0.054 -0.2173 -0.1655 -0.3571
  416MOL0     O56055   8.180  10.994  -0.186 -0.2611  0.5552 -0.4165
  416MOL0     C56056   8.304  11.049  -0.205 -0.6632 -0.2106 -0.1298
  416MOL0     C56057   8.324  11.178  -0.183 -0.9995  0.0479  0.2617
  416MOL0     C56058   8.450  11.217  -0.222  0.0690 -0.1526  0.6127
  416MOL0     C56059   8.556  11.138  -0.277  0.5967  0.0033  0.0855
  416MOL0     O56060   8.676  11.195  -0.300  0.2054 -0.3958 -0.1917
  416MOL0     C56061   8.788  11.110  -0.329 -0.5538 -1.4711  0.6256
  416MOL0     C56062   8.916  11.188  -0.341  0.1856 -0.1730 -0.4283
  416MOL0     C56063   8.949  11.262  -0.476  0.3886  0.1379 -0.6484
  416MOL0     C56064   9.082  11.350  -0.461  0.2783 -0.2661  1.1053
  416MOL0     C56065   9.215  11.283  -0.408 -0.0799  0.7155  0.1999
  416MOL0     C56066   9.342  11.360  -0.439  0.0802 -0.1884 -0.2318
  416MOL0     C56067   9.377  11.338  -0.588 -0.3474 -0.0339  0.6562
  416MOL0     C56068   9.521  11.377  -0.627  0.3960  0.9184 -1.1432
  416MOL0    Cl56069   9.569  11.322  -0.794  0.1211 -0.2998  0.1947
  416MOL0     C56070   8.524  11.008  -0.300  0.7801 -0.5180  0.6599
  416MOL0     C56071   8.401  10.962  -0.264  0.2209  1.1598  0.1126
  416MOL0     O56072   8.197  10.999   0.043 -0.1001  0.2368  0.0671
  416MOL0     C56073   7.949  10.874   0.093 -0.0001  0.3513 -0.3655
  416MOL0     C56074   7.830  10.803   0.121 -0.1294 -0.1478  0.4882
  416MOL0     N56075   7.668  10.210   0.012 -0.2997 -0.3557 -0.7872
  416MOL0     N56076   7.779  10.201  -0.048  0.1404  0.2101  0.0573
  416MOL0     C56077   8.983   9.979   0.168 -0.5504  0.8464  0.3497
  416MOL0     C56078   9.112   9.926   0.184  0.0447  0.0380  0.1689
  416MOL0     C56079   9.512   9.898   0.366 -0.1297 -0.1243  0.4040
  416MOL0     C56080   9.536   9.788   0.456  0.0275  0.2564  0.4483
  416MOL0     C56081   9.669   9.741   0.471 -0.3863 -0.1072  0.1560
  416MOL0     C56082   9.774   9.801   0.401  0.4882  0.2354  0.2333
  416MOL0     O56083   9.906   9.757   0.398 -0.3745 -0.1087 -0.2425
  416MOL0     C56084   9.959   9.718   0.528 -0.0082 -0.0771 -0.3782
  416MOL0     C56085  10.113   9.726   0.506  0.0583  0.8780 -0.0491
  416MOL0     C56086  10.166   9.860   0.444 -0.1077 -0.2286 -0.1016
  416MOL0     C56087  10.320   9.873   0.469 -0.2588 -0.6111 -0.2890
  416MOL0     C56088  10.377  10.000   0.412 -0.6608  0.0117  0.3068
  416MOL0     C56089  10.408  10.105   0.354 -0.0788  0.1736 -0.3994
  416MOL0     C56090   9.749   9.916   0.329 -0.6047  0.2475  0.2250
  416MOL0     C56091   9.620   9.979   0.315 -0.4321  0.6149 -0.3360
  416MOL0     C56092   9.610  10.109   0.234  0.0573  0.1321  0.4875
  416MOL0     H56093   9.289  10.214   0.165 -0.7228  0.2556  2.6883
  416MOL0     H56094   9.084  10.298   0.088  0.7212  0.1279 -0.7300
  416MOL0     H56095   8.741   9.990   0.051  1.8434 -0.1513 -1.0822
  416MOL0     H56096   8.697  10.050   0.213  1.0623  3.2107  0.5782
  416MOL0     H56097   8.611  10.165  -0.051  0.5913 -1.1414 -0.4871
  416MOL0     H56098   8.625  10.269   0.104  1.0731 -1.2057  1.6293
  416MOL0     H56099   8.481  10.108   0.222 -0.2561  0.5685  0.2347
  416MOL0     H56100   8.438  10.047   0.057  1.5329 -1.8206 -0.0758
  416MOL0     H56101   8.290  10.230   0.170 -0.1338  0.4753  0.5952
  416MOL0     H56102   8.426  10.338   0.127 -0.4013  1.8431 -1.6124
  416MOL0     H56103   8.411  10.250  -0.110 -0.2198 -0.8865 -2.1567
  416MOL0     H56104   8.278  10.149  -0.067  1.3836  0.2279 -1.2872
  416MOL0     H56105   8.267  10.456  -0.092  1.8477 -0.3405  1.8975
  416MOL0     H56106   8.178  10.340  -0.182 -0.6413 -2.1722  0.4572
  416MOL0     H56107   8.049  10.463  -0.019  0.0089  0.0891  2.2517
  416MOL0     H56108   8.149  10.391   0.114  0.5464 -0.1290 -0.0680
  416MOL0     H56109   8.050  10.181  -0.077  1.8785 -1.1837  0.9978
  416MOL0     H56110   8.066  10.179   0.083  0.4858 -0.8601 -1.6367
  416MOL0     H56111   7.883  10.375   0.205  0.7477 -1.4582  1.5744
  416MOL0     H56112   7.541  10.239   0.267  2.6945  0.1478  4.0650
  416MOL0     H56113   7.617  10.376   0.322 -1.2193 -2.6017  1.5116
  416MOL0     H56114   7.488  10.422   0.050 -1.5322 -1.2739 -1.0306
  416MOL0     H56115   7.378  10.380   0.182 -0.5125 -0.7408 -2.1646
  416MOL0     H56116   7.446  10.588   0.303 -0.1149 -0.8803  0.1305
  416MOL0     H56117   7.384  10.625   0.146  0.1064 -1.6866  0.1280
  416MOL0     H56118   7.680  10.586   0.202 -0.3008 -1.0114 -2.0669
  416MOL0     H56119   7.601  10.740   0.229  0.4745 -0.5636  1.6152
  416MOL0     H56120   7.751  10.733  -0.194 -0.4422 -0.0972  0.0278
  416MOL0     H56121   7.947  10.876  -0.244 -1.2626 -1.1484 -0.4005
  416MOL0     H56122   8.247  11.228  -0.123 -0.5088  1.1019  0.0370
  416MOL0     H56123   8.478  11.321  -0.205 -1.0444  0.6282 -1.8539
  416MOL0     H56124   8.803  11.022  -0.264 -0.6710 -0.5475  1.9458
  416MOL0     H56125   8.765  11.060  -0.423 -3.6921 -0.0463  0.5358
  416MOL0     H56126   8.917  11.261  -0.260  0.6168 -1.8382  1.1209
  416MOL0     H56127   9.004  11.127  -0.319  2.0764  2.2394 -0.8318
  416MOL0     H56128   8.964  11.189  -0.556  1.7854  0.7418 -0.9703
  416MOL0     H56129   8.869  11.334  -0.496  0.2740  0.5696  1.2162
  416MOL0     H56130   9.052  11.419  -0.382 -1.0541  0.2601  0.1692
  416MOL0     H56131   9.106  11.414  -0.546 -1.4018  2.7821  2.7537
  416MOL0     H56132   9.228  11.180  -0.442 -1.5279  0.6265 -0.1552
  416MOL0     H56133   9.204  11.282  -0.299 -0.9923  0.4921  0.1194
  416MOL0     H56134   9.332  11.467  -0.422  0.4408 -0.4088  1.5741
  416MOL0     H56135   9.431  11.339  -0.378  0.4472  0.1157 -0.6658
  416MOL0     H56136   9.319  11.397  -0.660  1.9141  0.6262 -0.7393
  416MOL0     H56137   9.366  11.230  -0.603 -0.9319  0.2940 -1.6803
  416MOL0     H56138   9.536  11.485  -0.616  2.3379  0.5520  0.3752
  416MOL0     H56139   9.592  11.332  -0.557  0.5653  2.3962 -0.3264
  416MOL0     H56140   8.596  10.944  -0.349  1.5507  1.4242 -0.8792
  416MOL0     H56141   8.392  10.857  -0.290 -0.3515  0.7642  1.7754
  416MOL0     H56142   8.009  10.919   0.172  0.5206  2.2386 -1.7743
  416MOL0     H56143   7.799  10.813   0.225 -3.6244 -2.1687 -0.2124
  416MOL0     H56144   8.904   9.905   0.174  1.1244 -1.0194  0.3483
  416MOL0     H56145   9.121   9.821   0.209 -3.7079 -0.0181  2.0232
  416MOL0     H56146   9.451   9.734   0.497 -2.0638  1.4547 -1.9663
  416MOL0     H56147   9.675   9.651   0.533  0.7009 -0.2089 -0.0788
  416MOL0     H56148   9.927   9.617   0.555 -4.0861 -0.2492 -4.5705
  416MOL0     H56149   9.926   9.790   0.602  3.0503 -0.7139  1.8005
  416MOL0     H56150  10.156   9.640   0.454  0.5874 -2.6308  5.4208
  416MOL0     H56151  10.158   9.711   0.605  0.5760 -0.2768 -0.4449
  416MOL0     H56152  10.112   9.947   0.482 -2.7550  0.4173 -4.5929
  416MOL0     H56153  10.149   9.863   0.336 -0.9573 -3.4362 -0.1625
  416MOL0     H56154  10.343   9.872   0.576  2.1776 -1.3396 -0.7564
  416MOL0     H56155  10.362   9.782   0.425 -0.3001 -1.6530  1.7130
  416MOL0     H56156  10.425  10.199   0.304  1.8530  2.0720  3.3628
  416MOL0     H56157   9.837   9.967   0.290  0.3749  0.2479  2.3185
  416MOL0     H56158   9.552  10.181   0.291  1.2655 -0.1885  2.2146
  416MOL0     H56159   9.706  10.148   0.200 -1.9819  2.9024 -2.6443
  416MOL0     H56160   9.544  10.089   0.149 -0.8772  1.8803  0.7640
  417MOL0     O56161   4.216   0.872   3.703 -0.2344  0.2707  0.6588
  417MOL0     C56162   4.114   0.890   3.633  1.3517  0.0716 -0.2031
  417MOL0     O56163   4.106   0.966   3.516 -0.1826  0.2325  0.5562
  417MOL0     C56164   4.216   1.035   3.471  0.0973  0.0093  0.4833
  417MOL0     C56165   4.242   1.034   3.335 -0.0174 -0.0746  0.7826
  417MOL0     C56166   4.355   1.096   3.284 -0.0702 -0.5879  0.4761
  417MOL0     C56167   4.443   1.169   3.366 -0.1374 -0.4319 -0.6527
  417MOL0     O56168   4.557   1.222   3.306  0.9789  0.7526  0.6022
  417MOL0     C56169   4.635   1.312   3.380 -0.3476 -0.3777 -0.2736
  417MOL0     C56170   4.564   1.433   3.424  0.2479  0.1106  1.1573
  417MOL0     C56171   4.591   1.543   3.319  1.0246  0.3888 -1.0252
  417MOL0     C56172   4.494   1.670   3.325 -0.1725 -0.7603 -0.3665
  417MOL0     C56173   4.497   1.729   3.465 -0.8344  0.2611 -0.7452
  417MOL0     C56174   4.369   1.805   3.511 -0.5460 -0.4645  0.1495
  417MOL0     C56175   4.381   1.939   3.448  0.4610  1.0862 -0.7976
  417MOL0     C56176   4.249   2.019   3.457 -0.3982 -0.1960  0.1690
  417MOL0     N56177   4.152   1.964   3.364  0.6464  0.3498  0.6883
  417MOL0     C56178   4.121   2.028   3.249 -0.8530  0.4667 -1.3152
  417MOL0     C56179   4.060   1.936   3.169  0.1054 -0.1374  0.3680
  417MOL0     C56180   4.032   1.961   3.027  0.3709  0.2217 -0.0954
  417MOL0     C56181   4.142   1.906   2.937 -0.4718 -0.2743 -0.2309
  417MOL0     C56182   4.138   1.754   2.900  0.2104 -0.1935  0.4170
  417MOL0     C56183   4.032   1.736   2.793  0.3205 -0.2654 -0.5091
  417MOL0     O56184   4.051   1.824   2.682 -0.2021  0.1566 -0.8218
  417MOL0     C56185   4.174   1.831   2.615 -0.1793  0.2927  0.6693
  417MOL0     C56186   4.219   1.953   2.571 -0.0820  0.2571  0.1852
  417MOL0     C56187   4.353   1.967   2.525  0.7686  1.0090 -0.6124
  417MOL0     C56188   4.432   1.850   2.516 -0.2275  0.2260  1.1283
  417MOL0     C56189   4.565   1.849   2.463 -0.0661 -0.5385 -0.4099
  417MOL0     O56190   4.644   1.738   2.481 -0.5938  0.5580  0.2952
  417MOL0     C56191   4.784   1.733   2.441  0.2950 -0.2728  0.4344
  417MOL0     C56192   4.886   1.681   2.522 -0.2798  0.1774  0.1292
  417MOL0     C56193   5.016   1.664   2.473  0.7173 -0.0973 -0.6541
  417MOL0     C56194   5.049   1.711   2.350  0.8283 -0.4924  0.3027
  417MOL0     O56195   5.172   1.700   2.287  0.8025 -0.4440 -1.0211
  417MOL0     C56196   5.256   1.604   2.353 -1.2846  1.0328 -0.0954
  417MOL0     C56197   5.374   1.558   2.255  0.8204  0.0077  0.1383
  417MOL0     C56198   5.460   1.467   2.330  1.1619  0.3603 -1.0104
  417MOL0     C56199   5.604   1.448   2.268 -0.5257 -0.0473 -0.1573
  417MOL0     C56200   5.661   1.324   2.337 -0.3887  0.2120  0.4393
  417MOL0     C56201   5.820   1.316   2.324  0.3924 -0.1912  0.0588
  417MOL0     C56202   5.863   1.188   2.394 -0.6148 -0.2455 -0.2527
  417MOL0     C56203   6.014   1.194   2.440  0.3120 -0.3291  0.0447
  417MOL0    Cl56204   6.040   1.243   2.598  0.0925  0.0228 -0.0272
  417MOL0     C56205   4.954   1.753   2.262 -0.1240  0.4562 -0.2533
  417MOL0     C56206   4.820   1.760   2.302  0.0778 -0.7835  0.1216
  417MOL0     O56207   4.605   1.966   2.427 -0.3391 -0.5481 -0.3603
  417MOL0     C56208   4.385   1.728   2.552 -0.7997 -0.0471 -0.1944
  417MOL0     C56209   4.260   1.718   2.604  0.0793  0.2062  0.0241
  417MOL0     N56210   4.046   1.814   3.235 -0.3059 -0.0710 -0.5235
  417MOL0     N56211   4.107   1.837   3.348  0.7601  0.0741  0.1727
  417MOL0     C56212   4.412   1.176   3.505 -0.0892  0.6075  1.3218
  417MOL0     C56213   4.295   1.117   3.550 -0.2016 -0.3406 -0.2962
  417MOL0     C56214   3.984   0.830   3.677  0.0099  0.1394 -0.0856
  417MOL0     C56215   3.958   0.819   3.814  0.5180  0.7533  0.0908
  417MOL0     C56216   3.840   0.765   3.869 -0.3339  0.1988  0.5977
  417MOL0     C56217   3.749   0.717   3.778  0.5267  0.1762  0.7164
  417MOL0     O56218   3.634   0.658   3.829  0.1014  0.0897 -0.2416
  417MOL0     C56219   3.574   0.551   3.751 -0.9012  0.1214 -0.2332
  417MOL0     C56220   3.666   0.432   3.722 -0.4013 -0.6973  0.1958
  417MOL0     C56221   3.627   0.309   3.796  0.3748 -0.5662  0.3234
  417MOL0     C56222   3.661   0.320   3.942 -0.2856  0.1803 -0.7794
  417MOL0     C56223   3.703   0.207   4.013  0.1133  0.7234 -0.7315
  417MOL0     C56224   3.742   0.105   4.067  0.7942  0.8253 -0.2506
  417MOL0     C56225   3.774   0.713   3.636 -0.6054  0.0436  0.1296
  417MOL0     C56226   3.897   0.768   3.586  0.2033  0.0560  0.3298
  417MOL0     C56227   3.922   0.745   3.442  0.8062 -0.5968 -0.5306
  417MOL0     H56228   4.198   0.959   3.271  2.4801 -3.7016  2.8949
  417MOL0     H56229   4.370   1.080   3.177 -1.4709 -0.3397  0.2167
  417MOL0     H56230   4.659   1.260   3.473  4.4755  0.6293 -0.6978
  417MOL0     H56231   4.728   1.336   3.328 -1.2257 -1.3072 -2.3986
  417MOL0     H56232   4.592   1.462   3.525 -0.7417  0.1783  1.4166
  417MOL0     H56233   4.457   1.411   3.416  0.7017 -1.7703 -1.0203
  417MOL0     H56234   4.598   1.508   3.216 -2.9506  0.7623 -1.5765
  417MOL0     H56235   4.690   1.570   3.356  0.7515 -0.6119  0.5357
  417MOL0     H56236   4.523   1.740   3.246 -0.7741 -0.7812 -0.6093
  417MOL0     H56237   4.389   1.645   3.308 -0.7897  0.2619  1.6627
  417MOL0     H56238   4.522   1.651   3.539  1.9380  0.2739 -1.5595
  417MOL0     H56239   4.580   1.799   3.454  0.2098 -0.9972 -1.1387
  417MOL0     H56240   4.277   1.751   3.486 -0.1846 -0.5205 -1.0888
  417MOL0     H56241   4.374   1.818   3.620  0.2803 -1.2361  0.2188
  417MOL0     H56242   4.403   1.927   3.342 -0.4203  0.0263 -0.8781
  417MOL0     H56243   4.458   1.987   3.509 -0.7959  0.6664  1.2095
  417MOL0     H56244   4.208   2.014   3.558  0.1042  2.6641  0.6021
  417MOL0     H56245   4.266   2.124   3.431 -3.1337  0.0331 -0.9656
  417MOL0     H56246   4.159   2.130   3.241  0.0665  0.4394  1.6343
  417MOL0     H56247   3.937   1.913   3.000  0.0092 -0.9499  2.8710
  417MOL0     H56248   4.015   2.064   2.996 -1.2084  0.0207 -0.0168
  417MOL0     H56249   4.151   1.970   2.848 -0.3927  1.0400  0.6998
  417MOL0     H56250   4.231   1.919   2.998 -1.4893 -0.0753  1.2690
  417MOL0     H56251   4.101   1.694   2.983  3.0708 -0.0919  1.9190
  417MOL0     H56252   4.240   1.724   2.871  0.0375 -0.4730  0.0988
  417MOL0     H56253   3.938   1.759   2.845  0.7649 -1.7058  1.0201
  417MOL0     H56254   4.006   1.635   2.761 -2.3015 -0.0418  0.6535
  417MOL0     H56255   4.148   2.035   2.579  0.2753  0.4513  1.8075
  417MOL0     H56256   4.373   2.066   2.486 -5.2478  2.5277 -0.8817
  417MOL0     H56257   4.872   1.666   2.629  3.3472  1.1356  0.8522
  417MOL0     H56258   5.089   1.633   2.547 -2.7447 -0.7461  2.7969
  417MOL0     H56259   5.300   1.656   2.439 -1.3077  0.5162  0.2332
  417MOL0     H56260   5.204   1.513   2.385  0.7227  0.3799  1.4964
  417MOL0     H56261   5.339   1.506   2.166  0.8260  1.2783 -0.6263
  417MOL0     H56262   5.435   1.641   2.219 -0.1938  0.9373  0.4870
  417MOL0     H56263   5.471   1.503   2.433 -3.5063 -1.7384  0.4867
  417MOL0     H56264   5.417   1.367   2.340 -3.9137  2.3286  0.1306
  417MOL0     H56265   5.668   1.534   2.288  0.2774 -0.5159 -0.6307
  417MOL0     H56266   5.601   1.425   2.161 -1.4453  0.8074 -0.3200
  417MOL0     H56267   5.619   1.229   2.304 -2.1602  0.5683  1.5157
  417MOL0     H56268   5.629   1.324   2.442 -0.0265 -1.5601  0.5857
  417MOL0     H56269   5.842   1.310   2.217  1.4507 -0.8169  0.2959
  417MOL0     H56270   5.870   1.408   2.357 -1.1058  1.5645 -2.2587
  417MOL0     H56271   5.853   1.102   2.327  1.9685  0.4796 -1.7362
  417MOL0     H56272   5.808   1.177   2.488  0.9634 -1.2348  0.6069
  417MOL0     H56273   6.046   1.089   2.432  1.5190  0.0836 -0.9703
  417MOL0     H56274   6.070   1.254   2.367  2.8331  0.3695  2.3729
  417MOL0     H56275   4.980   1.773   2.159 -1.2424 -4.8793 -1.8880
  417MOL0     H56276   4.746   1.798   2.233  1.2704 -2.3989 -2.1934
  417MOL0     H56277   4.436   1.632   2.556 -5.1455 -2.5803  0.3797
  417MOL0     H56278   4.224   1.631   2.658  1.9715  1.1746  3.0889
  417MOL0     H56279   4.483   1.216   3.578  1.7022 -1.1853  0.6361
  417MOL0     H56280   4.272   1.115   3.656 -0.0453 -1.7560 -0.2756
  417MOL0     H56281   4.031   0.858   3.884 -2.2964  3.9556  1.5249
  417MOL0     H56282   3.825   0.771   3.976 -0.7907  0.1315  0.5380
  417MOL0     H56283   3.529   0.588   3.658 -1.3187 -2.9129 -1.3791
  417MOL0     H56284   3.483   0.521   3.803 -0.0426  0.1844  1.3542
  417MOL0     H56285   3.773   0.448   3.735 -0.7074  0.4293  1.5106
  417MOL0     H56286   3.642   0.413   3.617 -4.4817 -0.0538  0.8624
  417MOL0     H56287   3.688   0.232   3.748 -0.1978 -0.2627 -0.9146
  417MOL0     H56288   3.519   0.290   3.791  0.6831 -2.1074 -3.1702
  417MOL0     H56289   3.740   0.395   3.946  0.5683 -0.6063 -2.1357
  417MOL0     H56290   3.572   0.365   3.989 -3.1281 -3.0889 -2.5951
  417MOL0     H56291   3.782   0.022   4.121 -2.2883 -0.8767 -0.3641
  417MOL0     H56292   3.691   0.693   3.570  0.1012 -1.2547 -0.4104
  417MOL0     H56293   3.828   0.734   3.386 -1.3245 -0.6017  2.7802
  417MOL0     H56294   3.981   0.821   3.390  1.3201  0.1746  1.1139
  417MOL0     H56295   3.977   0.651   3.435 -0.8459 -1.5270 -2.2052
  418MOL0     O56296   7.801   4.746   7.867 -0.4135 -0.1599 -0.3558
  418MOL0     C56297   7.831   4.712   7.983  0.5047 -0.6373 -1.0645
  418MOL0     O56298   7.956   4.683   8.029 -0.6429  0.4054 -0.4390
  418MOL0     C56299   8.047   4.601   7.966  0.2445 -0.1495 -0.0619
  418MOL0     C56300   8.005   4.502   7.873 -0.1828 -0.1743  0.1850
  418MOL0     C56301   8.092   4.404   7.826 -0.1057  0.5913 -0.4468
  418MOL0     C56302   8.228   4.395   7.871 -0.3472  0.0421 -0.1521
  418MOL0     O56303   8.297   4.285   7.843  0.4538  0.0264 -0.2956
  418MOL0     C56304   8.446   4.286   7.855 -0.1660  0.4371  0.4145
  418MOL0     C56305   8.501   4.141   7.829  0.6427  0.0617  0.8171
  418MOL0     C56306   8.634   4.129   7.893  0.2776 -0.3715  0.7560
  418MOL0     C56307   8.703   3.999   7.857 -0.6719  0.0128  0.5386
  418MOL0     C56308   8.852   4.007   7.874 -0.7447 -0.7958  0.0324
  418MOL0     C56309   8.916   4.130   7.809 -0.6282  0.2460  0.3125
  418MOL0     C56310   9.069   4.110   7.780 -0.0018 -0.4019 -0.2029
  418MOL0     C56311   9.107   4.173   7.647  0.7031 -0.9010 -0.0487
  418MOL0     N56312   9.248   4.143   7.612  0.8552 -0.0655  0.0450
  418MOL0     C56313   9.363   4.203   7.666 -0.0411 -0.6663 -0.8554
  418MOL0     C56314   9.469   4.149   7.611  0.3235 -0.7271 -0.3382
  418MOL0     C56315   9.608   4.190   7.621 -0.2976 -0.6007 -0.3587
  418MOL0     C56316   9.654   4.171   7.766 -0.0670 -0.2603  0.0102
  418MOL0     C56317   9.798   4.126   7.783  0.1911  0.2223 -0.0383
  418MOL0     C56318   9.909   4.178   7.691 -0.3452 -0.0509 -0.3481
  418MOL0     O56319  10.030   4.106   7.699  0.6603 -0.2292  0.1720
  418MOL0     C56320  10.124   4.135   7.798 -0.3468 -0.8068  0.8656
  418MOL0     C56321  10.106   4.218   7.911  0.2745  0.1465  0.8235
  418MOL0     C56322  10.205   4.243   8.007 -0.0559 -0.3010 -0.2613
  418MOL0     C56323  10.332   4.193   7.978  0.1340  0.1561 -0.2652
  418MOL0     C56324  10.451   4.234   8.056  0.0311  0.1655  0.6306
  418MOL0     O56325  10.426   4.339   8.141 -0.3733 -0.4435  0.1080
  418MOL0     C56326  10.534   4.395   8.203 -0.6732 -0.1574  0.2852
  418MOL0     C56327  10.511   4.460   8.321 -0.3398  0.0425  0.1356
  418MOL0     C56328  10.609   4.549   8.376 -0.3858 -0.4553 -0.2777
  418MOL0     C56329  10.734   4.565   8.322 -1.3182 -0.2584 -0.3641
  418MOL0     O56330  10.825   4.654   8.378  0.5424 -0.5473 -0.2126
  418MOL0     C56331  10.927   4.712   8.294 -0.2163  0.3376  0.5858
  418MOL0     C56332  11.018   4.806   8.372  0.6654 -0.5285  0.6726
  418MOL0     C56333  11.110   4.869   8.270  0.4699 -0.7343  0.2483
  418MOL0     C56334  11.203   4.956   8.352 -0.0712  0.7450 -0.7297
  418MOL0     C56335  11.321   5.022   8.273 -0.6928  0.9961 -0.2909
  418MOL0     C56336  11.408   5.109   8.363  0.4023 -0.0601  0.6759
  418MOL0     C56337  11.531   5.155   8.301  0.0668 -0.5997  0.3636
  418MOL0     C56338  11.641   5.042   8.279  0.2259 -0.5958  0.9113
  418MOL0    Cl56339  11.651   4.957   8.441 -0.7689 -0.2397 -0.1300
  418MOL0     C56340  10.767   4.469   8.221  0.9169 -0.2245 -0.4005
  418MOL0     C56341  10.672   4.394   8.167 -0.6111 -0.3306 -0.0049
  418MOL0     O56342  10.555   4.169   8.034  0.0006 -0.5488 -0.7817
  418MOL0     C56343  10.360   4.118   7.859 -1.0205  0.2631  0.0996
  418MOL0     C56344  10.250   4.086   7.779  0.1348 -0.4456  0.0758
  418MOL0     N56345   9.425   4.051   7.523 -0.0040 -0.3615 -0.2882
  418MOL0     N56346   9.291   4.047   7.529 -0.0533 -0.2301 -0.4405
  418MOL0     C56347   8.266   4.497   7.955 -0.5374 -0.5624 -0.5174
  418MOL0     C56348   8.177   4.593   7.998 -0.2629  0.7644 -0.7362
  418MOL0     C56349   7.734   4.738   8.098 -0.0060 -0.2264 -0.6438
  418MOL0     C56350   7.788   4.752   8.230 -0.1158 -0.0636 -0.0713
  418MOL0     C56351   7.704   4.781   8.339  0.3437 -1.2095 -0.9966
  418MOL0     C56352   7.570   4.793   8.319 -0.2735  1.1695  0.7775
  418MOL0     O56353   7.470   4.816   8.411 -0.2009  0.8416  0.2041
  418MOL0     C56354   7.510   4.858   8.541 -0.1077  0.3020  0.6471
  418MOL0     C56355   7.567   5.000   8.544 -0.0964  0.5848  0.0764
  418MOL0     C56356   7.446   5.099   8.533 -0.6499 -1.1023  0.1072
  418MOL0     C56357   7.494   5.247   8.553  0.1563 -0.8075  0.2139
  418MOL0     C56358   7.385   5.337   8.571  0.6403  0.6891 -0.3650
  418MOL0     C56359   7.304   5.425   8.580  0.1411 -0.0086  1.1165
  418MOL0     C56360   7.519   4.790   8.195  0.3392 -0.2995  0.7295
  418MOL0     C56361   7.592   4.739   8.085 -0.8215 -0.0165  0.6180
  418MOL0     C56362   7.525   4.703   7.958  0.3106 -0.1284  0.2118
  418MOL0     H56363   7.899   4.496   7.849 -0.0920  0.1090 -0.2949
  418MOL0     H56364   8.060   4.325   7.759 -1.2560  1.6030 -1.1411
  418MOL0     H56365   8.491   4.358   7.786 -0.0033  2.7446  2.7366
  418MOL0     H56366   8.492   4.313   7.951  2.1918 -1.4475 -0.0672
  418MOL0     H56367   8.501   4.127   7.721  0.4046  0.9698  0.6899
  418MOL0     H56368   8.429   4.076   7.879 -1.1810  2.0215  0.8939
  418MOL0     H56369   8.630   4.127   8.002 -1.7241 -2.4642  0.7362
  418MOL0     H56370   8.688   4.220   7.867 -2.5255  1.4945  1.0077
  418MOL0     H56371   8.659   3.916   7.913 -0.7480  1.0326  2.0248
  418MOL0     H56372   8.695   3.967   7.753  0.3512 -0.4892  0.6015
  418MOL0     H56373   8.863   4.010   7.983  0.1508  0.7359 -0.0781
  418MOL0     H56374   8.900   3.919   7.831  1.9347  0.9773 -0.8275
  418MOL0     H56375   8.863   4.149   7.715 -0.7359 -3.1518 -0.4521
  418MOL0     H56376   8.915   4.218   7.874  1.8381 -0.5026  1.4920
  418MOL0     H56377   9.081   4.001   7.773 -0.3240 -0.3394 -2.6351
  418MOL0     H56378   9.126   4.149   7.864  1.4150 -2.4328 -0.1563
  418MOL0     H56379   9.038   4.141   7.568 -0.4380 -0.9396  0.9298
  418MOL0     H56380   9.095   4.280   7.664  0.7804 -1.0292  0.8815
  418MOL0     H56381   9.373   4.287   7.734 -2.4010 -2.7398  2.4037
  418MOL0     H56382   9.669   4.131   7.552  1.0080 -1.1048  1.1824
  418MOL0     H56383   9.609   4.296   7.594 -2.0937 -0.6294 -0.7059
  418MOL0     H56384   9.651   4.273   7.806 -1.9363  0.9047 -2.7905
  418MOL0     H56385   9.596   4.095   7.819  0.2425 -0.7197 -0.3122
  418MOL0     H56386   9.801   4.017   7.775 -0.4116  0.1981  0.0025
  418MOL0     H56387   9.834   4.154   7.882  0.1246  4.9182 -1.1112
  418MOL0     H56388   9.936   4.283   7.707 -0.1178  0.1369 -1.8451
  418MOL0     H56389   9.876   4.171   7.587  2.6974 -1.1805 -1.3416
  418MOL0     H56390  10.007   4.260   7.925 -0.0072 -0.4324  0.5643
  418MOL0     H56391  10.194   4.306   8.095  0.6900  1.9358 -1.6997
  418MOL0     H56392  10.416   4.443   8.371 -0.7432  1.7659  0.0305
  418MOL0     H56393  10.581   4.605   8.465  0.4468 -2.9769  1.6894
  418MOL0     H56394  10.985   4.635   8.244  0.8415  2.7646 -2.2192
  418MOL0     H56395  10.877   4.765   8.213  1.2246 -0.9422 -1.2118
  418MOL0     H56396  10.953   4.883   8.416  2.2611  1.0681  0.3539
  418MOL0     H56397  11.070   4.741   8.442  0.6523  1.1689  2.3252
  418MOL0     H56398  11.161   4.791   8.213 -0.5906  0.0231 -1.8562
  418MOL0     H56399  11.057   4.931   8.196  3.3077 -0.4613 -1.7210
  418MOL0     H56400  11.244   4.906   8.440  1.0364  1.2458 -0.9453
  418MOL0     H56401  11.146   5.036   8.401  1.2056  1.0497  0.2952
  418MOL0     H56402  11.277   5.083   8.193 -0.7035  0.3177 -0.8066
  418MOL0     H56403  11.393   4.959   8.220  0.2429 -0.1231  2.1434
  418MOL0     H56404  11.348   5.194   8.398 -3.7049 -1.9780 -1.0300
  418MOL0     H56405  11.436   5.053   8.452 -0.6972  1.5898  2.1336
  418MOL0     H56406  11.582   5.226   8.366  0.6323  0.7712 -1.4910
  418MOL0     H56407  11.515   5.209   8.207 -0.8190 -2.1261 -0.4042
  418MOL0     H56408  11.614   4.965   8.207  0.7491 -0.4899  0.5943
  418MOL0     H56409  11.738   5.084   8.250  0.9615 -0.4892  3.2989
  418MOL0     H56410  10.861   4.474   8.167  0.8824 -1.3242 -0.5808
  418MOL0     H56411  10.701   4.341   8.077 -1.4724 -0.4909 -0.2004
  418MOL0     H56412  10.460   4.083   7.833 -0.8552 -0.7202  1.8868
  418MOL0     H56413  10.258   4.029   7.686  2.0096  1.8529 -1.2857
  418MOL0     H56414   8.361   4.498   8.009 -0.9055 -0.0531  0.1279
  418MOL0     H56415   8.225   4.659   8.069 -0.5003 -0.1251  0.2759
  418MOL0     H56416   7.895   4.748   8.252 -0.2044 -0.0010  0.3896
  418MOL0     H56417   7.743   4.808   8.437 -2.2884  2.2432 -0.7012
  418MOL0     H56418   7.581   4.789   8.588  0.5031 -0.5382 -1.3704
  418MOL0     H56419   7.415   4.856   8.593  1.0060 -2.3213  2.7866
  418MOL0     H56420   7.641   5.012   8.465  0.5672 -2.2662  0.1475
  418MOL0     H56421   7.627   5.015   8.634  4.4162  0.6896 -2.6362
  418MOL0     H56422   7.374   5.080   8.614 -0.9924 -0.6068 -0.0784
  418MOL0     H56423   7.404   5.090   8.432  2.4381  0.8038 -1.4944
  418MOL0     H56424   7.545   5.250   8.650  1.5656  1.2591 -0.5252
  418MOL0     H56425   7.569   5.273   8.479  0.1015  0.2886  0.5244
  418MOL0     H56426   7.226   5.497   8.595  0.0771  0.0345  0.5845
  418MOL0     H56427   7.413   4.795   8.172  0.5330 -0.2788 -0.2241
  418MOL0     H56428   7.420   4.672   7.961  1.1243 -4.1237 -3.3480
  418MOL0     H56429   7.536   4.795   7.899  2.2962  0.2224  1.0355
  418MOL0     H56430   7.576   4.618   7.912 -3.8037 -2.5970 -0.2793
  419MOL0     O56431   6.288   2.569   6.962 -0.4867  0.4707 -0.3588
  419MOL0     C56432   6.391   2.509   6.989  0.5784  0.2395  0.6905
  419MOL0     O56433   6.513   2.559   6.999 -0.5201  0.9359  0.3660
  419MOL0     C56434   6.538   2.690   6.975 -0.2113  1.2281 -0.2017
  419MOL0     C56435   6.505   2.760   6.859 -0.0193 -0.2502  0.2820
  419MOL0     C56436   6.543   2.890   6.836  0.6300 -0.0075 -0.1552
  419MOL0     C56437   6.620   2.953   6.931  0.2674  0.4143 -0.2283
  419MOL0     O56438   6.657   3.079   6.893  0.2733 -0.3700 -0.7948
  419MOL0     C56439   6.669   3.175   6.998  0.5159 -0.0631 -0.3055
  419MOL0     C56440   6.640   3.317   6.944  0.9759 -0.2413  0.0822
  419MOL0     C56441   6.485   3.331   6.914  0.6724  0.1721  0.8720
  419MOL0     C56442   6.442   3.480   6.928 -0.2101  0.0696  0.0081
  419MOL0     C56443   6.408   3.513   7.077 -0.4657  0.6924  0.2866
  419MOL0     C56444   6.321   3.636   7.085 -0.6511 -0.4446  0.0005
  419MOL0     C56445   6.408   3.763   7.082  0.3874  0.8396  0.7004
  419MOL0     C56446   6.341   3.874   7.165 -0.9433 -0.0408 -0.5491
  419MOL0     N56447   6.432   3.991   7.165  0.1391 -0.0168 -0.1005
  419MOL0     C56448   6.449   4.068   7.047 -0.3987  0.4513  0.2247
  419MOL0     C56449   6.528   4.168   7.089 -0.4545  0.3830  0.1749
  419MOL0     C56450   6.565   4.279   6.993 -0.5452 -0.0184  0.1076
  419MOL0     C56451   6.710   4.279   6.959  0.4217 -0.5317  0.6443
  419MOL0     C56452   6.795   4.315   7.081 -0.3751 -0.9835 -0.0664
  419MOL0     C56453   6.869   4.195   7.140  0.5863 -0.1193  0.3110
  419MOL0     O56454   6.936   4.234   7.256  0.0024 -1.0428 -0.3079
  419MOL0     C56455   7.051   4.166   7.285 -0.2622 -0.4949  0.5796
  419MOL0     C56456   7.070   4.028   7.255 -0.0448 -0.6172 -0.8498
  419MOL0     C56457   7.191   3.962   7.282  0.5407 -0.3313 -0.9293
  419MOL0     C56458   7.294   4.038   7.334 -0.2590 -1.2626  0.0942
  419MOL0     C56459   7.434   3.980   7.340  0.1973 -0.3278 -0.4593
  419MOL0     O56460   7.537   4.043   7.386  0.0434 -0.3222  0.2765
  419MOL0     C56461   7.669   4.006   7.369 -0.2803  0.2391 -0.5420
  419MOL0     C56462   7.760   4.089   7.443  0.0284  0.5868 -0.3787
  419MOL0     C56463   7.897   4.061   7.453 -0.0898 -0.0475  0.0296
  419MOL0     C56464   7.955   3.960   7.381  0.3497 -0.0889  0.0709
  419MOL0     O56465   8.092   3.931   7.389  0.1351 -0.2062  0.2553
  419MOL0     C56466   8.156   3.850   7.283 -0.0162 -0.1025  0.1444
  419MOL0     C56467   8.296   3.818   7.321  0.8582  0.2298 -0.3649
  419MOL0     C56468   8.391   3.940   7.322 -0.7026  0.3063 -0.1768
  419MOL0     C56469   8.537   3.888   7.332 -0.2822  0.0278 -0.7310
  419MOL0     C56470   8.641   3.979   7.390 -0.0672 -0.2135  0.3802
  419MOL0     C56471   8.766   3.903   7.431 -0.0233 -0.8467 -0.3541
  419MOL0     C56472   8.826   3.821   7.317 -0.5269 -0.0341  0.3191
  419MOL0     C56473   8.962   3.768   7.356  0.2603 -0.1628 -0.4908
  419MOL0    Cl56474   9.088   3.872   7.290 -0.2171  0.1366  0.2226
  419MOL0     C56475   7.871   3.888   7.296  0.0953 -0.4963 -0.0769
  419MOL0     C56476   7.732   3.911   7.284  0.4967  0.1836 -0.7022
  419MOL0     O56477   7.438   3.868   7.284 -0.5951 -0.4531 -0.3222
  419MOL0     C56478   7.276   4.167   7.381  0.1385 -0.2142 -0.7447
  419MOL0     C56479   7.158   4.231   7.346  0.0092 -0.1688 -0.5617
  419MOL0     N56480   6.547   4.153   7.226 -0.0070 -0.0643 -1.1540
  419MOL0     N56481   6.493   4.048   7.270 -0.3708  0.3570 -0.6138
  419MOL0     C56482   6.668   2.886   7.047  0.0627 -0.1310 -0.3398
  419MOL0     C56483   6.623   2.755   7.074  0.0410 -0.9397  0.2710
  419MOL0     C56484   6.373   2.363   7.016 -0.5922 -0.0374 -0.4510
  419MOL0     C56485   6.435   2.318   7.132 -0.6474 -0.1832  0.7210
  419MOL0     C56486   6.436   2.187   7.173  0.6718 -0.0717 -0.5547
  419MOL0     C56487   6.352   2.092   7.117 -0.1431 -0.3306  0.1120
  419MOL0     O56488   6.340   1.969   7.170 -0.3739 -0.0919 -0.2631
  419MOL0     C56489   6.426   1.874   7.095  0.9389 -0.5956  0.3266
  419MOL0     C56490   6.392   1.733   7.131  0.9473 -0.2006  0.2997
  419MOL0     C56491   6.498   1.625   7.095 -0.1666 -1.0641  1.1092
  419MOL0     C56492   6.577   1.624   6.970 -0.2621  0.5087  0.2420
  419MOL0     C56493   6.489   1.627   6.854 -0.0316  0.4587 -0.1531
  419MOL0     C56494   6.423   1.631   6.750  0.5906 -0.7544 -0.0516
  419MOL0     C56495   6.293   2.136   6.996 -1.3362  0.2693 -0.1199
  419MOL0     C56496   6.296   2.269   6.943 -0.6247 -0.2377 -0.1253
  419MOL0     C56497   6.226   2.298   6.822  0.2198  0.7366 -0.2416
  419MOL0     H56498   6.446   2.721   6.776 -0.3882  1.7482 -0.4616
  419MOL0     H56499   6.520   2.957   6.754  3.3010  0.7256 -0.3929
  419MOL0     H56500   6.593   3.145   7.071  1.7765 -0.8586  0.6986
  419MOL0     H56501   6.774   3.170   7.027  0.5662  0.5716 -0.3730
  419MOL0     H56502   6.694   3.341   6.852 -2.1097 -1.2192 -2.1813
  419MOL0     H56503   6.665   3.397   7.014  0.3671  1.7752 -1.8703
  419MOL0     H56504   6.428   3.278   6.990  1.6751  0.2854  1.7171
  419MOL0     H56505   6.461   3.290   6.815 -0.9369 -1.5553  1.9292
  419MOL0     H56506   6.516   3.545   6.882  0.7084 -0.4975  0.6560
  419MOL0     H56507   6.362   3.487   6.854  3.9755  0.4553 -5.0046
  419MOL0     H56508   6.352   3.435   7.129  0.8734  0.4818  1.4526
  419MOL0     H56509   6.498   3.502   7.137  0.5040 -3.8269 -1.5947
  419MOL0     H56510   6.253   3.643   6.999  0.8450 -0.5347 -1.2275
  419MOL0     H56511   6.252   3.634   7.171 -2.5556 -0.7533 -1.4658
  419MOL0     H56512   6.427   3.801   6.981 -1.8629  0.3774  0.0334
  419MOL0     H56513   6.505   3.745   7.129 -0.3014 -1.0331  1.5196
  419MOL0     H56514   6.241   3.899   7.130 -1.4674  3.6627  2.8392
  419MOL0     H56515   6.343   3.838   7.269  0.6750  0.3568 -0.4146
  419MOL0     H56516   6.397   4.047   6.954  0.9951 -1.7262 -0.1461
  419MOL0     H56517   6.529   4.258   6.892 -0.5519 -0.6268  0.2347
  419MOL0     H56518   6.523   4.377   7.019 -3.2250 -1.0702  0.1208
  419MOL0     H56519   6.729   4.181   6.915  0.4095 -0.8625  1.3681
  419MOL0     H56520   6.720   4.345   6.872 -0.1324 -3.2959 -1.6641
  419MOL0     H56521   6.743   4.364   7.163  1.3300 -1.3351  1.2876
  419MOL0     H56522   6.884   4.373   7.056 -0.2029 -0.3051  1.9192
  419MOL0     H56523   6.924   4.134   7.068 -0.7112 -0.9180 -0.0376
  419MOL0     H56524   6.786   4.131   7.173 -0.0610  0.5272 -0.0303
  419MOL0     H56525   7.005   3.966   7.195  0.8482 -1.3072 -1.1422
  419MOL0     H56526   7.196   3.857   7.256  0.3307 -0.3985 -0.7018
  419MOL0     H56527   7.712   4.177   7.486  0.9507  1.4531 -1.0784
  419MOL0     H56528   7.952   4.139   7.504 -1.4884  1.0023 -0.0125
  419MOL0     H56529   8.100   3.757   7.269 -0.2337  0.2504 -1.5393
  419MOL0     H56530   8.148   3.903   7.188 -2.2809 -3.0337 -1.4663
  419MOL0     H56531   8.302   3.781   7.424  4.6144  2.5095  0.4233
  419MOL0     H56532   8.324   3.735   7.256 -0.3446  0.1893 -0.8627
  419MOL0     H56533   8.396   3.998   7.229  1.7432  0.4720  0.0132
  419MOL0     H56534   8.353   4.014   7.393  0.5012  0.6699  0.1147
  419MOL0     H56535   8.568   3.838   7.240  0.2116  2.3110 -1.8759
  419MOL0     H56536   8.523   3.814   7.412  2.9953  1.0829  0.9906
  419MOL0     H56537   8.602   4.037   7.474 -0.8043 -0.4557  0.2134
  419MOL0     H56538   8.663   4.056   7.315 -2.4793 -0.0126 -0.2273
  419MOL0     H56539   8.836   3.972   7.479 -0.3987 -1.7574  1.6090
  419MOL0     H56540   8.746   3.828   7.508  1.3163  0.7373  1.6225
  419MOL0     H56541   8.822   3.882   7.227 -2.6299  1.3956  1.2939
  419MOL0     H56542   8.767   3.731   7.298  0.5677 -0.9568  1.1603
  419MOL0     H56543   8.975   3.746   7.463 -2.9651 -0.6341 -0.1146
  419MOL0     H56544   8.974   3.680   7.292  1.0678  1.1434 -2.2205
  419MOL0     H56545   7.912   3.803   7.242 -2.5489 -1.1574 -1.2110
  419MOL0     H56546   7.664   3.860   7.217  0.5692 -1.6095  0.5133
  419MOL0     H56547   7.353   4.235   7.414 -1.7520  3.4244 -3.0797
  419MOL0     H56548   7.139   4.335   7.374  0.4402 -0.2588  0.0835
  419MOL0     H56549   6.736   2.932   7.118 -1.7646  0.7063  0.9363
  419MOL0     H56550   6.653   2.711   7.168  0.9090  1.3937  1.1541
  419MOL0     H56551   6.501   2.385   7.186 -1.5752  1.2641  0.0982
  419MOL0     H56552   6.492   2.142   7.254 -0.0560 -2.8610 -1.5029
  419MOL0     H56553   6.531   1.903   7.106  0.8572  0.1734 -0.7277
  419MOL0     H56554   6.400   1.886   6.989  1.5205  0.6428  0.3054
  419MOL0     H56555   6.298   1.701   7.086 -1.4835  0.8089  4.2597
  419MOL0     H56556   6.393   1.738   7.240 -0.3744 -0.3047  0.3270
  419MOL0     H56557   6.455   1.526   7.111 -0.4781 -1.2264 -0.5748
  419MOL0     H56558   6.575   1.643   7.171  1.4413  0.9240 -0.8438
  419MOL0     H56559   6.643   1.710   6.973 -0.7601  0.9667 -1.2010
  419MOL0     H56560   6.639   1.535   6.956 -0.1907  0.1595  2.3600
  419MOL0     H56561   6.351   1.633   6.670  0.9847 -2.2115 -0.4669
  419MOL0     H56562   6.234   2.055   6.954 -1.2670 -1.1507  2.3484
  419MOL0     H56563   6.134   2.353   6.843 -1.0002  0.4861 -4.1295
  419MOL0     H56564   6.288   2.349   6.749  0.4496  1.9287  0.7631
  419MOL0     H56565   6.189   2.207   6.772 -1.8421  1.5645 -0.3229
  420MOL0     O56566   3.452   8.067   4.762 -0.6723  0.6513  0.3628
  420MOL0     C56567   3.462   8.157   4.846  0.3433  0.3915 -0.1615
  420MOL0     O56568   3.360   8.232   4.910  0.1779  0.0616  0.4472
  420MOL0     C56569   3.250   8.149   4.957 -0.3396 -0.3184 -0.6778
  420MOL0     C56570   3.130   8.209   4.946  0.0130  0.0500  0.1295
  420MOL0     C56571   3.007   8.143   4.973  1.4121 -0.2528 -0.1004
  420MOL0     C56572   3.006   8.010   5.014  0.5274 -0.2319 -0.1912
  420MOL0     O56573   2.900   7.929   5.043 -0.3504 -0.0252 -0.1054
  420MOL0     C56574   2.764   7.974   4.996  0.9408 -0.0709 -0.0908
  420MOL0     C56575   2.672   7.852   4.993  0.2215  0.4971  0.9190
  420MOL0     C56576   2.699   7.761   4.869  0.3173 -0.0417  0.1243
  420MOL0     C56577   2.836   7.700   4.875  0.3254  0.1508 -0.1125
  420MOL0     C56578   2.858   7.570   4.780 -0.8885  0.0074  0.9289
  420MOL0     C56579   3.000   7.519   4.796  0.2662 -0.6196 -0.2416
  420MOL0     C56580   3.044   7.445   4.663  0.0292 -0.0742 -0.9874
  420MOL0     C56581   3.082   7.532   4.545  0.1570  0.0802  0.3876
  420MOL0     N56582   3.077   7.474   4.417 -0.0533 -0.0677  0.0149
  420MOL0     C56583   3.167   7.381   4.368  0.3746  0.9101 -0.2695
  420MOL0     C56584   3.122   7.356   4.246 -0.9902  1.4953 -0.6327
  420MOL0     C56585   3.191   7.249   4.162  0.3605  0.0280  0.5591
  420MOL0     C56586   3.175   7.295   4.014 -0.1245  0.3008  0.1698
  420MOL0     C56587   3.242   7.205   3.907 -0.1452  0.1620  0.1672
  420MOL0     C56588   3.394   7.226   3.897 -0.2005 -0.5642 -0.3336
  420MOL0     O56589   3.421   7.365   3.865 -0.2103 -0.1537  0.1501
  420MOL0     C56590   3.548   7.407   3.856  0.4086  0.0900 -0.6801
  420MOL0     C56591   3.569   7.540   3.893 -1.1374  0.3514 -0.5535
  420MOL0     C56592   3.695   7.591   3.893 -0.6909 -0.2775 -0.8168
  420MOL0     C56593   3.810   7.507   3.878  0.3744 -0.3125 -1.2022
  420MOL0     C56594   3.950   7.560   3.903  0.2152 -0.3094  0.3486
  420MOL0     O56595   4.049   7.468   3.885  0.1917 -0.5474 -0.6715
  420MOL0     C56596   4.169   7.519   3.919 -0.6335  0.1831  0.1005
  420MOL0     C56597   4.202   7.556   4.049  0.6381 -0.3379  0.3183
  420MOL0     C56598   4.333   7.582   4.082 -0.0525 -1.0250 -0.1005
  420MOL0     C56599   4.435   7.588   3.987  1.1706  0.4993 -0.7056
  420MOL0     O56600   4.564   7.595   4.023  0.2857  0.2023 -0.7751
  420MOL0     C56601   4.624   7.467   4.042  0.1290  0.1788 -0.7364
  420MOL0     C56602   4.682   7.415   3.912  0.1676 -0.0035 -0.8259
  420MOL0     C56603   4.799   7.325   3.934 -0.3997  0.0669  0.3366
  420MOL0     C56604   4.859   7.282   3.797  0.2173 -0.4130  0.0232
  420MOL0     C56605   4.961   7.177   3.819 -0.0976 -0.1939 -0.4745
  420MOL0     C56606   5.028   7.114   3.686 -0.2090  0.3759 -0.5258
  420MOL0     C56607   5.078   6.980   3.717 -0.0373  0.4844  0.0884
  420MOL0     C56608   5.142   6.904   3.600 -0.1569  0.0540 -0.5269
  420MOL0    Cl56609   5.228   6.755   3.659 -0.4053 -0.0704  0.0055
  420MOL0     C56610   4.405   7.542   3.864  0.1245 -0.5642 -0.7763
  420MOL0     C56611   4.276   7.504   3.829  0.6809  0.5250  0.3917
  420MOL0     O56612   3.956   7.680   3.940  0.0689  0.6835 -0.0416
  420MOL0     C56613   3.793   7.370   3.841 -0.0246 -1.1750  0.2728
  420MOL0     C56614   3.660   7.326   3.830  1.1943 -0.3003  0.6152
  420MOL0     N56615   2.999   7.411   4.220  0.3648 -0.2536  0.0437
  420MOL0     N56616   2.976   7.479   4.331  0.0095 -0.3064  0.1395
  420MOL0     C56617   3.133   7.951   5.026  1.2020 -0.0264 -0.2501
  420MOL0     C56618   3.251   8.013   4.994  0.0074  0.9138  0.0869
  420MOL0     C56619   3.604   8.199   4.880  0.4829  0.4194 -0.9570
  420MOL0     C56620   3.617   8.305   4.972  0.0811  0.5891 -0.1786
  420MOL0     C56621   3.743   8.356   5.018 -0.1481  1.2511 -0.3706
  420MOL0     C56622   3.857   8.302   4.974 -0.8183 -1.3345 -0.3285
  420MOL0     O56623   3.974   8.349   5.017  0.3907  0.6862 -0.4235
  420MOL0     C56624   4.095   8.281   4.987 -0.0076 -0.2947  0.2062
  420MOL0     C56625   4.208   8.355   5.061 -0.0064 -0.1822 -0.8161
  420MOL0     C56626   4.350   8.302   5.050  0.0364  0.4701  0.3458
  420MOL0     C56627   4.454   8.390   5.129  0.1138 -0.4264 -0.0645
  420MOL0     C56628   4.585   8.404   5.061  0.0952 -0.3307  0.2534
  420MOL0     C56629   4.693   8.416   5.005 -0.1554  0.5075  0.1839
  420MOL0     C56630   3.848   8.202   4.879  0.3647 -0.1999 -0.4727
  420MOL0     C56631   3.727   8.150   4.831 -0.2578 -0.0904  0.1308
  420MOL0     C56632   3.728   8.062   4.712  0.2153 -0.5680  0.1080
  420MOL0     H56633   3.138   8.304   4.895  0.8226 -1.0391 -1.9085
  420MOL0     H56634   2.916   8.198   4.952  2.1890  0.7676 -0.9367
  420MOL0     H56635   2.729   8.035   5.080 -0.1589  0.8790 -1.2110
  420MOL0     H56636   2.765   8.037   4.907  3.9874 -1.8838 -1.4971
  420MOL0     H56637   2.565   7.867   5.012 -0.1374 -1.8762  1.0561
  420MOL0     H56638   2.696   7.795   5.082  0.8444  2.8742  2.3650
  420MOL0     H56639   2.660   7.809   4.779 -2.2165  0.1546  1.2306
  420MOL0     H56640   2.623   7.683   4.883  0.2753  0.0906  0.6579
  420MOL0     H56641   2.903   7.781   4.848  2.0999 -0.9610  0.7302
  420MOL0     H56642   2.859   7.671   4.978 -1.2375  2.2439  0.8827
  420MOL0     H56643   2.795   7.492   4.822  0.9924 -1.9112  0.3542
  420MOL0     H56644   2.843   7.585   4.673  0.0632 -0.2135  0.7572
  420MOL0     H56645   3.074   7.599   4.812  2.5783 -1.9421 -3.3512
  420MOL0     H56646   3.009   7.453   4.883  0.5656 -0.7709 -0.3880
  420MOL0     H56647   2.964   7.373   4.641  0.5296 -1.8918  2.3536
  420MOL0     H56648   3.118   7.371   4.695  0.3068  1.2963  1.8273
  420MOL0     H56649   3.011   7.615   4.538 -0.6966 -0.4772  1.9478
  420MOL0     H56650   3.185   7.569   4.551  0.1514  0.1546  0.0308
  420MOL0     H56651   3.255   7.345   4.419  1.3453  1.5996 -1.4267
  420MOL0     H56652   3.298   7.241   4.185  1.7481 -1.5554 -4.8435
  420MOL0     H56653   3.144   7.151   4.174  1.4269 -0.5013  0.5929
  420MOL0     H56654   3.068   7.295   3.994 -0.2453  1.1993  0.7684
  420MOL0     H56655   3.206   7.400   4.004 -0.7251  0.3620 -1.2251
  420MOL0     H56656   3.205   7.250   3.814 -2.4687 -2.3043 -0.2195
  420MOL0     H56657   3.204   7.103   3.920  0.3897  0.2301  2.9000
  420MOL0     H56658   3.439   7.157   3.824 -3.5400 -1.8770 -1.4071
  420MOL0     H56659   3.440   7.219   3.995 -1.4882  3.6634  0.7778
  420MOL0     H56660   3.483   7.606   3.903 -1.0451  0.6540 -1.6240
  420MOL0     H56661   3.710   7.697   3.912 -0.7575 -0.2717 -0.7955
  420MOL0     H56662   4.119   7.575   4.115  0.4750 -5.0041  1.8731
  420MOL0     H56663   4.347   7.610   4.186 -0.4639  2.6918 -0.9114
  420MOL0     H56664   4.705   7.482   4.114  0.5176  0.3455 -1.2040
  420MOL0     H56665   4.552   7.403   4.094 -0.4668  0.6687 -0.9493
  420MOL0     H56666   4.610   7.365   3.846  0.7388 -0.0021 -1.4642
  420MOL0     H56667   4.716   7.504   3.859  1.4884  0.3586  0.5505
  420MOL0     H56668   4.879   7.367   3.995  0.3987 -1.8632  0.7201
  420MOL0     H56669   4.767   7.239   3.993 -0.0160 -0.3354 -0.0317
  420MOL0     H56670   4.904   7.367   3.743  1.2913 -2.9076 -3.3645
  420MOL0     H56671   4.789   7.229   3.732 -0.9539  2.5809 -1.3929
  420MOL0     H56672   4.918   7.100   3.885 -1.6173  1.5511  0.6612
  420MOL0     H56673   5.045   7.213   3.880  2.3338 -1.5001 -2.8330
  420MOL0     H56674   4.949   7.108   3.610 -1.3707  1.1029  0.5807
  420MOL0     H56675   5.103   7.191   3.664 -0.1414  0.7607  0.9842
  420MOL0     H56676   4.994   6.919   3.752  1.4277 -1.3120  0.6097
  420MOL0     H56677   5.152   6.977   3.797 -1.8637  1.4929  1.9034
  420MOL0     H56678   5.060   6.859   3.543 -2.6982  0.9697  2.1590
  420MOL0     H56679   5.212   6.959   3.537  0.5766  0.9627  1.0406
  420MOL0     H56680   4.491   7.526   3.801  0.4122 -3.3512  0.1993
  420MOL0     H56681   4.241   7.468   3.732 -0.7079 -2.8462  1.9635
  420MOL0     H56682   3.870   7.299   3.815 -0.2348 -2.1584  2.1403
  420MOL0     H56683   3.638   7.225   3.796 -4.7125  1.0490 -0.6898
  420MOL0     H56684   3.139   7.845   5.051  3.8600  0.4608  1.6698
  420MOL0     H56685   3.342   7.956   5.009  0.5201  1.5608 -0.5221
  420MOL0     H56686   3.528   8.363   4.995 -1.7785 -1.1596 -2.4641
  420MOL0     H56687   3.742   8.433   5.094  0.0538  0.0208  0.8967
  420MOL0     H56688   4.122   8.267   4.882  1.1582 -2.1534  0.7165
  420MOL0     H56689   4.103   8.184   5.036 -1.9991 -0.0737  1.0676
  420MOL0     H56690   4.190   8.356   5.169  1.1214 -4.1257 -0.4319
  420MOL0     H56691   4.215   8.456   5.021 -1.0668 -0.3941 -1.5778
  420MOL0     H56692   4.367   8.284   4.944  0.0903  0.8784  0.2819
  420MOL0     H56693   4.352   8.200   5.089  3.8194 -0.0335 -0.7973
  420MOL0     H56694   4.417   8.492   5.142  1.8531  0.4408 -1.5518
  420MOL0     H56695   4.467   8.341   5.226  0.1183  2.5715  1.5864
  420MOL0     H56696   4.778   8.413   4.939 -2.7962 -1.2931 -3.4661
  420MOL0     H56697   3.944   8.165   4.844 -0.3994 -1.3289 -1.4595
  420MOL0     H56698   3.657   8.117   4.649 -0.4199 -2.3619 -0.8362
  420MOL0     H56699   3.824   8.055   4.660 -0.9168  1.1372 -2.4107
  420MOL0     H56700   3.694   7.962   4.741 -1.2169  0.1223  0.8767
  421MOL0     O56701   2.431   4.055   5.134 -0.4065  0.3125 -0.3807
  421MOL0     C56702   2.394   4.139   5.219  1.1419 -0.0185  0.3530
  421MOL0     O56703   2.445   4.268   5.218  0.7172 -0.2349 -0.7472
  421MOL0     C56704   2.528   4.304   5.117 -0.0410 -0.5410 -0.6980
  421MOL0     C56705   2.669   4.313   5.133  0.1577  0.9482 -0.2160
  421MOL0     C56706   2.749   4.347   5.019  0.5018 -0.1583 -1.2654
  421MOL0     C56707   2.690   4.366   4.891 -1.0829 -0.5305 -0.6999
  421MOL0     O56708   2.780   4.390   4.787 -0.1444  0.5842 -0.7080
  421MOL0     C56709   2.732   4.454   4.667  0.2180  0.2221 -0.0228
  421MOL0     C56710   2.811   4.412   4.549 -0.7824  0.9661  0.3522
  421MOL0     C56711   2.961   4.457   4.545 -0.1575 -1.3812 -0.4613
  421MOL0     C56712   3.012   4.431   4.412  0.0434  0.6081 -0.6281
  421MOL0     C56713   3.167   4.439   4.411 -0.0441  0.3005 -0.3941
  421MOL0     C56714   3.226   4.372   4.278 -0.4427  0.0508 -0.2286
  421MOL0     C56715   3.378   4.392   4.262 -0.2492 -0.3985  0.3117
  421MOL0     C56716   3.418   4.371   4.112 -0.7156  0.6139 -0.3321
  421MOL0     N56717   3.412   4.234   4.078  0.3140 -0.2174 -0.1685
  421MOL0     C56718   3.445   4.132   4.161 -0.2728  0.7869 -0.3800
  421MOL0     C56719   3.425   4.007   4.099  0.5217 -0.7791  1.1648
  421MOL0     C56720   3.448   3.858   4.130  0.8166  0.0297 -0.0887
  421MOL0     C56721   3.527   3.842   4.266  0.4326 -0.0076  1.0836
  421MOL0     C56722   3.668   3.888   4.260 -0.1464  0.2282 -0.0942
  421MOL0     C56723   3.755   3.862   4.386  0.5833  0.2082 -0.3995
  421MOL0     O56724   3.876   3.946   4.385 -0.0352  0.2556 -0.1814
  421MOL0     C56725   3.976   3.918   4.477 -0.7564  0.1093 -0.4545
  421MOL0     C56726   3.951   3.846   4.593 -0.0652  1.5800  0.0834
  421MOL0     C56727   4.060   3.814   4.674 -0.5631  0.1637  0.6294
  421MOL0     C56728   4.192   3.860   4.649 -1.0279  0.0367  0.3884
  421MOL0     C56729   4.296   3.815   4.735 -0.2712 -0.1593 -0.5550
  421MOL0     O56730   4.414   3.890   4.720  0.0145  0.2844 -0.3827
  421MOL0     C56731   4.522   3.863   4.799  0.3791 -0.0817 -0.2951
  421MOL0     C56732   4.515   3.834   4.940 -0.7001  0.3492 -0.6363
  421MOL0     C56733   4.637   3.835   5.010  1.0372 -0.7190  0.4236
  421MOL0     C56734   4.760   3.842   4.944 -0.3015  0.0076  0.4206
  421MOL0     O56735   4.885   3.841   5.004  0.0604  0.3998 -1.0524
  421MOL0     C56736   4.907   3.763   5.121  0.2426  0.1587  0.1015
  421MOL0     C56737   5.039   3.684   5.112 -0.6418  0.0332  0.6982
  421MOL0     C56738   5.163   3.767   5.072  0.0535 -1.4528  0.5894
  421MOL0     C56739   5.199   3.758   4.926  0.0916 -0.7414  1.1203
  421MOL0     C56740   5.347   3.788   4.907  0.7779 -0.0908 -0.0376
  421MOL0     C56741   5.380   3.815   4.763  0.6971  0.6776 -1.1299
  421MOL0     C56742   5.529   3.846   4.732  0.1418 -0.2838 -0.0891
  421MOL0     C56743   5.627   3.726   4.756 -0.5752  0.2968  0.0269
  421MOL0    Cl56744   5.627   3.609   4.619 -0.0800 -0.5408  0.2834
  421MOL0     C56745   4.765   3.865   4.810  0.6930 -0.5229  0.2382
  421MOL0     C56746   4.648   3.874   4.736  0.7735 -0.5714 -0.8825
  421MOL0     O56747   4.280   3.725   4.815  0.5785  0.3474 -0.6103
  421MOL0     C56748   4.215   3.924   4.528  0.3602 -0.2457 -0.0517
  421MOL0     C56749   4.107   3.951   4.442  0.1389  0.1992  1.5914
  421MOL0     N56750   3.374   4.043   3.972 -0.6351  0.2244  0.6978
  421MOL0     N56751   3.365   4.180   3.962 -0.4401 -0.3433  0.2003
  421MOL0     C56752   2.550   4.367   4.889  0.0801 -0.0947  0.1051
  421MOL0     C56753   2.468   4.334   4.994  0.2464 -0.0647 -0.8578
  421MOL0     C56754   2.294   4.107   5.328 -0.1134  0.0369 -0.2732
  421MOL0     C56755   2.271   4.204   5.426 -0.1419  0.3025  0.4152
  421MOL0     C56756   2.199   4.177   5.541 -0.3522  0.3022  0.5048
  421MOL0     C56757   2.141   4.050   5.563 -0.0596  0.2166 -1.0565
  421MOL0     O56758   2.055   4.012   5.663 -0.0063 -0.0277 -0.1187
  421MOL0     C56759   2.027   4.102   5.771 -0.4136  0.9544  1.2667
  421MOL0     C56760   2.129   4.100   5.872 -0.6200  1.0789 -0.8580
  421MOL0     C56761   2.136   3.952   5.934 -0.6788 -0.4384  0.6996
  421MOL0     C56762   2.206   3.954   6.074 -0.2363 -0.4080 -0.1946
  421MOL0     C56763   2.354   3.957   6.069  0.3711 -0.4399  0.2756
  421MOL0     C56764   2.471   3.954   6.045 -0.1941  1.8419  0.4500
  421MOL0     C56765   2.149   3.962   5.460  1.0761  0.3583 -0.2194
  421MOL0     C56766   2.233   3.983   5.357 -0.9313 -0.3302  0.2233
  421MOL0     C56767   2.269   3.864   5.274 -0.0695  0.8376 -0.0248
  421MOL0     H56768   2.705   4.305   5.235 -0.1314  1.6472 -0.0514
  421MOL0     H56769   2.854   4.368   5.032  0.1360  2.1516 -1.4982
  421MOL0     H56770   2.627   4.430   4.647 -0.1783  2.5984 -1.2906
  421MOL0     H56771   2.736   4.560   4.696 -0.4096 -0.2629  1.9381
  421MOL0     H56772   2.760   4.440   4.457 -0.4393 -2.7496 -1.1504
  421MOL0     H56773   2.817   4.305   4.529  0.1735  1.4136 -2.1071
  421MOL0     H56774   3.011   4.407   4.628 -3.7540  0.4503  3.1554
  421MOL0     H56775   2.973   4.566   4.549  3.5221 -1.6684 -0.4527
  421MOL0     H56776   2.992   4.328   4.381  0.1994 -0.0199  1.1869
  421MOL0     H56777   2.966   4.508   4.349 -2.3651  2.3169  2.8841
  421MOL0     H56778   3.205   4.541   4.425  0.4854  0.0109  0.3509
  421MOL0     H56779   3.207   4.390   4.500  1.2057  1.7539 -0.1184
  421MOL0     H56780   3.216   4.263   4.281 -0.5263  0.0672  0.1559
  421MOL0     H56781   3.184   4.434   4.198  1.1419  1.6732  0.1380
  421MOL0     H56782   3.437   4.339   4.337 -1.9041 -0.7132  1.4509
  421MOL0     H56783   3.390   4.499   4.284 -1.6708 -0.2437  0.3923
  421MOL0     H56784   3.374   4.447   4.047  2.7449  2.3503 -0.9284
  421MOL0     H56785   3.521   4.398   4.088 -0.9463 -1.4072 -4.5692
  421MOL0     H56786   3.494   4.151   4.257 -1.1559  0.9905  0.0405
  421MOL0     H56787   3.354   3.804   4.142  3.4662 -4.5028  3.3913
  421MOL0     H56788   3.502   3.818   4.044 -2.4007 -0.2016 -2.1517
  421MOL0     H56789   3.463   3.880   4.346 -0.6996 -0.5820  0.4805
  421MOL0     H56790   3.530   3.733   4.273 -3.2802 -0.1097  4.0265
  421MOL0     H56791   3.669   3.994   4.231  0.9488  0.0557 -0.7664
  421MOL0     H56792   3.716   3.830   4.181  1.2359  3.3209 -1.7140
  421MOL0     H56793   3.783   3.756   4.385 -0.4069 -0.1908  2.9800
  421MOL0     H56794   3.695   3.864   4.477 -1.3069 -2.6401 -1.4331
  421MOL0     H56795   3.852   3.811   4.619  0.4714  0.3347  0.5423
  421MOL0     H56796   4.041   3.758   4.766 -0.6286 -1.2884 -0.2363
  421MOL0     H56797   4.426   3.816   4.998  0.4549 -0.7641  0.8617
  421MOL0     H56798   4.632   3.805   5.114  2.4291 -5.0849 -0.5492
  421MOL0     H56799   4.933   3.837   5.197  1.7347 -0.9890  0.7337
  421MOL0     H56800   4.821   3.703   5.152  0.0008  1.2271  1.5942
  421MOL0     H56801   5.069   3.652   5.212 -3.0586  0.5274  1.6219
  421MOL0     H56802   5.039   3.598   5.044  1.6102  0.3106  0.2636
  421MOL0     H56803   5.151   3.872   5.098  0.0264 -0.9228 -1.4178
  421MOL0     H56804   5.251   3.743   5.133  1.6556 -0.1462 -1.0759
  421MOL0     H56805   5.142   3.828   4.865 -1.4571 -3.1295 -0.3798
  421MOL0     H56806   5.175   3.659   4.885  0.9909 -0.0669 -1.2036
  421MOL0     H56807   5.399   3.708   4.960  0.2251  1.1390  2.5316
  421MOL0     H56808   5.370   3.880   4.961 -0.7802 -1.4372  3.1907
  421MOL0     H56809   5.348   3.725   4.709 -2.4111  1.2653 -0.4568
  421MOL0     H56810   5.317   3.896   4.725  0.7119  2.1500  1.7139
  421MOL0     H56811   5.549   3.934   4.793  0.0887  2.1678 -3.3125
  421MOL0     H56812   5.534   3.870   4.625 -1.6724  1.5209  0.1781
  421MOL0     H56813   5.733   3.750   4.766 -0.5014 -0.1611  0.4093
  421MOL0     H56814   5.615   3.678   4.853  2.0490 -1.3990 -0.3984
  421MOL0     H56815   4.856   3.860   4.751 -0.3266  0.5612 -1.5001
  421MOL0     H56816   4.648   3.895   4.629 -1.7032 -1.6208 -1.1486
  421MOL0     H56817   4.310   3.961   4.491  0.7873 -1.0060  0.2642
  421MOL0     H56818   4.123   4.010   4.352 -2.4297 -0.7655  0.3964
  421MOL0     H56819   2.487   4.388   4.803  0.8409 -0.3445 -0.5257
  421MOL0     H56820   2.361   4.342   4.976  0.7054  1.2740 -3.4274
  421MOL0     H56821   2.307   4.307   5.417  2.6303 -0.4598  1.6791
  421MOL0     H56822   2.202   4.244   5.626 -2.1027 -1.2710  1.8883
  421MOL0     H56823   1.928   4.079   5.809 -0.6483 -2.8768 -1.1161
  421MOL0     H56824   2.027   4.205   5.733  0.0062  0.8257  0.9077
  421MOL0     H56825   2.108   4.181   5.942  1.8909  1.7857 -0.8225
  421MOL0     H56826   2.231   4.117   5.834 -0.0707 -1.3162 -0.6241
  421MOL0     H56827   2.206   3.899   5.869 -1.1155  0.3489 -0.4575
  421MOL0     H56828   2.036   3.907   5.939 -1.2341 -0.0685 -3.2457
  421MOL0     H56829   2.175   4.040   6.134 -0.0435 -0.4500 -0.0316
  421MOL0     H56830   2.186   3.864   6.133 -0.3571 -2.1305 -2.6883
  421MOL0     H56831   2.574   3.947   6.015  0.0185 -0.1095  1.4770
  421MOL0     H56832   2.118   3.858   5.468  0.9768  0.4068  0.0441
  421MOL0     H56833   2.212   3.775   5.303  3.2076 -1.6912 -0.7784
  421MOL0     H56834   2.261   3.888   5.167  2.6267 -0.6331 -0.6532
  421MOL0     H56835   2.377   3.849   5.277  0.0462  1.0270 -1.9189
  422MOL0     O56836   8.571   7.274   9.682 -0.1394 -0.3142  0.7931
  422MOL0     C56837   8.518   7.377   9.633 -0.1487  0.3772  0.4615
  422MOL0     O56838   8.583   7.497   9.603 -0.3714  0.0295  0.2822
  422MOL0     C56839   8.716   7.510   9.627  0.0267  0.6625  1.4460
  422MOL0     C56840   8.817   7.409   9.617  0.4411  0.2898  0.0060
  422MOL0     C56841   8.955   7.442   9.640  0.3185 -0.4884  0.6162
  422MOL0     C56842   8.984   7.578   9.665 -0.6071 -1.0319 -0.1530
  422MOL0     O56843   9.120   7.608   9.668 -0.4993 -0.6692  0.1012
  422MOL0     C56844   9.165   7.742   9.696 -0.1572  0.3870  0.2934
  422MOL0     C56845   9.310   7.749   9.732  0.3891 -0.3738  0.1378
  422MOL0     C56846   9.346   7.893   9.796 -0.4647 -0.7815 -0.7096
  422MOL0     C56847   9.476   7.941   9.747 -0.3393 -0.5389 -0.6524
  422MOL0     C56848   9.597   7.861   9.796  0.5281 -0.3540 -0.4495
  422MOL0     C56849   9.720   7.911   9.718  0.0982  0.3397  0.8274
  422MOL0     C56850   9.854   7.865   9.796  0.5584 -0.2680  0.4241
  422MOL0     C56851   9.968   7.819   9.712 -0.1059 -1.2988  0.8791
  422MOL0     N56852  10.019   7.931   9.630  0.7471 -0.2181  0.6889
  422MOL0     C56853  10.095   7.919   9.519 -0.1497  1.0982  0.3780
  422MOL0     C56854  10.135   8.045   9.490 -0.7510 -1.2767 -0.3686
  422MOL0     C56855  10.224   8.080   9.371  0.7076  0.5301 -0.3981
  422MOL0     C56856  10.188   8.203   9.279 -0.5720 -0.2706 -0.1377
  422MOL0     C56857  10.183   8.332   9.350  0.3764 -0.0945  0.3558
  422MOL0     C56858  10.154   8.456   9.267 -1.6330  0.1441  0.3993
  422MOL0     O56859  10.027   8.440   9.216 -0.1141  0.4210  0.4180
  422MOL0     C56860   9.924   8.501   9.272  0.1844 -0.3928 -0.2186
  422MOL0     C56861   9.796   8.483   9.215  0.4067  0.4055  0.6218
  422MOL0     C56862   9.680   8.529   9.279  0.0837  0.3024 -0.8481
  422MOL0     C56863   9.681   8.589   9.404  0.5720  0.1964 -0.2342
  422MOL0     C56864   9.563   8.635   9.477  0.0602 -0.0548  0.8210
  422MOL0     O56865   9.578   8.697   9.606  0.5088 -0.6190 -0.1408
  422MOL0     C56866   9.467   8.756   9.660  0.5286 -0.3052 -0.1142
  422MOL0     C56867   9.420   8.704   9.784 -0.1242 -0.5260  0.5458
  422MOL0     C56868   9.305   8.762   9.837  0.8391  0.0341  0.0390
  422MOL0     C56869   9.235   8.867   9.767 -0.0830  0.0679 -0.1243
  422MOL0     O56870   9.119   8.922   9.816 -0.4351 -0.0781  0.0787
  422MOL0     C56871   9.123   8.984   9.944 -0.2043 -0.2856 -0.5319
  422MOL0     C56872   8.982   9.017   9.988 -1.0194  0.3564  0.6559
  422MOL0     C56873   8.918   9.142   9.938  0.2992 -0.4396 -0.4052
  422MOL0     C56874   8.957   9.270  10.021 -1.0389 -0.7238 -0.0389
  422MOL0     C56875   8.906   9.405   9.968 -0.4109 -0.5564  0.0127
  422MOL0     C56876   8.752   9.401   9.964  0.2263  0.3438 -0.2768
  422MOL0     C56877   8.687   9.528   9.963 -0.1249 -0.1255 -0.6545
  422MOL0     C56878   8.529   9.515   9.977  0.6729  1.1149 -0.1885
  422MOL0    Cl56879   8.448   9.676   9.973 -0.5028 -0.3292 -0.2157
  422MOL0     C56880   9.279   8.913   9.648 -0.7337  0.0651  0.1542
  422MOL0     C56881   9.397   8.859   9.587 -0.6469  0.0278 -0.6214
  422MOL0     O56882   9.450   8.605   9.431 -0.5092 -0.7883  0.8633
  422MOL0     C56883   9.811   8.617   9.457  0.0789 -0.0893 -0.0647
  422MOL0     C56884   9.924   8.580   9.386 -0.2817  1.4617 -0.9094
  422MOL0     N56885  10.085   8.132   9.589 -0.0002  0.9292  0.5013
  422MOL0     N56886  10.013   8.061   9.665 -0.3576  0.1678  0.2130
  422MOL0     C56887   8.886   7.680   9.669  0.2945 -0.0719 -0.3393
  422MOL0     C56888   8.753   7.640   9.657 -0.3714 -0.0732  0.2540
  422MOL0     C56889   8.365   7.375   9.607 -0.0330  0.1025 -0.4740
  422MOL0     C56890   8.306   7.456   9.508 -0.5358 -0.4298 -0.4022
  422MOL0     C56891   8.169   7.454   9.474  0.0082  0.5114  0.1428
  422MOL0     C56892   8.081   7.364   9.535  0.4571  0.6414 -0.7921
  422MOL0     O56893   7.947   7.355   9.520 -0.2570 -0.5745 -0.5945
  422MOL0     C56894   7.889   7.402   9.401 -0.1785 -0.7720 -0.9650
  422MOL0     C56895   7.735   7.378   9.391 -0.1096 -0.1069 -0.1171
  422MOL0     C56896   7.650   7.471   9.474 -0.0330  0.1827  0.6430
  422MOL0     C56897   7.493   7.446   9.444  0.1924  0.7356 -0.3073
  422MOL0     C56898   7.418   7.504   9.554 -0.5076 -0.9703 -0.1741
  422MOL0     C56899   7.345   7.556   9.638  0.8249 -0.1402 -0.0594
  422MOL0     C56900   8.139   7.288   9.641  0.5583 -0.4595  0.8595
  422MOL0     C56901   8.270   7.294   9.677 -0.4503  0.1075 -0.4729
  422MOL0     C56902   8.307   7.216   9.800 -0.8452 -0.4589 -0.6283
  422MOL0     H56903   8.787   7.308   9.592 -0.9564  0.3233  1.4367
  422MOL0     H56904   9.042   7.379   9.645  0.3403 -0.5317 -0.2217
  422MOL0     H56905   9.146   7.805   9.608 -2.7833 -0.7946 -0.0778
  422MOL0     H56906   9.109   7.788   9.778  3.6515 -0.5301  3.7200
  422MOL0     H56907   9.369   7.720   9.644  1.8754  2.2768  0.1541
  422MOL0     H56908   9.327   7.680   9.815 -0.7291  1.1795  1.7308
  422MOL0     H56909   9.348   7.886   9.905  0.4840 -0.0236 -0.6693
  422MOL0     H56910   9.269   7.966   9.771 -1.2747 -0.7234  1.6833
  422MOL0     H56911   9.480   7.944   9.637 -0.6140 -0.3623 -0.6588
  422MOL0     H56912   9.485   8.046   9.774 -0.5054 -0.1542 -1.9972
  422MOL0     H56913   9.632   7.885   9.897  2.7938 -1.8804 -0.7985
  422MOL0     H56914   9.581   7.753   9.789 -0.8521 -0.1701 -0.4403
  422MOL0     H56915   9.714   7.863   9.620  2.5582 -1.1027  1.2871
  422MOL0     H56916   9.716   8.020   9.708  3.1489  0.4520 -0.0059
  422MOL0     H56917   9.829   7.775   9.855  0.2440  1.5920  3.3567
  422MOL0     H56918   9.875   7.946   9.867  1.5753 -0.3618  0.2318
  422MOL0     H56919  10.036   7.763   9.776 -1.4067 -2.9740  0.8745
  422MOL0     H56920   9.929   7.745   9.642 -1.5434 -1.1626  1.4932
  422MOL0     H56921  10.130   7.826   9.475 -1.7003  1.1950 -1.1532
  422MOL0     H56922  10.327   8.094   9.407 -0.1407  2.5493  1.4670
  422MOL0     H56923  10.224   7.991   9.307  0.4163  1.5108 -1.8198
  422MOL0     H56924  10.271   8.202   9.208 -0.0401 -3.1113  0.3955
  422MOL0     H56925  10.094   8.191   9.224 -1.3277  0.3527  0.9564
  422MOL0     H56926  10.283   8.347   9.392  0.2695 -2.1113  1.4715
  422MOL0     H56927  10.108   8.327   9.430  1.4521 -2.0984  1.3268
  422MOL0     H56928  10.220   8.453   9.180  0.4100  2.4788  1.7395
  422MOL0     H56929  10.186   8.548   9.317 -0.7567  0.7150 -1.1636
  422MOL0     H56930   9.779   8.429   9.123 -0.4038 -3.6623  2.9404
  422MOL0     H56931   9.586   8.508   9.228 -0.8251  0.3188  0.7468
  422MOL0     H56932   9.476   8.627   9.836  2.8821  2.7797  2.6589
  422MOL0     H56933   9.258   8.735   9.931 -1.2521  1.5334 -0.5178
  422MOL0     H56934   9.159   8.919  10.024 -0.6523  2.0903  1.7343
  422MOL0     H56935   9.169   9.083   9.942 -1.1443  0.2085  0.7296
  422MOL0     H56936   8.927   8.923   9.970 -1.5834  0.8759 -0.4162
  422MOL0     H56937   8.998   9.030  10.095  0.8511 -3.6821  1.0624
  422MOL0     H56938   8.925   9.146   9.829  5.6347  0.6564 -0.2777
  422MOL0     H56939   8.813   9.139   9.968  0.9423  1.9309  2.6054
  422MOL0     H56940   9.066   9.268  10.028 -1.0272  1.6140  1.2905
  422MOL0     H56941   8.909   9.262  10.119 -1.3374  0.8446 -0.0380
  422MOL0     H56942   8.953   9.443   9.877 -0.6603  1.3299  0.6242
  422MOL0     H56943   8.930   9.476  10.047  1.0845  0.7743 -1.5810
  422MOL0     H56944   8.732   9.352   9.868  0.3251 -0.8662  0.2969
  422MOL0     H56945   8.720   9.323  10.034  2.3191  1.4975  2.1347
  422MOL0     H56946   8.728   9.589   9.882  0.6747  1.6121  0.9737
  422MOL0     H56947   8.722   9.581  10.052 -0.0501  0.1259 -0.8339
  422MOL0     H56948   8.494   9.451   9.896  1.3730 -0.1007  0.4372
  422MOL0     H56949   8.501   9.455  10.064  2.3242  1.3763  0.5610
  422MOL0     H56950   9.236   8.997   9.595 -1.1811 -1.7033 -2.5204
  422MOL0     H56951   9.445   8.895   9.497  1.2756 -1.8467 -0.4024
  422MOL0     H56952   9.816   8.656   9.558  0.5725 -4.5955  1.8825
  422MOL0     H56953  10.019   8.593   9.436 -1.9637  0.0974  3.0049
  422MOL0     H56954   8.904   7.783   9.697 -1.0629 -0.0829  0.7081
  422MOL0     H56955   8.682   7.721   9.663  0.6890  0.7920  2.4093
  422MOL0     H56956   8.370   7.519   9.447  2.2269 -1.4907  1.2637
  422MOL0     H56957   8.139   7.520   9.393 -1.0849 -2.4448 -2.0860
  422MOL0     H56958   7.944   7.358   9.317  0.5109 -0.0402 -0.9091
  422MOL0     H56959   7.897   7.511   9.394 -0.8767 -0.6865 -0.4898
  422MOL0     H56960   7.715   7.278   9.430 -0.6241 -0.5188 -1.3916
  422MOL0     H56961   7.706   7.386   9.286  1.5813  1.9688 -0.4979
  422MOL0     H56962   7.668   7.576   9.447  0.6845  0.2899  1.5002
  422MOL0     H56963   7.674   7.462   9.580  0.7210  4.3362  1.0163
  422MOL0     H56964   7.461   7.491   9.350  0.4116  1.3875 -0.0790
  422MOL0     H56965   7.464   7.341   9.438  2.0890  0.1749 -0.4796
  422MOL0     H56966   7.291   7.601   9.719 -1.0120  2.6057 -2.5940
  422MOL0     H56967   8.069   7.223   9.693  2.2511 -2.4879  0.7544
  422MOL0     H56968   8.213   7.179   9.842 -1.8229  2.2808 -0.2348
  422MOL0     H56969   8.381   7.140   9.769  2.1913  1.9921  0.0723
  422MOL0     H56970   8.363   7.275   9.873 -1.4001  2.0330 -2.1104
  423MOL0     O56971   0.557   5.200   4.963  0.7467  0.5158 -0.3655
  423MOL0     C56972   0.464   5.147   4.893  0.2158  0.9212 -0.2246
  423MOL0     O56973   0.475   5.070   4.771 -0.5226  0.0802  0.0419
  423MOL0     C56974   0.602   5.071   4.726  0.1239  0.2340  0.3114
  423MOL0     C56975   0.702   4.985   4.786  0.3431 -0.6759  0.2609
  423MOL0     C56976   0.831   5.000   4.740  0.2487 -0.4501 -0.2902
  423MOL0     C56977   0.860   5.085   4.638 -0.4974  0.1601 -0.3184
  423MOL0     O56978   0.994   5.086   4.595  0.7841  1.0691 -0.7034
  423MOL0     C56979   1.028   5.141   4.466 -0.2446 -0.8783 -1.0689
  423MOL0     C56980   1.081   5.285   4.474  0.9022 -0.2637  0.8522
  423MOL0     C56981   1.141   5.329   4.337  0.6661  0.3860 -0.0054
  423MOL0     C56982   1.195   5.468   4.325  0.3673  0.4737 -0.4090
  423MOL0     C56983   1.075   5.560   4.334 -0.0621 -0.7167  0.8564
  423MOL0     C56984   1.119   5.700   4.308 -0.6621  0.5125 -0.1504
  423MOL0     C56985   0.993   5.784   4.264 -0.5077  0.0822 -0.0993
  423MOL0     C56986   0.953   5.773   4.114 -1.3285  0.1964 -0.9330
  423MOL0     N56987   0.842   5.865   4.099  0.4675  0.8627  0.0259
  423MOL0     C56988   0.863   5.994   4.078  0.4710 -1.2467 -0.1537
  423MOL0     C56989   0.741   6.050   4.090 -0.0820 -0.0161 -0.8559
  423MOL0     C56990   0.694   6.197   4.080  0.3393  1.1987 -0.3301
  423MOL0     C56991   0.666   6.256   4.220 -0.2216 -0.7387 -0.5746
  423MOL0     C56992   0.644   6.414   4.235  0.3442 -0.1675  0.5380
  423MOL0     C56993   0.530   6.457   4.146 -0.4746 -0.6382 -0.1874
  423MOL0     O56994   0.504   6.598   4.166 -1.2437 -0.8195  0.1409
  423MOL0     C56995   0.404   6.650   4.245  0.4618 -0.8283  0.5215
  423MOL0     C56996   0.426   6.721   4.364 -0.2219  0.0006 -0.5807
  423MOL0     C56997   0.312   6.761   4.438 -0.4005 -0.0186  0.4697
  423MOL0     C56998   0.179   6.736   4.392  0.9122 -0.0902 -0.2850
  423MOL0     C56999   0.053   6.774   4.472  0.0931  0.5608 -0.4267
  423MOL0     O57000  -0.070   6.753   4.410 -0.1925 -0.6335  0.7380
  423MOL0     C57001  -0.176   6.834   4.450  0.8281  0.1957 -0.4280
  423MOL0     C57002  -0.308   6.785   4.418 -0.1574 -0.0107 -0.0158
  423MOL0     C57003  -0.424   6.844   4.449  0.3206  0.2121  0.2704
  423MOL0     C57004  -0.422   6.970   4.517  0.7897 -0.0477 -0.0998
  423MOL0     O57005  -0.540   7.034   4.543 -0.9136  0.5782 -0.0435
  423MOL0     C57006  -0.648   6.940   4.572 -0.0724  0.1238  0.5386
  423MOL0     C57007  -0.756   7.022   4.644 -0.3027  1.1170  0.4716
  423MOL0     C57008  -0.890   6.930   4.657  0.3870 -0.1162 -0.4341
  423MOL0     C57009  -1.013   6.991   4.737  0.3826  0.1524  0.6202
  423MOL0     C57010  -1.028   7.150   4.721  0.3457  0.3514  0.3394
  423MOL0     C57011  -1.139   7.212   4.807  0.0989 -0.7922  0.5959
  423MOL0     C57012  -1.156   7.364   4.773  0.4743 -0.2311 -0.3621
  423MOL0     C57013  -1.280   7.417   4.852  0.7276 -0.1106 -0.4242
  423MOL0    Cl57014  -1.405   7.370   4.749  0.2178  0.2800  0.0732
  423MOL0     C57015  -0.306   7.016   4.559 -0.1092 -0.1889 -0.0604
  423MOL0     C57016  -0.181   6.954   4.521  0.2779 -0.1553 -0.7274
  423MOL0     O57017   0.067   6.816   4.584 -0.1636 -0.1921  0.1400
  423MOL0     C57018   0.159   6.667   4.271  1.2165  0.2927  1.5496
  423MOL0     C57019   0.276   6.632   4.199 -0.0830 -0.3266 -0.4945
  423MOL0     N57020   0.655   5.957   4.132 -0.1836 -0.4890 -0.2799
  423MOL0     N57021   0.707   5.843   4.126 -0.2774  0.1532 -0.1767
  423MOL0     C57022   0.766   5.176   4.589 -0.5593 -0.3162 -0.8485
  423MOL0     C57023   0.635   5.169   4.629  0.3669  0.4182  0.0667
  423MOL0     C57024   0.314   5.163   4.943  0.4809 -0.3294  0.7241
  423MOL0     C57025   0.294   5.254   5.052 -0.3881  0.2598 -0.2548
  423MOL0     C57026   0.167   5.282   5.109  0.5921 -0.0417  0.6415
  423MOL0     C57027   0.049   5.219   5.050 -0.1820  0.0273  0.1172
  423MOL0     O57028  -0.077   5.237   5.117 -0.5156 -0.0695  0.4338
  423MOL0     C57029  -0.201   5.205   5.046  0.3653 -0.3511  0.3698
  423MOL0     C57030  -0.328   5.268   5.105  0.2132  0.3794 -0.4428
  423MOL0     C57031  -0.304   5.409   5.163  0.1312 -0.8449 -0.1954
  423MOL0     C57032  -0.434   5.478   5.175  0.3954 -0.9261  0.6276
  423MOL0     C57033  -0.476   5.531   5.042  0.0991 -0.4728  0.0095
  423MOL0     C57034  -0.522   5.585   4.945 -0.6851  0.8651 -0.3263
  423MOL0     C57035   0.074   5.130   4.944  0.8460 -0.2732  0.1525
  423MOL0     C57036   0.198   5.102   4.885  1.1898  0.6250 -0.2158
  423MOL0     C57037   0.205   5.012   4.758  0.7758 -0.0826  0.2895
  423MOL0     H57038   0.668   4.901   4.845 -1.6533 -2.2502 -2.8610
  423MOL0     H57039   0.911   4.932   4.767  1.2529  1.8239  3.1769
  423MOL0     H57040   1.109   5.079   4.427  0.0815 -1.1732  0.0366
  423MOL0     H57041   0.943   5.141   4.397  0.5594  0.1188 -2.1013
  423MOL0     H57042   1.158   5.287   4.552  1.0095 -0.7109  0.7603
  423MOL0     H57043   0.996   5.348   4.502 -0.4208 -1.5103 -0.2183
  423MOL0     H57044   1.061   5.305   4.266  0.2020 -3.6125  1.5596
  423MOL0     H57045   1.224   5.263   4.311  0.5686 -0.2080  1.1109
  423MOL0     H57046   1.268   5.496   4.401 -0.9143  4.6049 -0.4632
  423MOL0     H57047   1.249   5.477   4.230  0.0012  1.2701 -0.5516
  423MOL0     H57048   1.003   5.530   4.256  0.6620  1.8189 -0.9157
  423MOL0     H57049   1.027   5.549   4.432 -2.1273  1.1859  0.1516
  423MOL0     H57050   1.153   5.740   4.403  0.2038  0.6429 -0.5052
  423MOL0     H57051   1.201   5.716   4.238  1.0163  0.4850  1.7354
  423MOL0     H57052   1.000   5.890   4.289  1.7061 -0.5131  2.2891
  423MOL0     H57053   0.908   5.747   4.322 -0.3014 -2.0828 -1.0873
  423MOL0     H57054   1.038   5.806   4.053  1.1476 -2.9052  0.5652
  423MOL0     H57055   0.917   5.676   4.080 -1.3988 -0.4233  0.8392
  423MOL0     H57056   0.957   6.047   4.061 -0.1137 -0.0934  0.1051
  423MOL0     H57057   0.765   6.265   4.034 -0.1178  2.1555  0.3541
  423MOL0     H57058   0.601   6.184   4.023 -1.8985  0.8577  3.0827
  423MOL0     H57059   0.568   6.214   4.244  0.2010 -3.0800 -2.6416
  423MOL0     H57060   0.736   6.224   4.297 -0.4402  1.3785  0.5898
  423MOL0     H57061   0.738   6.463   4.208 -0.1351  0.0275 -0.8529
  423MOL0     H57062   0.617   6.436   4.338  0.9151  1.1847  0.4130
  423MOL0     H57063   0.440   6.399   4.170 -1.1816 -0.1161 -1.4962
  423MOL0     H57064   0.550   6.435   4.041 -1.1947 -0.4518 -0.3682
  423MOL0     H57065   0.525   6.736   4.406 -0.2282 -2.6269  0.6296
  423MOL0     H57066   0.325   6.795   4.540 -1.6510 -4.0261  2.1529
  423MOL0     H57067  -0.322   6.686   4.376 -3.9657  0.1102  0.6151
  423MOL0     H57068  -0.522   6.804   4.422  0.1301 -2.7788  4.4245
  423MOL0     H57069  -0.685   6.899   4.477  0.7170  1.5451 -0.4258
  423MOL0     H57070  -0.610   6.866   4.643  3.9744  1.6108  0.2058
  423MOL0     H57071  -0.717   7.041   4.744  1.4023 -2.4693  0.6633
  423MOL0     H57072  -0.779   7.110   4.583 -1.2420  0.9071  0.5101
  423MOL0     H57073  -0.930   6.920   4.556 -2.8739  0.2831  0.7134
  423MOL0     H57074  -0.873   6.830   4.698 -1.3135 -0.5147 -0.6297
  423MOL0     H57075  -1.018   6.954   4.839 -0.4581  2.1349  1.3450
  423MOL0     H57076  -1.099   6.948   4.685  1.4145 -0.7004 -0.4157
  423MOL0     H57077  -1.032   7.182   4.617  1.7402  0.4989  0.3200
  423MOL0     H57078  -0.930   7.191   4.749  0.1843  1.0669 -0.1117
  423MOL0     H57079  -1.234   7.163   4.783 -1.2160  1.2980  1.2853
  423MOL0     H57080  -1.108   7.193   4.910 -1.3214  1.5533  1.5255
  423MOL0     H57081  -1.146   7.388   4.667  1.8319  1.3010  0.0860
  423MOL0     H57082  -1.077   7.416   4.827 -0.9161 -3.2482  5.3654
  423MOL0     H57083  -1.295   7.373   4.951 -1.1359 -3.2144 -1.9463
  423MOL0     H57084  -1.290   7.525   4.864  1.4386  0.1384 -1.9260
  423MOL0     H57085  -0.306   7.114   4.605  0.8208 -1.0687  1.9174
  423MOL0     H57086  -0.093   7.009   4.554  1.3178 -2.2357  0.1757
  423MOL0     H57087   0.059   6.653   4.233  1.3597  2.4533  0.2084
  423MOL0     H57088   0.271   6.585   4.102  2.9306  0.2543 -1.0200
  423MOL0     H57089   0.796   5.252   4.518 -1.4189  2.3587  1.4660
  423MOL0     H57090   0.564   5.244   4.597 -1.4216 -2.8972 -4.8523
  423MOL0     H57091   0.375   5.304   5.103 -0.9324 -0.6298  1.5504
  423MOL0     H57092   0.161   5.342   5.199 -1.6398 -0.1156  0.6197
  423MOL0     H57093  -0.219   5.097   5.049 -2.5859  0.0818  1.7647
  423MOL0     H57094  -0.202   5.211   4.936 -0.8031 -0.8321  0.3319
  423MOL0     H57095  -0.351   5.209   5.194 -0.3046  2.6929  1.0644
  423MOL0     H57096  -0.417   5.265   5.042  0.3681  2.0942 -0.8054
  423MOL0     H57097  -0.236   5.461   5.094  2.6165 -2.1470  1.1359
  423MOL0     H57098  -0.256   5.413   5.261 -0.7003  2.0311  0.1889
  423MOL0     H57099  -0.510   5.414   5.220  1.5746 -2.3460  0.6548
  423MOL0     H57100  -0.418   5.566   5.239  1.0185  0.7045 -1.6143
  423MOL0     H57101  -0.559   5.631   4.855  0.3073  1.1423 -0.6098
  423MOL0     H57102  -0.010   5.074   4.905 -0.7080 -0.2102  3.1228
  423MOL0     H57103   0.280   4.932   4.761  2.7403  1.4431 -2.7110
  423MOL0     H57104   0.106   4.966   4.757  1.4087 -1.5233  0.8032
  423MOL0     H57105   0.211   5.077   4.670 -2.7662  2.5316  1.7315
  424MOL0     O57106   5.058  11.059   6.935 -0.0086  0.8289  0.0714
  424MOL0     C57107   5.004  11.170   6.949  0.2072  0.1729 -0.6571
  424MOL0     O57108   5.024  11.271   6.867 -0.3827  0.3316 -0.4307
  424MOL0     C57109   5.071  11.244   6.738 -0.4410  0.6809 -0.4745
  424MOL0     C57110   4.991  11.173   6.644  0.6001 -0.3756 -0.3092
  424MOL0     C57111   5.036  11.154   6.514  0.4746  0.0735  0.3456
  424MOL0     C57112   5.164  11.198   6.471 -0.6297  0.9579  0.7811
  424MOL0     O57113   5.219  11.178   6.341  0.0168 -0.4192 -0.8244
  424MOL0     C57114   5.134  11.145   6.225  0.6407 -0.7350  0.1244
  424MOL0     C57115   5.191  11.179   6.089 -0.1669  0.1790  0.5483
  424MOL0     C57116   5.322  11.110   6.072  0.1517 -1.1857  0.5619
  424MOL0     C57117   5.306  11.004   5.958 -0.5614  0.5579  0.4552
  424MOL0     C57118   5.436  10.919   5.955 -0.6345 -0.2068 -1.5320
  424MOL0     C57119   5.433  10.828   5.835 -0.3162 -0.5179  0.4143
  424MOL0     C57120   5.574  10.767   5.796  0.0861  0.3337  1.1005
  424MOL0     C57121   5.566  10.694   5.665  0.0006  0.0762 -0.4030
  424MOL0     N57122   5.708  10.653   5.624 -0.7581  0.4592  0.4366
  424MOL0     C57123   5.757  10.528   5.623  0.1364  0.0809 -0.2076
  424MOL0     C57124   5.873  10.534   5.564 -0.1511  0.1015  0.0994
  424MOL0     C57125   5.961  10.425   5.528  0.3947  0.2795  0.1970
  424MOL0     C57126   6.102  10.448   5.590 -0.2955  0.2704  1.2055
  424MOL0     C57127   6.109  10.416   5.734 -0.5235  0.1703  0.2755
  424MOL0     C57128   6.239  10.338   5.781 -0.1276 -0.6174 -0.7684
  424MOL0     O57129   6.223  10.197   5.757  0.3888 -0.5900  0.2918
  424MOL0     C57130   6.340  10.127   5.779  0.7058 -0.5375 -0.5481
  424MOL0     C57131   6.362  10.092   5.917 -0.6664  0.7584  0.1307
  424MOL0     C57132   6.484  10.032   5.958  0.2499  0.6275  0.5908
  424MOL0     C57133   6.582  10.000   5.856  1.4746 -0.3361 -0.2292
  424MOL0     C57134   6.717   9.947   5.900  1.0454 -0.4190 -1.0402
  424MOL0     O57135   6.803   9.933   5.800  0.5549 -0.0756  0.3458
  424MOL0     C57136   6.920   9.864   5.828  0.2205  0.3555 -0.2347
  424MOL0     C57137   7.004   9.931   5.908  0.4359  0.0712  0.2012
  424MOL0     C57138   7.125   9.867   5.930  0.3643  0.8986 -0.2797
  424MOL0     C57139   7.168   9.761   5.853 -0.5807 -0.6335  0.1486
  424MOL0     O57140   7.302   9.733   5.873  0.0842 -0.5811 -0.0035
  424MOL0     C57141   7.363   9.652   5.777 -0.5713  0.5778 -1.1967
  424MOL0     C57142   7.507   9.632   5.832  1.0094 -0.7412 -0.2135
  424MOL0     C57143   7.578   9.554   5.719 -0.0020  0.1641 -0.1521
  424MOL0     C57144   7.732   9.577   5.736  0.0677 -0.9096  0.4290
  424MOL0     C57145   7.814   9.539   5.615  0.0697  0.6974  0.0169
  424MOL0     C57146   7.751   9.422   5.546 -0.0523  0.6172  0.5625
  424MOL0     C57147   7.829   9.378   5.429  0.5771 -0.0517  0.3794
  424MOL0     C57148   7.956   9.302   5.456 -0.2439 -1.1295 -0.5540
  424MOL0    Cl57149   7.949   9.180   5.586 -0.0772  0.4854 -0.5315
  424MOL0     C57150   7.084   9.702   5.759 -0.7368  0.2282 -0.8114
  424MOL0     C57151   6.960   9.753   5.743 -0.1574  0.1329 -0.4404
  424MOL0     O57152   6.737   9.924   6.019 -0.6726  0.3154  0.9192
  424MOL0     C57153   6.555  10.039   5.724 -0.0992 -0.4365  0.7964
  424MOL0     C57154   6.437  10.104   5.681  1.1811  0.5869  0.3376
  424MOL0     N57155   5.888  10.662   5.512 -0.2546  0.5969 -0.2130
  424MOL0     N57156   5.788  10.735   5.543 -0.5304  0.0230 -0.5788
  424MOL0     C57157   5.249  11.251   6.573  0.1596  0.3418 -0.0525
  424MOL0     C57158   5.208  11.283   6.700 -0.9331  0.6390 -0.2137
  424MOL0     C57159   4.927  11.200   7.075 -0.1563 -0.5636  0.2771
  424MOL0     C57160   4.952  11.334   7.116  0.4308  0.2589 -0.5223
  424MOL0     C57161   4.896  11.375   7.237 -0.4929  0.3441 -0.5436
  424MOL0     C57162   4.816  11.288   7.312 -0.3403  0.0318  0.6061
  424MOL0     O57163   4.777  11.327   7.441  0.4061 -0.5062  0.1832
  424MOL0     C57164   4.847  11.267   7.553 -0.1900 -0.4731  0.7232
  424MOL0     C57165   4.861  11.375   7.664 -0.3914 -0.6536 -0.6996
  424MOL0     C57166   4.729  11.418   7.729 -0.6655  0.2650  0.0205
  424MOL0     C57167   4.688  11.549   7.645 -0.0276 -0.6062 -0.1774
  424MOL0     C57168   4.553  11.604   7.679  0.4038  0.1951  0.0918
  424MOL0     C57169   4.442  11.639   7.707  0.6179  0.0800  0.5546
  424MOL0     C57170   4.780  11.164   7.263  0.3649  1.0524  0.2030
  424MOL0     C57171   4.844  11.105   7.150  0.4219  0.1598 -0.0906
  424MOL0     C57172   4.799  10.973   7.110 -0.0562  0.0431  0.0375
  424MOL0     H57173   4.888  11.149   6.670  0.3959  2.3330  1.9890
  424MOL0     H57174   4.968  11.106   6.444  1.6609  0.5298 -1.1707
  424MOL0     H57175   5.107  11.038   6.225 -2.9742  0.0184  1.5595
  424MOL0     H57176   5.039  11.198   6.238  1.3837  0.5181  0.5481
  424MOL0     H57177   5.202  11.287   6.079 -2.2418  0.6577  2.6371
  424MOL0     H57178   5.117  11.152   6.013 -0.5469  0.7324  0.7140
  424MOL0     H57179   5.359  11.064   6.164 -2.3148 -1.6539  1.3967
  424MOL0     H57180   5.399  11.177   6.032 -1.6668  0.5608 -0.1933
  424MOL0     H57181   5.229  10.928   5.974  1.4957 -2.2495 -1.8711
  424MOL0     H57182   5.275  11.063   5.871 -3.2442  1.6822  2.0497
  424MOL0     H57183   5.531  10.973   5.947  0.7333 -2.3108 -0.6543
  424MOL0     H57184   5.444  10.862   6.048 -3.3189  4.3804  1.9224
  424MOL0     H57185   5.356  10.750   5.839 -2.5313  1.3592 -2.0996
  424MOL0     H57186   5.403  10.894   5.754 -1.8163 -3.4380 -1.5999
  424MOL0     H57187   5.626  10.709   5.873 -1.0314  0.2072  1.7795
  424MOL0     H57188   5.643  10.847   5.768  2.4849 -2.7797 -3.1321
  424MOL0     H57189   5.510  10.603   5.686  0.0160  0.6202  2.3535
  424MOL0     H57190   5.516  10.756   5.589 -0.5651  1.0966  0.7548
  424MOL0     H57191   5.713  10.439   5.668 -0.8487 -0.1570 -1.5720
  424MOL0     H57192   5.924  10.324   5.548  2.4002 -1.0280 -2.1648
  424MOL0     H57193   5.956  10.425   5.419  0.0193 -1.6297  0.1890
  424MOL0     H57194   6.179  10.387   5.542 -0.0725  0.6417  1.0890
  424MOL0     H57195   6.135  10.549   5.567  0.8674 -0.4174 -0.3115
  424MOL0     H57196   6.030  10.346   5.761 -1.0782  0.8833  0.5609
  424MOL0     H57197   6.097  10.508   5.793  0.0818 -1.0837  2.4681
  424MOL0     H57198   6.259  10.354   5.887 -1.5464 -1.5510 -0.3387
  424MOL0     H57199   6.329  10.376   5.731 -1.3780  2.0242 -1.2233
  424MOL0     H57200   6.289  10.118   5.993  1.0384  2.4274  1.2859
  424MOL0     H57201   6.506  10.026   6.064 -3.5729 -0.2705  1.4994
  424MOL0     H57202   6.986  10.034   5.935 -2.1252 -0.0508 -0.7986
  424MOL0     H57203   7.198   9.930   5.979 -0.1466  0.8673  0.5344
  424MOL0     H57204   7.321   9.552   5.770  0.2227  0.1190  0.0974
  424MOL0     H57205   7.354   9.699   5.679 -1.9866  0.2704 -1.2359
  424MOL0     H57206   7.549   9.734   5.829  0.2510 -0.3123  1.9762
  424MOL0     H57207   7.517   9.588   5.931 -1.5771 -1.7420 -0.3122
  424MOL0     H57208   7.541   9.452   5.725 -2.2233  0.9423  0.4944
  424MOL0     H57209   7.549   9.598   5.623  0.0106 -0.4989 -0.4657
  424MOL0     H57210   7.774   9.531   5.826  3.3669  1.3891  0.2638
  424MOL0     H57211   7.747   9.682   5.762  0.6893  0.0732 -3.2990
  424MOL0     H57212   7.918   9.514   5.638 -0.1552  0.3036  0.6584
  424MOL0     H57213   7.813   9.628   5.551 -1.8395  0.6974 -0.0133
  424MOL0     H57214   7.739   9.338   5.616 -0.3793  0.8640  0.8053
  424MOL0     H57215   7.652   9.444   5.506  0.4073  2.2662  0.2710
  424MOL0     H57216   7.855   9.457   5.358  5.5070 -0.6100  1.1848
  424MOL0     H57217   7.759   9.304   5.389 -0.0318  0.5169  0.3826
  424MOL0     H57218   7.981   9.252   5.362  3.3916 -2.7930  1.1034
  424MOL0     H57219   8.028   9.382   5.476 -2.2238  0.7113 -0.3416
  424MOL0     H57220   7.130   9.622   5.702  1.4850 -1.0100  2.4362
  424MOL0     H57221   6.885   9.701   5.684 -3.0991  4.2328 -0.7292
  424MOL0     H57222   6.630  10.028   5.646 -0.8911 -0.3236  0.0046
  424MOL0     H57223   6.412  10.140   5.582  4.2749  0.5497 -0.5312
  424MOL0     H57224   5.350  11.274   6.540 -0.1490  1.2886 -0.3747
  424MOL0     H57225   5.271  11.335   6.771  0.0095 -0.3861 -0.2706
  424MOL0     H57226   5.018  11.398   7.059  0.0947 -0.2413 -1.4884
  424MOL0     H57227   4.910  11.480   7.261  2.9196 -0.0503 -0.2550
  424MOL0     H57228   4.946  11.240   7.516 -0.4332  1.2773 -1.4278
  424MOL0     H57229   4.792  11.175   7.575  0.2423 -1.3062 -1.3806
  424MOL0     H57230   4.909  11.463   7.620 -2.5141 -0.0782 -2.0462
  424MOL0     H57231   4.932  11.350   7.743  0.5449 -2.1396 -1.9496
  424MOL0     H57232   4.739  11.456   7.831  0.4198  0.9144 -0.3091
  424MOL0     H57233   4.637  11.359   7.725  0.3147 -1.3226  0.3056
  424MOL0     H57234   4.756  11.629   7.675 -1.7132  1.4098 -1.4321
  424MOL0     H57235   4.692  11.534   7.537 -1.5165 -0.1526 -0.3163
  424MOL0     H57236   4.339  11.656   7.734  0.3698  1.1901 -0.9848
  424MOL0     H57237   4.711  11.100   7.318  0.5837  1.2011  0.6533
  424MOL0     H57238   4.827  10.956   7.006  0.9639 -0.9186  0.4468
  424MOL0     H57239   4.860  10.910   7.176  0.7349  1.6722  0.9205
  424MOL0     H57240   4.695  10.958   7.142  0.3114  1.5064  2.1391
  425MOL0     O57241   4.045   5.980   1.353 -0.3489  0.5295  0.0138
  425MOL0     C57242   4.107   5.945   1.457 -0.2315 -0.2196 -0.1329
  425MOL0     O57243   4.220   6.000   1.498  0.1082 -0.3721 -0.6944
  425MOL0     C57244   4.259   6.132   1.465 -0.2748  0.5810  0.4545
  425MOL0     C57245   4.169   6.239   1.452 -0.6097  0.0340  0.1733
  425MOL0     C57246   4.224   6.365   1.437 -0.5429 -0.5444  0.1789
  425MOL0     C57247   4.364   6.393   1.435 -0.1895 -0.2815 -0.2836
  425MOL0     O57248   4.403   6.522   1.423 -0.3939 -0.2009  0.6023
  425MOL0     C57249   4.511   6.588   1.488 -0.2202  0.4370  0.1060
  425MOL0     C57250   4.449   6.692   1.568 -0.0700 -0.8696 -0.2193
  425MOL0     C57251   4.551   6.805   1.604  0.1791 -0.2295 -0.7124
  425MOL0     C57252   4.671   6.748   1.686  0.4707 -0.3324  0.3778
  425MOL0     C57253   4.766   6.856   1.719  0.0509 -0.9842 -0.2410
  425MOL0     C57254   4.862   6.881   1.601  0.5602 -0.6751 -0.0219
  425MOL0     C57255   4.958   6.997   1.619 -0.2905 -0.4770 -0.2815
  425MOL0     C57256   5.078   6.972   1.715  0.3227  0.8090 -0.8599
  425MOL0     N57257   5.164   6.876   1.647 -0.4395  0.0792 -0.1984
  425MOL0     C57258   5.282   6.916   1.581 -0.6949 -0.1222  0.4423
  425MOL0     C57259   5.356   6.805   1.566 -0.0393  0.0847  0.9300
  425MOL0     C57260   5.494   6.808   1.508 -0.1165  0.5457  0.4513
  425MOL0     C57261   5.601   6.875   1.600  0.0738 -0.0278 -0.2926
  425MOL0     C57262   5.735   6.890   1.533  0.2645  0.5846 -0.0005
  425MOL0     C57263   5.846   6.942   1.630 -0.2102 -0.6183  1.3888
  425MOL0     O57264   5.807   7.074   1.667  0.1961  0.6037  0.8397
  425MOL0     C57265   5.901   7.164   1.707  0.0705  0.8999 -0.1985
  425MOL0     C57266   5.881   7.299   1.711 -0.2616  0.0844  0.4697
  425MOL0     C57267   5.963   7.389   1.771 -0.3578 -0.2245 -0.0967
  425MOL0     C57268   6.076   7.350   1.844  0.1283 -0.5044  0.1211
  425MOL0     C57269   6.161   7.455   1.904  0.0476  0.0485 -0.2659
  425MOL0     O57270   6.272   7.415   1.979  0.0307  0.0140  0.0054
  425MOL0     C57271   6.378   7.502   1.977 -0.0841  1.1290 -0.2883
  425MOL0     C57272   6.369   7.623   2.042  0.0914  1.1173 -0.1780
  425MOL0     C57273   6.475   7.717   2.046 -0.7681  0.1455 -0.1343
  425MOL0     C57274   6.594   7.680   1.981  0.6504 -0.0609  0.7718
  425MOL0     O57275   6.702   7.766   1.959  0.6566  0.2391 -0.7282
  425MOL0     C57276   6.670   7.907   1.951 -0.1940 -0.1181  0.1861
  425MOL0     C57277   6.794   7.971   1.890  0.6746  1.0855  0.2664
  425MOL0     C57278   6.920   7.966   1.973  0.0152  0.2093 -0.1576
  425MOL0     C57279   7.056   7.950   1.889  0.4571 -0.6138 -0.3202
  425MOL0     C57280   7.079   8.076   1.799 -0.4705 -1.0706 -0.4517
  425MOL0     C57281   7.100   8.206   1.868 -0.3882 -0.4760  0.7753
  425MOL0     C57282   7.153   8.326   1.781 -0.9167  0.5316  0.1524
  425MOL0     C57283   7.035   8.407   1.752  0.2782  0.0374 -0.4450
  425MOL0    Cl57284   7.083   8.543   1.645 -0.0321 -0.4514  0.0759
  425MOL0     C57285   6.593   7.561   1.912  1.2243 -0.3362  0.7188
  425MOL0     C57286   6.487   7.470   1.909  0.0991  1.4495 -0.4374
  425MOL0     O57287   6.124   7.571   1.886  0.1660  0.1933  0.3279
  425MOL0     C57288   6.109   7.215   1.843 -0.0731  0.8171  0.1043
  425MOL0     C57289   6.019   7.120   1.776 -0.0529  0.2353  0.4923
  425MOL0     N57290   5.285   6.703   1.624 -0.7404 -1.2305 -0.0597
  425MOL0     N57291   5.166   6.746   1.668  0.0374  0.1130 -0.6487
  425MOL0     C57292   4.448   6.281   1.453 -0.8055 -0.0177 -1.1444
  425MOL0     C57293   4.395   6.154   1.460 -0.2584  0.3278 -0.3340
  425MOL0     C57294   4.061   5.823   1.530 -1.0427  0.4605 -0.5398
  425MOL0     C57295   4.160   5.748   1.597 -0.0804 -0.1389 -0.2365
  425MOL0     C57296   4.138   5.632   1.664 -0.5093  0.1135  0.3561
  425MOL0     C57297   4.004   5.591   1.682  0.1337  1.0039  0.7690
  425MOL0     O57298   3.971   5.489   1.770  0.3843  0.5283 -0.4425
  425MOL0     C57299   3.862   5.399   1.728 -0.7954  0.5050  0.5049
  425MOL0     C57300   3.903   5.256   1.754 -0.3071 -0.5649  0.3815
  425MOL0     C57301   3.792   5.154   1.717 -0.0774  0.1531  0.0936
  425MOL0     C57302   3.850   5.015   1.729  0.0798  0.2931 -0.0846
  425MOL0     C57303   3.948   4.987   1.621  0.4757 -1.0228 -0.5408
  425MOL0     C57304   4.026   4.961   1.535 -0.6990  0.5148  0.6593
  425MOL0     C57305   3.898   5.670   1.626 -0.6223 -0.3444  0.2673
  425MOL0     C57306   3.925   5.783   1.542  0.1580 -0.3281  0.0101
  425MOL0     C57307   3.806   5.845   1.479 -0.3697  0.2947 -0.2893
  425MOL0     H57308   4.061   6.230   1.460 -0.7822 -2.2546 -3.0425
  425MOL0     H57309   4.159   6.450   1.421 -0.0590 -0.5325 -2.0533
  425MOL0     H57310   4.558   6.517   1.557  0.6889 -2.0641 -2.8919
  425MOL0     H57311   4.596   6.625   1.430  0.5767 -0.2759  0.7940
  425MOL0     H57312   4.403   6.652   1.659  1.0433 -2.5639 -0.3545
  425MOL0     H57313   4.373   6.744   1.509  0.4101  0.2290  0.0997
  425MOL0     H57314   4.498   6.873   1.670 -0.1295 -1.1525  0.0115
  425MOL0     H57315   4.583   6.861   1.515  1.5440  3.3950  1.8404
  425MOL0     H57316   4.635   6.695   1.775  0.8590  1.3312  1.5794
  425MOL0     H57317   4.712   6.666   1.628 -3.4197 -2.1654 -0.0941
  425MOL0     H57318   4.699   6.941   1.737 -1.2975 -1.6555 -1.8567
  425MOL0     H57319   4.826   6.837   1.809 -1.0504  0.5286  0.8646
  425MOL0     H57320   4.922   6.791   1.581 -1.1098 -1.5427 -1.3410
  425MOL0     H57321   4.795   6.897   1.517 -1.7356 -3.4537  1.1045
  425MOL0     H57322   4.899   7.081   1.658 -0.6290  0.1386 -2.0472
  425MOL0     H57323   5.006   7.023   1.524  3.2412 -1.3333  1.1009
  425MOL0     H57324   5.135   7.064   1.730  0.3472  1.2461 -3.2370
  425MOL0     H57325   5.046   6.942   1.815  0.1284 -1.4651 -1.5349
  425MOL0     H57326   5.313   7.013   1.545  0.0187 -0.5086  0.0034
  425MOL0     H57327   5.533   6.708   1.487  0.1396  0.1847  2.4216
  425MOL0     H57328   5.490   6.853   1.408 -1.5113  1.0904  0.7270
  425MOL0     H57329   5.565   6.976   1.620  1.0990  0.5559 -1.2399
  425MOL0     H57330   5.612   6.822   1.695  0.1651  1.2876  0.4636
  425MOL0     H57331   5.739   6.960   1.449 -1.2740 -0.6129 -1.1328
  425MOL0     H57332   5.753   6.794   1.486 -0.7185 -0.1886  1.1203
  425MOL0     H57333   5.946   6.944   1.585 -0.7097 -0.2597  0.2541
  425MOL0     H57334   5.853   6.881   1.720  0.2265 -1.7244  0.6245
  425MOL0     H57335   5.795   7.329   1.653  0.0768  2.0862  0.9241
  425MOL0     H57336   5.932   7.492   1.755 -1.4231 -0.6606 -1.0843
  425MOL0     H57337   6.281   7.651   2.100  0.0318  2.4068 -0.8440
  425MOL0     H57338   6.461   7.805   2.109  0.2204  0.8982 -0.9399
  425MOL0     H57339   6.583   7.916   1.886  0.4271 -2.8210 -1.1468
  425MOL0     H57340   6.651   7.958   2.047 -0.2973  2.2567 -1.0115
  425MOL0     H57341   6.805   7.925   1.791 -1.8784  3.8469 -1.4571
  425MOL0     H57342   6.764   8.073   1.865 -0.0303  0.2943 -2.4333
  425MOL0     H57343   6.920   8.052   2.042 -2.6609  0.7171 -0.6630
  425MOL0     H57344   6.925   7.885   2.046  2.2979  1.1997  0.8934
  425MOL0     H57345   7.056   7.858   1.829 -3.5082  0.0951 -1.6836
  425MOL0     H57346   7.132   7.953   1.967  1.7582  3.0576 -1.5153
  425MOL0     H57347   6.999   8.083   1.724  0.0826  1.0731 -0.8953
  425MOL0     H57348   7.174   8.056   1.749 -0.3930 -0.3975 -0.5764
  425MOL0     H57349   7.010   8.241   1.920 -1.5396  0.8174 -1.8749
  425MOL0     H57350   7.172   8.206   1.951 -1.7433  1.8303  2.0818
  425MOL0     H57351   7.203   8.277   1.697 -1.1941  0.6923 -0.1089
  425MOL0     H57352   7.222   8.384   1.844  1.0543  0.0288 -1.4375
  425MOL0     H57353   6.954   8.355   1.700 -0.4632 -0.9435  1.6176
  425MOL0     H57354   6.998   8.453   1.844 -1.9388 -2.8723  0.2456
  425MOL0     H57355   6.679   7.542   1.849  1.6522  1.6833  0.6294
  425MOL0     H57356   6.496   7.386   1.841  2.4899  3.4300 -2.7963
  425MOL0     H57357   6.202   7.173   1.880 -0.4156 -1.2156 -1.1333
  425MOL0     H57358   6.059   7.019   1.769 -0.4329  0.1502 -0.5362
  425MOL0     H57359   4.557   6.282   1.445 -0.4043 -0.2049  2.4655
  425MOL0     H57360   4.463   6.071   1.476 -0.5451  0.4642  1.9640
  425MOL0     H57361   4.259   5.791   1.599 -0.3562  0.8082 -2.8190
  425MOL0     H57362   4.216   5.580   1.718 -0.0600  2.2796  1.9714
  425MOL0     H57363   3.845   5.405   1.620 -0.0164 -4.2154 -0.0906
  425MOL0     H57364   3.765   5.404   1.778 -2.1232 -1.1493 -1.7373
  425MOL0     H57365   3.923   5.241   1.860  0.8802  0.7442  0.3716
  425MOL0     H57366   3.993   5.235   1.694 -0.1387  0.5073  0.2389
  425MOL0     H57367   3.749   5.170   1.618 -1.6448  0.2886  0.7700
  425MOL0     H57368   3.710   5.153   1.788 -0.4517 -0.1779 -0.3370
  425MOL0     H57369   3.901   5.010   1.825 -3.0744  2.3801  1.9058
  425MOL0     H57370   3.772   4.939   1.719 -1.7328  2.0510  0.0072
  425MOL0     H57371   4.108   4.941   1.469 -1.5204 -0.7836 -0.0045
  425MOL0     H57372   3.793   5.641   1.623  0.0330 -2.8959  0.2032
  425MOL0     H57373   3.796   5.845   1.370 -5.3231  2.2248 -0.1448
  425MOL0     H57374   3.720   5.788   1.517  1.6873 -1.9166  1.3526
  425MOL0     H57375   3.791   5.948   1.514 -0.9629  0.6622 -1.5636
  426MOL0     O57376   3.684  10.894   5.728 -0.3882 -0.2005  0.1994
  426MOL0     C57377   3.717  10.838   5.632 -0.4637 -0.9162  0.2949
  426MOL0     O57378   3.661  10.858   5.510 -0.3732 -0.5629  0.1405
  426MOL0     C57379   3.541  10.914   5.501  0.0508 -0.7730 -0.4947
  426MOL0     C57380   3.423  10.836   5.488 -0.0812  0.0224 -0.9438
  426MOL0     C57381   3.298  10.896   5.492 -0.1087 -0.0524 -0.4263
  426MOL0     C57382   3.291  11.037   5.460 -0.0970  0.3363 -0.2200
  426MOL0     O57383   3.168  11.092   5.428  0.0599  0.1274  0.3634
  426MOL0     C57384   3.158  11.161   5.299  0.5695 -0.0629 -1.0593
  426MOL0     C57385   3.014  11.132   5.266  0.0787  0.4257 -0.7155
  426MOL0     C57386   2.977  11.185   5.120 -0.0257 -0.0150  0.2412
  426MOL0     C57387   3.051  11.119   4.999 -0.5961  0.2199  0.5766
  426MOL0     C57388   2.981  10.989   4.960 -0.0617 -0.3750  0.6498
  426MOL0     C57389   3.013  10.930   4.825  0.1803  0.1150  0.0212
  426MOL0     C57390   2.909  10.989   4.722 -0.0105 -0.2660 -0.0692
  426MOL0     C57391   2.929  10.920   4.586 -0.4593 -0.5599  1.2061
  426MOL0     N57392   2.805  10.930   4.508  0.4987  0.0034  0.7758
  426MOL0     C57393   2.726  10.820   4.478  0.4781 -0.4170 -0.0616
  426MOL0     C57394   2.616  10.868   4.415  0.3978 -0.7033  0.0701
  426MOL0     C57395   2.492  10.803   4.371  0.0039 -0.6317 -0.5362
  426MOL0     C57396   2.506  10.703   4.260  0.4642 -0.3677 -0.4253
  426MOL0     C57397   2.574  10.574   4.298 -0.1952 -0.6246 -0.2196
  426MOL0     C57398   2.575  10.469   4.182 -0.4221 -0.1740  0.1526
  426MOL0     O57399   2.663  10.497   4.075 -0.7038  0.7226 -0.6015
  426MOL0     C57400   2.622  10.554   3.964  0.3755 -0.2325  0.8117
  426MOL0     C57401   2.551  10.474   3.867  0.0190 -0.9493  0.6555
  426MOL0     C57402   2.525  10.523   3.738  0.3185  0.0639  1.0119
  426MOL0     C57403   2.561  10.649   3.707 -0.1070  0.0082 -0.1712
  426MOL0     C57404   2.523  10.708   3.581  0.0157  0.9963  0.4272
  426MOL0     O57405   2.477  10.621   3.492  0.0068  0.3690  0.3820
  426MOL0     C57406   2.490  10.652   3.357  0.3611  0.4295 -0.7367
  426MOL0     C57407   2.387  10.687   3.276 -0.2281  0.9323 -0.3731
  426MOL0     C57408   2.414  10.744   3.148  1.0842  0.3955 -0.4397
  426MOL0     C57409   2.539  10.762   3.097 -0.2861 -0.0096 -0.0152
  426MOL0     O57410   2.556  10.838   2.985 -0.1713  0.1249 -0.0735
  426MOL0     C57411   2.691  10.866   2.948 -0.3822  0.7417  0.1694
  426MOL0     C57412   2.706  10.964   2.827 -0.2695  0.1329 -0.8404
  426MOL0     C57413   2.642  11.107   2.857  0.5168 -0.6704  0.4976
  426MOL0     C57414   2.629  11.195   2.733  0.4481 -0.1481  0.3235
  426MOL0     C57415   2.534  11.315   2.761  0.4011 -0.4974  0.6869
  426MOL0     C57416   2.462  11.365   2.641 -0.0044 -0.4360  0.2234
  426MOL0     C57417   2.380  11.504   2.666 -0.2593  0.2781  0.0356
  426MOL0     C57418   2.379  11.591   2.535 -0.4182  0.6317 -0.8559
  426MOL0    Cl57419   2.312  11.743   2.565  0.0237 -0.1313 -0.2451
  426MOL0     C57420   2.642  10.711   3.174 -0.0827  0.1916  0.8862
  426MOL0     C57421   2.622  10.650   3.302  0.0957  0.4493 -0.8038
  426MOL0     O57422   2.548  10.826   3.562  0.2730  0.5017  0.3120
  426MOL0     C57423   2.621  10.732   3.806 -0.2356 -0.3099  0.7141
  426MOL0     C57424   2.655  10.682   3.932  0.6970 -0.2582  0.0044
  426MOL0     N57425   2.643  11.001   4.386  0.2624 -0.4740  0.4316
  426MOL0     N57426   2.752  11.036   4.440 -0.0610 -0.3213 -0.1126
  426MOL0     C57427   3.403  11.118   5.453  0.4095 -0.1010 -1.4652
  426MOL0     C57428   3.532  11.055   5.479  0.3204 -0.6068 -0.7769
  426MOL0     C57429   3.810  10.725   5.645 -0.0737  0.1397  0.0431
  426MOL0     C57430   3.776  10.603   5.589 -0.9742 -0.7467 -0.4196
  426MOL0     C57431   3.866  10.494   5.578  0.2004 -0.2866 -0.1034
  426MOL0     C57432   3.986  10.489   5.643  0.0398 -0.3765 -0.4960
  426MOL0     O57433   4.056  10.373   5.648  0.9059 -0.1482 -0.2899
  426MOL0     C57434   4.185  10.354   5.695 -1.2773 -0.0808  0.2076
  426MOL0     C57435   4.247  10.241   5.617  0.5838  0.1608 -0.4499
  426MOL0     C57436   4.397  10.249   5.601  0.8255  0.2239  0.0044
  426MOL0     C57437   4.465  10.265   5.742 -1.0091 -0.5154  0.4502
  426MOL0     C57438   4.609  10.221   5.752  0.0488 -0.6763 -0.0149
  426MOL0     C57439   4.714  10.177   5.781 -0.3794 -0.1124  1.4390
  426MOL0     C57440   4.023  10.608   5.713  0.7800 -0.7681  0.5802
  426MOL0     C57441   3.936  10.723   5.707 -0.1633  0.1977  0.1147
  426MOL0     C57442   3.994  10.851   5.760 -0.3007 -0.4764 -0.8182
  426MOL0     H57443   3.444  10.730   5.499 -1.4073  0.0230  3.3327
  426MOL0     H57444   3.207  10.836   5.490 -0.8929  0.7340  3.5485
  426MOL0     H57445   3.171  11.267   5.324 -3.2692 -0.1891  2.6455
  426MOL0     H57446   3.230  11.114   5.231 -1.7175 -1.9803 -2.3018
  426MOL0     H57447   2.940  11.180   5.331 -0.8404 -1.0664 -0.6342
  426MOL0     H57448   2.994  11.025   5.264  0.8899  0.2597 -0.3805
  426MOL0     H57449   3.009  11.290   5.112  1.1874 -0.1751  2.3467
  426MOL0     H57450   2.871  11.182   5.096  0.0494 -0.7223 -0.0309
  426MOL0     H57451   3.037  11.188   4.914  1.1965 -0.8517 -0.6599
  426MOL0     H57452   3.157  11.103   5.022 -0.6247  0.2657  0.7419
  426MOL0     H57453   3.009  10.918   5.037 -2.8744  0.2925  2.4526
  426MOL0     H57454   2.872  10.998   4.959 -0.3266 -2.6959 -1.2753
  426MOL0     H57455   3.117  10.941   4.796  1.3944 -3.0459  2.5618
  426MOL0     H57456   2.999  10.822   4.829 -1.6890  0.3407  1.2675
  426MOL0     H57457   2.919  11.097   4.715 -2.1276  0.0106  0.5623
  426MOL0     H57458   2.812  10.966   4.767  0.4266 -2.4771 -0.1477
  426MOL0     H57459   2.999  10.967   4.516 -2.1970  0.4724  0.1136
  426MOL0     H57460   2.952  10.813   4.595  0.5006 -0.6221 -1.2356
  426MOL0     H57461   2.741  10.717   4.509 -0.0455 -1.3844 -2.7492
  426MOL0     H57462   2.421  10.766   4.445 -3.0853  2.7755 -1.5036
  426MOL0     H57463   2.431  10.878   4.319 -0.9277 -1.6206 -0.9231
  426MOL0     H57464   2.407  10.675   4.223 -1.2616  0.2214  3.2774
  426MOL0     H57465   2.556  10.748   4.174  1.5523 -0.8550 -0.0659
  426MOL0     H57466   2.525  10.527   4.384  2.0719  2.1197  2.8505
  426MOL0     H57467   2.677  10.601   4.325 -0.3935  0.6608 -0.6906
  426MOL0     H57468   2.473  10.468   4.141 -0.4611  3.4006 -0.1519
  426MOL0     H57469   2.597  10.372   4.227 -0.7521  0.3161  1.4309
  426MOL0     H57470   2.501  10.380   3.886  0.8167 -2.3126 -3.1376
  426MOL0     H57471   2.477  10.446   3.680  0.8061  0.4059  0.1382
  426MOL0     H57472   2.284  10.671   3.307  0.2924 -1.9755  0.1281
  426MOL0     H57473   2.331  10.787   3.093  0.3291  0.3205  0.6196
  426MOL0     H57474   2.746  10.908   3.033 -0.7069  0.9095  0.2976
  426MOL0     H57475   2.737  10.772   2.918 -1.2419  0.1879  0.5664
  426MOL0     H57476   2.813  10.980   2.808  0.3042 -0.8368  1.3231
  426MOL0     H57477   2.650  10.915   2.746 -0.9106 -0.5038 -0.0288
  426MOL0     H57478   2.541  11.097   2.898 -0.4185  2.9884 -0.5300
  426MOL0     H57479   2.704  11.157   2.932  0.1607  2.5618 -1.1968
  426MOL0     H57480   2.585  11.130   2.658  0.7991 -0.7136  0.6020
  426MOL0     H57481   2.728  11.236   2.709 -0.7059  4.7115  2.5379
  426MOL0     H57482   2.591  11.397   2.805 -2.3033  1.2287  1.2201
  426MOL0     H57483   2.457  11.292   2.835  0.0693  0.5520  0.6777
  426MOL0     H57484   2.538  11.388   2.566  1.9040  1.0271  2.4989
  426MOL0     H57485   2.386  11.292   2.608  1.0542 -0.6168 -1.9564
  426MOL0     H57486   2.439  11.559   2.739  1.1731 -0.7918 -0.2639
  426MOL0     H57487   2.277  11.475   2.692 -1.2605 -2.0903 -5.2707
  426MOL0     H57488   2.485  11.601   2.507  0.1257 -1.7881  0.0878
  426MOL0     H57489   2.336  11.533   2.453  0.3497  1.1742 -1.6722
  426MOL0     H57490   2.743  10.728   3.139 -0.1922  1.9595  1.3245
  426MOL0     H57491   2.714  10.636   3.357  0.6506  2.1736 -1.2385
  426MOL0     H57492   2.642  10.837   3.785 -0.5971 -0.2167  0.8147
  426MOL0     H57493   2.705  10.746   4.005 -0.7814 -0.6704  1.4458
  426MOL0     H57494   3.402  11.223   5.424 -2.5618 -0.2272 -2.1964
  426MOL0     H57495   3.616  11.123   5.468 -0.7673  1.2765  1.6239
  426MOL0     H57496   3.675  10.579   5.558 -0.1538 -4.6296 -0.6115
  426MOL0     H57497   3.836  10.397   5.537  0.5504  0.1138 -1.3546
  426MOL0     H57498   4.181  10.341   5.803 -0.1818  1.2828  0.4449
  426MOL0     H57499   4.253  10.439   5.680  3.6360 -3.2883  1.8084
  426MOL0     H57500   4.195  10.247   5.521  1.0471  3.5162 -0.6280
  426MOL0     H57501   4.227  10.145   5.664  1.4902  0.5174  0.7322
  426MOL0     H57502   4.415  10.331   5.530  1.1323 -1.7034 -2.2655
  426MOL0     H57503   4.437  10.161   5.551  0.1459 -0.3659  0.4745
  426MOL0     H57504   4.455  10.374   5.746  0.2740 -0.2973 -1.1732
  426MOL0     H57505   4.406  10.236   5.829 -0.8214  1.4843  1.3014
  426MOL0     H57506   4.806  10.128   5.805 -1.4904 -2.7391  0.7075
  426MOL0     H57507   4.106  10.601   5.782  1.2789 -0.3859  0.0270
  426MOL0     H57508   4.011  10.916   5.674 -0.6673 -1.1904 -1.4386
  426MOL0     H57509   3.918  10.896   5.824  0.3114 -0.7720  0.1407
  426MOL0     H57510   4.092  10.836   5.807  0.3338  2.3570 -1.0795
  427MOL0     O57511   6.623   1.342   1.383  0.4832  0.1729 -0.1944
  427MOL0     C57512   6.649   1.334   1.503  0.8926 -0.1261  0.0052
  427MOL0     O57513   6.562   1.366   1.607 -0.1145 -0.5409  0.5011
  427MOL0     C57514   6.468   1.460   1.562  0.2580  0.5517  0.3164
  427MOL0     C57515   6.460   1.571   1.649 -0.8493  0.0225  0.0120
  427MOL0     C57516   6.351   1.650   1.655 -0.0595 -0.5571  0.2209
  427MOL0     C57517   6.240   1.626   1.566 -0.4819  0.5226 -0.5031
  427MOL0     O57518   6.117   1.687   1.581 -0.2227  0.0176 -0.1963
  427MOL0     C57519   6.105   1.773   1.698 -1.2424  0.6174  0.7397
  427MOL0     C57520   5.957   1.806   1.712 -0.1518 -0.8443 -0.2469
  427MOL0     C57521   5.895   1.891   1.606 -0.2154 -0.1268  0.6281
  427MOL0     C57522   5.741   1.875   1.595  0.7263  0.3248 -0.6667
  427MOL0     C57523   5.693   1.981   1.500  0.1786 -0.7375 -0.4910
  427MOL0     C57524   5.538   1.997   1.510 -0.4239  0.1168 -0.1799
  427MOL0     C57525   5.470   1.876   1.445  0.7976 -0.3320  0.7454
  427MOL0     C57526   5.321   1.896   1.416 -0.3731 -0.3451 -0.6440
  427MOL0     N57527   5.261   1.775   1.339 -0.5584  0.3020  0.8432
  427MOL0     C57528   5.233   1.657   1.395  0.4618 -0.5467 -0.6364
  427MOL0     C57529   5.216   1.575   1.293  0.2906 -0.2983 -0.6912
  427MOL0     C57530   5.180   1.432   1.301  0.1238 -0.2974  0.2280
  427MOL0     C57531   5.283   1.328   1.360 -0.7670  0.5193 -1.1324
  427MOL0     C57532   5.422   1.377   1.394  0.1370 -0.1564  0.1753
  427MOL0     C57533   5.498   1.276   1.471  0.3898  0.3136 -0.2134
  427MOL0     O57534   5.634   1.328   1.481 -0.8550 -0.5498 -0.2832
  427MOL0     C57535   5.740   1.280   1.555  0.0476  0.2265  0.5561
  427MOL0     C57536   5.856   1.350   1.563 -0.5373 -1.2355 -0.1683
  427MOL0     C57537   5.957   1.315   1.652 -0.7599  0.2819  0.3720
  427MOL0     C57538   5.960   1.184   1.712  0.4640  0.1401 -0.2025
  427MOL0     C57539   6.068   1.158   1.811 -0.4618 -0.4034  0.6731
  427MOL0     O57540   6.066   1.042   1.879 -0.2063  0.5798  0.3228
  427MOL0     C57541   6.158   1.007   1.975 -0.2225  0.0955 -0.4275
  427MOL0     C57542   6.255   0.919   1.933  0.0032  0.3566  0.1644
  427MOL0     C57543   6.355   0.877   2.021 -0.3742  0.2510 -0.8498
  427MOL0     C57544   6.364   0.931   2.154  0.0554 -1.0183 -0.0603
  427MOL0     O57545   6.461   0.889   2.230 -0.4118  0.0458 -0.1989
  427MOL0     C57546   6.478   0.948   2.354 -0.0322 -0.3740 -0.5952
  427MOL0     C57547   6.587   0.901   2.444 -0.5275  0.4751 -0.5507
  427MOL0     C57548   6.550   0.752   2.488  0.7351 -1.0633  0.5712
  427MOL0     C57549   6.654   0.694   2.591  0.9002 -0.1870  0.5100
  427MOL0     C57550   6.661   0.534   2.580  1.1274 -0.3971 -0.9184
  427MOL0     C57551   6.757   0.489   2.690  0.3794 -0.6902  0.8297
  427MOL0     C57552   6.790   0.339   2.675 -0.9049 -0.3676  1.0449
  427MOL0     C57553   6.882   0.299   2.795  0.1713  0.0505 -0.0670
  427MOL0    Cl57554   6.968   0.143   2.760  0.0351  0.0552  0.3416
  427MOL0     C57555   6.262   1.018   2.195  0.2500 -0.3538 -0.5039
  427MOL0     C57556   6.164   1.058   2.110 -0.5074 -1.1773  0.6433
  427MOL0     O57557   6.162   1.237   1.806 -0.7247 -0.3190  0.6868
  427MOL0     C57558   5.854   1.101   1.694 -0.1940  0.7541 -0.7444
  427MOL0     C57559   5.744   1.156   1.620 -0.3534  0.2570  0.0274
  427MOL0     N57560   5.246   1.636   1.175 -0.1050  0.8841 -0.0349
  427MOL0     N57561   5.269   1.754   1.206 -0.1545  0.2140 -0.1234
  427MOL0     C57562   6.247   1.511   1.477 -0.6388  0.2083  0.6600
  427MOL0     C57563   6.358   1.428   1.477 -0.4494 -0.2606  0.8448
  427MOL0     C57564   6.780   1.274   1.538  0.2434  0.1860 -0.7688
  427MOL0     C57565   6.828   1.176   1.450 -0.1401  0.5626 -0.6074
  427MOL0     C57566   6.942   1.100   1.484 -0.2579  0.4860 -0.5914
  427MOL0     C57567   7.023   1.126   1.597 -0.0689 -0.2500 -0.1832
  427MOL0     O57568   7.136   1.049   1.610  0.4473 -0.0086  0.5224
  427MOL0     C57569   7.245   1.104   1.684  0.6822  0.6183  0.0958
  427MOL0     C57570   7.362   1.002   1.687  0.6173  0.7200 -0.0045
  427MOL0     C57571   7.330   0.908   1.812  0.3394  0.0854  0.3255
  427MOL0     C57572   7.413   0.780   1.812 -0.0702 -0.0662  0.5508
  427MOL0     C57573   7.394   0.707   1.937  0.8532  0.0190  0.3446
  427MOL0     C57574   7.373   0.640   2.029  0.8337  0.1314 -0.2448
  427MOL0     C57575   6.982   1.233   1.677  0.1063  0.3254 -0.2242
  427MOL0     C57576   6.865   1.307   1.656 -0.1572  0.3609  0.1580
  427MOL0     C57577   6.823   1.403   1.765 -0.9176  0.0083  0.2906
  427MOL0     H57578   6.535   1.571   1.728 -0.8132 -1.2878 -0.0126
  427MOL0     H57579   6.347   1.732   1.726  0.9245  0.8014 -1.2346
  427MOL0     H57580   6.147   1.729   1.788 -1.5426 -2.4180 -0.4819
  427MOL0     H57581   6.144   1.873   1.676 -0.5321  0.1038 -0.4766
  427MOL0     H57582   5.956   1.859   1.808  1.5857  0.3023 -0.8177
  427MOL0     H57583   5.911   1.708   1.726 -1.6967  0.0773  1.5204
  427MOL0     H57584   5.941   1.873   1.509  0.7336  1.7981  0.6637
  427MOL0     H57585   5.914   1.994   1.639  0.1210  0.5216 -1.4524
  427MOL0     H57586   5.708   1.776   1.562  0.3247  0.0610  0.4649
  427MOL0     H57587   5.693   1.899   1.691 -1.1536 -0.4172 -1.3699
  427MOL0     H57588   5.736   2.078   1.529  0.5323 -1.4858  1.7180
  427MOL0     H57589   5.730   1.952   1.402 -1.4433  1.9829 -2.0530
  427MOL0     H57590   5.501   2.008   1.613  3.2879  2.0812  1.1325
  427MOL0     H57591   5.503   2.085   1.455 -2.2731 -2.1736 -2.9168
  427MOL0     H57592   5.472   1.788   1.509  3.1967 -0.3243  0.7856
  427MOL0     H57593   5.520   1.846   1.353 -1.4608  0.5458 -0.8674
  427MOL0     H57594   5.265   1.906   1.510 -3.4891  1.8819 -2.5363
  427MOL0     H57595   5.303   1.990   1.363  1.0233 -0.3911 -1.2394
  427MOL0     H57596   5.217   1.644   1.501 -1.5732  2.3813 -0.4691
  427MOL0     H57597   5.082   1.426   1.348 -0.2464 -1.3250 -0.6351
  427MOL0     H57598   5.170   1.406   1.195 -0.8053 -0.2668  0.2985
  427MOL0     H57599   5.237   1.289   1.452 -1.2004  0.8848 -1.1930
  427MOL0     H57600   5.293   1.241   1.294 -0.5604  2.0236 -3.1730
  427MOL0     H57601   5.416   1.468   1.454 -2.1254 -0.2226  0.1128
  427MOL0     H57602   5.480   1.395   1.302  0.9686 -0.3030  0.6605
  427MOL0     H57603   5.503   1.175   1.427 -1.4376  0.6828 -1.3696
  427MOL0     H57604   5.451   1.278   1.569 -0.1092 -1.8638 -0.3430
  427MOL0     H57605   5.866   1.442   1.507 -4.3071 -1.7694 -2.0244
  427MOL0     H57606   6.036   1.389   1.665 -1.4113  0.8906  0.9326
  427MOL0     H57607   6.249   0.876   1.834  0.3781 -0.2487  0.3984
  427MOL0     H57608   6.426   0.799   1.994 -0.2649  0.2856 -0.6623
  427MOL0     H57609   6.489   1.056   2.344  1.0049 -0.4219 -0.1199
  427MOL0     H57610   6.390   0.931   2.417 -0.1938  2.1627 -0.0439
  427MOL0     H57611   6.682   0.908   2.389 -0.4716  0.4024 -0.4638
  427MOL0     H57612   6.591   0.957   2.538  2.1316 -1.9484  0.9484
  427MOL0     H57613   6.451   0.761   2.534  0.0047  2.0869 -1.3763
  427MOL0     H57614   6.549   0.683   2.403 -4.4751 -3.8344  2.4754
  427MOL0     H57615   6.609   0.733   2.683 -0.9345  0.2351 -0.5189
  427MOL0     H57616   6.754   0.732   2.567  1.0261 -2.8993 -4.8412
  427MOL0     H57617   6.694   0.508   2.479 -2.1223 -0.0357 -2.1923
  427MOL0     H57618   6.569   0.479   2.602  0.2761  1.4921  0.6047
  427MOL0     H57619   6.852   0.543   2.685 -0.3746  0.9903  3.0288
  427MOL0     H57620   6.709   0.513   2.785  0.3295  0.9050  0.4442
  427MOL0     H57621   6.850   0.338   2.583  1.5002 -0.1710  2.5194
  427MOL0     H57622   6.701   0.276   2.663 -0.3117 -0.9311 -0.8826
  427MOL0     H57623   6.961   0.375   2.792  1.2913 -1.0946 -1.5504
  427MOL0     H57624   6.834   0.295   2.893  0.6609  3.0521  0.3792
  427MOL0     H57625   6.269   1.064   2.293  1.4261 -1.1578 -0.1894
  427MOL0     H57626   6.095   1.132   2.150 -1.0356 -1.9278  1.1484
  427MOL0     H57627   5.839   1.002   1.735 -4.1187  1.8995  1.0920
  427MOL0     H57628   5.657   1.092   1.625 -2.0682  2.5299  4.1131
  427MOL0     H57629   6.160   1.479   1.421 -0.1508  1.9492 -1.2111
  427MOL0     H57630   6.350   1.338   1.417 -0.0273 -1.7037  2.8452
  427MOL0     H57631   6.781   1.151   1.356  1.5417 -1.0657 -1.0665
  427MOL0     H57632   6.972   1.016   1.422 -0.6066  1.4911 -2.1858
  427MOL0     H57633   7.213   1.120   1.787  0.0342 -0.0916  0.0156
  427MOL0     H57634   7.283   1.195   1.636  1.8434  0.1664  0.1169
  427MOL0     H57635   7.455   1.059   1.694  0.8673  0.4402 -0.8585
  427MOL0     H57636   7.366   0.942   1.596  0.0607 -1.5915  1.4188
  427MOL0     H57637   7.224   0.882   1.818 -0.4338  2.4089 -1.3553
  427MOL0     H57638   7.357   0.971   1.897  0.6701 -0.6329  0.7560
  427MOL0     H57639   7.385   0.711   1.732  0.0685 -0.4753  0.8553
  427MOL0     H57640   7.518   0.803   1.794  0.4133 -1.7552  1.0524
  427MOL0     H57641   7.370   0.590   2.124  3.1792 -1.6780 -1.0190
  427MOL0     H57642   7.041   1.272   1.760  3.5687  0.8636 -2.7063
  427MOL0     H57643   6.916   1.442   1.806 -0.2031 -0.9477 -0.3876
  427MOL0     H57644   6.761   1.485   1.728  1.6696  1.3710 -1.3032
  427MOL0     H57645   6.771   1.347   1.843 -2.1349 -1.2527 -1.3355
  428MOL0     O57646   4.506   2.860   0.318 -0.6493  0.0198 -0.3463
  428MOL0     C57647   4.413   2.909   0.253 -0.5078 -0.3701  0.0325
  428MOL0     O57648   4.424   3.025   0.187  0.0647  0.4540  0.1362
  428MOL0     C57649   4.544   3.090   0.205 -0.8640  0.6545  0.5976
  428MOL0     C57650   4.624   3.121   0.095  0.2496 -0.2974 -0.5538
  428MOL0     C57651   4.748   3.188   0.102  0.1860  0.3805  0.4070
  428MOL0     C57652   4.794   3.231   0.224  0.1503  0.0148  0.1975
  428MOL0     O57653   4.900   3.315   0.217 -0.6788  0.0059  0.0394
  428MOL0     C57654   4.953   3.363   0.339 -1.0584 -1.3601  0.1427
  428MOL0     C57655   5.076   3.453   0.315 -0.3857  0.4176  0.3189
  428MOL0     C57656   5.173   3.404   0.198 -0.5545  0.0837  0.4978
  428MOL0     C57657   5.318   3.461   0.204 -0.2512 -0.1093 -0.0862
  428MOL0     C57658   5.398   3.413   0.076  0.0739  0.6857 -1.0165
  428MOL0     C57659   5.532   3.472   0.096  0.1806 -0.9668  0.4938
  428MOL0     C57660   5.621   3.407  -0.021 -0.0404  0.2386 -0.9409
  428MOL0     C57661   5.745   3.491  -0.048  0.9882  1.0272 -0.2366
  428MOL0     N57662   5.800   3.426  -0.167 -0.1202  0.4808  0.5602
  428MOL0     C57663   5.861   3.304  -0.170 -1.0182 -0.6889 -0.0604
  428MOL0     C57664   5.908   3.275  -0.296  0.4415 -0.4871  0.6295
  428MOL0     C57665   5.987   3.168  -0.364 -0.1167 -0.3331 -0.2764
  428MOL0     C57666   6.126   3.212  -0.353 -0.3450  0.0690 -0.3087
  428MOL0     C57667   6.206   3.184  -0.483  0.4067  0.9931 -0.2023
  428MOL0     C57668   6.254   3.039  -0.485 -0.5458 -0.5699 -0.5407
  428MOL0     O57669   6.379   3.051  -0.413 -0.2852 -0.4419  0.4664
  428MOL0     C57670   6.489   3.108  -0.471 -0.5496 -0.3766 -0.1692
  428MOL0     C57671   6.573   3.174  -0.375  0.7780  0.0966 -1.2657
  428MOL0     C57672   6.680   3.251  -0.419 -0.9833  0.0388  0.4999
  428MOL0     C57673   6.722   3.242  -0.559 -0.8848  0.0415  0.4498
  428MOL0     C57674   6.845   3.308  -0.597 -0.5180 -0.2675  0.0906
  428MOL0     O57675   6.909   3.266  -0.713  0.2768 -0.2442  0.4175
  428MOL0     C57676   7.038   3.312  -0.744 -0.5766  0.4068 -0.9201
  428MOL0     C57677   7.145   3.340  -0.652  0.2265 -0.0512 -0.4740
  428MOL0     C57678   7.269   3.388  -0.689 -0.9932 -0.3800  0.7227
  428MOL0     C57679   7.301   3.420  -0.823  0.7959 -1.4666  0.2815
  428MOL0     O57680   7.426   3.464  -0.846  0.0844 -0.4121  0.0555
  428MOL0     C57681   7.492   3.412  -0.960 -0.9438  0.7569 -0.3169
  428MOL0     C57682   7.599   3.498  -1.038  0.1837 -0.1364  0.4217
  428MOL0     C57683   7.729   3.427  -1.077 -0.5555  0.2160  0.7403
  428MOL0     C57684   7.733   3.426  -1.221 -0.2718 -0.0232  0.8384
  428MOL0     C57685   7.857   3.376  -1.277  0.8622  0.9346 -0.4910
  428MOL0     C57686   7.976   3.472  -1.266 -0.2732 -0.4191  0.7177
  428MOL0     C57687   7.981   3.572  -1.385  0.0918  0.1994  0.2048
  428MOL0     C57688   8.118   3.639  -1.364  0.1630  0.1011 -0.6947
  428MOL0    Cl57689   8.123   3.781  -1.468 -0.1670 -0.2329  0.6058
  428MOL0     C57690   7.200   3.378  -0.915  0.2549 -0.3577 -0.1690
  428MOL0     C57691   7.072   3.330  -0.880  0.0418  0.7101 -0.1174
  428MOL0     O57692   6.874   3.398  -0.529 -0.4324  0.2693 -0.6633
  428MOL0     C57693   6.650   3.157  -0.647  0.1560 -0.3740  0.1531
  428MOL0     C57694   6.532   3.097  -0.602 -0.1591 -0.0028  0.3337
  428MOL0     N57695   5.865   3.381  -0.370  0.0618 -0.2314 -0.4875
  428MOL0     N57696   5.803   3.468  -0.295  0.5991  0.3309  0.1218
  428MOL0     C57697   4.706   3.214   0.328 -0.2872 -0.0612 -1.1248
  428MOL0     C57698   4.588   3.135   0.329 -0.9091 -0.1357 -0.2717
  428MOL0     C57699   4.276   2.855   0.265  0.1434  0.8041 -1.2596
  428MOL0     C57700   4.174   2.913   0.186  1.0776 -0.5701  0.4332
  428MOL0     C57701   4.040   2.878   0.185  0.9005  0.8179 -0.7054
  428MOL0     C57702   4.008   2.769   0.263 -0.3788 -0.3552  0.3307
  428MOL0     O57703   3.884   2.717   0.273 -0.6516  0.0802 -0.5996
  428MOL0     C57704   3.766   2.802   0.270  0.6376  0.0709  0.4566
  428MOL0     C57705   3.637   2.742   0.198 -0.1842 -0.1836  0.4796
  428MOL0     C57706   3.566   2.618   0.246  0.0271 -0.4676 -0.0554
  428MOL0     C57707   3.475   2.661   0.362 -0.3647  0.6030  0.2563
  428MOL0     C57708   3.415   2.535   0.415  0.2476 -0.2301  0.4682
  428MOL0     C57709   3.345   2.448   0.452 -0.2634  0.6702  0.1068
  428MOL0     C57710   4.107   2.695   0.335 -0.4725 -0.7634 -0.2916
  428MOL0     C57711   4.239   2.743   0.341 -1.0780 -0.9899  0.1511
  428MOL0     C57712   4.327   2.645   0.409 -1.4247  1.4382 -0.4786
  428MOL0     H57713   4.584   3.107  -0.005  0.3369 -0.8112 -0.5226
  428MOL0     H57714   4.800   3.201   0.007 -0.2151  0.1694  0.1544
  428MOL0     H57715   4.872   3.422   0.383  0.3840 -0.3322  1.5342
  428MOL0     H57716   4.995   3.283   0.400  0.1935  0.8207  2.3386
  428MOL0     H57717   5.141   3.459   0.403 -0.7708 -3.6999  1.0853
  428MOL0     H57718   5.043   3.554   0.288 -1.3167 -0.5310 -2.4331
  428MOL0     H57719   5.131   3.436   0.102  1.0650 -0.0807 -0.2876
  428MOL0     H57720   5.177   3.296   0.210  0.8345  0.0414 -0.2573
  428MOL0     H57721   5.311   3.570   0.207  0.6648 -0.0534  0.3993
  428MOL0     H57722   5.377   3.429   0.290  0.6396  1.3621 -0.1198
  428MOL0     H57723   5.413   3.304   0.075 -0.0833  0.6676 -1.5754
  428MOL0     H57724   5.356   3.440  -0.021  3.1970  2.9207 -1.8901
  428MOL0     H57725   5.537   3.580   0.078  0.8811 -1.2336 -1.1423
  428MOL0     H57726   5.581   3.454   0.192  2.2081 -0.4094 -0.3984
  428MOL0     H57727   5.561   3.402  -0.113 -0.3196  0.0147 -0.7476
  428MOL0     H57728   5.651   3.305   0.003 -3.4354 -0.5349  0.6860
  428MOL0     H57729   5.730   3.596  -0.073  2.1929  0.7566 -2.3163
  428MOL0     H57730   5.816   3.483   0.035  3.1853 -5.0614 -2.1478
  428MOL0     H57731   5.880   3.234  -0.089  0.5475  0.0490  0.2474
  428MOL0     H57732   5.975   3.074  -0.311  3.5872 -0.7273  0.1812
  428MOL0     H57733   5.961   3.157  -0.470  1.2585 -4.2874 -0.3729
  428MOL0     H57734   6.132   3.320  -0.339 -1.8322  0.0031  1.2574
  428MOL0     H57735   6.182   3.160  -0.274 -0.2986  1.6366  0.7382
  428MOL0     H57736   6.290   3.254  -0.481 -0.9008  2.6617  3.4428
  428MOL0     H57737   6.143   3.199  -0.571 -0.4745  1.0594  0.4342
  428MOL0     H57738   6.269   3.012  -0.590 -0.9577 -2.1012 -0.2179
  428MOL0     H57739   6.187   2.971  -0.432  1.0230 -2.3698 -0.7823
  428MOL0     H57740   6.540   3.171  -0.272  0.3328 -0.1375 -1.4094
  428MOL0     H57741   6.745   3.311  -0.356 -0.6301  2.2615 -1.8440
  428MOL0     H57742   7.125   3.313  -0.549  3.2328 -1.8186 -0.2374
  428MOL0     H57743   7.336   3.404  -0.605 -0.1627  2.0377 -0.3044
  428MOL0     H57744   7.561   3.340  -0.916  1.3760  2.2428 -1.3421
  428MOL0     H57745   7.430   3.362  -1.036  3.1917 -1.3272 -2.6603
  428MOL0     H57746   7.552   3.557  -1.117  2.1118  0.8848  0.0008
  428MOL0     H57747   7.625   3.569  -0.959 -2.6008  1.1951  0.2707
  428MOL0     H57748   7.816   3.487  -1.048  2.9559 -2.6907 -2.6525
  428MOL0     H57749   7.737   3.327  -1.034 -2.9272  0.4919  1.9961
  428MOL0     H57750   7.706   3.523  -1.263 -0.7891 -0.8475 -0.8217
  428MOL0     H57751   7.652   3.359  -1.253 -1.2771  0.7758  1.6561
  428MOL0     H57752   7.834   3.344  -1.379 -1.1334  0.2752  0.1097
  428MOL0     H57753   7.869   3.281  -1.224 -2.6379  2.2316  3.1347
  428MOL0     H57754   7.978   3.527  -1.172 -2.8641  2.8670 -0.9471
  428MOL0     H57755   8.065   3.408  -1.268  1.7209  2.1405 -2.3001
  428MOL0     H57756   7.900   3.644  -1.370 -1.8334 -1.2736 -2.2368
  428MOL0     H57757   7.970   3.520  -1.481 -4.4357 -0.8738  1.0816
  428MOL0     H57758   8.125   3.666  -1.258  0.7857 -0.2024 -0.6561
  428MOL0     H57759   8.201   3.574  -1.394  2.0475  1.4683  1.1775
  428MOL0     H57760   7.208   3.394  -1.022 -2.2832  3.4771  0.0224
  428MOL0     H57761   6.994   3.312  -0.954 -0.6849  0.4398  0.6899
  428MOL0     H57762   6.680   3.142  -0.750  0.8627  2.0361 -0.0630
  428MOL0     H57763   6.467   3.047  -0.673 -1.9028 -0.6098  2.2513
  428MOL0     H57764   4.718   3.268   0.421  1.8694 -1.3081 -0.6293
  428MOL0     H57765   4.549   3.112   0.428  1.4838  0.2946  0.8560
  428MOL0     H57766   4.198   2.989   0.113 -2.5220  0.8736  0.5111
  428MOL0     H57767   3.960   2.931   0.134  1.1472  2.4975  0.5491
  428MOL0     H57768   3.778   2.900   0.222  1.5089 -0.9809 -1.6260
  428MOL0     H57769   3.745   2.806   0.377  2.3290  1.6600  0.7716
  428MOL0     H57770   3.664   2.727   0.093  2.7017  1.7766  0.8253
  428MOL0     H57771   3.564   2.823   0.199 -1.0781 -0.7043 -3.6934
  428MOL0     H57772   3.634   2.534   0.259  0.9857  0.0945 -1.2478
  428MOL0     H57773   3.497   2.588   0.166 -1.7319  0.6774  0.9456
  428MOL0     H57774   3.537   2.709   0.438 -0.3633 -1.4296  1.5976
  428MOL0     H57775   3.399   2.730   0.325  0.0128  0.7496 -0.2552
  428MOL0     H57776   3.280   2.366   0.474  0.5168  0.4410  1.6694
  428MOL0     H57777   4.070   2.601   0.374 -1.1603  0.7204  2.9565
  428MOL0     H57778   4.399   2.611   0.334 -0.4494 -0.2023  1.1328
  428MOL0     H57779   4.390   2.695   0.484  2.3724  3.4729 -4.5202
  428MOL0     H57780   4.276   2.563   0.460 -1.0679  1.7397  0.3919
  429MOL0     O57781   3.195   7.770   9.040  0.2514  0.2298  0.4044
  429MOL0     C57782   3.128   7.698   8.974  0.0099  0.4310 -0.2400
  429MOL0     O57783   3.176   7.605   8.886 -0.3972 -0.4965  0.0793
  429MOL0     C57784   3.305   7.612   8.845 -0.2899  0.8897 -0.0726
  429MOL0     C57785   3.401   7.511   8.874 -0.2114  0.0077  0.1296
  429MOL0     C57786   3.521   7.518   8.813 -0.0891  0.6848  0.1952
  429MOL0     C57787   3.560   7.621   8.730  0.4223 -0.0167  0.3650
  429MOL0     O57788   3.686   7.635   8.680 -0.1749 -0.3550 -0.0752
  429MOL0     C57789   3.785   7.535   8.715  1.0347  0.4550 -0.3300
  429MOL0     C57790   3.891   7.542   8.603 -0.4944  0.9060 -0.9774
  429MOL0     C57791   3.845   7.469   8.485 -0.3371 -1.0355 -0.5150
  429MOL0     C57792   3.947   7.475   8.378 -0.0061 -0.0685 -1.0046
  429MOL0     C57793   3.897   7.392   8.263  0.6846  0.0504  0.6119
  429MOL0     C57794   3.992   7.402   8.133  0.5189 -0.1780  0.2690
  429MOL0     C57795   4.141   7.387   8.168 -1.1112  0.2275  0.1021
  429MOL0     C57796   4.222   7.394   8.043  0.6111  0.9901 -0.5790
  429MOL0     N57797   4.361   7.368   8.069 -0.3118 -0.6087  0.4047
  429MOL0     C57798   4.456   7.455   8.078 -0.2125 -0.3151  0.9151
  429MOL0     C57799   4.568   7.380   8.092  0.1548 -0.4397  0.3018
  429MOL0     C57800   4.698   7.440   8.145  0.2118  0.1207  0.1559
  429MOL0     C57801   4.807   7.451   8.036  0.4943 -0.4812  0.8185
  429MOL0     C57802   4.897   7.327   8.033 -0.0750  0.4367  0.4638
  429MOL0     C57803   4.838   7.215   7.950 -0.9267  0.3151 -1.5172
  429MOL0     O57804   4.893   7.094   8.002 -0.2952  0.1358 -0.5676
  429MOL0     C57805   5.012   7.042   7.957 -0.5766 -0.5299  0.7568
  429MOL0     C57806   5.054   6.915   8.003  0.3093  0.2043  0.1742
  429MOL0     C57807   5.178   6.857   7.978 -0.0541  0.5266  0.8842
  429MOL0     C57808   5.270   6.913   7.896 -0.0671  0.0913 -0.2441
  429MOL0     C57809   5.393   6.848   7.864 -0.9751  0.8740  0.2049
  429MOL0     O57810   5.502   6.928   7.835 -0.3333  0.3470 -0.4939
  429MOL0     C57811   5.599   6.869   7.757 -0.7871  0.4140  0.2676
  429MOL0     C57812   5.638   6.927   7.633  0.3228 -0.4923  0.1154
  429MOL0     C57813   5.707   6.851   7.549  0.1239 -0.2662 -0.0951
  429MOL0     C57814   5.781   6.731   7.585  0.7823  0.0116  0.1239
  429MOL0     O57815   5.864   6.655   7.507  0.2895 -0.7559  0.8514
  429MOL0     C57816   5.900   6.699   7.373  0.1943  0.2851 -0.0258
  429MOL0     C57817   5.951   6.573   7.300  0.1131  0.6188  0.1415
  429MOL0     C57818   6.046   6.621   7.186  0.8131  0.9158 -0.1520
  429MOL0     C57819   6.077   6.511   7.092 -0.5372 -0.5640  0.1854
  429MOL0     C57820   6.170   6.553   6.972 -0.4963  0.6283  0.1600
  429MOL0     C57821   6.314   6.572   6.997  0.0811 -0.0581 -0.1612
  429MOL0     C57822   6.389   6.550   6.863 -0.6301  0.0979  0.1971
  429MOL0     C57823   6.546   6.557   6.890  0.3557 -0.1092  0.1908
  429MOL0    Cl57824   6.593   6.390   6.955  0.3142 -0.0381 -0.0476
  429MOL0     C57825   5.769   6.693   7.717  0.8829  0.1156  0.2417
  429MOL0     C57826   5.672   6.756   7.798 -0.4233 -0.6010  0.1760
  429MOL0     O57827   5.394   6.726   7.862  0.0752  0.0142 -0.3660
  429MOL0     C57828   5.230   7.039   7.836  0.2158  0.7207 -0.4886
  429MOL0     C57829   5.107   7.099   7.869  0.1607  0.1210  0.1439
  429MOL0     N57830   4.530   7.246   8.071  0.5297  0.8294 -1.3818
  429MOL0     N57831   4.403   7.243   8.060 -0.4159 -0.2236 -0.2514
  429MOL0     C57832   3.467   7.715   8.690 -0.3656  0.5931  0.7046
  429MOL0     C57833   3.342   7.708   8.753  0.2550 -0.0334  0.2321
  429MOL0     C57834   2.977   7.686   8.984 -0.2949 -0.6533 -0.1530
  429MOL0     C57835   2.900   7.632   8.877  0.0896  0.5563 -0.4595
  429MOL0     C57836   2.761   7.615   8.885 -0.4733  0.3360  0.7321
  429MOL0     C57837   2.694   7.659   9.001  0.0856  0.0877  0.6776
  429MOL0     O57838   2.556   7.648   9.005 -1.0117  0.6686 -0.4796
  429MOL0     C57839   2.494   7.718   9.120  0.4115 -0.0272 -0.5087
  429MOL0     C57840   2.344   7.722   9.104  0.5949  0.5126  0.4278
  429MOL0     C57841   2.276   7.771   9.224  0.9283 -0.5970 -0.5938
  429MOL0     C57842   2.131   7.815   9.197 -0.2773  0.0268 -0.0426
  429MOL0     C57843   2.054   7.696   9.159  0.3189 -0.4130 -0.5575
  429MOL0     C57844   2.002   7.584   9.140  0.6385 -0.1476  0.6586
  429MOL0     C57845   2.772   7.694   9.108  0.6306 -0.1233 -0.0875
  429MOL0     C57846   2.907   7.710   9.101  0.0218 -0.1173 -0.8256
  429MOL0     C57847   2.976   7.732   9.230  1.0078 -0.7774  0.2519
  429MOL0     H57848   3.397   7.434   8.950  3.3441  1.9236  2.5058
  429MOL0     H57849   3.584   7.440   8.855 -1.1062  0.3835  1.2061
  429MOL0     H57850   3.823   7.553   8.816 -2.5534 -2.0672  1.6975
  429MOL0     H57851   3.736   7.437   8.714  0.4018  0.6525  2.4592
  429MOL0     H57852   3.977   7.490   8.647 -3.0890 -1.5710  1.6074
  429MOL0     H57853   3.904   7.648   8.580 -0.2116  1.0949  0.0342
  429MOL0     H57854   3.758   7.524   8.448  2.0860  2.6566 -1.1747
  429MOL0     H57855   3.813   7.365   8.501 -1.8733 -0.4031  0.7338
  429MOL0     H57856   3.976   7.576   8.347  0.3592  0.3024  0.4708
  429MOL0     H57857   4.042   7.441   8.419 -0.8393  0.2573  1.3923
  429MOL0     H57858   3.887   7.292   8.305  2.1272 -0.5046 -0.2585
  429MOL0     H57859   3.805   7.446   8.238  0.1941 -1.4261 -0.9565
  429MOL0     H57860   3.968   7.328   8.056 -1.6287  1.5879 -0.8463
  429MOL0     H57861   3.975   7.503   8.094 -0.9216 -1.1099 -1.6645
  429MOL0     H57862   4.149   7.283   8.201 -2.5257  0.5594  1.6470
  429MOL0     H57863   4.176   7.463   8.239 -0.9200  1.1875 -0.9776
  429MOL0     H57864   4.182   7.326   7.968  2.8818 -0.2278 -0.7652
  429MOL0     H57865   4.218   7.494   7.998 -0.1806  0.7426 -1.0927
  429MOL0     H57866   4.436   7.562   8.070  2.2504  0.0780 -1.6810
  429MOL0     H57867   4.681   7.544   8.173 -1.5462 -0.2503  0.5527
  429MOL0     H57868   4.739   7.383   8.230 -1.4445  0.3429  1.1454
  429MOL0     H57869   4.763   7.481   7.940  2.2170  2.1302  0.7491
  429MOL0     H57870   4.874   7.534   8.061  2.1208 -1.4922 -0.0015
  429MOL0     H57871   4.917   7.290   8.134 -1.7700 -2.1105 -0.0529
  429MOL0     H57872   4.991   7.348   7.982  0.0287 -3.2070 -1.1274
  429MOL0     H57873   4.872   7.226   7.847  4.4343  3.4715  0.2081
  429MOL0     H57874   4.730   7.201   7.963 -0.2083 -4.8746  1.8980
  429MOL0     H57875   4.982   6.859   8.061  1.6555 -1.2603  0.5219
  429MOL0     H57876   5.205   6.758   8.013 -0.5721 -1.4235 -3.6150
  429MOL0     H57877   5.603   7.024   7.599 -1.2402 -1.4958 -1.3200
  429MOL0     H57878   5.715   6.892   7.449  1.7680 -0.3146 -0.0000
  429MOL0     H57879   5.827   6.742   7.305  0.7519 -0.0254 -0.8387
  429MOL0     H57880   5.989   6.761   7.391  1.2810 -0.6689 -1.8232
  429MOL0     H57881   5.991   6.487   7.353 -1.1287 -3.0139 -4.1691
  429MOL0     H57882   5.862   6.521   7.262  2.3017 -3.2252 -0.2124
  429MOL0     H57883   5.991   6.701   7.135  1.8527 -0.0021 -2.8823
  429MOL0     H57884   6.136   6.661   7.234  0.3665  1.2313  0.4360
  429MOL0     H57885   5.980   6.482   7.050  0.0999 -1.0656 -0.9640
  429MOL0     H57886   6.116   6.420   7.139 -1.7895 -2.1301 -1.6204
  429MOL0     H57887   6.135   6.643   6.920  0.0270  0.1450 -1.0613
  429MOL0     H57888   6.151   6.478   6.895  1.0484  0.4950 -0.1206
  429MOL0     H57889   6.340   6.670   7.037  4.8401 -1.8139  1.6933
  429MOL0     H57890   6.349   6.494   7.064  1.1881 -1.4419 -2.2623
  429MOL0     H57891   6.358   6.626   6.791 -2.8193  0.0297  0.9925
  429MOL0     H57892   6.365   6.452   6.821 -1.8310  0.0856  0.8672
  429MOL0     H57893   6.609   6.582   6.805 -1.5521 -1.7643 -1.8237
  429MOL0     H57894   6.571   6.633   6.965 -2.7073  3.1430 -1.7474
  429MOL0     H57895   5.829   6.615   7.762  0.2908 -1.5096 -1.6672
  429MOL0     H57896   5.634   6.720   7.893  0.7810 -2.5580 -0.0370
  429MOL0     H57897   5.302   7.076   7.764  0.9583  0.7282  0.2495
  429MOL0     H57898   5.090   7.186   7.805 -0.5775  0.1796  0.4093
  429MOL0     H57899   3.490   7.809   8.641 -0.7031  1.7520  2.6392
  429MOL0     H57900   3.276   7.788   8.722 -2.1211 -2.6459 -1.9574
  429MOL0     H57901   2.946   7.607   8.782  2.7285 -1.1292  1.1363
  429MOL0     H57902   2.704   7.577   8.802  0.4317  1.4764 -0.4614
  429MOL0     H57903   2.526   7.823   9.114 -0.1989  0.1272 -1.2374
  429MOL0     H57904   2.526   7.677   9.215  1.9872  0.9923 -0.5644
  429MOL0     H57905   2.311   7.618   9.100 -0.7843  0.9438 -0.2860
  429MOL0     H57906   2.318   7.771   9.009  0.0632 -0.9474 -0.2062
  429MOL0     H57907   2.324   7.866   9.250 -0.5569  0.1093 -0.3547
  429MOL0     H57908   2.285   7.702   9.308  2.8298  2.9155  2.3304
  429MOL0     H57909   2.086   7.868   9.281 -1.7366 -0.0522 -0.7402
  429MOL0     H57910   2.128   7.878   9.108  2.2511 -1.4695 -1.3028
  429MOL0     H57911   1.972   7.481   9.134  0.4952 -0.0635 -0.0448
  429MOL0     H57912   2.738   7.742   9.200  5.0426  0.1747  1.6238
  429MOL0     H57913   3.031   7.642   9.259 -0.8900 -1.5138  1.7603
  429MOL0     H57914   3.051   7.812   9.227 -0.2273  0.5747  2.5410
  429MOL0     H57915   2.902   7.754   9.307  0.8175 -1.0420  0.1424
  430MOL0     O57916   5.028   4.732   6.651 -0.0914 -0.8311 -0.5927
  430MOL0     C57917   5.008   4.854   6.646  0.0193  0.4912  0.9146
  430MOL0     O57918   5.057   4.942   6.733 -0.3853 -0.4751 -0.7737
  430MOL0     C57919   5.162   4.902   6.807 -0.2135  0.2354  0.1283
  430MOL0     C57920   5.157   4.934   6.944  0.1783  0.2451  0.1545
  430MOL0     C57921   5.269   4.904   7.029  0.4062 -0.0413  0.1537
  430MOL0     C57922   5.388   4.866   6.978 -0.1509 -0.6661 -0.2202
  430MOL0     O57923   5.497   4.860   7.061  0.4402  0.7045  0.1312
  430MOL0     C57924   5.601   4.957   7.036 -0.5933  0.4248  0.2458
  430MOL0     C57925   5.678   4.969   7.168  0.4482 -0.7382 -0.1113
  430MOL0     C57926   5.768   4.855   7.197 -0.7261  0.9217  0.3062
  430MOL0     C57927   5.891   4.863   7.101  0.5531  0.9567  1.0876
  430MOL0     C57928   5.974   4.736   7.128 -0.5675 -0.5833  0.4387
  430MOL0     C57929   6.085   4.727   7.018 -0.1296  0.3279 -0.4819
  430MOL0     C57930   6.156   4.596   6.989 -0.7534  0.2201  0.7080
  430MOL0     C57931   6.069   4.516   6.884 -0.4717  0.1580 -0.3778
  430MOL0     N57932   6.114   4.377   6.870 -0.0932  0.5590 -0.5865
  430MOL0     C57933   6.118   4.314   6.747 -0.2450  0.2654  0.0261
  430MOL0     C57934   6.171   4.195   6.786  1.1008 -0.9809  0.3805
  430MOL0     C57935   6.201   4.086   6.691 -1.0209  0.1426 -0.3758
  430MOL0     C57936   6.317   4.115   6.598 -0.1569  0.7344  0.6099
  430MOL0     C57937   6.375   3.987   6.542 -0.0967  0.8750  0.6535
  430MOL0     C57938   6.497   3.951   6.633  0.5287  0.6522  0.1318
  430MOL0     O57939   6.600   4.049   6.625 -0.4154 -0.0308  0.6140
  430MOL0     C57940   6.731   4.027   6.665  0.5431 -0.5308  0.1498
  430MOL0     C57941   6.828   4.129   6.649  0.3892  0.2699  0.4532
  430MOL0     C57942   6.960   4.108   6.699 -0.9941  0.7808  0.4072
  430MOL0     C57943   6.983   4.002   6.788 -0.8809 -0.1549  0.7976
  430MOL0     C57944   7.118   3.979   6.840 -0.4870  0.5790 -0.1988
  430MOL0     O57945   7.212   4.068   6.803 -0.6003 -0.2456  0.1476
  430MOL0     C57946   7.347   4.053   6.835 -0.1425 -0.0795 -0.1920
  430MOL0     C57947   7.440   4.072   6.730 -0.3250 -0.2714 -0.0328
  430MOL0     C57948   7.575   4.079   6.754 -0.5425 -0.0303 -0.0565
  430MOL0     C57949   7.618   4.054   6.877 -0.0674 -0.6290 -1.0312
  430MOL0     O57950   7.751   4.055   6.919 -0.4207 -0.6686 -0.5241
  430MOL0     C57951   7.846   4.093   6.820 -0.7446 -0.7785  0.2786
  430MOL0     C57952   7.981   4.110   6.880 -0.6675 -0.2577 -0.0278
  430MOL0     C57953   7.974   4.227   6.976 -0.8592 -0.0945 -0.1805
  430MOL0     C57954   8.109   4.290   7.007  0.1307  0.0199  0.1209
  430MOL0     C57955   8.110   4.402   7.115 -0.6740  0.3339 -0.1070
  430MOL0     C57956   8.087   4.360   7.265  0.5377 -0.3297  0.6610
  430MOL0     C57957   8.145   4.470   7.349 -0.5920 -0.3409 -0.1034
  430MOL0     C57958   8.167   4.409   7.480 -0.0209 -0.1753  0.1058
  430MOL0    Cl57959   8.302   4.300   7.485  0.0396  0.4807  0.1731
  430MOL0     C57960   7.534   4.033   6.985  0.5386 -0.5237  0.4840
  430MOL0     C57961   7.394   4.028   6.962  0.1444  0.7425 -0.0691
  430MOL0     O57962   7.138   3.887   6.922  0.4861 -0.4492 -0.2689
  430MOL0     C57963   6.884   3.906   6.814 -0.7659 -0.1452 -0.3744
  430MOL0     C57964   6.762   3.914   6.752  0.7938  0.6269 -0.0448
  430MOL0     N57965   6.188   4.179   6.915 -0.2973 -1.2002 -0.1186
  430MOL0     N57966   6.161   4.293   6.973  0.1321 -0.1869  0.2036
  430MOL0     C57967   5.402   4.836   6.841  0.0753  0.5894  0.2296
  430MOL0     C57968   5.286   4.851   6.755 -0.1178 -0.4505  0.0824
  430MOL0     C57969   4.927   4.908   6.528  0.7945 -0.5076  0.8096
  430MOL0     C57970   4.933   5.044   6.496  0.4071 -0.6029 -0.8223
  430MOL0     C57971   4.861   5.103   6.388 -0.4918  0.4491  0.5957
  430MOL0     C57972   4.773   5.033   6.317 -0.5815 -0.3255  0.2231
  430MOL0     O57973   4.709   5.103   6.217 -0.2498 -0.3191  0.5480
  430MOL0     C57974   4.642   5.019   6.125 -0.7124 -0.4606  1.2490
  430MOL0     C57975   4.573   5.106   6.029  0.1294  1.1142  0.3073
  430MOL0     C57976   4.562   5.054   5.891  0.0534 -1.0797 -0.3948
  430MOL0     C57977   4.448   4.951   5.880 -0.8270  0.0511  0.3749
  430MOL0     C57978   4.489   4.817   5.928  0.9764  0.2529 -0.9594
  430MOL0     C57979   4.509   4.706   5.959 -1.1641  0.1110  0.0062
  430MOL0     C57980   4.763   4.902   6.337 -0.1816 -0.0061 -0.4447
  430MOL0     C57981   4.834   4.836   6.447  0.0954  0.5813 -0.2427
  430MOL0     C57982   4.778   4.701   6.486  1.1111 -0.1648  0.2666
  430MOL0     H57983   5.064   4.975   6.982 -0.3910  3.1213 -3.7544
  430MOL0     H57984   5.270   4.922   7.136 -0.8686  0.1355  0.1452
  430MOL0     H57985   5.666   4.920   6.957  2.8126  0.9130  2.5975
  430MOL0     H57986   5.565   5.058   7.013  2.2256  1.3030 -0.7733
  430MOL0     H57987   5.601   4.973   7.247  1.0973  1.1546  0.4976
  430MOL0     H57988   5.724   5.067   7.184  1.4370 -1.1138 -0.5987
  430MOL0     H57989   5.718   4.758   7.187  0.5117  0.4712 -2.9218
  430MOL0     H57990   5.814   4.871   7.295  2.8794  4.7733 -1.7153
  430MOL0     H57991   5.860   4.854   6.996  0.3276 -0.4468  1.2532
  430MOL0     H57992   5.941   4.959   7.116  1.3811  0.4850  1.3795
  430MOL0     H57993   6.041   4.737   7.215  0.9812 -0.1697 -0.7343
  430MOL0     H57994   5.919   4.642   7.119  2.3433 -2.2191 -1.5834
  430MOL0     H57995   6.048   4.757   6.920 -2.3446  0.6391  0.3940
  430MOL0     H57996   6.170   4.791   7.045  2.8334 -3.0980 -0.8976
  430MOL0     H57997   6.173   4.539   7.081  1.4308 -1.8376 -0.8559
  430MOL0     H57998   6.255   4.620   6.950 -1.8286 -1.5552 -3.7324
  430MOL0     H57999   5.965   4.506   6.917 -0.4541 -0.6055 -0.5337
  430MOL0     H58000   6.065   4.567   6.788 -1.0181  0.4176 -0.2196
  430MOL0     H58001   6.090   4.354   6.650 -1.0577  1.3716  0.6860
  430MOL0     H58002   6.226   3.993   6.745 -0.8056  0.4284  0.0213
  430MOL0     H58003   6.121   4.065   6.620  0.4749  0.2521 -2.1844
  430MOL0     H58004   6.281   4.185   6.523 -2.4192 -0.0838  0.8504
  430MOL0     H58005   6.378   4.173   6.668  0.2473  1.1220 -0.0559
  430MOL0     H58006   6.416   3.992   6.441  1.0022  0.8534  1.0914
  430MOL0     H58007   6.305   3.904   6.550  0.6343 -0.2498 -2.7779
  430MOL0     H58008   6.531   3.850   6.608  0.1477  0.3386  0.8722
  430MOL0     H58009   6.469   3.945   6.738  1.8823  1.8933  0.5783
  430MOL0     H58010   6.792   4.214   6.593  1.6666  0.6099  0.1068
  430MOL0     H58011   7.048   4.163   6.669 -1.2444  1.4699  0.8948
  430MOL0     H58012   7.405   4.090   6.629 -1.6767 -2.4303 -0.0220
  430MOL0     H58013   7.638   4.093   6.667  1.0337  1.6621  1.2757
  430MOL0     H58014   7.858   4.017   6.743 -0.6349 -1.0756  0.5863
  430MOL0     H58015   7.825   4.181   6.758  2.8697 -0.5222 -0.8258
  430MOL0     H58016   8.007   4.022   6.939 -0.9677  0.0006  0.4959
  430MOL0     H58017   8.053   4.107   6.798 -0.9337 -3.1665 -0.2548
  430MOL0     H58018   7.907   4.301   6.931 -0.4840  1.1108  1.1557
  430MOL0     H58019   7.914   4.207   7.066 -0.7247  2.5543  0.5766
  430MOL0     H58020   8.141   4.338   6.915 -3.8742 -1.3122 -2.2387
  430MOL0     H58021   8.184   4.215   7.033  0.5920  0.6044  0.4927
  430MOL0     H58022   8.046   4.486   7.085 -0.0652  1.5615  1.8333
  430MOL0     H58023   8.216   4.429   7.114 -1.1987  2.5776 -0.2762
  430MOL0     H58024   7.980   4.348   7.284  0.6138 -0.9507  0.6966
  430MOL0     H58025   8.135   4.264   7.283  0.7503  0.0057  2.0214
  430MOL0     H58026   8.071   4.549   7.364  0.7553  1.9442 -4.0232
  430MOL0     H58027   8.239   4.511   7.310 -2.5892  2.6266 -2.1340
  430MOL0     H58028   8.172   4.489   7.554 -1.8065  0.7107 -0.6907
  430MOL0     H58029   8.076   4.360   7.516  0.5879  0.4362  2.7367
  430MOL0     H58030   7.564   4.014   7.087 -0.4222 -1.1049  0.6744
  430MOL0     H58031   7.323   4.029   7.044 -2.2064  3.7627 -1.9240
  430MOL0     H58032   6.902   3.818   6.874 -1.7741  0.5305  0.9705
  430MOL0     H58033   6.687   3.845   6.790 -0.8123  2.4339  0.2175
  430MOL0     H58034   5.490   4.806   6.785 -1.0279  1.2152 -1.9821
  430MOL0     H58035   5.281   4.805   6.657 -0.7290 -1.0761  0.3974
  430MOL0     H58036   5.005   5.115   6.534 -1.0871  1.2375 -1.2745
  430MOL0     H58037   4.897   5.202   6.363 -1.2173  0.2444 -1.4809
  430MOL0     H58038   4.566   4.956   6.172 -2.3279  0.7684  0.4033
  430MOL0     H58039   4.713   4.959   6.068 -2.4202 -2.5109  1.1468
  430MOL0     H58040   4.625   5.201   6.016  2.3508 -0.3292 -2.6100
  430MOL0     H58041   4.474   5.131   6.069  0.0053 -0.0791  0.8036
  430MOL0     H58042   4.657   5.009   5.860 -0.6315 -2.5623 -0.4234
  430MOL0     H58043   4.543   5.136   5.821  0.8613 -1.2526 -0.8326
  430MOL0     H58044   4.347   4.970   5.919 -1.5416 -1.2964 -0.7238
  430MOL0     H58045   4.432   4.943   5.772  1.2566 -0.2260  0.0619
  430MOL0     H58046   4.536   4.605   5.984  1.4412  0.6988 -0.1463
  430MOL0     H58047   4.701   4.837   6.276 -0.4895  0.9528 -1.1775
  430MOL0     H58048   4.671   4.703   6.463  1.5989 -0.9807 -2.4151
  430MOL0     H58049   4.806   4.618   6.422 -2.3239 -0.1104 -1.5503
  430MOL0     H58050   4.790   4.686   6.594  3.4982 -2.2799 -0.2258
  431MOL0     O58051  10.244   8.476   7.951 -0.1772  0.9572  0.7494
  431MOL0     C58052  10.279   8.542   7.853  0.9791 -0.0609 -0.1445
  431MOL0     O58053  10.347   8.664   7.864  0.5116  0.5309  0.4347
  431MOL0     C58054  10.378   8.716   7.993 -0.7481 -1.1646  0.9362
  431MOL0     C58055  10.300   8.707   8.108  0.4267  0.6363 -0.3637
  431MOL0     C58056  10.342   8.765   8.229  0.4285  0.2863 -0.0879
  431MOL0     C58057  10.470   8.824   8.241 -0.0298  0.2010  0.3107
  431MOL0     O58058  10.529   8.893   8.343  0.1784  0.3121  0.3175
  431MOL0     C58059  10.434   8.929   8.440 -0.0022  0.8565  0.8355
  431MOL0     C58060  10.493   9.029   8.534  0.4095 -0.4793 -0.5583
  431MOL0     C58061  10.386   9.118   8.612 -0.3624  0.1042  0.2360
  431MOL0     C58062  10.387   9.082   8.765  0.0846 -0.3275 -0.5500
  431MOL0     C58063  10.310   9.178   8.849 -0.5126  0.7114 -0.4415
  431MOL0     C58064  10.166   9.136   8.859  0.7887  0.2931  0.4026
  431MOL0     C58065  10.088   9.226   8.963 -0.0474  0.2348 -1.2044
  431MOL0     C58066  10.065   9.370   8.919  0.6498  0.1772 -0.3119
  431MOL0     N58067   9.988   9.362   8.790  0.0955  0.8907 -0.6488
  431MOL0     C58068   9.851   9.344   8.780 -0.4204  0.1237  0.7540
  431MOL0     C58069   9.827   9.365   8.646  0.1132 -0.3631 -0.3710
  431MOL0     C58070   9.691   9.374   8.590  0.2362 -0.1635  0.6637
  431MOL0     C58071   9.637   9.512   8.553 -0.0589  0.3827  0.0661
  431MOL0     C58072   9.511   9.487   8.471  0.0215 -0.0307  0.4305
  431MOL0     C58073   9.442   9.623   8.448 -0.1963 -0.1510  0.2839
  431MOL0     O58074   9.368   9.663   8.563  0.0915 -0.1255 -0.4250
  431MOL0     C58075   9.241   9.617   8.565  0.0100  1.3332  0.5215
  431MOL0     C58076   9.184   9.513   8.489 -0.2519  1.3011 -0.5361
  431MOL0     C58077   9.052   9.471   8.516  0.2244  0.7935 -0.4931
  431MOL0     C58078   8.975   9.519   8.623  0.6913 -1.0992 -0.1095
  431MOL0     C58079   8.837   9.472   8.657 -0.2785 -0.0490 -0.0091
  431MOL0     O58080   8.756   9.553   8.727 -0.5108 -1.4686 -0.6568
  431MOL0     C58081   8.632   9.518   8.772  0.5364  0.1954  0.6672
  431MOL0     C58082   8.573   9.388   8.766 -0.5959  0.8120 -0.0981
  431MOL0     C58083   8.443   9.369   8.792 -1.6011  0.6312  0.1432
  431MOL0     C58084   8.362   9.469   8.845  0.5183 -0.9674  0.1330
  431MOL0     O58085   8.230   9.462   8.894  0.3230 -0.1472 -0.6692
  431MOL0     C58086   8.156   9.347   8.846  0.1382 -0.0183 -0.4857
  431MOL0     C58087   8.007   9.345   8.902 -0.5931  0.6732 -1.0226
  431MOL0     C58088   7.913   9.263   8.811 -0.6301  0.0747 -0.4103
  431MOL0     C58089   7.762   9.298   8.840  0.0205  0.1206 -0.5063
  431MOL0     C58090   7.672   9.208   8.746  1.2023 -0.8331  0.1972
  431MOL0     C58091   7.524   9.217   8.769  0.8118 -0.4567 -0.0438
  431MOL0     C58092   7.450   9.161   8.650  1.2015 -0.3586  0.1454
  431MOL0     C58093   7.434   9.012   8.677  0.9126 -0.3092 -0.3912
  431MOL0    Cl58094   7.316   8.940   8.568  0.1184  0.3080  0.1889
  431MOL0     C58095   8.418   9.595   8.857 -0.2245  0.1824  1.0096
  431MOL0     C58096   8.552   9.622   8.827  0.2938  0.3541 -1.0395
  431MOL0     O58097   8.817   9.354   8.629 -0.6226 -1.1786 -0.1923
  431MOL0     C58098   9.046   9.611   8.709  0.8777 -0.6537  0.5351
  431MOL0     C58099   9.175   9.654   8.685  0.6368 -0.0424 -0.1651
  431MOL0     N58100   9.944   9.381   8.575  0.8058 -0.1736 -0.3677
  431MOL0     N58101  10.037   9.395   8.666 -0.3757  0.1496  0.4417
  431MOL0     C58102  10.551   8.828   8.122  0.3724  0.5709 -0.3486
  431MOL0     C58103  10.499   8.781   7.999  0.4801 -0.0987 -0.7403
  431MOL0     C58104  10.243   8.503   7.713  0.7446  0.5140 -0.2013
  431MOL0     C58105  10.317   8.563   7.612  0.4569  0.1074  0.0508
  431MOL0     C58106  10.284   8.538   7.477  0.3949  0.8445  0.6250
  431MOL0     C58107  10.172   8.451   7.442 -0.1216  0.0119  0.0164
  431MOL0     O58108  10.145   8.436   7.312 -0.0039  0.0961  0.1634
  431MOL0     C58109  10.178   8.311   7.244 -0.4378  0.5549  0.2484
  431MOL0     C58110  10.327   8.302   7.197  0.0294  0.7038 -0.0237
  431MOL0     C58111  10.343   8.411   7.092  0.4867  0.3049  0.3537
  431MOL0     C58112  10.486   8.464   7.054 -0.4713 -0.8563 -0.9233
  431MOL0     C58113  10.550   8.359   6.962  0.0063 -0.6981 -0.0271
  431MOL0     C58114  10.597   8.263   6.901 -0.1210 -1.3081 -0.4261
  431MOL0     C58115  10.108   8.394   7.543 -0.3137  0.5045  0.8010
  431MOL0     C58116  10.126   8.423   7.677 -0.6794  0.0296  0.9427
  431MOL0     C58117  10.019   8.375   7.774 -0.2798  0.0983 -0.7914
  431MOL0     H58118  10.203   8.658   8.107  0.4602  0.4620  1.7205
  431MOL0     H58119  10.280   8.757   8.317 -0.5123 -0.3516 -0.7855
  431MOL0     H58120  10.342   8.964   8.393  0.2500  0.1691 -0.1926
  431MOL0     H58121  10.414   8.829   8.479 -0.6909  1.0693  1.0463
  431MOL0     H58122  10.552   9.101   8.476 -0.7841  0.8864 -0.1218
  431MOL0     H58123  10.567   8.980   8.598  2.1876  1.2467 -1.1960
  431MOL0     H58124  10.287   9.109   8.567  0.0388 -0.7372 -0.5048
  431MOL0     H58125  10.422   9.221   8.618 -1.0254  0.2792  3.3014
  431MOL0     H58126  10.357   8.978   8.782 -2.0623 -0.0268 -2.1084
  431MOL0     H58127  10.494   9.087   8.787  0.1241  1.2417 -0.9515
  431MOL0     H58128  10.356   9.180   8.948  2.4931  1.1955 -1.7500
  431MOL0     H58129  10.312   9.279   8.807  2.4192  0.4597 -1.0979
  431MOL0     H58130  10.118   9.157   8.763  4.6229  3.1908 -1.1069
  431MOL0     H58131  10.166   9.032   8.895 -0.6550 -1.0964 -3.1760
  431MOL0     H58132  10.146   9.241   9.054 -1.8402 -0.2022  0.0570
  431MOL0     H58133   9.994   9.192   9.006  0.0324  2.4833  0.9144
  431MOL0     H58134  10.009   9.413   9.002 -0.8280 -0.4744 -0.9347
  431MOL0     H58135  10.158   9.423   8.895  1.2001 -1.6141 -2.4485
  431MOL0     H58136   9.777   9.356   8.858 -1.5888  1.3124 -0.4775
  431MOL0     H58137   9.696   9.308   8.502  1.4097 -1.4964  1.6793
  431MOL0     H58138   9.627   9.325   8.665  0.0048  0.8283  1.1282
  431MOL0     H58139   9.614   9.562   8.647  2.1376 -3.6445  3.0475
  431MOL0     H58140   9.714   9.568   8.500  0.3944 -3.2334 -3.6053
  431MOL0     H58141   9.441   9.419   8.519  0.0937 -0.7233 -0.4168
  431MOL0     H58142   9.539   9.434   8.379 -1.8385 -2.2684  1.0716
  431MOL0     H58143   9.386   9.616   8.355 -0.8918  2.5952  0.4303
  431MOL0     H58144   9.518   9.698   8.424  1.6448 -1.2404  2.2761
  431MOL0     H58145   9.231   9.462   8.405  0.9809 -0.2771  1.0246
  431MOL0     H58146   9.001   9.395   8.457 -0.8070 -0.0296  1.3875
  431MOL0     H58147   8.630   9.305   8.726 -1.9546  0.5220 -1.5380
  431MOL0     H58148   8.408   9.268   8.773  4.0092 -1.3083 -1.9323
  431MOL0     H58149   8.156   9.356   8.737  1.2933  2.5935 -0.3528
  431MOL0     H58150   8.205   9.250   8.864 -1.4435 -1.4995 -3.4508
  431MOL0     H58151   8.025   9.303   9.001 -2.3317  1.8787 -0.1274
  431MOL0     H58152   7.963   9.444   8.918 -0.2286  0.6660  0.0655
  431MOL0     H58153   7.938   9.273   8.705  1.0728  4.5764  0.1751
  431MOL0     H58154   7.921   9.158   8.841  1.0227  0.4234  0.4944
  431MOL0     H58155   7.735   9.403   8.829 -0.9453 -0.1775 -1.0710
  431MOL0     H58156   7.736   9.259   8.939 -0.3926  0.4585 -0.4792
  431MOL0     H58157   7.682   9.101   8.763 -0.1714 -0.9579  0.3764
  431MOL0     H58158   7.705   9.231   8.645  0.5493  0.8475  0.3308
  431MOL0     H58159   7.477   9.176   8.858  0.0853  1.0430  0.2973
  431MOL0     H58160   7.503   9.325   8.765 -0.8518 -0.6006  2.5811
  431MOL0     H58161   7.499   9.183   8.554 -0.1002  0.4375 -0.3714
  431MOL0     H58162   7.353   9.211   8.639  0.9507 -0.6942  0.8048
  431MOL0     H58163   7.532   8.965   8.662  1.4853  0.2686  1.2380
  431MOL0     H58164   7.404   8.997   8.781 -0.7129  2.0518 -0.4606
  431MOL0     H58165   8.361   9.684   8.882 -0.1641 -0.0098  1.8497
  431MOL0     H58166   8.587   9.724   8.838  2.2040 -0.4453  0.9471
  431MOL0     H58167   8.987   9.645   8.793 -1.3940 -0.0291 -1.2074
  431MOL0     H58168   9.214   9.733   8.750  0.4545 -0.1858  0.1229
  431MOL0     H58169  10.652   8.864   8.139 -0.2442  0.8644  3.5085
  431MOL0     H58170  10.553   8.788   7.905 -0.2511  1.5255 -1.0830
  431MOL0     H58171  10.405   8.621   7.641 -1.2705  1.5331  2.9182
  431MOL0     H58172  10.346   8.577   7.396  2.2031 -1.2064  0.9448
  431MOL0     H58173  10.109   8.298   7.160 -0.7735 -0.5940  0.6798
  431MOL0     H58174  10.146   8.232   7.313 -3.3057  1.5685  0.2061
  431MOL0     H58175  10.340   8.205   7.149 -1.0368  2.3225 -3.9563
  431MOL0     H58176  10.397   8.308   7.281  0.9356  0.7901 -0.7645
  431MOL0     H58177  10.287   8.497   7.130 -0.4884 -1.1386  2.4023
  431MOL0     H58178  10.296   8.385   6.997 -0.0501  1.9501  0.1391
  431MOL0     H58179  10.487   8.566   7.014 -0.0775  1.3975  4.0457
  431MOL0     H58180  10.556   8.480   7.137 -2.4777  2.3490  0.3677
  431MOL0     H58181  10.620   8.179   6.839  0.2013 -0.7366 -1.0981
  431MOL0     H58182  10.026   8.325   7.522 -2.2740  1.8483  3.4531
  431MOL0     H58183   9.990   8.468   7.824  3.1362  0.4582  0.7745
  431MOL0     H58184   9.939   8.320   7.723  1.1895 -0.9392 -2.0598
  431MOL0     H58185  10.052   8.312   7.857 -0.8485  0.9364  0.1009
  432MOL0     O58186   6.632   1.281   7.118 -0.8433 -0.2600 -0.4467
  432MOL0     C58187   6.669   1.190   7.050  0.0287  0.6999  0.2537
  432MOL0     O58188   6.614   1.147   6.933 -0.4172 -0.2901  0.0404
  432MOL0     C58189   6.486   1.191   6.907 -0.0879 -0.0230  0.5792
  432MOL0     C58190   6.465   1.261   6.787 -0.1374  0.4749  1.0566
  432MOL0     C58191   6.335   1.296   6.741 -0.4536  0.3254 -0.1290
  432MOL0     C58192   6.229   1.288   6.831  0.1917  0.5416 -0.5685
  432MOL0     O58193   6.113   1.343   6.791  0.1775  0.0831 -0.4205
  432MOL0     C58194   6.057   1.451   6.873  0.1718  0.0629 -0.3396
  432MOL0     C58195   6.037   1.565   6.779 -0.1380  0.8814 -0.4479
  432MOL0     C58196   6.047   1.702   6.847 -0.1253 -0.6138  0.1860
  432MOL0     C58197   5.937   1.729   6.947  0.0699 -0.2373  0.7074
  432MOL0     C58198   5.960   1.691   7.098  0.1347  0.4536 -0.1185
  432MOL0     C58199   6.007   1.810   7.183  0.4986  0.6177 -1.0639
  432MOL0     C58200   6.019   1.792   7.336 -0.9196  0.3958 -0.1408
  432MOL0     C58201   6.118   1.893   7.413  0.6357  0.6161  0.4727
  432MOL0     N58202   6.069   2.039   7.388 -0.4559  0.8596  0.1748
  432MOL0     C58203   6.051   2.108   7.265 -0.5575 -1.0105 -0.1606
  432MOL0     C58204   6.022   2.242   7.308 -0.3306 -0.2524  0.0308
  432MOL0     C58205   6.011   2.354   7.202  0.2370  0.6029  0.4542
  432MOL0     C58206   5.973   2.497   7.251  0.5500  0.4558  0.0438
  432MOL0     C58207   6.055   2.565   7.366  0.2826 -0.1315 -0.2263
  432MOL0     C58208   5.996   2.709   7.405  0.3388  0.0653  0.6879
  432MOL0     O58209   5.938   2.776   7.294  0.5255  0.5390  0.1687
  432MOL0     C58210   5.872   2.893   7.313 -0.9256 -0.3507  0.4479
  432MOL0     C58211   5.821   2.942   7.190  0.8214  0.2877  0.4952
  432MOL0     C58212   5.767   3.072   7.187 -0.3492  0.2117 -1.0987
  432MOL0     C58213   5.773   3.153   7.304 -0.1623  0.4859  0.4131
  432MOL0     C58214   5.696   3.288   7.305  0.1579  0.0951  0.3539
  432MOL0     O58215   5.710   3.364   7.411 -0.0796  0.2136 -0.1994
  432MOL0     C58216   5.669   3.499   7.413 -0.1166 -0.9510  0.4480
  432MOL0     C58217   5.692   3.558   7.536 -0.8197  0.2445 -0.2537
  432MOL0     C58218   5.680   3.696   7.568  0.0618 -0.2729 -0.4230
  432MOL0     C58219   5.652   3.786   7.463  0.5616 -0.3411 -0.5751
  432MOL0     O58220   5.640   3.919   7.484 -0.3057  0.0389  0.2257
  432MOL0     C58221   5.539   3.986   7.410  0.7864 -0.0722  1.0417
  432MOL0     C58222   5.400   3.937   7.446  0.2253  0.1842  0.4092
  432MOL0     C58223   5.370   3.981   7.594  0.1290  0.4986  0.2041
  432MOL0     C58224   5.222   3.932   7.637 -0.1507  0.4495  0.0761
  432MOL0     C58225   5.201   3.946   7.783  0.0174 -0.5412 -0.4451
  432MOL0     C58226   5.241   3.826   7.872  0.2622 -0.4692  0.0246
  432MOL0     C58227   5.155   3.700   7.858  0.4122  0.3658  0.2197
  432MOL0     C58228   5.023   3.731   7.897  0.7562 -0.3483  0.3164
  432MOL0    Cl58229   4.916   3.589   7.914 -0.3038  0.2278 -0.1420
  432MOL0     C58230   5.630   3.726   7.337  0.4367  0.0650  0.6444
  432MOL0     C58231   5.636   3.586   7.309  0.1670 -0.0833  1.0566
  432MOL0     O58232   5.631   3.317   7.202 -0.7894  0.9097 -0.9040
  432MOL0     C58233   5.810   3.086   7.426  0.3247 -0.0107  0.7763
  432MOL0     C58234   5.861   2.956   7.429 -0.6188  0.3548  0.0636
  432MOL0     N58235   6.035   2.254   7.441 -0.4342  1.0010  0.3455
  432MOL0     N58236   6.073   2.128   7.485  0.7347 -0.0254  0.3566
  432MOL0     C58237   6.243   1.209   6.949 -0.0234  0.3151  0.1356
  432MOL0     C58238   6.370   1.160   6.986 -0.4946 -0.6332 -0.1203
  432MOL0     C58239   6.793   1.120   7.085 -1.0593 -1.0137  0.2534
  432MOL0     C58240   6.782   1.015   7.168  0.5408 -0.1528  0.8123
  432MOL0     C58241   6.892   0.942   7.217 -0.5951  0.5076 -0.0849
  432MOL0     C58242   7.024   0.980   7.185 -0.2010 -0.4693 -0.5885
  432MOL0     O58243   7.135   0.929   7.236 -0.1292  0.2640  0.3981
  432MOL0     C58244   7.137   0.794   7.275  0.2254  0.4734  0.4070
  432MOL0     C58245   7.282   0.765   7.321  0.2476  0.3660 -0.2187
  432MOL0     C58246   7.286   0.627   7.378 -0.2960 -0.4397  0.4527
  432MOL0     C58247   7.407   0.592   7.473 -0.0759 -0.8309 -0.2234
  432MOL0     C58248   7.517   0.570   7.378 -0.3097  0.8289  0.0339
  432MOL0     C58249   7.602   0.552   7.291  0.0346  0.4200  0.2903
  432MOL0     C58250   7.035   1.083   7.089 -0.2279  0.2865  0.0193
  432MOL0     C58251   6.927   1.156   7.042  0.4126 -0.1357 -0.4076
  432MOL0     C58252   6.954   1.275   6.955  0.7503 -0.8228 -0.7516
  432MOL0     H58253   6.544   1.262   6.713 -1.7282 -0.2350 -0.7446
  432MOL0     H58254   6.313   1.341   6.645 -2.2208 -1.2780 -0.5452
  432MOL0     H58255   5.965   1.427   6.927  0.4034  2.4263  1.2999
  432MOL0     H58256   6.137   1.484   6.940  1.7894  0.0928 -2.2033
  432MOL0     H58257   5.937   1.558   6.736  0.3757 -0.7428 -1.4492
  432MOL0     H58258   6.109   1.556   6.697 -1.4467  0.4965 -1.5822
  432MOL0     H58259   6.030   1.779   6.771 -1.2010  0.1910  1.2068
  432MOL0     H58260   6.141   1.718   6.900  1.2494  0.9552 -2.4802
  432MOL0     H58261   5.916   1.836   6.940  0.0644 -0.3351 -1.3658
  432MOL0     H58262   5.851   1.676   6.907 -1.5666  1.7407  1.3939
  432MOL0     H58263   5.860   1.659   7.128 -2.7477  2.6021 -5.8628
  432MOL0     H58264   6.035   1.613   7.115 -0.5937 -0.1915  0.1467
  432MOL0     H58265   6.107   1.833   7.146  1.2836 -0.5683  0.2377
  432MOL0     H58266   5.936   1.892   7.165 -2.6110 -1.2851  1.4261
  432MOL0     H58267   6.051   1.688   7.351  0.4593  0.7932 -0.2036
  432MOL0     H58268   5.917   1.797   7.376 -0.5554  1.7479  0.6899
  432MOL0     H58269   6.120   1.870   7.520 -0.3281 -2.8874 -0.1500
  432MOL0     H58270   6.219   1.886   7.372 -0.2451  1.6351 -2.0444
  432MOL0     H58271   6.049   2.066   7.165 -0.2032 -0.4506 -0.4089
  432MOL0     H58272   6.102   2.371   7.144 -1.3680  2.0203 -1.8411
  432MOL0     H58273   5.929   2.328   7.134  0.3877 -0.8755  0.8149
  432MOL0     H58274   5.970   2.557   7.159 -1.9254  1.2179  0.5718
  432MOL0     H58275   5.874   2.487   7.296 -0.0080  0.2046 -1.1700
  432MOL0     H58276   6.160   2.576   7.339  0.6575 -0.5147  1.0071
  432MOL0     H58277   6.058   2.504   7.457  4.5014 -0.6681 -0.5310
  432MOL0     H58278   6.078   2.765   7.450 -0.9429  1.8103  0.9561
  432MOL0     H58279   5.916   2.701   7.480 -0.4941  2.7512  0.1887
  432MOL0     H58280   5.821   2.873   7.106 -2.8963 -1.9180  2.0568
  432MOL0     H58281   5.729   3.106   7.091  1.3858  4.9472 -0.3952
  432MOL0     H58282   5.719   3.481   7.608 -1.1300  0.3335 -0.0407
  432MOL0     H58283   5.693   3.744   7.665  2.7588 -0.3575 -0.6719
  432MOL0     H58284   5.520   4.088   7.444 -4.2879  0.6188 -2.6810
  432MOL0     H58285   5.570   3.980   7.306  0.6320 -0.6595  1.0267
  432MOL0     H58286   5.334   3.988   7.374  0.1913 -3.0200 -2.0461
  432MOL0     H58287   5.393   3.831   7.419  0.9207  0.2853 -0.2087
  432MOL0     H58288   5.444   3.937   7.661 -1.1048 -2.1934 -0.0979
  432MOL0     H58289   5.374   4.090   7.600  0.1456  0.5514 -0.6666
  432MOL0     H58290   5.199   3.831   7.602 -0.8746  0.3261  0.8754
  432MOL0     H58291   5.144   3.990   7.587 -0.7873 -0.2891  0.1923
  432MOL0     H58292   5.099   3.981   7.799  0.0078 -1.2499  1.3170
  432MOL0     H58293   5.268   4.025   7.819  0.3524 -0.5076 -1.1164
  432MOL0     H58294   5.345   3.798   7.852 -0.2169 -0.8572 -2.2037
  432MOL0     H58295   5.240   3.857   7.977 -0.5177 -1.5751  0.3662
  432MOL0     H58296   5.198   3.621   7.920  2.0748  0.5471 -0.6336
  432MOL0     H58297   5.158   3.671   7.753 -0.7331 -0.2827  0.3567
  432MOL0     H58298   5.020   3.776   7.996  0.7084 -1.8544  1.0304
  432MOL0     H58299   4.970   3.795   7.825 -2.5056 -0.4010  2.4530
  432MOL0     H58300   5.586   3.786   7.257  0.3689 -1.8840 -0.8491
  432MOL0     H58301   5.610   3.552   7.209 -1.2619 -3.4621  2.4040
  432MOL0     H58302   5.781   3.140   7.516 -0.2059 -2.0471  1.8721
  432MOL0     H58303   5.891   2.909   7.522  1.4647  0.4707 -0.5077
  432MOL0     H58304   6.159   1.179   7.011  0.1281  0.8179  0.5960
  432MOL0     H58305   6.392   1.102   7.075 -0.3692  1.5540  1.3634
  432MOL0     H58306   6.690   0.962   7.189  1.1723 -3.1214 -3.0167
  432MOL0     H58307   6.878   0.847   7.266 -0.1817 -0.1014 -1.1073
  432MOL0     H58308   7.116   0.731   7.189  1.0040 -0.4332  0.8566
  432MOL0     H58309   7.060   0.768   7.348  0.5878 -1.9346  0.0173
  432MOL0     H58310   7.308   0.836   7.400 -3.4590 -0.4161  1.9646
  432MOL0     H58311   7.359   0.775   7.244  0.6650 -0.8362  0.0152
  432MOL0     H58312   7.278   0.563   7.290  0.6463  0.3353 -0.2234
  432MOL0     H58313   7.195   0.610   7.436  0.7673 -2.3293  1.6411
  432MOL0     H58314   7.440   0.657   7.555  0.5810 -2.0067  0.4732
  432MOL0     H58315   7.390   0.492   7.512  3.1826 -0.3660  2.8446
  432MOL0     H58316   7.667   0.539   7.206 -0.1854 -0.2042  0.2146
  432MOL0     H58317   7.135   1.114   7.061 -0.1948 -0.7465 -1.0854
  432MOL0     H58318   6.920   1.254   6.853 -1.3113 -2.0454  0.1401
  432MOL0     H58319   6.917   1.372   6.987  1.2748 -0.3393 -1.5452
  432MOL0     H58320   7.059   1.295   6.929  0.4350 -2.9894 -4.5380
  433MOL0     O58321   4.626   9.876   7.836  0.4709 -0.1668 -0.3524
  433MOL0     C58322   4.576   9.987   7.839  0.0491 -0.6461 -0.6336
  433MOL0     O58323   4.604  10.090   7.755  0.2852  0.0582  0.2931
  433MOL0     C58324   4.692  10.075   7.659 -0.7081 -0.3380  1.5015
  433MOL0     C58325   4.673   9.972   7.563  0.2531  0.2371 -0.7070
  433MOL0     C58326   4.777   9.954   7.459 -0.9437 -0.5971  0.3394
  433MOL0     C58327   4.875  10.045   7.438 -0.5336 -0.4165  0.1906
  433MOL0     O58328   4.957  10.024   7.330 -1.3235  0.1684  0.1505
  433MOL0     C58329   5.056  10.120   7.290  0.4792  0.2462  0.9482
  433MOL0     C58330   5.120  10.094   7.154 -0.5094  0.3014  0.6578
  433MOL0     C58331   5.177   9.953   7.131  0.9770 -0.5764 -0.0043
  433MOL0     C58332   5.240   9.935   6.996 -0.3078 -0.7612 -0.5573
  433MOL0     C58333   5.375  10.002   6.992 -0.4313  0.9902  0.7777
  433MOL0     C58334   5.452   9.951   6.871  0.3020  0.6404 -0.2346
  433MOL0     C58335   5.604   9.991   6.865 -0.0451 -0.8182  0.3560
  433MOL0     C58336   5.622  10.140   6.829 -0.4620 -0.2039  0.4913
  433MOL0     N58337   5.764  10.169   6.799 -0.1120  0.6447 -0.5130
  433MOL0     C58338   5.871  10.151   6.885 -0.0110 -0.5894 -0.1540
  433MOL0     C58339   5.973  10.156   6.801 -0.4594  0.2069  0.2157
  433MOL0     C58340   6.124  10.176   6.827 -1.3817 -0.4643 -1.0984
  433MOL0     C58341   6.188  10.056   6.904  0.0775 -0.3096  0.3239
  433MOL0     C58342   6.302  10.117   6.986  0.5066 -0.2913 -0.0568
  433MOL0     C58343   6.380  10.018   7.091 -0.5371 -0.5893 -0.4143
  433MOL0     O58344   6.374   9.901   7.024  0.4576  0.2236 -0.3798
  433MOL0     C58345   6.487   9.840   6.981 -0.7349 -0.6084 -0.6605
  433MOL0     C58346   6.597   9.818   7.066 -0.1779 -1.0173 -0.1767
  433MOL0     C58347   6.731   9.794   7.010 -0.2662  0.5427 -0.1203
  433MOL0     C58348   6.756   9.786   6.868 -0.2497 -0.3497  0.8049
  433MOL0     C58349   6.893   9.751   6.816 -0.1780  0.5521 -0.3495
  433MOL0     O58350   6.904   9.713   6.681 -0.0142 -0.2031 -0.2559
  433MOL0     C58351   7.031   9.702   6.625  0.4016 -0.4720  0.8850
  433MOL0     C58352   7.044   9.762   6.497  0.8701  0.4254 -0.2049
  433MOL0     C58353   7.162   9.745   6.415  0.7886  0.0025 -0.1377
  433MOL0     C58354   7.264   9.661   6.459  0.3540 -1.6015 -0.3105
  433MOL0     O58355   7.376   9.621   6.391  1.3398  0.6070 -0.1477
  433MOL0     C58356   7.481   9.728   6.379  0.2678 -0.7304 -0.4275
  433MOL0     C58357   7.541   9.710   6.246 -0.7070 -0.2837  0.2270
  433MOL0     C58358   7.675   9.789   6.226 -0.0147  0.6536  0.3832
  433MOL0     C58359   7.795   9.731   6.313 -0.3234 -0.7525  0.2265
  433MOL0     C58360   7.935   9.697   6.246 -0.6461 -0.4574  0.0285
  433MOL0     C58361   8.049   9.663   6.344  0.0622 -0.0021  0.5087
  433MOL0     C58362   8.129   9.790   6.382  0.4932  0.9704  0.0549
  433MOL0     C58363   8.198   9.767   6.519  0.2263  0.3841  0.1530
  433MOL0    Cl58364   8.340   9.660   6.492  0.0018 -0.3077 -0.2719
  433MOL0     C58365   7.254   9.611   6.588  0.2276  0.0256  1.1781
  433MOL0     C58366   7.137   9.629   6.669 -0.1862 -0.0889 -0.4024
  433MOL0     O58367   6.998   9.752   6.891  0.9772 -0.3364  1.5391
  433MOL0     C58368   6.639   9.808   6.785  0.1432 -0.1444  0.6272
  433MOL0     C58369   6.512   9.834   6.840 -0.3989 -0.5229  0.8369
  433MOL0     N58370   5.932  10.154   6.670 -0.3260 -0.0796 -0.7159
  433MOL0     N58371   5.806  10.169   6.674  0.7661  0.8282  0.5011
  433MOL0     C58372   4.884  10.154   7.527 -0.3579 -0.9302 -0.1299
  433MOL0     C58373   4.796  10.171   7.632 -0.0238 -0.6813 -0.3084
  433MOL0     C58374   4.481  10.018   7.954 -0.2217  0.8439  0.2003
  433MOL0     C58375   4.351  10.057   7.916 -0.1685  0.1895 -0.1684
  433MOL0     C58376   4.258  10.092   8.016 -0.0205  0.0491 -0.0768
  433MOL0     C58377   4.297  10.114   8.151  0.2961  1.0150  0.7109
  433MOL0     O58378   4.214  10.147   8.253 -0.2115 -0.0916  0.0480
  433MOL0     C58379   4.102  10.233   8.225  0.2528  0.6683  0.4816
  433MOL0     C58380   4.138  10.385   8.203  0.2840  0.3330 -0.5189
  433MOL0     C58381   4.190  10.416   8.065  0.1900 -0.5553 -0.5016
  433MOL0     C58382   4.343  10.455   8.066 -0.6766  0.0705  0.0997
  433MOL0     C58383   4.392  10.443   7.926 -0.6009  0.4504 -1.0134
  433MOL0     C58384   4.440  10.417   7.819  0.2584  0.1694 -0.2198
  433MOL0     C58385   4.425  10.068   8.184  0.0032  0.3574  0.1319
  433MOL0     C58386   4.521  10.016   8.091 -0.1816 -0.3976  0.1184
  433MOL0     C58387   4.653   9.968   8.155  0.2745  0.2581  0.1098
  433MOL0     H58388   4.602   9.893   7.586  0.7725 -0.3265 -1.0194
  433MOL0     H58389   4.773   9.861   7.404 -2.2275 -2.4979  3.3900
  433MOL0     H58390   4.987  10.204   7.278  0.8860  0.5877  0.9909
  433MOL0     H58391   5.129  10.128   7.371  2.3124 -3.5514 -0.0937
  433MOL0     H58392   5.202  10.166   7.158  0.4885 -0.7088 -0.8240
  433MOL0     H58393   5.058  10.118   7.067  2.0448  0.9046 -1.0929
  433MOL0     H58394   5.114   9.866   7.147  2.2740 -1.2461  1.7902
  433MOL0     H58395   5.255   9.945   7.207 -0.0134  1.3650  1.3155
  433MOL0     H58396   5.253   9.826   6.990 -1.4074 -1.0729  1.5944
  433MOL0     H58397   5.172   9.976   6.921  1.5726  1.6339 -1.0703
  433MOL0     H58398   5.358  10.110   6.987  0.4144  1.1620  1.3340
  433MOL0     H58399   5.431   9.975   7.082 -0.3773  0.1667  0.5006
  433MOL0     H58400   5.449   9.842   6.882  0.1358  0.5407 -1.1864
  433MOL0     H58401   5.409   9.979   6.774  0.6679  1.7057 -0.1052
  433MOL0     H58402   5.648   9.922   6.792 -2.1366 -1.0199 -0.8062
  433MOL0     H58403   5.650   9.977   6.963 -2.6899 -1.2457  1.6210
  433MOL0     H58404   5.560  10.169   6.744  2.9526  2.0613 -1.4168
  433MOL0     H58405   5.597  10.204   6.914  3.8013  4.6901 -1.4309
  433MOL0     H58406   5.882  10.146   6.993 -0.5017 -2.7988 -0.1775
  433MOL0     H58407   6.188  10.196   6.741 -1.9653 -0.8477 -1.6250
  433MOL0     H58408   6.139  10.266   6.887 -2.1994 -1.4242  0.6527
  433MOL0     H58409   6.114  10.007   6.968  1.6505 -1.6956  1.1638
  433MOL0     H58410   6.228   9.985   6.832  0.7568 -0.7166  1.0933
  433MOL0     H58411   6.272  10.199   7.052  0.5932  1.5803 -2.2279
  433MOL0     H58412   6.380  10.162   6.924  0.8417 -1.4963 -0.5451
  433MOL0     H58413   6.313  10.017   7.177 -0.6119  2.0983 -0.3661
  433MOL0     H58414   6.481  10.055   7.112 -0.5778  0.1880 -1.4981
  433MOL0     H58415   6.584   9.839   7.171  1.6214 -2.7259  0.4650
  433MOL0     H58416   6.822   9.767   7.062  0.9641  2.8731 -0.9503
  433MOL0     H58417   6.961   9.824   6.465 -0.8650  0.1994  3.3533
  433MOL0     H58418   7.165   9.786   6.314  1.6867 -0.7980 -0.4580
  433MOL0     H58419   7.434   9.827   6.387 -1.3767 -1.4864 -0.3023
  433MOL0     H58420   7.549   9.713   6.463 -0.3286 -2.5527 -0.2337
  433MOL0     H58421   7.553   9.604   6.221 -1.3008 -0.6950  1.6017
  433MOL0     H58422   7.478   9.755   6.168  0.4545  0.9785 -0.0145
  433MOL0     H58423   7.719   9.778   6.126 -0.6616 -1.2484  0.2640
  433MOL0     H58424   7.657   9.897   6.237  1.5503  0.9002  0.7539
  433MOL0     H58425   7.754   9.641   6.359 -2.5182  0.6019  1.0559
  433MOL0     H58426   7.810   9.804   6.393 -0.2094 -1.1220  0.5405
  433MOL0     H58427   7.966   9.782   6.185 -0.6738  1.0527  2.0001
  433MOL0     H58428   7.917   9.606   6.188 -1.7385  2.0458 -3.9457
  433MOL0     H58429   8.002   9.620   6.433 -0.5427 -1.4857 -0.4789
  433MOL0     H58430   8.112   9.588   6.294 -0.1506  0.3890 -0.3582
  433MOL0     H58431   8.050   9.866   6.383 -1.1029 -0.6095 -0.4824
  433MOL0     H58432   8.200   9.812   6.302 -0.1037 -0.8492 -1.0594
  433MOL0     H58433   8.228   9.856   6.575 -0.8992  1.1435 -0.4268
  433MOL0     H58434   8.123   9.711   6.577 -1.9300  0.7706 -2.0977
  433MOL0     H58435   7.331   9.549   6.633  1.2885  3.3789  4.4678
  433MOL0     H58436   7.130   9.582   6.767  0.8172 -1.9437 -1.1663
  433MOL0     H58437   6.657   9.795   6.678  0.8974 -0.5368  0.7914
  433MOL0     H58438   6.428   9.846   6.772  1.5401  3.0120 -1.2442
  433MOL0     H58439   4.964  10.227   7.516 -3.0220  2.0347 -1.7111
  433MOL0     H58440   4.812  10.246   7.709 -1.8655 -1.4852  0.9504
  433MOL0     H58441   4.320  10.059   7.812  0.2742  0.6167 -0.2930
  433MOL0     H58442   4.160  10.119   7.981  0.6965 -0.0579 -2.3063
  433MOL0     H58443   4.038  10.229   8.313  1.7635  3.1295  1.7901
  433MOL0     H58444   4.035  10.200   8.145 -1.2010  0.5772  1.6863
  433MOL0     H58445   4.208  10.421   8.279 -0.4021 -0.9440  0.7662
  433MOL0     H58446   4.050  10.445   8.228  0.7597  1.2654 -1.0189
  433MOL0     H58447   4.139  10.504   8.025 -1.0217 -1.1259 -0.2507
  433MOL0     H58448   4.165  10.337   7.993  1.2037 -1.9631  0.6494
  433MOL0     H58449   4.353  10.555   8.111 -0.1028 -1.1052  2.8275
  433MOL0     H58450   4.409  10.399   8.134  2.6099  2.4322 -0.8337
  433MOL0     H58451   4.489  10.380   7.731  0.5540  1.8284 -0.8028
  433MOL0     H58452   4.438  10.077   8.291 -3.4136 -1.1891  0.8123
  433MOL0     H58453   4.645   9.862   8.178 -0.1790  0.1403 -0.5785
  433MOL0     H58454   4.742   9.968   8.090  2.3947  3.1223  2.7194
  433MOL0     H58455   4.677  10.040   8.234  0.2216 -1.5009  1.7997
  434MOL0     O58456   4.577   4.020   0.465  0.0867  0.0363 -0.3142
  434MOL0     C58457   4.538   4.114   0.398 -0.1898 -0.0078 -0.2124
  434MOL0     O58458   4.457   4.120   0.280 -0.6121  1.3586  0.4756
  434MOL0     C58459   4.398   3.998   0.239 -0.3497 -1.0138 -0.9455
  434MOL0     C58460   4.348   3.897   0.322 -0.2150  0.4137  0.4721
  434MOL0     C58461   4.285   3.777   0.271  0.1645 -0.5496 -0.0656
  434MOL0     C58462   4.286   3.763   0.129  1.0616 -0.3035 -0.7005
  434MOL0     O58463   4.241   3.652   0.068  0.0230 -0.6886  1.3137
  434MOL0     C58464   4.213   3.529   0.130 -0.5830  0.5640  0.2435
  434MOL0     C58465   4.184   3.417   0.028  0.7834 -0.6347  0.2166
  434MOL0     C58466   4.318   3.361  -0.035  1.4827  0.2897 -0.5783
  434MOL0     C58467   4.272   3.255  -0.138  0.0439  0.5794 -0.0516
  434MOL0     C58468   4.386   3.222  -0.231  0.1359  0.3639 -0.1135
  434MOL0     C58469   4.325   3.121  -0.336  0.1474 -0.3656 -0.3315
  434MOL0     C58470   4.444   3.058  -0.411 -0.1481  0.1005 -0.1294
  434MOL0     C58471   4.487   2.925  -0.344  0.7843 -0.5954  0.7174
  434MOL0     N58472   4.602   2.870  -0.407 -0.4738  1.0352 -0.3996
  434MOL0     C58473   4.659   2.898  -0.533  0.9367  0.6259 -0.5645
  434MOL0     C58474   4.772   2.826  -0.546 -0.1635  0.6303  0.1693
  434MOL0     C58475   4.868   2.841  -0.658 -0.0618  0.6183 -0.4248
  434MOL0     C58476   4.957   2.964  -0.635  0.2391  0.0371  0.3668
  434MOL0     C58477   5.086   2.938  -0.554 -0.4376  0.0249 -0.2655
  434MOL0     C58478   5.182   3.066  -0.533  0.1021 -0.0366 -0.0556
  434MOL0     O58479   5.108   3.148  -0.438  0.1680  1.5151 -0.3793
  434MOL0     C58480   5.163   3.264  -0.384 -0.4956  0.4385  1.0579
  434MOL0     C58481   5.075   3.338  -0.302  0.8373  0.8117 -0.0951
  434MOL0     C58482   5.115   3.458  -0.242  0.3607 -0.3136  0.5758
  434MOL0     C58483   5.254   3.507  -0.273  0.6203 -0.5496 -0.5062
  434MOL0     C58484   5.299   3.648  -0.218  0.7780 -0.0450  0.3302
  434MOL0     O58485   5.248   3.687  -0.095  0.3742 -0.7240 -0.7301
  434MOL0     C58486   5.288   3.796  -0.031  0.4690 -0.7267  1.1939
  434MOL0     C58487   5.417   3.846  -0.025 -0.2049  0.4557 -0.8434
  434MOL0     C58488   5.449   3.957   0.049 -0.4503 -0.2493  0.1029
  434MOL0     C58489   5.350   4.045   0.098 -0.3528 -0.0517 -1.2176
  434MOL0     O58490   5.364   4.165   0.154  0.1567 -0.6626  0.3829
  434MOL0     C58491   5.480   4.240   0.121  0.0814 -0.0805  0.2264
  434MOL0     C58492   5.471   4.376   0.172 -0.4546  0.1186 -0.0769
  434MOL0     C58493   5.356   4.445   0.099  0.1106 -0.5431  0.1738
  434MOL0     C58494   5.389   4.597   0.079  0.4128  0.0985 -0.1639
  434MOL0     C58495   5.274   4.690   0.035 -1.0014 -0.1583 -0.0067
  434MOL0     C58496   5.235   4.668  -0.110 -0.8952 -0.3522  0.0427
  434MOL0     C58497   5.101   4.723  -0.138  0.7878 -0.9816 -0.5571
  434MOL0     C58498   5.054   4.761  -0.275 -0.1898  0.2398  0.2423
  434MOL0    Cl58499   5.159   4.881  -0.368  0.2576  0.0365  0.1441
  434MOL0     C58500   5.216   4.005   0.081  0.6526 -0.5594 -0.2012
  434MOL0     C58501   5.187   3.878   0.019  0.0543  0.7936 -0.0488
  434MOL0     O58502   5.372   3.707  -0.285 -0.2007  0.2096 -0.1048
  434MOL0     C58503   5.326   3.432  -0.357 -0.3997 -0.3114  0.5030
  434MOL0     C58504   5.293   3.309  -0.412  0.6413 -0.2049 -0.1859
  434MOL0     N58505   4.788   2.752  -0.430 -0.0419 -0.1164  0.1477
  434MOL0     N58506   4.688   2.775  -0.353 -0.8089 -0.3714 -0.2568
  434MOL0     C58507   4.336   3.862   0.048  0.5237  0.9218  0.4998
  434MOL0     C58508   4.388   3.978   0.101 -0.4695 -0.7374 -0.6473
  434MOL0     C58509   4.562   4.249   0.454 -0.2128  0.4489  0.1491
  434MOL0     C58510   4.578   4.267   0.591  0.0164  0.4808  0.9059
  434MOL0     C58511   4.578   4.394   0.655  0.5554  0.0324  0.1794
  434MOL0     C58512   4.571   4.509   0.573  0.0579  0.2185  0.0308
  434MOL0     O58513   4.561   4.643   0.608  0.2053  0.4640  0.0757
  434MOL0     C58514   4.573   4.678   0.747  0.5879  0.6002  0.6396
  434MOL0     C58515   4.620   4.819   0.778  0.2180 -0.1073 -0.4432
  434MOL0     C58516   4.494   4.910   0.813 -0.6194  1.1227 -0.3788
  434MOL0     C58517   4.540   5.062   0.793 -0.7669  0.5719  0.9862
  434MOL0     C58518   4.621   5.090   0.914 -1.3050 -0.7359 -0.2908
  434MOL0     C58519   4.676   5.119   1.022 -0.0431 -0.4528 -0.2918
  434MOL0     C58520   4.561   4.490   0.442 -0.5743 -0.1925 -0.0236
  434MOL0     C58521   4.556   4.370   0.373  0.8523 -0.1935 -0.5162
  434MOL0     C58522   4.534   4.385   0.220 -0.1451  0.3882  0.4665
  434MOL0     H58523   4.345   3.911   0.429  1.0195 -1.6515  0.8315
  434MOL0     H58524   4.224   3.717   0.337 -1.8187 -1.2408 -2.3663
  434MOL0     H58525   4.297   3.490   0.188 -1.4033  1.0075  1.8022
  434MOL0     H58526   4.128   3.537   0.199 -1.4789  0.9001 -0.8557
  434MOL0     H58527   4.117   3.460  -0.047  1.9477  1.2377  0.1992
  434MOL0     H58528   4.122   3.339   0.075 -1.4528  0.4842 -0.7486
  434MOL0     H58529   4.382   3.309   0.037 -1.8073 -0.0132  2.3949
  434MOL0     H58530   4.367   3.444  -0.086  0.8859 -0.5449 -2.6140
  434MOL0     H58531   4.242   3.167  -0.081  5.1259 -1.5378 -0.1622
  434MOL0     H58532   4.186   3.294  -0.194 -2.5821 -3.1843  1.0032
  434MOL0     H58533   4.429   3.302  -0.292  0.1451 -0.1268 -0.7604
  434MOL0     H58534   4.471   3.182  -0.175 -0.1123  2.2450  1.7438
  434MOL0     H58535   4.272   3.044  -0.279  0.5750  1.2395  2.4513
  434MOL0     H58536   4.258   3.181  -0.399  2.0433  2.5167  0.2146
  434MOL0     H58537   4.533   3.119  -0.400 -0.4306  0.3590  0.7893
  434MOL0     H58538   4.427   3.047  -0.519 -1.4065  1.9237 -0.1601
  434MOL0     H58539   4.504   2.947  -0.238  1.3080  0.1159  0.4973
  434MOL0     H58540   4.406   2.855  -0.365  0.9960  0.2446 -3.9246
  434MOL0     H58541   4.627   2.966  -0.611 -0.0804  3.2182  1.9213
  434MOL0     H58542   4.917   2.744  -0.666 -0.7720 -0.0695  2.4566
  434MOL0     H58543   4.816   2.860  -0.752  1.1433 -1.3296 -1.5531
  434MOL0     H58544   4.980   2.999  -0.736 -1.3299 -1.8384 -0.7162
  434MOL0     H58545   4.902   3.043  -0.583  1.2508  1.4038 -0.5887
  434MOL0     H58546   5.149   2.865  -0.606 -0.0417 -0.0047  0.2401
  434MOL0     H58547   5.053   2.890  -0.461 -0.9978 -1.9509 -1.4081
  434MOL0     H58548   5.203   3.118  -0.627  3.1023 -1.3846 -0.2453
  434MOL0     H58549   5.283   3.042  -0.497 -0.3693  0.1415  1.4121
  434MOL0     H58550   4.968   3.320  -0.303  0.8517  0.7330 -0.4295
  434MOL0     H58551   5.049   3.517  -0.178  1.6196  3.4490 -1.3231
  434MOL0     H58552   5.493   3.785  -0.072 -0.6793 -1.4974  0.7931
  434MOL0     H58553   5.554   3.977   0.071 -0.2906 -2.3097  1.5177
  434MOL0     H58554   5.565   4.196   0.173  0.9224  0.6332 -0.4992
  434MOL0     H58555   5.506   4.248   0.015  1.8296  0.4604  0.6596
  434MOL0     H58556   5.461   4.381   0.281  0.2577 -3.7906  0.3104
  434MOL0     H58557   5.555   4.436   0.136 -0.7765  0.6819  0.0905
  434MOL0     H58558   5.333   4.403   0.000 -1.2987 -1.2122  0.7528
  434MOL0     H58559   5.261   4.437   0.153  1.4515  0.4215  2.8622
  434MOL0     H58560   5.473   4.607   0.009  0.0274 -1.9849 -1.0025
  434MOL0     H58561   5.430   4.625   0.176  0.2670 -1.1893  0.2895
  434MOL0     H58562   5.308   4.793   0.050 -2.3651  0.0976  1.6621
  434MOL0     H58563   5.187   4.664   0.096 -0.2749 -2.9719 -0.0441
  434MOL0     H58564   5.316   4.705  -0.174  0.5065 -0.3267  1.7605
  434MOL0     H58565   5.224   4.561  -0.133 -0.0516  0.1830 -3.4647
  434MOL0     H58566   5.097   4.813  -0.077 -1.6168 -1.6994  0.4798
  434MOL0     H58567   5.026   4.655  -0.097  0.0809 -0.1479 -0.4240
  434MOL0     H58568   5.063   4.670  -0.335 -0.8474  0.6901 -0.5753
  434MOL0     H58569   4.946   4.780  -0.273 -0.4618 -0.9669 -1.0038
  434MOL0     H58570   5.140   4.080   0.097 -0.0665 -1.3277  0.0508
  434MOL0     H58571   5.082   3.859  -0.002  0.0927  1.4119 -0.8599
  434MOL0     H58572   5.427   3.463  -0.384 -0.0131 -0.4600  1.7341
  434MOL0     H58573   5.366   3.249  -0.465  0.1548 -1.5792  0.6470
  434MOL0     H58574   4.324   3.855  -0.059 -1.6579 -0.0955  0.7562
  434MOL0     H58575   4.433   4.061   0.048 -2.2231 -0.4338 -1.7516
  434MOL0     H58576   4.590   4.181   0.656  2.1342  0.6255  0.7800
  434MOL0     H58577   4.583   4.407   0.763  1.3333  0.2231  0.1276
  434MOL0     H58578   4.662   4.625   0.781 -0.0843 -1.1323 -0.1822
  434MOL0     H58579   4.484   4.646   0.802  1.2074 -0.1073  1.2477
  434MOL0     H58580   4.665   4.856   0.685  0.3905 -1.7027 -1.0302
  434MOL0     H58581   4.685   4.822   0.865 -0.4289 -1.4995  0.1225
  434MOL0     H58582   4.472   4.902   0.919  2.2017  0.8188  0.2571
  434MOL0     H58583   4.410   4.880   0.749 -0.1195 -0.3118 -0.4038
  434MOL0     H58584   4.609   5.071   0.709 -0.5244  3.3414  1.4096
  434MOL0     H58585   4.456   5.132   0.797  0.2192  1.8103  0.5063
  434MOL0     H58586   4.733   5.134   1.112  1.3496  0.1792 -1.2267
  434MOL0     H58587   4.529   4.574   0.380  0.1092  0.7249  0.8352
  434MOL0     H58588   4.575   4.474   0.172  0.2819 -1.0020 -1.9333
  434MOL0     H58589   4.606   4.317   0.174  0.9047  1.4557  0.4952
  434MOL0     H58590   4.428   4.366   0.200 -0.3151  0.6775  1.0887
  435MOL0     O58591   6.003   8.828   7.064  0.3634  0.9977 -0.0062
  435MOL0     C58592   5.981   8.945   7.048  0.3136  0.4161  0.5528
  435MOL0     O58593   6.049   9.042   7.108  0.2115  0.0860  0.1969
  435MOL0     C58594   6.177   9.026   7.165  0.8437  0.4998 -0.2122
  435MOL0     C58595   6.267   8.920   7.140 -0.7702  0.6899 -0.0736
  435MOL0     C58596   6.394   8.912   7.202  0.5300 -0.1708 -0.1542
  435MOL0     C58597   6.429   9.012   7.295 -0.0485  0.0027  0.6046
  435MOL0     O58598   6.560   9.006   7.345  0.4352  0.4206 -0.2965
  435MOL0     C58599   6.563   9.075   7.474  0.5481  0.2896  0.3905
  435MOL0     C58600   6.687   9.041   7.543 -0.8097 -0.5306 -0.2734
  435MOL0     C58601   6.808   9.129   7.501  0.0223  0.3355  0.6649
  435MOL0     C58602   6.944   9.068   7.545  0.3858  0.6435  0.2740
  435MOL0     C58603   7.064   9.158   7.525  0.4509 -0.3091 -0.1933
  435MOL0     C58604   7.189   9.107   7.598 -0.0041 -0.7307 -1.4763
  435MOL0     C58605   7.331   9.148   7.541 -0.0853  0.8025 -0.0174
  435MOL0     C58606   7.452   9.084   7.617 -0.6878  0.1325 -0.5679
  435MOL0     N58607   7.582   9.148   7.592  0.1547 -0.2134 -0.5545
  435MOL0     C58608   7.612   9.284   7.603  0.1737 -0.8384  0.4005
  435MOL0     C58609   7.731   9.298   7.544  1.0043 -0.4732 -0.0821
  435MOL0     C58610   7.793   9.423   7.515 -0.3307 -0.3838  0.7983
  435MOL0     C58611   7.811   9.512   7.638  0.7951 -0.4051 -0.1388
  435MOL0     C58612   7.918   9.623   7.596 -0.5363  0.1315  0.0935
  435MOL0     C58613   7.945   9.726   7.707  0.4925 -0.4359  0.1018
  435MOL0     O58614   7.994   9.657   7.821 -0.3791 -0.3298  0.5462
  435MOL0     C58615   8.129   9.613   7.830  0.1886 -0.8982  0.8620
  435MOL0     C58616   8.222   9.625   7.725 -0.2427  0.1116  0.3818
  435MOL0     C58617   8.356   9.581   7.741  1.1368 -0.4486 -1.0208
  435MOL0     C58618   8.403   9.538   7.867 -0.4836 -0.3130  0.7720
  435MOL0     C58619   8.550   9.518   7.885  0.4299  0.1620 -0.4522
  435MOL0     O58620   8.586   9.461   8.007  0.0298  0.3417 -0.0802
  435MOL0     C58621   8.714   9.456   8.047 -0.1501  0.4412  0.1179
  435MOL0     C58622   8.811   9.558   8.041 -0.2738 -0.3217  0.0720
  435MOL0     C58623   8.941   9.536   8.089  0.5214  0.1040  0.6671
  435MOL0     C58624   8.980   9.403   8.140 -0.5467 -0.1194  0.6172
  435MOL0     O58625   9.103   9.391   8.205  0.2223  0.2511  0.0303
  435MOL0     C58626   9.211   9.332   8.126 -0.2941 -0.0736  0.2897
  435MOL0     C58627   9.327   9.431   8.106  0.7159 -0.4251  0.1569
  435MOL0     C58628   9.294   9.576   8.082 -0.1219  0.7741 -0.1050
  435MOL0     C58629   9.400   9.669   8.033  0.0034  0.0756 -0.3389
  435MOL0     C58630   9.336   9.805   7.999 -0.4015 -0.1243 -0.7321
  435MOL0     C58631   9.446   9.907   7.981 -0.1132 -0.7256  0.2731
  435MOL0     C58632   9.538   9.875   7.866  0.5996  0.7461 -0.5102
  435MOL0     C58633   9.651   9.974   7.880 -1.0495 -0.2526  0.2599
  435MOL0    Cl58634   9.730   9.948   7.721 -0.1460  0.2490 -0.2456
  435MOL0     C58635   8.880   9.306   8.139 -0.5665  0.1462  0.4514
  435MOL0     C58636   8.747   9.334   8.102 -0.6251  0.5047 -1.1402
  435MOL0     O58637   8.614   9.550   7.785  1.1442  0.2814  0.0489
  435MOL0     C58638   8.306   9.521   7.969 -0.5080 -0.6036 -0.1535
  435MOL0     C58639   8.173   9.560   7.950  0.9058  1.3905  0.8590
  435MOL0     N58640   7.776   9.179   7.501  0.1516 -0.2464 -0.0704
  435MOL0     N58641   7.685   9.084   7.523  1.0430 -0.9164  0.5811
  435MOL0     C58642   6.336   9.112   7.315 -0.0752 -0.0718  0.2652
  435MOL0     C58643   6.213   9.121   7.256 -0.6964  0.4885  0.0675
  435MOL0     C58644   5.870   8.990   6.966  0.7084 -0.6071 -0.4536
  435MOL0     C58645   5.864   9.129   6.936  0.1596 -0.5547  0.2773
  435MOL0     C58646   5.784   9.178   6.835 -0.0455 -0.4290 -0.4200
  435MOL0     C58647   5.688   9.102   6.772  0.3717  0.2644 -0.6776
  435MOL0     O58648   5.611   9.159   6.680  0.1551 -0.6875 -0.0362
  435MOL0     C58649   5.491   9.212   6.734  0.3966  0.1089  0.2030
  435MOL0     C58650   5.385   9.219   6.623  0.2720  0.1277  0.6999
  435MOL0     C58651   5.433   9.320   6.511  0.0072  0.5908  0.0205
  435MOL0     C58652   5.429   9.260   6.360 -0.4859  0.0347 -0.3275
  435MOL0     C58653   5.538   9.175   6.322 -0.5073  0.4341  0.6004
  435MOL0     C58654   5.619   9.108   6.264  0.3370  0.3202 -0.1984
  435MOL0     C58655   5.672   8.971   6.812 -0.2132 -1.4482 -0.4208
  435MOL0     C58656   5.763   8.911   6.906 -0.0383 -0.0175  0.9197
  435MOL0     C58657   5.745   8.764   6.929 -0.5811 -0.9816  0.2749
  435MOL0     H58658   6.245   8.847   7.064 -0.8556 -0.5353  1.0936
  435MOL0     H58659   6.472   8.838   7.188 -1.1401 -2.1372  0.6150
  435MOL0     H58660   6.553   9.184   7.465  3.8629  0.7657  0.9645
  435MOL0     H58661   6.485   9.033   7.538  2.3535 -2.9607  0.6547
  435MOL0     H58662   6.702   8.936   7.515  2.7482  0.0826 -1.0888
  435MOL0     H58663   6.687   9.057   7.651 -1.3668  2.5413 -0.6278
  435MOL0     H58664   6.791   9.226   7.548  2.3988  0.4857  1.3708
  435MOL0     H58665   6.810   9.128   7.391  0.9108 -0.7257  0.6666
  435MOL0     H58666   6.930   9.049   7.652 -4.4322 -1.1199 -0.4263
  435MOL0     H58667   6.955   8.971   7.496  1.4440 -1.2867  4.0010
  435MOL0     H58668   7.079   9.148   7.417  1.7320 -1.9855  0.0892
  435MOL0     H58669   7.041   9.263   7.545  3.7735  0.6070 -0.6691
  435MOL0     H58670   7.184   9.136   7.703 -0.7670  0.2587 -1.7714
  435MOL0     H58671   7.182   8.998   7.596 -2.5507 -0.7001  0.9352
  435MOL0     H58672   7.336   9.256   7.560 -1.0250  0.9817 -0.7420
  435MOL0     H58673   7.334   9.114   7.438 -0.8538 -2.5243  0.9425
  435MOL0     H58674   7.425   9.084   7.723 -0.4981 -1.9448 -0.4822
  435MOL0     H58675   7.455   8.981   7.581  0.3437  0.7655 -2.4254
  435MOL0     H58676   7.547   9.363   7.638 -1.6617 -1.1421 -2.0766
  435MOL0     H58677   7.892   9.399   7.476 -0.9444 -2.5915  0.4814
  435MOL0     H58678   7.746   9.480   7.434 -0.3774 -0.4253  0.7959
  435MOL0     H58679   7.719   9.566   7.660  2.5952  1.9493  2.4354
  435MOL0     H58680   7.840   9.462   7.731  1.1933 -0.0104 -0.0447
  435MOL0     H58681   7.879   9.675   7.508 -2.5181  2.2401  2.0692
  435MOL0     H58682   8.007   9.575   7.554  0.9710  1.9082  1.1203
  435MOL0     H58683   7.851   9.772   7.736  0.3251  1.3941 -2.8938
  435MOL0     H58684   8.008   9.810   7.675 -3.2864  2.6848  0.1476
  435MOL0     H58685   8.196   9.669   7.630  1.2711 -0.5642 -0.3785
  435MOL0     H58686   8.427   9.595   7.660  3.8866  2.2766  1.6255
  435MOL0     H58687   8.805   9.652   7.987  2.7506  0.7887  1.4612
  435MOL0     H58688   9.012   9.617   8.082 -1.6922  1.9715 -3.3742
  435MOL0     H58689   9.241   9.240   8.176 -0.6610 -1.8774 -2.5422
  435MOL0     H58690   9.167   9.308   8.028 -0.7033  2.5288 -0.2357
  435MOL0     H58691   9.393   9.432   8.193 -0.5004 -2.7745  1.2160
  435MOL0     H58692   9.386   9.395   8.020 -0.3677 -0.5338 -0.5601
  435MOL0     H58693   9.220   9.561   8.003  0.1618 -4.1262  0.2738
  435MOL0     H58694   9.247   9.606   8.176  2.3053 -1.4447  1.9739
  435MOL0     H58695   9.452   9.628   7.946  1.3891  2.0410 -0.4957
  435MOL0     H58696   9.469   9.680   8.118  1.5823 -2.0619 -1.2460
  435MOL0     H58697   9.270   9.831   8.082  0.5347 -1.1450  0.3655
  435MOL0     H58698   9.271   9.806   7.910  2.2605 -2.7891 -2.9094
  435MOL0     H58699   9.395  10.003   7.964 -1.4140 -1.1592  1.4952
  435MOL0     H58700   9.504   9.916   8.073  1.0117  0.9383 -0.5427
  435MOL0     H58701   9.477   9.878   7.775 -0.2923  0.5367  0.0659
  435MOL0     H58702   9.580   9.775   7.874  0.3459  0.6837  0.0709
  435MOL0     H58703   9.606  10.073   7.886  0.8571  0.5795  2.0276
  435MOL0     H58704   9.709   9.961   7.972 -0.9553 -1.1532  0.0870
  435MOL0     H58705   8.903   9.208   8.180 -0.5675 -0.3551 -0.7185
  435MOL0     H58706   8.684   9.248   8.122  0.7579  0.0306  1.7883
  435MOL0     H58707   8.324   9.472   8.065 -0.6984 -1.3283 -0.4785
  435MOL0     H58708   8.106   9.562   8.036  1.5708  3.7479  1.3971
  435MOL0     H58709   6.359   9.191   7.386  0.9416 -1.4583  1.5485
  435MOL0     H58710   6.141   9.198   7.279  0.5595  0.8905  3.0828
  435MOL0     H58711   5.927   9.207   6.978  1.1209 -0.3674 -1.4360
  435MOL0     H58712   5.785   9.275   6.785  0.7557 -0.6038 -0.7616
  435MOL0     H58713   5.506   9.314   6.768  0.2448  0.6567 -1.2900
  435MOL0     H58714   5.448   9.146   6.810 -2.1916 -1.0864 -2.1124
  435MOL0     H58715   5.289   9.257   6.660  0.2166 -0.2482  0.9525
  435MOL0     H58716   5.361   9.124   6.577 -4.4105  1.0504  0.7681
  435MOL0     H58717   5.533   9.358   6.531  0.2701  0.9029 -1.7552
  435MOL0     H58718   5.362   9.403   6.516 -2.4553 -1.4696  2.2699
  435MOL0     H58719   5.336   9.202   6.350 -0.2543 -0.0450 -2.3445
  435MOL0     H58720   5.421   9.352   6.301  1.6627  0.9463  0.7160
  435MOL0     H58721   5.683   9.059   6.194 -2.8615 -3.1834 -0.9934
  435MOL0     H58722   5.585   8.918   6.773 -0.9122  0.0673 -1.0140
  435MOL0     H58723   5.641   8.729   6.923 -1.5038  1.7896 -3.2857
  435MOL0     H58724   5.802   8.697   6.863 -0.6158 -3.7778  2.8509
  435MOL0     H58725   5.785   8.733   7.026  2.3586  0.2927 -0.4298
  436MOL0     O58726   2.522   0.635   3.351  0.8596  0.7631 -0.2115
  436MOL0     C58727   2.535   0.717   3.263 -0.2131  0.8092  0.6071
  436MOL0     O58728   2.483   0.700   3.133  0.0299 -0.0753 -0.5028
  436MOL0     C58729   2.408   0.589   3.099 -0.1693  0.9273  0.0319
  436MOL0     C58730   2.439   0.527   2.968  0.2649 -0.3213  0.0028
  436MOL0     C58731   2.393   0.395   2.949  0.6997  0.4221  0.1831
  436MOL0     C58732   2.289   0.346   3.036  0.0920 -0.4586  1.6805
  436MOL0     O58733   2.239   0.228   2.987 -0.1758 -0.2144  0.1366
  436MOL0     C58734   2.107   0.189   3.025 -0.6228 -0.8645 -0.2497
  436MOL0     C58735   2.111   0.034   3.007 -0.0496  0.4147 -0.1183
  436MOL0     C58736   2.186  -0.036   3.124 -0.1358 -0.3549  0.0368
  436MOL0     C58737   2.209  -0.187   3.110 -0.5487 -0.4715 -0.3334
  436MOL0     C58738   2.261  -0.242   3.249 -0.6820  0.3260  0.3304
  436MOL0     C58739   2.400  -0.198   3.288  0.3746 -0.1241 -0.7325
  436MOL0     C58740   2.504  -0.278   3.221 -0.0659  0.2849 -0.3374
  436MOL0     C58741   2.639  -0.211   3.235 -0.2905 -0.3645 -0.3737
  436MOL0     N58742   2.690  -0.233   3.373  0.2573  1.0312  0.6654
  436MOL0     C58743   2.724  -0.354   3.431  0.3867  0.3189  0.1956
  436MOL0     C58744   2.804  -0.313   3.530 -0.0564  0.3579  0.0926
  436MOL0     C58745   2.898  -0.395   3.613  0.1589  0.1720  0.4108
  436MOL0     C58746   3.043  -0.388   3.561 -0.6886 -0.3597 -0.2469
  436MOL0     C58747   3.139  -0.474   3.640 -0.8957  0.1480  0.1473
  436MOL0     C58748   3.151  -0.434   3.786 -0.7111  0.7753  0.3450
  436MOL0     O58749   3.254  -0.522   3.832 -0.1527  0.0646  0.2973
  436MOL0     C58750   3.283  -0.515   3.965 -0.1454  0.0989  0.2711
  436MOL0     C58751   3.217  -0.420   4.054  1.0139 -0.4983 -0.1125
  436MOL0     C58752   3.259  -0.401   4.187 -0.7050  1.0647  0.0665
  436MOL0     C58753   3.372  -0.476   4.232 -0.2448  0.2376  0.6687
  436MOL0     C58754   3.423  -0.459   4.369 -0.6028  0.1830  0.3216
  436MOL0     O58755   3.545  -0.498   4.407  0.1616  0.4811 -0.1308
  436MOL0     C58756   3.587  -0.480   4.542 -0.0387 -0.2031  0.4380
  436MOL0     C58757   3.723  -0.474   4.549 -0.1861  0.5453  0.0326
  436MOL0     C58758   3.793  -0.460   4.671  0.8404 -0.8275 -1.3418
  436MOL0     C58759   3.718  -0.463   4.793  1.6872 -0.6056  0.2542
  436MOL0     O58760   3.768  -0.450   4.921  0.7733  0.3445  0.5854
  436MOL0     C58761   3.909  -0.499   4.942  0.3791 -0.1799  0.2801
  436MOL0     C58762   3.956  -0.470   5.074  0.8133 -0.9077  0.3458
  436MOL0     C58763   4.097  -0.534   5.102 -0.4079  0.4239  0.5819
  436MOL0     C58764   4.205  -0.468   5.025 -0.2106  0.2843  0.3870
  436MOL0     C58765   4.347  -0.535   5.029  0.2969  0.3069  0.2863
  436MOL0     C58766   4.455  -0.447   4.960  0.6431  0.2490  0.1076
  436MOL0     C58767   4.567  -0.537   4.906  0.5851  0.4690  0.0079
  436MOL0     C58768   4.560  -0.563   4.759 -0.9227 -0.4226  0.1986
  436MOL0    Cl58769   4.404  -0.556   4.675 -0.1281 -0.0404 -0.0627
  436MOL0     C58770   3.573  -0.463   4.783 -1.0159 -0.4022 -0.2927
  436MOL0     C58771   3.514  -0.475   4.661  0.7044 -0.7427 -0.7155
  436MOL0     O58772   3.340  -0.407   4.438 -0.3679 -0.5208  0.2823
  436MOL0     C58773   3.447  -0.562   4.143  0.1073 -0.2663  0.2543
  436MOL0     C58774   3.399  -0.588   4.018  1.1254  0.0054 -0.3747
  436MOL0     N58775   2.798  -0.183   3.548  0.2320 -0.1430  0.3199
  436MOL0     N58776   2.727  -0.132   3.451 -0.3211 -0.4769 -0.5311
  436MOL0     C58777   2.247   0.411   3.156  0.1578  0.1996 -0.2415
  436MOL0     C58778   2.310   0.527   3.188 -0.2587 -0.0365 -0.3325
  436MOL0     C58779   2.607   0.843   3.287  0.1701  0.0646 -0.0236
  436MOL0     C58780   2.565   0.962   3.229 -0.3998 -0.4414  0.5237
  436MOL0     C58781   2.638   1.073   3.223 -0.7976 -0.8752  0.8809
  436MOL0     C58782   2.763   1.078   3.294  0.6766 -0.0140 -0.0706
  436MOL0     O58783   2.835   1.196   3.305  0.4173 -0.1945 -0.1529
  436MOL0     C58784   2.814   1.249   3.438 -0.0512  0.3972  0.5779
  436MOL0     C58785   2.861   1.396   3.446  0.7346  0.3174 -0.2400
  436MOL0     C58786   2.809   1.488   3.336 -0.2898 -0.3366  0.6459
  436MOL0     C58787   2.878   1.624   3.344 -0.9674  0.2884  1.0159
  436MOL0     C58788   2.865   1.698   3.218 -0.3644 -0.2685 -0.1481
  436MOL0     C58789   2.847   1.776   3.133  0.3294 -0.2595 -0.5844
  436MOL0     C58790   2.808   0.967   3.355 -0.2340 -0.8652  0.7178
  436MOL0     C58791   2.733   0.846   3.353  0.2171  0.7785 -0.0320
  436MOL0     C58792   2.799   0.732   3.426  0.1176 -0.3768 -0.1725
  436MOL0     H58793   2.506   0.577   2.899  0.6319 -1.4320 -0.4619
  436MOL0     H58794   2.419   0.343   2.857  2.5162  1.2732  0.1561
  436MOL0     H58795   2.086   0.220   3.128  2.5497  0.4309  0.1211
  436MOL0     H58796   2.040   0.241   2.956  0.8455  0.7687 -0.5188
  436MOL0     H58797   2.154   0.008   2.911  0.7847 -2.3134  0.8951
  436MOL0     H58798   2.013  -0.013   3.018 -0.2172  0.7739 -0.0712
  436MOL0     H58799   2.126  -0.006   3.211 -1.1807 -0.9813 -0.4520
  436MOL0     H58800   2.281   0.016   3.136 -0.9435  1.0846  0.3975
  436MOL0     H58801   2.116  -0.234   3.078 -1.4618  1.0248  0.0089
  436MOL0     H58802   2.281  -0.189   3.028 -3.1621 -0.7540 -2.7887
  436MOL0     H58803   2.193  -0.194   3.320  1.1200 -0.4155  2.6853
  436MOL0     H58804   2.246  -0.349   3.262 -1.1524  0.5807  2.2041
  436MOL0     H58805   2.411  -0.091   3.268 -1.0106 -0.0731 -1.3231
  436MOL0     H58806   2.418  -0.217   3.395  0.0550 -0.0844 -0.6722
  436MOL0     H58807   2.485  -0.285   3.114  2.6163  4.7201 -1.3843
  436MOL0     H58808   2.502  -0.385   3.244  1.5181 -0.1973 -2.1847
  436MOL0     H58809   2.705  -0.264   3.165  0.3882 -0.4001  0.2768
  436MOL0     H58810   2.636  -0.103   3.218  1.8991  0.0720  1.4685
  436MOL0     H58811   2.716  -0.451   3.383 -1.9508 -1.2476  3.4381
  436MOL0     H58812   2.889  -0.359   3.716  0.1211  0.8648  0.1685
  436MOL0     H58813   2.869  -0.501   3.620  1.8251 -0.5372 -2.2393
  436MOL0     H58814   3.040  -0.408   3.454  0.3462 -1.5173 -0.0913
  436MOL0     H58815   3.092  -0.290   3.561 -0.3535 -0.4923 -2.0028
  436MOL0     H58816   3.243  -0.472   3.607  0.6776  1.1544  4.5095
  436MOL0     H58817   3.113  -0.580   3.639 -0.2677 -0.0291 -1.9558
  436MOL0     H58818   3.052  -0.470   3.818 -1.6786 -0.3152 -3.2927
  436MOL0     H58819   3.160  -0.328   3.808 -1.2381  0.5436  1.7700
  436MOL0     H58820   3.155  -0.345   4.006  1.3728 -1.7473 -2.7297
  436MOL0     H58821   3.218  -0.326   4.253  1.2341  1.9158  0.3687
  436MOL0     H58822   3.770  -0.482   4.452 -0.4384 -0.8217  0.0036
  436MOL0     H58823   3.901  -0.449   4.678  0.6123  0.6844  0.5499
  436MOL0     H58824   3.907  -0.607   4.923  0.1467 -0.6828  2.7841
  436MOL0     H58825   3.978  -0.441   4.880  1.5449  1.6118  3.0789
  436MOL0     H58826   3.957  -0.361   5.080 -0.4953 -0.9211  1.2223
  436MOL0     H58827   3.884  -0.522   5.138  2.1963 -2.7389  0.4912
  436MOL0     H58828   4.109  -0.538   5.210  1.5489  0.1528  0.3908
  436MOL0     H58829   4.094  -0.640   5.072 -0.1476  0.0187  1.8993
  436MOL0     H58830   4.213  -0.363   5.053  1.7990  0.2781  0.0285
  436MOL0     H58831   4.180  -0.480   4.919  1.2001  1.7844 -0.1527
  436MOL0     H58832   4.346  -0.637   4.990 -2.4118 -0.2962  1.7308
  436MOL0     H58833   4.373  -0.537   5.135  1.8219 -1.1215 -0.0750
  436MOL0     H58834   4.410  -0.390   4.878 -0.4686 -0.3465  0.2820
  436MOL0     H58835   4.483  -0.372   5.035 -1.3991  1.1770  0.0061
  436MOL0     H58836   4.564  -0.635   4.956 -2.5740  0.8125  0.7087
  436MOL0     H58837   4.661  -0.486   4.929 -0.6368  2.5201  0.7203
  436MOL0     H58838   4.627  -0.489   4.715 -0.6082 -1.1866 -0.6408
  436MOL0     H58839   4.608  -0.660   4.742 -0.5601 -0.9007  3.2862
  436MOL0     H58840   3.513  -0.462   4.874  1.6411 -1.5431  1.5981
  436MOL0     H58841   3.406  -0.484   4.655  0.7622 -2.5281  0.3596
  436MOL0     H58842   3.532  -0.607   4.193 -1.6501  0.1354  3.9536
  436MOL0     H58843   3.446  -0.661   3.952  1.0846 -2.3212  2.0096
  436MOL0     H58844   2.175   0.365   3.223  1.0196  0.6424  1.0182
  436MOL0     H58845   2.273   0.584   3.272  0.4805  1.9226 -1.2640
  436MOL0     H58846   2.472   0.962   3.172 -0.3867 -5.7042  0.0340
  436MOL0     H58847   2.593   1.165   3.186 -0.0688 -0.6227  0.6035
  436MOL0     H58848   2.877   1.195   3.508  0.9252  1.4182  0.5062
  436MOL0     H58849   2.708   1.238   3.465  0.2856  2.8356  3.4385
  436MOL0     H58850   2.970   1.392   3.452  0.6037 -2.1037  2.4779
  436MOL0     H58851   2.825   1.436   3.541 -1.3528  0.3281 -0.9838
  436MOL0     H58852   2.700   1.498   3.330 -0.5860 -3.0252  0.1723
  436MOL0     H58853   2.840   1.452   3.237  1.0875 -3.4014  2.0558
  436MOL0     H58854   2.830   1.694   3.412  1.5549  2.5160  0.6635
  436MOL0     H58855   2.982   1.606   3.372  0.0171  1.5865 -1.5150
  436MOL0     H58856   2.840   1.847   3.053  1.4145 -1.6878 -2.0212
  436MOL0     H58857   2.905   0.964   3.402  1.0035  0.2170 -1.5848
  436MOL0     H58858   2.845   0.662   3.356 -1.1255  0.1426 -1.5756
  436MOL0     H58859   2.874   0.786   3.484  2.6915  0.4535 -3.9307
  436MOL0     H58860   2.729   0.670   3.482 -0.1276  0.5104  0.5360
  437MOL0     O58861   4.946   5.466   6.943 -0.3507 -0.2094  0.7219
  437MOL0     C58862   4.899   5.359   6.905 -0.2323  0.7455 -0.2442
  437MOL0     O58863   4.868   5.333   6.774  0.4886  0.5248  0.6075
  437MOL0     C58864   4.957   5.402   6.695  0.0792 -0.8544 -0.3491
  437MOL0     C58865   4.900   5.495   6.608  0.1547  0.0024 -0.1201
  437MOL0     C58866   4.989   5.564   6.516  0.8203  0.0967 -0.3964
  437MOL0     C58867   5.127   5.545   6.517  0.4079 -0.0330 -0.6261
  437MOL0     O58868   5.220   5.625   6.450 -0.6492  0.0039 -0.3863
  437MOL0     C58869   5.182   5.761   6.459  0.6829  0.2365  0.4264
  437MOL0     C58870   5.132   5.808   6.327  0.5017 -0.2681  0.3692
  437MOL0     C58871   5.059   5.944   6.346  0.0620  0.7570 -0.3508
  437MOL0     C58872   5.076   6.044   6.228 -0.9003  1.5739  1.2004
  437MOL0     C58873   4.979   6.153   6.237  0.7289  0.5630  0.5498
  437MOL0     C58874   5.031   6.266   6.324 -0.6315  0.0566 -1.3097
  437MOL0     C58875   4.935   6.383   6.355 -0.0459  0.6935  0.2493
  437MOL0     C58876   4.841   6.348   6.476  0.3448 -0.0047 -0.5528
  437MOL0     N58877   4.788   6.464   6.543  0.3790  0.2235 -0.0178
  437MOL0     C58878   4.811   6.516   6.668 -1.1198 -0.3047 -0.3500
  437MOL0     C58879   4.723   6.622   6.686 -0.1897 -0.3414 -0.0590
  437MOL0     C58880   4.710   6.697   6.813 -0.1870  0.4523 -0.1507
  437MOL0     C58881   4.602   6.645   6.901  0.1517  0.1382 -0.0530
  437MOL0     C58882   4.463   6.698   6.873  1.0167 -0.1377  0.7814
  437MOL0     C58883   4.354   6.631   6.950 -0.3750  0.0401  0.0257
  437MOL0     O58884   4.390   6.604   7.088 -0.2545  0.3703  0.2954
  437MOL0     C58885   4.315   6.509   7.152  0.7552 -0.8340 -0.1168
  437MOL0     C58886   4.376   6.392   7.195 -0.1363  0.7684  0.8306
  437MOL0     C58887   4.316   6.285   7.262  0.0975 -0.5965  0.3398
  437MOL0     C58888   4.173   6.296   7.277  0.1670 -0.2623  0.2668
  437MOL0     C58889   4.094   6.187   7.338 -0.1170 -0.7518  0.2827
  437MOL0     O58890   3.958   6.205   7.340 -0.1753  0.2933 -0.1762
  437MOL0     C58891   3.875   6.111   7.394  0.7314  0.3561  0.0978
  437MOL0     C58892   3.745   6.122   7.338 -0.1046  1.6321  0.1850
  437MOL0     C58893   3.642   6.038   7.385 -0.1851  0.2055 -0.4964
  437MOL0     C58894   3.668   5.954   7.497  0.2999  0.2645  0.6118
  437MOL0     O58895   3.556   5.886   7.534 -0.1328  0.3007  0.2490
  437MOL0     C58896   3.554   5.813   7.654 -0.4174  0.3113  0.0752
  437MOL0     C58897   3.407   5.764   7.677 -0.3277  0.4591 -0.2900
  437MOL0     C58898   3.379   5.656   7.580 -0.1313  0.2255  1.0965
  437MOL0     C58899   3.239   5.598   7.607  0.1813 -0.4858  0.0811
  437MOL0     C58900   3.120   5.687   7.604  0.3692 -0.5980 -0.1216
  437MOL0     C58901   2.994   5.596   7.619  1.1899  0.0171  0.2758
  437MOL0     C58902   2.857   5.675   7.617 -0.6554  0.2769  0.1820
  437MOL0     C58903   2.813   5.682   7.473  1.0867  0.2129 -0.0050
  437MOL0    Cl58904   2.697   5.817   7.462  0.0161 -0.0517  0.1312
  437MOL0     C58905   3.797   5.930   7.544 -0.0877  0.0719 -1.5007
  437MOL0     C58906   3.895   6.015   7.493  0.2157  0.5273  0.5352
  437MOL0     O58907   4.151   6.092   7.387 -0.0698 -0.6376 -0.3278
  437MOL0     C58908   4.116   6.418   7.235  0.0137 -0.3982  0.1497
  437MOL0     C58909   4.179   6.528   7.176 -0.3048 -0.0736  0.1709
  437MOL0     N58910   4.671   6.650   6.563  0.4224 -0.6640  0.3044
  437MOL0     N58911   4.711   6.554   6.487 -0.1804 -0.0478  0.1563
  437MOL0     C58912   5.179   5.456   6.608  0.1892  0.1478  0.5971
  437MOL0     C58913   5.095   5.384   6.697  0.6096 -0.3950  0.6012
  437MOL0     C58914   4.845   5.252   7.003 -1.0927  0.2713  0.3654
  437MOL0     C58915   4.829   5.122   6.949 -0.6524 -0.7134  0.1116
  437MOL0     C58916   4.785   5.025   7.038  0.4398 -0.2128 -1.3932
  437MOL0     C58917   4.771   5.041   7.182  0.8147  0.6465  0.1729
  437MOL0     O58918   4.724   4.937   7.255  0.8107  0.9329  0.2292
  437MOL0     C58919   4.670   4.962   7.380 -0.5354 -0.4861  0.0088
  437MOL0     C58920   4.528   5.035   7.378 -0.5881 -1.2276  1.0709
  437MOL0     C58921   4.423   4.958   7.311 -0.4311 -0.4376  0.1589
  437MOL0     C58922   4.287   5.035   7.289 -0.5955 -0.1048  0.2858
  437MOL0     C58923   4.316   5.164   7.215 -0.0479  1.1537 -0.3102
  437MOL0     C58924   4.321   5.268   7.148 -0.5122  0.0936 -0.1267
  437MOL0     C58925   4.795   5.178   7.223  0.2663 -0.6811  0.5208
  437MOL0     C58926   4.826   5.280   7.136 -0.7948 -0.4309 -0.2005
  437MOL0     C58927   4.801   5.415   7.193 -1.0688  0.6270 -0.8437
  437MOL0     H58928   4.792   5.500   6.607  0.0363 -1.7042  1.3758
  437MOL0     H58929   4.945   5.643   6.456  1.0035 -1.9077 -3.4027
  437MOL0     H58930   5.104   5.778   6.534  0.5485  1.9755 -0.0491
  437MOL0     H58931   5.275   5.815   6.482  1.4733 -0.9685  0.1401
  437MOL0     H58932   5.063   5.742   6.274  1.4755  1.1737 -2.9371
  437MOL0     H58933   5.222   5.813   6.266  1.0385 -0.8449  1.0970
  437MOL0     H58934   5.109   5.997   6.428  2.1085 -0.2660 -0.8835
  437MOL0     H58935   4.956   5.918   6.372  0.9430 -1.1426  1.5421
  437MOL0     H58936   5.177   6.086   6.232 -0.3258  0.2570  0.9323
  437MOL0     H58937   5.061   5.991   6.134 -1.8433  0.9039  1.7086
  437MOL0     H58938   4.951   6.184   6.136  2.3272 -0.9601 -0.4142
  437MOL0     H58939   4.883   6.116   6.275  0.6449  1.0909  0.8652
  437MOL0     H58940   5.064   6.217   6.416 -2.4127  1.6574  0.2875
  437MOL0     H58941   5.120   6.305   6.273 -0.9821  3.0940  0.1298
  437MOL0     H58942   4.874   6.395   6.266 -2.2249 -2.3454  1.1897
  437MOL0     H58943   4.991   6.475   6.372 -0.5300  1.2621 -1.1504
  437MOL0     H58944   4.754   6.297   6.435 -0.3332  1.4154 -0.9430
  437MOL0     H58945   4.888   6.287   6.553  0.2610 -1.1171 -1.3716
  437MOL0     H58946   4.875   6.463   6.739 -0.8536  0.6823  0.1635
  437MOL0     H58947   4.797   6.675   6.875 -0.8650 -0.3493  0.5444
  437MOL0     H58948   4.707   6.805   6.795 -2.2871  0.8707  2.2555
  437MOL0     H58949   4.594   6.536   6.899 -1.5807  0.2492 -1.9606
  437MOL0     H58950   4.633   6.681   7.000  0.2117 -1.7241  0.6465
  437MOL0     H58951   4.439   6.701   6.766  3.1954 -2.9040  0.1094
  437MOL0     H58952   4.462   6.799   6.916 -1.7180 -0.3518  1.4139
  437MOL0     H58953   4.342   6.531   6.906  1.6747 -1.0922  1.8775
  437MOL0     H58954   4.258   6.683   6.943 -0.6739 -0.6527 -1.4568
  437MOL0     H58955   4.480   6.381   7.166 -0.1421 -0.2266  1.1510
  437MOL0     H58956   4.360   6.194   7.302  0.8970 -0.3106  0.1415
  437MOL0     H58957   3.733   6.189   7.253  1.9838  0.7231 -0.8839
  437MOL0     H58958   3.544   6.045   7.339 -0.3689  2.2185  0.0827
  437MOL0     H58959   3.625   5.729   7.658  0.4277  0.9697 -0.5528
  437MOL0     H58960   3.569   5.867   7.748  0.6937  0.7289 -0.3313
  437MOL0     H58961   3.384   5.730   7.778  1.3589 -4.5241 -1.2832
  437MOL0     H58962   3.336   5.846   7.663 -0.3771  0.4857  0.1062
  437MOL0     H58963   3.391   5.698   7.480  4.0848 -0.6267  1.0567
  437MOL0     H58964   3.452   5.575   7.581  0.9395  0.9451 -2.7448
  437MOL0     H58965   3.240   5.546   7.703 -1.1686 -0.9767 -0.1557
  437MOL0     H58966   3.225   5.531   7.522 -1.3656  0.2352 -0.2612
  437MOL0     H58967   3.113   5.737   7.506  0.9013  0.7750  0.5110
  437MOL0     H58968   3.130   5.767   7.678  2.9672 -0.8837 -0.0653
  437MOL0     H58969   2.990   5.512   7.549 -2.3720 -0.7253  1.1927
  437MOL0     H58970   3.006   5.550   7.718 -0.6516  2.6332  1.8304
  437MOL0     H58971   2.870   5.767   7.674 -1.1315 -0.4042  1.4230
  437MOL0     H58972   2.783   5.617   7.672 -0.6173 -0.0437 -0.1040
  437MOL0     H58973   2.901   5.692   7.409  2.9036 -0.6850  2.2187
  437MOL0     H58974   2.759   5.588   7.463 -2.4191  1.7159  2.6982
  437MOL0     H58975   3.817   5.854   7.620 -1.4433  2.7030  1.7266
  437MOL0     H58976   3.991   5.994   7.540 -0.6588  0.2751  2.2788
  437MOL0     H58977   4.012   6.428   7.264 -0.6106 -0.6796 -1.8043
  437MOL0     H58978   4.131   6.623   7.152 -0.2801 -0.0245  0.3113
  437MOL0     H58979   5.284   5.426   6.610  0.2960  0.5411  0.9699
  437MOL0     H58980   5.137   5.303   6.755  0.7365 -1.5128 -0.9749
  437MOL0     H58981   4.853   5.099   6.846 -1.5619 -0.4441 -0.1687
  437MOL0     H58982   4.774   4.923   7.002  0.8918 -0.4272 -0.9265
  437MOL0     H58983   4.721   5.030   7.448 -1.2504 -0.5050  0.5820
  437MOL0     H58984   4.657   4.866   7.432  1.8848  0.5659  2.8467
  437MOL0     H58985   4.536   5.138   7.340 -1.0399 -0.5095  2.8209
  437MOL0     H58986   4.493   5.050   7.481  0.7330  1.0368  1.2673
  437MOL0     H58987   4.400   4.869   7.370 -1.1732 -0.6644 -0.4537
  437MOL0     H58988   4.449   4.923   7.211  0.2141 -2.1487  0.8857
  437MOL0     H58989   4.218   4.974   7.231  0.3852  1.2101 -2.4626
  437MOL0     H58990   4.256   5.059   7.391  0.6739 -1.8588  1.1322
  437MOL0     H58991   4.324   5.350   7.080 -0.5249 -0.4538 -0.8088
  437MOL0     H58992   4.782   5.216   7.324  0.0975  1.5726 -0.2921
  437MOL0     H58993   4.795   5.502   7.127 -2.1959  1.8529  0.7833
  437MOL0     H58994   4.701   5.407   7.237 -0.6650 -0.5805 -0.1161
  437MOL0     H58995   4.858   5.434   7.284 -0.0619 -2.8728 -0.6118
  438MOL0     O58996   3.021   4.778   3.353 -0.6907 -0.1170  0.1827
  438MOL0     C58997   2.934   4.763   3.268  0.1778  0.0277 -0.2242
  438MOL0     O58998   2.804   4.712   3.286 -0.1465  0.6223  0.4867
  438MOL0     C58999   2.745   4.694   3.408 -0.0550 -1.0401 -0.0808
  438MOL0     C59000   2.615   4.744   3.440  0.6183 -0.8995 -0.4230
  438MOL0     C59001   2.559   4.717   3.562  0.3102  0.1770  0.0792
  438MOL0     C59002   2.628   4.640   3.658 -0.4944  0.1596 -0.3889
  438MOL0     O59003   2.584   4.602   3.781 -0.2724  0.5247  0.2343
  438MOL0     C59004   2.506   4.715   3.849 -0.0901  0.3032 -0.0026
  438MOL0     C59005   2.541   4.723   3.999 -0.4845  0.3038  0.6553
  438MOL0     C59006   2.702   4.711   4.026  0.8926 -0.4568  0.3627
  438MOL0     C59007   2.775   4.803   3.936  0.9293  0.1717  0.4752
  438MOL0     C59008   2.891   4.874   3.996 -0.0310 -0.6453  0.8134
  438MOL0     C59009   3.007   4.784   4.008  0.0474 -0.2963  0.6204
  438MOL0     C59010   3.086   4.767   3.877  0.5768 -0.3641  0.5271
  438MOL0     C59011   3.232   4.720   3.901  0.9022 -0.8814  0.8403
  438MOL0     N59012   3.331   4.792   3.989  0.9797 -0.0964 -0.3698
  438MOL0     C59013   3.443   4.857   3.940 -0.4710  0.5906 -0.1692
  438MOL0     C59014   3.528   4.863   4.044  0.3857 -0.5640 -0.6012
  438MOL0     C59015   3.671   4.916   4.031 -0.4654  0.3221 -0.0788
  438MOL0     C59016   3.684   5.042   4.118  0.4753  0.2281 -0.7034
  438MOL0     C59017   3.818   5.108   4.127  0.5241 -0.8126 -0.3493
  438MOL0     C59018   3.923   5.009   4.166 -0.5320 -1.0397  0.0359
  438MOL0     O59019   4.034   5.072   4.218 -0.5960 -0.3577 -0.2116
  438MOL0     C59020   4.151   5.007   4.196 -0.3429  0.6391  0.4520
  438MOL0     C59021   4.185   4.870   4.192 -0.1551  0.6013 -0.0160
  438MOL0     C59022   4.315   4.825   4.175 -0.2502 -0.0129  0.0507
  438MOL0     C59023   4.422   4.917   4.163 -0.0225  0.5452  0.1269
  438MOL0     C59024   4.560   4.873   4.155  0.5722 -0.4257 -0.3117
  438MOL0     O59025   4.652   4.968   4.201  0.6568  0.2585  0.4197
  438MOL0     C59026   4.782   4.936   4.187 -0.0887 -0.6211 -0.4758
  438MOL0     C59027   4.847   4.867   4.285  0.3558 -0.4509 -0.4804
  438MOL0     C59028   4.975   4.821   4.260 -0.4915  0.0385 -0.1330
  438MOL0     C59029   5.055   4.870   4.159 -0.0274 -0.0680  0.1642
  438MOL0     O59030   5.186   4.829   4.169 -0.2616  0.7846  0.6472
  438MOL0     C59031   5.290   4.913   4.119  0.4988  0.0999  0.1579
  438MOL0     C59032   5.428   4.857   4.163 -0.1857 -0.9683  0.3047
  438MOL0     C59033   5.472   4.727   4.098 -0.3599  0.2585  0.2140
  438MOL0     C59034   5.622   4.704   4.127 -0.9178  0.3035 -0.3773
  438MOL0     C59035   5.678   4.563   4.100 -0.2668 -0.3547  0.4971
  438MOL0     C59036   5.611   4.434   4.144  0.0338  0.2611  0.1954
  438MOL0     C59037   5.677   4.310   4.069 -0.0459 -0.1079  0.2717
  438MOL0     C59038   5.630   4.170   4.110 -0.6910 -0.1041  1.0954
  438MOL0    Cl59039   5.640   4.172   4.272  0.1775  0.0337  0.3342
  438MOL0     C59040   5.004   4.967   4.081 -0.0579  1.0352  0.0419
  438MOL0     C59041   4.865   4.995   4.090 -0.7290  0.3511 -0.3728
  438MOL0     O59042   4.589   4.766   4.115  0.0261  0.2678  0.1033
  438MOL0     C59043   4.382   5.052   4.143  0.7061  0.0098  0.5666
  438MOL0     C59044   4.247   5.094   4.161 -0.6007 -0.4520  0.7975
  438MOL0     N59045   3.460   4.804   4.154  0.1066  0.5822  0.3579
  438MOL0     N59046   3.349   4.766   4.120 -0.3843  0.6492 -0.2786
  438MOL0     C59047   2.761   4.600   3.634  0.8311  1.1604 -0.2062
  438MOL0     C59048   2.816   4.628   3.507  0.0539  0.2355 -0.2460
  438MOL0     C59049   2.972   4.814   3.133 -0.5399 -0.6069 -0.5365
  438MOL0     C59050   2.943   4.946   3.101 -0.1276  0.3434 -0.2189
  438MOL0     C59051   2.978   5.003   2.980 -0.0574 -0.5657 -0.2906
  438MOL0     C59052   3.034   4.923   2.873  0.7360  0.4725  0.0604
  438MOL0     O59053   3.075   4.969   2.752  0.2583  0.7466 -0.7007
  438MOL0     C59054   3.053   5.108   2.714  0.4099 -0.7083 -0.3039
  438MOL0     C59055   3.075   5.124   2.567  0.4642 -0.0537  0.1406
  438MOL0     C59056   3.190   5.038   2.495  0.6650 -1.0678 -0.1148
  438MOL0     C59057   3.229   5.094   2.358  0.7743 -0.0982  0.4135
  438MOL0     C59058   3.116   5.084   2.258  0.0680 -0.4401  0.0376
  438MOL0     C59059   3.020   5.090   2.176  0.0521  0.5519 -1.1605
  438MOL0     C59060   3.049   4.794   2.896  0.2570  0.4059 -0.0963
  438MOL0     C59061   3.025   4.736   3.036 -0.6624 -0.2077  1.3023
  438MOL0     C59062   3.061   4.599   3.061  0.5182 -0.0183  0.2098
  438MOL0     H59063   2.563   4.799   3.362  0.2707  0.3220  0.6464
  438MOL0     H59064   2.456   4.743   3.586  0.0022 -2.4318  2.1500
  438MOL0     H59065   2.518   4.808   3.794 -1.4454 -0.1383 -1.1031
  438MOL0     H59066   2.402   4.684   3.840  0.3438 -0.8430 -1.4722
  438MOL0     H59067   2.476   4.643   4.036  2.5344 -2.1539  1.0029
  438MOL0     H59068   2.519   4.825   4.031  2.6037  1.2368  0.0784
  438MOL0     H59069   2.735   4.610   4.001  0.7048 -0.1952 -1.0237
  438MOL0     H59070   2.711   4.725   4.134 -4.5519  1.5130  0.8699
  438MOL0     H59071   2.811   4.740   3.854 -0.9553 -3.5959  2.2554
  438MOL0     H59072   2.699   4.876   3.907 -0.4008 -0.1223  2.9263
  438MOL0     H59073   2.921   4.961   3.937 -0.3456  0.3045  2.0297
  438MOL0     H59074   2.864   4.923   4.089 -3.4099 -0.3183 -0.1937
  438MOL0     H59075   3.079   4.827   4.078  1.0255 -0.8981  0.0076
  438MOL0     H59076   2.967   4.684   4.023 -2.1212 -0.0298 -2.3644
  438MOL0     H59077   3.073   4.858   3.818 -6.9138 -0.6802  0.7506
  438MOL0     H59078   3.037   4.696   3.810  0.0161  0.8241 -0.3534
  438MOL0     H59079   3.222   4.619   3.941 -0.8237 -0.6984  0.9333
  438MOL0     H59080   3.274   4.709   3.801 -1.1634  0.1922 -0.2134
  438MOL0     H59081   3.457   4.886   3.836 -0.7629 -0.4404 -0.5037
  438MOL0     H59082   3.742   4.836   4.055 -0.6161 -0.0234 -0.7806
  438MOL0     H59083   3.687   4.937   3.925  0.3707 -1.6129 -0.3685
  438MOL0     H59084   3.603   5.106   4.082 -1.7207 -0.9249  1.7561
  438MOL0     H59085   3.651   5.023   4.221 -0.4475  5.0864  0.1514
  438MOL0     H59086   3.805   5.186   4.202 -2.0940 -1.1357 -0.3808
  438MOL0     H59087   3.830   5.160   4.032 -1.3389  2.1906  0.9178
  438MOL0     H59088   3.958   4.955   4.078  1.0512  1.6683 -1.1041
  438MOL0     H59089   3.880   4.944   4.243 -2.7427  0.3169  0.0362
  438MOL0     H59090   4.112   4.790   4.207  1.4942 -0.8452  0.7436
  438MOL0     H59091   4.337   4.719   4.187 -1.2386 -0.3613 -1.0368
  438MOL0     H59092   4.781   4.838   4.366  0.0206 -4.5016 -1.9731
  438MOL0     H59093   5.021   4.749   4.327 -0.7561 -0.3888 -0.4087
  438MOL0     H59094   5.274   4.921   4.012 -0.3469  1.9450  0.3903
  438MOL0     H59095   5.282   5.011   4.168  1.6568 -0.4131  1.4447
  438MOL0     H59096   5.498   4.941   4.150  0.5204 -1.8205 -1.8053
  438MOL0     H59097   5.429   4.845   4.272  1.1446  4.0759  1.1130
  438MOL0     H59098   5.413   4.641   4.133  1.1799 -0.1703  1.9274
  438MOL0     H59099   5.447   4.738   3.992  1.0084 -0.2257 -0.1796
  438MOL0     H59100   5.634   4.733   4.232 -1.3799  3.5188 -1.1079
  438MOL0     H59101   5.689   4.773   4.075  0.6628  0.0633  1.2510
  438MOL0     H59102   5.781   4.553   4.134  0.5229  3.2544 -0.4092
  438MOL0     H59103   5.706   4.555   3.994 -1.9363 -0.5975  0.0478
  438MOL0     H59104   5.619   4.422   4.253 -1.8982  0.8346  0.4409
  438MOL0     H59105   5.505   4.433   4.120  0.0048 -0.6962  0.3087
  438MOL0     H59106   5.784   4.324   4.088  0.3173 -0.7274 -1.1432
  438MOL0     H59107   5.652   4.327   3.964  1.1073 -1.2221 -0.2169
  438MOL0     H59108   5.527   4.154   4.078 -0.6502 -1.4796  1.5851
  438MOL0     H59109   5.699   4.098   4.064 -0.1488  0.4839  0.9670
  438MOL0     H59110   5.066   5.029   4.017 -1.2983 -1.1790 -3.6624
  438MOL0     H59111   4.831   5.074   4.023  0.7949 -0.0427 -1.6843
  438MOL0     H59112   4.458   5.130   4.135 -0.3094  0.7991 -2.4603
  438MOL0     H59113   4.221   5.199   4.155  4.2173  0.8386 -2.3274
  438MOL0     H59114   2.820   4.556   3.714 -3.8096 -0.1771  2.8727
  438MOL0     H59115   2.911   4.584   3.477 -1.6617 -1.6754 -3.4501
  438MOL0     H59116   2.896   5.015   3.169 -0.6823  2.1840 -2.3502
  438MOL0     H59117   2.974   5.109   2.956  2.6416 -0.7539 -2.1008
  438MOL0     H59118   3.107   5.186   2.769 -1.0088 -1.1814  1.9038
  438MOL0     H59119   2.948   5.131   2.734  1.0665  2.7349 -0.1344
  438MOL0     H59120   3.075   5.225   2.526  0.5685 -0.2560 -0.3716
  438MOL0     H59121   2.987   5.074   2.524 -0.3967 -0.2948  2.0828
  438MOL0     H59122   3.160   4.934   2.482  0.1030 -1.0040  0.6236
  438MOL0     H59123   3.279   5.033   2.559 -0.1058  0.3090  1.1194
  438MOL0     H59124   3.260   5.198   2.372  2.0797 -0.4075 -0.0999
  438MOL0     H59125   3.319   5.048   2.317 -1.1852 -2.5305 -1.4810
  438MOL0     H59126   2.945   5.088   2.100  0.4091  0.7961 -1.5219
  438MOL0     H59127   3.086   4.722   2.824  0.3328  0.9106 -0.5729
  438MOL0     H59128   3.143   4.618   3.131  0.5216  0.2948  0.1187
  438MOL0     H59129   2.985   4.538   3.110  1.4114 -0.6633  0.8295
  438MOL0     H59130   3.093   4.554   2.966  0.0693  2.7089 -1.3246
  439MOL0     O59131   2.972   9.748   4.999  0.6184  0.6577  0.5087
  439MOL0     C59132   3.026   9.722   4.894 -0.3380 -1.3588  0.6283
  439MOL0     O59133   3.063   9.600   4.838  0.2386 -0.4186 -0.7352
  439MOL0     C59134   3.040   9.485   4.910  0.2803 -0.3213  0.2280
  439MOL0     C59135   2.981   9.371   4.853 -0.1352  0.0632 -0.1221
  439MOL0     C59136   2.960   9.259   4.936  0.2398 -0.2324  0.5751
  439MOL0     C59137   2.984   9.259   5.077  0.3370 -0.6992  0.3021
  439MOL0     O59138   2.957   9.158   5.161 -0.1158  0.2983 -0.1780
  439MOL0     C59139   3.023   9.027   5.125  0.4589 -0.1086  0.7001
  439MOL0     C59140   3.140   8.997   5.221 -0.0050 -0.6693 -0.5623
  439MOL0     C59141   3.259   9.088   5.184  0.0577 -0.7227  0.8275
  439MOL0     C59142   3.355   9.089   5.302  0.0375 -1.0014  0.2438
  439MOL0     C59143   3.443   9.211   5.312 -0.4336 -0.9374 -0.6977
  439MOL0     C59144   3.466   9.269   5.455  0.6600  0.2779 -0.4759
  439MOL0     C59145   3.347   9.326   5.542  0.3366 -0.7012 -0.7476
  439MOL0     C59146   3.402   9.397   5.671 -0.4859  0.2750  0.4822
  439MOL0     N59147   3.304   9.479   5.744  0.8661 -0.6228  0.6875
  439MOL0     C59148   3.240   9.590   5.691  0.3128 -0.2196 -0.1218
  439MOL0     C59149   3.153   9.631   5.781 -0.1312  0.7182 -0.1132
  439MOL0     C59150   3.086   9.766   5.769 -0.2084  1.6513  0.3585
  439MOL0     C59151   2.947   9.751   5.708  0.4961 -0.1985  0.0093
  439MOL0     C59152   2.870   9.884   5.745  0.5591  0.2452  0.5238
  439MOL0     C59153   2.737   9.904   5.682 -0.4455 -1.1613  0.0427
  439MOL0     O59154   2.660   9.793   5.649  0.6591 -0.4140 -0.8277
  439MOL0     C59155   2.552   9.803   5.560 -0.6982 -0.7278  1.3618
  439MOL0     C59156   2.525   9.684   5.483  0.1088 -0.0248 -0.6296
  439MOL0     C59157   2.426   9.688   5.389 -0.7691  0.0398 -0.2257
  439MOL0     C59158   2.332   9.789   5.384  0.7077  0.8701  0.8875
  439MOL0     C59159   2.205   9.773   5.308  0.2365  0.4119 -1.5936
  439MOL0     O59160   2.117   9.873   5.319 -0.8309  0.7207  0.4834
  439MOL0     C59161   2.004   9.883   5.238  0.1713  1.3625  0.0248
  439MOL0     C59162   1.958   9.782   5.151  0.3134 -0.2525  0.6430
  439MOL0     C59163   1.844   9.810   5.074 -0.6191 -0.9153 -0.1608
  439MOL0     C59164   1.778   9.935   5.081  0.8865 -0.4462  1.1095
  439MOL0     O59165   1.671   9.960   4.997  0.5114 -0.5366  0.8477
  439MOL0     C59166   1.640   9.891   4.875  0.1114  0.2137  0.0810
  439MOL0     C59167   1.546   9.980   4.794 -0.2017 -0.2568  0.5839
  439MOL0     C59168   1.482   9.923   4.673  0.0612  0.5852 -1.0480
  439MOL0     C59169   1.378   9.815   4.705 -0.2321  0.9126 -0.4494
  439MOL0     C59170   1.308   9.774   4.575  0.2612  0.3922 -0.5574
  439MOL0     C59171   1.398   9.699   4.480  0.1485  0.5885 -0.4780
  439MOL0     C59172   1.473   9.787   4.384 -0.2661  0.0723 -0.1712
  439MOL0     C59173   1.498   9.722   4.251 -0.6142  0.0627  0.7894
  439MOL0    Cl59174   1.550   9.848   4.147 -0.2890 -0.5584 -0.2130
  439MOL0     C59175   1.822  10.032   5.170 -0.6587  0.5515 -0.0524
  439MOL0     C59176   1.934  10.007   5.247 -0.7003  0.2600 -0.9542
  439MOL0     O59177   2.198   9.671   5.237 -0.6362  1.2584 -0.3739
  439MOL0     C59178   2.350   9.900   5.466  0.1825  0.4900  0.0239
  439MOL0     C59179   2.460   9.914   5.548 -0.7917  0.6047 -1.2122
  439MOL0     N59180   3.142   9.541   5.890  0.7161 -0.0525 -0.1118
  439MOL0     N59181   3.236   9.451   5.866 -0.9596  0.1155 -0.1024
  439MOL0     C59182   3.039   9.375   5.131  0.0773  0.3363  0.1049
  439MOL0     C59183   3.071   9.480   5.045  0.0362 -0.4429  0.0254
  439MOL0     C59184   3.056   9.836   4.801 -0.6199  1.3469  0.6261
  439MOL0     C59185   3.168   9.830   4.705 -0.7201  0.6827  0.2781
  439MOL0     C59186   3.196   9.926   4.613  1.3607  0.7431  0.7736
  439MOL0     C59187   3.125  10.043   4.622  1.2648  0.3408 -0.5343
  439MOL0     O59188   3.151  10.147   4.543  0.1016  0.1078  0.0892
  439MOL0     C59189   3.296  10.194   4.547 -0.1228 -0.6114 -0.1783
  439MOL0     C59190   3.325  10.240   4.683  0.0016 -0.6616  0.2463
  439MOL0     C59191   3.414  10.372   4.675 -0.6015 -0.0472 -0.6157
  439MOL0     C59192   3.476  10.413   4.811  0.6451  0.3094 -0.0076
  439MOL0     C59193   3.580  10.311   4.842  0.0052 -0.1429 -0.0308
  439MOL0     C59194   3.672  10.232   4.856 -0.8165 -0.4568 -0.0289
  439MOL0     C59195   3.015  10.057   4.706  0.3674  0.9105 -0.4729
  439MOL0     C59196   2.974   9.950   4.793  0.7193  0.6694 -0.0919
  439MOL0     C59197   2.844   9.965   4.867  0.5369 -0.5426  0.3859
  439MOL0     H59198   2.966   9.366   4.746 -1.2933 -0.6382  0.0502
  439MOL0     H59199   2.919   9.165   4.901 -1.8453  1.7994 -3.0003
  439MOL0     H59200   2.949   8.949   5.149 -0.0362 -0.0733 -0.6030
  439MOL0     H59201   3.051   9.035   5.020 -0.8130  0.7970  0.4089
  439MOL0     H59202   3.179   8.895   5.210 -2.0271 -1.9171  2.4933
  439MOL0     H59203   3.107   9.006   5.325 -2.5431 -0.0222 -1.3432
  439MOL0     H59204   3.222   9.189   5.165  4.3000  0.5460 -2.1608
  439MOL0     H59205   3.305   9.055   5.090 -0.9340 -0.4455  0.2353
  439MOL0     H59206   3.292   9.097   5.391  2.1320  1.1068  1.6504
  439MOL0     H59207   3.412   8.995   5.303 -1.7776 -2.1956 -1.3097
  439MOL0     H59208   3.543   9.194   5.273  0.4543  2.4302 -0.2281
  439MOL0     H59209   3.417   9.289   5.239 -0.0908 -0.3797 -0.2307
  439MOL0     H59210   3.529   9.203   5.515  1.4774  1.2133 -0.2913
  439MOL0     H59211   3.534   9.353   5.441  0.0043  1.3044  1.9676
  439MOL0     H59212   3.275   9.245   5.558 -0.1237 -0.8171 -3.1260
  439MOL0     H59213   3.298   9.401   5.479  0.1473  0.2081  0.4509
  439MOL0     H59214   3.425   9.315   5.740  1.4974 -0.4102 -0.8659
  439MOL0     H59215   3.500   9.444   5.657  1.5955 -3.5622  0.7198
  439MOL0     H59216   3.273   9.655   5.610 -0.8604 -1.5016 -1.7021
  439MOL0     H59217   3.076   9.790   5.875  2.8143  0.1795  1.1118
  439MOL0     H59218   3.154   9.841   5.726  0.7187  0.3553 -0.5152
  439MOL0     H59219   2.956   9.748   5.599  4.8950  2.0648  0.0695
  439MOL0     H59220   2.884   9.666   5.735 -0.9371  0.5874 -0.7373
  439MOL0     H59221   2.940   9.967   5.729  0.4954  0.2647  0.3344
  439MOL0     H59222   2.845   9.898   5.850 -2.4849 -1.0016  0.0703
  439MOL0     H59223   2.757   9.947   5.584 -1.4498 -0.0422  0.3020
  439MOL0     H59224   2.685   9.977   5.745  0.7327  0.7822 -1.1653
  439MOL0     H59225   2.576   9.592   5.510 -1.2752 -0.6434 -0.0339
  439MOL0     H59226   2.402   9.594   5.340 -2.9933 -0.3254  1.4109
  439MOL0     H59227   2.011   9.692   5.120 -2.3987 -0.8720 -2.8270
  439MOL0     H59228   1.819   9.732   5.002  1.1264 -0.6275 -1.1270
  439MOL0     H59229   1.736   9.876   4.824  0.0709  1.6309 -0.4535
  439MOL0     H59230   1.599   9.793   4.900 -1.5076  1.3425  2.1402
  439MOL0     H59231   1.473  10.015   4.867  0.5410  0.1677  1.1376
  439MOL0     H59232   1.594  10.070   4.757  1.5446 -1.6994 -0.8505
  439MOL0     H59233   1.429  10.007   4.626  1.4472  0.2526 -3.3313
  439MOL0     H59234   1.556   9.882   4.603 -1.3638  1.4868 -3.1808
  439MOL0     H59235   1.307   9.852   4.779 -0.1832 -2.4967  1.5235
  439MOL0     H59236   1.419   9.725   4.752 -3.8378 -1.6911 -1.8582
  439MOL0     H59237   1.268   9.862   4.524  0.4508  0.1053 -1.2079
  439MOL0     H59238   1.228   9.709   4.612  1.0436 -0.5518 -0.4754
  439MOL0     H59239   1.462   9.626   4.529 -3.4919 -2.8694 -0.3328
  439MOL0     H59240   1.335   9.631   4.421 -1.6547  1.7677 -0.0118
  439MOL0     H59241   1.562   9.841   4.416 -0.5305 -0.1833  1.0262
  439MOL0     H59242   1.408   9.869   4.350 -0.5385 -0.8034 -1.9251
  439MOL0     H59243   1.578   9.648   4.265  2.0749  3.2504  5.2820
  439MOL0     H59244   1.408   9.677   4.208  1.3318 -4.7235  0.9987
  439MOL0     H59245   1.774  10.129   5.181 -1.3925  0.0539  1.4758
  439MOL0     H59246   1.993  10.090   5.286  0.3149 -0.2548 -1.3585
  439MOL0     H59247   2.273   9.976   5.471 -1.1382 -0.8566  0.9798
  439MOL0     H59248   2.470  10.002   5.611 -1.6740 -1.8498  2.6590
  439MOL0     H59249   3.077   9.393   5.231 -2.0677  2.7481  0.6009
  439MOL0     H59250   3.123   9.568   5.082 -0.9453 -0.0938  0.6172
  439MOL0     H59251   3.231   9.742   4.702  2.1460  2.5697  1.5861
  439MOL0     H59252   3.276   9.905   4.543  1.9934  0.5047  1.5553
  439MOL0     H59253   3.323  10.271   4.473  2.1782 -0.0055  1.1608
  439MOL0     H59254   3.363  10.111   4.522 -0.1264 -0.1133 -1.9673
  439MOL0     H59255   3.372  10.161   4.742 -1.6481 -0.1198  2.4294
  439MOL0     H59256   3.237  10.269   4.742  1.5094  0.7216  1.9664
  439MOL0     H59257   3.359  10.455   4.630  1.8294  1.4581 -0.9991
  439MOL0     H59258   3.497  10.356   4.605  0.4917  0.2860  0.5686
  439MOL0     H59259   3.521  10.513   4.803 -0.4800  0.6605 -3.5263
  439MOL0     H59260   3.391  10.410   4.880 -0.4356  0.3290 -1.2968
  439MOL0     H59261   3.762  10.182   4.886 -1.3861 -0.6753  1.4121
  439MOL0     H59262   2.950  10.142   4.688 -0.4263 -0.2542 -3.6703
  439MOL0     H59263   2.790  10.059   4.848  1.9822 -0.0840 -1.7367
  439MOL0     H59264   2.776   9.880   4.853  2.1536 -2.1955  1.9349
  439MOL0     H59265   2.857   9.973   4.975  0.6536  0.3778  0.3085
  440MOL0     O59266  10.110   5.992   1.829  0.2846  0.0029 -0.1952
  440MOL0     C59267  10.217   6.052   1.824  0.0822  0.3208  0.0602
  440MOL0     O59268  10.299   6.064   1.925 -0.7545  0.3411 -0.4592
  440MOL0     C59269  10.268   6.011   2.045  0.5448 -0.7256  0.3245
  440MOL0     C59270  10.293   5.881   2.067 -0.2517  0.8498 -0.5499
  440MOL0     C59271  10.253   5.822   2.194 -0.4262  0.5760  0.2052
  440MOL0     C59272  10.190   5.902   2.290 -0.0781  1.1642 -0.7224
  440MOL0     O59273  10.150   5.831   2.402 -0.0438  0.4524 -0.3584
  440MOL0     C59274  10.040   5.877   2.479 -0.2583  0.7038 -0.2574
  440MOL0     C59275  10.086   5.876   2.626  0.2135 -0.4969 -0.5829
  440MOL0     C59276  10.170   5.748   2.665  1.3468 -1.0250  0.6289
  440MOL0     C59277  10.167   5.730   2.813  0.3091 -0.1433  0.4258
  440MOL0     C59278  10.276   5.631   2.871 -0.2011  0.0468  0.6016
  440MOL0     C59279  10.284   5.634   3.025 -0.2210  0.4574 -0.3795
  440MOL0     C59280  10.386   5.527   3.068 -0.1319 -0.0206 -0.0449
  440MOL0     C59281  10.364   5.506   3.214  0.5971  0.2604  0.1747
  440MOL0     N59282  10.467   5.407   3.256 -0.7629  0.1287  0.1016
  440MOL0     C59283  10.610   5.410   3.255  1.0799 -0.5013 -0.5506
  440MOL0     C59284  10.661   5.301   3.325  0.1940 -0.0608  1.5298
  440MOL0     C59285  10.797   5.278   3.388 -0.5889  0.3390 -0.4780
  440MOL0     C59286  10.828   5.369   3.510 -0.1117 -0.8329 -0.0076
  440MOL0     C59287  10.892   5.498   3.469 -0.7323 -0.3375  0.4211
  440MOL0     C59288  10.809   5.623   3.488 -0.0278 -0.3885  0.1067
  440MOL0     O59289  10.838   5.724   3.397 -0.0302 -0.0143  0.4550
  440MOL0     C59290  10.776   5.843   3.413  0.5648  0.3354 -0.1342
  440MOL0     C59291  10.852   5.956   3.421  0.2643 -0.1728 -0.3028
  440MOL0     C59292  10.792   6.080   3.430 -0.1907  0.5238  0.8804
  440MOL0     C59293  10.648   6.091   3.416  0.0309  0.2715  0.7971
  440MOL0     C59294  10.579   6.223   3.400  0.0798 -0.1941 -1.1636
  440MOL0     O59295  10.445   6.242   3.401  0.6331 -0.1582 -0.1004
  440MOL0     C59296  10.377   6.362   3.386 -0.4091 -0.3006 -0.7164
  440MOL0     C59297  10.430   6.482   3.430 -0.7782  0.3131  0.5749
  440MOL0     C59298  10.352   6.601   3.410  0.0867  0.6521 -0.8891
  440MOL0     C59299  10.212   6.593   3.384 -0.8302  0.5295  0.8118
  440MOL0     O59300  10.125   6.698   3.381 -0.3915  0.2463  0.1239
  440MOL0     C59301  10.179   6.835   3.412 -0.4677 -0.1828  0.2401
  440MOL0     C59302  10.245   6.912   3.298  0.6371 -0.3967  0.4388
  440MOL0     C59303  10.159   6.924   3.178  0.4397 -0.4699  0.1118
  440MOL0     C59304  10.223   7.024   3.076  0.2688  0.7973  0.2445
  440MOL0     C59305  10.170   6.993   2.933 -0.8711  0.2699 -0.0894
  440MOL0     C59306  10.268   7.077   2.830  0.2059  0.6059  0.1961
  440MOL0     C59307  10.284   7.231   2.861 -0.2003 -0.1578  0.4886
  440MOL0     C59308  10.391   7.293   2.764 -0.2754  0.7321 -0.2672
  440MOL0    Cl59309  10.555   7.228   2.781 -0.1402 -0.0800 -0.1729
  440MOL0     C59310  10.165   6.473   3.343  0.5252 -0.7998  1.2317
  440MOL0     C59311  10.246   6.365   3.340  0.1527  0.0818 -0.7944
  440MOL0     O59312  10.660   6.307   3.374 -0.4096 -0.2859 -0.4735
  440MOL0     C59313  10.570   5.969   3.419 -0.2338 -0.3356  0.1544
  440MOL0     C59314  10.635   5.849   3.411 -0.0591 -0.1953  0.6760
  440MOL0     N59315  10.545   5.230   3.360  0.5021  0.1055  0.1253
  440MOL0     N59316  10.442   5.291   3.325 -0.1698  0.0420 -0.0868
  440MOL0     C59317  10.155   6.039   2.257 -0.5940  0.4835 -0.4357
  440MOL0     C59318  10.203   6.089   2.140  0.2523  1.1507 -0.2184
  440MOL0     C59319  10.276   6.107   1.699 -0.3705  0.3150  0.1824
  440MOL0     C59320  10.416   6.144   1.701  0.8489  0.1032 -0.1597
  440MOL0     C59321  10.481   6.200   1.590 -0.3849 -0.0007 -0.0451
  440MOL0     C59322  10.414   6.219   1.466  0.4636 -0.5123 -0.7772
  440MOL0     O59323  10.490   6.263   1.362  0.4095  0.6639  0.0496
  440MOL0     C59324  10.451   6.291   1.229 -0.4217  0.0958  0.9203
  440MOL0     C59325  10.535   6.199   1.141 -0.3687  0.7443 -0.6783
  440MOL0     C59326  10.692   6.224   1.160 -0.0701 -0.0262  0.6671
  440MOL0     C59327  10.767   6.142   1.057  0.4315 -1.4901  0.4886
  440MOL0     C59328  10.774   6.008   1.100  0.2293  0.4583 -0.0805
  440MOL0     C59329  10.756   5.897   1.143  0.2150 -0.1872 -0.5187
  440MOL0     C59330  10.281   6.189   1.462  0.5572  0.2373  0.4385
  440MOL0     C59331  10.210   6.131   1.573 -0.6004 -0.1832 -0.1727
  440MOL0     C59332  10.061   6.105   1.561 -0.1004 -0.0254 -0.3887
  440MOL0     H59333  10.350   5.824   1.994  0.0704  1.0458 -0.4550
  440MOL0     H59334  10.287   5.721   2.215 -1.0516  0.7139  2.1167
  440MOL0     H59335  10.003   5.974   2.445  1.9024  0.1443 -4.9525
  440MOL0     H59336   9.955   5.809   2.472  0.5788 -1.0239  3.6759
  440MOL0     H59337   9.996   5.868   2.687 -0.9212 -2.1857 -2.3464
  440MOL0     H59338  10.136   5.969   2.654 -2.4235  1.1536 -1.0773
  440MOL0     H59339  10.274   5.750   2.630  1.7405 -0.0267  1.8180
  440MOL0     H59340  10.120   5.665   2.614 -0.4311 -0.1847  0.9296
  440MOL0     H59341  10.193   5.828   2.854  0.4385 -0.1375  0.3282
  440MOL0     H59342  10.064   5.703   2.838  0.3516  0.7780  1.6793
  440MOL0     H59343  10.273   5.536   2.818 -3.9533  0.6342 -0.5463
  440MOL0     H59344  10.368   5.681   2.840 -1.1405  1.3493 -0.1838
  440MOL0     H59345  10.294   5.741   3.046 -0.5401  0.8919 -2.2007
  440MOL0     H59346  10.189   5.598   3.067  0.1473  0.4675  0.4837
  440MOL0     H59347  10.486   5.567   3.051 -0.4129  0.4470 -0.6925
  440MOL0     H59348  10.368   5.430   3.021 -1.8755 -0.3919  1.2561
  440MOL0     H59349  10.390   5.599   3.265  3.6912  0.1496 -1.0309
  440MOL0     H59350  10.269   5.469   3.255  1.2339 -0.8153  0.7242
  440MOL0     H59351  10.670   5.495   3.226  1.8273 -1.4841 -2.0198
  440MOL0     H59352  10.806   5.174   3.418  0.5285  0.8516  1.0703
  440MOL0     H59353  10.874   5.297   3.312 -0.0630  6.6435  1.0059
  440MOL0     H59354  10.738   5.396   3.566 -1.1494 -2.0486 -1.0377
  440MOL0     H59355  10.897   5.326   3.584  2.3517  2.8389  0.1190
  440MOL0     H59356  10.919   5.480   3.365 -2.7777 -0.2069 -0.1915
  440MOL0     H59357  10.991   5.515   3.512 -0.0158 -4.5294  0.8481
  440MOL0     H59358  10.833   5.669   3.585  0.1264 -0.3862  0.0675
  440MOL0     H59359  10.704   5.597   3.476  0.0837 -0.1764 -1.4408
  440MOL0     H59360  10.960   5.949   3.411  0.0732 -0.9260 -2.1638
  440MOL0     H59361  10.865   6.160   3.435  0.1270  0.6844 -3.0277
  440MOL0     H59362  10.533   6.497   3.458 -0.1942 -1.3074 -0.5588
  440MOL0     H59363  10.399   6.698   3.424  1.4282 -0.2146  0.9883
  440MOL0     H59364  10.082   6.878   3.441 -1.7758 -1.1624 -2.3558
  440MOL0     H59365  10.251   6.841   3.494  0.0134  0.8939 -0.2459
  440MOL0     H59366  10.268   7.018   3.317 -0.6301  0.0561 -0.3975
  440MOL0     H59367  10.332   6.851   3.270  1.2913 -0.0790  1.7006
  440MOL0     H59368  10.142   6.825   3.135  0.2303  0.2601 -1.5523
  440MOL0     H59369  10.060   6.958   3.208  0.7232  1.8223 -1.3740
  440MOL0     H59370  10.331   7.008   3.073  0.4193  1.8109 -1.4439
  440MOL0     H59371  10.202   7.130   3.095  1.7545  1.1156  0.2147
  440MOL0     H59372  10.065   7.021   2.918 -0.8948 -0.4213 -1.4266
  440MOL0     H59373  10.179   6.886   2.915 -2.6561 -0.0481  0.6288
  440MOL0     H59374  10.366   7.028   2.824 -0.4847 -0.8236  0.2707
  440MOL0     H59375  10.226   7.074   2.729 -1.0716 -1.3659  0.7179
  440MOL0     H59376  10.310   7.240   2.967 -1.0797  1.6327  0.5885
  440MOL0     H59377  10.193   7.291   2.850  1.1296  1.6448 -1.7675
  440MOL0     H59378  10.359   7.271   2.662  1.1259 -0.8425 -0.4021
  440MOL0     H59379  10.383   7.402   2.773 -1.7721  0.8791 -2.5613
  440MOL0     H59380  10.059   6.469   3.320  0.9391 -0.1004 -1.0279
  440MOL0     H59381  10.202   6.275   3.297  1.7473 -0.1263 -2.0557
  440MOL0     H59382  10.464   5.981   3.399 -0.0894  3.2454  0.7486
  440MOL0     H59383  10.579   5.757   3.396  0.0805 -0.2004  0.1588
  440MOL0     H59384  10.122   6.103   2.338 -2.3858  0.5027 -1.1501
  440MOL0     H59385  10.187   6.193   2.112  0.7710  0.5981 -2.7272
  440MOL0     H59386  10.476   6.118   1.787  1.6651 -2.1706 -1.3158
  440MOL0     H59387  10.580   6.240   1.607 -1.2021  1.0032  3.0853
  440MOL0     H59388  10.483   6.390   1.196 -2.6475  0.1000 -1.5100
  440MOL0     H59389  10.345   6.284   1.203 -0.4627 -0.2449  1.1607
  440MOL0     H59390  10.523   6.231   1.037  0.3291 -0.2911 -1.0942
  440MOL0     H59391  10.505   6.095   1.151 -3.0595  1.4862 -0.1574
  440MOL0     H59392  10.730   6.192   1.258  1.7912  3.7571  1.3463
  440MOL0     H59393  10.725   6.327   1.144  2.5184 -0.6935  1.2585
  440MOL0     H59394  10.718   6.155   0.960  2.7800  1.1585 -0.5137
  440MOL0     H59395  10.858   6.202   1.049 -0.8561  1.6853  5.2422
  440MOL0     H59396  10.764   5.809   1.204  0.2982  1.5886  2.2317
  440MOL0     H59397  10.236   6.190   1.363  2.1955  2.0055 -0.3558
  440MOL0     H59398  10.025   6.172   1.483 -1.4744  0.5472  0.6945
  440MOL0     H59399  10.042   6.001   1.532 -0.4372  0.4164 -1.8407
  440MOL0     H59400  10.007   6.123   1.654  0.7923 -1.9105  0.5582
  441MOL0     O59401   8.800  10.720   6.113 -0.1355 -0.2806 -0.1057
  441MOL0     C59402   8.747  10.620   6.062  0.1461  0.1965  0.5572
  441MOL0     O59403   8.796  10.492   6.060  0.1196 -0.6113 -0.1870
  441MOL0     C59404   8.908  10.464   6.127 -1.3716  0.3535  0.5728
  441MOL0     C59405   9.025  10.490   6.059 -0.6062  0.0547  0.2494
  441MOL0     C59406   9.142  10.437   6.114 -0.0335  0.1179 -0.2432
  441MOL0     C59407   9.139  10.375   6.245  0.0288 -0.3971  0.3858
  441MOL0     O59408   9.254  10.331   6.308 -0.8021 -0.5286  0.1646
  441MOL0     C59409   9.385  10.338   6.244  0.0264  0.0698  0.1064
  441MOL0     C59410   9.500  10.268   6.326  0.2203 -0.2027 -0.0761
  441MOL0     C59411   9.526  10.330   6.465 -0.2732 -0.6351  0.1177
  441MOL0     C59412   9.631  10.440   6.471 -0.4036 -0.7444  0.5242
  441MOL0     C59413   9.652  10.475   6.613  0.2258  0.4342  0.6140
  441MOL0     C59414   9.755  10.585   6.640  0.6001 -0.1773 -0.8732
  441MOL0     C59415   9.717  10.726   6.593 -0.1327  0.3080  0.4395
  441MOL0     C59416   9.576  10.770   6.606  0.8642 -0.0802  0.5646
  441MOL0     N59417   9.520  10.793   6.748 -0.0826  0.8170 -0.4708
  441MOL0     C59418   9.550  10.903   6.826  0.4302  0.9286 -0.5692
  441MOL0     C59419   9.442  10.902   6.908 -0.3412  0.3817 -0.4413
  441MOL0     C59420   9.409  10.991   7.019 -0.0705 -0.2381  0.2319
  441MOL0     C59421   9.518  11.076   7.093 -0.1292 -0.5392  0.0974
  441MOL0     C59422   9.460  11.150   7.217  0.0396 -0.4255  0.1574
  441MOL0     C59423   9.565  11.256   7.259 -0.1108 -0.5647 -0.3862
  441MOL0     O59424   9.549  11.366   7.167  0.0132  0.5881  0.1509
  441MOL0     C59425   9.645  11.456   7.159 -0.1582 -0.3243  0.2620
  441MOL0     C59426   9.647  11.546   7.047 -0.3882 -1.0236  0.0190
  441MOL0     C59427   9.726  11.646   7.042 -0.6476 -0.2505  0.2096
  441MOL0     C59428   9.805  11.688   7.148 -0.0911 -1.1114  0.0959
  441MOL0     C59429   9.872  11.819   7.152 -0.5928  0.0275 -0.0677
  441MOL0     O59430   9.941  11.843   7.266 -0.7363 -0.3297 -0.1545
  441MOL0     C59431  10.000  11.952   7.320  0.7595 -0.4153 -0.9278
  441MOL0     C59432   9.967  12.084   7.293 -0.0884 -0.6857 -0.7626
  441MOL0     C59433  10.033  12.192   7.349 -0.4613  0.3446 -0.2519
  441MOL0     C59434  10.143  12.167   7.433 -0.8478  0.4451  0.3960
  441MOL0     O59435  10.212  12.278   7.474  0.4324  0.5446  0.3781
  441MOL0     C59436  10.349  12.260   7.499  0.1965  0.1307  0.2829
  441MOL0     C59437  10.412  12.393   7.517  0.6007  0.7550  0.2089
  441MOL0     C59438  10.554  12.387   7.587  0.4077  0.2202 -1.0171
  441MOL0     C59439  10.633  12.275   7.525  0.9175 -0.1152  1.0807
  441MOL0     C59440  10.779  12.300   7.524  0.2762  0.1507  0.2835
  441MOL0     C59441  10.840  12.290   7.663 -0.6870  0.5087 -0.2572
  441MOL0     C59442  11.001  12.305   7.657 -0.6097 -0.1341  0.2079
  441MOL0     C59443  11.052  12.430   7.735  0.0028 -0.7624  0.2867
  441MOL0    Cl59444  11.049  12.396   7.913 -0.6078  0.7709  0.3483
  441MOL0     C59445  10.172  12.034   7.469 -0.5439 -0.5612  0.4094
  441MOL0     C59446  10.091  11.928   7.414 -0.0267 -0.1307 -0.3587
  441MOL0     O59447   9.863  11.884   7.045  0.0871 -0.6333 -0.6293
  441MOL0     C59448   9.800  11.608   7.262 -0.6261 -0.0216 -0.0143
  441MOL0     C59449   9.728  11.487   7.262  1.6346 -0.6131 -0.5396
  441MOL0     N59450   9.358  10.789   6.887  0.2344  0.0069 -0.8139
  441MOL0     N59451   9.409  10.723   6.790 -0.1940 -0.0230 -0.6833
  441MOL0     C59452   9.011  10.349   6.306  0.2111 -0.9418 -0.3740
  441MOL0     C59453   8.897  10.403   6.245  0.3467  0.0602 -0.3770
  441MOL0     C59454   8.617  10.649   5.988  0.3133  0.1738  0.6169
  441MOL0     C59455   8.556  10.768   6.014  1.3870  0.7773  0.1717
  441MOL0     C59456   8.446  10.811   5.944 -0.5439 -0.0032  0.2833
  441MOL0     C59457   8.384  10.732   5.847  0.7545  0.6422 -0.6228
  441MOL0     O59458   8.273  10.762   5.770 -0.6481 -0.0239 -0.7076
  441MOL0     C59459   8.179  10.863   5.820  0.9507  0.3275  0.1092
  441MOL0     C59460   8.040  10.870   5.745 -0.3976 -0.2720  0.0762
  441MOL0     C59461   8.041  10.914   5.593 -0.1183 -0.4831  0.0800
  441MOL0     C59462   8.098  11.051   5.567  0.5422  0.2102 -0.6437
  441MOL0     C59463   8.055  11.146   5.660  0.5729  0.5840 -1.1455
  441MOL0     C59464   8.025  11.231   5.744  0.6651  0.2478 -0.3554
  441MOL0     C59465   8.442  10.603   5.832 -0.1068 -0.0732 -0.7859
  441MOL0     C59466   8.559  10.561   5.893  0.3388 -0.3087 -0.8838
  441MOL0     C59467   8.611  10.420   5.857 -0.1374  0.5256  0.9798
  441MOL0     H59468   9.027  10.533   5.959 -0.1607 -4.7936 -2.1784
  441MOL0     H59469   9.231  10.429   6.053  1.9929  0.1388  2.5426
  441MOL0     H59470   9.367  10.284   6.150 -1.1312 -0.7435  0.7665
  441MOL0     H59471   9.394  10.446   6.232 -0.4075 -0.1936 -4.0989
  441MOL0     H59472   9.594  10.294   6.276  0.6979  1.9086  1.7203
  441MOL0     H59473   9.488  10.160   6.334 -0.8856 -0.1374 -0.6999
  441MOL0     H59474   9.568  10.248   6.524  4.2274  1.8915  0.9101
  441MOL0     H59475   9.438  10.362   6.521  1.1148  1.8675  1.0317
  441MOL0     H59476   9.728  10.402   6.437  0.6018  3.2568 -1.6349
  441MOL0     H59477   9.607  10.525   6.406  1.6573 -0.7445 -0.3051
  441MOL0     H59478   9.550  10.501   6.643  0.4123  1.2505  0.5761
  441MOL0     H59479   9.683  10.382   6.660  0.4061 -1.2413 -2.5288
  441MOL0     H59480   9.741  10.595   6.748 -3.5582  2.3941 -1.4400
  441MOL0     H59481   9.859  10.558   6.620  1.2361 -0.2522  2.0600
  441MOL0     H59482   9.744  10.743   6.488  0.6043 -1.4386  0.3025
  441MOL0     H59483   9.771  10.797   6.656 -2.0340  2.7093 -0.4889
  441MOL0     H59484   9.577  10.866   6.553  2.2363 -0.8386 -0.8435
  441MOL0     H59485   9.508  10.700   6.557  2.9791 -1.6553 -0.2308
  441MOL0     H59486   9.623  10.981   6.812  2.3135 -0.4734  0.8678
  441MOL0     H59487   9.341  11.064   6.974  0.0721 -0.8423 -0.9872
  441MOL0     H59488   9.359  10.935   7.099  0.3733  1.1906  1.5735
  441MOL0     H59489   9.596  11.010   7.132  0.2720  0.5003  1.1483
  441MOL0     H59490   9.561  11.142   7.017  0.1313 -1.6929 -0.7711
  441MOL0     H59491   9.438  11.083   7.301 -1.7111  0.1175  0.1618
  441MOL0     H59492   9.370  11.208   7.197 -0.2921 -1.4676 -1.5075
  441MOL0     H59493   9.667  11.219   7.267  1.1823  2.8317  0.3377
  441MOL0     H59494   9.535  11.296   7.356  0.7691  0.5810 -0.5674
  441MOL0     H59495   9.586  11.531   6.959  0.1437  2.3256 -1.0554
  441MOL0     H59496   9.726  11.704   6.950 -2.1485  1.4481  1.2232
  441MOL0     H59497   9.880  12.110   7.234 -0.1917  0.9874  0.0693
  441MOL0     H59498   9.993  12.291   7.329 -0.6205  0.3717  0.1707
  441MOL0     H59499  10.378  12.196   7.583  2.1895 -0.7577 -1.0052
  441MOL0     H59500  10.386  12.221   7.403  2.6251  1.3913  0.6234
  441MOL0     H59501  10.428  12.435   7.418  0.4637 -2.5889 -1.3544
  441MOL0     H59502  10.340  12.458   7.569 -0.7383 -2.7042  3.1373
  441MOL0     H59503  10.608  12.477   7.556  0.5409  0.0661 -1.2310
  441MOL0     H59504  10.555  12.390   7.696  3.0834 -1.7622 -0.8911
  441MOL0     H59505  10.597  12.264   7.422 -0.1635  0.8374  1.3409
  441MOL0     H59506  10.605  12.183   7.577 -4.3473  0.6982  0.1886
  441MOL0     H59507  10.805  12.396   7.478  1.4674  0.4152  1.4594
  441MOL0     H59508  10.831  12.224   7.465 -1.5804 -2.3482  1.6795
  441MOL0     H59509  10.805  12.371   7.728  1.2709  1.0754  0.1521
  441MOL0     H59510  10.812  12.203   7.724  1.5711  0.0570  0.2437
  441MOL0     H59511  11.031  12.323   7.554 -0.5250  1.7276  0.5295
  441MOL0     H59512  11.044  12.213   7.699 -0.1060  0.2180  0.4747
  441MOL0     H59513  11.158  12.435   7.711  0.3302 -2.0666  1.3749
  441MOL0     H59514  11.002  12.521   7.700  0.1454 -1.1527 -0.9874
  441MOL0     H59515  10.253  12.024   7.541 -1.5645 -0.0661  1.6676
  441MOL0     H59516  10.110  11.827   7.447  0.1236  0.2194  0.6430
  441MOL0     H59517   9.878  11.630   7.335  0.3206 -0.4327 -0.8803
  441MOL0     H59518   9.732  11.421   7.348  0.3002 -0.5995 -0.4542
  441MOL0     H59519   8.996  10.308   6.405  0.9674 -0.1613  0.0801
  441MOL0     H59520   8.805  10.376   6.296  2.4527  1.8468  5.1160
  441MOL0     H59521   8.593  10.833   6.092 -0.5284  0.7225  1.2014
  441MOL0     H59522   8.415  10.914   5.956 -1.2391 -0.2277  0.4715
  441MOL0     H59523   8.223  10.963   5.821  0.4417  0.6102 -1.6406
  441MOL0     H59524   8.136  10.835   5.917  0.8996  1.6547  0.4811
  441MOL0     H59525   7.981  10.938   5.807  0.2740  1.4633 -1.0994
  441MOL0     H59526   8.003  10.768   5.754 -2.5890  0.6351  2.7245
  441MOL0     H59527   7.939  10.908   5.554 -0.3551 -0.0781  0.6204
  441MOL0     H59528   8.107  10.841   5.544  0.2063  2.4883 -4.5681
  441MOL0     H59529   8.207  11.041   5.572  0.6010  0.7641 -0.7680
  441MOL0     H59530   8.058  11.075   5.468  0.3534  0.0925 -0.5956
  441MOL0     H59531   8.007  11.291   5.831  3.2322 -1.6715  1.6700
  441MOL0     H59532   8.395  10.548   5.751 -4.6034  2.2365 -0.0683
  441MOL0     H59533   8.631  10.371   5.953  0.7312  0.6154  0.8556
  441MOL0     H59534   8.537  10.367   5.796 -0.5842  0.0905  1.8872
  441MOL0     H59535   8.700  10.430   5.794 -0.4441  1.8044  0.7299
  442MOL0     O59536   6.255   8.844  10.821  0.4513  0.5345 -0.7669
  442MOL0     C59537   6.141   8.888  10.848 -0.3618  0.2126  0.6592
  442MOL0     O59538   6.059   8.939  10.747 -0.3138 -0.1601  0.4563
  442MOL0     C59539   6.103   8.952  10.621 -0.0952  0.2124  0.2563
  442MOL0     C59540   6.207   9.034  10.577 -0.5034  0.2125 -0.5899
  442MOL0     C59541   6.241   9.046  10.450 -0.7380 -0.6531  0.0179
  442MOL0     C59542   6.198   8.956  10.354  0.7284 -0.2051  0.7853
  442MOL0     O59543   6.226   8.947  10.218 -0.4364 -0.1771  0.3999
  442MOL0     C59544   6.325   9.039  10.174 -0.4083 -0.9771 -0.1357
  442MOL0     C59545   6.259   9.180  10.168  0.4580  0.4202  0.5825
  442MOL0     C59546   6.362   9.297  10.199  0.2351  0.0063  0.0118
  442MOL0     C59547   6.333   9.419  10.109  0.4281 -0.4381  0.3441
  442MOL0     C59548   6.421   9.533  10.156  0.4505 -1.2049  0.2266
  442MOL0     C59549   6.422   9.650  10.045  0.4863 -0.1435  0.9848
  442MOL0     C59550   6.498   9.774  10.089  0.0465 -0.3690  0.2908
  442MOL0     C59551   6.646   9.762  10.082 -0.2928 -0.4369 -0.2770
  442MOL0     N59552   6.708   9.896  10.096  0.0198 -0.0351  0.1577
  442MOL0     C59553   6.706   9.964  10.211  0.1001 -0.9206 -0.1587
  442MOL0     C59554   6.764  10.088  10.181  0.9502 -0.8881  0.4511
  442MOL0     C59555   6.804  10.178  10.280  0.2545 -0.3294 -0.8038
  442MOL0     C59556   6.951  10.213  10.280 -0.4161 -0.2810 -0.8332
  442MOL0     C59557   6.976  10.321  10.394  0.2905  0.0361 -0.2395
  442MOL0     C59558   7.125  10.370  10.380 -0.1901  0.2284 -0.5551
  442MOL0     O59559   7.163  10.474  10.479 -0.0500  0.0108  0.3399
  442MOL0     C59560   7.295  10.517  10.498  0.4542 -0.5859 -0.8168
  442MOL0     C59561   7.414  10.475  10.429  0.1352  0.2599  0.3176
  442MOL0     C59562   7.541  10.528  10.450  0.0708  0.5203 -0.3463
  442MOL0     C59563   7.563  10.622  10.554  0.5650  0.6225 -0.4664
  442MOL0     C59564   7.696  10.666  10.588  0.4679 -0.4778  0.3370
  442MOL0     O59565   7.709  10.749  10.698  0.0330 -0.2608 -1.3734
  442MOL0     C59566   7.812  10.839  10.714  0.5641  0.2555  0.8050
  442MOL0     C59567   7.883  10.851  10.833 -0.4862 -0.9584 -0.8264
  442MOL0     C59568   7.992  10.932  10.834 -0.0786 -0.7076  0.4811
  442MOL0     C59569   8.022  11.011  10.721 -0.4175 -0.1045  0.6154
  442MOL0     O59570   8.128  11.093  10.694 -0.4170 -0.3224  0.7596
  442MOL0     C59571   8.205  11.159  10.796  0.2205  0.6900  0.6968
  442MOL0     C59572   8.151  11.300  10.820 -0.3996 -0.4841  0.3374
  442MOL0     C59573   8.124  11.394  10.699  0.4644  1.1925  0.0908
  442MOL0     C59574   8.077  11.530  10.743 -0.0051 -0.3570  0.6625
  442MOL0     C59575   8.043  11.620  10.625 -0.8397  0.1576  0.6183
  442MOL0     C59576   8.168  11.686  10.569 -0.2614 -0.0151  0.1721
  442MOL0     C59577   8.127  11.804  10.458 -0.7825  0.3472 -0.1114
  442MOL0     C59578   8.234  11.858  10.362  0.0083  0.5828 -1.3686
  442MOL0    Cl59579   8.159  11.939  10.230  0.1349 -0.0026 -0.4608
  442MOL0     C59580   7.944  11.015  10.609  0.7679 -0.3232  0.5803
  442MOL0     C59581   7.846  10.922  10.604  0.4871  0.5576 -0.3403
  442MOL0     O59582   7.781  10.624  10.514  0.2666 -0.0527 -0.4215
  442MOL0     C59583   7.450  10.651  10.629  0.3548  0.1101 -0.0619
  442MOL0     C59584   7.312  10.613  10.608  1.1548  0.5347  1.1290
  442MOL0     N59585   6.811  10.085  10.049 -0.2043 -0.8229  1.3140
  442MOL0     N59586   6.768   9.969  10.003 -1.1083  0.0627  0.3071
  442MOL0     C59587   6.095   8.865  10.395 -0.2972  0.1661 -0.4548
  442MOL0     C59588   6.045   8.869  10.529  0.4195  0.6347 -0.3359
  442MOL0     C59589   6.083   8.880  10.982  0.3281  0.7726 -0.2505
  442MOL0     C59590   6.154   8.827  11.081  0.4326 -0.6226  0.2395
  442MOL0     C59591   6.114   8.802  11.211  0.0754 -0.2580  0.6070
  442MOL0     C59592   5.981   8.826  11.250 -0.9391  0.5681 -0.1548
  442MOL0     O59593   5.930   8.785  11.372 -0.0549  0.6098 -0.1985
  442MOL0     C59594   6.006   8.686  11.446  0.8193 -0.3529  0.7814
  442MOL0     C59595   5.917   8.626  11.548 -0.6291 -0.1876  0.0421
  442MOL0     C59596   5.858   8.734  11.643  0.3622 -0.5487 -0.4925
  442MOL0     C59597   5.961   8.784  11.743 -0.0025  0.9815  0.2330
  442MOL0     C59598   5.934   8.908  11.808 -0.5255 -0.3420 -0.8706
  442MOL0     C59599   5.915   9.015  11.861 -0.6218  0.0670  0.2803
  442MOL0     C59600   5.900   8.897  11.158  0.1393  0.6127  0.5096
  442MOL0     C59601   5.950   8.923  11.022 -0.6651  0.3091 -0.4470
  442MOL0     C59602   5.848   8.998  10.935 -0.4216 -0.2383  0.4211
  442MOL0     H59603   6.257   9.096  10.652 -1.5484 -1.9452  2.0589
  442MOL0     H59604   6.325   9.113  10.434 -2.0405  0.9254 -0.5020
  442MOL0     H59605   6.409   9.039  10.243 -2.1032 -1.4099  2.0605
  442MOL0     H59606   6.362   9.009  10.076 -0.9619  4.1970 -2.2442
  442MOL0     H59607   6.175   9.179  10.237  1.1433  1.5202  1.4741
  442MOL0     H59608   6.206   9.193  10.073  0.5353  2.1111  0.7370
  442MOL0     H59609   6.465   9.268  10.177  0.1204 -1.6439  1.4528
  442MOL0     H59610   6.362   9.330  10.303 -1.0680  0.2200 -0.0402
  442MOL0     H59611   6.356   9.409  10.003 -1.6007  2.4704 -0.4805
  442MOL0     H59612   6.228   9.444  10.125  1.3132  2.8584  1.8408
  442MOL0     H59613   6.386   9.578  10.249  0.8502  1.4968 -0.8456
  442MOL0     H59614   6.523   9.495  10.168  0.4743 -1.4243 -0.6346
  442MOL0     H59615   6.465   9.618   9.950 -0.2479 -0.2453  0.6817
  442MOL0     H59616   6.317   9.676  10.031  0.0083 -2.1058  0.6451
  442MOL0     H59617   6.460   9.800  10.188 -1.4007 -2.8496  0.4836
  442MOL0     H59618   6.482   9.850  10.012  1.0422 -2.2209 -1.8640
  442MOL0     H59619   6.674   9.701  10.169  4.1521 -0.5785 -1.5436
  442MOL0     H59620   6.670   9.716   9.986 -1.6310 -0.1480 -0.7650
  442MOL0     H59621   6.669   9.929  10.307  0.1906  2.2755  1.1661
  442MOL0     H59622   6.743  10.269  10.280  0.3483 -0.1597  2.0816
  442MOL0     H59623   6.783  10.133  10.377 -0.4277  1.5106 -0.0404
  442MOL0     H59624   6.999  10.116  10.299  2.4388  1.2099  0.1734
  442MOL0     H59625   6.997  10.252  10.189  1.1908 -1.8105 -0.7351
  442MOL0     H59626   6.952  10.276  10.491 -1.0782 -1.5613 -1.2522
  442MOL0     H59627   6.910  10.408  10.386 -0.3562 -0.4005  0.2492
  442MOL0     H59628   7.147  10.394  10.275 -1.0348  0.3327 -0.7144
  442MOL0     H59629   7.192  10.287  10.403  1.9706  2.8461  4.0545
  442MOL0     H59630   7.395  10.398  10.355 -1.2872 -1.3603  2.2352
  442MOL0     H59631   7.625  10.494  10.390 -0.9325  1.3936 -2.3306
  442MOL0     H59632   7.863  10.778  10.911 -0.3861 -1.0500 -0.8858
  442MOL0     H59633   8.045  10.939  10.928 -0.2447  0.0897  0.5306
  442MOL0     H59634   8.213  11.104  10.890 -0.8462  0.1575  0.4948
  442MOL0     H59635   8.308  11.172  10.762  0.7352  2.0050  2.6301
  442MOL0     H59636   8.052  11.283  10.865 -0.5690 -0.9114 -0.1922
  442MOL0     H59637   8.210  11.359  10.891 -1.4126  3.7090 -1.9545
  442MOL0     H59638   8.219  11.399  10.645 -0.1976  0.6821 -1.1537
  442MOL0     H59639   8.052  11.347  10.632  0.0147 -3.3964  3.3238
  442MOL0     H59640   8.155  11.573  10.807  1.7806 -1.6005 -0.5873
  442MOL0     H59641   7.981  11.516  10.794 -0.7165  0.2465 -0.4845
  442MOL0     H59642   7.967  11.693  10.651 -0.5500  0.4601  0.6265
  442MOL0     H59643   8.003  11.559  10.543  1.7976  3.3034 -3.4097
  442MOL0     H59644   8.213  11.738  10.654 -3.6576 -0.1772  2.2412
  442MOL0     H59645   8.231  11.609  10.523  0.0977  1.6734 -2.3497
  442MOL0     H59646   8.104  11.895  10.515 -2.7884 -1.5900  2.4147
  442MOL0     H59647   8.042  11.771  10.397 -0.6783  0.8857 -0.5528
  442MOL0     H59648   8.306  11.927  10.406 -0.5421  2.9113 -3.8420
  442MOL0     H59649   8.297  11.777  10.323 -1.7342 -1.7460  0.3258
  442MOL0     H59650   7.966  11.073  10.520  1.3904  0.6518  1.3509
  442MOL0     H59651   7.779  10.905  10.521 -0.9146  1.4138  0.5733
  442MOL0     H59652   7.464  10.720  10.712  1.3169  0.7070 -0.7001
  442MOL0     H59653   7.228  10.651  10.664 -0.7383 -0.7677 -0.6612
  442MOL0     H59654   6.059   8.798  10.318 -0.1541  2.5822 -2.7328
  442MOL0     H59655   5.965   8.802  10.559  1.6955 -0.4303  0.7798
  442MOL0     H59656   6.259   8.802  11.069  0.1654 -0.7900 -2.3432
  442MOL0     H59657   6.192   8.773  11.280 -0.5490 -0.3058  1.3112
  442MOL0     H59658   6.088   8.746  11.487 -0.4655  2.5020 -0.5599
  442MOL0     H59659   6.043   8.610  11.377  0.7379  0.7174 -0.4915
  442MOL0     H59660   5.974   8.550  11.602 -0.7673 -1.5041 -1.5622
  442MOL0     H59661   5.842   8.568  11.493  1.2060 -1.3322 -1.3590
  442MOL0     H59662   5.778   8.690  11.703 -0.9549  1.5014 -0.6529
  442MOL0     H59663   5.813   8.819  11.591 -3.2303  1.0913  4.5586
  442MOL0     H59664   5.978   8.701  11.812 -1.3867 -1.7141 -2.4118
  442MOL0     H59665   6.059   8.803  11.698  1.0035 -0.7295  1.5754
  442MOL0     H59666   5.896   9.109  11.908  0.4004  0.3520  0.1272
  442MOL0     H59667   5.796   8.914  11.184  0.0136 -0.8942  1.1054
  442MOL0     H59668   5.890   9.074  10.869 -0.2040 -2.1503 -1.7621
  442MOL0     H59669   5.791   8.927  10.874  1.2242 -0.9588 -0.3407
  442MOL0     H59670   5.790   9.062  11.002 -0.7866 -0.4446  0.3045
  443MOL0     O59671   8.181   0.481   5.194  0.3019  0.5667 -1.0031
  443MOL0     C59672   8.100   0.391   5.166  0.1155  0.4757 -0.2010
  443MOL0     O59673   8.089   0.272   5.233  0.3167  0.4347 -0.1323
  443MOL0     C59674   8.162   0.251   5.344  0.1464  0.1552  0.0013
  443MOL0     C59675   8.148   0.327   5.461 -0.2390  0.5495  0.4678
  443MOL0     C59676   8.238   0.306   5.567  0.8325 -0.4492  0.2683
  443MOL0     C59677   8.334   0.208   5.560 -0.2236 -0.1609 -0.4625
  443MOL0     O59678   8.421   0.176   5.660  0.1855 -0.1671  0.4904
  443MOL0     C59679   8.371   0.158   5.790 -0.0705  0.2945  0.3201
  443MOL0     C59680   8.313   0.019   5.809 -0.0555 -1.4030 -0.8090
  443MOL0     C59681   8.402  -0.101   5.756  0.0223  0.1315  0.3269
  443MOL0     C59682   8.493  -0.161   5.867 -0.2342 -0.6227 -0.4642
  443MOL0     C59683   8.594  -0.258   5.807 -0.3745  0.6687 -0.5007
  443MOL0     C59684   8.693  -0.309   5.910  0.3507  0.4443  0.4350
  443MOL0     C59685   8.799  -0.400   5.841  0.4074 -0.1078 -1.2798
  443MOL0     C59686   8.904  -0.454   5.938 -0.9786  0.2125 -0.0545
  443MOL0     N59687   9.003  -0.506   5.843 -0.2015  1.0653 -0.2939
  443MOL0     C59688   9.130  -0.473   5.817  0.7107 -0.2964 -0.2461
  443MOL0     C59689   9.189  -0.573   5.747  0.5758 -0.1056 -0.6417
  443MOL0     C59690   9.323  -0.574   5.697  0.3743  0.2065  0.0977
  443MOL0     C59691   9.413  -0.632   5.807  0.5808  0.2041  0.0132
  443MOL0     C59692   9.395  -0.775   5.835 -0.1731  0.3491  0.4462
  443MOL0     C59693   9.410  -0.871   5.710  0.3936  0.4448 -0.6909
  443MOL0     O59694   9.434  -1.008   5.773  0.1571 -0.9867  0.0330
  443MOL0     C59695   9.557  -1.024   5.829 -0.4681  0.1627 -0.0481
  443MOL0     C59696   9.672  -0.946   5.806 -0.1423  0.6033 -0.2118
  443MOL0     C59697   9.798  -0.995   5.863  0.7915 -0.8326  0.6764
  443MOL0     C59698   9.811  -1.123   5.928  0.5610 -0.4128  0.9221
  443MOL0     C59699   9.940  -1.165   5.985  0.1502 -0.3830 -0.7396
  443MOL0     O59700   9.935  -1.277   6.077 -0.5357 -0.0416  0.1453
  443MOL0     C59701  10.044  -1.340   6.123  0.5704  0.7527  0.3493
  443MOL0     C59702  10.045  -1.393   6.255 -0.0570  0.7836 -0.0245
  443MOL0     C59703  10.162  -1.456   6.311 -0.3105  0.5195  0.9396
  443MOL0     C59704  10.266  -1.489   6.225 -0.3514  0.2004 -0.0990
  443MOL0     O59705  10.366  -1.554   6.289  0.0077 -0.2356 -0.0463
  443MOL0     C59706  10.383  -1.686   6.231 -0.5584  0.2543 -0.3695
  443MOL0     C59707  10.483  -1.769   6.309 -0.0761 -0.0880 -0.3587
  443MOL0     C59708  10.550  -1.887   6.234 -0.1696 -0.7139 -0.8643
  443MOL0     C59709  10.434  -1.969   6.169 -0.4333  0.3941 -0.4279
  443MOL0     C59710  10.500  -2.096   6.123  0.8561  0.0304 -0.0967
  443MOL0     C59711  10.392  -2.196   6.077 -0.1755 -0.2615 -0.0721
  443MOL0     C59712  10.458  -2.287   5.978  0.5358  0.7662 -0.2463
  443MOL0     C59713  10.411  -2.431   5.977  0.3181 -1.1295 -1.1055
  443MOL0    Cl59714  10.456  -2.542   6.112 -0.1358 -0.5634 -0.3066
  443MOL0     C59715  10.262  -1.452   6.087 -0.6393 -0.9425 -0.7461
  443MOL0     C59716  10.150  -1.374   6.040 -0.4290 -0.9610 -0.3642
  443MOL0     O59717  10.050  -1.104   5.943  0.4937 -0.0382  0.0554
  443MOL0     C59718   9.685  -1.190   5.948 -0.8298  0.2692 -1.0091
  443MOL0     C59719   9.568  -1.142   5.896  0.5216  0.0051  0.6301
  443MOL0     N59720   9.087  -0.665   5.733 -0.1921 -0.2904  0.5346
  443MOL0     N59721   8.977  -0.619   5.776 -0.5942 -0.2658 -0.7669
  443MOL0     C59722   8.337   0.126   5.448  0.8813  0.7095 -0.1798
  443MOL0     C59723   8.256   0.153   5.338 -0.2485  0.2350  0.1110
  443MOL0     C59724   8.023   0.418   5.044 -0.9410 -0.7777 -0.6137
  443MOL0     C59725   7.979   0.303   4.976 -0.7307  0.3415  0.6537
  443MOL0     C59726   7.902   0.308   4.864 -0.0864  0.0395  0.8367
  443MOL0     C59727   7.877   0.430   4.808 -0.0276 -0.6631 -0.2258
  443MOL0     O59728   7.793   0.433   4.710  0.5624 -0.8507 -0.2981
  443MOL0     C59729   7.818   0.521   4.600 -0.5979 -0.3280  0.1128
  443MOL0     C59730   7.748   0.468   4.485  1.0838  0.0144  0.0825
  443MOL0     C59731   7.594   0.492   4.478 -0.6597 -0.7920  0.2048
  443MOL0     C59732   7.560   0.624   4.412  0.0995 -0.0046  0.2259
  443MOL0     C59733   7.420   0.651   4.409  0.0498 -0.2649 -0.6839
  443MOL0     C59734   7.301   0.659   4.404 -0.1354  0.7318  0.6973
  443MOL0     C59735   7.915   0.546   4.860 -0.3190 -1.0005 -1.0651
  443MOL0     C59736   7.993   0.544   4.978 -0.1179  0.8130  0.7612
  443MOL0     C59737   8.059   0.669   5.008  0.3325  0.4124  0.2535
  443MOL0     H59738   8.071   0.402   5.477 -0.3686  0.3526  0.7738
  443MOL0     H59739   8.222   0.375   5.649 -0.3833  1.2589 -1.3048
  443MOL0     H59740   8.451   0.166   5.864  2.4459 -0.5944 -2.1092
  443MOL0     H59741   8.296   0.234   5.810  0.3872  1.4359 -1.9758
  443MOL0     H59742   8.217   0.005   5.760 -1.1131  0.3395  0.6312
  443MOL0     H59743   8.287   0.001   5.914 -1.8691 -0.4399 -1.0486
  443MOL0     H59744   8.470  -0.075   5.674 -2.6127  1.4741 -1.5936
  443MOL0     H59745   8.354  -0.191   5.717  1.9476  0.2712 -2.6319
  443MOL0     H59746   8.538  -0.085   5.932  0.2616 -2.6481  1.7312
  443MOL0     H59747   8.429  -0.220   5.933 -1.6199  0.0483 -1.1737
  443MOL0     H59748   8.550  -0.336   5.745 -0.0100  1.8284 -2.2950
  443MOL0     H59749   8.661  -0.201   5.741 -0.3347  0.2519 -0.8193
  443MOL0     H59750   8.742  -0.230   5.968  3.4615 -1.9896  1.4220
  443MOL0     H59751   8.642  -0.386   5.968  0.6990 -1.1749 -1.3065
  443MOL0     H59752   8.855  -0.334   5.774  2.2362  3.2905  3.0702
  443MOL0     H59753   8.749  -0.488   5.799 -1.9631  0.4329  0.2191
  443MOL0     H59754   8.947  -0.373   5.997 -1.2589  0.8168 -0.6744
  443MOL0     H59755   8.887  -0.541   6.002  0.3795 -0.6221 -0.7866
  443MOL0     H59756   9.189  -0.384   5.835 -1.3341  0.6923  2.3087
  443MOL0     H59757   9.323  -0.632   5.604 -1.7070 -0.5504  0.5186
  443MOL0     H59758   9.359  -0.474   5.669  0.8703 -0.7880 -3.2757
  443MOL0     H59759   9.514  -0.619   5.768  0.1875  3.1569 -0.2609
  443MOL0     H59760   9.396  -0.577   5.900  0.2631 -0.1333  0.1579
  443MOL0     H59761   9.295  -0.780   5.880  0.6393 -0.5607  2.2482
  443MOL0     H59762   9.473  -0.795   5.909 -0.3440 -0.4461  0.4221
  443MOL0     H59763   9.487  -0.829   5.645 -0.6673  0.8856 -1.6836
  443MOL0     H59764   9.314  -0.880   5.660 -0.8424 -0.2927  1.6343
  443MOL0     H59765   9.677  -0.848   5.761 -2.1224  1.3057  0.9518
  443MOL0     H59766   9.885  -0.933   5.845 -0.2750  0.3382 -0.7647
  443MOL0     H59767   9.959  -1.369   6.316  0.6843  0.9829  0.9740
  443MOL0     H59768  10.162  -1.488   6.414  1.0461 -2.1710  0.1932
  443MOL0     H59769  10.289  -1.740   6.220 -1.2200  1.1444  0.7831
  443MOL0     H59770  10.420  -1.674   6.128 -3.4727 -1.6617 -1.7666
  443MOL0     H59771  10.565  -1.707   6.347 -0.4881  0.2984 -0.0926
  443MOL0     H59772  10.431  -1.816   6.394 -0.3668 -0.2656 -0.6335
  443MOL0     H59773  10.627  -1.858   6.162  0.7293 -0.0579  0.3150
  443MOL0     H59774  10.605  -1.943   6.310  2.1342  0.9385 -1.2046
  443MOL0     H59775  10.391  -1.920   6.081  1.4610  0.7672 -1.2057
  443MOL0     H59776  10.352  -1.994   6.237 -0.3767  0.9778 -0.1420
  443MOL0     H59777  10.555  -2.151   6.200  0.8330 -0.6209 -0.5350
  443MOL0     H59778  10.560  -2.072   6.035 -1.2226  2.3291 -1.0064
  443MOL0     H59779  10.359  -2.248   6.167 -0.9552 -0.8434 -0.6781
  443MOL0     H59780  10.306  -2.145   6.034 -0.3808 -0.2633  0.3414
  443MOL0     H59781  10.565  -2.294   6.002  0.5555 -1.2356 -0.8095
  443MOL0     H59782  10.440  -2.255   5.875  0.5353  1.3269 -0.0762
  443MOL0     H59783  10.302  -2.427   5.981  0.4052  0.4095  0.7704
  443MOL0     H59784  10.453  -2.467   5.882 -1.0828  1.8790 -2.9976
  443MOL0     H59785  10.333  -1.486   6.012  0.2336  2.3549 -1.5692
  443MOL0     H59786  10.145  -1.338   5.938 -2.7610 -0.2161 -0.0378
  443MOL0     H59787   9.696  -1.286   5.999  0.9414  0.9013 -0.1298
  443MOL0     H59788   9.481  -1.200   5.925 -0.3722  0.4577 -1.0396
  443MOL0     H59789   8.402   0.040   5.435 -1.6995 -1.0594 -2.3973
  443MOL0     H59790   8.260   0.095   5.246  2.8251  0.4807  0.0116
  443MOL0     H59791   8.004   0.204   5.011 -0.9715 -0.9100 -2.3962
  443MOL0     H59792   7.868   0.219   4.813  0.8301  0.3755 -0.4219
  443MOL0     H59793   7.924   0.527   4.572 -0.0775  2.1666  2.2149
  443MOL0     H59794   7.789   0.625   4.619 -0.4011 -0.1919 -0.3034
  443MOL0     H59795   7.765   0.360   4.494  4.2448  0.5630  2.4965
  443MOL0     H59796   7.799   0.506   4.396  2.1580 -1.0497  0.2209
  443MOL0     H59797   7.551   0.489   4.579  0.9506 -3.5055  0.9127
  443MOL0     H59798   7.547   0.411   4.421  0.0133 -0.3901 -0.9505
  443MOL0     H59799   7.596   0.718   4.456 -1.0790  0.5422  0.0614
  443MOL0     H59800   7.598   0.629   4.309  1.3238 -0.6238  0.6255
  443MOL0     H59801   7.195   0.667   4.396 -0.2004 -0.8650 -0.8155
  443MOL0     H59802   7.887   0.644   4.821 -1.7032 -2.1691 -3.1862
  443MOL0     H59803   8.038   0.745   4.931  1.2055 -2.7718 -3.4730
  443MOL0     H59804   8.023   0.706   5.104 -0.4530 -0.4664  0.2999
  443MOL0     H59805   8.168   0.656   5.012  0.1914 -0.7730  0.5259
  444MOL0     O59806   4.860   2.351   6.977  0.7079  0.0798  0.0686
  444MOL0     C59807   4.810   2.383   7.087  0.9341  0.0563  0.3362
  444MOL0     O59808   4.872   2.470   7.174 -0.2178  0.0091  0.9023
  444MOL0     C59809   5.005   2.459   7.202 -0.0264  0.0329 -0.2909
  444MOL0     C59810   5.078   2.345   7.193  0.3322  0.0913 -0.4262
  444MOL0     C59811   5.215   2.345   7.221 -0.2148  0.0445  0.6472
  444MOL0     C59812   5.284   2.463   7.237 -0.1165 -1.2163  0.7477
  444MOL0     O59813   5.422   2.460   7.264 -0.0901  0.0460  0.0525
  444MOL0     C59814   5.446   2.407   7.394 -0.3655 -0.9164  0.8907
  444MOL0     C59815   5.597   2.407   7.417 -0.1731 -0.3897 -0.6595
  444MOL0     C59816   5.650   2.379   7.558  0.2557  1.3764 -0.4510
  444MOL0     C59817   5.621   2.230   7.586 -1.2416  0.8767 -1.0588
  444MOL0     C59818   5.674   2.192   7.737 -0.6383 -0.8272  0.4579
  444MOL0     C59819   5.654   2.046   7.760  0.3478 -0.3169 -0.8830
  444MOL0     C59820   5.739   1.997   7.881  0.2285  0.4623  0.6950
  444MOL0     C59821   5.706   2.064   8.013 -0.6893  0.5222  0.4839
  444MOL0     N59822   5.805   2.034   8.119 -0.0748  0.3785  0.3011
  444MOL0     C59823   5.873   2.118   8.197  0.9601 -0.6982  0.1750
  444MOL0     C59824   5.968   2.042   8.258  0.3177  0.4532 -0.4097
  444MOL0     C59825   6.088   2.103   8.333  1.0239 -0.0282  1.1463
  444MOL0     C59826   6.211   2.028   8.284 -0.1445 -0.8806 -0.8413
  444MOL0     C59827   6.328   2.051   8.383 -0.3865 -0.2264 -0.4490
  444MOL0     C59828   6.459   1.968   8.348 -0.3367  0.6728  0.3571
  444MOL0     O59829   6.567   2.018   8.427 -0.4038 -0.1569  0.3867
  444MOL0     C59830   6.674   1.928   8.457  1.4148  0.0648  0.1993
  444MOL0     C59831   6.715   1.829   8.370 -0.9839  1.0242  0.4523
  444MOL0     C59832   6.820   1.738   8.395 -0.3417 -0.1381 -0.6112
  444MOL0     C59833   6.890   1.759   8.518 -1.0541 -0.5907  0.3715
  444MOL0     C59834   7.017   1.685   8.554  0.4694  0.0506  0.4719
  444MOL0     O59835   7.072   1.622   8.443 -0.6997  0.6339 -0.7757
  444MOL0     C59836   7.177   1.535   8.455 -0.1060  0.7257 -0.2458
  444MOL0     C59837   7.151   1.403   8.408  0.4240 -0.3910 -0.6342
  444MOL0     C59838   7.244   1.304   8.423  0.0809 -0.1239  0.2121
  444MOL0     C59839   7.367   1.320   8.490 -0.0162  0.4470  0.3499
  444MOL0     O59840   7.447   1.211   8.497 -0.9094  0.5606 -0.6134
  444MOL0     C59841   7.586   1.223   8.543  0.6292 -0.3959  0.0967
  444MOL0     C59842   7.665   1.111   8.487  0.4694 -0.0018  0.2171
  444MOL0     C59843   7.684   1.137   8.337 -0.0789 -0.1008 -1.0163
  444MOL0     C59844   7.751   1.014   8.274 -0.4384  0.3408  1.0552
  444MOL0     C59845   7.782   1.048   8.129  0.0414  0.8062  0.5147
  444MOL0     C59846   7.836   0.921   8.058  0.0501 -0.8124 -0.2150
  444MOL0     C59847   7.987   0.889   8.096  0.9278  0.0091 -0.2772
  444MOL0     C59848   8.025   0.786   7.998 -0.6125  0.3320  0.7099
  444MOL0    Cl59849   7.931   0.637   8.003  0.2847  0.1461 -0.0498
  444MOL0     C59850   7.401   1.459   8.509  1.2618  0.3820 -0.7578
  444MOL0     C59851   7.310   1.562   8.498  0.1387 -0.2650 -0.3475
  444MOL0     O59852   7.057   1.671   8.675  0.6769 -0.5340  0.2875
  444MOL0     C59853   6.842   1.862   8.605 -0.7879  0.6610 -0.2683
  444MOL0     C59854   6.738   1.941   8.575  0.3436 -0.6234 -0.5767
  444MOL0     N59855   5.963   1.915   8.207  0.3780 -0.1642  0.1102
  444MOL0     N59856   5.863   1.907   8.130  0.1853 -0.6878 -0.1340
  444MOL0     C59857   5.212   2.584   7.234  0.0858  0.3614 -0.3825
  444MOL0     C59858   5.071   2.583   7.216  0.0797  0.0990  0.1303
  444MOL0     C59859   4.666   2.349   7.110 -0.6525  0.1541  0.0905
  444MOL0     C59860   4.602   2.422   7.212 -0.5815 -0.5837 -0.3505
  444MOL0     C59861   4.474   2.394   7.248  0.1318 -0.7607  0.2906
  444MOL0     C59862   4.394   2.316   7.178  0.8086 -0.4651  0.5151
  444MOL0     O59863   4.261   2.283   7.205 -0.1830 -0.1006 -0.2532
  444MOL0     C59864   4.175   2.386   7.255 -0.1624  0.0814  0.2349
  444MOL0     C59865   4.024   2.360   7.275 -0.4995 -0.7816  0.5389
  444MOL0     C59866   3.940   2.480   7.311  0.4320  0.3391  0.0199
  444MOL0     C59867   3.985   2.561   7.438  0.3659 -0.6260 -0.4177
  444MOL0     C59868   4.011   2.476   7.560 -0.0859 -0.5967  0.1608
  444MOL0     C59869   4.012   2.418   7.671 -0.1919 -0.8783 -0.2329
  444MOL0     C59870   4.455   2.248   7.071  0.9779 -0.0772 -0.6827
  444MOL0     C59871   4.588   2.260   7.032 -0.2388  0.3601 -0.8099
  444MOL0     C59872   4.638   2.173   6.912  0.1235  0.7871 -1.0969
  444MOL0     H59873   5.028   2.249   7.185  0.9529 -0.4249  1.4382
  444MOL0     H59874   5.280   2.258   7.222  1.0086  0.8808  3.2453
  444MOL0     H59875   5.394   2.471   7.466  0.9542  1.8719 -0.5108
  444MOL0     H59876   5.404   2.306   7.407  0.2978 -1.0647  2.0788
  444MOL0     H59877   5.635   2.506   7.391 -2.0789  0.8578  0.9370
  444MOL0     H59878   5.638   2.330   7.351 -1.2393 -1.7943  0.2456
  444MOL0     H59879   5.611   2.451   7.630 -0.3101  0.3668  0.2747
  444MOL0     H59880   5.755   2.408   7.555  0.2931  1.7571  2.2003
  444MOL0     H59881   5.514   2.207   7.581 -1.0545 -0.2825 -0.0874
  444MOL0     H59882   5.677   2.172   7.512  2.5753  1.2819  1.2465
  444MOL0     H59883   5.779   2.220   7.739 -0.7338 -0.4839  0.7373
  444MOL0     H59884   5.614   2.255   7.804  1.1086  0.1335  1.1820
  444MOL0     H59885   5.547   2.027   7.777  0.7784 -0.8219  1.6212
  444MOL0     H59886   5.683   1.980   7.678  0.5450 -2.5254  0.8533
  444MOL0     H59887   5.843   2.025   7.862 -0.5574  1.2872 -3.1273
  444MOL0     H59888   5.735   1.888   7.889  4.8605 -0.1525 -1.9281
  444MOL0     H59889   5.709   2.172   8.000 -3.4026  0.6742  0.5210
  444MOL0     H59890   5.607   2.033   8.048 -0.2879 -1.1699  0.2294
  444MOL0     H59891   5.865   2.226   8.208  3.0581 -0.2614 -1.6957
  444MOL0     H59892   6.099   2.210   8.317  3.1221 -0.0596  1.9753
  444MOL0     H59893   6.069   2.094   8.441 -0.7181 -1.9461  0.7582
  444MOL0     H59894   6.200   1.919   8.295  3.2405 -1.1910  0.6687
  444MOL0     H59895   6.242   2.050   8.182  1.7205  0.4253 -0.0564
  444MOL0     H59896   6.302   2.035   8.488 -0.3096  0.2999 -0.3432
  444MOL0     H59897   6.350   2.158   8.384 -0.2968 -0.1708 -2.8466
  444MOL0     H59898   6.482   1.968   8.241  1.2206 -0.9888  0.6506
  444MOL0     H59899   6.434   1.868   8.384  3.1795 -1.0371 -1.3944
  444MOL0     H59900   6.666   1.810   8.275 -1.0969  1.0873  0.4978
  444MOL0     H59901   6.841   1.652   8.332  0.8280  0.4877 -1.0991
  444MOL0     H59902   7.053   1.382   8.364 -0.3962  1.3344  0.2729
  444MOL0     H59903   7.224   1.207   8.379  2.7607 -0.4996 -0.4010
  444MOL0     H59904   7.649   1.307   8.513  3.0727 -1.7049  1.2244
  444MOL0     H59905   7.585   1.215   8.652  0.3571 -2.2465 -0.0115
  444MOL0     H59906   7.759   1.097   8.540  1.0229 -3.3839 -1.3686
  444MOL0     H59907   7.606   1.020   8.506 -1.7783  1.7101  1.9946
  444MOL0     H59908   7.589   1.149   8.284 -1.0441 -2.8477 -0.1275
  444MOL0     H59909   7.741   1.228   8.319 -1.6668  0.7458 -1.9275
  444MOL0     H59910   7.680   0.932   8.292 -0.5380  0.3134  0.5377
  444MOL0     H59911   7.841   0.983   8.327  0.2754  0.8395  0.1485
  444MOL0     H59912   7.862   1.122   8.114  2.3158 -1.8779 -1.6673
  444MOL0     H59913   7.696   1.084   8.072 -0.1119 -0.5990 -0.1805
  444MOL0     H59914   7.783   0.830   8.090  1.3397 -1.8107 -0.8148
  444MOL0     H59915   7.814   0.930   7.951 -4.1271  1.8250  0.6383
  444MOL0     H59916   7.984   0.837   8.191  1.8589  1.5918  0.6739
  444MOL0     H59917   8.051   0.978   8.101  2.4040 -1.0673  0.5506
  444MOL0     H59918   8.021   0.824   7.896 -2.2950 -0.2307  0.5319
  444MOL0     H59919   8.133   0.768   8.007 -0.8514 -1.6810  0.1286
  444MOL0     H59920   7.501   1.468   8.548  1.0966  1.5574 -0.5696
  444MOL0     H59921   7.308   1.656   8.551 -1.0815  1.4528 -3.1775
  444MOL0     H59922   6.903   1.865   8.695 -1.1538 -1.0192  0.0591
  444MOL0     H59923   6.705   2.011   8.651  1.8374  1.3470 -1.6680
  444MOL0     H59924   5.265   2.678   7.246 -1.7777  1.3084  0.9418
  444MOL0     H59925   5.006   2.669   7.210  2.0614  1.5695 -2.5906
  444MOL0     H59926   4.647   2.501   7.271 -1.6644  0.4396 -0.8466
  444MOL0     H59927   4.424   2.434   7.336 -0.8608 -0.6560 -0.3109
  444MOL0     H59928   4.189   2.475   7.193  3.1371  0.0295  0.7357
  444MOL0     H59929   4.206   2.417   7.355  2.4160 -1.3082 -0.0325
  444MOL0     H59930   4.009   2.286   7.354 -0.1995 -0.2675  1.0888
  444MOL0     H59931   3.984   2.312   7.185 -0.2437 -0.6309  0.3427
  444MOL0     H59932   3.839   2.443   7.331  0.9559 -1.0755  0.1902
  444MOL0     H59933   3.917   2.548   7.229 -0.9743 -0.4308 -0.2614
  444MOL0     H59934   4.075   2.616   7.408  0.1752 -2.3737 -4.9663
  444MOL0     H59935   3.900   2.624   7.465  0.1798 -1.7681  1.9285
  444MOL0     H59936   3.996   2.377   7.768 -4.7955  1.5914  0.3575
  444MOL0     H59937   4.391   2.170   7.031 -0.1182 -1.1444  2.8332
  444MOL0     H59938   4.575   2.084   6.907 -0.1079  0.7367  1.5242
  444MOL0     H59939   4.639   2.229   6.818  1.9697  3.1566  0.2285
  444MOL0     H59940   4.741   2.139   6.924 -0.0642  0.8218  0.8579
  445MOL0     O59941  11.078   1.546   4.723  0.3460  0.2543 -0.8154
  445MOL0     C59942  11.149   1.629   4.662 -0.0517 -0.1487  1.0111
  445MOL0     O59943  11.273   1.595   4.605  0.0514  0.3322  0.0470
  445MOL0     C59944  11.262   1.489   4.520  0.0136 -0.3569  0.2908
  445MOL0     C59945  11.349   1.384   4.550 -0.0094  0.8983 -0.0453
  445MOL0     C59946  11.356   1.285   4.448  0.3105 -1.2654 -0.3223
  445MOL0     C59947  11.275   1.283   4.344 -0.6103  0.8094  0.9163
  445MOL0     O59948  11.272   1.178   4.252 -0.7331 -0.1039 -0.0998
  445MOL0     C59949  11.404   1.137   4.193 -0.2350  0.3085 -0.2134
  445MOL0     C59950  11.387   1.046   4.069  0.3334 -0.1628  0.6623
  445MOL0     C59951  11.441   1.117   3.941  0.1968 -0.7347  0.7531
  445MOL0     C59952  11.445   1.028   3.822 -0.3494 -0.9085 -0.3333
  445MOL0     C59953  11.450   1.102   3.684  0.1156 -0.3170 -0.3908
  445MOL0     C59954  11.317   1.152   3.631 -0.2508 -0.6416 -0.1186
  445MOL0     C59955  11.328   1.246   3.508  0.1729 -0.0776  0.1594
  445MOL0     C59956  11.193   1.314   3.479 -1.1438 -0.1281 -0.1157
  445MOL0     N59957  11.206   1.411   3.366  0.1244  0.4375  0.4030
  445MOL0     C59958  11.100   1.475   3.312 -0.4375 -0.5272  0.2633
  445MOL0     C59959  11.147   1.544   3.201  0.3132 -0.8697 -0.4636
  445MOL0     C59960  11.077   1.629   3.097  0.0038  0.5437 -0.6811
  445MOL0     C59961  11.093   1.773   3.151  0.9686  0.0749 -1.0092
  445MOL0     C59962  11.048   1.880   3.044  0.1092 -0.9470  0.1511
  445MOL0     C59963  10.922   1.845   2.973  0.8385  0.8166  0.5560
  445MOL0     O59964  10.815   1.865   3.069 -0.8445  0.5316  0.4658
  445MOL0     C59965  10.712   1.782   3.048  0.2683  0.1420 -0.9404
  445MOL0     C59966  10.672   1.693   3.146 -0.1551 -0.5376  0.1492
  445MOL0     C59967  10.555   1.619   3.139 -0.2900  0.2251 -0.0098
  445MOL0     C59968  10.471   1.623   3.036 -0.4338 -0.2029  0.1889
  445MOL0     C59969  10.345   1.535   3.027  1.0251 -0.1177 -0.1852
  445MOL0     O59970  10.247   1.560   2.929  0.1516 -0.4212  0.1266
  445MOL0     C59971  10.169   1.470   2.867 -0.7543 -0.0284 -0.2185
  445MOL0     C59972  10.199   1.336   2.857  0.5304  0.5348 -0.4810
  445MOL0     C59973  10.129   1.248   2.776 -0.0396  0.6815  0.6320
  445MOL0     C59974  10.022   1.295   2.691 -0.3533 -1.0563 -0.4740
  445MOL0     O59975   9.948   1.221   2.602 -1.2423 -0.3821 -0.0642
  445MOL0     C59976   9.948   1.080   2.628  0.2933  0.5456  0.5305
  445MOL0     C59977   9.837   1.022   2.538  0.2517  0.3445  0.0765
  445MOL0     C59978   9.696   1.059   2.577  0.5821  0.2795 -0.2922
  445MOL0     C59979   9.605   0.933   2.558  0.4577 -0.5572 -0.0294
  445MOL0     C59980   9.476   0.960   2.499  1.2165 -0.8798  0.6290
  445MOL0     C59981   9.384   0.830   2.496 -0.3811 -0.5034  0.3565
  445MOL0     C59982   9.250   0.843   2.410 -0.4968 -0.6707  0.1189
  445MOL0     C59983   9.289   0.837   2.258 -0.1540  0.4613  0.1794
  445MOL0    Cl59984   9.368   0.681   2.231  0.0389 -0.1590  0.5645
  445MOL0     C59985   9.995   1.434   2.699  0.1837 -0.2876 -0.2570
  445MOL0     C59986  10.061   1.517   2.789 -0.7906  0.4837 -0.2116
  445MOL0     O59987  10.329   1.451   3.116  0.2571 -0.1097  0.0250
  445MOL0     C59988  10.517   1.713   2.927  0.6349 -0.3894 -1.0158
  445MOL0     C59989  10.624   1.796   2.939  0.4901  0.2102 -0.2705
  445MOL0     N59990  11.286   1.528   3.201 -0.6285  0.6016 -0.5011
  445MOL0     N59991  11.316   1.458   3.305 -0.5629 -0.5538  0.1115
  445MOL0     C59992  11.191   1.393   4.317 -0.4464  0.2228 -0.8883
  445MOL0     C59993  11.186   1.493   4.406  0.3921  1.1300  1.3068
  445MOL0     C59994  11.108   1.771   4.668  0.8635  0.6194  0.7687
  445MOL0     C59995  10.978   1.802   4.635  0.0720  0.4322  0.7764
  445MOL0     C59996  10.927   1.931   4.645 -0.8951 -0.5104  0.5749
  445MOL0     C59997  11.021   2.036   4.670 -0.7711 -0.3334  0.0284
  445MOL0     O59998  10.992   2.172   4.674 -0.6535  0.7588  0.0230
  445MOL0     C59999  10.859   2.210   4.713  0.0794  0.1586 -0.3028
  445MOL0     C60000  10.845   2.352   4.671  0.5041  0.2831  0.5846
  445MOL0     C60001  10.804   2.370   4.523 -0.0455 -0.2030 -0.4022
  445MOL0     C60002  10.896   2.301   4.423  0.2029  0.3574  0.6278
  445MOL0     C60003  10.884   2.366   4.292 -0.5068  0.0743  0.0290
  445MOL0     C60004  10.897   2.392   4.172 -0.3788  0.2374 -0.3414
  445MOL0     C60005  11.155   2.008   4.691  0.2622  0.1862  0.5749
  445MOL0     C60006  11.208   1.876   4.683 -0.0004 -0.1003 -1.3050
  445MOL0     C60007  11.354   1.860   4.703 -0.3374 -0.4524  0.0534
  445MOL0     H60008  11.411   1.381   4.639 -0.0500 -0.9237 -0.0258
  445MOL0     H60009  11.429   1.210   4.476  0.8810 -0.6548 -0.1435
  445MOL0     H60010  11.469   1.220   4.164  0.0123  0.8259  1.6898
  445MOL0     H60011  11.458   1.076   4.267 -0.2995 -1.5804 -1.6466
  445MOL0     H60012  11.284   1.011   4.055  0.4857 -0.5263  0.4184
  445MOL0     H60013  11.443   0.954   4.086 -0.0700 -0.5831 -0.2166
  445MOL0     H60014  11.544   1.153   3.947  0.6040 -2.0184  2.2099
  445MOL0     H60015  11.377   1.201   3.914 -0.7341 -2.1843 -1.9112
  445MOL0     H60016  11.531   0.962   3.817 -0.5037 -1.1284 -0.1354
  445MOL0     H60017  11.361   0.958   3.813 -0.3920 -0.7379 -1.4561
  445MOL0     H60018  11.516   1.189   3.694  0.8053 -0.7761 -0.8407
  445MOL0     H60019  11.485   1.050   3.594 -2.2109  1.4018 -2.4087
  445MOL0     H60020  11.255   1.064   3.616  1.5421 -1.4889 -3.4825
  445MOL0     H60021  11.272   1.214   3.709  0.6229  3.0968 -2.3387
  445MOL0     H60022  11.360   1.175   3.431 -0.7345 -2.2184  1.6641
  445MOL0     H60023  11.408   1.320   3.520  2.5950 -2.1290 -2.0803
  445MOL0     H60024  11.113   1.240   3.468 -0.9676 -0.5124  1.0848
  445MOL0     H60025  11.182   1.376   3.568  0.1577 -1.1773  0.8185
  445MOL0     H60026  10.995   1.473   3.339  0.4606 -1.4933  4.3535
  445MOL0     H60027  11.118   1.618   2.996 -2.3313 -1.3354 -1.5218
  445MOL0     H60028  10.973   1.596   3.098 -0.3831  1.7032 -1.0105
  445MOL0     H60029  11.029   1.782   3.240  1.4364 -1.3335 -0.4980
  445MOL0     H60030  11.193   1.798   3.187 -0.3952  1.6566  2.1914
  445MOL0     H60031  11.124   1.902   2.969 -0.0006  0.3354  0.4043
  445MOL0     H60032  11.040   1.978   3.091 -0.5988 -0.1998 -1.4786
  445MOL0     H60033  10.929   1.747   2.925  1.0981 -0.0173  2.2194
  445MOL0     H60034  10.914   1.905   2.882 -1.0347 -2.0362 -1.3314
  445MOL0     H60035  10.733   1.681   3.234  0.8851 -0.0748 -0.4969
  445MOL0     H60036  10.534   1.542   3.212  0.6264  1.0246  1.1419
  445MOL0     H60037  10.283   1.291   2.908 -1.6351 -1.0890  1.8449
  445MOL0     H60038  10.155   1.143   2.764  1.1151  1.1512 -1.6481
  445MOL0     H60039  10.046   1.042   2.599  0.2789 -0.5119  1.7801
  445MOL0     H60040   9.927   1.053   2.732 -0.9004 -2.3627 -0.3837
  445MOL0     H60041   9.863   1.038   2.433  0.8329  1.5650  0.3997
  445MOL0     H60042   9.844   0.913   2.547  1.7163  0.2658 -1.5624
  445MOL0     H60043   9.692   1.085   2.684  4.2003 -2.1229  0.6206
  445MOL0     H60044   9.676   1.150   2.520  1.9840  1.6217  1.2501
  445MOL0     H60045   9.595   0.868   2.646 -2.9164  0.7179  0.6879
  445MOL0     H60046   9.647   0.868   2.481  1.7875 -0.1287  0.3191
  445MOL0     H60047   9.489   0.982   2.392 -1.1321  0.7509  0.6129
  445MOL0     H60048   9.425   1.040   2.553  2.6328  0.3316  0.2477
  445MOL0     H60049   9.453   0.747   2.476  0.3902 -0.3563  2.2083
  445MOL0     H60050   9.348   0.812   2.598 -2.6151  0.9461 -0.1241
  445MOL0     H60051   9.208   0.940   2.437  2.6266  0.9683 -0.4123
  445MOL0     H60052   9.185   0.756   2.426 -0.3513 -1.0403 -1.1881
  445MOL0     H60053   9.204   0.854   2.191 -1.6225 -0.2820  1.7752
  445MOL0     H60054   9.365   0.908   2.225  1.0736 -1.3998 -1.2255
  445MOL0     H60055   9.921   1.481   2.635 -0.6008  1.1436  1.6150
  445MOL0     H60056  10.027   1.619   2.804 -3.2298 -0.3627  0.5227
  445MOL0     H60057  10.456   1.713   2.837  0.5756  0.6529 -0.9968
  445MOL0     H60058  10.656   1.859   2.856  0.3825 -1.3376 -1.5351
  445MOL0     H60059  11.129   1.395   4.228 -0.2455  2.5075 -1.0272
  445MOL0     H60060  11.116   1.573   4.384 -1.1464 -0.3157  0.7432
  445MOL0     H60061  10.899   1.728   4.630 -0.3744  0.9648 -0.7676
  445MOL0     H60062  10.819   1.935   4.637 -0.7701  0.4630 -0.8671
  445MOL0     H60063  10.861   2.211   4.822  0.1352 -2.0677 -0.2509
  445MOL0     H60064  10.775   2.149   4.679 -0.7940  1.1286  0.0224
  445MOL0     H60065  10.943   2.394   4.692  0.7549 -1.3702  3.0950
  445MOL0     H60066  10.773   2.393   4.742 -2.7802 -0.0072 -2.2616
  445MOL0     H60067  10.800   2.478   4.505 -0.1208  1.0812  5.5272
  445MOL0     H60068  10.704   2.327   4.512 -1.0553  2.0655 -0.6735
  445MOL0     H60069  10.996   2.312   4.466  0.1305 -0.2152  0.9561
  445MOL0     H60070  10.877   2.194   4.418 -0.3505  0.5160 -3.3063
  445MOL0     H60071  10.904   2.413   4.067  0.4500  2.5347  0.0999
  445MOL0     H60072  11.221   2.087   4.725  0.0711 -0.0764  1.5942
  445MOL0     H60073  11.392   1.957   4.735 -2.3374 -0.6177  3.4596
  445MOL0     H60074  11.364   1.795   4.791  2.5003 -0.8459 -0.4872
  445MOL0     H60075  11.418   1.830   4.620 -1.0521  0.5301 -0.8882
  446MOL0     O60076   7.945   0.244   8.478 -0.2776 -0.1973  0.1774
  446MOL0     C60077   7.886   0.244   8.373  0.6023  0.3455  0.5344
  446MOL0     O60078   7.829   0.357   8.309  0.1753  0.3514  0.9091
  446MOL0     C60079   7.851   0.479   8.366 -0.1422 -0.6119  0.1891
  446MOL0     C60080   7.756   0.554   8.428  0.3312 -0.3519 -0.4992
  446MOL0     C60081   7.788   0.677   8.487 -0.2477 -0.1232 -0.5422
  446MOL0     C60082   7.915   0.739   8.463  0.1594 -0.2137 -0.3837
  446MOL0     O60083   7.950   0.860   8.517  0.9072 -0.4089  0.7723
  446MOL0     C60084   8.085   0.889   8.560 -0.0296 -0.3866 -0.0017
  446MOL0     C60085   8.102   0.854   8.712  1.2522 -0.0935  0.1208
  446MOL0     C60086   8.221   0.935   8.766 -0.3577 -0.4876  0.2682
  446MOL0     C60087   8.241   0.891   8.909  1.0883 -0.3474 -0.2205
  446MOL0     C60088   8.155   0.995   8.995 -0.0029 -0.0352 -0.5376
  446MOL0     C60089   8.162   0.955   9.138 -0.6599 -0.2697  0.9079
  446MOL0     C60090   8.074   1.054   9.213  0.1144 -0.1729  0.7687
  446MOL0     C60091   8.071   1.017   9.358  0.0957  0.1758 -0.9255
  446MOL0     N60092   7.982   0.899   9.390  0.1716 -0.2183  0.5421
  446MOL0     C60093   7.847   0.880   9.359  1.2262  0.1023 -0.6036
  446MOL0     C60094   7.819   0.751   9.388  0.4253  0.4547  0.4122
  446MOL0     C60095   7.689   0.674   9.373 -0.3705  0.2347 -0.7390
  446MOL0     C60096   7.600   0.728   9.262 -0.4866 -0.3960  0.0704
  446MOL0     C60097   7.467   0.646   9.256 -0.2380 -0.7701  0.8304
  446MOL0     C60098   7.379   0.684   9.138 -0.0933 -0.6840  0.1583
  446MOL0     O60099   7.323   0.822   9.170  0.1736 -0.9393 -0.5931
  446MOL0     C60100   7.260   0.892   9.071  1.1205  0.0925  0.1074
  446MOL0     C60101   7.210   1.013   9.117 -0.4840 -1.1451 -0.1867
  446MOL0     C60102   7.127   1.085   9.031 -0.9632 -0.5266 -0.9071
  446MOL0     C60103   7.087   1.035   8.909  0.0247 -0.7851 -0.3010
  446MOL0     C60104   6.998   1.109   8.821  0.0844  0.1422  0.3995
  446MOL0     O60105   6.938   1.216   8.875  0.4907 -0.4516 -0.0660
  446MOL0     C60106   6.834   1.284   8.812 -0.4605 -0.4594 -0.0644
  446MOL0     C60107   6.860   1.385   8.719 -0.2067  0.2015  0.8510
  446MOL0     C60108   6.751   1.448   8.653 -1.0052 -0.6649 -0.0171
  446MOL0     C60109   6.620   1.421   8.701 -0.0529  0.2555 -0.0371
  446MOL0     O60110   6.517   1.497   8.662 -0.0145 -0.0954  0.8723
  446MOL0     C60111   6.508   1.619   8.735  0.9117 -0.3038 -0.2439
  446MOL0     C60112   6.425   1.729   8.661  0.6599 -0.5584 -0.2778
  446MOL0     C60113   6.284   1.684   8.637  1.1640 -0.0372 -0.4735
  446MOL0     C60114   6.192   1.774   8.570 -0.2988 -0.5604  0.5272
  446MOL0     C60115   6.049   1.724   8.537  0.3613 -0.0029  0.3355
  446MOL0     C60116   5.946   1.739   8.640  1.6333  0.3625 -0.5250
  446MOL0     C60117   5.947   1.625   8.742  0.1109  0.9764 -0.5366
  446MOL0     C60118   5.855   1.661   8.856  0.7860  0.5332 -0.0103
  446MOL0    Cl60119   5.830   1.542   8.989  0.1665 -0.0374 -0.1554
  446MOL0     C60120   6.600   1.330   8.798 -0.1457  0.4373  0.2404
  446MOL0     C60121   6.707   1.257   8.854 -0.9024 -0.0754  0.4213
  446MOL0     O60122   6.983   1.067   8.704 -0.2157 -0.4346 -0.5558
  446MOL0     C60123   7.131   0.908   8.870  0.1520 -0.0376 -0.4467
  446MOL0     C60124   7.220   0.837   8.946  0.0200  0.1182  0.4214
  446MOL0     N60125   7.943   0.703   9.427 -0.2269 -0.2339 -0.4850
  446MOL0     N60126   8.034   0.792   9.444 -0.5568 -0.5583 -0.1963
  446MOL0     C60127   8.005   0.663   8.383 -0.0939  0.2272 -0.3887
  446MOL0     C60128   7.973   0.535   8.343 -0.8628  0.5251  0.0991
  446MOL0     C60129   7.876   0.115   8.297 -0.0714 -0.2969 -0.1629
  446MOL0     C60130   7.841   0.134   8.155 -0.3045  0.2081 -0.6841
  446MOL0     C60131   7.851   0.024   8.072  0.0762  0.1192 -0.2977
  446MOL0     C60132   7.882  -0.105   8.116  0.7228  0.3877  0.0936
  446MOL0     O60133   7.874  -0.220   8.038 -0.4399  0.4854 -0.2032
  446MOL0     C60134   7.867  -0.205   7.899 -0.8469 -0.1204 -0.6505
  446MOL0     C60135   8.010  -0.161   7.849 -1.3411  1.1417 -0.1815
  446MOL0     C60136   8.119  -0.280   7.856  0.4979 -0.4927  0.7036
  446MOL0     C60137   8.269  -0.225   7.847  0.2948  0.6326  0.4616
  446MOL0     C60138   8.363  -0.281   7.947  0.6879 -0.6643 -0.4123
  446MOL0     C60139   8.459  -0.320   8.008  0.2995 -0.0224 -0.0386
  446MOL0     C60140   7.909  -0.120   8.251 -0.0671  0.0599  0.4883
  446MOL0     C60141   7.907  -0.018   8.343 -0.0754 -0.1286  0.0998
  446MOL0     C60142   7.937  -0.055   8.481 -0.2887 -0.3863 -0.4042
  446MOL0     H60143   7.657   0.510   8.431 -0.5068  1.4855  0.5098
  446MOL0     H60144   7.709   0.729   8.540  1.4563  1.0091  1.0472
  446MOL0     H60145   8.164   0.863   8.489 -0.3367  2.3679 -1.5097
  446MOL0     H60146   8.097   0.998   8.563  3.6859 -0.6964  0.9026
  446MOL0     H60147   8.129   0.748   8.711 -0.5287 -0.5878 -1.0149
  446MOL0     H60148   8.009   0.875   8.765  0.1775 -0.7504 -1.4069
  446MOL0     H60149   8.188   1.040   8.765 -0.7758 -0.5712  1.9511
  446MOL0     H60150   8.314   0.925   8.709 -0.0520  1.6962  0.3059
  446MOL0     H60151   8.202   0.792   8.936 -0.5779  0.4170  0.3216
  446MOL0     H60152   8.348   0.893   8.930  0.8811  3.7560  1.3769
  446MOL0     H60153   8.200   1.093   8.978 -2.7131  1.3126 -0.5209
  446MOL0     H60154   8.050   1.003   8.966 -1.9450 -5.3803  3.4676
  446MOL0     H60155   8.127   0.856   9.168  1.6379 -1.0865  1.1059
  446MOL0     H60156   8.262   0.977   9.177  0.2347 -0.5406 -1.0980
  446MOL0     H60157   7.968   1.057   9.184  0.4496  0.0418 -0.4868
  446MOL0     H60158   8.111   1.156   9.201  1.4343 -0.6863  0.3209
  446MOL0     H60159   8.169   1.015   9.407 -0.4309  0.8265  0.2029
  446MOL0     H60160   8.016   1.105   9.394 -1.3762 -0.3212 -1.8491
  446MOL0     H60161   7.776   0.949   9.313 -0.1345 -0.8141  0.0613
  446MOL0     H60162   7.714   0.570   9.349 -1.0700 -0.1399  0.0483
  446MOL0     H60163   7.641   0.680   9.472  2.0471 -1.8988  0.6903
  446MOL0     H60164   7.581   0.834   9.279  2.2696  0.0255  1.0865
  446MOL0     H60165   7.646   0.716   9.163 -0.5173 -1.4310  0.1679
  446MOL0     H60166   7.422   0.640   9.356 -2.0138 -3.3935 -0.0007
  446MOL0     H60167   7.496   0.544   9.229  2.6419 -0.1281  1.2433
  446MOL0     H60168   7.309   0.601   9.124  0.2260 -0.6826 -1.5486
  446MOL0     H60169   7.446   0.696   9.053 -0.3083 -0.4922  0.0130
  446MOL0     H60170   7.226   1.065   9.211 -0.8450 -1.6809  0.1759
  446MOL0     H60171   7.094   1.185   9.056  2.4902  1.3911 -3.2049
  446MOL0     H60172   6.963   1.410   8.694 -0.8762  3.1992  0.6973
  446MOL0     H60173   6.768   1.519   8.573 -0.9686 -3.3690 -2.5815
  446MOL0     H60174   6.469   1.609   8.837  0.6461 -2.8900 -0.5369
  446MOL0     H60175   6.610   1.660   8.741  0.8551  0.2548 -2.3576
  446MOL0     H60176   6.416   1.821   8.720 -1.2259 -0.4023 -0.7392
  446MOL0     H60177   6.477   1.758   8.570  0.4155  2.8031  0.5146
  446MOL0     H60178   6.281   1.590   8.582 -2.2050  0.2090 -0.8960
  446MOL0     H60179   6.244   1.651   8.734  1.1056 -0.0679 -0.5077
  446MOL0     H60180   6.239   1.808   8.477 -1.4167  1.9784  0.7816
  446MOL0     H60181   6.178   1.866   8.627 -3.4015 -0.5091 -0.1180
  446MOL0     H60182   6.058   1.622   8.499  1.0767  0.1150  0.1745
  446MOL0     H60183   6.005   1.780   8.454 -2.8498 -0.8968  1.2937
  446MOL0     H60184   5.952   1.838   8.687  0.2013  0.2037  0.0445
  446MOL0     H60185   5.846   1.735   8.597  1.9992  1.2147 -1.5069
  446MOL0     H60186   6.043   1.589   8.780  0.1756 -0.8375 -2.2412
  446MOL0     H60187   5.913   1.540   8.682  4.3916 -0.5635 -1.1325
  446MOL0     H60188   5.902   1.751   8.897 -0.5446  3.3451 -3.9501
  446MOL0     H60189   5.761   1.687   8.806  1.8055  0.7256 -1.9495
  446MOL0     H60190   6.500   1.313   8.837 -0.1601  1.7201  0.8485
  446MOL0     H60191   6.687   1.175   8.923  1.0244 -1.1378 -0.2156
  446MOL0     H60192   7.092   0.871   8.776 -0.6211  1.5944 -0.8097
  446MOL0     H60193   7.253   0.739   8.915 -1.4379  0.3406 -2.0692
  446MOL0     H60194   8.105   0.704   8.368  0.1709 -0.6226 -0.9776
  446MOL0     H60195   8.047   0.483   8.283 -2.2514  2.4965 -3.5808
  446MOL0     H60196   7.825   0.233   8.114 -0.1731  0.0684 -1.0721
  446MOL0     H60197   7.828   0.047   7.968 -0.3921 -0.4573 -0.3286
  446MOL0     H60198   7.784  -0.139   7.869 -1.7206 -0.8820  0.0380
  446MOL0     H60199   7.851  -0.304   7.856 -1.0543  0.0204 -0.9015
  446MOL0     H60200   8.053  -0.071   7.894  3.4581 -0.0123 -1.8259
  446MOL0     H60201   7.998  -0.136   7.743  0.5116 -0.9361 -0.9650
  446MOL0     H60202   8.096  -0.343   7.770 -0.9348  0.5535  0.2829
  446MOL0     H60203   8.116  -0.328   7.954 -1.7651 -0.7881  0.5462
  446MOL0     H60204   8.296  -0.244   7.743 -1.1545 -0.7073  0.2967
  446MOL0     H60205   8.270  -0.117   7.865  1.6416  0.8445 -0.6593
  446MOL0     H60206   8.537  -0.341   8.080 -1.7017  3.2449  3.4658
  446MOL0     H60207   7.942  -0.220   8.276 -0.3586 -0.3586 -0.7209
  446MOL0     H60208   7.875   0.007   8.547 -1.6785 -1.5200 -0.6071
  446MOL0     H60209   7.921  -0.160   8.506  1.0779 -0.5396 -0.0732
  446MOL0     H60210   8.042  -0.036   8.505 -0.8936  1.9158  0.7275
  447MOL0     O60211   7.303   3.025   8.393  0.5955 -0.2014 -0.4015
  447MOL0     C60212   7.316   3.133   8.446  0.3199 -0.9698 -0.3255
  447MOL0     O60213   7.241   3.179   8.541  0.5312 -0.0185  0.4822
  447MOL0     C60214   7.154   3.106   8.620  0.2495  0.1220 -0.1518
  447MOL0     C60215   7.041   3.167   8.685 -1.2810  0.2628  0.6328
  447MOL0     C60216   6.953   3.088   8.758 -0.3378 -0.2396 -0.1770
  447MOL0     C60217   6.972   2.954   8.759 -0.0305  0.6175 -0.4894
  447MOL0     O60218   6.894   2.879   8.845  0.4102  0.0873  0.0503
  447MOL0     C60219   6.879   2.737   8.833 -0.0591 -0.3958 -0.8382
  447MOL0     C60220   6.735   2.698   8.897  0.3211  0.1784 -0.4082
  447MOL0     C60221   6.612   2.755   8.834 -0.7581  0.6464 -0.8069
  447MOL0     C60222   6.502   2.776   8.936  0.2976  0.8613 -0.4159
  447MOL0     C60223   6.369   2.815   8.864 -0.3698 -0.2636 -0.0642
  447MOL0     C60224   6.252   2.804   8.953  0.7442  0.4014  0.0832
  447MOL0     C60225   6.129   2.765   8.873  0.8208 -0.0824 -0.1289
  447MOL0     C60226   6.005   2.779   8.960 -0.2572 -0.2105 -0.6551
  447MOL0     N60227   5.893   2.686   8.943  0.1117 -0.2161 -0.0122
  447MOL0     C60228   5.892   2.556   8.979 -0.5254 -0.6019 -0.0376
  447MOL0     C60229   5.767   2.515   8.973  0.7044 -0.2923  0.7938
  447MOL0     C60230   5.718   2.372   8.980  0.3488  0.5215 -0.2264
  447MOL0     C60231   5.635   2.335   9.103 -0.4289 -0.0230 -0.6548
  447MOL0     C60232   5.481   2.366   9.088 -0.9656 -0.3427  0.9056
  447MOL0     C60233   5.423   2.466   9.182 -0.4460 -0.6916 -0.1582
  447MOL0     O60234   5.288   2.497   9.139  0.6387 -0.6537  0.2170
  447MOL0     C60235   5.190   2.394   9.149 -0.0770 -0.4157 -0.5438
  447MOL0     C60236   5.197   2.278   9.229  0.9305  0.0625 -0.0424
  447MOL0     C60237   5.112   2.170   9.212 -0.1664  0.1941  0.6785
  447MOL0     C60238   5.004   2.175   9.116  0.3487 -0.9253  0.0509
  447MOL0     C60239   4.898   2.072   9.108  0.2007  0.3144 -0.6148
  447MOL0     O60240   4.914   1.953   9.180  0.3731  0.5377 -0.5781
  447MOL0     C60241   4.812   1.862   9.190  0.3808  0.2621  0.0849
  447MOL0     C60242   4.852   1.732   9.169  0.2859 -0.5186  0.5128
  447MOL0     C60243   4.765   1.619   9.188 -0.0914 -0.6397 -0.2454
  447MOL0     C60244   4.628   1.644   9.221 -0.1651 -0.2757  1.0143
  447MOL0     O60245   4.540   1.541   9.259 -0.2428  0.8856  0.6373
  447MOL0     C60246   4.569   1.412   9.214 -0.3431  0.2292 -0.1894
  447MOL0     C60247   4.633   1.324   9.330  0.6600  0.2884  0.5072
  447MOL0     C60248   4.635   1.189   9.271 -1.1523  0.0884 -0.0126
  447MOL0     C60249   4.494   1.138   9.243  0.3378 -0.3021 -0.7759
  447MOL0     C60250   4.505   0.983   9.226 -0.1016  0.5737  0.0524
  447MOL0     C60251   4.374   0.929   9.159 -0.0633  0.8296 -0.4058
  447MOL0     C60252   4.378   0.779   9.167  0.6562  0.8500 -0.3820
  447MOL0     C60253   4.239   0.716   9.127 -0.0044  0.4659  0.7695
  447MOL0    Cl60254   4.267   0.533   9.124  0.0405  0.1953 -0.3847
  447MOL0     C60255   4.596   1.773   9.251  0.1397 -0.2622  0.4279
  447MOL0     C60256   4.685   1.882   9.235  0.1859  0.4594  0.2687
  447MOL0     O60257   4.806   2.086   9.037  0.0657 -0.1687  0.1989
  447MOL0     C60258   4.991   2.295   9.041  0.2483 -0.8460  0.2216
  447MOL0     C60259   5.074   2.400   9.060 -0.0217  0.0566 -0.3045
  447MOL0     N60260   5.683   2.621   8.928 -0.0048 -0.2837 -0.3672
  447MOL0     N60261   5.762   2.724   8.904  0.6487  0.7177 -0.6412
  447MOL0     C60262   7.078   2.889   8.698  0.8056 -0.0452 -0.0585
  447MOL0     C60263   7.181   2.965   8.646  0.2698  0.0644 -0.5602
  447MOL0     C60264   7.422   3.230   8.399  1.1405  0.8487 -0.2100
  447MOL0     C60265   7.417   3.363   8.439 -0.5660 -1.1572 -0.3259
  447MOL0     C60266   7.520   3.452   8.386  0.8619 -0.6395 -1.1536
  447MOL0     C60267   7.612   3.409   8.294 -1.0118 -0.3433  0.2874
  447MOL0     O60268   7.689   3.510   8.245 -0.0327  0.6996 -0.8877
  447MOL0     C60269   7.800   3.475   8.165  0.7332  0.2985  0.3435
  447MOL0     C60270   7.866   3.608   8.106  0.3366 -0.0570 -0.6005
  447MOL0     C60271   7.938   3.678   8.223 -0.2284  0.0264  0.0683
  447MOL0     C60272   8.072   3.615   8.252  0.4356 -0.0564 -0.2859
  447MOL0     C60273   8.149   3.575   8.130  0.1234  0.5450 -0.2420
  447MOL0     C60274   8.199   3.546   8.027 -1.1028 -0.1860 -0.0314
  447MOL0     C60275   7.610   3.277   8.250 -0.7241 -1.3770  0.1285
  447MOL0     C60276   7.519   3.186   8.304  0.4246 -0.2695  0.5100
  447MOL0     C60277   7.532   3.037   8.244  0.3566 -0.3014 -0.8052
  447MOL0     H60278   7.009   3.265   8.652 -2.6878 -1.9276 -6.2535
  447MOL0     H60279   6.881   3.152   8.807  0.2430  2.7504 -2.8993
  447MOL0     H60280   6.883   2.703   8.729 -2.4011 -0.3326 -0.9935
  447MOL0     H60281   6.967   2.713   8.893 -1.1622  2.7067  2.3728
  447MOL0     H60282   6.741   2.732   9.001  1.5734 -0.1416 -0.3529
  447MOL0     H60283   6.727   2.590   8.890  1.3985 -0.0643  1.2927
  447MOL0     H60284   6.581   2.687   8.754 -1.5366  1.9191 -1.6203
  447MOL0     H60285   6.633   2.851   8.785 -0.7122 -0.5403 -3.2639
  447MOL0     H60286   6.488   2.690   9.002  5.8464 -0.8450 -0.9705
  447MOL0     H60287   6.539   2.862   8.994  0.2753 -0.0942  1.0736
  447MOL0     H60288   6.374   2.916   8.824 -1.6572  0.5181  1.5852
  447MOL0     H60289   6.365   2.749   8.777 -0.8760  0.2503 -0.4331
  447MOL0     H60290   6.269   2.719   9.021  2.1815  0.8056  0.2630
  447MOL0     H60291   6.216   2.893   9.006 -0.7768 -1.7467  2.9700
  447MOL0     H60292   6.137   2.662   8.836 -1.3024 -0.6496  0.7908
  447MOL0     H60293   6.114   2.836   8.791 -1.2162  2.4317  2.2270
  447MOL0     H60294   6.034   2.751   9.061 -2.9570  1.5680  0.7399
  447MOL0     H60295   5.972   2.883   8.963 -1.1505 -0.4961 -0.0224
  447MOL0     H60296   5.979   2.495   9.002  0.4282  0.9736  0.6834
  447MOL0     H60297   5.662   2.339   8.891  0.9777 -4.8189  0.9891
  447MOL0     H60298   5.804   2.304   8.975  0.8983  1.1836  0.0790
  447MOL0     H60299   5.645   2.233   9.141 -4.5078 -1.0260 -1.8178
  447MOL0     H60300   5.673   2.398   9.184 -2.1166  1.6026 -1.0507
  447MOL0     H60301   5.422   2.274   9.083 -0.7198 -0.5246  1.3315
  447MOL0     H60302   5.468   2.415   8.991 -0.9151  0.6033  1.3653
  447MOL0     H60303   5.484   2.557   9.174 -3.0352  1.0882 -0.8223
  447MOL0     H60304   5.413   2.420   9.281 -0.2118 -0.7901 -0.1792
  447MOL0     H60305   5.271   2.254   9.304 -0.3694  2.0256  1.9805
  447MOL0     H60306   5.128   2.076   9.265 -1.5565 -0.4199  0.0768
  447MOL0     H60307   4.948   1.699   9.130 -0.2972 -2.8735  0.9205
  447MOL0     H60308   4.815   1.523   9.178  1.8484  0.5115 -2.8125
  447MOL0     H60309   4.472   1.370   9.185 -0.3380 -0.6096  0.9497
  447MOL0     H60310   4.631   1.403   9.125  0.4828 -2.0113  0.5523
  447MOL0     H60311   4.735   1.357   9.350  0.5601  0.3357  0.9381
  447MOL0     H60312   4.575   1.319   9.422  1.5677  1.4024  1.1635
  447MOL0     H60313   4.702   1.184   9.185 -2.2895 -2.2334 -0.8566
  447MOL0     H60314   4.690   1.125   9.341  2.8933  1.0747 -2.0544
  447MOL0     H60315   4.450   1.177   9.151 -1.2196 -1.9580 -0.7988
  447MOL0     H60316   4.420   1.147   9.324  0.1415 -4.6098 -0.2003
  447MOL0     H60317   4.508   0.959   9.333 -2.2642  1.3909  0.3596
  447MOL0     H60318   4.591   0.947   9.169 -0.9795  0.3232 -1.1634
  447MOL0     H60319   4.292   0.979   9.210 -0.6560  0.7907 -1.2940
  447MOL0     H60320   4.374   0.964   9.055 -1.6284  0.6886 -0.4719
  447MOL0     H60321   4.407   0.733   9.262 -2.8597 -2.5936 -0.7095
  447MOL0     H60322   4.456   0.745   9.098  2.1166  2.1821  0.5433
  447MOL0     H60323   4.162   0.744   9.200 -1.7572  1.8884 -1.4772
  447MOL0     H60324   4.210   0.750   9.026  3.7732  2.0461  0.0679
  447MOL0     H60325   4.501   1.793   9.299 -0.1627  2.4819 -1.1408
  447MOL0     H60326   4.659   1.987   9.247  0.5937  0.6589 -0.5198
  447MOL0     H60327   4.910   2.321   8.974  0.8661  0.7914  0.0526
  447MOL0     H60328   5.058   2.496   9.013 -0.4920  0.3163  0.3616
  447MOL0     H60329   7.097   2.785   8.722  1.0972 -0.3007 -1.3057
  447MOL0     H60330   7.269   2.904   8.625 -0.9161 -1.5653 -1.0293
  447MOL0     H60331   7.339   3.406   8.502  0.5277  2.1702 -1.0624
  447MOL0     H60332   7.509   3.553   8.422 -0.6682 -0.9969 -0.5234
  447MOL0     H60333   7.753   3.419   8.084 -1.5348  0.3443  1.5578
  447MOL0     H60334   7.866   3.414   8.227  1.1153 -1.4750 -1.6591
  447MOL0     H60335   7.792   3.678   8.068  2.2309  2.5093  0.1085
  447MOL0     H60336   7.933   3.585   8.023  0.7453  1.2642 -0.6563
  447MOL0     H60337   7.882   3.672   8.317  1.4013 -0.7398  1.0427
  447MOL0     H60338   7.951   3.781   8.189  2.4689 -1.1579 -3.0685
  447MOL0     H60339   8.140   3.663   8.323  2.3891  0.7598 -2.5788
  447MOL0     H60340   8.048   3.519   8.300  0.6911 -2.3472 -4.2641
  447MOL0     H60341   8.238   3.504   7.937  1.6461 -0.4573  1.1794
  447MOL0     H60342   7.680   3.249   8.171  0.7241 -1.2889  1.3289
  447MOL0     H60343   7.445   3.022   8.178 -0.2357 -0.6750  0.0369
  447MOL0     H60344   7.623   3.030   8.184  1.8566  2.6817  0.8933
  447MOL0     H60345   7.545   2.967   8.327  1.7145  1.2590  0.3705
  448MOL0     O60346   9.482   6.231   5.258  0.2542  0.2773  0.4528
  448MOL0     C60347   9.415   6.144   5.302 -0.1123 -0.1728 -0.2587
  448MOL0     O60348   9.469   6.035   5.378 -0.3471 -0.2153  0.8330
  448MOL0     C60349   9.603   6.034   5.405  1.4601  0.0739  0.2991
  448MOL0     C60350   9.658   6.125   5.493 -0.2224  0.0636  0.5606
  448MOL0     C60351   9.791   6.123   5.518  0.4663 -0.0455 -0.5778
  448MOL0     C60352   9.868   6.013   5.483  0.2232  0.2600 -0.3055
  448MOL0     O60353   9.992   5.990   5.537  0.9528  0.2994 -1.1130
  448MOL0     C60354  10.037   6.056   5.652 -0.4457 -0.5436 -0.2114
  448MOL0     C60355  10.175   6.006   5.686 -0.1356 -0.4914  0.1409
  448MOL0     C60356  10.215   6.104   5.801 -0.6212 -0.0449  0.0367
  448MOL0     C60357  10.147   6.086   5.951  0.3480  0.6382 -0.4860
  448MOL0     C60358  10.220   6.160   6.063 -0.4169 -0.4624 -1.2158
  448MOL0     C60359  10.153   6.173   6.203 -0.1384  0.2590 -0.1607
  448MOL0     C60360  10.007   6.221   6.187 -0.1667 -1.2639 -0.4086
  448MOL0     C60361   9.960   6.278   6.321  0.5538 -0.8200  0.0324
  448MOL0     N60362  10.014   6.415   6.321  0.4968  0.6943  0.9036
  448MOL0     C60363  10.115   6.450   6.398 -0.2761 -0.1003  0.0071
  448MOL0     C60364  10.103   6.585   6.392  0.2227  0.1578 -1.3971
  448MOL0     C60365  10.155   6.700   6.477  0.1791  0.3496 -0.5344
  448MOL0     C60366  10.041   6.773   6.564  0.0871 -0.6667  0.0990
  448MOL0     C60367  10.116   6.856   6.672 -0.1699 -0.0418 -0.5892
  448MOL0     C60368  10.055   6.993   6.701  0.9185 -0.5301  0.3133
  448MOL0     O60369  10.073   7.073   6.587  0.0098 -0.0823  0.7249
  448MOL0     C60370  10.068   7.207   6.602  1.2816 -0.5454  0.9566
  448MOL0     C60371  10.025   7.283   6.721  0.5723 -0.9618  0.4462
  448MOL0     C60372  10.055   7.420   6.722 -0.6332 -0.4995  0.2878
  448MOL0     C60373  10.113   7.480   6.611 -0.4304  0.1978  1.1500
  448MOL0     C60374  10.153   7.627   6.616  0.2221  0.4644 -0.1924
  448MOL0     O60375  10.236   7.687   6.520  0.0243  0.7515 -0.3405
  448MOL0     C60376  10.295   7.810   6.536  0.1801  0.5635 -0.3852
  448MOL0     C60377  10.273   7.907   6.443  0.0010 -0.2391  0.1686
  448MOL0     C60378  10.337   8.032   6.457 -0.4634 -0.0121  0.5605
  448MOL0     C60379  10.418   8.059   6.556  0.2463 -0.4834 -0.5739
  448MOL0     O60380  10.488   8.186   6.570  0.9267  0.1405 -0.0506
  448MOL0     C60381  10.431   8.307   6.519  0.3191  0.0936  0.0380
  448MOL0     C60382  10.514   8.441   6.551 -0.2544  0.4578 -0.2630
  448MOL0     C60383  10.654   8.420   6.491 -0.0646 -0.3433  0.2546
  448MOL0     C60384  10.660   8.474   6.352 -0.2417 -0.5153 -0.1454
  448MOL0     C60385  10.786   8.444   6.272 -0.8444  0.2350 -0.2107
  448MOL0     C60386  10.887   8.550   6.319 -0.4260  0.9537 -0.1366
  448MOL0     C60387  11.012   8.530   6.243 -0.7548 -0.0731  0.6282
  448MOL0     C60388  11.110   8.642   6.272 -0.4534 -0.7003  0.0452
  448MOL0    Cl60389  11.170   8.656   6.446 -0.1731 -0.3029  0.2139
  448MOL0     C60390  10.446   7.953   6.647 -0.1275  0.8759 -0.0649
  448MOL0     C60391  10.388   7.824   6.631 -0.3951  0.0611  0.6359
  448MOL0     O60392  10.109   7.687   6.717  0.1598  0.2963  0.1831
  448MOL0     C60393  10.147   7.405   6.494  0.5017 -0.2052 -0.4366
  448MOL0     C60394  10.112   7.271   6.480  0.0141  0.3076 -0.5548
  448MOL0     N60395  10.002   6.623   6.315  0.9212 -1.7480 -0.1570
  448MOL0     N60396   9.943   6.515   6.274 -0.4808 -0.8333  0.7729
  448MOL0     C60397   9.808   5.917   5.394 -0.1759  0.0549 -0.3292
  448MOL0     C60398   9.675   5.927   5.361  0.0637  0.5913 -0.2100
  448MOL0     C60399   9.280   6.122   5.245 -0.5508  0.0009  0.4540
  448MOL0     C60400   9.192   6.031   5.310  0.2028  0.1409 -0.2878
  448MOL0     C60401   9.062   6.025   5.269  0.0913 -0.1877  0.3881
  448MOL0     C60402   9.010   6.103   5.163 -0.7196  0.0873 -0.9431
  448MOL0     O60403   8.890   6.077   5.107 -0.7320  0.6857  0.3028
  448MOL0     C60404   8.775   6.090   5.189 -0.5072  0.5847 -0.0915
  448MOL0     C60405   8.672   5.986   5.159  0.9079  0.0600 -0.0488
  448MOL0     C60406   8.553   5.978   5.266 -0.9600 -0.7159  0.0742
  448MOL0     C60407   8.613   5.929   5.404 -0.2095 -0.5341 -0.1761
  448MOL0     C60408   8.699   5.813   5.406 -0.3707  0.0797 -0.3866
  448MOL0     C60409   8.779   5.728   5.424 -0.1569  0.6531  0.2394
  448MOL0     C60410   9.095   6.199   5.112 -0.2522  0.2274 -0.1308
  448MOL0     C60411   9.233   6.212   5.138 -0.5761 -0.0457  0.0159
  448MOL0     C60412   9.295   6.326   5.058  0.7982  0.3207  0.6730
  448MOL0     H60413   9.604   6.214   5.524  0.5992  1.0098 -0.6603
  448MOL0     H60414   9.844   6.197   5.576  2.3541 -2.1888  0.6381
  448MOL0     H60415  10.041   6.160   5.618  2.3297 -1.2034 -2.2527
  448MOL0     H60416   9.974   6.046   5.741  1.4994  1.4662  1.5271
  448MOL0     H60417  10.248   6.017   5.605 -0.4196 -0.4546 -0.1155
  448MOL0     H60418  10.176   5.903   5.723 -2.3202 -1.5398 -2.3503
  448MOL0     H60419  10.221   6.208   5.766  0.5830  0.2845  1.1283
  448MOL0     H60420  10.317   6.085   5.836 -1.0984 -0.6169  1.1705
  448MOL0     H60421  10.045   6.125   5.943  0.4143  0.6857 -1.1364
  448MOL0     H60422  10.153   5.979   5.975  7.3052  1.3549  3.6296
  448MOL0     H60423  10.318   6.115   6.081  0.5806  2.6954  2.8636
  448MOL0     H60424  10.234   6.263   6.028 -0.8737 -0.3080 -0.9547
  448MOL0     H60425  10.152   6.069   6.239 -0.5619  0.3002 -0.0432
  448MOL0     H60426  10.205   6.235   6.276  0.2272  0.8833 -0.9449
  448MOL0     H60427   9.946   6.135   6.155  2.7558 -2.5858 -2.8837
  448MOL0     H60428  10.003   6.296   6.107 -1.4473  0.2179  0.9759
  448MOL0     H60429   9.852   6.292   6.321  0.7253  0.6922  0.5637
  448MOL0     H60430  10.004   6.231   6.410  2.2765  1.4671  0.4927
  448MOL0     H60431  10.183   6.388   6.456  2.9857  3.4401  0.3520
  448MOL0     H60432  10.230   6.654   6.542 -1.1071  0.4535  1.0922
  448MOL0     H60433  10.196   6.763   6.398 -0.0124 -0.8035 -1.5816
  448MOL0     H60434   9.992   6.835   6.489 -0.1771 -1.2983 -0.2553
  448MOL0     H60435   9.970   6.703   6.608 -0.1124 -1.3237 -1.2151
  448MOL0     H60436  10.224   6.867   6.664 -0.1869  0.7033  0.0639
  448MOL0     H60437  10.110   6.793   6.761  1.9865  0.8824  0.2797
  448MOL0     H60438  10.090   7.040   6.793  2.2699 -2.0113  0.6065
  448MOL0     H60439   9.949   6.976   6.720  0.4324 -0.9347 -2.3137
  448MOL0     H60440   9.991   7.231   6.810  1.6495 -2.6080 -0.0565
  448MOL0     H60441  10.033   7.475   6.813  1.6532 -1.7487  1.7105
  448MOL0     H60442  10.211   7.889   6.355  2.3840  1.7731 -2.0789
  448MOL0     H60443  10.323   8.101   6.374 -1.7674 -0.8913  0.0218
  448MOL0     H60444  10.421   8.298   6.410  0.9878 -3.5715  0.1632
  448MOL0     H60445  10.328   8.325   6.552  1.2015  1.6422  2.1456
  448MOL0     H60446  10.464   8.532   6.516  2.0604  1.4090 -1.3245
  448MOL0     H60447  10.514   8.452   6.660 -1.0095 -1.4103 -0.0293
  448MOL0     H60448  10.735   8.468   6.546 -1.4888 -1.8998  4.1388
  448MOL0     H60449  10.671   8.312   6.484 -0.1681 -0.5573  2.4650
  448MOL0     H60450  10.648   8.583   6.351  1.7667 -0.1957  1.7509
  448MOL0     H60451  10.574   8.436   6.296 -0.2761 -0.5042 -0.1003
  448MOL0     H60452  10.743   8.462   6.173 -3.6006  1.9141  1.1629
  448MOL0     H60453  10.821   8.341   6.283 -4.3181 -1.2123 -1.1825
  448MOL0     H60454  10.851   8.651   6.295 -1.1824  0.0879 -3.0921
  448MOL0     H60455  10.906   8.534   6.425 -2.2777 -0.2465  0.0496
  448MOL0     H60456  10.983   8.524   6.138  0.3974  0.8338  0.2363
  448MOL0     H60457  11.069   8.438   6.264  0.1665  0.4329  0.4145
  448MOL0     H60458  11.196   8.632   6.205 -0.4101  0.2607 -0.0635
  448MOL0     H60459  11.051   8.732   6.254 -2.6682 -1.3789  3.0870
  448MOL0     H60460  10.521   7.967   6.724  1.9320 -0.5004 -1.7155
  448MOL0     H60461  10.413   7.743   6.699 -3.6358 -2.1512 -0.5266
  448MOL0     H60462  10.193   7.453   6.408  0.4694 -0.7151 -0.7462
  448MOL0     H60463  10.122   7.214   6.389  0.0891 -0.8901  0.1751
  448MOL0     H60464   9.860   5.828   5.360  1.3893  1.9562 -3.2636
  448MOL0     H60465   9.637   5.848   5.296 -0.2945 -1.7455  2.6189
  448MOL0     H60466   9.216   5.968   5.395 -0.6537  0.2135  0.0208
  448MOL0     H60467   9.003   5.947   5.315  0.0376 -0.7502 -0.6121
  448MOL0     H60468   8.724   6.186   5.173 -0.6232  0.9818  2.3450
  448MOL0     H60469   8.805   6.078   5.293 -1.2592  1.9675  0.3102
  448MOL0     H60470   8.712   5.884   5.157  2.3296  0.5563 -3.3207
  448MOL0     H60471   8.618   6.017   5.069  1.4818  1.0244 -0.0773
  448MOL0     H60472   8.493   5.893   5.233 -0.0342 -0.7999 -1.4826
  448MOL0     H60473   8.489   6.066   5.271 -0.2853 -0.0061 -2.5550
  448MOL0     H60474   8.669   6.009   5.453  1.5824 -1.4738 -0.5744
  448MOL0     H60475   8.527   5.902   5.466 -1.2446 -0.2700 -1.4521
  448MOL0     H60476   8.856   5.657   5.449 -2.2770 -2.0544 -0.4460
  448MOL0     H60477   9.045   6.263   5.040 -0.9394  0.4965  0.5662
  448MOL0     H60478   9.269   6.419   5.109 -1.4167 -0.3868  0.9636
  448MOL0     H60479   9.402   6.310   5.045  0.7683  0.8878 -0.3973
  448MOL0     H60480   9.253   6.330   4.957  0.8461  2.5447  0.7022
  449MOL0     O60481   3.937   8.264   0.984 -0.0265  0.9496 -1.1843
  449MOL0     C60482   3.869   8.363   0.999 -0.0964 -1.0578 -0.0405
  449MOL0     O60483   3.730   8.376   0.990 -0.5191  0.5912 -0.1625
  449MOL0     C60484   3.653   8.266   1.005  0.2386  0.4194  0.1952
  449MOL0     C60485   3.523   8.306   1.033  0.5317  0.2940 -0.1050
  449MOL0     C60486   3.423   8.216   1.066  0.0571 -0.8832 -0.5507
  449MOL0     C60487   3.456   8.081   1.085  0.0905  0.1857 -0.9104
  449MOL0     O60488   3.363   7.998   1.149  0.2331  0.3038  0.2308
  449MOL0     C60489   3.421   7.889   1.218  1.1101 -0.1431  0.8636
  449MOL0     C60490   3.321   7.822   1.308 -0.6927  0.2766  0.0747
  449MOL0     C60491   3.227   7.738   1.219  0.4237 -0.4080  0.7782
  449MOL0     C60492   3.124   7.690   1.310  0.8238  0.9603 -0.1312
  449MOL0     C60493   3.011   7.603   1.241 -0.8187 -0.6550  0.9354
  449MOL0     C60494   2.919   7.560   1.347 -0.0961  0.1929  0.2702
  449MOL0     C60495   2.813   7.476   1.278 -0.1083 -0.0660 -0.2778
  449MOL0     C60496   2.697   7.552   1.193 -0.2167  1.3153 -0.1291
  449MOL0     N60497   2.601   7.632   1.271 -0.0199  0.2214 -0.9018
  449MOL0     C60498   2.633   7.756   1.323 -0.0422 -0.0210  1.1630
  449MOL0     C60499   2.518   7.810   1.357 -0.1365 -0.2601  0.2812
  449MOL0     C60500   2.515   7.952   1.398  0.0563 -0.0355 -1.0512
  449MOL0     C60501   2.615   7.973   1.503 -0.0782 -0.2833 -0.5490
  449MOL0     C60502   2.660   8.111   1.527 -0.3985  0.2741  0.1042
  449MOL0     C60503   2.758   8.122   1.649 -0.6173  0.1015  0.0570
  449MOL0     O60504   2.883   8.078   1.581  0.2613 -1.2026 -0.5131
  449MOL0     C60505   2.989   8.047   1.660  0.2790 -0.2464 -1.0325
  449MOL0     C60506   3.027   7.920   1.649 -1.4537  1.5503  0.4962
  449MOL0     C60507   3.119   7.862   1.738 -0.4444 -0.4215  0.5704
  449MOL0     C60508   3.160   7.944   1.849 -0.1593  0.0467  0.0705
  449MOL0     C60509   3.253   7.896   1.949 -0.3968  0.2040  0.3141
  449MOL0     O60510   3.303   7.977   2.053  0.2091 -0.3365 -0.0586
  449MOL0     C60511   3.385   7.929   2.147  0.6678 -0.1089  0.4958
  449MOL0     C60512   3.385   7.987   2.269 -0.1223  0.1795  0.3572
  449MOL0     C60513   3.470   7.946   2.372 -0.6695 -0.0600 -0.2812
  449MOL0     C60514   3.570   7.852   2.357 -0.1272 -0.2865  0.4264
  449MOL0     O60515   3.668   7.834   2.453 -0.9861 -0.3272  0.8288
  449MOL0     C60516   3.662   7.711   2.531  0.5551 -0.1206  0.0914
  449MOL0     C60517   3.766   7.726   2.638 -0.3720 -0.4603  0.0586
  449MOL0     C60518   3.755   7.619   2.748  0.9975  0.7136  0.5058
  449MOL0     C60519   3.875   7.611   2.838  0.7555 -0.2762  0.3942
  449MOL0     C60520   3.932   7.484   2.886  0.2364  0.1394 -0.5549
  449MOL0     C60521   4.010   7.402   2.783  0.0945 -0.1269  0.2896
  449MOL0     C60522   4.101   7.299   2.839 -0.4601 -0.0582 -0.8630
  449MOL0     C60523   4.181   7.227   2.739  0.0929 -0.4260 -0.5155
  449MOL0    Cl60524   4.073   7.134   2.636 -0.5301 -0.3684 -0.0090
  449MOL0     C60525   3.578   7.806   2.228 -0.0847 -0.6240  0.7326
  449MOL0     C60526   3.493   7.840   2.120  0.1795 -0.8492 -0.1256
  449MOL0     O60527   3.281   7.777   1.940  0.2807 -0.6174  0.2548
  449MOL0     C60528   3.116   8.080   1.859 -0.3126  0.2709 -0.2931
  449MOL0     C60529   3.038   8.133   1.759 -0.1926 -0.2116 -0.4605
  449MOL0     N60530   2.416   7.723   1.337  0.8582  0.6568  0.9439
  449MOL0     N60531   2.468   7.616   1.283  0.3180  0.3073 -0.1539
  449MOL0     C60532   3.588   8.039   1.043  0.0868 -0.7077 -0.2066
  449MOL0     C60533   3.685   8.128   1.008  0.0664  0.2931 -0.2580
  449MOL0     C60534   3.938   8.485   1.031  0.8983 -0.5782 -0.2433
  449MOL0     C60535   3.872   8.555   1.128 -0.3150  0.4886 -0.3083
  449MOL0     C60536   3.941   8.653   1.202 -0.0246  0.4351  0.0972
  449MOL0     C60537   4.077   8.686   1.185 -0.0836  0.7772 -0.3758
  449MOL0     O60538   4.163   8.778   1.239 -0.3628 -0.0165  0.9972
  449MOL0     C60539   4.100   8.867   1.330  0.1683 -0.1896 -1.2304
  449MOL0     C60540   4.090   8.817   1.473  0.6633 -0.7928  0.0539
  449MOL0     C60541   4.227   8.791   1.539  0.7765 -0.5548 -1.2831
  449MOL0     C60542   4.206   8.785   1.690 -0.7117  0.3033  0.0151
  449MOL0     C60543   4.346   8.761   1.735 -2.0495  0.4433 -0.8098
  449MOL0     C60544   4.457   8.750   1.771 -1.1228  0.0805 -0.7416
  449MOL0     C60545   4.131   8.617   1.076  0.2825  0.8638 -0.5811
  449MOL0     C60546   4.071   8.516   1.002 -0.0873  0.5234  0.5858
  449MOL0     C60547   4.149   8.441   0.897 -0.7441  0.1030  0.4266
  449MOL0     H60548   3.494   8.411   1.031  0.0762  0.1875 -2.5938
  449MOL0     H60549   3.325   8.251   1.097 -0.0634 -3.8172  3.0377
  449MOL0     H60550   3.465   7.819   1.146 -0.6115 -0.4395  0.0375
  449MOL0     H60551   3.493   7.937   1.285  0.2898  2.2054  0.1551
  449MOL0     H60552   3.263   7.907   1.345 -1.3164 -0.2709  0.3691
  449MOL0     H60553   3.376   7.774   1.389 -1.4625  0.1259  0.5129
  449MOL0     H60554   3.277   7.649   1.181 -0.2925  0.0720 -1.4794
  449MOL0     H60555   3.181   7.793   1.136  0.8187 -0.4407  0.5353
  449MOL0     H60556   3.172   7.635   1.392  1.3295  1.8395  0.1767
  449MOL0     H60557   3.067   7.778   1.341  0.4339  0.9069 -0.6899
  449MOL0     H60558   2.960   7.673   1.174  1.6241 -0.5166 -0.8946
  449MOL0     H60559   3.058   7.519   1.189  0.1970  0.8746 -0.7138
  449MOL0     H60560   2.967   7.497   1.422 -0.4981 -0.7063 -0.2191
  449MOL0     H60561   2.886   7.650   1.400  0.8322  0.0320  1.1616
  449MOL0     H60562   2.759   7.410   1.346 -2.0768  2.9919  1.3372
  449MOL0     H60563   2.862   7.410   1.206 -0.8918 -0.4113 -0.5017
  449MOL0     H60564   2.740   7.623   1.122  0.4835  0.7527 -0.2719
  449MOL0     H60565   2.637   7.479   1.139  2.1740 -1.2824  0.4858
  449MOL0     H60566   2.732   7.801   1.329 -0.3214  0.9641 -0.7880
  449MOL0     H60567   2.538   8.013   1.309  0.4496  0.4673 -0.6126
  449MOL0     H60568   2.415   7.983   1.427 -0.6537 -1.9702 -1.2898
  449MOL0     H60569   2.576   7.925   1.593  0.3935 -1.9032 -1.1595
  449MOL0     H60570   2.712   7.924   1.491 -0.6550 -1.3503 -1.0107
  449MOL0     H60571   2.567   8.165   1.544 -0.2109  0.9621 -0.9339
  449MOL0     H60572   2.703   8.145   1.432 -1.5897 -2.6681 -1.6029
  449MOL0     H60573   2.728   8.054   1.730 -2.1759  0.9591  0.2347
  449MOL0     H60574   2.767   8.219   1.699  2.1840 -0.0386 -0.0464
  449MOL0     H60575   2.988   7.862   1.567 -2.7385 -2.0831  3.3920
  449MOL0     H60576   3.151   7.762   1.710  0.0567 -0.1632  0.1816
  449MOL0     H60577   3.303   8.057   2.287 -1.1123 -0.3031 -1.9223
  449MOL0     H60578   3.465   7.999   2.467 -3.7470  0.8857 -0.8641
  449MOL0     H60579   3.564   7.687   2.574  1.0410 -0.0670  1.2517
  449MOL0     H60580   3.678   7.620   2.473 -0.6875 -2.3596  2.9966
  449MOL0     H60581   3.866   7.726   2.593 -0.4778  1.5942 -0.2863
  449MOL0     H60582   3.753   7.824   2.686 -2.7479 -1.7522  2.2821
  449MOL0     H60583   3.661   7.636   2.802  0.1975 -3.6958  0.9086
  449MOL0     H60584   3.750   7.520   2.701  0.9369 -0.0020  1.9654
  449MOL0     H60585   3.850   7.669   2.927 -0.5525  1.1925 -0.8763
  449MOL0     H60586   3.954   7.665   2.786 -1.0944 -0.1199 -2.4574
  449MOL0     H60587   3.855   7.421   2.931 -1.5032  1.7007 -1.2402
  449MOL0     H60588   4.000   7.495   2.971  2.6928  0.4076 -2.4272
  449MOL0     H60589   3.950   7.353   2.705  3.0704 -2.0414 -0.9592
  449MOL0     H60590   4.067   7.477   2.726 -1.6124 -1.0430 -2.9039
  449MOL0     H60591   4.041   7.225   2.893 -2.1328  1.7777 -0.0724
  449MOL0     H60592   4.167   7.349   2.909  1.1820 -0.5410 -1.9920
  449MOL0     H60593   4.239   7.293   2.673  2.2021 -0.9441  0.6984
  449MOL0     H60594   4.256   7.156   2.775 -0.6860 -0.6527  0.7070
  449MOL0     H60595   3.661   7.744   2.194  0.6868  0.1211  1.2063
  449MOL0     H60596   3.524   7.793   2.027  1.0271 -1.7468  0.6009
  449MOL0     H60597   3.164   8.139   1.937 -1.6881  0.0995  0.7213
  449MOL0     H60598   3.005   8.234   1.740  4.0669  0.9809 -2.6394
  449MOL0     H60599   3.621   7.936   1.047  1.7478 -0.2019  0.1048
  449MOL0     H60600   3.784   8.093   0.985 -0.9590 -2.2274 -1.1595
  449MOL0     H60601   3.771   8.527   1.157  0.6790 -2.2166  0.8595
  449MOL0     H60602   3.890   8.707   1.281  1.5397  1.4481  0.4467
  449MOL0     H60603   4.004   8.902   1.290 -0.2875 -1.8260 -1.6364
  449MOL0     H60604   4.158   8.960   1.330  1.1484 -0.7848 -0.3679
  449MOL0     H60605   4.043   8.719   1.467 -0.6906 -0.0967 -3.5178
  449MOL0     H60606   4.036   8.890   1.534  2.3955 -0.9207  1.8265
  449MOL0     H60607   4.301   8.869   1.522  0.9637 -0.7892 -1.5577
  449MOL0     H60608   4.267   8.695   1.505  0.9489 -0.8809 -0.2017
  449MOL0     H60609   4.154   8.873   1.729 -0.5571  1.9183 -3.1036
  449MOL0     H60610   4.133   8.707   1.713 -1.1739  0.7738  0.1655
  449MOL0     H60611   4.552   8.717   1.807 -1.8568 -1.6979 -0.3659
  449MOL0     H60612   4.237   8.641   1.067  0.7801 -0.9044  0.1176
  449MOL0     H60613   4.094   8.433   0.803  0.6477 -0.3257 -0.3787
  449MOL0     H60614   4.231   8.508   0.872 -1.9694  1.0665 -1.2075
  449MOL0     H60615   4.186   8.344   0.930 -2.6321 -0.2135  1.7812
  450MOL0     O60616   7.465   1.150  10.723 -0.4087 -0.1704 -0.2733
  450MOL0     C60617   7.538   1.064  10.772  1.3561  0.4040  0.0495
  450MOL0     O60618   7.674   1.070  10.795 -0.2744 -0.0639  0.2160
  450MOL0     C60619   7.747   1.180  10.747 -0.4305  0.9338 -0.3308
  450MOL0     C60620   7.859   1.220  10.814 -0.8828 -0.8543  0.0164
  450MOL0     C60621   7.941   1.324  10.766 -0.0370  0.3105  0.7188
  450MOL0     C60622   7.922   1.377  10.639 -0.1957 -0.3427  0.2615
  450MOL0     O60623   7.994   1.474  10.577 -0.1970  0.5839  0.5117
  450MOL0     C60624   8.010   1.594  10.650  0.8221 -0.3170  0.1122
  450MOL0     C60625   7.879   1.664  10.693  0.9733 -0.2839  0.2562
  450MOL0     C60626   7.911   1.815  10.692  0.9196  0.3168 -0.3069
  450MOL0     C60627   7.787   1.901  10.715  0.2648 -0.6105  0.7466
  450MOL0     C60628   7.832   2.049  10.702  0.5882 -0.1405 -0.0874
  450MOL0     C60629   7.717   2.148  10.701 -0.4158 -0.3068  0.3591
  450MOL0     C60630   7.634   2.162  10.825 -0.3810  1.1072  0.0215
  450MOL0     C60631   7.526   2.063  10.855  0.4362 -0.0882 -0.4988
  450MOL0     N60632   7.443   2.040  10.736  0.6567  0.6035  0.7882
  450MOL0     C60633   7.346   2.128  10.698 -0.2897  0.4054 -0.5509
  450MOL0     C60634   7.281   2.053  10.605  0.0377 -0.8972 -0.2493
  450MOL0     C60635   7.163   2.077  10.522  0.4331 -0.5700  0.5572
  450MOL0     C60636   7.195   2.156  10.397 -0.2677  0.1385 -0.4819
  450MOL0     C60637   7.340   2.127  10.334  0.5573 -0.0179  0.3690
  450MOL0     C60638   7.344   1.979  10.282 -0.8226  0.2805  0.5125
  450MOL0     O60639   7.429   1.966  10.168 -0.2871 -0.4824  0.6598
  450MOL0     C60640   7.570   1.970  10.182  1.0584 -0.5344  0.0571
  450MOL0     C60641   7.637   1.933  10.302  0.0285  0.4904  0.3806
  450MOL0     C60642   7.778   1.923  10.303  1.3703 -1.3412  0.1037
  450MOL0     C60643   7.852   1.947  10.189 -0.6633 -0.0093  0.4332
  450MOL0     C60644   8.005   1.950  10.191 -0.3669  0.5143  0.1963
  450MOL0     O60645   8.084   1.969  10.070 -0.2528 -0.4885  0.0795
  450MOL0     C60646   8.215   1.976  10.101 -0.2033  0.2687  0.2969
  450MOL0     C60647   8.272   2.098  10.140 -0.4174  0.5882  1.1839
  450MOL0     C60648   8.411   2.104  10.160  0.1906  0.4064  0.2238
  450MOL0     C60649   8.497   2.001  10.127 -0.5397 -0.6612  0.2396
  450MOL0     O60650   8.632   2.010  10.135 -0.0117  0.2391  0.1470
  450MOL0     C60651   8.678   2.131  10.075  0.4451 -0.9228 -0.5591
  450MOL0     C60652   8.831   2.119  10.105  0.2271 -0.7104  0.3353
  450MOL0     C60653   8.908   2.031  10.003 -0.0028  0.2114 -0.6064
  450MOL0     C60654   8.892   1.878  10.031 -0.7973 -0.2630 -0.6128
  450MOL0     C60655   8.977   1.803   9.922  0.0077 -0.1774 -0.7386
  450MOL0     C60656   8.950   1.656   9.907 -0.2881 -0.1182 -0.4489
  450MOL0     C60657   9.038   1.608   9.788  0.4309 -1.1038 -0.4587
  450MOL0     C60658   9.049   1.456   9.794 -0.0919  0.2279  0.7796
  450MOL0    Cl60659   9.108   1.385   9.646  0.5571 -0.1898 -0.2146
  450MOL0     C60660   8.437   1.879  10.086 -0.1889 -0.1924 -0.5716
  450MOL0     C60661   8.295   1.868  10.068 -0.0982 -0.0478 -0.6233
  450MOL0     O60662   8.048   1.936  10.303  0.6356 -0.6428 -0.1233
  450MOL0     C60663   7.787   1.979  10.070 -0.1675 -0.6399 -1.4237
  450MOL0     C60664   7.649   1.999  10.074 -1.2716  0.5978  0.1434
  450MOL0     N60665   7.334   1.923  10.603 -0.2486  0.3944  1.1959
  450MOL0     N60666   7.431   1.913  10.685 -0.2408 -0.1964  0.1229
  450MOL0     C60667   7.814   1.335  10.569  0.2743  0.3557 -0.7132
  450MOL0     C60668   7.735   1.230  10.622 -0.1517 -0.4589  0.4287
  450MOL0     C60669   7.480   0.924  10.787 -0.5190 -0.0122 -1.1009
  450MOL0     C60670   7.567   0.841  10.855  0.2620  0.0889  0.4695
  450MOL0     C60671   7.544   0.703  10.869 -0.5362 -1.3690  0.2586
  450MOL0     C60672   7.428   0.648  10.818 -0.4825 -0.8048 -0.0983
  450MOL0     O60673   7.391   0.517  10.836  0.0788  0.3442 -0.2930
  450MOL0     C60674   7.486   0.410  10.838 -0.0688 -0.4082 -0.7398
  450MOL0     C60675   7.489   0.358  10.704  0.2622  0.0110 -0.1790
  450MOL0     C60676   7.566   0.225  10.711  0.5533 -0.1300  0.0506
  450MOL0     C60677   7.509   0.084  10.675  0.8495 -0.2314 -0.1123
  450MOL0     C60678   7.399   0.033  10.772  0.0095 -1.2672 -0.5772
  450MOL0     C60679   7.325   0.000  10.857 -0.2251  0.7863  0.1643
  450MOL0     C60680   7.339   0.734  10.762  0.4096 -0.3107 -0.3353
  450MOL0     C60681   7.363   0.866  10.739 -0.4671 -0.9008 -0.2814
  450MOL0     C60682   7.258   0.944  10.655 -0.4009  0.2921  0.1615
  450MOL0     H60683   7.886   1.191  10.915  3.9925  1.2598 -0.4215
  450MOL0     H60684   8.030   1.357  10.819  2.0869  2.6741 -3.7732
  450MOL0     H60685   8.069   1.590  10.742  0.8787  0.2917  0.1100
  450MOL0     H60686   8.055   1.664  10.579 -0.6138  0.5940  0.0504
  450MOL0     H60687   7.851   1.636  10.795 -0.7213 -0.1420 -0.1346
  450MOL0     H60688   7.799   1.635  10.624 -0.7826 -3.7201  3.3376
  450MOL0     H60689   7.962   1.851  10.602  0.2048 -1.5844 -1.5200
  450MOL0     H60690   7.974   1.830  10.780  1.5620  2.2781 -1.0493
  450MOL0     H60691   7.709   1.883  10.640 -0.3818 -0.2277  1.3191
  450MOL0     H60692   7.747   1.883  10.815  1.5722 -1.0119  1.2188
  450MOL0     H60693   7.903   2.077  10.781 -0.3590 -2.0683  1.5594
  450MOL0     H60694   7.882   2.060  10.605 -1.7513 -1.6780 -1.5709
  450MOL0     H60695   7.773   2.240  10.679 -1.5189 -0.0797 -1.7579
  450MOL0     H60696   7.648   2.142  10.616 -1.6480  2.2176  1.0637
  450MOL0     H60697   7.590   2.262  10.822 -0.1658  1.1784 -1.4856
  450MOL0     H60698   7.694   2.182  10.915 -3.0790 -0.0286  2.2136
  450MOL0     H60699   7.574   1.970  10.889  2.0539  0.9086  0.0708
  450MOL0     H60700   7.471   2.104  10.940  1.8354  0.3873  0.2100
  450MOL0     H60701   7.328   2.228  10.737 -0.6498  0.2037 -0.1879
  450MOL0     H60702   7.115   1.980  10.507  0.9811 -0.8042  0.3078
  450MOL0     H60703   7.090   2.137  10.579  0.6826 -1.0459  1.4005
  450MOL0     H60704   7.113   2.127  10.330 -0.2502  2.4561 -1.6061
  450MOL0     H60705   7.186   2.264  10.410  0.9515  0.2755 -0.6475
  450MOL0     H60706   7.419   2.151  10.406 -3.9601  2.0294  5.3909
  450MOL0     H60707   7.357   2.198  10.253  0.2158 -1.9630 -1.4744
  450MOL0     H60708   7.241   1.946  10.267 -1.3023  1.7360  0.4477
  450MOL0     H60709   7.378   1.922  10.369  1.3474  2.7620  1.4123
  450MOL0     H60710   7.587   1.922  10.398 -2.3324 -0.9288 -0.8995
  450MOL0     H60711   7.827   1.906  10.398 -0.5318 -2.3879  0.9525
  450MOL0     H60712   8.213   2.185  10.166 -0.1761  1.1439 -0.0397
  450MOL0     H60713   8.449   2.204  10.175 -0.4783  0.7294 -0.2132
  450MOL0     H60714   8.653   2.153   9.971  0.1371 -2.6154 -0.8687
  450MOL0     H60715   8.638   2.212  10.137 -1.0413 -0.4277 -2.0996
  450MOL0     H60716   8.862   2.224  10.107 -2.2862  0.1026  1.7244
  450MOL0     H60717   8.844   2.088  10.209 -0.9093 -0.0428  0.6925
  450MOL0     H60718   8.887   2.062   9.900  2.4945  0.5182 -1.0781
  450MOL0     H60719   9.015   2.055  10.005  0.4120 -1.5440  0.2859
  450MOL0     H60720   8.788   1.852  10.013 -0.8377 -0.6592  0.1218
  450MOL0     H60721   8.918   1.853  10.134  2.7947  0.0904 -1.3094
  450MOL0     H60722   9.081   1.814   9.955 -0.3205  1.3956 -0.1771
  450MOL0     H60723   8.954   1.850   9.826  0.2119 -0.0353 -0.7186
  450MOL0     H60724   8.965   1.601  10.000 -4.5631 -1.9080 -0.5555
  450MOL0     H60725   8.843   1.639   9.891 -0.9339  1.2292  1.9105
  450MOL0     H60726   9.138   1.653   9.795 -0.4674  1.4795 -2.3843
  450MOL0     H60727   8.993   1.635   9.692 -1.9155  0.3832  0.9561
  450MOL0     H60728   9.100   1.423   9.885 -1.7876 -0.1992  1.6150
  450MOL0     H60729   8.948   1.416   9.795  0.1929 -0.5171  0.7869
  450MOL0     H60730   8.490   1.797  10.039 -0.2429 -1.0973  0.8961
  450MOL0     H60731   8.245   1.775  10.039  0.6349 -1.5983  2.6316
  450MOL0     H60732   7.842   2.007   9.982 -0.9236  0.4458 -1.5727
  450MOL0     H60733   7.603   2.023   9.979  0.0906 -0.0650 -0.7043
  450MOL0     H60734   7.789   1.375  10.472 -0.8247  0.1907 -0.5060
  450MOL0     H60735   7.646   1.206  10.565 -1.5530  1.5400  1.6579
  450MOL0     H60736   7.654   0.883  10.904 -0.5908  0.8737  1.3591
  450MOL0     H60737   7.622   0.648  10.921 -0.1721 -2.7766 -1.6651
  450MOL0     H60738   7.445   0.344  10.915  2.4811  0.2836  1.3307
  450MOL0     H60739   7.589   0.422  10.871  0.0493  1.3652 -1.6802
  450MOL0     H60740   7.542   0.429  10.639  0.7771  0.7826  1.0518
  450MOL0     H60741   7.391   0.332  10.664 -0.3038 -1.9984  2.2856
  450MOL0     H60742   7.608   0.218  10.812 -1.0094  3.4542  1.1328
  450MOL0     H60743   7.645   0.253  10.640  1.5716  2.5955  2.0601
  450MOL0     H60744   7.463   0.082  10.576 -1.0322 -1.5167  0.7368
  450MOL0     H60745   7.589   0.010  10.685 -0.7738 -2.0259  0.1455
  450MOL0     H60746   7.265  -0.020  10.943 -0.5063  0.7651 -0.0337
  450MOL0     H60747   7.244   0.702  10.720 -0.4152  0.3614  0.9351
  450MOL0     H60748   7.298   1.003  10.573 -0.9289  0.3882 -0.0321
  450MOL0     H60749   7.199   0.867  10.604  2.7649 -0.6226 -2.4628
  450MOL0     H60750   7.196   1.009  10.718  0.0914  1.4266 -0.4943
  451MOL0     O60751   8.612   9.801   6.668  0.1551  0.0832  0.4722
  451MOL0     C60752   8.615   9.904   6.742  0.7587  0.0504 -0.4454
  451MOL0     O60753   8.663  10.027   6.706  0.2076 -0.0157  0.4126
  451MOL0     C60754   8.712  10.044   6.585 -0.1418 -0.8007 -0.3583
  451MOL0     C60755   8.626  10.028   6.475  0.0678 -0.1727 -0.1431
  451MOL0     C60756   8.677  10.043   6.345 -0.1272 -0.2461  0.2745
  451MOL0     C60757   8.812  10.058   6.319  0.6679 -0.0977 -1.0211
  451MOL0     O60758   8.854  10.083   6.197  0.2803  0.0564  0.1462
  451MOL0     C60759   8.823   9.985   6.088 -0.6897 -0.5495  0.2053
  451MOL0     C60760   8.891  10.047   5.965 -0.2549  0.5023  0.7099
  451MOL0     C60761   9.040  10.027   5.958  0.5177 -0.1818 -0.4265
  451MOL0     C60762   9.100  10.070   5.825  0.5764  0.1936 -0.2646
  451MOL0     C60763   9.256  10.052   5.803  0.6339 -1.0391  0.7374
  451MOL0     C60764   9.313   9.930   5.860  0.9733 -0.3549 -0.1011
  451MOL0     C60765   9.454   9.906   5.821 -0.5028  0.3115  0.6164
  451MOL0     C60766   9.514   9.782   5.883  0.3703  0.1385 -1.7121
  451MOL0     N60767   9.573   9.801   6.013  0.0463  0.4127  0.1751
  451MOL0     C60768   9.504   9.800   6.132 -0.6074 -0.1927  0.3097
  451MOL0     C60769   9.595   9.852   6.220  0.6108 -0.1659  0.4318
  451MOL0     C60770   9.556   9.890   6.356  0.1874  0.1382 -0.3530
  451MOL0     C60771   9.581   9.782   6.459 -0.5908  0.2428  0.1530
  451MOL0     C60772   9.712   9.710   6.438  0.6009  0.1494 -0.6628
  451MOL0     C60773   9.751   9.634   6.563 -0.3613  0.5114 -1.1760
  451MOL0     O60774   9.843   9.526   6.542  0.2202  0.4263 -0.0616
  451MOL0     C60775   9.977   9.544   6.567  0.5067  0.6829  0.4397
  451MOL0     C60776  10.030   9.425   6.631  0.4539 -0.6756  0.2241
  451MOL0     C60777  10.167   9.417   6.662  1.0558 -0.3774 -0.3640
  451MOL0     C60778  10.243   9.530   6.617  0.3205  0.2941  0.0203
  451MOL0     C60779  10.390   9.518   6.626 -0.1514 -0.5884 -0.3179
  451MOL0     O60780  10.444   9.399   6.584  0.1837  0.2919 -1.1056
  451MOL0     C60781  10.569   9.377   6.544  0.0147  0.2664 -0.5552
  451MOL0     C60782  10.682   9.453   6.577 -1.3381  1.0003 -0.5778
  451MOL0     C60783  10.805   9.414   6.530  0.1285  0.6163 -1.0381
  451MOL0     C60784  10.824   9.309   6.442 -0.0364  0.0534 -0.7578
  451MOL0     O60785  10.954   9.285   6.418  0.4494  1.3026 -0.0551
  451MOL0     C60786  11.015   9.165   6.364  0.6366  0.1733 -0.0316
  451MOL0     C60787  11.152   9.154   6.435  0.7839  0.8805 -1.1359
  451MOL0     C60788  11.244   9.042   6.382 -0.0057 -0.4873  0.8498
  451MOL0     C60789  11.346   8.993   6.482 -0.0495  0.5215 -0.4790
  451MOL0     C60790  11.488   9.041   6.453 -0.6889 -0.4707  0.0776
  451MOL0     C60791  11.582   9.042   6.578  0.2906  0.0553  0.2593
  451MOL0     C60792  11.580   8.919   6.669 -0.9686  0.6668 -0.2768
  451MOL0     C60793  11.602   8.983   6.809  0.4628  0.0214  0.2386
  451MOL0    Cl60794  11.759   9.062   6.831  0.6569 -0.0869  0.3756
  451MOL0     C60795  10.710   9.235   6.407  0.8729  0.5836 -0.2139
  451MOL0     C60796  10.587   9.271   6.462 -0.0781 -0.3858 -0.8693
  451MOL0     O60797  10.457   9.614   6.662 -0.5594  0.0697  0.1478
  451MOL0     C60798  10.182   9.649   6.569 -0.0932 -0.2423  0.2095
  451MOL0     C60799  10.042   9.657   6.549 -0.0180  0.0136 -0.5934
  451MOL0     N60800   9.717   9.851   6.157 -0.9368 -0.1054  0.2080
  451MOL0     N60801   9.701   9.829   6.029 -0.1116 -0.2339 -0.9067
  451MOL0     C60802   8.894  10.071   6.425  0.4648 -0.1439  0.2732
  451MOL0     C60803   8.845  10.061   6.559 -0.5088 -0.7368 -1.0811
  451MOL0     C60804   8.562   9.878   6.871  0.1122 -0.1078 -0.2295
  451MOL0     C60805   8.461   9.786   6.893 -0.0387 -0.1709 -0.0426
  451MOL0     C60806   8.386   9.773   7.008 -0.2427  0.3912 -0.2714
  451MOL0     C60807   8.416   9.849   7.119  0.0142 -0.3609  0.7225
  451MOL0     O60808   8.334   9.835   7.231  0.2200  0.1264  0.1094
  451MOL0     C60809   8.389   9.822   7.366 -0.4246  0.3601 -0.4538
  451MOL0     C60810   8.387   9.944   7.446  0.0925  0.6549 -0.2579
  451MOL0     C60811   8.244   9.976   7.484 -1.0294 -0.9765 -0.1052
  451MOL0     C60812   8.231  10.103   7.552 -0.5854 -0.6128 -1.9611
  451MOL0     C60813   8.086  10.104   7.585  0.5450  0.1472  0.4601
  451MOL0     C60814   7.978  10.129   7.619  0.2089 -0.2189 -1.0213
  451MOL0     C60815   8.533   9.934   7.113  0.2837 -0.3385  0.0769
  451MOL0     C60816   8.603   9.951   6.988 -0.3593  0.4630 -0.0923
  451MOL0     C60817   8.722  10.030   6.987 -0.1331 -0.7918  0.6966
  451MOL0     H60818   8.521  10.003   6.482  0.2333 -1.7846 -2.2385
  451MOL0     H60819   8.613  10.044   6.257  2.1241  0.0125 -1.4692
  451MOL0     H60820   8.871   9.888   6.107 -0.1338 -0.8020 -2.1351
  451MOL0     H60821   8.715   9.979   6.073 -0.4559 -1.1199 -1.5372
  451MOL0     H60822   8.858  10.150   5.953 -3.6197 -0.7221 -2.8380
  451MOL0     H60823   8.861   9.988   5.878  3.7118  0.2783 -0.7380
  451MOL0     H60824   9.055   9.921   5.977  1.4909  0.6475  5.0714
  451MOL0     H60825   9.105  10.087   6.023  0.6408  0.1121 -0.8184
  451MOL0     H60826   9.046  10.028   5.739  0.4738  1.3269 -0.7640
  451MOL0     H60827   9.085  10.178   5.816  1.5830  0.5058  1.4191
  451MOL0     H60828   9.281  10.061   5.696  2.9305 -0.2591  1.2754
  451MOL0     H60829   9.307  10.143   5.838 -0.2806  0.1877 -0.9513
  451MOL0     H60830   9.304   9.931   5.969  0.3143  0.9537 -0.1407
  451MOL0     H60831   9.252   9.847   5.824  1.0691  0.8148 -3.3455
  451MOL0     H60832   9.520   9.991   5.845  2.1661 -0.6846 -2.4331
  451MOL0     H60833   9.450   9.904   5.712 -3.7342 -0.0472  0.6570
  451MOL0     H60834   9.432   9.710   5.888 -1.5720  2.3302  1.1075
  451MOL0     H60835   9.587   9.750   5.808 -0.5543  0.0470 -2.5925
  451MOL0     H60836   9.397   9.784   6.140 -1.3208  0.9485 -4.4220
  451MOL0     H60837   9.610   9.980   6.386  1.8305 -0.5967 -0.9631
  451MOL0     H60838   9.453   9.925   6.358 -0.1327 -0.8105  0.7387
  451MOL0     H60839   9.581   9.829   6.558 -1.9834 -1.0839  0.8323
  451MOL0     H60840   9.493   9.717   6.460  2.0753 -3.7596  2.2613
  451MOL0     H60841   9.792   9.784   6.424  1.7736 -0.0073  3.8547
  451MOL0     H60842   9.715   9.643   6.352 -0.8232  0.2112 -0.7839
  451MOL0     H60843   9.661   9.589   6.606  0.5405 -0.9943 -0.7959
  451MOL0     H60844   9.788   9.707   6.636 -2.8544 -0.9182  1.7463
  451MOL0     H60845   9.969   9.336   6.639  1.7700 -1.6550 -0.1945
  451MOL0     H60846  10.214   9.328   6.703 -0.9166 -0.7764  1.1828
  451MOL0     H60847  10.684   9.531   6.652  0.1334 -2.1007  2.9237
  451MOL0     H60848  10.899   9.465   6.549  1.4509 -1.4912 -1.5660
  451MOL0     H60849  10.961   9.073   6.391 -0.1059  1.4588  3.4137
  451MOL0     H60850  11.034   9.172   6.257 -3.3126  2.0751 -0.7974
  451MOL0     H60851  11.203   9.250   6.434  0.3899  1.2100  1.6188
  451MOL0     H60852  11.136   9.132   6.541  3.2617  1.4014 -0.6117
  451MOL0     H60853  11.178   8.966   6.338 -2.4801  0.9585  1.8434
  451MOL0     H60854  11.286   9.080   6.288 -2.0620  1.1111  0.4958
  451MOL0     H60855  11.340   8.884   6.485  1.4313  0.2536 -3.4969
  451MOL0     H60856  11.316   9.036   6.578  2.7251  0.0438  0.7165
  451MOL0     H60857  11.485   9.146   6.422 -0.9868 -0.4932  0.0332
  451MOL0     H60858  11.529   8.981   6.371  1.2329 -0.6112  1.0766
  451MOL0     H60859  11.683   9.062   6.541  0.5617  0.7531  1.3501
  451MOL0     H60860  11.558   9.130   6.637 -1.8864 -1.1552  1.3277
  451MOL0     H60861  11.662   8.851   6.644 -1.4197  0.3783 -1.0241
  451MOL0     H60862  11.488   8.860   6.662 -2.0879  2.4753 -1.8401
  451MOL0     H60863  11.520   9.052   6.830 -1.5802 -1.5729 -1.8813
  451MOL0     H60864  11.593   8.907   6.887 -1.6486  0.8657  0.8875
  451MOL0     H60865  10.717   9.146   6.346  0.7900  0.2846  0.2053
  451MOL0     H60866  10.505   9.209   6.426 -0.9089  0.8402 -1.1629
  451MOL0     H60867  10.244   9.731   6.535  4.0644 -2.6626  1.0770
  451MOL0     H60868  10.004   9.755   6.522 -2.3175 -0.7637 -0.3581
  451MOL0     H60869   8.996  10.100   6.403  0.2954  0.5027  0.3227
  451MOL0     H60870   8.914  10.065   6.643 -0.1284 -4.2057 -1.0678
  451MOL0     H60871   8.431   9.728   6.806  0.5867 -0.2024 -0.2427
  451MOL0     H60872   8.311   9.695   7.004  0.8935 -0.7510 -4.7117
  451MOL0     H60873   8.494   9.795   7.351  0.1313  0.3685  2.6448
  451MOL0     H60874   8.342   9.742   7.426  0.5667  0.8920  1.0930
  451MOL0     H60875   8.432  10.026   7.390 -0.9595  1.8556  0.6090
  451MOL0     H60876   8.446   9.921   7.536 -1.9173 -0.3256  0.9015
  451MOL0     H60877   8.195   9.901   7.546 -2.3667 -0.9639 -1.0921
  451MOL0     H60878   8.185   9.993   7.393 -0.7859  1.2117  0.0866
  451MOL0     H60879   8.291  10.104   7.644  1.0155  2.5586 -2.8867
  451MOL0     H60880   8.255  10.198   7.504  1.0500 -0.7682 -1.4912
  451MOL0     H60881   7.878  10.148   7.651  0.7472 -1.3578  1.7222
  451MOL0     H60882   8.576   9.986   7.197  0.2729 -1.6509  0.9235
  451MOL0     H60883   8.691  10.129   6.953 -0.5021 -1.3888 -0.7995
  451MOL0     H60884   8.754  10.054   7.089  0.7525  1.2972 -0.0222
  451MOL0     H60885   8.803   9.994   6.923  0.6804 -0.5710  1.5904
  452MOL0     O60886   9.643   4.908   7.417 -0.6129  0.1407  0.8305
  452MOL0     C60887   9.625   5.026   7.419 -0.1568 -0.6486 -0.5478
  452MOL0     O60888   9.732   5.114   7.421 -0.8923  0.2674  0.2718
  452MOL0     C60889   9.856   5.064   7.464 -0.6870 -0.3088 -0.2806
  452MOL0     C60890   9.928   4.958   7.402  0.9552  0.2590 -0.1808
  452MOL0     C60891  10.055   4.928   7.447 -0.1423  0.0416  0.0974
  452MOL0     C60892  10.098   4.997   7.562 -0.3572  0.2809  0.1998
  452MOL0     O60893  10.211   4.952   7.626  0.2697 -0.5958  0.4814
  452MOL0     C60894  10.323   4.996   7.549 -1.3175 -0.2491 -0.7583
  452MOL0     C60895  10.450   4.925   7.591 -0.8770 -0.6720 -0.3578
  452MOL0     C60896  10.573   4.953   7.521 -0.3692 -0.9466  0.3651
  452MOL0     C60897  10.651   5.080   7.553 -0.0521 -1.2223 -0.1556
  452MOL0     C60898  10.783   5.095   7.468  0.3985 -0.2942  0.4077
  452MOL0     C60899  10.869   5.211   7.522  0.3382 -0.3270  0.3722
  452MOL0     C60900  11.011   5.216   7.460  0.0836 -0.7919  0.2675
  452MOL0     C60901  11.110   5.290   7.552 -0.8956 -0.1834  0.2024
  452MOL0     N60902  11.223   5.356   7.486 -0.0296  0.8283 -0.0822
  452MOL0     C60903  11.318   5.304   7.402  0.5030  0.0965 -0.3038
  452MOL0     C60904  11.396   5.403   7.377 -0.2034 -0.4021  0.0093
  452MOL0     C60905  11.530   5.391   7.303 -0.6382 -0.4137 -0.0561
  452MOL0     C60906  11.501   5.383   7.159  0.0860 -0.5687 -0.2142
  452MOL0     C60907  11.631   5.373   7.077 -0.1368 -1.2421 -0.1544
  452MOL0     C60908  11.594   5.373   6.929  0.0535 -0.4150 -0.4145
  452MOL0     O60909  11.557   5.240   6.877  0.6878 -0.0412  0.2338
  452MOL0     C60910  11.646   5.145   6.827 -0.5691 -0.4393 -0.7067
  452MOL0     C60911  11.599   5.047   6.739 -0.6013 -0.0506 -0.1212
  452MOL0     C60912  11.689   4.965   6.670  0.2053  0.5939  0.3524
  452MOL0     C60913  11.828   4.975   6.689 -0.7860  0.4606 -0.2225
  452MOL0     C60914  11.918   4.891   6.606 -0.1719 -0.8110  0.4151
  452MOL0     O60915  11.872   4.810   6.502  0.1063  1.0805 -0.2572
  452MOL0     C60916  11.965   4.740   6.432  0.4632 -1.0567 -0.5297
  452MOL0     C60917  12.047   4.649   6.500 -0.6761  0.8037  0.4636
  452MOL0     C60918  12.149   4.593   6.417  0.7200 -0.3602  0.0367
  452MOL0     C60919  12.182   4.621   6.280  0.4285  0.1261 -0.2771
  452MOL0     O60920  12.292   4.588   6.215 -0.4056  0.9432  0.2776
  452MOL0     C60921  12.407   4.540   6.283 -0.1538 -0.5851  0.2228
  452MOL0     C60922  12.530   4.539   6.192  0.1019  0.1708 -0.3419
  452MOL0     C60923  12.508   4.461   6.067 -1.0944  0.1151 -0.4966
  452MOL0     C60924  12.634   4.454   5.979  0.4062  0.2075  1.0378
  452MOL0     C60925  12.615   4.370   5.858  0.1749 -0.3445  0.1021
  452MOL0     C60926  12.490   4.414   5.773  0.6617  0.5746 -0.3473
  452MOL0     C60927  12.470   4.339   5.632 -0.5825 -0.0544 -0.1373
  452MOL0     C60928  12.328   4.283   5.582 -0.1758  0.7624 -0.1557
  452MOL0    Cl60929  12.261   4.165   5.707 -0.1462 -0.2205  0.2923
  452MOL0     C60930  12.086   4.702   6.220  0.2051 -0.7741  0.5051
  452MOL0     C60931  11.981   4.765   6.294 -0.0391  0.5261  0.0071
  452MOL0     O60932  12.038   4.908   6.640 -0.0502  0.2834  0.6210
  452MOL0     C60933  11.868   5.065   6.782 -0.2005  0.1976  0.0702
  452MOL0     C60934  11.782   5.162   6.838  0.7648 -0.2381  0.3203
  452MOL0     N60935  11.353   5.517   7.435  0.9179  0.0109 -0.6073
  452MOL0     N60936  11.243   5.493   7.503 -0.6582  0.4804 -0.3869
  452MOL0     C60937  10.026   5.103   7.618 -0.6623 -0.2054 -0.5224
  452MOL0     C60938   9.907   5.134   7.571  0.4678 -0.7282  0.0738
  452MOL0     C60939   9.489   5.083   7.394  0.5846 -0.0612  0.4600
  452MOL0     C60940   9.477   5.219   7.363 -0.3590  0.4187  0.0310
  452MOL0     C60941   9.357   5.288   7.351  0.2001 -0.4859 -0.1355
  452MOL0     C60942   9.237   5.217   7.345  0.8671 -0.1922 -0.5153
  452MOL0     O60943   9.112   5.276   7.317 -0.1352 -0.1978 -0.2743
  452MOL0     C60944   9.096   5.416   7.279  0.0112 -0.5779 -1.0501
  452MOL0     C60945   8.964   5.432   7.207 -0.0124  0.5909 -0.9508
  452MOL0     C60946   8.960   5.370   7.073 -0.0647 -0.3848 -0.1011
  452MOL0     C60947   8.851   5.414   6.980  0.4935 -0.7797 -0.4540
  452MOL0     C60948   8.727   5.359   7.041  1.2072  0.0779  0.3219
  452MOL0     C60949   8.620   5.312   7.081 -0.1435  0.0095  1.1592
  452MOL0     C60950   9.235   5.079   7.381  0.0290 -0.2090  0.3628
  452MOL0     C60951   9.362   5.017   7.426  0.2202 -0.3426 -0.6874
  452MOL0     C60952   9.348   4.873   7.473 -0.0486  0.1765  0.2268
  452MOL0     H60953   9.895   4.913   7.309  1.8146  0.1968 -0.4649
  452MOL0     H60954  10.131   4.866   7.401 -1.8501 -1.2010 -1.1840
  452MOL0     H60955  10.313   4.967   7.444  0.8524 -2.5637 -0.4196
  452MOL0     H60956  10.338   5.104   7.558  0.5370 -0.4656 -0.9027
  452MOL0     H60957  10.420   4.821   7.573  0.6113 -1.2401  0.3004
  452MOL0     H60958  10.472   4.922   7.698 -1.0747  0.0152 -0.2899
  452MOL0     H60959  10.557   4.948   7.413  0.2504  2.5716 -0.0154
  452MOL0     H60960  10.642   4.872   7.547  1.4026 -0.0726 -1.3467
  452MOL0     H60961  10.590   5.169   7.533  2.3080  0.4361 -0.4115
  452MOL0     H60962  10.675   5.074   7.660 -1.1153  0.6973  0.2454
  452MOL0     H60963  10.847   5.006   7.468 -1.9888 -2.1042 -0.0644
  452MOL0     H60964  10.752   5.104   7.363 -0.5191 -3.2193  0.3344
  452MOL0     H60965  10.817   5.306   7.509 -0.4154 -0.7496  0.2542
  452MOL0     H60966  10.884   5.200   7.630 -0.6276 -0.1085  0.5350
  452MOL0     H60967  11.000   5.260   7.361 -1.4296 -2.7999 -0.5168
  452MOL0     H60968  11.056   5.118   7.440  2.0508  0.2200 -0.5142
  452MOL0     H60969  11.055   5.369   7.604 -1.2505 -1.1104  1.2997
  452MOL0     H60970  11.157   5.223   7.625 -0.7933  1.1275  1.3836
  452MOL0     H60971  11.350   5.204   7.377  0.5159 -0.1840  0.7666
  452MOL0     H60972  11.594   5.477   7.322 -0.9488 -0.0705 -0.5543
  452MOL0     H60973  11.589   5.300   7.321  1.4380 -0.0163 -3.7306
  452MOL0     H60974  11.440   5.292   7.155  2.6590 -2.4853  1.1656
  452MOL0     H60975  11.429   5.460   7.129 -0.5596  0.2477  3.0727
  452MOL0     H60976  11.705   5.296   7.102  0.9874 -0.8139 -1.9207
  452MOL0     H60977  11.687   5.466   7.085 -0.6854 -0.8795 -0.4408
  452MOL0     H60978  11.689   5.399   6.880 -0.8331 -1.5796 -2.9123
  452MOL0     H60979  11.517   5.445   6.902 -2.1168 -1.7651  1.8339
  452MOL0     H60980  11.491   5.043   6.731 -0.4744  0.4427 -2.7173
  452MOL0     H60981  11.646   4.884   6.612  2.3773  2.1581 -3.8306
  452MOL0     H60982  12.046   4.628   6.606 -1.7997  1.5124  0.6099
  452MOL0     H60983  12.231   4.540   6.465  0.8155 -1.4582 -1.2651
  452MOL0     H60984  12.435   4.610   6.362 -0.9635  2.0461 -1.7132
  452MOL0     H60985  12.385   4.443   6.328 -2.9969 -0.2245 -0.2320
  452MOL0     H60986  12.546   4.645   6.168 -2.4795  0.3118 -1.8457
  452MOL0     H60987  12.611   4.503   6.255  0.2220  2.0282  0.6240
  452MOL0     H60988  12.470   4.360   6.087 -2.0242  0.5049 -0.2283
  452MOL0     H60989  12.433   4.522   6.015 -2.4814 -1.1533 -0.0703
  452MOL0     H60990  12.713   4.402   6.034 -0.0326 -0.8473  0.6912
  452MOL0     H60991  12.662   4.547   5.928  3.0189 -0.5625  0.9366
  452MOL0     H60992  12.593   4.266   5.885 -4.2147  0.9401  2.3843
  452MOL0     H60993  12.701   4.384   5.792 -0.4681  0.4622 -0.5786
  452MOL0     H60994  12.394   4.410   5.826 -0.7418 -0.4348 -2.8122
  452MOL0     H60995  12.507   4.518   5.745 -1.4251  1.2963  0.8691
  452MOL0     H60996  12.522   4.243   5.627 -1.6401 -0.9777  3.2797
  452MOL0     H60997  12.512   4.396   5.549  0.7377  0.1591  0.6564
  452MOL0     H60998  12.258   4.367   5.578 -0.6237  0.4984  1.5222
  452MOL0     H60999  12.336   4.243   5.481  3.4523  0.3483  0.1710
  452MOL0     H61000  12.082   4.723   6.113  0.2043 -0.3752  0.5827
  452MOL0     H61001  11.900   4.813   6.240  0.0601 -1.2728 -1.8800
  452MOL0     H61002  11.973   5.067   6.808 -0.4007 -0.8061  1.0524
  452MOL0     H61003  11.834   5.240   6.892  2.0631  1.3501 -2.9441
  452MOL0     H61004  10.074   5.169   7.689  1.8511  2.5985 -4.4228
  452MOL0     H61005   9.866   5.227   7.609  1.6800 -0.9448  2.1186
  452MOL0     H61006   9.568   5.277   7.375  0.1787 -0.4825  0.4371
  452MOL0     H61007   9.361   5.394   7.331  3.3770 -0.1858  1.4724
  452MOL0     H61008   9.178   5.448   7.214 -0.1265 -0.2076 -1.0461
  452MOL0     H61009   9.099   5.475   7.371  1.8394 -0.0558 -1.4140
  452MOL0     H61010   8.942   5.539   7.204 -2.4940  0.5281  4.2533
  452MOL0     H61011   8.883   5.403   7.276  1.1351 -0.0363  0.1701
  452MOL0     H61012   8.961   5.262   7.091 -0.6069 -0.1158  1.7413
  452MOL0     H61013   9.050   5.400   7.018 -0.8610 -1.1968 -1.9004
  452MOL0     H61014   8.860   5.523   6.986 -0.1305 -0.6701 -1.3495
  452MOL0     H61015   8.859   5.373   6.879 -1.5710 -2.3284 -0.0519
  452MOL0     H61016   8.532   5.269   7.125 -0.4432  0.5676  1.1182
  452MOL0     H61017   9.143   5.021   7.380  0.9480 -1.7251 -1.1404
  452MOL0     H61018   9.396   4.803   7.404 -0.1848  0.0585  0.2523
  452MOL0     H61019   9.390   4.857   7.573  2.3913  1.4896 -0.5147
  452MOL0     H61020   9.242   4.848   7.479  0.2896 -1.6875 -0.6632
  453MOL0     O61021   2.739   1.434  10.746 -0.2498  0.1217  0.5837
  453MOL0     C61022   2.849   1.388  10.738  0.9293 -0.1145 -0.8360
  453MOL0     O61023   2.880   1.258  10.694  1.1905 -0.3887  0.4758
  453MOL0     C61024   2.802   1.200  10.594  0.1431 -0.3965 -0.0665
  453MOL0     C61025   2.743   1.265  10.491 -0.3198 -0.6936 -0.6228
  453MOL0     C61026   2.666   1.203  10.400  0.3197  0.3141  0.1911
  453MOL0     C61027   2.659   1.064  10.401  0.2389  0.3952 -0.0236
  453MOL0     O61028   2.588   0.978  10.308 -0.4637 -0.8756  0.2709
  453MOL0     C61029   2.580   1.035  10.174 -0.8053 -0.1325  0.2092
  453MOL0     C61030   2.565   0.926  10.066 -0.0980 -0.0016 -0.6158
  453MOL0     C61031   2.645   0.796  10.086  0.8664  0.4721 -0.2586
  453MOL0     C61032   2.637   0.720   9.956  0.4006 -0.2131 -0.7036
  453MOL0     C61033   2.522   0.613   9.958 -0.6706 -0.3964 -0.0882
  453MOL0     C61034   2.386   0.660   9.923  0.7844  0.2677  0.3675
  453MOL0     C61035   2.303   0.531   9.882 -0.2064  0.4216  0.8410
  453MOL0     C61036   2.149   0.556   9.862  0.5239 -0.2154 -0.5019
  453MOL0     N61037   2.095   0.429   9.804  0.1775 -0.1050  0.0566
  453MOL0     C61038   2.113   0.380   9.675 -0.1394  0.0973  0.2671
  453MOL0     C61039   2.062   0.256   9.665  0.1766  0.4693 -0.0139
  453MOL0     C61040   2.041   0.175   9.543 -0.5182  0.1242 -0.0364
  453MOL0     C61041   1.920   0.217   9.458 -1.0746  0.0391 -0.0296
  453MOL0     C61042   1.798   0.199   9.544 -0.5573  0.4366  0.1075
  453MOL0     C61043   1.675   0.213   9.462  0.0028 -0.7647  0.4502
  453MOL0     O61044   1.562   0.198   9.551 -0.6939 -0.2333  0.3342
  453MOL0     C61045   1.434   0.217   9.507 -0.1937 -0.7903 -0.0103
  453MOL0     C61046   1.342   0.202   9.608  0.0419 -0.8639  0.8390
  453MOL0     C61047   1.204   0.203   9.577 -0.1412  0.1041  0.5127
  453MOL0     C61048   1.158   0.231   9.444 -0.3414  0.8274  0.0667
  453MOL0     C61049   1.020   0.248   9.406 -0.4550  0.5170 -0.3533
  453MOL0     O61050   0.940   0.269   9.515  0.4558 -0.1102 -0.2321
  453MOL0     C61051   0.811   0.287   9.492 -0.2815 -0.0439 -0.3379
  453MOL0     C61052   0.732   0.179   9.445 -0.3625  0.1257  0.4075
  453MOL0     C61053   0.594   0.189   9.428 -0.1110  0.3049  0.0746
  453MOL0     C61054   0.523   0.305   9.473  1.8216  0.5438 -0.9263
  453MOL0     O61055   0.380   0.298   9.454 -0.8170 -0.6528  0.7091
  453MOL0     C61056   0.305   0.421   9.480  0.4749 -0.8860 -0.0368
  453MOL0     C61057   0.164   0.393   9.430  0.6787 -0.3733 -0.1035
  453MOL0     C61058   0.095   0.284   9.520  0.4761  0.1975 -0.0620
  453MOL0     C61059   0.073   0.327   9.670  0.2495 -0.5535 -0.0095
  453MOL0     C61060  -0.026   0.254   9.755 -0.0851 -0.0792 -0.7036
  453MOL0     C61061   0.003   0.298   9.902 -1.0059  0.7305 -0.8460
  453MOL0     C61062  -0.120   0.275   9.987  0.1359 -0.5095 -0.2241
  453MOL0     C61063  -0.130   0.355  10.122 -0.2471 -0.5770 -0.0287
  453MOL0    Cl61064  -0.285   0.305  10.220 -0.1727 -0.3805 -0.0002
  453MOL0     C61065   0.598   0.413   9.523 -0.4071 -0.0360 -0.2399
  453MOL0     C61066   0.739   0.398   9.530  0.4943  0.1273 -0.1763
  453MOL0     O61067   0.991   0.262   9.282 -0.1640  0.2032 -0.8035
  453MOL0     C61068   1.260   0.237   9.339  0.0735 -0.5249 -0.0075
  453MOL0     C61069   1.391   0.221   9.371  0.0961 -0.7474  1.1753
  453MOL0     N61070   2.020   0.222   9.789 -0.2467  0.7420 -0.3297
  453MOL0     N61071   2.029   0.327   9.871  0.7083  1.4817 -0.0976
  453MOL0     C61072   2.710   0.993  10.514 -0.3184  0.1795  0.6227
  453MOL0     C61073   2.782   1.065  10.615  0.5631 -0.3438 -0.1498
  453MOL0     C61074   2.955   1.471  10.798 -0.1237 -0.0133  0.0933
  453MOL0     C61075   3.080   1.411  10.825  1.5869  0.3878  0.1182
  453MOL0     C61076   3.171   1.467  10.906  0.0468 -0.8391 -0.4278
  453MOL0     C61077   3.170   1.599  10.951 -0.3383  0.1112 -1.5790
  453MOL0     O61078   3.263   1.641  11.040 -0.6657  1.0607 -0.0485
  453MOL0     C61079   3.309   1.777  11.047  0.2296  0.4407 -0.0260
  453MOL0     C61080   3.396   1.804  10.928 -0.9660  1.1065  0.5309
  453MOL0     C61081   3.523   1.710  10.920 -0.1247 -1.0991 -0.7887
  453MOL0     C61082   3.630   1.731  11.029 -0.6621 -0.8237  0.3057
  453MOL0     C61083   3.696   1.867  11.033  0.4275  0.5294  0.6087
  453MOL0     C61084   3.727   1.986  11.025  0.2742 -0.0205  0.2229
  453MOL0     C61085   3.062   1.670  10.902  0.9346 -0.0821 -0.1617
  453MOL0     C61086   2.949   1.612  10.833 -0.9798  0.1520 -0.1895
  453MOL0     C61087   2.838   1.700  10.797 -0.4320  0.0769 -0.4746
  453MOL0     H61088   2.775   1.369  10.481 -0.5837 -0.4891  0.5484
  453MOL0     H61089   2.631   1.264  10.318  0.1634  0.8664  0.6606
  453MOL0     H61090   2.494   1.102  10.175 -1.2335 -0.6508 -0.6086
  453MOL0     H61091   2.679   1.079  10.157 -0.1224 -1.3675  0.8967
  453MOL0     H61092   2.588   0.973   9.970  0.7301  0.2117 -0.3219
  453MOL0     H61093   2.458   0.906  10.077  0.0649 -0.2921  0.5134
  453MOL0     H61094   2.596   0.741  10.166 -0.3288  1.9955  0.0893
  453MOL0     H61095   2.751   0.816  10.107  0.8704  0.1544  0.0341
  453MOL0     H61096   2.629   0.790   9.872  1.0334 -0.4961 -1.0067
  453MOL0     H61097   2.733   0.671   9.940  0.6351 -1.1357  2.6388
  453MOL0     H61098   2.552   0.552   9.872 -2.6151 -1.7751  0.1298
  453MOL0     H61099   2.521   0.545  10.044  0.0055  1.8819  1.8121
  453MOL0     H61100   2.341   0.705  10.012 -0.5944  0.4166 -0.3793
  453MOL0     H61101   2.381   0.730   9.839 -1.2250 -1.6509 -1.2178
  453MOL0     H61102   2.324   0.447   9.949  3.2964  1.3725  1.1308
  453MOL0     H61103   2.331   0.492   9.783 -0.8597 -1.4878  1.3529
  453MOL0     H61104   2.103   0.581   9.958  2.3668  0.4508  0.2469
  453MOL0     H61105   2.116   0.640   9.800 -4.3826 -0.2290  1.5721
  453MOL0     H61106   2.154   0.434   9.590 -1.0369  0.6182  0.1557
  453MOL0     H61107   2.123   0.184   9.471 -0.2370 -0.4062  0.2134
  453MOL0     H61108   2.035   0.069   9.568  0.2799 -0.3009 -1.5137
  453MOL0     H61109   1.932   0.324   9.436 -1.0596  0.6918  2.8281
  453MOL0     H61110   1.916   0.165   9.362 -1.7683  1.4928 -0.8189
  453MOL0     H61111   1.801   0.279   9.619  0.5881 -0.2132  0.7863
  453MOL0     H61112   1.800   0.100   9.591 -2.4331 -0.7276 -2.0496
  453MOL0     H61113   1.671   0.140   9.381  0.5379 -0.6803  0.3420
  453MOL0     H61114   1.662   0.311   9.416  1.6593 -0.5259  0.4057
  453MOL0     H61115   1.370   0.179   9.711  2.5157  1.2002  0.7403
  453MOL0     H61116   1.130   0.188   9.655 -1.1876  0.1832 -0.4325
  453MOL0     H61117   0.779   0.093   9.400 -1.7570 -0.0952 -0.7231
  453MOL0     H61118   0.532   0.111   9.386  1.4360 -0.5377 -0.7188
  453MOL0     H61119   0.312   0.439   9.588  2.3322 -0.3488 -0.2201
  453MOL0     H61120   0.349   0.500   9.418 -0.7618  0.8817  1.2174
  453MOL0     H61121   0.119   0.493   9.429  0.0534 -0.6431  0.5426
  453MOL0     H61122   0.159   0.365   9.324  1.1024 -1.3181  0.1206
  453MOL0     H61123  -0.005   0.274   9.475  1.7479 -2.0755 -2.7409
  453MOL0     H61124   0.137   0.185   9.501  1.2499  0.2271  1.3851
  453MOL0     H61125   0.032   0.429   9.664  0.5009 -0.5215 -1.4099
  453MOL0     H61126   0.166   0.330   9.727  0.9807 -0.1161 -1.1812
  453MOL0     H61127  -0.008   0.146   9.748 -1.9226 -0.3308 -2.4894
  453MOL0     H61128  -0.129   0.278   9.729 -0.2470 -1.0451 -1.0031
  453MOL0     H61129   0.085   0.239   9.942 -4.3551 -2.9370  1.3984
  453MOL0     H61130   0.031   0.403   9.911  0.4928  0.2897 -0.0911
  453MOL0     H61131  -0.125   0.168  10.009 -1.4322 -0.9651 -2.4171
  453MOL0     H61132  -0.212   0.295   9.931  0.1455 -0.0035 -0.0660
  453MOL0     H61133  -0.044   0.347  10.188 -0.2040 -2.5463 -0.2826
  453MOL0     H61134  -0.144   0.461  10.098 -3.1289 -0.1975  2.7408
  453MOL0     H61135   0.552   0.504   9.561 -0.6028  0.1690 -0.9511
  453MOL0     H61136   0.802   0.473   9.577 -0.0068  0.4932 -0.0817
  453MOL0     H61137   1.229   0.256   9.237  0.3098  1.0054  0.1740
  453MOL0     H61138   1.459   0.230   9.286  0.7811 -1.6359  1.6171
  453MOL0     H61139   2.701   0.885  10.526  2.5174 -0.3381 -0.9359
  453MOL0     H61140   2.822   1.015  10.702 -0.1418 -1.3507 -0.3779
  453MOL0     H61141   3.098   1.307  10.801 -0.0783  0.4421 -1.6358
  453MOL0     H61142   3.268   1.420  10.914  0.4866  0.3893  4.2902
  453MOL0     H61143   3.364   1.775  11.141 -1.6127 -0.3175  1.0881
  453MOL0     H61144   3.228   1.851  11.052 -0.9259 -0.8506  1.2337
  453MOL0     H61145   3.429   1.908  10.929  2.6910  0.0505  1.8388
  453MOL0     H61146   3.346   1.798  10.830  1.6361 -0.6148 -0.7874
  453MOL0     H61147   3.581   1.722  10.828  2.8671  2.3188  1.2715
  453MOL0     H61148   3.496   1.605  10.910  3.9901 -2.2896 -1.2247
  453MOL0     H61149   3.591   1.710  11.129 -0.0136 -0.9892  0.5281
  453MOL0     H61150   3.711   1.660  11.010  0.0352  0.3112 -1.1631
  453MOL0     H61151   3.781   2.078  11.034  0.2401  0.2647 -1.9706
  453MOL0     H61152   3.052   1.768  10.947  1.9863 -0.9233  2.0876
  453MOL0     H61153   2.769   1.699  10.882 -0.8706 -1.5351 -0.8221
  453MOL0     H61154   2.874   1.802  10.782 -2.0470  0.4645 -2.0684
  453MOL0     H61155   2.770   1.669  10.718 -1.3958 -1.1513  0.7768
  454MOL0     O61156   5.664   9.915   5.218  0.8572 -0.4635  0.0263
  454MOL0     C61157   5.566   9.921   5.286 -1.0937 -0.3790 -0.6194
  454MOL0     O61158   5.496  10.033   5.316  0.1834 -0.3227  0.2752
  454MOL0     C61159   5.526  10.154   5.257 -0.0103  0.2775  0.3568
  454MOL0     C61160   5.498  10.180   5.120 -0.1689 -0.2472  0.5558
  454MOL0     C61161   5.542  10.287   5.065 -0.4312 -0.4501  0.2056
  454MOL0     C61162   5.617  10.390   5.134 -0.1667  0.3301  0.1929
  454MOL0     O61163   5.646  10.514   5.076  0.2789 -0.8981  0.2299
  454MOL0     C61164   5.748  10.596   5.134  0.5136 -0.2873  0.1815
  454MOL0     C61165   5.802  10.706   5.039  0.1559  0.0410  0.2710
  454MOL0     C61166   5.902  10.650   4.933  0.0086 -0.0782  0.4890
  454MOL0     C61167   5.827  10.561   4.829  0.1604  0.4127  0.9387
  454MOL0     C61168   5.929  10.514   4.716 -0.9084 -0.3846 -0.0021
  454MOL0     C61169   5.875  10.385   4.652 -1.6415  0.1465 -1.3689
  454MOL0     C61170   5.974  10.327   4.544  0.1627  0.4361 -1.2053
  454MOL0     C61171   5.907  10.194   4.502 -0.1037 -1.2093  0.2457
  454MOL0     N61172   6.019  10.148   4.415  0.9088  0.3933 -0.0281
  454MOL0     C61173   6.015  10.145   4.279 -0.8682 -0.4122  0.7034
  454MOL0     C61174   6.135  10.096   4.244 -0.4968  0.7804 -0.5696
  454MOL0     C61175   6.197  10.097   4.110 -1.2173 -0.1715  0.3137
  454MOL0     C61176   6.332  10.163   4.112 -0.1046 -1.0911 -0.4740
  454MOL0     C61177   6.333  10.322   4.077 -0.5164 -0.6125  0.6704
  454MOL0     C61178   6.237  10.413   4.159 -0.1487  0.0170  0.7119
  454MOL0     O61179   6.113  10.442   4.088 -0.0045  0.6579 -0.4948
  454MOL0     C61180   6.022  10.509   4.162  0.4467 -0.4497  0.0333
  454MOL0     C61181   6.048  10.610   4.258 -0.1339  0.3002  1.0090
  454MOL0     C61182   5.947  10.668   4.327 -0.5518 -0.8974 -0.0448
  454MOL0     C61183   5.816  10.643   4.290 -0.7101 -0.2805 -0.4305
  454MOL0     C61184   5.715  10.690   4.378  0.0045 -0.1986 -0.4416
  454MOL0     O61185   5.759  10.765   4.473 -0.2125 -0.3753 -0.0389
  454MOL0     C61186   5.682  10.845   4.550 -0.7648 -0.1510 -0.6141
  454MOL0     C61187   5.728  10.969   4.579 -0.3603  0.3240 -0.4692
  454MOL0     C61188   5.683  11.052   4.678 -0.0589  0.3437 -0.1414
  454MOL0     C61189   5.566  11.013   4.744  0.1189  0.1655  0.0496
  454MOL0     O61190   5.510  11.102   4.833 -0.6453 -0.8562  0.0348
  454MOL0     C61191   5.494  11.063   4.967  0.0382  0.3404 -0.3160
  454MOL0     C61192   5.635  11.064   5.037  0.9698 -0.3160  1.0505
  454MOL0     C61193   5.644  11.008   5.169 -0.5737  0.2682 -0.0099
  454MOL0     C61194   5.614  11.112   5.275  0.4127 -0.7826 -0.1543
  454MOL0     C61195   5.626  11.055   5.422  0.3561  0.6530  0.1560
  454MOL0     C61196   5.620  11.173   5.521 -0.2852 -0.0557 -1.3334
  454MOL0     C61197   5.615  11.133   5.662  0.0586  0.0620 -1.1286
  454MOL0     C61198   5.628  11.255   5.746  0.4165 -0.4914  0.0312
  454MOL0    Cl61199   5.497  11.375   5.729 -0.5356  0.4606 -0.2722
  454MOL0     C61200   5.504  10.892   4.713 -0.0930 -0.7247  0.9071
  454MOL0     C61201   5.559  10.804   4.614  0.0328 -0.2015 -0.0069
  454MOL0     O61202   5.594  10.660   4.363 -0.2126 -0.0011 -0.2083
  454MOL0     C61203   5.793  10.551   4.191 -0.2811  0.4723 -0.7841
  454MOL0     C61204   5.895  10.485   4.121 -0.6383 -0.3646 -0.6968
  454MOL0     N61205   6.208  10.063   4.358  0.4171 -0.4884 -0.5537
  454MOL0     N61206   6.133  10.088   4.462  0.1240  0.0288 -0.1278
  454MOL0     C61207   5.648  10.356   5.270 -0.3561  0.1320 -0.4049
  454MOL0     C61208   5.591  10.244   5.332 -0.8567 -0.3116 -0.6455
  454MOL0     C61209   5.533   9.800   5.359 -0.3198  0.0805 -0.6462
  454MOL0     C61210   5.418   9.814   5.445 -0.0245 -0.6753  0.5567
  454MOL0     C61211   5.362   9.703   5.511  0.9773 -0.0604 -0.0261
  454MOL0     C61212   5.428   9.581   5.520 -0.4427 -0.5242  0.2189
  454MOL0     O61213   5.401   9.471   5.595  0.5505  0.3892  0.0810
  454MOL0     C61214   5.311   9.474   5.704  0.3829 -0.0833 -0.2889
  454MOL0     C61215   5.160   9.467   5.676 -0.7322  0.0671  0.1236
  454MOL0     C61216   5.106   9.326   5.629 -0.1747 -0.0751 -0.2524
  454MOL0     C61217   4.951   9.310   5.626  0.5661  0.4605  0.1376
  454MOL0     C61218   4.932   9.186   5.554  0.6834 -0.4050 -0.5128
  454MOL0     C61219   4.917   9.087   5.483  0.1271 -0.4720  0.5377
  454MOL0     C61220   5.541   9.570   5.446  0.3738 -0.2333  0.7604
  454MOL0     C61221   5.602   9.674   5.369  0.3834  0.4089  0.2820
  454MOL0     C61222   5.738   9.633   5.305 -0.0008  1.0112  0.1972
  454MOL0     H61223   5.436  10.109   5.066 -1.0796 -1.6094  3.1708
  454MOL0     H61224   5.518  10.309   4.962 -0.3682  2.5204  0.7319
  454MOL0     H61225   5.709  10.630   5.230  0.8537  0.6212  0.0088
  454MOL0     H61226   5.837  10.536   5.154  0.1672 -1.1928 -0.8893
  454MOL0     H61227   5.848  10.782   5.103 -0.7479  0.7813  0.0618
  454MOL0     H61228   5.710  10.744   4.994 -1.1117 -1.1596  1.7169
  454MOL0     H61229   5.987  10.598   4.978 -1.9388 -2.9054  1.2478
  454MOL0     H61230   5.947  10.728   4.873  0.0311 -1.0823 -0.8460
  454MOL0     H61231   5.801  10.471   4.886 -2.6158  0.1880 -0.4928
  454MOL0     H61232   5.742  10.621   4.794  2.4240  1.9407 -2.4809
  454MOL0     H61233   5.933  10.592   4.640  0.3432 -0.7021 -0.2789
  454MOL0     H61234   6.031  10.493   4.749 -0.7889 -0.9837 -0.7384
  454MOL0     H61235   5.877  10.305   4.726 -1.0750  0.6147 -0.8667
  454MOL0     H61236   5.769  10.397   4.627 -2.1161 -1.6771 -0.3865
  454MOL0     H61237   6.072  10.313   4.590 -0.1224 -0.2754 -0.7965
  454MOL0     H61238   5.965  10.395   4.458 -1.7330  0.5408 -0.9671
  454MOL0     H61239   5.875  10.125   4.581 -0.3609 -0.1789  1.0698
  454MOL0     H61240   5.817  10.221   4.445  1.3806  0.6887 -1.3643
  454MOL0     H61241   5.937  10.181   4.213 -4.0714  0.4666  4.6009
  454MOL0     H61242   6.216   9.996   4.073 -0.4524 -0.1056  0.5025
  454MOL0     H61243   6.136  10.146   4.033 -0.3433 -1.7514 -1.4664
  454MOL0     H61244   6.373  10.152   4.212  0.0781 -0.7711 -0.5114
  454MOL0     H61245   6.409  10.123   4.046  2.7992  1.6991  0.9655
  454MOL0     H61246   6.314  10.333   3.970  0.2786  1.6882  0.7080
  454MOL0     H61247   6.432  10.365   4.097 -1.0275  1.2761 -0.5866
  454MOL0     H61248   6.297  10.502   4.178 -1.3985  1.0537 -0.0036
  454MOL0     H61249   6.212  10.364   4.254 -1.2729 -0.2441  0.3045
  454MOL0     H61250   6.151  10.636   4.281 -0.0646  0.0779  0.9563
  454MOL0     H61251   5.981  10.730   4.409 -1.3218  1.7189 -1.5910
  454MOL0     H61252   5.814  11.009   4.527  1.3283 -3.8999 -1.2855
  454MOL0     H61253   5.731  11.147   4.699 -1.1520  1.1035 -0.9832
  454MOL0     H61254   5.437  11.143   5.016  3.1587  1.2721  2.1132
  454MOL0     H61255   5.435  10.971   4.967 -1.4365  1.2428 -0.5662
  454MOL0     H61256   5.693  10.999   4.970 -0.5600  1.0329 -1.7648
  454MOL0     H61257   5.682  11.163   5.035  1.1595 -0.4034 -0.5370
  454MOL0     H61258   5.575  10.924   5.178  2.4574 -2.4034  0.4884
  454MOL0     H61259   5.746  10.969   5.182  0.5228  2.0110 -2.4811
  454MOL0     H61260   5.515  11.150   5.250  0.0788 -0.0223  2.1058
  454MOL0     H61261   5.681  11.198   5.261 -2.4575  1.1588 -4.2385
  454MOL0     H61262   5.718  10.998   5.436  0.5886  1.2955  1.3709
  454MOL0     H61263   5.554  10.974   5.437 -0.0670  0.7943 -1.0049
  454MOL0     H61264   5.703  11.234   5.484 -1.3702  0.1688 -3.5351
  454MOL0     H61265   5.528  11.232   5.511 -2.4913 -3.1551 -0.5062
  454MOL0     H61266   5.703  11.074   5.691  0.0823  1.4940  2.2251
  454MOL0     H61267   5.527  11.074   5.689 -0.1581  1.8229  2.7840
  454MOL0     H61268   5.636  11.230   5.852 -0.6620  2.4366  0.9077
  454MOL0     H61269   5.720  11.308   5.719 -1.0867  2.8638  1.0009
  454MOL0     H61270   5.413  10.862   4.764 -1.5025  0.3708 -0.8383
  454MOL0     H61271   5.511  10.708   4.597  0.9346 -0.8053  0.7633
  454MOL0     H61272   5.687  10.533   4.174 -0.6995  0.9763  1.1225
  454MOL0     H61273   5.869  10.413   4.044  1.4015 -1.7222 -0.1985
  454MOL0     H61274   5.695  10.434   5.330 -1.6956 -0.2811  1.2521
  454MOL0     H61275   5.605  10.205   5.433 -1.4511 -0.5508 -0.6536
  454MOL0     H61276   5.355   9.902   5.441  1.0310  0.2362  2.3515
  454MOL0     H61277   5.276   9.732   5.570  0.1290 -0.0327 -1.2380
  454MOL0     H61278   5.335   9.565   5.760 -0.5441 -0.4529  0.7471
  454MOL0     H61279   5.341   9.386   5.762 -0.9702  1.9644  3.8745
  454MOL0     H61280   5.140   9.537   5.594 -0.5023  0.2363  0.2110
  454MOL0     H61281   5.106   9.492   5.768 -1.7043  2.6543 -1.0627
  454MOL0     H61282   5.154   9.241   5.680  1.0504 -0.0846 -1.3560
  454MOL0     H61283   5.154   9.308   5.532  1.0003  2.0374 -0.1157
  454MOL0     H61284   4.900   9.294   5.722 -2.2874  4.2467 -0.5232
  454MOL0     H61285   4.898   9.388   5.572  0.2998 -1.0068 -1.8399
  454MOL0     H61286   4.913   8.996   5.427 -0.4539 -0.4089  0.4803
  454MOL0     H61287   5.586   9.472   5.450  2.1031  0.4886  5.1384
  454MOL0     H61288   5.771   9.532   5.329 -1.6918  0.4413  0.2930
  454MOL0     H61289   5.732   9.634   5.196  1.7948 -2.6084 -0.0914
  454MOL0     H61290   5.817   9.704   5.331  0.0196  0.9135  0.4005
  455MOL0     O61291  10.030   8.193   3.365  0.5147  0.1404  0.2668
  455MOL0     C61292   9.991   8.195   3.482  1.7916 -0.0176  0.5824
  455MOL0     O61293  10.028   8.282   3.577  0.7883  0.3358  0.1731
  455MOL0     C61294  10.126   8.362   3.530 -0.2095  0.3202  0.5850
  455MOL0     C61295  10.257   8.317   3.512 -0.2548  1.4489  0.7769
  455MOL0     C61296  10.356   8.392   3.451 -0.1452 -0.2154 -0.2036
  455MOL0     C61297  10.328   8.521   3.410 -0.2663 -0.6223 -0.7478
  455MOL0     O61298  10.432   8.592   3.350 -0.5364 -0.1330  0.8894
  455MOL0     C61299  10.390   8.667   3.239 -0.2218 -0.5951  0.2400
  455MOL0     C61300  10.348   8.567   3.126  0.4469 -0.8368 -0.3660
  455MOL0     C61301  10.331   8.648   2.995  0.5893 -1.0591  0.2096
  455MOL0     C61302  10.187   8.718   2.982  0.0486  0.8856 -0.5732
  455MOL0     C61303  10.152   8.770   2.840 -1.1802 -0.3777  0.9932
  455MOL0     C61304  10.236   8.894   2.782 -0.7584  0.4170  0.3434
  455MOL0     C61305  10.196   8.930   2.634  0.1902 -0.6723 -0.9861
  455MOL0     C61306  10.288   9.019   2.581 -0.7500 -0.6564  0.4168
  455MOL0     N61307  10.269   9.067   2.445  0.0065  0.3526  0.3316
  455MOL0     C61308  10.369   9.090   2.349 -0.3080  0.1979 -0.2613
  455MOL0     C61309  10.307   9.125   2.241  1.2288  0.0225  0.1361
  455MOL0     C61310  10.373   9.168   2.104  0.4063 -0.0573 -0.7790
  455MOL0     C61311  10.454   9.296   2.122 -0.2004  0.0827 -0.4605
  455MOL0     C61312  10.511   9.351   1.997 -0.3426  0.9097 -0.1295
  455MOL0     C61313  10.412   9.382   1.879 -0.3308  1.0669 -0.9056
  455MOL0     O61314  10.320   9.488   1.924 -0.4080 -0.5625 -0.4570
  455MOL0     C61315  10.260   9.580   1.839  0.1365  0.2087 -1.2594
  455MOL0     C61316  10.152   9.654   1.885  0.0468  0.1610  0.5348
  455MOL0     C61317  10.086   9.740   1.798 -0.7524  0.1843  0.1731
  455MOL0     C61318  10.123   9.751   1.660 -0.9465 -0.8670 -0.1638
  455MOL0     C61319  10.053   9.829   1.562 -1.4863  0.3925 -0.0786
  455MOL0     O61320  10.071   9.796   1.434 -0.8715 -0.5512 -0.0915
  455MOL0     C61321   9.983   9.848   1.348  0.2761  0.2638  0.0636
  455MOL0     C61322   9.852   9.797   1.326 -0.2899  0.1635  0.1322
  455MOL0     C61323   9.780   9.847   1.219 -0.8242 -0.1271  0.1689
  455MOL0     C61324   9.817   9.967   1.157  0.2468  0.1512 -0.1416
  455MOL0     O61325   9.727  10.018   1.063 -0.2782 -0.4820 -0.5626
  455MOL0     C61326   9.724  10.158   1.049  0.6651  0.0968  0.2190
  455MOL0     C61327   9.597  10.210   0.969  0.5421 -0.5861 -0.3486
  455MOL0     C61328   9.465  10.185   1.048 -0.4881 -0.8363 -0.0037
  455MOL0     C61329   9.411  10.038   1.048 -0.1346 -0.0767 -0.7279
  455MOL0     C61330   9.416   9.959   0.920 -0.2645  0.2842  0.3172
  455MOL0     C61331   9.298   9.854   0.905 -0.4505  0.2518  0.0741
  455MOL0     C61332   9.287   9.789   0.769 -0.8276 -0.9073 -0.8221
  455MOL0     C61333   9.160   9.720   0.738  0.2760  0.6702  0.5239
  455MOL0    Cl61334   9.012   9.819   0.781 -0.0408 -0.0311  0.2704
  455MOL0     C61335   9.934  10.024   1.187  0.0085 -0.5683 -0.6448
  455MOL0     C61336  10.024   9.961   1.280  1.1635 -0.0985 -0.9234
  455MOL0     O61337   9.977   9.917   1.607 -0.6178  0.5920  0.1756
  455MOL0     C61338  10.233   9.671   1.620  0.5892 -0.4280  0.1677
  455MOL0     C61339  10.300   9.598   1.706  0.5311 -0.6633 -0.7162
  455MOL0     N61340  10.173   9.106   2.262 -0.2134 -0.7254  0.0962
  455MOL0     N61341  10.147   9.083   2.390 -0.0174  0.3793  0.2993
  455MOL0     C61342  10.191   8.574   3.433 -0.5207  0.1974 -0.5337
  455MOL0     C61343  10.094   8.490   3.487  0.1455 -0.3539  0.1045
  455MOL0     C61344   9.904   8.085   3.523  0.2586 -0.6815  0.2273
  455MOL0     C61345   9.939   7.952   3.482  1.2772 -0.3549  0.4819
  455MOL0     C61346   9.857   7.848   3.537 -0.2482  0.8371  1.2309
  455MOL0     C61347   9.752   7.875   3.621  0.9973 -0.9352  0.8236
  455MOL0     O61348   9.678   7.765   3.654 -0.3156  0.5433 -0.4142
  455MOL0     C61349   9.579   7.777   3.755  0.1728  0.0605  0.2732
  455MOL0     C61350   9.641   7.784   3.894 -0.5340  0.1292  0.4694
  455MOL0     C61351   9.785   7.714   3.921  0.6746  0.8050 -0.4550
  455MOL0     C61352   9.816   7.678   4.073  0.1403 -1.3145 -0.3132
  455MOL0     C61353   9.741   7.567   4.127  0.1737 -0.6247  0.8624
  455MOL0     C61354   9.698   7.462   4.159  0.6729 -0.8973  0.5060
  455MOL0     C61355   9.713   8.006   3.641  0.2917  0.5065  0.6386
  455MOL0     C61356   9.788   8.116   3.601 -0.4694  0.7582  0.2163
  455MOL0     C61357   9.745   8.254   3.643 -0.4392 -0.0610 -0.1321
  455MOL0     H61358  10.291   8.220   3.548  1.2683  1.5562 -0.2551
  455MOL0     H61359  10.457   8.354   3.444  1.1024  1.9210  3.3292
  455MOL0     H61360  10.305   8.732   3.261  0.9680  1.5561 -1.1622
  455MOL0     H61361  10.476   8.729   3.210 -0.2257 -1.4143 -1.6795
  455MOL0     H61362  10.257   8.514   3.155  0.5269 -0.3229  0.8707
  455MOL0     H61363  10.431   8.499   3.104  0.5285 -0.9842  0.3921
  455MOL0     H61364  10.350   8.585   2.908 -0.6058  0.4162 -1.1759
  455MOL0     H61365  10.400   8.731   2.985 -1.2016  0.7371  1.8697
  455MOL0     H61366  10.112   8.641   3.004 -0.6587  0.6653 -3.4216
  455MOL0     H61367  10.180   8.800   3.055  1.2453 -0.4535  1.1377
  455MOL0     H61368  10.155   8.686   2.770 -3.6545  1.2064 -1.2202
  455MOL0     H61369  10.047   8.801   2.835 -0.3700  2.5450  0.5659
  455MOL0     H61370  10.212   8.981   2.844 -2.7728  0.3156 -0.2335
  455MOL0     H61371  10.343   8.872   2.793 -0.7132 -0.9726 -2.2183
  455MOL0     H61372  10.094   8.968   2.635  1.2903  2.5693 -0.7794
  455MOL0     H61373  10.195   8.838   2.573 -1.5890 -0.2162 -1.7065
  455MOL0     H61374  10.274   9.106   2.645 -1.4964  0.6712 -1.4887
  455MOL0     H61375  10.390   8.980   2.593 -0.4477  0.7265  3.2058
  455MOL0     H61376  10.477   9.084   2.363 -0.6089  1.1158  3.1341
  455MOL0     H61377  10.445   9.093   2.070  1.8034  0.1092  1.5843
  455MOL0     H61378  10.290   9.182   2.034 -1.7472 -1.9524  1.2074
  455MOL0     H61379  10.381   9.370   2.155  0.6856  0.3324  1.0838
  455MOL0     H61380  10.522   9.274   2.205 -0.8396 -0.6942 -0.1326
  455MOL0     H61381  10.590   9.281   1.966  0.6186  1.7901  0.2562
  455MOL0     H61382  10.565   9.439   2.032  0.9646  0.1923 -0.2407
  455MOL0     H61383  10.353   9.296   1.845 -0.1096 -0.3387  1.9403
  455MOL0     H61384  10.481   9.413   1.800  1.7123  1.0760  0.7945
  455MOL0     H61385  10.117   9.661   1.988 -3.6828  0.9760 -0.6230
  455MOL0     H61386   9.997   9.796   1.824 -1.8812 -0.6536 -1.6718
  455MOL0     H61387   9.812   9.719   1.390  0.5437  1.2138  2.0107
  455MOL0     H61388   9.701   9.787   1.174 -0.2987 -1.9560  1.5512
  455MOL0     H61389   9.727  10.194   1.152 -1.6798  1.1751 -0.0323
  455MOL0     H61390   9.816  10.193   1.001  3.0873 -1.9151  3.0364
  455MOL0     H61391   9.612  10.319   0.973 -1.2974 -0.3348  0.5253
  455MOL0     H61392   9.591  10.167   0.869  0.4207  2.1261 -1.5963
  455MOL0     H61393   9.486  10.215   1.152  0.5611 -1.2221 -0.0933
  455MOL0     H61394   9.391  10.250   1.001  0.2520 -0.4217 -0.6244
  455MOL0     H61395   9.307  10.044   1.080  0.0871 -2.0922  0.5942
  455MOL0     H61396   9.457   9.982   1.131 -1.5894  1.4296  1.1823
  455MOL0     H61397   9.514   9.911   0.912 -0.5279 -0.6157  1.9023
  455MOL0     H61398   9.403  10.026   0.835  0.1083  0.4784  0.4122
  455MOL0     H61399   9.308   9.784   0.989 -2.7499  0.9113  0.9715
  455MOL0     H61400   9.214   9.920   0.925  1.3933  2.3427  1.4873
  455MOL0     H61401   9.374   9.723   0.761 -0.6459 -0.6949 -0.5960
  455MOL0     H61402   9.307   9.870   0.698 -1.0027 -2.3433 -2.5872
  455MOL0     H61403   9.155   9.683   0.635  1.7375  2.9152 -0.4279
  455MOL0     H61404   9.167   9.632   0.802 -2.8863 -0.1317 -0.0879
  455MOL0     H61405   9.956  10.104   1.117 -1.2039 -1.5342 -2.2037
  455MOL0     H61406  10.129   9.987   1.289  1.3174 -1.4396  4.2329
  455MOL0     H61407  10.248   9.676   1.512 -0.5402 -2.0542 -0.0932
  455MOL0     H61408  10.385   9.543   1.667 -0.3554 -1.6273 -1.3520
  455MOL0     H61409  10.149   8.670   3.402 -3.5437 -1.0318 -0.6170
  455MOL0     H61410   9.993   8.517   3.515  0.2642  0.2989 -0.0724
  455MOL0     H61411  10.032   7.936   3.428  1.1264  0.5943 -0.0724
  455MOL0     H61412   9.890   7.748   3.508  2.2977  2.3092 -1.4496
  455MOL0     H61413   9.512   7.690   3.754 -1.1609  1.0229 -2.4259
  455MOL0     H61414   9.512   7.861   3.734 -2.9209 -2.5648 -1.2697
  455MOL0     H61415   9.574   7.748   3.973  0.7042 -2.0137  0.6190
  455MOL0     H61416   9.664   7.889   3.918  2.4432 -0.6231  1.2378
  455MOL0     H61417   9.871   7.775   3.893  3.0337 -3.2993 -3.1212
  455MOL0     H61418   9.790   7.616   3.873  0.9571  1.1480 -1.1338
  455MOL0     H61419   9.923   7.656   4.081  0.2560 -0.4014  0.8092
  455MOL0     H61420   9.809   7.753   4.152  0.4731 -2.8717  1.2746
  455MOL0     H61421   9.655   7.366   4.180  1.1153 -1.6709 -1.8173
  455MOL0     H61422   9.619   8.026   3.690  0.3858  0.5939  0.7848
  455MOL0     H61423   9.636   8.260   3.630 -0.3985 -2.9871 -3.5360
  455MOL0     H61424   9.772   8.261   3.749  2.6228 -3.5979 -0.4760
  455MOL0     H61425   9.789   8.325   3.573  1.9698 -1.4483 -0.1129
  456MOL0     O61426   5.962   7.413   5.128 -0.6615  0.1145  0.7436
  456MOL0     C61427   5.997   7.509   5.062 -0.2758 -0.1967  0.3959
  456MOL0     O61428   5.917   7.597   4.988  0.4385  0.6639  0.0815
  456MOL0     C61429   5.789   7.553   4.965  0.1279  0.7821  0.5912
  456MOL0     C61430   5.757   7.509   4.836  0.8484 -0.7183  0.5351
  456MOL0     C61431   5.631   7.468   4.809  0.0377  0.7408 -0.4160
  456MOL0     C61432   5.538   7.458   4.915  0.0069  1.1829 -0.2350
  456MOL0     O61433   5.409   7.430   4.878  0.3097  0.7216 -0.6523
  456MOL0     C61434   5.330   7.347   4.970  0.2877  0.1848  0.6307
  456MOL0     C61435   5.198   7.298   4.891 -0.7047  0.6838  0.3103
  456MOL0     C61436   5.224   7.236   4.747 -0.1068  0.4528  0.2843
  456MOL0     C61437   5.109   7.252   4.641 -0.5333 -0.4954 -0.6872
  456MOL0     C61438   5.022   7.126   4.638  0.6090 -0.0694 -0.3828
  456MOL0     C61439   4.945   7.110   4.507  1.2975 -0.2918 -0.2770
  456MOL0     C61440   4.864   6.979   4.501 -0.5009  0.8745 -0.6756
  456MOL0     C61441   4.797   6.955   4.365  0.2211 -1.0975 -0.0336
  456MOL0     N61442   4.894   6.926   4.263 -0.3059  0.2998 -0.2004
  456MOL0     C61443   4.997   6.837   4.276  0.2587 -0.1265 -0.0660
  456MOL0     C61444   5.071   6.863   4.165 -0.6034  0.1059 -0.4772
  456MOL0     C61445   5.183   6.769   4.128  0.1041 -0.0290  0.5608
  456MOL0     C61446   5.294   6.779   4.239  0.3200 -0.2013 -0.5310
  456MOL0     C61447   5.410   6.695   4.186  0.0762 -0.7470 -0.3959
  456MOL0     C61448   5.525   6.777   4.122  0.0516  0.2396 -0.3230
  456MOL0     O61449   5.645   6.712   4.110 -0.3306 -0.1791  0.5220
  456MOL0     C61450   5.714   6.682   4.222  0.2995  0.1183 -0.1011
  456MOL0     C61451   5.752   6.549   4.235  0.0109 -1.1546  0.4123
  456MOL0     C61452   5.826   6.505   4.337 -1.0041  0.1050  0.0848
  456MOL0     C61453   5.873   6.594   4.433 -0.6115 -0.4664  0.2054
  456MOL0     C61454   5.953   6.534   4.538 -0.2125  0.6213  0.5190
  456MOL0     O61455   5.994   6.634   4.632 -0.1442  0.3298  0.7808
  456MOL0     C61456   6.095   6.593   4.713 -0.2363  0.7915  0.1237
  456MOL0     C61457   6.060   6.539   4.838 -0.6472 -0.4568  0.3188
  456MOL0     C61458   6.154   6.479   4.919  0.7313 -0.4255 -0.4980
  456MOL0     C61459   6.286   6.469   4.880 -1.3387  0.2481 -0.4854
  456MOL0     O61460   6.392   6.434   4.962 -0.6913 -0.4849 -0.1269
  456MOL0     C61461   6.370   6.331   5.051  0.1514  0.9885 -0.8207
  456MOL0     C61462   6.457   6.218   4.993 -0.4181  0.3183  0.0134
  456MOL0     C61463   6.396   6.080   5.040  0.4255 -0.0999  0.5065
  456MOL0     C61464   6.380   6.062   5.186  0.0664 -1.3232 -0.6167
  456MOL0     C61465   6.382   5.908   5.217 -0.8424 -0.1545 -0.6032
  456MOL0     C61466   6.256   5.833   5.194 -0.2819 -0.5208  0.1236
  456MOL0     C61467   6.238   5.694   5.258 -0.2168 -0.1381  0.3017
  456MOL0     C61468   6.100   5.633   5.234  1.2127 -1.3135  1.0901
  456MOL0    Cl61469   6.062   5.641   5.059 -0.0959 -0.0799 -0.2585
  456MOL0     C61470   6.325   6.533   4.761 -0.2624  0.5438  0.7912
  456MOL0     C61471   6.232   6.590   4.674  0.9688 -0.3135  0.3575
  456MOL0     O61472   5.994   6.417   4.533 -0.5108  0.3409 -0.0290
  456MOL0     C61473   5.839   6.728   4.418  0.5967 -0.4281  1.0525
  456MOL0     C61474   5.756   6.777   4.312 -0.7132 -0.3367 -0.1046
  456MOL0     N61475   5.029   6.975   4.098  0.4027  0.3020 -0.2631
  456MOL0     N61476   4.925   7.013   4.164 -0.0350  0.4757 -0.0090
  456MOL0     C61477   5.575   7.489   5.046  0.0003 -0.2129  0.7507
  456MOL0     C61478   5.702   7.541   5.066 -0.0627 -0.2018 -0.2531
  456MOL0     C61479   6.131   7.553   5.090  0.1471 -0.4270 -1.4659
  456MOL0     C61480   6.143   7.691   5.133  0.8534 -0.0396  0.1725
  456MOL0     C61481   6.268   7.745   5.163  0.4912  0.0928  0.4849
  456MOL0     C61482   6.386   7.662   5.165  0.2077 -0.7086  0.1541
  456MOL0     O61483   6.500   7.718   5.215  0.0414 -0.6756 -0.3287
  456MOL0     C61484   6.613   7.630   5.241 -1.0388 -0.8975 -0.8201
  456MOL0     C61485   6.736   7.704   5.288  0.4504  0.6242 -0.4215
  456MOL0     C61486   6.855   7.608   5.268  0.1031  1.0147  1.1763
  456MOL0     C61487   6.980   7.671   5.329 -0.2207 -0.4581 -0.2453
  456MOL0     C61488   7.009   7.804   5.271 -0.3433  0.6797 -0.8820
  456MOL0     C61489   7.026   7.920   5.226  0.5644 -0.3416  0.2886
  456MOL0     C61490   6.368   7.526   5.132 -0.9353 -0.0579 -0.8341
  456MOL0     C61491   6.246   7.469   5.096 -0.5130 -0.4694 -0.0559
  456MOL0     C61492   6.237   7.312   5.066 -0.2343 -0.2602 -0.4182
  456MOL0     H61493   5.823   7.513   4.751 -0.1338 -4.2564 -0.5585
  456MOL0     H61494   5.590   7.450   4.710 -0.8208 -0.7837  0.1784
  456MOL0     H61495   5.387   7.258   4.999  2.5278  1.9934  2.1654
  456MOL0     H61496   5.314   7.410   5.058  2.4265 -0.4440  1.5468
  456MOL0     H61497   5.135   7.387   4.883 -2.4815 -0.5748 -0.2151
  456MOL0     H61498   5.135   7.230   4.948  0.7991 -1.6658 -0.6363
  456MOL0     H61499   5.230   7.128   4.758  2.1493  0.3665 -1.2133
  456MOL0     H61500   5.318   7.268   4.702  1.4119 -2.4113  1.2307
  456MOL0     H61501   5.050   7.337   4.675  0.0216 -0.5707  0.5017
  456MOL0     H61502   5.166   7.280   4.552  4.0230  3.4599  2.9243
  456MOL0     H61503   5.079   7.033   4.646 -0.3025 -0.5287  1.3365
  456MOL0     H61504   4.947   7.133   4.718  2.3243  1.9023  1.1569
  456MOL0     H61505   4.879   7.196   4.495  1.3092 -0.2891 -0.3228
  456MOL0     H61506   5.017   7.126   4.426  2.4598 -0.8898  0.5983
  456MOL0     H61507   4.775   6.976   4.564 -0.9053 -0.7529 -1.2540
  456MOL0     H61508   4.926   6.892   4.526 -0.1730  0.8289 -1.5817
  456MOL0     H61509   4.729   6.871   4.376  0.1902 -0.8885  1.4869
  456MOL0     H61510   4.739   7.041   4.330  1.9691 -0.6436 -2.0968
  456MOL0     H61511   5.010   6.768   4.358  0.5074  0.9518  0.8239
  456MOL0     H61512   5.142   6.668   4.120 -1.8942  0.7099  0.9565
  456MOL0     H61513   5.216   6.788   4.025 -0.5596 -0.2787  0.2995
  456MOL0     H61514   5.325   6.882   4.256 -0.0958 -0.2008  0.2465
  456MOL0     H61515   5.267   6.728   4.331 -1.0476  0.8357 -0.3318
  456MOL0     H61516   5.373   6.634   4.103 -3.6141  1.0691 -0.3128
  456MOL0     H61517   5.461   6.635   4.261 -1.3481 -2.2472 -0.5613
  456MOL0     H61518   5.540   6.875   4.170  2.9582  1.6517 -3.6560
  456MOL0     H61519   5.499   6.797   4.018 -0.0233  0.7851 -0.2051
  456MOL0     H61520   5.716   6.488   4.152  0.7813 -0.7418 -0.2330
  456MOL0     H61521   5.839   6.397   4.334 -1.0824  0.1178 -1.8931
  456MOL0     H61522   5.961   6.554   4.879 -1.1632 -0.6201 -0.8218
  456MOL0     H61523   6.119   6.450   5.018 -0.0473  2.9404  0.3209
  456MOL0     H61524   6.415   6.344   5.149  1.2720  0.5605 -1.2566
  456MOL0     H61525   6.265   6.300   5.044 -0.6832  3.2603  0.5613
  456MOL0     H61526   6.461   6.212   4.884  0.6693 -1.1070  0.1043
  456MOL0     H61527   6.559   6.223   5.032 -1.3188  1.0667  2.4538
  456MOL0     H61528   6.300   6.092   4.990  0.1712  3.6113  1.5677
  456MOL0     H61529   6.439   5.994   4.988 -0.1168  1.8544 -3.5852
  456MOL0     H61530   6.280   6.097   5.213  0.7891 -0.4029  1.0759
  456MOL0     H61531   6.437   6.127   5.254 -3.8918  3.0767 -1.0392
  456MOL0     H61532   6.404   5.902   5.324  0.0369  0.5907 -0.7311
  456MOL0     H61533   6.468   5.859   5.173 -0.1314  2.0147 -1.7561
  456MOL0     H61534   6.170   5.894   5.223  0.4551  1.6410 -1.9394
  456MOL0     H61535   6.249   5.822   5.086 -0.4910  0.8288 -0.0182
  456MOL0     H61536   6.258   5.696   5.366  1.9228  0.5101 -0.0482
  456MOL0     H61537   6.322   5.633   5.224  0.6654  1.5879 -0.7682
  456MOL0     H61538   6.082   5.530   5.265 -1.1450 -1.0972  0.6134
  456MOL0     H61539   6.024   5.694   5.284  0.8732  0.3312 -1.2600
  456MOL0     H61540   6.429   6.516   4.736  0.3510  0.1024  3.3319
  456MOL0     H61541   6.253   6.617   4.571 -0.2819 -1.3291 -0.1960
  456MOL0     H61542   5.880   6.797   4.492 -0.9191  0.8285  0.7715
  456MOL0     H61543   5.726   6.881   4.308  0.4812  0.0024 -3.5078
  456MOL0     H61544   5.502   7.483   5.126 -0.4964  1.1185  0.4229
  456MOL0     H61545   5.727   7.546   5.171 -2.3671 -4.0609  0.6805
  456MOL0     H61546   6.058   7.755   5.155 -1.5629 -3.2790  1.0236
  456MOL0     H61547   6.285   7.850   5.187 -0.1775  0.2640  0.2414
  456MOL0     H61548   6.646   7.576   5.152 -1.4115 -2.5698 -0.0060
  456MOL0     H61549   6.584   7.549   5.309  2.3206 -2.3753 -0.9425
  456MOL0     H61550   6.732   7.743   5.390  2.8963  3.3806 -1.2081
  456MOL0     H61551   6.746   7.790   5.221 -0.5110 -1.2234 -3.0965
  456MOL0     H61552   6.855   7.574   5.164 -0.3988  2.1895  0.7690
  456MOL0     H61553   6.835   7.518   5.327  4.8246 -0.4259  0.9924
  456MOL0     H61554   6.971   7.676   5.438  2.8183 -0.4896  0.0689
  456MOL0     H61555   7.072   7.618   5.306 -0.8372 -2.3101  1.2562
  456MOL0     H61556   7.037   8.017   5.181 -1.0364  0.3303  1.2664
  456MOL0     H61557   6.455   7.460   5.130 -1.4851 -1.1631  2.9923
  456MOL0     H61558   6.170   7.284   4.984 -0.4992 -0.6339 -0.0739
  456MOL0     H61559   6.332   7.271   5.033 -0.0819 -1.8050  1.7491
  456MOL0     H61560   6.211   7.267   5.162  2.2918  1.1055  0.9872
  457MOL0     O61561   0.242   4.277   4.404 -0.4264  0.4448 -0.2786
  457MOL0     C61562   0.138   4.337   4.368 -0.0086 -0.3457  0.3270
  457MOL0     O61563   0.084   4.334   4.245 -0.0919 -0.2976  0.3736
  457MOL0     C61564   0.160   4.314   4.140 -0.0212 -0.2730 -0.2591
  457MOL0     C61565   0.121   4.233   4.032 -0.1972 -0.2656 -0.2855
  457MOL0     C61566   0.196   4.234   3.911 -0.2739  0.2673  0.2723
  457MOL0     C61567   0.326   4.285   3.906  0.5212  0.2491  0.4309
  457MOL0     O61568   0.425   4.257   3.803  0.4227  0.0915 -0.4338
  457MOL0     C61569   0.415   4.133   3.726 -0.2683 -0.9325 -0.2585
  457MOL0     C61570   0.552   4.087   3.686  0.9116 -0.6891  0.0268
  457MOL0     C61571   0.625   4.183   3.598  0.0897  0.3210 -0.4324
  457MOL0     C61572   0.563   4.183   3.458  0.2458  0.5356  0.6817
  457MOL0     C61573   0.661   4.233   3.356  0.3783 -0.3982  0.1836
  457MOL0     C61574   0.599   4.266   3.218  0.1499  0.0385  0.2669
  457MOL0     C61575   0.490   4.180   3.162  0.2240 -0.1803  0.4544
  457MOL0     C61576   0.416   4.248   3.039  0.5921  1.0641 -0.3170
  457MOL0     N61577   0.331   4.361   3.067  0.0565  0.6990 -0.4983
  457MOL0     C61578   0.212   4.356   3.125  0.2325 -0.1443 -0.6344
  457MOL0     C61579   0.179   4.482   3.158 -0.3569 -0.3145 -0.3952
  457MOL0     C61580   0.054   4.534   3.227  0.5610  0.2806  0.5993
  457MOL0     C61581   0.088   4.607   3.352  0.0063 -0.1923 -0.6161
  457MOL0     C61582  -0.035   4.704   3.385 -0.0544  0.2110  1.1539
  457MOL0     C61583  -0.033   4.762   3.532  0.4891 -0.5343  0.2422
  457MOL0     O61584  -0.114   4.883   3.536 -0.0010 -0.2120 -0.3308
  457MOL0     C61585  -0.220   4.899   3.625 -0.1367 -0.5263 -0.0738
  457MOL0     C61586  -0.225   4.853   3.752 -0.7292 -0.1840 -0.8950
  457MOL0     C61587  -0.327   4.883   3.841 -0.3395 -0.2946 -0.2220
  457MOL0     C61588  -0.437   4.959   3.806 -0.8657  0.8721  0.3053
  457MOL0     C61589  -0.537   4.995   3.909 -0.8818  0.0610 -0.6372
  457MOL0     O61590  -0.499   4.974   4.038  0.9637  0.0709 -1.1443
  457MOL0     C61591  -0.581   4.997   4.145 -0.2579  0.2235 -0.8898
  457MOL0     C61592  -0.536   5.055   4.256 -0.3084 -0.6267 -0.7163
  457MOL0     C61593  -0.592   5.043   4.377 -1.0259  0.3172 -0.0411
  457MOL0     C61594  -0.714   4.974   4.379  0.3946 -0.1258  0.1118
  457MOL0     O61595  -0.776   4.945   4.500  0.1913 -0.5451  0.2264
  457MOL0     C61596  -0.844   5.052   4.555  0.3353  0.1021  0.3278
  457MOL0     C61597  -0.971   4.987   4.614 -0.6231  0.7627 -0.0939
  457MOL0     C61598  -1.034   5.088   4.718 -0.0384  0.4507  0.0149
  457MOL0     C61599  -1.178   5.054   4.738  0.8630 -0.1444  0.5551
  457MOL0     C61600  -1.264   5.157   4.818 -0.5238  0.2368 -0.3732
  457MOL0     C61601  -1.201   5.203   4.951  0.8131  0.7213  0.4640
  457MOL0     C61602  -1.303   5.272   5.038  0.3442 -0.2388  0.3037
  457MOL0     C61603  -1.329   5.420   5.000  0.1437  1.3587  0.1391
  457MOL0    Cl61604  -1.440   5.500   5.122  0.5813 -0.0208  0.1808
  457MOL0     C61605  -0.769   4.915   4.273  0.8283  0.0686  0.3781
  457MOL0     C61606  -0.701   4.926   4.153  0.1272  0.2497  0.5293
  457MOL0     O61607  -0.635   5.058   3.874  0.0514 -0.2543  0.3680
  457MOL0     C61608  -0.445   5.010   3.673 -1.0817  0.0743 -0.6732
  457MOL0     C61609  -0.326   4.989   3.595  0.4823  0.1208 -0.3008
  457MOL0     N61610   0.276   4.555   3.093 -0.5962 -0.6471 -0.0902
  457MOL0     N61611   0.371   4.483   3.044 -0.2315  0.7298 -0.2878
  457MOL0     C61612   0.368   4.370   4.010  0.3119  0.0359 -0.3772
  457MOL0     C61613   0.282   4.386   4.125 -1.3502  0.4225 -0.4245
  457MOL0     C61614   0.078   4.422   4.473  0.0919 -0.1695  0.2647
  457MOL0     C61615   0.040   4.550   4.436  0.9259  0.1455 -0.1476
  457MOL0     C61616  -0.016   4.640   4.529  0.0573  0.4447 -0.0740
  457MOL0     C61617  -0.043   4.603   4.667  0.3162  0.5733  0.2048
  457MOL0     O61618  -0.100   4.692   4.750 -0.1554 -0.2994  0.0922
  457MOL0     C61619  -0.246   4.680   4.732 -1.1031 -0.1275 -0.7943
  457MOL0     C61620  -0.330   4.764   4.849 -0.5023  0.3823 -0.4638
  457MOL0     C61621  -0.326   4.914   4.836 -0.2739  0.2147  0.2122
  457MOL0     C61622  -0.400   4.952   4.708  0.2947 -0.4816  0.0289
  457MOL0     C61623  -0.316   5.029   4.617  0.6336 -0.3399 -0.1553
  457MOL0     C61624  -0.240   5.090   4.544 -0.5511 -0.2172  0.6694
  457MOL0     C61625  -0.001   4.473   4.701  0.3038 -0.1489 -0.3572
  457MOL0     C61626   0.061   4.382   4.610  0.2216  0.5692 -0.0649
  457MOL0     C61627   0.103   4.250   4.670 -0.6593 -0.7651 -0.4235
  457MOL0     H61628   0.023   4.188   4.043 -1.2789  2.2050  1.2112
  457MOL0     H61629   0.160   4.171   3.830  2.4855 -1.9129  0.6081
  457MOL0     H61630   0.373   4.061   3.797 -0.5895 -0.6744 -0.1875
  457MOL0     H61631   0.358   4.151   3.635  0.6010 -1.0479 -0.8379
  457MOL0     H61632   0.541   3.983   3.654  1.1212 -0.8981  0.6166
  457MOL0     H61633   0.603   4.079   3.783 -1.3116  1.0553  1.4232
  457MOL0     H61634   0.724   4.139   3.587 -0.4830 -1.1837  0.1404
  457MOL0     H61635   0.635   4.284   3.639 -0.5657 -0.1294  0.8915
  457MOL0     H61636   0.528   4.082   3.432  0.8510  0.1910  1.1823
  457MOL0     H61637   0.476   4.249   3.469 -0.8572 -0.5099 -1.2105
  457MOL0     H61638   0.697   4.335   3.375  1.7547 -0.7784 -0.2101
  457MOL0     H61639   0.754   4.175   3.350  0.3598 -0.3331 -0.9657
  457MOL0     H61640   0.575   4.373   3.217 -1.7599 -0.3595 -0.8887
  457MOL0     H61641   0.680   4.256   3.145  1.3327 -2.0314  1.7474
  457MOL0     H61642   0.411   4.152   3.232  2.6681 -1.6321  2.8192
  457MOL0     H61643   0.539   4.085   3.141 -0.8099 -0.8720  1.0753
  457MOL0     H61644   0.483   4.273   2.956  0.0573 -0.8879 -1.4005
  457MOL0     H61645   0.346   4.175   2.999  2.0259 -3.0274  3.8331
  457MOL0     H61646   0.153   4.268   3.147 -2.1611  1.9815  2.4225
  457MOL0     H61647   0.004   4.602   3.157  1.4757 -1.8047 -2.2518
  457MOL0     H61648  -0.004   4.447   3.261  3.6777 -1.4647  1.8710
  457MOL0     H61649   0.105   4.532   3.431 -1.6634 -0.3105 -0.3350
  457MOL0     H61650   0.168   4.677   3.325 -1.1068 -0.3906 -5.1237
  457MOL0     H61651  -0.125   4.643   3.375 -0.6497  0.9348  1.9491
  457MOL0     H61652  -0.048   4.789   3.318  1.8045  0.8990  1.5940
  457MOL0     H61653   0.067   4.787   3.567  0.7836  2.8669 -2.4282
  457MOL0     H61654  -0.081   4.683   3.590  1.8139 -1.3246  0.2840
  457MOL0     H61655  -0.148   4.790   3.795 -0.7391 -0.8527 -1.8452
  457MOL0     H61656  -0.325   4.836   3.938  0.2571  1.2655  0.5491
  457MOL0     H61657  -0.438   5.101   4.257 -1.5286  2.1997  2.1401
  457MOL0     H61658  -0.551   5.096   4.462  1.6374  0.4306 -1.2751
  457MOL0     H61659  -0.776   5.096   4.630  0.1613 -1.8947  1.7333
  457MOL0     H61660  -0.877   5.129   4.484 -0.6847 -1.9555 -1.5218
  457MOL0     H61661  -1.045   4.957   4.539 -0.8149 -2.0269  1.1038
  457MOL0     H61662  -0.946   4.893   4.663 -1.6092 -0.4178 -1.7622
  457MOL0     H61663  -0.977   5.083   4.811  2.7753 -2.0662 -1.6408
  457MOL0     H61664  -1.023   5.192   4.683 -1.6626  0.6854  0.1354
  457MOL0     H61665  -1.189   4.950   4.771 -0.1225 -0.1658  0.1819
  457MOL0     H61666  -1.219   5.050   4.637 -0.6813 -0.7935  1.1777
  457MOL0     H61667  -1.367   5.125   4.835 -0.8046  0.4486 -1.6417
  457MOL0     H61668  -1.273   5.242   4.750 -2.4891  0.4066  0.0418
  457MOL0     H61669  -1.174   5.119   5.014 -1.6734 -1.6083 -1.3352
  457MOL0     H61670  -1.110   5.264   4.950  1.4670 -0.2359  1.0548
  457MOL0     H61671  -1.295   5.252   5.145 -0.7452 -0.0030  0.4435
  457MOL0     H61672  -1.395   5.214   5.026  0.0613 -0.0741  1.5752
  457MOL0     H61673  -1.242   5.486   4.996  0.3961  1.1532  1.6410
  457MOL0     H61674  -1.373   5.430   4.901 -0.2899  2.1799  0.4014
  457MOL0     H61675  -0.865   4.865   4.274  1.1834 -0.6398 -0.0567
  457MOL0     H61676  -0.732   4.882   4.059  0.6185  0.9442  0.0276
  457MOL0     H61677  -0.521   5.071   3.625 -0.9876 -1.6958 -3.2905
  457MOL0     H61678  -0.322   5.028   3.494 -1.9168  2.1522  0.2921
  457MOL0     H61679   0.460   4.427   4.003  0.2648  0.0488 -0.9008
  457MOL0     H61680   0.312   4.449   4.208 -1.5389 -0.1139  0.0587
  457MOL0     H61681   0.057   4.589   4.336 -0.0282  3.1054  0.7303
  457MOL0     H61682  -0.035   4.740   4.491  1.4850  0.4034 -0.9804
  457MOL0     H61683  -0.269   4.573   4.739  0.1547 -0.3435  0.4830
  457MOL0     H61684  -0.274   4.717   4.633 -1.6881  0.0746 -0.5517
  457MOL0     H61685  -0.266   4.750   4.937  3.0188 -1.6104 -3.0513
  457MOL0     H61686  -0.432   4.726   4.861  1.2180 -4.9973 -0.1832
  457MOL0     H61687  -0.220   4.943   4.838  0.2666 -1.4552 -1.3878
  457MOL0     H61688  -0.386   4.953   4.918 -0.1119  3.1931 -0.9519
  457MOL0     H61689  -0.448   4.865   4.662  0.5141 -1.7258  1.9931
  457MOL0     H61690  -0.482   5.019   4.736  1.2835 -0.7422  4.2064
  457MOL0     H61691  -0.182   5.161   4.489  2.0611 -0.1309  3.2670
  457MOL0     H61692  -0.019   4.449   4.806 -0.4451  1.8787  0.0318
  457MOL0     H61693   0.198   4.252   4.724 -0.2347  1.5291 -1.1410
  457MOL0     H61694   0.026   4.227   4.746 -1.3514 -2.9434 -1.6735
  457MOL0     H61695   0.103   4.165   4.601  1.1625  0.4336 -1.9720
  458MOL0     O61696  10.172   0.181   8.195  0.2264 -0.2390  0.1534
  458MOL0     C61697  10.122   0.258   8.283  0.0954 -0.4151  0.2718
  458MOL0     O61698   9.992   0.261   8.329  0.0327 -0.2468  0.4908
  458MOL0     C61699   9.919   0.149   8.294  0.5991 -0.8433  0.4207
  458MOL0     C61700   9.844   0.136   8.173 -0.5958 -0.5309 -0.3272
  458MOL0     C61701   9.779   0.020   8.139 -0.5086  0.3999 -0.7802
  458MOL0     C61702   9.780  -0.087   8.235  0.6281 -0.4221 -0.2798
  458MOL0     O61703   9.712  -0.193   8.204  0.3288 -0.0406  1.2362
  458MOL0     C61704   9.625  -0.256   8.298  0.3031  0.1713  0.8118
  458MOL0     C61705   9.522  -0.323   8.209  0.5471 -0.4640  0.0912
  458MOL0     C61706   9.399  -0.236   8.177 -0.1436  0.2552  0.0899
  458MOL0     C61707   9.347  -0.160   8.299 -0.3239 -0.2423 -0.2966
  458MOL0     C61708   9.204  -0.119   8.271  0.2629 -0.0018  0.8975
  458MOL0     C61709   9.210  -0.011   8.155 -0.2695  0.4899 -0.0595
  458MOL0     C61710   9.080   0.063   8.141  0.4713 -0.5709  0.5166
  458MOL0     C61711   8.960  -0.028   8.134  0.2422 -0.4072 -0.7625
  458MOL0     N61712   8.967  -0.120   8.021  0.0588 -0.3281  1.3657
  458MOL0     C61713   9.003  -0.101   7.886  0.1372 -0.8314  0.0784
  458MOL0     C61714   8.960  -0.213   7.816  0.2249 -0.7397  0.0339
  458MOL0     C61715   8.964  -0.250   7.670 -0.4761 -0.1042  0.2517
  458MOL0     C61716   8.851  -0.187   7.586  1.0220  0.1404  0.1670
  458MOL0     C61717   8.836  -0.243   7.451 -0.5910  0.3856 -0.2538
  458MOL0     C61718   8.943  -0.195   7.345  0.0698 -0.3711  0.4764
  458MOL0     O61719   8.931  -0.055   7.317  0.6583 -0.0621 -0.5614
  458MOL0     C61720   9.029   0.003   7.233  0.5851 -0.5979  0.6106
  458MOL0     C61721   9.142  -0.068   7.176  0.4429  1.0769 -0.1636
  458MOL0     C61722   9.232   0.001   7.096  0.6061  0.1013 -0.1923
  458MOL0     C61723   9.204   0.137   7.064  0.3709 -0.5799 -0.2094
  458MOL0     C61724   9.285   0.206   6.964 -0.8374  0.4294 -0.2019
  458MOL0     O61725   9.324   0.137   6.857  0.2218  0.1673  0.2509
  458MOL0     C61726   9.385   0.188   6.744  0.0040 -1.2029 -0.8610
  458MOL0     C61727   9.373   0.119   6.621 -0.6819  0.2539  1.1058
  458MOL0     C61728   9.439   0.158   6.501 -0.2090 -0.4425 -0.9381
  458MOL0     C61729   9.538   0.258   6.518 -0.0605 -0.6847  1.0964
  458MOL0     O61730   9.612   0.312   6.416 -0.0061 -0.2592  0.6895
  458MOL0     C61731   9.637   0.237   6.293  0.6989  0.4982  0.1277
  458MOL0     C61732   9.725   0.311   6.199  0.1622 -0.6896 -0.4315
  458MOL0     C61733   9.873   0.304   6.241  1.0155 -0.5985 -0.5165
  458MOL0     C61734   9.967   0.396   6.168 -0.5532 -0.2158  0.5818
  458MOL0     C61735  10.099   0.392   6.231  0.0410 -0.6170  0.5581
  458MOL0     C61736  10.195   0.488   6.159 -0.1129 -0.5073  0.8489
  458MOL0     C61737  10.211   0.475   6.007  0.3565  1.0963  0.5070
  458MOL0     C61738  10.235   0.329   5.955 -1.1142  0.1178 -0.2203
  458MOL0    Cl61739  10.392   0.258   6.006  0.2716 -0.2350  0.2637
  458MOL0     C61740   9.561   0.320   6.644  0.1162 -0.9280  0.6039
  458MOL0     C61741   9.483   0.293   6.753  1.1847 -0.5967  0.5039
  458MOL0     O61742   9.301   0.328   6.983 -0.4219 -0.4400  0.3022
  458MOL0     C61743   9.090   0.203   7.117 -0.7806  0.2607  0.0146
  458MOL0     C61744   9.006   0.139   7.205 -0.1432  0.5389 -0.6083
  458MOL0     N61745   8.937  -0.306   7.912  0.1173  0.9875 -0.5824
  458MOL0     N61746   8.924  -0.249   8.028 -0.2702 -0.1189  0.1477
  458MOL0     C61747   9.843  -0.074   8.361  0.8284 -0.2145  0.7740
  458MOL0     C61748   9.917   0.048   8.390  0.6008 -0.8542  0.4028
  458MOL0     C61749  10.221   0.354   8.361  1.4217 -0.0772 -0.9755
  458MOL0     C61750  10.161   0.426   8.461  0.5713 -0.4234  0.6419
  458MOL0     C61751  10.229   0.519   8.543  0.0486  0.0661 -0.2283
  458MOL0     C61752  10.368   0.534   8.529  0.1297 -0.7650 -0.0294
  458MOL0     O61753  10.428   0.630   8.607  0.9756  0.4534  0.4357
  458MOL0     C61754  10.564   0.660   8.614 -0.1343 -0.3147  0.5786
  458MOL0     C61755  10.603   0.752   8.501  1.1454 -0.7470  0.2777
  458MOL0     C61756  10.753   0.763   8.479 -0.1375  0.9915  0.0915
  458MOL0     C61757  10.797   0.860   8.372  0.3361  0.2751 -0.8029
  458MOL0     C61758  10.740   0.851   8.231  1.0360 -0.5584 -0.7961
  458MOL0     C61759  10.679   0.837   8.118 -0.9164 -0.1952 -0.7899
  458MOL0     C61760  10.438   0.448   8.443  1.1703  0.8832 -0.7199
  458MOL0     C61761  10.363   0.364   8.359 -0.1858  0.9093  0.0318
  458MOL0     C61762  10.437   0.313   8.241 -0.0544 -0.5210 -0.3072
  458MOL0     H61763   9.853   0.222   8.107  0.9234 -0.5206 -0.1589
  458MOL0     H61764   9.747  -0.002   8.037  0.4300  1.2591 -1.2741
  458MOL0     H61765   9.681  -0.325   8.362  0.5731  0.5199  0.9600
  458MOL0     H61766   9.578  -0.188   8.370 -0.4078  1.1743 -0.5490
  458MOL0     H61767   9.486  -0.407   8.268  1.5521 -1.2184 -0.3528
  458MOL0     H61768   9.574  -0.372   8.126  0.6144  1.6234 -1.1947
  458MOL0     H61769   9.318  -0.299   8.138 -0.8642  3.3953 -4.3425
  458MOL0     H61770   9.436  -0.166   8.101  4.1507  0.2089  1.8720
  458MOL0     H61771   9.343  -0.224   8.388  2.6736  1.4331  1.1890
  458MOL0     H61772   9.405  -0.072   8.328 -0.6836  0.4609 -1.6078
  458MOL0     H61773   9.149  -0.206   8.233  2.5354 -1.1909  0.1576
  458MOL0     H61774   9.155  -0.086   8.364 -1.0583  0.1833  0.1671
  458MOL0     H61775   9.291   0.062   8.164 -0.4146  0.6108  0.2713
  458MOL0     H61776   9.239  -0.054   8.059  1.0024  0.3744  0.3517
  458MOL0     H61777   9.087   0.136   8.060  2.0559 -1.9924 -0.6936
  458MOL0     H61778   9.065   0.127   8.229 -0.4172 -0.1209  0.0517
  458MOL0     H61779   8.969  -0.102   8.214  0.1315  0.3886  0.0085
  458MOL0     H61780   8.872   0.036   8.148  1.1527  0.6490  0.4558
  458MOL0     H61781   9.035  -0.007   7.843  1.2688 -1.4834 -0.5535
  458MOL0     H61782   9.064  -0.223   7.634 -0.7656  0.7099  0.0352
  458MOL0     H61783   8.948  -0.358   7.663  0.6140 -0.3282  0.9300
  458MOL0     H61784   8.757  -0.169   7.639  1.3429  2.6581  0.0044
  458MOL0     H61785   8.888  -0.087   7.562 -0.3772  0.1788 -2.1994
  458MOL0     H61786   8.739  -0.200   7.422 -0.4842  1.1839  0.5237
  458MOL0     H61787   8.825  -0.352   7.453 -0.1411  0.1417 -3.7313
  458MOL0     H61788   8.921  -0.253   7.256  3.5026  3.1200 -3.0389
  458MOL0     H61789   9.041  -0.227   7.383  0.9587  3.1459  1.5636
  458MOL0     H61790   9.156  -0.175   7.190 -1.0565  1.0120  1.2119
  458MOL0     H61791   9.328  -0.043   7.071  0.7751  0.2892  0.1127
  458MOL0     H61792   9.300   0.039   6.618 -2.2251  1.6396 -1.2777
  458MOL0     H61793   9.419   0.099   6.412  1.8630  0.2837 -1.9293
  458MOL0     H61794   9.667   0.134   6.312  1.4902  0.9522  1.5105
  458MOL0     H61795   9.539   0.231   6.246  0.6008 -0.3460  0.4414
  458MOL0     H61796   9.721   0.277   6.095  0.0939 -1.0663 -0.3061
  458MOL0     H61797   9.686   0.413   6.193 -0.6938 -0.9297  0.6315
  458MOL0     H61798   9.883   0.332   6.346  3.8795  0.0553 -0.8828
  458MOL0     H61799   9.925   0.209   6.225  3.5355  0.7937 -1.0286
  458MOL0     H61800   9.936   0.500   6.159  0.4563  0.1037  0.7085
  458MOL0     H61801   9.977   0.354   6.068 -1.6196  0.0366  0.3534
  458MOL0     H61802  10.145   0.293   6.229  1.3947 -0.0167  0.4391
  458MOL0     H61803  10.096   0.421   6.337 -0.6525  0.4857  0.2531
  458MOL0     H61804  10.151   0.588   6.162  0.3385 -0.2149 -1.0358
  458MOL0     H61805  10.294   0.487   6.206  0.5541  0.2909 -0.4694
  458MOL0     H61806  10.293   0.543   5.981  0.0780  1.4618  0.5763
  458MOL0     H61807  10.125   0.514   5.951  2.0444  0.2200 -2.9688
  458MOL0     H61808  10.161   0.260   5.996  2.7219 -3.5766  1.3413
  458MOL0     H61809  10.214   0.334   5.848 -2.6575  0.4315  0.0711
  458MOL0     H61810   9.629   0.403   6.662  1.4298 -1.7801 -0.3081
  458MOL0     H61811   9.493   0.357   6.840  1.3342 -0.5637  0.4634
  458MOL0     H61812   9.065   0.307   7.096 -2.7486 -0.5183 -1.9293
  458MOL0     H61813   8.952   0.201   7.276  3.1380  1.2474  1.4889
  458MOL0     H61814   9.842  -0.153   8.435  2.1878 -0.9868  0.0119
  458MOL0     H61815   9.959   0.071   8.488 -0.5355  4.5527 -0.0583
  458MOL0     H61816  10.053   0.421   8.470  0.3226 -0.4772 -1.7171
  458MOL0     H61817  10.168   0.572   8.615  0.5609 -1.2960  1.2800
  458MOL0     H61818  10.616   0.566   8.591  1.2403  0.6733 -0.5589
  458MOL0     H61819  10.604   0.697   8.709 -2.0456  3.0347  0.2228
  458MOL0     H61820  10.561   0.847   8.534 -0.3087 -2.5718  4.3043
  458MOL0     H61821  10.548   0.714   8.414  1.3749  0.5038 -0.4411
  458MOL0     H61822  10.786   0.663   8.451  1.1687  0.4757  3.1087
  458MOL0     H61823  10.801   0.788   8.574 -0.5000  0.3876  0.4381
  458MOL0     H61824  10.794   0.965   8.405  2.3048 -0.0073  0.4861
  458MOL0     H61825  10.906   0.850   8.374  0.2757 -0.3401 -0.3503
  458MOL0     H61826  10.619   0.844   8.030  2.0898  1.1889 -2.9186
  458MOL0     H61827  10.546   0.437   8.437  1.0081 -1.3792 -0.2620
  458MOL0     H61828  10.393   0.340   8.145  2.3613  2.5975 -0.7086
  458MOL0     H61829  10.539   0.355   8.243 -0.1246 -0.3678  0.1664
  458MOL0     H61830  10.448   0.205   8.251  0.7923 -0.5460 -1.3948
  459MOL0     O61831   4.912   3.478   2.616 -0.0073 -0.1562 -0.4387
  459MOL0     C61832   4.928   3.456   2.734  0.5289  0.2483 -0.2972
  459MOL0     O61833   5.032   3.384   2.786  0.1513 -0.0295  0.8768
  459MOL0     C61834   5.114   3.327   2.689  0.2974  0.7566 -0.0738
  459MOL0     C61835   5.243   3.369   2.684 -0.3933 -0.1714 -0.1761
  459MOL0     C61836   5.343   3.321   2.598 -0.3184 -0.0879  0.5883
  459MOL0     C61837   5.315   3.222   2.508 -0.3363 -0.8953  1.0163
  459MOL0     O61838   5.412   3.168   2.426 -0.6997 -0.2286  0.0535
  459MOL0     C61839   5.402   3.032   2.385  0.5001  0.1709 -0.4724
  459MOL0     C61840   5.533   2.954   2.417 -0.1609  0.1012 -0.3882
  459MOL0     C61841   5.535   2.919   2.566 -0.0591  0.1348  0.2071
  459MOL0     C61842   5.494   2.777   2.604 -0.5071 -0.3860 -0.6434
  459MOL0     C61843   5.617   2.692   2.636 -0.3353  0.4753 -0.2836
  459MOL0     C61844   5.662   2.634   2.503 -0.2058 -0.1885  1.1281
  459MOL0     C61845   5.579   2.523   2.454  0.2538  0.1026 -0.4357
  459MOL0     C61846   5.623   2.473   2.320 -0.6435  0.5474  0.8073
  459MOL0     N61847   5.761   2.427   2.323  0.9610 -0.0809  0.1234
  459MOL0     C61848   5.849   2.378   2.427 -0.3307  0.3855  0.6163
  459MOL0     C61849   5.969   2.389   2.361 -0.6770  0.0955  1.1244
  459MOL0     C61850   6.102   2.361   2.426  1.0035  0.1389 -0.2610
  459MOL0     C61851   6.202   2.486   2.442 -0.4238  0.4743  0.2521
  459MOL0     C61852   6.320   2.446   2.529  0.0039 -0.0435 -0.0455
  459MOL0     C61853   6.431   2.544   2.506 -0.3981 -0.1471  0.1947
  459MOL0     O61854   6.403   2.675   2.567 -0.2101 -0.1620 -0.1182
  459MOL0     C61855   6.503   2.769   2.538  0.3500 -0.3402  0.3360
  459MOL0     C61856   6.622   2.745   2.466 -0.3471  0.1718  0.2228
  459MOL0     C61857   6.718   2.850   2.476  0.3094  0.3475  0.3742
  459MOL0     C61858   6.692   2.969   2.540  0.7132  0.2267  0.2134
  459MOL0     C61859   6.807   3.062   2.558  0.7366 -0.3827  0.6875
  459MOL0     O61860   6.805   3.152   2.664 -0.3038 -0.6881  0.8236
  459MOL0     C61861   6.866   3.274   2.653 -0.0861  0.0001 -0.6928
  459MOL0     C61862   6.937   3.337   2.548  0.1992 -0.4408  0.7552
  459MOL0     C61863   6.958   3.476   2.537 -0.3063  0.0473  0.4233
  459MOL0     C61864   6.925   3.552   2.649 -1.1597 -0.1494 -0.4225
  459MOL0     O61865   6.953   3.688   2.667  0.0286 -0.3176 -0.1259
  459MOL0     C61866   7.001   3.776   2.560  0.0791  0.3287  0.9363
  459MOL0     C61867   7.151   3.756   2.509  0.0513 -0.1469 -0.0854
  459MOL0     C61868   7.262   3.811   2.592 -0.3708  0.8154  0.4134
  459MOL0     C61869   7.245   3.965   2.595 -1.4932 -0.5326 -0.3765
  459MOL0     C61870   7.358   4.042   2.670  0.1755 -0.2205 -0.2531
  459MOL0     C61871   7.484   4.052   2.587 -0.1443  0.1482  0.5602
  459MOL0     C61872   7.596   4.121   2.662  0.3887 -0.4069 -0.2961
  459MOL0     C61873   7.571   4.270   2.672  0.3177 -0.4675  0.2546
  459MOL0    Cl61874   7.703   4.329   2.784  0.4292  0.1331 -0.5248
  459MOL0     C61875   6.847   3.497   2.747  0.0902 -1.0506  0.2514
  459MOL0     C61876   6.813   3.360   2.750 -0.0827 -0.2389 -1.1805
  459MOL0     O61877   6.898   3.057   2.473  0.2693  0.6382 -0.3316
  459MOL0     C61878   6.569   2.993   2.601 -1.2749 -0.0359  0.4428
  459MOL0     C61879   6.478   2.894   2.591 -0.0100  0.5240 -0.1997
  459MOL0     N61880   5.954   2.428   2.233 -0.2720 -0.0951  0.5085
  459MOL0     N61881   5.826   2.449   2.201 -0.5455  0.1788  0.2749
  459MOL0     C61882   5.181   3.182   2.506  0.7661  0.2452  0.3587
  459MOL0     C61883   5.081   3.224   2.597  0.0322 -0.6566  0.4862
  459MOL0     C61884   4.822   3.495   2.831 -0.0262  0.3165 -0.0767
  459MOL0     C61885   4.794   3.407   2.935  0.7533  0.0854  0.2354
  459MOL0     C61886   4.684   3.429   3.018  0.5151  0.5367 -0.0193
  459MOL0     C61887   4.607   3.548   3.003 -0.2283  0.5270 -0.2319
  459MOL0     O61888   4.508   3.567   3.098 -0.0643 -0.8345  0.4033
  459MOL0     C61889   4.424   3.686   3.098  0.5718 -0.3623 -0.3362
  459MOL0     C61890   4.283   3.657   3.154 -0.4947 -0.1894 -0.1203
  459MOL0     C61891   4.296   3.586   3.291 -0.4391 -1.2526  0.1831
  459MOL0     C61892   4.165   3.609   3.360  1.3757  0.2129 -0.1266
  459MOL0     C61893   4.035   3.560   3.293 -0.2911 -0.0918 -0.5950
  459MOL0     C61894   3.932   3.495   3.269  0.5157  0.4154  0.0237
  459MOL0     C61895   4.640   3.647   2.911  0.0905  0.5401 -0.1068
  459MOL0     C61896   4.742   3.620   2.822 -0.4623  0.2756  0.3994
  459MOL0     C61897   4.774   3.724   2.715 -0.5822  0.3158 -0.1816
  459MOL0     H61898   5.273   3.446   2.754  0.3098  1.6176 -2.3193
  459MOL0     H61899   5.446   3.355   2.605 -0.1236 -0.9384  2.4080
  459MOL0     H61900   5.316   2.977   2.423 -0.6855  1.3309 -1.4063
  459MOL0     H61901   5.403   3.033   2.276  0.0646  3.0451 -0.5172
  459MOL0     H61902   5.619   3.019   2.402  0.8051 -1.2038 -0.7408
  459MOL0     H61903   5.539   2.865   2.353 -2.4529 -1.1724  1.0220
  459MOL0     H61904   5.461   2.984   2.611 -0.4497  1.0298 -1.6349
  459MOL0     H61905   5.633   2.947   2.607  0.4010  2.8851 -2.4246
  459MOL0     H61906   5.439   2.783   2.699 -0.3711  2.1002 -0.6662
  459MOL0     H61907   5.422   2.740   2.530 -2.0321  2.6777 -0.8305
  459MOL0     H61908   5.705   2.740   2.680  0.5831 -1.8648  0.5740
  459MOL0     H61909   5.592   2.604   2.695  1.7461 -2.5370 -3.5050
  459MOL0     H61910   5.671   2.702   2.419 -1.1235 -2.7371 -1.1816
  459MOL0     H61911   5.761   2.588   2.505 -1.5626 -3.8426 -2.3093
  459MOL0     H61912   5.473   2.550   2.451  0.2943  0.4040  0.4184
  459MOL0     H61913   5.592   2.441   2.526  2.4994  0.6291 -0.1548
  459MOL0     H61914   5.567   2.381   2.302  2.3358 -1.6885  2.0244
  459MOL0     H61915   5.611   2.543   2.237 -0.6930 -0.4835 -0.0772
  459MOL0     H61916   5.830   2.350   2.530 -0.4341 -0.6179  0.3347
  459MOL0     H61917   6.083   2.317   2.524  2.0434 -1.4415 -0.7283
  459MOL0     H61918   6.154   2.288   2.363  1.8886  1.2080 -0.8139
  459MOL0     H61919   6.236   2.504   2.339 -3.3640  3.5869 -0.3384
  459MOL0     H61920   6.149   2.574   2.480 -1.1304  0.2584 -0.2223
  459MOL0     H61921   6.361   2.347   2.507  1.0717  0.4317 -0.2357
  459MOL0     H61922   6.275   2.446   2.629  0.7617 -1.5747  0.3286
  459MOL0     H61923   6.440   2.567   2.399 -0.3760 -0.8247  0.0479
  459MOL0     H61924   6.521   2.519   2.563 -0.8030  0.6506  1.2319
  459MOL0     H61925   6.645   2.651   2.418 -1.1571  0.2784 -0.4005
  459MOL0     H61926   6.813   2.825   2.431 -1.1537 -2.4790 -1.3735
  459MOL0     H61927   6.986   3.279   2.470  5.6165  4.3445 -0.0919
  459MOL0     H61928   7.012   3.520   2.454 -1.8748 -0.3765 -0.8789
  459MOL0     H61929   6.928   3.761   2.480 -0.9664  0.4657  1.8416
  459MOL0     H61930   6.980   3.879   2.592 -3.0118 -0.2995  1.2080
  459MOL0     H61931   7.173   3.649   2.504 -0.4295 -0.1876 -2.1390
  459MOL0     H61932   7.145   3.802   2.410 -1.6759 -0.4783 -0.1707
  459MOL0     H61933   7.248   3.768   2.691 -3.7477 -0.6815 -0.6094
  459MOL0     H61934   7.356   3.768   2.555 -1.1947 -0.6080 -0.0618
  459MOL0     H61935   7.147   3.990   2.637 -2.3746 -1.3495 -1.8650
  459MOL0     H61936   7.238   3.990   2.489  0.5932 -1.1915 -0.7137
  459MOL0     H61937   7.366   4.005   2.773 -2.2677  1.3794  0.6036
  459MOL0     H61938   7.328   4.144   2.694  2.3480  0.4931 -0.3744
  459MOL0     H61939   7.524   3.957   2.550 -1.3613 -1.0580  2.1939
  459MOL0     H61940   7.465   4.111   2.496  0.1361  1.3527  1.2665
  459MOL0     H61941   7.688   4.099   2.606  0.5175 -1.6103  0.3440
  459MOL0     H61942   7.615   4.071   2.757 -3.1795 -3.2445 -0.8498
  459MOL0     H61943   7.569   4.313   2.571 -0.6581 -1.2685 -0.0835
  459MOL0     H61944   7.470   4.293   2.709  0.8577  3.0791 -0.0696
  459MOL0     H61945   6.818   3.563   2.828  3.2622  1.5597 -0.5109
  459MOL0     H61946   6.749   3.328   2.832 -2.8773  4.5213 -1.1219
  459MOL0     H61947   6.558   3.091   2.645  1.6581  0.2146  0.7980
  459MOL0     H61948   6.380   2.900   2.637  0.3986 -1.6463  1.0642
  459MOL0     H61949   5.158   3.119   2.420  1.2309  0.8048 -0.1821
  459MOL0     H61950   4.980   3.184   2.604 -0.2630  0.0186  0.1339
  459MOL0     H61951   4.857   3.320   2.948  2.4374  1.5252  2.3493
  459MOL0     H61952   4.664   3.370   3.107 -0.6268  0.0692 -0.5647
  459MOL0     H61953   4.408   3.718   2.994  1.4967 -0.2905 -0.4641
  459MOL0     H61954   4.466   3.768   3.158 -3.5557 -0.9628  3.8928
  459MOL0     H61955   4.241   3.583   3.085  0.0428  0.4947 -1.2041
  459MOL0     H61956   4.226   3.750   3.145  1.2649  1.0366  0.9078
  459MOL0     H61957   4.374   3.630   3.353  1.6991 -1.4406 -2.2171
  459MOL0     H61958   4.323   3.480   3.286 -0.2551 -1.3094  1.8605
  459MOL0     H61959   4.178   3.567   3.461  2.8322 -0.1125 -0.4373
  459MOL0     H61960   4.160   3.717   3.375 -0.4205  0.2635 -0.7826
  459MOL0     H61961   3.843   3.444   3.238 -0.9710  2.5096  0.5914
  459MOL0     H61962   4.603   3.749   2.909 -0.2512  0.4208  0.1252
  459MOL0     H61963   4.740   3.824   2.746  1.2949  0.9052  0.0965
  459MOL0     H61964   4.883   3.737   2.717 -0.8170  2.6512  0.8645
  459MOL0     H61965   4.748   3.696   2.613  0.7211 -0.2952 -0.3686
  460MOL0     O61966   1.615   6.508   7.149  0.3728 -0.8567 -0.1807
  460MOL0     C61967   1.721   6.454   7.147 -0.4951 -0.0498  0.0907
  460MOL0     O61968   1.813   6.461   7.241 -0.0866  0.3252 -0.2972
  460MOL0     C61969   1.787   6.542   7.354 -0.2291  0.1436  0.0076
  460MOL0     C61970   1.865   6.657   7.360 -0.5179 -0.3278  0.3100
  460MOL0     C61971   1.846   6.752   7.465  0.7685  0.3428 -1.1269
  460MOL0     C61972   1.762   6.718   7.580 -0.7547  1.2533  0.8841
  460MOL0     O61973   1.732   6.792   7.685  0.4869  0.5904  0.3294
  460MOL0     C61974   1.805   6.911   7.697  0.3093 -0.2712 -0.8769
  460MOL0     C61975   1.947   6.889   7.751  0.4292  0.1193  0.6536
  460MOL0     C61976   2.021   7.023   7.726 -0.5078  0.4600  1.1622
  460MOL0     C61977   2.166   7.008   7.784  0.7631  0.6737 -0.2353
  460MOL0     C61978   2.223   7.144   7.826  0.9935  0.0529  0.8028
  460MOL0     C61979   2.367   7.132   7.857  0.3517  0.3245  0.4246
  460MOL0     C61980   2.439   7.266   7.893  0.1822 -0.2572 -0.6616
  460MOL0     C61981   2.581   7.277   7.836 -0.1998 -0.1450 -0.1953
  460MOL0     N61982   2.685   7.197   7.906  1.0982  0.5308 -0.0211
  460MOL0     C61983   2.783   7.113   7.846  0.1905 -0.4494  0.1891
  460MOL0     C61984   2.851   7.066   7.950  0.1588 -0.0221  0.8706
  460MOL0     C61985   2.968   6.979   7.941  0.1347  0.3912 -0.2574
  460MOL0     C61986   2.969   6.883   7.824 -0.6136 -0.0034  0.1472
  460MOL0     C61987   3.074   6.768   7.844 -0.3677  0.0191 -0.4132
  460MOL0     C61988   3.210   6.793   7.782 -0.9452 -1.5978  0.2557
  460MOL0     O61989   3.267   6.908   7.844  0.6699  0.0089  0.1644
  460MOL0     C61990   3.395   6.907   7.897 -0.5239 -0.5339  0.7664
  460MOL0     C61991   3.490   6.818   7.849 -0.0930  0.3175 -0.2462
  460MOL0     C61992   3.624   6.827   7.887  0.9916  0.6584  0.6400
  460MOL0     C61993   3.668   6.943   7.967  0.2944 -0.3563  0.8907
  460MOL0     C61994   3.805   6.946   8.010 -0.8189 -0.4514  0.3345
  460MOL0     O61995   3.884   6.860   7.949  0.1322 -0.5124 -0.2577
  460MOL0     C61996   4.021   6.851   7.960 -0.2324  0.1987  0.3952
  460MOL0     C61997   4.114   6.952   7.989  0.0080  0.0728 -0.2194
  460MOL0     C61998   4.255   6.934   8.004  0.3572 -0.3076 -0.0160
  460MOL0     C61999   4.307   6.811   7.967  0.6332  0.4578 -0.8737
  460MOL0     O62000   4.441   6.783   7.978  0.1276  0.3263  0.5423
  460MOL0     C62001   4.523   6.856   8.069  0.7001 -0.7018 -0.5880
  460MOL0     C62002   4.649   6.786   8.097  0.2356 -0.6032  0.3695
  460MOL0     C62003   4.624   6.675   8.195 -0.0124  0.3766  0.1817
  460MOL0     C62004   4.762   6.621   8.216  0.0990  0.9640 -0.0332
  460MOL0     C62005   4.760   6.495   8.309 -0.7857  0.1633  0.5133
  460MOL0     C62006   4.904   6.431   8.304 -0.0483 -0.5141  0.0102
  460MOL0     C62007   4.923   6.304   8.398 -0.0835  0.3153  0.1596
  460MOL0     C62008   5.074   6.288   8.420  0.3598 -0.1446  0.7255
  460MOL0    Cl62009   5.173   6.277   8.264  0.0344  0.1926 -0.3612
  460MOL0     C62010   4.221   6.711   7.923  1.1724  1.0007  0.0617
  460MOL0     C62011   4.079   6.732   7.919 -0.7085  0.2439 -0.3717
  460MOL0     O62012   3.829   7.035   8.101  0.0051 -0.1215 -0.8721
  460MOL0     C62013   3.579   7.042   8.002  0.5430  0.4469 -0.3002
  460MOL0     C62014   3.444   7.014   7.977  0.5283 -0.3862 -0.1004
  460MOL0     N62015   2.792   7.113   8.062  0.0890  0.4656 -0.2157
  460MOL0     N62016   2.697   7.197   8.036 -0.0493 -0.3330  0.1776
  460MOL0     C62017   1.682   6.596   7.564 -0.4447  0.2361 -0.5183
  460MOL0     C62018   1.699   6.516   7.456  0.1395  0.2055 -0.0894
  460MOL0     C62019   1.751   6.358   7.027 -0.2240  0.5643 -0.9415
  460MOL0     C62020   1.863   6.269   7.048 -0.3130 -0.3091 -0.6424
  460MOL0     C62021   1.909   6.174   6.949 -0.0121 -0.5482 -0.4712
  460MOL0     C62022   1.850   6.172   6.824  0.2216  0.8598  0.3924
  460MOL0     O62023   1.904   6.092   6.719  0.2132  0.0448  0.1946
  460MOL0     C62024   2.016   6.000   6.750 -0.5162  0.1423  0.2890
  460MOL0     C62025   2.070   5.943   6.618  1.3167 -0.1630 -0.5158
  460MOL0     C62026   2.062   6.038   6.498  0.0567 -0.4570  0.7970
  460MOL0     C62027   2.105   5.969   6.370 -0.0482  0.7942  0.5167
  460MOL0     C62028   2.137   6.084   6.272 -0.0268  0.0484 -0.5879
  460MOL0     C62029   2.170   6.186   6.223 -0.9788  0.7185 -0.0320
  460MOL0     C62030   1.742   6.259   6.807 -0.1310 -0.4327 -0.0526
  460MOL0     C62031   1.685   6.343   6.905 -1.1964  0.0214  0.8957
  460MOL0     C62032   1.563   6.425   6.875  0.1804  0.2984 -0.1958
  460MOL0     H62033   1.936   6.680   7.281 -0.6282  1.2534  0.6237
  460MOL0     H62034   1.912   6.838   7.468 -2.3758  2.9668 -1.2612
  460MOL0     H62035   1.806   6.971   7.606 -0.1700  0.3100 -0.5060
  460MOL0     H62036   1.756   6.968   7.776  3.0825  1.5976 -0.3652
  460MOL0     H62037   1.988   6.800   7.701 -0.4287  0.5086 -0.8142
  460MOL0     H62038   1.948   6.870   7.858  2.2158 -1.4331  0.4101
  460MOL0     H62039   1.969   7.103   7.779 -0.9549  0.5306  0.6240
  460MOL0     H62040   2.015   7.055   7.621 -2.8705 -1.2980  0.6734
  460MOL0     H62041   2.178   6.940   7.869 -0.8043 -2.1268 -2.1018
  460MOL0     H62042   2.241   6.961   7.719  0.7598 -1.2376  1.0552
  460MOL0     H62043   2.188   7.222   7.757 -3.2147  0.2519  2.7984
  460MOL0     H62044   2.182   7.165   7.925 -2.3225 -0.6171 -0.2661
  460MOL0     H62045   2.383   7.078   7.951  0.4574  0.8171  0.6920
  460MOL0     H62046   2.412   7.072   7.777 -2.8422 -0.8834 -0.6058
  460MOL0     H62047   2.441   7.275   8.002 -1.4775 -0.4078 -0.5955
  460MOL0     H62048   2.374   7.340   7.845 -1.2422 -0.5588  0.7510
  460MOL0     H62049   2.570   7.251   7.730  3.7292  0.8409 -1.0307
  460MOL0     H62050   2.614   7.381   7.848 -0.8204  0.0502 -0.1423
  460MOL0     H62051   2.794   7.095   7.740 -4.6381 -0.7936 -0.4728
  460MOL0     H62052   3.058   7.042   7.946 -1.7484  3.1944  1.6019
  460MOL0     H62053   2.965   6.918   8.032  0.4338 -2.9685 -2.3478
  460MOL0     H62054   2.868   6.840   7.813 -0.9279  0.6260  0.5477
  460MOL0     H62055   2.979   6.939   7.731  0.6709  0.4311  0.5365
  460MOL0     H62056   3.040   6.677   7.793 -1.8456  0.6502 -0.6162
  460MOL0     H62057   3.086   6.742   7.950 -1.8524 -0.0154 -0.2330
  460MOL0     H62058   3.220   6.802   7.674  0.4481 -1.5416  0.3655
  460MOL0     H62059   3.263   6.700   7.807 -1.7666 -2.7706 -2.0575
  460MOL0     H62060   3.470   6.743   7.774  2.9058 -3.5700  2.4307
  460MOL0     H62061   3.691   6.742   7.875  0.1070 -0.3923  2.5432
  460MOL0     H62062   4.084   7.053   8.016  1.4778  0.2763  0.7736
  460MOL0     H62063   4.315   7.018   8.036 -0.3581 -0.0870  0.8069
  460MOL0     H62064   4.549   6.949   8.018 -0.6004  1.1488  1.9178
  460MOL0     H62065   4.472   6.880   8.163 -0.1214  1.4165 -1.5124
  460MOL0     H62066   4.662   6.740   7.998 -3.3665  1.1718 -1.1287
  460MOL0     H62067   4.725   6.855   8.133 -1.0827  0.1473  1.7977
  460MOL0     H62068   4.585   6.718   8.288  0.3300  0.6982  0.1788
  460MOL0     H62069   4.557   6.592   8.173  0.2794 -0.2559  1.5587
  460MOL0     H62070   4.825   6.703   8.252 -1.5180  2.6532 -0.9144
  460MOL0     H62071   4.797   6.596   8.116  1.0392  0.5791  0.3796
  460MOL0     H62072   4.692   6.413   8.283 -0.9694  0.0362  1.3594
  460MOL0     H62073   4.745   6.518   8.415  2.7163 -2.5261  1.7770
  460MOL0     H62074   4.932   6.403   8.201  1.2610 -1.2077  0.5305
  460MOL0     H62075   4.964   6.516   8.336 -1.5920  0.0366  1.5657
  460MOL0     H62076   4.875   6.216   8.355  0.4865  1.2660 -2.6308
  460MOL0     H62077   4.877   6.325   8.495 -2.8623 -3.4196 -0.1082
  460MOL0     H62078   5.112   6.356   8.496  2.6663 -2.2204  1.5683
  460MOL0     H62079   5.080   6.195   8.477 -0.5303  1.1296  3.0078
  460MOL0     H62080   4.247   6.607   7.904 -1.6006  0.4741 -1.3691
  460MOL0     H62081   4.015   6.658   7.872 -1.8825  1.6313 -1.0793
  460MOL0     H62082   3.602   7.126   8.067 -1.1009  1.0057 -0.4035
  460MOL0     H62083   3.370   7.088   8.003  0.8056 -0.7673  1.9695
  460MOL0     H62084   1.601   6.569   7.632  0.4508  0.5903  0.7240
  460MOL0     H62085   1.637   6.426   7.456  0.5595 -0.1613  2.5515
  460MOL0     H62086   1.911   6.271   7.146 -2.1774 -2.1300  0.4037
  460MOL0     H62087   1.990   6.107   6.977 -0.4146 -0.7400  0.2580
  460MOL0     H62088   2.000   5.916   6.818 -0.3156 -2.5921 -2.7927
  460MOL0     H62089   2.091   6.068   6.791  0.2013  0.5283 -1.5406
  460MOL0     H62090   2.006   5.858   6.593  1.6529  0.3401 -3.4804
  460MOL0     H62091   2.176   5.913   6.623  0.9698 -1.7379 -1.6226
  460MOL0     H62092   2.124   6.125   6.522  2.1700 -1.5729 -0.3441
  460MOL0     H62093   1.963   6.083   6.485  0.8580  1.2270  0.1200
  460MOL0     H62094   2.197   5.914   6.393 -2.0043 -1.5701  3.4584
  460MOL0     H62095   2.033   5.895   6.335  2.3126 -0.7825 -1.4258
  460MOL0     H62096   2.226   6.265   6.176  0.1713  0.0192  0.1462
  460MOL0     H62097   1.682   6.250   6.717 -0.7651 -0.8147  0.3950
  460MOL0     H62098   1.519   6.404   6.777 -3.4356 -0.1807  1.3799
  460MOL0     H62099   1.485   6.395   6.945  1.8078  0.2401  1.6819
  460MOL0     H62100   1.585   6.532   6.881 -4.4453  1.4188  0.6357
  461MOL0     O62101   6.239   4.923   9.925 -0.5768  0.3643  0.3378
  461MOL0     C62102   6.241   4.886  10.042  0.0136  0.4124  0.3122
  461MOL0     O62103   6.338   4.922  10.137  0.2378 -0.0617 -0.8528
  461MOL0     C62104   6.452   4.996  10.106 -0.2086  0.0978  0.8598
  461MOL0     C62105   6.515   4.968   9.988  0.2292 -0.0359  0.0971
  461MOL0     C62106   6.633   5.040   9.945 -0.2937  0.2477  0.4414
  461MOL0     C62107   6.701   5.132  10.036  0.2371 -1.0944 -0.4043
  461MOL0     O62108   6.817   5.206   9.997 -0.0563 -0.1257  0.2610
  461MOL0     C62109   6.902   5.125   9.921  0.2521 -0.4392  0.6010
  461MOL0     C62110   7.046   5.188   9.919 -0.1896  0.8659  0.0739
  461MOL0     C62111   7.117   5.187   9.787 -0.1191 -0.7854 -0.2982
  461MOL0     C62112   7.258   5.133   9.816  0.8374 -0.4638 -0.8491
  461MOL0     C62113   7.351   5.231   9.892  0.3515 -0.2659 -0.2585
  461MOL0     C62114   7.471   5.147   9.932 -0.2285 -0.2498 -0.6300
  461MOL0     C62115   7.553   5.224  10.042  0.0947  0.8864  0.3121
  461MOL0     C62116   7.676   5.143  10.082  0.0808 -0.5942 -0.9182
  461MOL0     N62117   7.751   5.229  10.173  0.4770 -0.4129 -0.1834
  461MOL0     C62118   7.884   5.205  10.189  0.2560 -0.0747 -0.0506
  461MOL0     C62119   7.924   5.272  10.304 -0.8564 -0.8915  0.7161
  461MOL0     C62120   8.057   5.268  10.362  0.6840 -1.2092 -0.0119
  461MOL0     C62121   8.113   5.403  10.391  0.0280 -0.2804  0.4743
  461MOL0     C62122   8.206   5.436  10.279 -0.8778  0.2587 -0.3601
  461MOL0     C62123   8.289   5.567  10.301 -0.7471  0.3447 -0.9073
  461MOL0     O62124   8.331   5.565  10.432 -0.2360  0.1707  0.5058
  461MOL0     C62125   8.436   5.652  10.455 -0.0746 -0.7087 -0.2106
  461MOL0     C62126   8.541   5.604  10.520  0.7744  0.3864 -0.9973
  461MOL0     C62127   8.647   5.681  10.548 -0.8907 -0.1286  0.1580
  461MOL0     C62128   8.653   5.817  10.517 -0.3576  0.5986 -0.2225
  461MOL0     C62129   8.765   5.901  10.555  0.1389 -0.4763 -1.0751
  461MOL0     O62130   8.789   6.019  10.491  0.0089  0.4149  0.0814
  461MOL0     C62131   8.915   6.072  10.516 -0.3778 -0.8504  0.6377
  461MOL0     C62132   9.013   6.061  10.421  0.2114 -0.6970  0.6265
  461MOL0     C62133   9.135   6.133  10.446 -0.0074 -0.0059  0.2357
  461MOL0     C62134   9.152   6.210  10.564  0.4262  0.2022  0.5456
  461MOL0     O62135   9.258   6.295  10.574 -0.1071  0.1529  0.0819
  461MOL0     C62136   9.317   6.366  10.466  0.0072 -1.1486  0.4954
  461MOL0     C62137   9.223   6.462  10.405 -0.4087 -0.7546 -0.1494
  461MOL0     C62138   9.276   6.593  10.357  0.1618 -0.0478  0.2849
  461MOL0     C62139   9.160   6.682  10.319  0.3382 -0.3082 -0.3980
  461MOL0     C62140   9.200   6.838  10.311  0.1581 -0.4770 -0.9074
  461MOL0     C62141   9.217   6.896  10.457 -0.6129  0.9338 -0.5235
  461MOL0     C62142   9.230   7.046  10.470  0.6855 -0.1665  0.1626
  461MOL0     C62143   9.370   7.106  10.437  0.1473  1.4786  0.8404
  461MOL0    Cl62144   9.371   7.271  10.498  0.0547  0.3681  0.0992
  461MOL0     C62145   9.048   6.217  10.654  1.1348 -0.9988  0.2461
  461MOL0     C62146   8.935   6.149  10.632 -0.1573  0.3547  1.4412
  461MOL0     O62147   8.834   5.863  10.651 -0.5279 -0.4436 -0.2241
  461MOL0     C62148   8.541   5.866  10.456 -0.2683 -0.2128 -0.4666
  461MOL0     C62149   8.436   5.785  10.418 -0.2687 -0.4226 -0.4277
  461MOL0     N62150   7.808   5.324  10.363 -0.1899 -0.1355  0.4620
  461MOL0     N62151   7.711   5.289  10.286 -0.2519  0.3342  0.0096
  461MOL0     C62152   6.639   5.143  10.159 -0.4764 -0.2278  0.1277
  461MOL0     C62153   6.513   5.089  10.195 -0.5165  0.4279 -0.0209
  461MOL0     C62154   6.129   4.804  10.098  1.0158 -0.3862 -0.2561
  461MOL0     C62155   6.151   4.726  10.214 -0.4281  0.0322  0.2364
  461MOL0     C62156   6.054   4.649  10.280 -0.3876  0.8407 -0.1283
  461MOL0     C62157   5.933   4.651  10.229  0.3542 -0.3001 -0.2799
  461MOL0     O62158   5.838   4.574  10.293  0.1380  0.0702 -0.4296
  461MOL0     C62159   5.695   4.591  10.262  0.9198  0.0068 -0.5813
  461MOL0     C62160   5.646   4.511  10.135  0.0142 -0.3406  0.5440
  461MOL0     C62161   5.494   4.547  10.118 -0.0816  0.2517 -0.6331
  461MOL0     C62162   5.475   4.680  10.028  0.2203  0.6356 -0.6270
  461MOL0     C62163   5.536   4.678   9.898  0.2806  0.7670 -0.7328
  461MOL0     C62164   5.584   4.667   9.787 -0.6379 -0.2972 -0.3524
  461MOL0     C62165   5.907   4.724  10.113  0.4279  0.2103  0.7609
  461MOL0     C62166   6.005   4.793  10.038  0.3765  0.2372 -0.6376
  461MOL0     C62167   5.962   4.879   9.917 -0.2146 -0.1402  0.4167
  461MOL0     H62168   6.478   4.896   9.915  1.3596 -0.8854  0.3302
  461MOL0     H62169   6.672   5.018   9.847  0.2634 -0.5405  0.8300
  461MOL0     H62170   6.912   5.025   9.964  0.3928  0.5941  3.1941
  461MOL0     H62171   6.852   5.120   9.824 -2.3951  2.3269  1.6451
  461MOL0     H62172   7.101   5.123   9.989  3.0719 -0.5319 -3.3966
  461MOL0     H62173   7.041   5.292   9.952  1.0623  1.3375 -1.1103
  461MOL0     H62174   7.124   5.288   9.744  1.9870 -0.3210  0.9756
  461MOL0     H62175   7.066   5.120   9.717 -1.7489  1.0791 -1.0274
  461MOL0     H62176   7.246   5.043   9.877  1.1397  0.3691  0.4624
  461MOL0     H62177   7.313   5.107   9.725  1.3114 -0.9806 -0.4247
  461MOL0     H62178   7.375   5.316   9.827  0.8442  0.8641  1.3296
  461MOL0     H62179   7.297   5.256   9.984  1.4122  2.5482 -0.3000
  461MOL0     H62180   7.442   5.050   9.971 -0.4478  0.7850  2.0354
  461MOL0     H62181   7.526   5.139   9.838  1.1589 -2.0839  0.2712
  461MOL0     H62182   7.494   5.234  10.133 -0.9962 -0.8431 -0.1530
  461MOL0     H62183   7.574   5.319   9.992  1.1399  0.1089 -0.7695
  461MOL0     H62184   7.643   5.051  10.131  2.4711 -0.6049  0.8243
  461MOL0     H62185   7.731   5.111   9.994  0.2867  1.1905 -1.4752
  461MOL0     H62186   7.937   5.145  10.115  1.1874  1.7995 -0.9784
  461MOL0     H62187   8.055   5.221  10.460  0.8620 -0.2488  0.4708
  461MOL0     H62188   8.116   5.207  10.293  0.9835  1.4074 -2.2564
  461MOL0     H62189   8.036   5.481  10.397  1.7133  1.9392 -3.0043
  461MOL0     H62190   8.172   5.390  10.482  2.2692 -1.4795 -1.0397
  461MOL0     H62191   8.157   5.446  10.181 -0.6106  0.5585 -0.4624
  461MOL0     H62192   8.279   5.355  10.270 -0.7748  0.3740 -0.5582
  461MOL0     H62193   8.240   5.660  10.271 -0.7692 -0.4305 -3.5966
  461MOL0     H62194   8.373   5.560  10.231 -1.7088 -0.3453 -2.0516
  461MOL0     H62195   8.539   5.504  10.562 -4.9769  0.8223  0.6051
  461MOL0     H62196   8.721   5.621  10.599  0.6616  0.3282 -1.4642
  461MOL0     H62197   8.995   6.004  10.330 -2.5487  0.6145  0.2527
  461MOL0     H62198   9.223   6.120  10.385  1.5892 -0.1838  2.4764
  461MOL0     H62199   9.397   6.431  10.504 -1.9704  0.8983  1.3306
  461MOL0     H62200   9.348   6.298  10.386 -1.6847  0.1634 -1.3776
  461MOL0     H62201   9.164   6.408  10.331 -0.8059 -0.1725 -0.2620
  461MOL0     H62202   9.161   6.499  10.487  1.6361  0.2742  1.0233
  461MOL0     H62203   9.339   6.641  10.433  0.1421 -0.4567  0.5616
  461MOL0     H62204   9.344   6.569  10.275  1.0985 -3.8218  1.9322
  461MOL0     H62205   9.075   6.668  10.386 -0.9963 -2.3606 -2.3888
  461MOL0     H62206   9.119   6.659  10.221 -0.3336  0.2487 -0.2521
  461MOL0     H62207   9.132   6.896  10.248  1.2081  1.7620 -0.0991
  461MOL0     H62208   9.292   6.834  10.252  0.7610  0.5296 -0.0804
  461MOL0     H62209   9.125   6.877  10.514  0.3718  1.6311  1.3966
  461MOL0     H62210   9.308   6.852  10.500  0.0431  4.5998  2.4223
  461MOL0     H62211   9.215   7.078  10.573 -1.5612  3.0101 -0.9872
  461MOL0     H62212   9.148   7.099  10.420  1.0591  0.0963 -0.1883
  461MOL0     H62213   9.442   7.042  10.489  0.1069  0.9480  0.2542
  461MOL0     H62214   9.381   7.118  10.329  0.3858  1.7042  0.8879
  461MOL0     H62215   9.067   6.250  10.756  1.2028 -2.4201  0.7166
  461MOL0     H62216   8.856   6.144  10.706  1.6355  1.3831  3.5274
  461MOL0     H62217   8.526   5.972  10.438 -4.7606 -0.6908 -0.6586
  461MOL0     H62218   8.354   5.840  10.372 -2.2789 -1.4496  1.7427
  461MOL0     H62219   6.690   5.207  10.231  2.7412 -1.4338 -0.9191
  461MOL0     H62220   6.456   5.093  10.288  0.5890  0.4857  0.6757
  461MOL0     H62221   6.245   4.732  10.267 -0.1294  2.8852 -0.4106
  461MOL0     H62222   6.078   4.586  10.366 -2.4697  1.2107  0.7728
  461MOL0     H62223   5.677   4.696  10.239 -0.6235 -0.4930 -1.8413
  461MOL0     H62224   5.644   4.569  10.356  0.1069 -0.6950 -1.1659
  461MOL0     H62225   5.666   4.404  10.148  2.4729 -0.1527 -0.9875
  461MOL0     H62226   5.701   4.532  10.043  0.0808 -1.3976  0.3239
  461MOL0     H62227   5.433   4.567  10.207 -1.6475  0.7851 -1.7801
  461MOL0     H62228   5.451   4.463  10.062  2.4053  0.0548 -2.4204
  461MOL0     H62229   5.369   4.702  10.012 -0.3600 -0.0339  1.8603
  461MOL0     H62230   5.504   4.763  10.092  1.2715 -1.4182  1.7434
  461MOL0     H62231   5.626   4.655   9.689  2.0591  0.5584  0.6033
  461MOL0     H62232   5.812   4.717  10.061  0.3271 -1.1700  1.1036
  461MOL0     H62233   5.856   4.857   9.905  0.2674 -1.9111 -1.2226
  461MOL0     H62234   5.986   4.984   9.933  0.6362 -0.1030 -0.9386
  461MOL0     H62235   6.015   4.841   9.829 -0.3527 -2.0723  1.1096
  462MOL0     O62236   6.470   3.258  11.407  0.3765 -0.0131 -0.0219
  462MOL0     C62237   6.357   3.306  11.437 -0.2177 -0.0849  0.1099
  462MOL0     O62238   6.267   3.261  11.533 -0.5452 -0.8246 -0.7617
  462MOL0     C62239   6.277   3.139  11.605 -0.4163 -0.7312  0.1816
  462MOL0     C62240   6.348   3.035  11.558 -1.1286  0.4670 -0.0548
  462MOL0     C62241   6.354   2.909  11.620  0.2517 -0.8961  1.3378
  462MOL0     C62242   6.301   2.901  11.746 -0.0729 -0.9593  0.0850
  462MOL0     O62243   6.316   2.779  11.808  0.0084 -0.2492  0.0471
  462MOL0     C62244   6.214   2.744  11.916 -0.3304 -0.3740  0.3182
  462MOL0     C62245   6.226   2.599  11.967 -0.0082 -0.7201  0.7928
  462MOL0     C62246   6.364   2.577  12.033  0.6841 -0.6122  0.3702
  462MOL0     C62247   6.376   2.433  12.094  0.4450  0.0163  0.4956
  462MOL0     C62248   6.391   2.326  11.980  0.4567  0.3576 -0.2173
  462MOL0     C62249   6.404   2.193  12.040  0.4405 -0.6852 -0.1791
  462MOL0     C62250   6.545   2.167  12.095 -0.1593  1.1018 -0.3581
  462MOL0     C62251   6.543   2.030  12.173 -0.3208  0.1787  0.2195
  462MOL0     N62252   6.646   2.028  12.275 -0.1744 -0.1185  0.2483
  462MOL0     C62253   6.641   2.074  12.404  0.6128 -0.6912 -1.2166
  462MOL0     C62254   6.752   2.048  12.472 -0.3092  0.5751  0.8280
  462MOL0     C62255   6.769   2.061  12.617 -0.0664  0.3894 -0.6538
  462MOL0     C62256   6.699   1.950  12.702 -0.2833 -0.4481 -0.0906
  462MOL0     C62257   6.732   1.967  12.853  0.0237  0.5939  0.0559
  462MOL0     C62258   6.697   1.842  12.922  0.6520 -0.0518 -0.8890
  462MOL0     O62259   6.791   1.739  12.900  0.6251  0.1516  1.1990
  462MOL0     C62260   6.911   1.719  12.966  0.5625 -0.8564 -0.3513
  462MOL0     C62261   6.959   1.585  12.958 -0.5179 -0.7367 -0.1676
  462MOL0     C62262   7.087   1.547  13.010 -1.0940 -0.3535  0.2064
  462MOL0     C62263   7.155   1.645  13.079 -0.0535 -0.3199  0.2276
  462MOL0     C62264   7.284   1.621  13.135 -1.4603  0.0942 -0.9409
  462MOL0     O62265   7.322   1.700  13.236 -0.2160  0.3018  0.1823
  462MOL0     C62266   7.457   1.711  13.254  0.4570  0.1132  0.7128
  462MOL0     C62267   7.531   1.788  13.166  0.5909  0.0775  0.3974
  462MOL0     C62268   7.666   1.811  13.187 -0.0789 -0.7634 -0.0639
  462MOL0     C62269   7.730   1.757  13.301  0.4613 -0.5788 -1.0087
  462MOL0     O62270   7.864   1.767  13.318  0.2786  0.8149 -0.4269
  462MOL0     C62271   7.936   1.688  13.416 -0.6535  0.1056  0.4495
  462MOL0     C62272   8.085   1.701  13.399 -0.3678  0.4847 -0.4423
  462MOL0     C62273   8.157   1.576  13.459  0.6517 -0.1174  1.4027
  462MOL0     C62274   8.305   1.604  13.485 -0.0741  0.4128 -0.1265
  462MOL0     C62275   8.385   1.484  13.541  0.8005 -0.2886  0.2977
  462MOL0     C62276   8.532   1.499  13.533 -0.0386  0.6969  0.2048
  462MOL0     C62277   8.587   1.625  13.596 -0.1043  0.0087  0.2836
  462MOL0     C62278   8.734   1.598  13.639  0.4125 -0.2924  0.9994
  462MOL0    Cl62279   8.828   1.599  13.478 -0.1545 -0.3568 -0.0999
  462MOL0     C62280   7.651   1.684  13.383  0.2208 -0.2486  0.2220
  462MOL0     C62281   7.515   1.658  13.368  0.1203 -0.3212 -0.3146
  462MOL0     O62282   7.351   1.522  13.091  0.4381 -0.2245  0.0713
  462MOL0     C62283   7.106   1.780  13.092 -0.1151  0.8185 -0.0148
  462MOL0     C62284   6.982   1.812  13.039  0.2109  0.4700  0.1828
  462MOL0     N62285   6.841   1.977  12.379  0.1982 -0.4797  0.2276
  462MOL0     N62286   6.772   1.970  12.271 -0.0931 -0.0644 -0.6125
  462MOL0     C62287   6.240   3.012  11.806 -0.1840 -1.1059 -0.3005
  462MOL0     C62288   6.219   3.126  11.733 -0.3473  0.7556  0.7569
  462MOL0     C62289   6.311   3.415  11.347  1.4834  0.3174 -0.0414
  462MOL0     C62290   6.174   3.439  11.365  0.7480  0.2929  0.5829
  462MOL0     C62291   6.119   3.542  11.303 -0.0470 -0.0331 -0.3093
  462MOL0     C62292   6.187   3.635  11.224  0.2632  0.5200 -0.1570
  462MOL0     O62293   6.135   3.747  11.166 -0.0771 -0.3286  0.1429
  462MOL0     C62294   6.045   3.717  11.064  0.6523 -0.4845 -0.4013
  462MOL0     C62295   5.914   3.776  11.114  0.5677 -0.2734  0.0169
  462MOL0     C62296   5.807   3.786  11.009 -0.3304 -0.3535  0.2055
  462MOL0     C62297   5.657   3.792  11.066  0.1258 -0.0131 -0.3053
  462MOL0     C62298   5.639   3.919  11.147  0.1132  0.0943 -0.3279
  462MOL0     C62299   5.624   4.021  11.216  0.2484  0.5917  0.0760
  462MOL0     C62300   6.326   3.628  11.233  0.6103  0.5595 -0.6717
  462MOL0     C62301   6.394   3.517  11.290  0.6086  0.1728 -0.0038
  462MOL0     C62302   6.545   3.501  11.301  0.4646 -0.4806 -0.4724
  462MOL0     H62303   6.391   3.041  11.459  2.7734 -0.9819  1.3857
  462MOL0     H62304   6.412   2.832  11.569  1.3702  1.1908 -0.7531
  462MOL0     H62305   6.215   2.811  12.003 -2.7737 -2.2851  1.9489
  462MOL0     H62306   6.116   2.743  11.870 -0.3839  0.3146  0.4067
  462MOL0     H62307   6.215   2.527  11.886  2.8419  0.0195 -0.3565
  462MOL0     H62308   6.154   2.590  12.050  0.4786  0.8405  1.4316
  462MOL0     H62309   6.379   2.654  12.110 -1.0574  1.6819 -1.4723
  462MOL0     H62310   6.454   2.593  11.973  2.9294 -0.7653  3.4346
  462MOL0     H62311   6.463   2.416  12.157  0.8311 -4.9621 -0.9312
  462MOL0     H62312   6.286   2.408  12.151 -0.7107  2.1854 -0.2701
  462MOL0     H62313   6.301   2.330  11.917 -0.9817 -1.5135  1.5736
  462MOL0     H62314   6.475   2.341  11.912 -1.5541  0.8267 -2.7678
  462MOL0     H62315   6.333   2.186  12.124  0.4919  2.0137  0.1813
  462MOL0     H62316   6.377   2.120  11.964  0.5389 -1.0624  0.1474
  462MOL0     H62317   6.582   2.242  12.165 -0.8164  0.1103  1.0960
  462MOL0     H62318   6.610   2.152  12.009  1.1646 -1.4720  0.9895
  462MOL0     H62319   6.445   2.009  12.217 -1.3541 -0.1531 -2.1017
  462MOL0     H62320   6.562   1.943  12.110 -0.3688  1.1523 -1.1890
  462MOL0     H62321   6.548   2.103  12.450  2.6818  0.4556  2.6858
  462MOL0     H62322   6.877   2.063  12.636 -0.3206 -0.3892  0.9606
  462MOL0     H62323   6.725   2.160  12.635 -1.9996 -0.3642 -1.0242
  462MOL0     H62324   6.591   1.952  12.680 -0.0501  1.0688 -1.2854
  462MOL0     H62325   6.737   1.852  12.675  1.2967 -0.8171  2.9849
  462MOL0     H62326   6.677   2.052  12.894 -3.7115 -1.3997 -0.3446
  462MOL0     H62327   6.840   1.984  12.862  0.2198 -1.1249  1.7671
  462MOL0     H62328   6.605   1.797  12.884  2.1363 -1.4729 -3.0570
  462MOL0     H62329   6.677   1.847  13.029 -1.1272  1.7988 -1.2570
  462MOL0     H62330   6.892   1.520  12.904  1.0336 -0.1783 -2.9945
  462MOL0     H62331   7.130   1.451  12.982 -0.8961  0.2815 -1.8561
  462MOL0     H62332   7.476   1.839  13.087 -0.5914 -1.6024  0.0780
  462MOL0     H62333   7.729   1.874  13.124  2.9061  0.3132  3.5977
  462MOL0     H62334   7.906   1.735  13.511 -1.3597  0.3287  0.1245
  462MOL0     H62335   7.909   1.582  13.413 -0.2602  0.0151 -2.2357
  462MOL0     H62336   8.118   1.720  13.297  0.1180 -0.9067 -0.5672
  462MOL0     H62337   8.114   1.797  13.443 -1.8375  1.5231 -1.6393
  462MOL0     H62338   8.105   1.558  13.554 -1.0955  2.1503  0.9857
  462MOL0     H62339   8.149   1.489  13.394 -0.5068  1.4386 -0.6844
  462MOL0     H62340   8.319   1.686  13.556 -1.4679  1.1859 -0.7059
  462MOL0     H62341   8.353   1.637  13.392  1.5039 -0.9883  0.1529
  462MOL0     H62342   8.354   1.394  13.486  1.0148 -0.4469  0.4368
  462MOL0     H62343   8.364   1.467  13.647  1.9931 -0.2031  0.5549
  462MOL0     H62344   8.575   1.405  13.570 -1.9543 -1.1168 -1.8409
  462MOL0     H62345   8.561   1.493  13.427 -0.3271  1.0001  0.1078
  462MOL0     H62346   8.530   1.649  13.687  1.0713  0.5693  0.9017
  462MOL0     H62347   8.594   1.714  13.533  4.1372 -0.6067 -0.4042
  462MOL0     H62348   8.777   1.680  13.696  0.1513  0.4854  0.0931
  462MOL0     H62349   8.758   1.508  13.697  2.2041  0.6580  1.7925
  462MOL0     H62350   7.689   1.641  13.475 -0.1406 -1.3939 -0.1524
  462MOL0     H62351   7.461   1.591  13.434 -3.1304  4.5565  2.6479
  462MOL0     H62352   7.137   1.870  13.144 -2.4077  1.5688  0.1693
  462MOL0     H62353   6.943   1.913  13.052 -1.4319 -0.2076  0.8284
  462MOL0     H62354   6.206   3.014  11.909  2.0777  2.3829  0.5426
  462MOL0     H62355   6.163   3.208  11.776 -1.6514  1.4573 -2.0613
  462MOL0     H62356   6.106   3.373  11.417 -0.7938  2.5588  1.5588
  462MOL0     H62357   6.019   3.575  11.330  0.0616 -0.4469  0.6317
  462MOL0     H62358   6.038   3.611  11.041  0.7503 -0.4742 -0.4814
  462MOL0     H62359   6.082   3.764  10.972  3.2287  1.5325  1.5049
  462MOL0     H62360   5.940   3.877  11.148  3.6467 -0.0039 -2.6537
  462MOL0     H62361   5.875   3.721  11.200  0.3999 -1.3255 -0.7129
  462MOL0     H62362   5.800   3.687  10.962  0.7926 -0.2490 -0.2224
  462MOL0     H62363   5.828   3.863  10.935 -0.4522  2.0865  2.5832
  462MOL0     H62364   5.584   3.787  10.985  3.1949 -0.9901 -3.2535
  462MOL0     H62365   5.646   3.707  11.133  1.0290  1.1979  1.4479
  462MOL0     H62366   5.610   4.107  11.279 -0.5160  1.0634 -0.7250
  462MOL0     H62367   6.376   3.708  11.179 -0.1221  0.6913 -1.1630
  462MOL0     H62368   6.595   3.577  11.241  0.4322  0.6330  0.8671
  462MOL0     H62369   6.575   3.520  11.404 -0.9009 -3.3502  0.5555
  462MOL0     H62370   6.580   3.402  11.270  1.4107 -0.9077  1.7651
  463MOL0     O62371   3.460   2.540   5.516  0.1789 -0.5737 -0.6625
  463MOL0     C62372   3.546   2.608   5.455  0.0125  0.4782  0.2838
  463MOL0     O62373   3.521   2.688   5.349  0.5813  0.1683  0.8511
  463MOL0     C62374   3.396   2.723   5.323 -0.1161 -0.5240  0.9224
  463MOL0     C62375   3.296   2.631   5.288  0.1425  0.1736 -0.8215
  463MOL0     C62376   3.176   2.687   5.253  0.9108  0.3385 -0.1025
  463MOL0     C62377   3.147   2.823   5.260 -0.1592  0.6274 -0.0087
  463MOL0     O62378   3.024   2.865   5.236  1.0150 -0.1684  0.8595
  463MOL0     C62379   2.923   2.769   5.266  0.3638  0.7946 -1.0964
  463MOL0     C62380   2.791   2.847   5.303 -0.1730  0.1265 -0.9124
  463MOL0     C62381   2.679   2.765   5.352 -0.0553 -0.1852  0.7202
  463MOL0     C62382   2.550   2.831   5.406 -0.0532  0.1871 -0.4234
  463MOL0     C62383   2.467   2.911   5.308  0.2467  0.2808 -0.1431
  463MOL0     C62384   2.359   2.996   5.383  0.4881  0.2509  0.7515
  463MOL0     C62385   2.236   3.026   5.283 -0.6928  0.8414 -0.4171
  463MOL0     C62386   2.277   3.096   5.155  0.0240 -0.1659  0.5307
  463MOL0     N62387   2.349   3.222   5.179 -1.0145  1.0651  0.9088
  463MOL0     C62388   2.452   3.264   5.095 -1.2671 -0.8773 -0.1114
  463MOL0     C62389   2.477   3.397   5.121  1.6946  0.7524  0.0027
  463MOL0     C62390   2.585   3.496   5.078 -0.4634  0.8370 -0.1063
  463MOL0     C62391   2.622   3.578   5.200 -0.8768  0.0837  1.1642
  463MOL0     C62392   2.737   3.672   5.170 -1.0674 -0.4242 -0.2309
  463MOL0     C62393   2.806   3.739   5.289 -0.3360 -0.7095 -0.1250
  463MOL0     O62394   2.843   3.620   5.362  0.2296  1.1307 -0.4786
  463MOL0     C62395   2.956   3.619   5.435 -0.4995 -0.4383  0.1816
  463MOL0     C62396   3.006   3.723   5.510  0.2678 -0.5825 -1.3891
  463MOL0     C62397   3.106   3.713   5.604 -0.2231  1.3124 -1.0564
  463MOL0     C62398   3.158   3.584   5.631 -0.1087  0.5257 -0.3679
  463MOL0     C62399   3.261   3.570   5.746  0.3119  0.6708  0.2682
  463MOL0     O62400   3.356   3.485   5.735 -0.1504  0.7860  0.6475
  463MOL0     C62401   3.445   3.471   5.842  0.1017 -0.5661 -0.1135
  463MOL0     C62402   3.567   3.536   5.824  0.6134 -0.2161  0.7567
  463MOL0     C62403   3.660   3.530   5.930 -0.1862  0.0190  0.1151
  463MOL0     C62404   3.640   3.462   6.050  0.0528  0.1252 -0.4128
  463MOL0     O62405   3.734   3.451   6.150  0.4038 -0.4313 -0.3157
  463MOL0     C62406   3.864   3.516   6.123 -0.3861  0.0500  0.1891
  463MOL0     C62407   3.951   3.527   6.253 -0.7102  0.6644 -0.7604
  463MOL0     C62408   4.092   3.458   6.242 -0.4442  0.0859 -0.3338
  463MOL0     C62409   4.190   3.497   6.348 -0.0673 -0.3976  0.6977
  463MOL0     C62410   4.324   3.422   6.361 -0.5388  0.7772 -0.3338
  463MOL0     C62411   4.420   3.444   6.242  0.5589  0.4050  1.0380
  463MOL0     C62412   4.560   3.421   6.291  0.3036  0.1668  0.4580
  463MOL0     C62413   4.650   3.431   6.172  0.2516 -0.5929 -0.0936
  463MOL0    Cl62414   4.656   3.607   6.130 -0.4541  0.4136  0.1323
  463MOL0     C62415   3.514   3.399   6.069  0.4602  0.3509  0.0741
  463MOL0     C62416   3.411   3.409   5.965 -1.1562 -0.4093  0.0956
  463MOL0     O62417   3.249   3.641   5.846  0.4530 -0.7930  0.1172
  463MOL0     C62418   3.111   3.472   5.550  0.4901 -1.2014  0.2978
  463MOL0     C62419   3.015   3.498   5.448 -0.3452  0.8942  0.6053
  463MOL0     N62420   2.385   3.433   5.221  0.0070 -0.0717 -0.0796
  463MOL0     N62421   2.313   3.334   5.248  0.5159  0.4793 -0.0788
  463MOL0     C62422   3.236   2.907   5.315 -0.1165 -0.4284 -1.7969
  463MOL0     C62423   3.360   2.857   5.359  0.3385 -0.3032 -0.6571
  463MOL0     C62424   3.679   2.588   5.490 -0.8044  0.7395 -0.4003
  463MOL0     C62425   3.727   2.467   5.442 -0.4156 -0.5813 -0.4713
  463MOL0     C62426   3.855   2.432   5.469  0.4384 -0.6939 -0.8213
  463MOL0     C62427   3.929   2.512   5.557 -0.1623  0.3356  0.1360
  463MOL0     O62428   4.049   2.461   5.589 -0.0969  0.5407  1.0895
  463MOL0     C62429   4.143   2.540   5.667  0.2893  0.1552 -0.3433
  463MOL0     C62430   4.286   2.505   5.674 -0.5191 -0.0269 -0.3828
  463MOL0     C62431   4.341   2.480   5.536 -0.1487 -0.0550  0.4806
  463MOL0     C62432   4.310   2.593   5.434 -0.1104 -0.1414 -1.1035
  463MOL0     C62433   4.343   2.730   5.484 -0.2558  0.0101  1.4842
  463MOL0     C62434   4.354   2.848   5.521 -0.2713  1.7435  0.1538
  463MOL0     C62435   3.883   2.639   5.591 -0.2715  0.0732 -0.1356
  463MOL0     C62436   3.757   2.679   5.559  0.1073  0.2726 -0.4017
  463MOL0     C62437   3.710   2.815   5.603 -0.1717 -0.1688 -0.5657
  463MOL0     H62438   3.317   2.527   5.268  2.6288  0.1067  1.5749
  463MOL0     H62439   3.102   2.621   5.209 -0.9983  1.1911  1.6493
  463MOL0     H62440   2.905   2.696   5.186  0.6397 -2.1668  1.3933
  463MOL0     H62441   2.952   2.706   5.350  2.9332  3.4795  0.2048
  463MOL0     H62442   2.759   2.893   5.209 -0.4438  3.2147  0.5739
  463MOL0     H62443   2.819   2.931   5.367  2.3031 -1.4953  0.3012
  463MOL0     H62444   2.719   2.712   5.439  0.4312 -0.9897  0.0175
  463MOL0     H62445   2.666   2.692   5.272 -0.1231  0.3551  0.2349
  463MOL0     H62446   2.498   2.741   5.439 -1.2147  1.5683  1.7335
  463MOL0     H62447   2.577   2.883   5.498  2.7331 -1.4794 -0.1791
  463MOL0     H62448   2.542   2.973   5.258  0.3208  3.4381  3.4178
  463MOL0     H62449   2.430   2.837   5.236  3.9754  0.1084 -2.1193
  463MOL0     H62450   2.314   2.941   5.465  2.0263 -1.4484  0.5145
  463MOL0     H62451   2.397   3.091   5.424 -0.3870  2.1727 -2.4849
  463MOL0     H62452   2.183   3.098   5.346  1.9335  3.7318 -1.2350
  463MOL0     H62453   2.177   2.937   5.258 -1.7328  2.1410 -2.9676
  463MOL0     H62454   2.345   3.029   5.102  0.8654 -0.3896  1.8528
  463MOL0     H62455   2.188   3.119   5.095 -0.2488 -1.3388  0.4758
  463MOL0     H62456   2.510   3.213   5.020 -2.4479  0.1454 -1.7794
  463MOL0     H62457   2.672   3.437   5.047 -0.5331  1.1587 -0.9393
  463MOL0     H62458   2.550   3.558   4.995 -0.6855  0.3554 -0.3762
  463MOL0     H62459   2.538   3.644   5.225 -0.8116  0.7524 -0.2765
  463MOL0     H62460   2.639   3.515   5.288  0.6289 -1.4129 -0.1226
  463MOL0     H62461   2.686   3.747   5.110 -1.1519  1.0049  1.5646
  463MOL0     H62462   2.812   3.623   5.106 -0.1599  1.4731 -0.6917
  463MOL0     H62463   2.746   3.805   5.352  2.5384  0.0513  2.0326
  463MOL0     H62464   2.889   3.803   5.258 -2.1448  2.7137  1.4613
  463MOL0     H62465   2.956   3.818   5.501 -0.8528 -1.1746 -1.5101
  463MOL0     H62466   3.141   3.794   5.668  1.9052 -1.8398  2.1639
  463MOL0     H62467   3.571   3.598   5.735  0.4037  0.3632  1.1489
  463MOL0     H62468   3.752   3.586   5.919 -0.1146 -0.0426  0.3752
  463MOL0     H62469   3.915   3.459   6.046 -0.3063  0.1425  0.1738
  463MOL0     H62470   3.850   3.618   6.086 -2.6386  0.3042  1.5210
  463MOL0     H62471   3.968   3.632   6.278  0.2973  0.2596  0.3373
  463MOL0     H62472   3.899   3.480   6.337  2.2728  2.0030  2.0512
  463MOL0     H62473   4.082   3.350   6.223 -3.5156 -0.1823  2.0504
  463MOL0     H62474   4.126   3.503   6.148 -0.4675 -0.7345 -0.7443
  463MOL0     H62475   4.125   3.491   6.437 -3.4397  0.5898 -1.5029
  463MOL0     H62476   4.208   3.605   6.342 -1.3727 -0.1547  0.7429
  463MOL0     H62477   4.311   3.314   6.365 -1.7509  0.8738 -1.0282
  463MOL0     H62478   4.365   3.452   6.457 -1.8073 -2.2878  1.2934
  463MOL0     H62479   4.388   3.376   6.162 -1.3808  0.3197  1.8222
  463MOL0     H62480   4.418   3.547   6.205  2.1298  0.1042  0.0108
  463MOL0     H62481   4.559   3.331   6.353  0.2999  1.2709  2.1301
  463MOL0     H62482   4.587   3.494   6.368 -2.9136  0.0003  1.9113
  463MOL0     H62483   4.746   3.391   6.206  0.4513  0.2964  0.4409
  463MOL0     H62484   4.612   3.373   6.087 -2.2395  0.7318  0.0026
  463MOL0     H62485   3.491   3.364   6.169 -3.3625  1.5450 -0.2010
  463MOL0     H62486   3.318   3.357   5.989 -2.2396  2.5364  3.0443
  463MOL0     H62487   3.146   3.370   5.562  1.4792 -0.9848 -0.6622
  463MOL0     H62488   2.989   3.408   5.392  0.8449  2.6645 -3.1427
  463MOL0     H62489   3.206   3.011   5.319 -0.0321 -0.4458  0.9927
  463MOL0     H62490   3.434   2.927   5.395 -1.5970  2.2370 -1.3405
  463MOL0     H62491   3.676   2.408   5.366  2.3541  0.1626 -3.0893
  463MOL0     H62492   3.899   2.343   5.426 -1.8923 -0.8141 -3.2327
  463MOL0     H62493   4.108   2.550   5.770  2.2840 -0.0905  0.3973
  463MOL0     H62494   4.137   2.644   5.633  3.4739 -0.1543 -2.2065
  463MOL0     H62495   4.289   2.416   5.737 -1.2721 -1.6196 -2.4864
  463MOL0     H62496   4.338   2.590   5.719 -0.3451 -0.2895 -0.0835
  463MOL0     H62497   4.287   2.392   5.499  0.5243 -0.7760  1.1714
  463MOL0     H62498   4.449   2.464   5.542  0.1595  1.6059 -0.2945
  463MOL0     H62499   4.379   2.563   5.355 -0.5712 -2.3518 -0.7337
  463MOL0     H62500   4.212   2.588   5.385  0.2561 -0.6232 -1.8053
  463MOL0     H62501   4.359   2.955   5.533 -1.5741  1.4966  4.0350
  463MOL0     H62502   3.947   2.716   5.632  1.0652 -0.3755 -1.2993
  463MOL0     H62503   3.631   2.797   5.677 -0.4204 -1.0132 -1.0084
  463MOL0     H62504   3.789   2.865   5.658  0.6346 -0.4647 -1.4309
  463MOL0     H62505   3.687   2.877   5.516  2.3782 -0.5686 -1.6162
  464MOL0     O62506   0.303   2.672   5.518  0.1350  0.6226  0.5165
  464MOL0     C62507   0.334   2.758   5.604 -0.6179  0.0594  0.5472
  464MOL0     O62508   0.262   2.792   5.711  0.0995 -0.2552 -0.1584
  464MOL0     C62509   0.176   2.705   5.762  0.1056 -1.1502 -0.3827
  464MOL0     C62510   0.218   2.582   5.813 -0.7712 -0.9650  0.2071
  464MOL0     C62511   0.133   2.492   5.871 -0.7722 -0.8060 -0.5308
  464MOL0     C62512  -0.002   2.517   5.889  0.5932 -0.6101  0.4910
  464MOL0     O62513  -0.082   2.431   5.957  0.3001  0.6865 -0.2509
  464MOL0     C62514  -0.106   2.466   6.093 -0.0056  0.7802  0.2090
  464MOL0     C62515  -0.110   2.334   6.175 -0.8625  0.3778  0.2305
  464MOL0     C62516  -0.146   2.344   6.321  0.5529 -0.2850  0.7916
  464MOL0     C62517  -0.266   2.444   6.337  0.1255  0.4282  0.2818
  464MOL0     C62518  -0.397   2.410   6.258 -0.5785 -0.2003 -0.0811
  464MOL0     C62519  -0.509   2.512   6.272  0.1170 -0.1910 -1.2485
  464MOL0     C62520  -0.512   2.599   6.397 -0.6728 -0.1974 -0.1821
  464MOL0     C62521  -0.627   2.695   6.410 -0.6677  1.5124  0.2677
  464MOL0     N62522  -0.594   2.807   6.320 -0.2015 -0.4613 -0.7753
  464MOL0     C62523  -0.546   2.923   6.373 -0.0856 -0.0458 -0.8914
  464MOL0     C62524  -0.571   3.021   6.283 -0.1730  0.6101  1.0155
  464MOL0     C62525  -0.569   3.170   6.306  0.7347  0.6233 -0.4840
  464MOL0     C62526  -0.575   3.254   6.177  0.1725  0.6138  0.2356
  464MOL0     C62527  -0.455   3.220   6.076  0.1785  0.2907 -0.3670
  464MOL0     C62528  -0.444   3.315   5.959 -0.8799 -0.3015  1.1635
  464MOL0     O62529  -0.367   3.429   6.002  0.6216 -0.4782 -0.1495
  464MOL0     C62530  -0.234   3.408   6.012  0.9157  0.0275  0.7341
  464MOL0     C62531  -0.159   3.301   5.958  0.4681  0.6538  0.2542
  464MOL0     C62532  -0.014   3.289   5.987  0.9093 -0.1554  0.1281
  464MOL0     C62533   0.047   3.384   6.074 -0.3201 -0.6396 -0.8764
  464MOL0     C62534   0.187   3.368   6.106 -0.5039 -0.2904 -0.5361
  464MOL0     O62535   0.250   3.263   6.055  0.0477  0.5887 -0.5015
  464MOL0     C62536   0.389   3.253   6.049  0.0903  0.1384 -1.0304
  464MOL0     C62537   0.461   3.297   5.936 -0.8877 -0.4046 -0.7564
  464MOL0     C62538   0.601   3.284   5.925 -0.1088 -0.0711  0.8292
  464MOL0     C62539   0.684   3.224   6.027 -0.0193  0.0919  0.4557
  464MOL0     O62540   0.812   3.224   6.000 -0.3883 -0.0806 -0.6024
  464MOL0     C62541   0.912   3.168   6.098  0.1067  0.7807  0.2665
  464MOL0     C62542   1.048   3.209   6.046 -0.3725  0.3991 -0.0232
  464MOL0     C62543   1.159   3.104   6.068 -0.3867  0.3636  0.4829
  464MOL0     C62544   1.297   3.159   6.019 -0.7612 -0.2237 -0.0570
  464MOL0     C62545   1.414   3.066   6.059 -0.3214 -0.8256 -0.4976
  464MOL0     C62546   1.533   3.098   5.974 -0.0856  0.5137 -0.4282
  464MOL0     C62547   1.649   3.025   6.051 -0.7545 -0.3214  0.2005
  464MOL0     C62548   1.727   3.118   6.154  1.3761 -0.8889  0.2464
  464MOL0    Cl62549   1.628   3.142   6.302 -0.4794  0.2031 -0.1962
  464MOL0     C62550   0.601   3.188   6.144  0.2587 -0.0422  0.2023
  464MOL0     C62551   0.462   3.196   6.151 -0.5483  0.1404  0.3190
  464MOL0     O62552   0.238   3.450   6.184 -0.8205 -0.0947  0.2981
  464MOL0     C62553  -0.031   3.487   6.124  0.6099  0.0146 -0.5742
  464MOL0     C62554  -0.171   3.506   6.089 -0.2806 -0.2840 -0.5506
  464MOL0     N62555  -0.640   2.955   6.173 -0.9007  0.7049 -0.3199
  464MOL0     N62556  -0.658   2.831   6.202 -0.4672 -0.3676 -0.2353
  464MOL0     C62557  -0.049   2.642   5.847 -0.2046  0.3234 -0.3311
  464MOL0     C62558   0.037   2.736   5.780 -0.9615  0.1270 -0.0236
  464MOL0     C62559   0.479   2.813   5.584 -0.6967 -0.5700 -0.3906
  464MOL0     C62560   0.576   2.740   5.509  0.3673 -0.6640  0.0153
  464MOL0     C62561   0.700   2.784   5.492  0.2245  0.2199  0.4989
  464MOL0     C62562   0.748   2.886   5.571  0.0647 -0.5704  0.0994
  464MOL0     O62563   0.878   2.907   5.558  0.2735 -0.3520 -0.1842
  464MOL0     C62564   0.947   2.993   5.651 -0.1009 -0.6651 -0.2898
  464MOL0     C62565   1.094   3.017   5.612 -0.3870 -0.5317  0.7651
  464MOL0     C62566   1.123   3.063   5.455  0.0668 -0.1517  0.2280
  464MOL0     C62567   1.265   3.115   5.445  0.5312 -0.4234  0.7019
  464MOL0     C62568   1.360   3.012   5.485  0.0734 -0.2341  0.4048
  464MOL0     C62569   1.440   2.919   5.511 -0.5428  0.1044 -0.6370
  464MOL0     C62570   0.658   2.968   5.645  0.0608  0.3480  0.0829
  464MOL0     C62571   0.524   2.927   5.647  0.0716 -0.1932  0.7256
  464MOL0     C62572   0.440   3.021   5.734 -0.6832  0.8522 -0.9721
  464MOL0     H62573   0.322   2.552   5.808 -0.5021  0.1474 -1.5566
  464MOL0     H62574   0.174   2.404   5.919  0.6655  0.0472 -0.1165
  464MOL0     H62575  -0.028   2.525   6.143  0.9202 -0.7098  0.6033
  464MOL0     H62576  -0.202   2.514   6.112 -0.2341 -0.4330  2.4491
  464MOL0     H62577  -0.013   2.286   6.157  0.4918  3.5661 -1.9786
  464MOL0     H62578  -0.181   2.265   6.130 -0.3157 -0.0039 -0.0626
  464MOL0     H62579  -0.054   2.390   6.358  2.7819 -0.2434 -4.0218
  464MOL0     H62580  -0.160   2.248   6.373  2.4085 -0.7177  0.5597
  464MOL0     H62581  -0.285   2.426   6.443  2.5206 -4.7936  0.1410
  464MOL0     H62582  -0.237   2.549   6.327 -2.6817  1.2263 -0.2403
  464MOL0     H62583  -0.371   2.396   6.153  4.3404  2.5291  0.4857
  464MOL0     H62584  -0.439   2.319   6.302  0.7484 -0.5538  0.5096
  464MOL0     H62585  -0.512   2.575   6.183 -3.4097  2.2200  0.3805
  464MOL0     H62586  -0.602   2.453   6.272  0.2478 -0.3979 -1.3264
  464MOL0     H62587  -0.426   2.667   6.394 -0.7466 -0.0516  0.8093
  464MOL0     H62588  -0.508   2.540   6.489  0.2257 -0.6028 -0.4723
  464MOL0     H62589  -0.713   2.645   6.365 -0.7368  1.2598  0.6784
  464MOL0     H62590  -0.651   2.719   6.514 -0.9299 -2.1516  1.1662
  464MOL0     H62591  -0.504   2.942   6.471  0.5170 -2.7667 -0.5242
  464MOL0     H62592  -0.650   3.201   6.372  1.6895  1.5142  0.3045
  464MOL0     H62593  -0.472   3.192   6.351  1.3768  0.3551 -1.6994
  464MOL0     H62594  -0.670   3.238   6.125  1.3847 -1.9441 -1.3557
  464MOL0     H62595  -0.580   3.363   6.191 -1.8094  1.0503 -2.9058
  464MOL0     H62596  -0.482   3.126   6.025  0.6935 -0.2255  0.2986
  464MOL0     H62597  -0.363   3.201   6.131 -1.1756 -5.1991  0.6954
  464MOL0     H62598  -0.541   3.351   5.923  0.9800 -0.1833 -4.7085
  464MOL0     H62599  -0.401   3.271   5.869 -1.0297 -1.8616  1.8187
  464MOL0     H62600  -0.208   3.221   5.904 -2.9239  2.6315  0.1035
  464MOL0     H62601   0.046   3.209   5.946 -0.1050 -2.1212  2.2506
  464MOL0     H62602   0.398   3.333   5.855 -1.9487  2.2299  1.0839
  464MOL0     H62603   0.651   3.315   5.834 -0.5298 -0.1587  0.5657
  464MOL0     H62604   0.903   3.200   6.202 -1.7713 -1.0051  0.7201
  464MOL0     H62605   0.918   3.059   6.094 -1.7981  0.6236  0.5683
  464MOL0     H62606   1.037   3.213   5.938  3.4688 -1.1398 -0.6360
  464MOL0     H62607   1.074   3.310   6.080 -2.4104  1.1934 -0.6811
  464MOL0     H62608   1.168   3.090   6.176 -1.1869  2.4199  0.8648
  464MOL0     H62609   1.126   3.012   6.020 -0.6026 -1.2525  3.5279
  464MOL0     H62610   1.301   3.254   6.074 -1.7372 -0.6343  0.7449
  464MOL0     H62611   1.288   3.164   5.910 -0.1066 -2.1347 -0.2351
  464MOL0     H62612   1.385   2.961   6.065  1.1295 -1.3071 -1.3313
  464MOL0     H62613   1.427   3.081   6.167  1.0128  0.3469 -0.7904
  464MOL0     H62614   1.516   3.065   5.871  0.8733  0.8896 -0.7150
  464MOL0     H62615   1.540   3.207   5.972 -3.6854  0.8734 -2.1701
  464MOL0     H62616   1.720   2.988   5.977 -1.3479 -0.5395 -0.2632
  464MOL0     H62617   1.604   2.935   6.093  1.2154 -0.9912  0.9568
  464MOL0     H62618   1.820   3.068   6.183  1.5697  0.6467  2.5127
  464MOL0     H62619   1.748   3.215   6.107  0.3787 -0.6245  0.3237
  464MOL0     H62620   0.651   3.150   6.232  1.1811 -0.4732 -0.4839
  464MOL0     H62621   0.418   3.162   6.244 -0.3808 -3.6956 -0.8226
  464MOL0     H62622   0.011   3.571   6.179  0.1724  0.0158 -0.2422
  464MOL0     H62623  -0.218   3.597   6.126 -1.1663 -1.4477  1.3589
  464MOL0     H62624  -0.146   2.669   5.887  0.1718 -2.1396  2.6008
  464MOL0     H62625   0.008   2.835   5.748  0.1244  0.1854 -0.9070
  464MOL0     H62626   0.546   2.642   5.472  1.6892 -0.9691 -0.2872
  464MOL0     H62627   0.771   2.731   5.429 -0.0118  0.2498  0.2065
  464MOL0     H62628   0.943   2.956   5.753  0.5494 -0.4824 -0.1969
  464MOL0     H62629   0.897   3.090   5.651  1.9877  0.4527 -0.4480
  464MOL0     H62630   1.144   2.921   5.632  0.0677  0.1698  3.2320
  464MOL0     H62631   1.133   3.099   5.672  2.4711  0.2850 -1.9058
  464MOL0     H62632   1.054   3.145   5.434  1.8669  1.2929 -0.3583
  464MOL0     H62633   1.103   2.985   5.381  0.0780  1.8674 -1.9972
  464MOL0     H62634   1.291   3.145   5.343  0.5000  3.3972  1.6416
  464MOL0     H62635   1.251   3.199   5.514 -0.9183 -1.1672  1.3440
  464MOL0     H62636   1.513   2.841   5.515 -0.1316  0.4632 -1.0875
  464MOL0     H62637   0.687   3.063   5.688  1.0436  1.4115 -2.7044
  464MOL0     H62638   0.489   3.119   5.732  1.1264  0.0513  0.5267
  464MOL0     H62639   0.339   3.037   5.695 -1.3864 -0.5962  0.1339
  464MOL0     H62640   0.435   2.984   5.837 -2.6210 -1.6017 -1.8499
  465MOL0     O62641   5.308   0.236   5.902 -0.2136 -0.1589  0.4823
  465MOL0     C62642   5.275   0.314   5.992 -1.3064  0.7520  0.6036
  465MOL0     O62643   5.199   0.428   5.964 -0.5201  0.4361 -0.5096
  465MOL0     C62644   5.186   0.474   5.836  0.0008  0.5014 -0.0676
  465MOL0     C62645   5.059   0.490   5.778 -0.0318  0.1686 -0.2270
  465MOL0     C62646   5.044   0.521   5.645 -1.7010  0.1868 -0.0878
  465MOL0     C62647   5.166   0.527   5.565 -0.2311 -0.1627 -0.2353
  465MOL0     O62648   5.168   0.551   5.423  0.1875  0.8398  0.6911
  465MOL0     C62649   5.057   0.497   5.358  0.4200  0.6618 -0.1157
  465MOL0     C62650   5.102   0.357   5.313 -0.8992  0.7980  0.4482
  465MOL0     C62651   4.996   0.299   5.218 -0.3573  0.0954 -0.8448
  465MOL0     C62652   5.042   0.171   5.161  0.5145  0.6789 -0.0043
  465MOL0     C62653   4.924   0.101   5.086 -0.2413 -0.8381  0.3649
  465MOL0     C62654   4.974  -0.014   4.998  0.1331  1.4236 -0.4564
  465MOL0     C62655   4.872  -0.111   4.953 -0.0670  1.0055  0.8639
  465MOL0     C62656   4.771  -0.044   4.858  0.6295 -0.0738  0.4379
  465MOL0     N62657   4.722  -0.147   4.757 -1.5436  1.1394 -0.1428
  465MOL0     C62658   4.782  -0.194   4.644  0.1715  0.2890  1.3615
  465MOL0     C62659   4.678  -0.251   4.580 -0.2098  0.1214 -0.9648
  465MOL0     C62660   4.685  -0.330   4.449 -0.2946  0.0222  0.2378
  465MOL0     C62661   4.674  -0.224   4.332  0.3522  0.8736  0.0251
  465MOL0     C62662   4.656  -0.300   4.194  0.8379 -0.6974  0.4635
  465MOL0     C62663   4.657  -0.192   4.081 -0.4429  0.7059 -0.6633
  465MOL0     O62664   4.788  -0.138   4.056  0.6789  1.1164 -0.3919
  465MOL0     C62665   4.788  -0.023   3.990 -0.6906  0.2300 -0.7020
  465MOL0     C62666   4.856  -0.005   3.875  0.2950  0.8756  0.8507
  465MOL0     C62667   4.854   0.117   3.811  0.4773 -0.2239 -0.4312
  465MOL0     C62668   4.799   0.239   3.871  0.3597  0.3342 -0.8072
  465MOL0     C62669   4.823   0.366   3.808  0.9323 -0.5379 -0.4473
  465MOL0     O62670   4.917   0.381   3.709  0.2432  0.5286 -0.8258
  465MOL0     C62671   4.933   0.496   3.637  0.5130 -0.1162  0.7071
  465MOL0     C62672   4.894   0.502   3.508  0.1597 -0.0503  0.5360
  465MOL0     C62673   4.920   0.619   3.430 -0.6027  0.1310 -0.7293
  465MOL0     C62674   4.982   0.735   3.479  0.2257 -0.8142  0.2155
  465MOL0     O62675   4.987   0.840   3.388  0.1656 -0.1539 -0.4404
  465MOL0     C62676   4.998   0.967   3.454 -0.5080 -0.2255  0.1228
  465MOL0     C62677   4.990   1.091   3.369  0.6892  0.3768  0.4092
  465MOL0     C62678   5.099   1.198   3.369 -0.8790  0.2085  0.3443
  465MOL0     C62679   5.232   1.172   3.305  0.1112 -0.0454 -0.3252
  465MOL0     C62680   5.343   1.286   3.301 -0.0758 -0.3302 -0.7919
  465MOL0     C62681   5.417   1.303   3.433  0.0972 -0.2205  1.0858
  465MOL0     C62682   5.562   1.327   3.421 -0.2019  0.3856 -0.5011
  465MOL0     C62683   5.630   1.189   3.399  0.3935  0.1937 -0.5840
  465MOL0    Cl62684   5.807   1.224   3.375  0.3443  0.0738  0.1442
  465MOL0     C62685   5.019   0.726   3.618  0.0842 -0.6142  0.2092
  465MOL0     C62686   4.997   0.607   3.691 -0.0178  0.8600 -0.5893
  465MOL0     O62687   4.772   0.458   3.876 -0.1307  0.5552 -0.1892
  465MOL0     C62688   4.733   0.214   3.989  0.4308  1.0332  1.0331
  465MOL0     C62689   4.720   0.086   4.048 -0.7577 -0.3847  0.3286
  465MOL0     N62690   4.561  -0.238   4.646  0.3160 -0.0886 -0.7587
  465MOL0     N62691   4.598  -0.186   4.753  0.5437 -0.1340 -0.8607
  465MOL0     C62692   5.294   0.513   5.621  0.6608 -0.5112 -0.5470
  465MOL0     C62693   5.302   0.489   5.761  0.0986 -1.0300  1.2324
  465MOL0     C62694   5.288   0.270   6.134 -0.6927  0.3226 -0.3748
  465MOL0     C62695   5.227   0.357   6.230  1.7539 -1.0523  0.0894
  465MOL0     C62696   5.228   0.318   6.366  0.0186 -0.0031 -0.9183
  465MOL0     C62697   5.285   0.201   6.409 -0.0417  0.0447 -0.5737
  465MOL0     O62698   5.286   0.164   6.543 -0.0852  0.2013 -0.3265
  465MOL0     C62699   5.381   0.231   6.625  0.7538 -1.0876 -1.3603
  465MOL0     C62700   5.290   0.331   6.709 -0.0785  1.1155  0.2360
  465MOL0     C62701   5.276   0.274   6.847  0.3385  0.6791 -0.3181
  465MOL0     C62702   5.207   0.367   6.953  0.2934  0.0644  0.5122
  465MOL0     C62703   5.222   0.304   7.088 -0.6793  0.2096  1.2679
  465MOL0     C62704   5.250   0.278   7.200  0.8190 -0.8001 -0.5030
  465MOL0     C62705   5.341   0.111   6.315  0.0396  0.0890  0.9055
  465MOL0     C62706   5.347   0.145   6.177 -0.5748  0.2648  0.7808
  465MOL0     C62707   5.417   0.037   6.088 -0.1892 -0.8760 -0.0795
  465MOL0     H62708   4.981   0.482   5.853 -0.9527  0.6013 -1.1111
  465MOL0     H62709   4.953   0.559   5.599 -0.9377  3.4064  0.8062
  465MOL0     H62710   4.958   0.497   5.405  1.3708 -0.8236  2.1092
  465MOL0     H62711   5.043   0.548   5.263 -1.8237  1.9414  0.8266
  465MOL0     H62712   5.100   0.283   5.393 -0.4487 -1.0588 -1.1841
  465MOL0     H62713   5.205   0.353   5.279 -1.1052 -1.4559 -0.0828
  465MOL0     H62714   4.999   0.366   5.132 -0.6582  1.8195  0.4283
  465MOL0     H62715   4.901   0.289   5.272  1.1555 -1.4721  1.7844
  465MOL0     H62716   5.129   0.192   5.098 -1.4573  0.2752 -3.0452
  465MOL0     H62717   5.069   0.099   5.238  0.2883  0.3740 -0.2086
  465MOL0     H62718   4.862   0.056   5.164 -1.8179 -1.6720 -1.3212
  465MOL0     H62719   4.867   0.176   5.031  0.3220  0.2445  1.1973
  465MOL0     H62720   5.039   0.020   4.917  0.9893 -2.8530 -1.8234
  465MOL0     H62721   5.033  -0.081   5.062 -0.0221  0.7842 -0.9735
  465MOL0     H62722   4.820  -0.163   5.033  3.0593 -1.1911  1.6325
  465MOL0     H62723   4.914  -0.190   4.890 -1.2870  0.1196  1.1211
  465MOL0     H62724   4.690  -0.003   4.920  0.6148  3.4213 -1.6390
  465MOL0     H62725   4.802   0.043   4.801  0.3365 -0.9446 -1.1131
  465MOL0     H62726   4.885  -0.188   4.608 -0.5941 -0.9675 -1.2312
  465MOL0     H62727   4.778  -0.386   4.435 -0.0050  0.9260 -1.8643
  465MOL0     H62728   4.605  -0.403   4.462 -1.6663  1.9027  3.3618
  465MOL0     H62729   4.589  -0.155   4.338  1.5603  2.3271  4.9176
  465MOL0     H62730   4.764  -0.166   4.311  3.2057 -3.1103  0.2096
  465MOL0     H62731   4.555  -0.341   4.208  1.4205 -1.7432  1.7053
  465MOL0     H62732   4.739  -0.369   4.183  2.1959  0.8854  0.4590
  465MOL0     H62733   4.581  -0.117   4.107 -1.7311 -0.2872 -1.4082
  465MOL0     H62734   4.635  -0.243   3.986 -0.4358  0.3719 -0.4881
  465MOL0     H62735   4.880  -0.094   3.817 -2.3072  0.9583 -0.5521
  465MOL0     H62736   4.899   0.132   3.713  0.7453  1.5626 -0.0578
  465MOL0     H62737   4.841   0.422   3.458  1.8490 -0.7585 -0.2231
  465MOL0     H62738   4.894   0.608   3.326  0.1867 -0.2782 -0.8943
  465MOL0     H62739   4.933   0.980   3.540 -0.0123  3.1443  0.1296
  465MOL0     H62740   5.100   0.960   3.495 -0.0684 -5.5127 -1.1567
  465MOL0     H62741   4.988   1.061   3.264  0.4277  3.5751 -0.5975
  465MOL0     H62742   4.890   1.129   3.393  1.2101  0.3141  2.9391
  465MOL0     H62743   5.077   1.289   3.313  2.8251  0.0031 -1.7141
  465MOL0     H62744   5.121   1.213   3.475 -0.2291 -3.1590  0.8206
  465MOL0     H62745   5.212   1.135   3.203 -0.7352 -1.8996  0.4585
  465MOL0     H62746   5.274   1.088   3.360  0.3416 -1.7419 -2.8903
  465MOL0     H62747   5.291   1.379   3.275 -0.2628 -1.0455 -3.1786
  465MOL0     H62748   5.406   1.254   3.218  0.5556 -1.9368  0.2478
  465MOL0     H62749   5.390   1.403   3.469 -0.7976 -0.4645  1.1307
  465MOL0     H62750   5.389   1.223   3.502  2.1054 -0.6771  1.4455
  465MOL0     H62751   5.614   1.365   3.509 -3.6640  1.2399  1.3421
  465MOL0     H62752   5.571   1.393   3.334 -0.8983  1.2135  0.0466
  465MOL0     H62753   5.610   1.131   3.490  2.6800  1.5102  0.8484
  465MOL0     H62754   5.589   1.149   3.306 -0.0625  1.5175 -0.9692
  465MOL0     H62755   5.067   0.812   3.664 -2.1826  1.1384 -0.5063
  465MOL0     H62756   5.032   0.586   3.791 -3.1013  1.1130  0.6506
  465MOL0     H62757   4.689   0.304   4.032 -0.4980  1.4747 -0.7639
  465MOL0     H62758   4.655   0.065   4.132 -0.2745  0.7916  1.0136
  465MOL0     H62759   5.382   0.518   5.558 -0.1602 -1.3919 -1.8320
  465MOL0     H62760   5.396   0.478   5.812  0.4764  1.2527  1.1426
  465MOL0     H62761   5.178   0.451   6.209  0.5814 -0.5936  4.0408
  465MOL0     H62762   5.178   0.385   6.435  0.2549 -1.2188  0.4716
  465MOL0     H62763   5.460   0.291   6.580  2.9305 -1.6733  1.3935
  465MOL0     H62764   5.424   0.160   6.696  1.7157 -0.0037 -0.8194
  465MOL0     H62765   5.196   0.344   6.654 -1.9683 -5.6336  1.0680
  465MOL0     H62766   5.333   0.431   6.723 -2.6055  2.3377 -0.0330
  465MOL0     H62767   5.376   0.244   6.880  0.8713  1.2127 -1.4029
  465MOL0     H62768   5.222   0.179   6.840  0.8887  0.3498 -0.2117
  465MOL0     H62769   5.246   0.469   6.958  0.0184  0.1196  1.9054
  465MOL0     H62770   5.103   0.378   6.922  0.7838  1.5854 -0.7297
  465MOL0     H62771   5.262   0.265   7.306 -0.4467 -2.0680 -0.4770
  465MOL0     H62772   5.369   0.009   6.339 -0.6524 -0.0604  1.0952
  465MOL0     H62773   5.511   0.071   6.044 -0.1372  0.1692  0.8007
  465MOL0     H62774   5.456  -0.043   6.152  0.3828 -1.2360 -0.8599
  465MOL0     H62775   5.357   0.003   6.003 -3.6619  0.3289  1.6845
  466MOL0     O62776   1.429   6.211   1.862 -0.7949  0.3021 -0.0510
  466MOL0     C62777   1.491   6.249   1.960  0.1320 -0.1277 -0.3270
  466MOL0     O62778   1.447   6.259   2.086 -1.0299  0.6456  0.6782
  466MOL0     C62779   1.327   6.212   2.129 -0.1084  0.1362  0.5090
  466MOL0     C62780   1.336   6.126   2.241  0.2412  1.1995  0.3788
  466MOL0     C62781   1.216   6.059   2.289 -0.7368 -0.2025  0.5918
  466MOL0     C62782   1.093   6.096   2.232  0.7479  0.2086  0.4233
  466MOL0     O62783   0.984   6.027   2.286  0.5579 -0.0631  0.2344
  466MOL0     C62784   0.856   6.025   2.233  0.7013  0.9812 -0.0682
  466MOL0     C62785   0.770   5.918   2.286 -0.0453 -0.2304  0.0821
  466MOL0     C62786   0.798   5.782   2.224 -0.6439 -0.8123 -0.2770
  466MOL0     C62787   0.688   5.674   2.240  0.1606 -0.2423  0.3728
  466MOL0     C62788   0.742   5.541   2.173  0.2248  0.0694 -0.2983
  466MOL0     C62789   0.657   5.404   2.199 -0.3276  0.6467  1.1875
  466MOL0     C62790   0.712   5.278   2.123 -0.1245  0.0961 -0.3323
  466MOL0     C62791   0.609   5.158   2.129  0.3647 -0.0539 -0.1768
  466MOL0     N62792   0.593   5.104   2.261 -0.3235 -0.1416 -0.2564
  466MOL0     C62793   0.473   5.100   2.324  0.2505 -0.0255  0.6254
  466MOL0     C62794   0.497   5.046   2.440  0.0607  0.4720  1.0789
  466MOL0     C62795   0.397   5.035   2.549 -0.0592 -0.4060 -0.1246
  466MOL0     C62796   0.391   4.897   2.619  0.2555 -0.6059 -0.6199
  466MOL0     C62797   0.264   4.900   2.700  0.0078  0.2537 -0.4021
  466MOL0     C62798   0.216   4.770   2.755  0.9952  0.5019  0.7932
  466MOL0     O62799   0.155   4.715   2.634 -0.1934 -0.2186  0.5985
  466MOL0     C62800   0.163   4.576   2.619 -0.1223 -0.2443  0.9496
  466MOL0     C62801   0.104   4.528   2.496  0.2859  0.1339  0.2382
  466MOL0     C62802   0.108   4.390   2.465 -0.3020  0.4480 -0.0348
  466MOL0     C62803   0.185   4.304   2.546  0.0212 -0.5021 -0.6135
  466MOL0     C62804   0.194   4.167   2.503 -1.0106  0.6221  0.1748
  466MOL0     O62805   0.199   4.071   2.604  0.3418  0.1566  0.9720
  466MOL0     C62806   0.193   3.935   2.561  0.2941 -0.1300  0.4694
  466MOL0     C62807   0.271   3.836   2.624 -0.1046  0.2453 -1.2887
  466MOL0     C62808   0.266   3.701   2.581 -0.9682 -0.2459 -0.0379
  466MOL0     C62809   0.183   3.655   2.488  0.7745 -0.3860  0.5344
  466MOL0     O62810   0.179   3.522   2.451 -0.2864  0.2995 -0.2458
  466MOL0     C62811   0.086   3.467   2.361 -0.6480  0.3988  1.0871
  466MOL0     C62812   0.048   3.324   2.393 -0.6616 -0.7984 -0.2729
  466MOL0     C62813   0.022   3.300   2.537  0.8991 -0.1618 -0.4172
  466MOL0     C62814  -0.012   3.147   2.564  0.7397  0.9951 -0.0670
  466MOL0     C62815  -0.020   3.092   2.707 -0.5085  0.2892 -0.0650
  466MOL0     C62816  -0.096   3.170   2.813  0.1978  0.5614 -0.4119
  466MOL0     C62817  -0.077   3.089   2.941  0.2619 -0.0818 -0.3587
  466MOL0     C62818  -0.123   3.176   3.067  0.5326  0.0212 -0.7711
  466MOL0    Cl62819  -0.017   3.094   3.189 -0.0900 -0.0323 -0.1911
  466MOL0     C62820   0.096   3.758   2.434  0.1237  0.2775  1.5458
  466MOL0     C62821   0.106   3.891   2.463  0.0313 -0.1697 -1.1537
  466MOL0     O62822   0.200   4.150   2.387  0.5043 -0.1999 -0.2827
  466MOL0     C62823   0.231   4.351   2.671  0.4424 -0.2070  0.2108
  466MOL0     C62824   0.229   4.487   2.706  0.2459  0.1422  0.3992
  466MOL0     N62825   0.630   5.045   2.464  0.1299 -0.4017  0.0237
  466MOL0     N62826   0.691   5.084   2.351 -0.0350  0.9010 -1.1419
  466MOL0     C62827   1.092   6.152   2.105 -0.8602 -0.9941 -0.4922
  466MOL0     C62828   1.210   6.229   2.059 -0.4791  0.3035 -1.4685
  466MOL0     C62829   1.636   6.269   1.941 -0.3562  0.3380  0.8886
  466MOL0     C62830   1.698   6.360   2.031  0.2660 -0.1148 -0.1375
  466MOL0     C62831   1.838   6.390   2.028  0.7647  0.2124 -0.5841
  466MOL0     C62832   1.920   6.336   1.933  0.3907  1.1101  0.5969
  466MOL0     O62833   2.050   6.371   1.946  0.3169 -0.5122  1.5001
  466MOL0     C62834   2.140   6.325   1.851 -0.6167 -0.2323 -0.1144
  466MOL0     C62835   2.271   6.396   1.881 -0.2594 -1.0419  0.5872
  466MOL0     C62836   2.263   6.548   1.865  0.5681  0.9371 -0.5051
  466MOL0     C62837   2.402   6.613   1.864  0.5115  0.2767 -0.2317
  466MOL0     C62838   2.381   6.753   1.891  0.5462  0.1059 -0.3259
  466MOL0     C62839   2.362   6.876   1.887  0.1209  0.3951  0.0768
  466MOL0     C62840   1.866   6.246   1.844 -0.0728  0.6861  0.1396
  466MOL0     C62841   1.725   6.219   1.837  0.4522  0.0289 -0.9503
  466MOL0     C62842   1.671   6.122   1.729 -0.4098 -0.4324  0.0580
  466MOL0     H62843   1.434   6.112   2.285  0.0053 -3.2657 -0.0244
  466MOL0     H62844   1.234   6.006   2.382  0.5840  1.4803  1.3433
  466MOL0     H62845   0.802   6.115   2.261  1.1912  1.4273 -0.5239
  466MOL0     H62846   0.867   6.017   2.124  4.4765  3.1959 -0.0162
  466MOL0     H62847   0.667   5.945   2.264  0.6592  1.3497 -1.6366
  466MOL0     H62848   0.788   5.912   2.394 -0.1994 -0.2032  0.1087
  466MOL0     H62849   0.891   5.746   2.268 -0.0653 -1.1509 -1.7279
  466MOL0     H62850   0.815   5.791   2.116  2.9224  2.1670  0.3477
  466MOL0     H62851   0.670   5.656   2.346  0.8449 -2.2127  0.1983
  466MOL0     H62852   0.610   5.723   2.180  1.2130  0.7106 -0.2715
  466MOL0     H62853   0.739   5.562   2.066 -2.8362 -1.1098 -0.5249
  466MOL0     H62854   0.846   5.528   2.205  0.5020  1.0389 -0.7458
  466MOL0     H62855   0.660   5.390   2.308 -0.5744  0.6249  1.1921
  466MOL0     H62856   0.556   5.423   2.160 -0.4564 -1.5549  0.3605
  466MOL0     H62857   0.809   5.241   2.156  0.5921 -0.0106 -2.4191
  466MOL0     H62858   0.738   5.306   2.020  1.6890  2.7246  0.7471
  466MOL0     H62859   0.509   5.188   2.097  1.3597  2.3962 -1.2425
  466MOL0     H62860   0.626   5.068   2.069 -1.5660 -1.9392  1.8877
  466MOL0     H62861   0.375   5.116   2.280  0.3087 -2.1537 -0.3905
  466MOL0     H62862   0.429   5.113   2.619  0.7746 -0.1158 -0.8128
  466MOL0     H62863   0.299   5.071   2.519 -0.3700 -0.7266  0.4828
  466MOL0     H62864   0.404   4.825   2.537  0.1001 -2.8400  1.2088
  466MOL0     H62865   0.477   4.892   2.686  1.3113  2.6984 -1.5370
  466MOL0     H62866   0.185   4.940   2.636  1.9608  1.1794 -2.3684
  466MOL0     H62867   0.272   4.960   2.791 -1.1653 -1.7949  1.1163
  466MOL0     H62868   0.152   4.775   2.844 -1.2004 -1.9806 -0.5267
  466MOL0     H62869   0.302   4.712   2.791 -1.1525 -4.0036 -0.5628
  466MOL0     H62870   0.039   4.582   2.429 -2.6564 -3.0105  0.2912
  466MOL0     H62871   0.056   4.347   2.380 -1.6557  1.6108  0.1671
  466MOL0     H62872   0.346   3.856   2.699  0.6130 -3.4627 -0.8201
  466MOL0     H62873   0.327   3.625   2.629 -2.4192 -2.8953 -2.1949
  466MOL0     H62874  -0.008   3.523   2.365  0.1777  2.1914 -1.5957
  466MOL0     H62875   0.126   3.481   2.260  1.2723 -1.7498  1.4684
  466MOL0     H62876  -0.032   3.294   2.326  0.4460 -0.2025 -1.9111
  466MOL0     H62877   0.138   3.266   2.368 -0.6750 -2.2953  2.5992
  466MOL0     H62878   0.113   3.319   2.593  1.5209 -0.5522 -1.2798
  466MOL0     H62879  -0.056   3.370   2.571  0.1942 -1.0787 -0.0908
  466MOL0     H62880   0.052   3.078   2.509 -1.0763 -0.1396 -0.8598
  466MOL0     H62881  -0.109   3.139   2.513  1.0773  0.1177 -0.5896
  466MOL0     H62882   0.082   3.068   2.738 -1.4723 -2.7072  1.0584
  466MOL0     H62883  -0.054   2.989   2.700  2.3198 -0.8938  1.5711
  466MOL0     H62884  -0.057   3.272   2.821 -1.6609  1.5343 -2.6897
  466MOL0     H62885  -0.201   3.183   2.785  0.5800  2.3719 -1.1591
  466MOL0     H62886   0.031   3.077   2.959  0.4811  2.5202  0.5047
  466MOL0     H62887  -0.132   2.995   2.929  2.8011 -1.9554  1.4904
  466MOL0     H62888  -0.097   3.282   3.066 -0.2758  0.3394  2.2095
  466MOL0     H62889  -0.229   3.156   3.081  0.5325 -0.1320 -0.9876
  466MOL0     H62890   0.024   3.730   2.358  0.6284 -0.1905  1.2396
  466MOL0     H62891   0.047   3.970   2.417 -0.8707 -1.7475 -2.8576
  466MOL0     H62892   0.285   4.285   2.738 -0.2541  0.3970  1.4030
  466MOL0     H62893   0.271   4.519   2.800  2.2306 -1.3981  0.1070
  466MOL0     H62894   1.001   6.171   2.048  0.3046  4.3811 -1.0839
  466MOL0     H62895   1.204   6.268   1.957 -4.1594  0.9702 -1.1368
  466MOL0     H62896   1.630   6.398   2.106 -0.8788 -0.5809 -0.9071
  466MOL0     H62897   1.873   6.470   2.092  0.1336  0.3529 -0.4071
  466MOL0     H62898   2.109   6.346   1.748  0.1129 -0.1796 -0.3295
  466MOL0     H62899   2.147   6.217   1.865  0.8059  0.0850  2.1825
  466MOL0     H62900   2.348   6.359   1.812 -1.0776  1.1139 -1.6666
  466MOL0     H62901   2.304   6.362   1.979 -2.9160  3.1870  3.2299
  466MOL0     H62902   2.207   6.587   1.951  1.2381 -1.6238  1.2180
  466MOL0     H62903   2.202   6.576   1.778 -0.8362  1.0224  0.4663
  466MOL0     H62904   2.458   6.581   1.952  1.0590  3.3122  0.6249
  466MOL0     H62905   2.448   6.597   1.766  0.9357 -0.8104  0.1300
  466MOL0     H62906   2.354   6.982   1.877  1.8135  0.4168 -1.6655
  466MOL0     H62907   1.930   6.214   1.763  0.1268 -1.7509  1.1570
  466MOL0     H62908   1.589   6.057   1.760 -1.5975  1.5883  1.3323
  466MOL0     H62909   1.636   6.182   1.645  0.3688 -0.7328 -0.4941
  466MOL0     H62910   1.755   6.065   1.687 -0.3506 -0.5467  0.3301
  467MOL0     O62911   7.138   9.962   1.960  0.3439  1.0012 -0.7019
  467MOL0     C62912   7.025   9.903   1.974 -0.1227 -0.6754 -0.0152
  467MOL0     O62913   7.004   9.764   1.977 -1.1374  0.3082  0.1760
  467MOL0     C62914   7.110   9.687   2.019  0.9003 -0.2705 -0.7074
  467MOL0     C62915   7.218   9.660   1.936  0.0142  0.4739  0.2068
  467MOL0     C62916   7.320   9.588   1.979 -0.2078  0.4704  0.0103
  467MOL0     C62917   7.333   9.543   2.118 -0.4462 -0.1020 -0.9888
  467MOL0     O62918   7.432   9.463   2.175  0.6161 -0.3121 -0.8207
  467MOL0     C62919   7.517   9.401   2.087 -0.0724  0.2237 -1.0034
  467MOL0     C62920   7.601   9.315   2.177  0.8692 -0.3900  0.2150
  467MOL0     C62921   7.699   9.222   2.103  0.4550 -0.0240  0.0154
  467MOL0     C62922   7.793   9.304   2.016  0.6109  0.7082 -0.4736
  467MOL0     C62923   7.921   9.225   1.993 -0.1947  0.1380 -0.0552
  467MOL0     C62924   8.042   9.313   1.956  0.4489  0.4388  0.6982
  467MOL0     C62925   8.063   9.333   1.801 -0.2254  0.7141  0.1773
  467MOL0     C62926   7.940   9.393   1.731  0.4112 -0.1577  0.2951
  467MOL0     N62927   7.984   9.438   1.600 -0.7011 -1.0363  0.2150
  467MOL0     C62928   8.004   9.360   1.494 -0.2403  0.0833 -1.1929
  467MOL0     C62929   8.068   9.436   1.410  0.0279 -1.1706  0.8530
  467MOL0     C62930   8.112   9.403   1.271 -0.2343  0.7373 -0.0877
  467MOL0     C62931   8.250   9.466   1.231  0.7602  0.3591  0.3881
  467MOL0     C62932   8.272   9.444   1.089  0.2616 -0.0524  0.2093
  467MOL0     C62933   8.404   9.513   1.039 -0.0817 -0.1445 -0.0891
  467MOL0     O62934   8.422   9.650   1.074 -0.5966 -0.1972  0.2577
  467MOL0     C62935   8.536   9.673   1.138 -0.5176  0.0598 -0.6400
  467MOL0     C62936   8.638   9.744   1.086 -0.8397  0.2695  0.0676
  467MOL0     C62937   8.758   9.752   1.160  1.1076  0.9896  0.6452
  467MOL0     C62938   8.772   9.709   1.291 -0.8302  0.8378  0.3108
  467MOL0     C62939   8.894   9.758   1.363 -0.6320  0.1437 -0.7492
  467MOL0     O62940   8.954   9.872   1.317 -1.2630  0.7410  0.0865
  467MOL0     C62941   9.075   9.896   1.380 -0.5949  0.0384 -0.4245
  467MOL0     C62942   9.209   9.871   1.318 -0.5241  0.8796 -0.0750
  467MOL0     C62943   9.327   9.886   1.395  0.0606 -0.3562  0.2288
  467MOL0     C62944   9.315   9.934   1.531 -0.6545 -0.8036  0.6727
  467MOL0     O62945   9.425   9.962   1.616  0.6917  0.0961 -0.2034
  467MOL0     C62946   9.527   9.855   1.631  0.1329 -0.0419 -0.4689
  467MOL0     C62947   9.464   9.711   1.650  0.1665 -0.6361  0.4129
  467MOL0     C62948   9.391   9.678   1.786 -0.0021 -0.6828 -0.4020
  467MOL0     C62949   9.365   9.529   1.787  0.5521 -0.4671 -0.5410
  467MOL0     C62950   9.290   9.484   1.921  0.6913  0.4356 -0.5569
  467MOL0     C62951   9.172   9.383   1.900  0.1210 -0.9633  0.2328
  467MOL0     C62952   9.073   9.389   1.788  0.3013  0.0938 -0.4126
  467MOL0     C62953   8.966   9.282   1.805 -0.1815  0.3585 -0.6073
  467MOL0    Cl62954   8.863   9.322   1.952 -0.2278  0.1613 -0.4534
  467MOL0     C62955   9.192   9.962   1.582  0.7248 -1.4964 -0.8555
  467MOL0     C62956   9.074   9.937   1.509 -0.1812 -0.2566 -0.5548
  467MOL0     O62957   8.933   9.686   1.458 -0.5785  0.0717 -0.1661
  467MOL0     C62958   8.662   9.650   1.349  0.8823  0.2953  0.5029
  467MOL0     C62959   8.545   9.628   1.276  0.6694  0.8111 -0.6508
  467MOL0     N62960   8.071   9.569   1.448  0.1488  0.7694  0.0126
  467MOL0     N62961   8.021   9.567   1.571 -0.4971 -0.3774  0.0950
  467MOL0     C62962   7.229   9.584   2.208 -0.9572 -0.3059 -0.5488
  467MOL0     C62963   7.113   9.645   2.156 -0.4116 -0.1979  0.3997
  467MOL0     C62964   6.900   9.989   1.994 -1.0027  0.6587  0.9446
  467MOL0     C62965   6.772   9.933   2.016 -1.2631 -0.1889 -0.3606
  467MOL0     C62966   6.667  10.019   2.017 -0.4801 -0.0935  0.1931
  467MOL0     C62967   6.678  10.155   1.979  0.2869 -0.0606 -0.2126
  467MOL0     O62968   6.568  10.237   1.972  0.4926 -0.0448 -0.0715
  467MOL0     C62969   6.454  10.203   1.886 -0.0070  0.0177  0.4457
  467MOL0     C62970   6.342  10.308   1.894 -0.1378 -0.4065  0.1309
  467MOL0     C62971   6.221  10.264   1.817  0.3788 -0.4058  0.2510
  467MOL0     C62972   6.213  10.336   1.682  1.2819 -0.2943  1.3269
  467MOL0     C62973   6.090  10.307   1.613 -0.1651  1.1180  0.3307
  467MOL0     C62974   5.986  10.265   1.565  0.9233 -0.4570  0.4662
  467MOL0     C62975   6.789  10.213   1.970 -0.2390  0.3268 -0.1490
  467MOL0     C62976   6.903  10.136   1.978 -0.0605 -0.5698  0.3346
  467MOL0     C62977   7.028  10.226   1.961  0.0714  0.2566  0.3739
  467MOL0     H62978   7.220   9.681   1.829 -1.4958  1.8726  0.4145
  467MOL0     H62979   7.405   9.575   1.912 -0.9483 -1.3578 -0.6352
  467MOL0     H62980   7.472   9.345   2.004  0.7250  0.0523 -1.3366
  467MOL0     H62981   7.579   9.478   2.039  1.7625 -0.3018  0.3950
  467MOL0     H62982   7.530   9.255   2.236 -0.3121 -1.1953 -1.9033
  467MOL0     H62983   7.648   9.387   2.244 -1.3712  0.6045  0.8265
  467MOL0     H62984   7.650   9.154   2.033  1.7660  0.5985 -1.5519
  467MOL0     H62985   7.747   9.150   2.170  2.4380  0.1284 -1.1740
  467MOL0     H62986   7.751   9.343   1.923 -0.2571  2.8541  0.7558
  467MOL0     H62987   7.825   9.388   2.079  0.2962 -0.0452  0.7227
  467MOL0     H62988   7.946   9.168   2.083 -0.2872  0.6093  0.2745
  467MOL0     H62989   7.899   9.143   1.924 -2.9276 -0.1416  1.0342
  467MOL0     H62990   8.018   9.411   1.997 -2.6306 -0.0318  0.2601
  467MOL0     H62991   8.128   9.269   2.008 -0.6685  1.5049  3.6896
  467MOL0     H62992   8.079   9.229   1.770  1.4430  0.7848  0.7088
  467MOL0     H62993   8.158   9.378   1.771  0.4596 -2.0513 -2.2061
  467MOL0     H62994   7.851   9.330   1.729 -1.9841  2.8470  2.3027
  467MOL0     H62995   7.925   9.487   1.786 -0.1128 -0.5600  0.8435
  467MOL0     H62996   8.011   9.252   1.498 -0.6040  0.1011  1.3391
  467MOL0     H62997   8.103   9.295   1.258 -2.1070  0.6639  1.3255
  467MOL0     H62998   8.033   9.442   1.206  1.5144  2.4845 -1.3038
  467MOL0     H62999   8.243   9.574   1.248  1.2079  0.3611  0.5689
  467MOL0     H63000   8.320   9.417   1.299 -1.4952 -1.9223  1.2383
  467MOL0     H63001   8.188   9.483   1.030 -2.0921 -1.3571  2.4925
  467MOL0     H63002   8.283   9.336   1.074  1.1742  0.1304 -0.5451
  467MOL0     H63003   8.413   9.513   0.930  1.2020 -2.8336 -0.0727
  467MOL0     H63004   8.481   9.445   1.077 -1.0802 -2.6443 -2.2212
  467MOL0     H63005   8.636   9.786   0.986  3.4205  1.1337  0.1390
  467MOL0     H63006   8.848   9.800   1.122  1.3407  0.5705  0.6684
  467MOL0     H63007   9.213   9.838   1.215  3.1801 -0.5606  0.3832
  467MOL0     H63008   9.426   9.873   1.353  0.2890 -1.0191  0.9430
  467MOL0     H63009   9.604   9.859   1.554  3.1883 -1.1485  2.2501
  467MOL0     H63010   9.598   9.869   1.714 -0.2582 -0.1295 -0.1158
  467MOL0     H63011   9.396   9.682   1.570 -0.1743  0.5295  0.2739
  467MOL0     H63012   9.554   9.650   1.638  0.6295 -0.0812  0.9560
  467MOL0     H63013   9.460   9.693   1.870  0.1818  0.2832 -0.7118
  467MOL0     H63014   9.301   9.740   1.788 -2.2049 -3.5589 -1.5049
  467MOL0     H63015   9.458   9.472   1.786  1.9996  1.5526  2.3178
  467MOL0     H63016   9.304   9.504   1.700 -1.0202  0.8409  0.1178
  467MOL0     H63017   9.251   9.569   1.977  0.4651  0.3171 -0.5355
  467MOL0     H63018   9.376   9.456   1.983  2.1186  0.6228 -2.3458
  467MOL0     H63019   9.222   9.287   1.889  1.3804 -0.2686 -0.3454
  467MOL0     H63020   9.105   9.374   1.986 -3.1069 -1.9008 -2.1711
  467MOL0     H63021   9.120   9.359   1.694 -0.1499 -1.9838 -0.0428
  467MOL0     H63022   9.035   9.489   1.769  0.8215  0.6835  1.3875
  467MOL0     H63023   8.902   9.277   1.716 -2.2509  2.2078  0.6616
  467MOL0     H63024   9.027   9.192   1.814 -1.1634 -0.4367 -1.5926
  467MOL0     H63025   9.173   9.996   1.683 -1.9854  0.3373 -1.8737
  467MOL0     H63026   8.986   9.964   1.567 -0.7016  0.7424 -1.7737
  467MOL0     H63027   8.665   9.636   1.457  5.0883 -1.7580  0.3440
  467MOL0     H63028   8.453   9.588   1.318  0.5502  0.8292 -0.8943
  467MOL0     H63029   7.244   9.565   2.314 -0.2838  0.0233 -0.5835
  467MOL0     H63030   7.027   9.668   2.217  0.6169  5.6394  0.2524
  467MOL0     H63031   6.754   9.830   2.046  0.1801 -0.1525  0.7466
  467MOL0     H63032   6.575   9.973   2.052  1.6857 -0.4669  6.5461
  467MOL0     H63033   6.407  10.104   1.889 -4.0156  1.6350 -1.5748
  467MOL0     H63034   6.491  10.198   1.783 -0.4889 -0.0617  0.2751
  467MOL0     H63035   6.371  10.408   1.861 -0.2347  0.2175  1.8151
  467MOL0     H63036   6.330  10.314   2.003  1.8584  2.8787  0.3219
  467MOL0     H63037   6.135  10.284   1.882  0.1229 -0.3110 -0.1181
  467MOL0     H63038   6.237  10.160   1.789  2.4557  0.1050 -0.6433
  467MOL0     H63039   6.205  10.444   1.701  3.2753 -0.0611  1.1201
  467MOL0     H63040   6.299  10.321   1.616 -0.2369 -0.4976 -0.6824
  467MOL0     H63041   5.895  10.233   1.519  0.6156 -1.1585  1.5445
  467MOL0     H63042   6.790  10.321   1.965  3.3989  0.4993  0.8464
  467MOL0     H63043   7.008  10.333   1.970  0.4665  0.2237  1.8946
  467MOL0     H63044   7.099  10.198   2.040  0.3751 -0.6433 -0.1963
  467MOL0     H63045   7.071  10.207   1.862 -2.0415  3.3172 -1.3058
  468MOL0     O63046   4.464   2.263  10.935 -0.3862 -0.1517 -0.6123
  468MOL0     C63047   4.452   2.238  10.815 -1.1782 -0.0526  0.2743
  468MOL0     O63048   4.541   2.283  10.725  0.2868 -0.7421  0.5354
  468MOL0     C63049   4.674   2.310  10.757  0.1207  0.1341 -0.0900
  468MOL0     C63050   4.758   2.393  10.672  0.1928  0.2676  0.2373
  468MOL0     C63051   4.898   2.407  10.692  0.4924 -0.2103 -0.4151
  468MOL0     C63052   4.958   2.333  10.795  0.2240  0.1654 -0.4395
  468MOL0     O63053   5.095   2.355  10.786 -0.2002  0.3610  0.0602
  468MOL0     C63054   5.162   2.374  10.909  0.3915 -0.1343  0.2745
  468MOL0     C63055   5.311   2.368  10.888 -0.4035  0.2127 -0.3846
  468MOL0     C63056   5.355   2.237  10.834 -0.3600 -0.1809  0.1978
  468MOL0     C63057   5.502   2.215  10.841  0.0396  0.2809 -0.6961
  468MOL0     C63058   5.585   2.324  10.774  0.8188 -0.2046 -0.1966
  468MOL0     C63059   5.719   2.276  10.724  0.9241 -0.5119 -0.3309
  468MOL0     C63060   5.793   2.405  10.674 -0.8065  0.0476  0.6816
  468MOL0     C63061   5.927   2.356  10.617  0.3013  0.1282  0.7463
  468MOL0     N63062   6.013   2.473  10.584  0.2431 -0.1105 -0.0979
  468MOL0     C63063   6.055   2.554  10.679  0.2130  1.0138 -0.5341
  468MOL0     C63064   6.156   2.618  10.627  0.2624  0.3825 -1.1352
  468MOL0     C63065   6.247   2.712  10.694  1.0524 -0.6297  0.0964
  468MOL0     C63066   6.338   2.644  10.805  1.5895  0.7764  0.0171
  468MOL0     C63067   6.452   2.722  10.845  0.1003  0.4352  0.1972
  468MOL0     C63068   6.561   2.701  10.741 -0.5051 -0.6292 -0.1179
  468MOL0     O63069   6.659   2.798  10.773 -0.0135 -0.0351  0.4095
  468MOL0     C63070   6.788   2.790  10.735  0.7920  0.2825  0.9804
  468MOL0     C63071   6.862   2.909  10.751  0.3075 -0.9628  0.5910
  468MOL0     C63072   6.994   2.909  10.711 -0.5890 -0.2588 -1.7219
  468MOL0     C63073   7.053   2.797  10.642  0.3783  0.4605  0.4034
  468MOL0     C63074   7.191   2.800  10.600 -0.1880  0.2977 -0.4521
  468MOL0     O63075   7.257   2.915  10.604 -0.8577  0.2883  0.0562
  468MOL0     C63076   7.384   2.921  10.548 -0.4351 -0.1461 -0.0437
  468MOL0     C63077   7.403   2.981  10.418  1.0790 -0.8326 -0.4415
  468MOL0     C63078   7.536   3.001  10.372  0.2577  0.8834  1.0617
  468MOL0     C63079   7.645   2.948  10.442 -0.2596  0.0665 -0.0695
  468MOL0     O63080   7.768   2.977  10.379 -0.8870 -0.3550  0.3749
  468MOL0     C63081   7.887   2.962  10.461  0.2081  0.5687 -0.4059
  468MOL0     C63082   8.024   2.988  10.398 -0.2695  0.1689  0.9675
  468MOL0     C63083   8.050   2.892  10.286 -0.2230  0.0776 -0.2148
  468MOL0     C63084   8.160   2.956  10.202  0.5795  0.4259  0.0908
  468MOL0     C63085   8.208   2.842  10.106 -0.3967 -0.3767  0.1452
  468MOL0     C63086   8.336   2.878  10.029  0.2289  0.0790 -0.2168
  468MOL0     C63087   8.362   2.789   9.905  0.6516 -0.4530  0.0881
  468MOL0     C63088   8.462   2.852   9.804 -0.4239 -0.8685  0.4078
  468MOL0    Cl63089   8.614   2.834   9.899 -0.1803  0.1075  0.3123
  468MOL0     C63090   7.625   2.890  10.571  0.0091  0.1542  0.8687
  468MOL0     C63091   7.493   2.882  10.625  1.0998 -0.4188  0.0174
  468MOL0     O63092   7.243   2.696  10.561  0.1722 -0.0559  0.1025
  468MOL0     C63093   6.972   2.688  10.619  0.1105 -0.0774  1.4654
  468MOL0     C63094   6.841   2.679  10.655  0.7916 -0.8476 -0.4051
  468MOL0     N63095   6.168   2.583  10.498  0.5277  0.9841  0.1531
  468MOL0     N63096   6.072   2.493  10.467 -0.8872  0.0393  0.5157
  468MOL0     C63097   4.880   2.246  10.869  0.0439  0.2862 -1.1343
  468MOL0     C63098   4.738   2.237  10.855 -0.9557 -0.7938  0.4974
  468MOL0     C63099   4.351   2.143  10.777  0.6965  0.2634  0.0844
  468MOL0     C63100   4.380   2.057  10.668 -1.7806 -0.0510 -1.2403
  468MOL0     C63101   4.282   1.971  10.608 -1.1528  0.0613 -0.0209
  468MOL0     C63102   4.157   1.966  10.669  0.1969  0.2562  0.5205
  468MOL0     O63103   4.055   1.896  10.620  0.5487 -0.0979 -0.6470
  468MOL0     C63104   4.062   1.835  10.490  0.9173  0.7783 -0.4886
  468MOL0     C63105   3.915   1.801  10.434  0.1604 -0.2329 -0.4728
  468MOL0     C63106   3.842   1.934  10.403  0.4990  1.0697 -0.4823
  468MOL0     C63107   3.853   1.965  10.253 -0.3191 -0.6085 -0.1128
  468MOL0     C63108   3.761   2.082  10.212 -0.1627  0.1473  0.5569
  468MOL0     C63109   3.684   2.175  10.198  0.1447  0.8276  0.2426
  468MOL0     C63110   4.137   2.038  10.791 -0.8270  0.4245 -0.1059
  468MOL0     C63111   4.227   2.133  10.836 -0.5317  0.6989 -0.9641
  468MOL0     C63112   4.183   2.234  10.940 -0.3333 -0.0291 -0.0261
  468MOL0     H63113   4.718   2.432  10.579  0.0365  0.9269  0.5775
  468MOL0     H63114   4.954   2.478  10.633  0.0517  1.6353  1.2690
  468MOL0     H63115   5.130   2.467  10.958 -0.3011 -0.0271 -0.3623
  468MOL0     H63116   5.136   2.292  10.976 -2.6804  3.0934  3.5401
  468MOL0     H63117   5.357   2.378  10.987 -1.4428  0.6566  0.0676
  468MOL0     H63118   5.324   2.461  10.832  1.8503  0.4122  0.3395
  468MOL0     H63119   5.322   2.225  10.730  1.2674 -1.4572 -0.2111
  468MOL0     H63120   5.309   2.159  10.896  2.3789 -2.0838 -0.0112
  468MOL0     H63121   5.539   2.209  10.944 -2.7384  0.8650  0.4191
  468MOL0     H63122   5.521   2.121  10.788  0.9984 -0.0903  0.2592
  468MOL0     H63123   5.540   2.351  10.678  2.0511  3.0723  0.0153
  468MOL0     H63124   5.588   2.413  10.837  2.8493  0.9781 -1.8254
  468MOL0     H63125   5.771   2.222  10.803  1.7988  0.0454 -0.5053
  468MOL0     H63126   5.710   2.208  10.639  0.8413 -1.1060  0.1470
  468MOL0     H63127   5.809   2.464  10.765 -0.5645  0.2509  0.5071
  468MOL0     H63128   5.732   2.459  10.601  0.2396 -0.0873 -0.2959
  468MOL0     H63129   5.979   2.301  10.696 -0.0945  1.8064  2.2200
  468MOL0     H63130   5.910   2.294  10.528  0.6980  0.5642  0.3535
  468MOL0     H63131   6.021   2.548  10.782 -1.2692  0.4737 -1.0435
  468MOL0     H63132   6.299   2.771  10.619  0.3681  0.7041  0.6196
  468MOL0     H63133   6.175   2.778  10.745  1.1096  0.3658 -1.0579
  468MOL0     H63134   6.268   2.617  10.884 -0.1975 -2.4435 -2.3902
  468MOL0     H63135   6.363   2.545  10.766 -2.3545 -0.9289  1.3352
  468MOL0     H63136   6.480   2.680  10.942 -1.5337 -4.6351 -1.2432
  468MOL0     H63137   6.444   2.831  10.856  2.9074  0.7101  0.0530
  468MOL0     H63138   6.530   2.725  10.639  0.8165  0.2010 -0.3526
  468MOL0     H63139   6.602   2.599  10.739 -0.4720 -0.6639  1.3153
  468MOL0     H63140   6.826   3.001  10.798 -0.1208 -0.5287 -0.5622
  468MOL0     H63141   7.060   2.994  10.725  2.1599 -2.3850 -0.8624
  468MOL0     H63142   7.325   3.027  10.359  1.1239 -1.2854 -0.8595
  468MOL0     H63143   7.544   3.058  10.280 -1.9608 -0.0188  0.2478
  468MOL0     H63144   7.871   3.026  10.548 -1.5400  0.6841 -0.7864
  468MOL0     H63145   7.886   2.861  10.503 -0.8500  1.0071  0.6763
  468MOL0     H63146   8.023   3.092  10.363  3.0814  0.0333  0.1673
  468MOL0     H63147   8.110   2.974  10.464  0.6647  2.5673  0.3484
  468MOL0     H63148   8.076   2.790  10.318  1.7687  0.5864 -0.0977
  468MOL0     H63149   7.965   2.876  10.220 -0.7664 -0.2429  0.5506
  468MOL0     H63150   8.238   2.988  10.271  1.6451  0.6063 -1.1611
  468MOL0     H63151   8.125   3.037  10.137 -2.1289 -1.8547 -1.5364
  468MOL0     H63152   8.124   2.822  10.039 -1.0787  0.2786  0.7703
  468MOL0     H63153   8.234   2.750  10.159  0.8572  0.0656  0.3232
  468MOL0     H63154   8.315   2.978   9.992  2.1623  0.0355 -1.5917
  468MOL0     H63155   8.419   2.885  10.100  0.4307 -1.7402 -0.2006
  468MOL0     H63156   8.271   2.768   9.848  3.2601 -3.2251 -3.4485
  468MOL0     H63157   8.398   2.692   9.941 -1.6222 -1.2270  0.4318
  468MOL0     H63158   8.482   2.795   9.713  0.2342  0.0012 -0.0045
  468MOL0     H63159   8.434   2.955   9.779 -0.4190 -0.7804  0.7560
  468MOL0     H63160   7.710   2.854  10.628  0.1309 -5.1779 -1.9776
  468MOL0     H63161   7.485   2.825  10.717  0.0951  0.7880  0.7132
  468MOL0     H63162   6.996   2.599  10.563 -2.1935 -0.7622  1.4344
  468MOL0     H63163   6.779   2.603  10.610 -0.6054 -1.0591  1.7447
  468MOL0     H63164   4.930   2.180  10.939 -1.6728 -1.9382 -1.8998
  468MOL0     H63165   4.681   2.166  10.913 -0.6342  0.9225  3.1234
  468MOL0     H63166   4.485   2.058  10.640 -0.4755  0.0675  2.9290
  468MOL0     H63167   4.312   1.909  10.524 -1.7395 -0.3635  0.0779
  468MOL0     H63168   4.105   1.735  10.501  0.1877  0.3501 -1.3875
  468MOL0     H63169   4.130   1.884  10.419  1.3938  0.6338 -0.1397
  468MOL0     H63170   3.853   1.756  10.513 -1.5013  2.5403 -0.0616
  468MOL0     H63171   3.909   1.741  10.343 -4.3149 -1.1522  0.2114
  468MOL0     H63172   3.884   2.024  10.449  0.1308  2.2378 -2.3158
  468MOL0     H63173   3.735   1.919  10.419  0.5276  0.1066 -1.1608
  468MOL0     H63174   3.956   1.994  10.230 -0.9178  2.4996  0.5613
  468MOL0     H63175   3.822   1.875  10.201  2.0876 -1.2567 -0.5314
  468MOL0     H63176   3.601   2.241  10.212 -1.0150 -0.8380  1.7497
  468MOL0     H63177   4.048   2.024  10.852 -2.4103  1.0690 -2.1376
  468MOL0     H63178   4.240   2.217  11.032 -1.7820 -1.1514  0.7039
  468MOL0     H63179   4.187   2.341  10.917 -1.4936 -0.1072 -0.6419
  468MOL0     H63180   4.078   2.215  10.961 -0.0267 -0.1558  1.4826
  469MOL0     O63181   4.784  10.400   5.363 -0.0455 -0.6896 -0.9024
  469MOL0     C63182   4.666  10.397   5.354  0.6067  0.6866 -0.4600
  469MOL0     O63183   4.589  10.309   5.280 -0.9351  0.2458  0.4276
  469MOL0     C63184   4.652  10.199   5.246 -0.7585 -0.1094  0.5349
  469MOL0     C63185   4.664  10.099   5.341  0.6867  0.1473  0.6400
  469MOL0     C63186   4.742   9.981   5.332  0.9123  0.6300 -0.1258
  469MOL0     C63187   4.814   9.972   5.208 -0.1666  0.4803 -1.1574
  469MOL0     O63188   4.893   9.863   5.213  0.0357 -0.2438 -0.2757
  469MOL0     C63189   5.024   9.877   5.151 -0.2560  0.9970  0.1189
  469MOL0     C63190   5.116   9.759   5.192 -1.4999 -0.4826  0.2218
  469MOL0     C63191   5.253   9.774   5.108  1.2751 -0.5070 -0.7842
  469MOL0     C63192   5.319   9.637   5.094  0.3558  0.5131 -0.6479
  469MOL0     C63193   5.452   9.638   5.010  0.6480 -0.5877  0.6261
  469MOL0     C63194   5.522   9.506   4.978  0.1864 -0.5201  0.3751
  469MOL0     C63195   5.614   9.509   4.857  0.9855  0.0429  0.1048
  469MOL0     C63196   5.651   9.363   4.818 -0.1994  0.6121  0.3033
  469MOL0     N63197   5.790   9.332   4.845  0.4158  0.1439 -0.3737
  469MOL0     C63198   5.831   9.292   4.966 -0.0179  0.0102 -0.8152
  469MOL0     C63199   5.967   9.285   4.951 -0.9478  0.8537 -0.6170
  469MOL0     C63200   6.069   9.227   5.056  1.5348 -0.3928  0.1369
  469MOL0     C63201   6.053   9.075   5.044  0.3666 -0.6138  0.4967
  469MOL0     C63202   6.142   9.016   4.936  0.3304  0.9353 -0.4998
  469MOL0     C63203   6.128   8.853   4.946  0.1089 -1.0033  0.6515
  469MOL0     O63204   6.136   8.803   5.079  0.2484  0.3066 -0.4943
  469MOL0     C63205   6.155   8.668   5.103 -0.3735  0.1006 -0.8019
  469MOL0     C63206   6.174   8.567   5.002  0.1539 -0.0886 -1.3190
  469MOL0     C63207   6.196   8.441   5.035 -0.3843  0.6332  0.1720
  469MOL0     C63208   6.192   8.406   5.171 -0.2048  0.0238 -0.3749
  469MOL0     C63209   6.194   8.270   5.214  0.1767  0.4921 -0.0894
  469MOL0     O63210   6.140   8.244   5.339 -0.0192  0.0977 -0.4269
  469MOL0     C63211   6.100   8.117   5.365  0.4139 -0.5190 -0.3814
  469MOL0     C63212   6.133   8.046   5.482 -0.3439 -0.2794 -0.4095
  469MOL0     C63213   6.076   7.920   5.505  0.6422  0.5833  0.2495
  469MOL0     C63214   5.975   7.871   5.414 -0.3845  0.3740  0.0936
  469MOL0     O63215   5.910   7.751   5.432 -0.0233 -0.1612  0.5029
  469MOL0     C63216   5.876   7.711   5.570 -0.8901  0.2780 -0.4953
  469MOL0     C63217   5.960   7.597   5.615 -0.3634  0.7334 -0.4484
  469MOL0     C63218   5.953   7.483   5.512 -0.3100 -0.3581 -0.4969
  469MOL0     C63219   5.821   7.410   5.512  0.0452 -0.0029 -0.6228
  469MOL0     C63220   5.844   7.279   5.438 -0.0271  0.0715 -0.6491
  469MOL0     C63221   5.724   7.192   5.439 -0.2946  0.4402 -0.3880
  469MOL0     C63222   5.712   7.116   5.572 -0.4137  0.1610 -0.1808
  469MOL0     C63223   5.595   7.002   5.577  0.4701  0.0784 -0.1342
  469MOL0    Cl63224   5.672   6.841   5.519  0.0019 -0.0050 -0.0554
  469MOL0     C63225   5.939   7.952   5.308  0.6457  0.1146  0.0206
  469MOL0     C63226   6.002   8.068   5.283  0.6586  0.6202  0.4134
  469MOL0     O63227   6.232   8.185   5.136  0.1716 -0.7160  0.3534
  469MOL0     C63228   6.186   8.500   5.274 -0.6259  0.0995 -0.1375
  469MOL0     C63229   6.169   8.636   5.237 -0.1759 -0.1207 -0.7000
  469MOL0     N63230   6.000   9.315   4.826  0.3487 -0.2178  0.9165
  469MOL0     N63231   5.894   9.350   4.763  0.4167 -0.4324  0.9276
  469MOL0     C63232   4.787  10.054   5.100 -0.3584 -0.5076  0.3139
  469MOL0     C63233   4.703  10.165   5.118 -0.4117  0.5536 -0.4147
  469MOL0     C63234   4.595  10.513   5.418  0.6195  0.0499  0.6731
  469MOL0     C63235   4.633  10.557   5.549  0.0441 -1.3788  0.4957
  469MOL0     C63236   4.569  10.666   5.609 -0.1354 -0.4548 -0.2326
  469MOL0     C63237   4.469  10.734   5.535 -0.6227 -0.0263 -0.6958
  469MOL0     O63238   4.419  10.841   5.607 -0.5922 -0.6202  0.6584
  469MOL0     C63239   4.288  10.899   5.578 -0.0654 -1.1656  0.0125
  469MOL0     C63240   4.297  11.009   5.487 -0.1890 -0.3746 -0.0346
  469MOL0     C63241   4.167  11.092   5.481  0.7208 -0.1512 -0.9444
  469MOL0     C63242   4.152  11.184   5.608 -0.3074  0.0134 -0.3143
  469MOL0     C63243   4.042  11.282   5.587 -1.0709  0.1126 -0.2094
  469MOL0     C63244   3.962  11.375   5.574  0.0790  0.1144  1.1928
  469MOL0     C63245   4.417  10.685   5.417  0.3853 -0.0604  0.0991
  469MOL0     C63246   4.481  10.577   5.361 -0.1207  0.4699  1.0449
  469MOL0     C63247   4.428  10.556   5.223 -0.0177  1.1777  0.2894
  469MOL0     H63248   4.622  10.130   5.436  3.6189  2.6530  1.2643
  469MOL0     H63249   4.746   9.906   5.410  2.0163  1.2738  0.4539
  469MOL0     H63250   5.004   9.876   5.043 -1.2725  7.7324 -0.2069
  469MOL0     H63251   5.070   9.968   5.191 -1.2971  0.7389  2.0550
  469MOL0     H63252   5.074   9.666   5.151 -1.9190 -0.7446  1.2257
  469MOL0     H63253   5.135   9.759   5.299  0.5005 -0.3396 -0.0942
  469MOL0     H63254   5.322   9.845   5.155 -0.6126  1.0000 -0.1783
  469MOL0     H63255   5.240   9.829   5.015  0.8657  1.7748  0.5421
  469MOL0     H63256   5.337   9.595   5.193 -2.5391  2.2578  0.7245
  469MOL0     H63257   5.248   9.565   5.052 -4.1386  2.2528  3.1519
  469MOL0     H63258   5.419   9.688   4.918 -0.0321  1.5753  1.9933
  469MOL0     H63259   5.525   9.701   5.061 -1.1007  0.7084  1.6203
  469MOL0     H63260   5.567   9.465   5.069  4.1315 -1.9204 -1.9631
  469MOL0     H63261   5.440   9.438   4.952  2.4002 -2.1988 -2.8088
  469MOL0     H63262   5.705   9.568   4.871 -0.7162  3.3534 -1.5897
  469MOL0     H63263   5.574   9.561   4.770 -0.3373 -0.5616  0.3259
  469MOL0     H63264   5.587   9.294   4.873  0.7063  0.0649  0.6969
  469MOL0     H63265   5.624   9.355   4.712 -0.2963 -1.5762  0.4579
  469MOL0     H63266   5.777   9.272   5.058  0.8830 -0.0249 -0.2825
  469MOL0     H63267   6.169   9.263   5.029  1.6487 -1.0325 -0.3144
  469MOL0     H63268   6.051   9.257   5.160  2.7811 -1.4043  0.6725
  469MOL0     H63269   6.084   9.038   5.142 -1.2902 -0.2996  1.1744
  469MOL0     H63270   5.949   9.043   5.032 -1.5874  3.4172  3.8910
  469MOL0     H63271   6.250   9.030   4.944  0.0114  3.1380  0.8208
  469MOL0     H63272   6.101   9.041   4.838 -1.0682 -3.4607 -1.2637
  469MOL0     H63273   6.213   8.821   4.884 -1.5962  1.8342 -3.6117
  469MOL0     H63274   6.030   8.829   4.905  0.1705  0.5708 -0.5212
  469MOL0     H63275   6.156   8.600   4.901  1.1077  0.9959 -1.1538
  469MOL0     H63276   6.211   8.379   4.947  0.2902  4.5106 -2.7206
  469MOL0     H63277   6.204   8.087   5.553 -0.8033 -0.0333 -0.0955
  469MOL0     H63278   6.097   7.855   5.589 -2.1972  0.8881  1.2835
  469MOL0     H63279   5.882   7.798   5.636 -0.8329 -0.5347  0.6187
  469MOL0     H63280   5.771   7.683   5.577 -0.6436 -2.0398 -3.7577
  469MOL0     H63281   6.060   7.639   5.633 -0.2998  0.8018 -0.9396
  469MOL0     H63282   5.924   7.568   5.713 -1.8028 -1.9909 -1.6895
  469MOL0     H63283   5.987   7.519   5.415  1.4381 -1.3215 -0.2725
  469MOL0     H63284   6.021   7.401   5.537 -0.7914 -1.7068 -3.2380
  469MOL0     H63285   5.735   7.462   5.468  0.2053  0.9602  0.1706
  469MOL0     H63286   5.785   7.384   5.612  1.6331 -0.1309 -0.0586
  469MOL0     H63287   5.936   7.227   5.463  0.7509  1.2989 -0.8747
  469MOL0     H63288   5.854   7.306   5.332  0.4256  1.8539 -0.1879
  469MOL0     H63289   5.640   7.262   5.433 -0.5317  0.1062 -1.0921
  469MOL0     H63290   5.748   7.121   5.359 -0.2111 -0.3074  0.2882
  469MOL0     H63291   5.695   7.195   5.646  0.0547 -1.8558  2.2098
  469MOL0     H63292   5.807   7.080   5.612 -0.3815  2.0144  1.5465
  469MOL0     H63293   5.557   6.986   5.678  1.4667  0.0327  0.2436
  469MOL0     H63294   5.521   7.026   5.501  2.1000  0.0993 -1.8131
  469MOL0     H63295   5.861   7.917   5.241 -0.5359  0.7907  0.9827
  469MOL0     H63296   5.970   8.134   5.203  0.1982 -0.6264 -0.4451
  469MOL0     H63297   6.188   8.475   5.380  1.4098 -2.6675 -0.6848
  469MOL0     H63298   6.159   8.706   5.320 -4.9707 -1.1968 -0.0769
  469MOL0     H63299   4.835  10.036   5.004  1.0888 -0.8823  1.0803
  469MOL0     H63300   4.692  10.238   5.038 -0.1424  3.0353  1.6589
  469MOL0     H63301   4.718  10.512   5.599  0.7457 -1.2078 -0.5164
  469MOL0     H63302   4.605  10.696   5.707 -0.7157 -1.0192  0.1613
  469MOL0     H63303   4.253  10.941   5.673 -0.5906 -0.4859 -0.4729
  469MOL0     H63304   4.210  10.830   5.545  0.1804 -1.9390  0.9975
  469MOL0     H63305   4.313  10.967   5.388  1.5321  1.5229 -0.6416
  469MOL0     H63306   4.386  11.072   5.500  0.0218  0.0614 -2.8710
  469MOL0     H63307   4.078  11.030   5.479  0.9284 -0.6019  1.3118
  469MOL0     H63308   4.157  11.144   5.386  1.3824  0.4250 -0.7114
  469MOL0     H63309   4.134  11.120   5.695 -2.4662 -1.9007 -2.0187
  469MOL0     H63310   4.235  11.250   5.632 -1.9686  1.5067  1.6298
  469MOL0     H63311   3.889  11.454   5.580  1.4387  1.5826 -0.3982
  469MOL0     H63312   4.340  10.735   5.360  1.3560  0.0669 -1.1459
  469MOL0     H63313   4.504  10.553   5.144  0.1809 -2.2793  0.4548
  469MOL0     H63314   4.373  10.461   5.219 -0.4493  1.4484 -0.7988
  469MOL0     H63315   4.354  10.631   5.194 -0.7161  0.2042 -0.5253
  470MOL0     O63316   1.847  10.219   3.308  0.1724  0.8826 -0.3621
  470MOL0     C63317   1.904  10.306   3.376 -0.5714  0.1903 -0.3614
  470MOL0     O63318   2.022  10.286   3.451 -0.0474 -0.1068 -0.5890
  470MOL0     C63319   2.100  10.172   3.458 -0.4074 -0.2195 -0.7083
  470MOL0     C63320   2.206  10.181   3.552 -0.0675  0.1036  0.2028
  470MOL0     C63321   2.278  10.068   3.592 -0.3974 -0.3644 -0.0983
  470MOL0     C63322   2.252   9.940   3.530 -0.0181 -0.2393  0.2946
  470MOL0     O63323   2.321   9.823   3.552  0.4463  0.6848 -0.5221
  470MOL0     C63324   2.416   9.818   3.656  0.7507  0.2712 -0.6501
  470MOL0     C63325   2.448   9.675   3.680  0.7444 -0.5314  0.0420
  470MOL0     C63326   2.362   9.606   3.775 -0.5569 -0.3332 -0.0939
  470MOL0     C63327   2.366   9.446   3.760  0.4103 -0.5676 -0.5581
  470MOL0     C63328   2.498   9.383   3.801  0.5938  0.5327  0.5774
  470MOL0     C63329   2.552   9.425   3.944  0.0026  0.1862 -0.2136
  470MOL0     C63330   2.654   9.321   3.989  0.0464  0.9769  0.2833
  470MOL0     C63331   2.708   9.342   4.129  0.1295  0.4171 -0.0834
  470MOL0     N63332   2.602   9.392   4.219 -0.8191  0.9307 -0.6381
  470MOL0     C63333   2.489   9.324   4.256 -0.2767  1.0154  1.0715
  470MOL0     C63334   2.414   9.412   4.326  0.1045 -0.3233 -0.3792
  470MOL0     C63335   2.271   9.400   4.381 -0.3755 -0.3194  0.0457
  470MOL0     C63336   2.162   9.449   4.290 -0.2179 -0.1539  0.0538
  470MOL0     C63337   2.157   9.380   4.155  0.0272 -0.5159  0.5776
  470MOL0     C63338   2.025   9.414   4.090  0.1413  0.2008 -0.4588
  470MOL0     O63339   2.008   9.360   3.958  0.2467  0.6758 -0.1457
  470MOL0     C63340   2.002   9.227   3.926  0.5744 -0.3910  1.0790
  470MOL0     C63341   1.989   9.186   3.786  0.3749 -0.2806 -0.8664
  470MOL0     C63342   2.002   9.057   3.743  0.2786  0.0466  0.5977
  470MOL0     C63343   1.992   8.952   3.844  0.2434 -0.5613 -0.4837
  470MOL0     C63344   2.002   8.805   3.814  0.7519  0.5078  0.5690
  470MOL0     O63345   2.026   8.710   3.916 -0.9994  0.2416  0.1857
  470MOL0     C63346   2.076   8.587   3.878 -0.2065 -0.2481  0.4279
  470MOL0     C63347   1.993   8.478   3.856 -0.4244  0.2486 -0.0401
  470MOL0     C63348   2.049   8.347   3.836  0.9394 -0.2963  0.0936
  470MOL0     C63349   2.191   8.325   3.839  0.4370 -0.1696 -0.4935
  470MOL0     O63350   2.254   8.198   3.842 -0.1571 -0.6334 -0.8149
  470MOL0     C63351   2.197   8.088   3.775 -0.4727  0.1435 -0.4192
  470MOL0     C63352   2.288   7.973   3.776 -0.3716  0.9234 -0.0827
  470MOL0     C63353   2.343   7.932   3.916 -0.5160  0.1530  0.1210
  470MOL0     C63354   2.470   7.846   3.890 -0.0954  0.0546  0.8821
  470MOL0     C63355   2.521   7.795   4.021 -0.8723 -0.9405 -0.0539
  470MOL0     C63356   2.611   7.897   4.096 -0.4344 -0.0515  0.0180
  470MOL0     C63357   2.666   7.864   4.232 -0.0660  0.4381  0.1530
  470MOL0     C63358   2.745   7.733   4.245 -0.5398  0.0034  0.0566
  470MOL0    Cl63359   2.869   7.725   4.125  0.1242  0.0115  0.0271
  470MOL0     C63360   2.266   8.439   3.876 -0.2070  0.1200  0.4199
  470MOL0     C63361   2.209   8.560   3.877 -0.2593 -0.1960  0.3087
  470MOL0     O63362   2.015   8.773   3.691  0.2047 -0.7753 -0.5750
  470MOL0     C63363   1.985   9.001   3.979 -0.1207  0.3589 -1.0466
  470MOL0     C63364   2.000   9.127   4.021  0.9132  1.0897 -0.2197
  470MOL0     N63365   2.488   9.532   4.339 -0.2718  0.2650  0.1291
  470MOL0     N63366   2.590   9.520   4.261 -0.1760 -0.6273 -0.7668
  470MOL0     C63367   2.142   9.932   3.439 -0.2841  0.0044 -1.0193
  470MOL0     C63368   2.062  10.047   3.409  0.5379  0.7938 -0.7428
  470MOL0     C63369   1.828  10.427   3.397  1.0205  0.5247  0.6697
  470MOL0     C63370   1.838  10.499   3.519  0.0988 -0.0698 -0.2487
  470MOL0     C63371   1.768  10.607   3.551 -0.0701 -0.5603  0.0631
  470MOL0     C63372   1.673  10.659   3.457 -0.5852  0.1883 -0.6651
  470MOL0     O63373   1.605  10.775   3.490  0.3923  0.3184 -0.3899
  470MOL0     C63374   1.486  10.825   3.423 -0.1954 -0.2501 -0.2746
  470MOL0     C63375   1.361  10.751   3.462 -0.3097  0.7309 -0.3122
  470MOL0     C63376   1.337  10.748   3.607 -1.3969  0.1758 -0.2626
  470MOL0     C63377   1.198  10.703   3.638  0.3734  0.4800 -0.4937
  470MOL0     C63378   1.203  10.578   3.710 -0.7455  0.2985  0.7391
  470MOL0     C63379   1.235  10.471   3.761  0.4463  0.1308 -0.1680
  470MOL0     C63380   1.653  10.586   3.342 -0.1904  0.2248  0.2720
  470MOL0     C63381   1.735  10.479   3.303 -0.7816  0.2219 -0.8126
  470MOL0     C63382   1.726  10.425   3.159  1.1235 -0.2303 -0.3832
  470MOL0     H63383   2.218  10.285   3.581 -3.0209  0.9714 -1.2835
  470MOL0     H63384   2.358  10.087   3.662 -1.6903 -0.1245  1.3501
  470MOL0     H63385   2.503   9.877   3.626  0.3834  0.6788 -0.9350
  470MOL0     H63386   2.386   9.871   3.747 -0.5790  0.6637 -1.2817
  470MOL0     H63387   2.554   9.676   3.705  0.6784 -1.8542  0.4556
  470MOL0     H63388   2.456   9.623   3.585  4.7383  0.9679 -0.6473
  470MOL0     H63389   2.263   9.650   3.760 -1.3439 -1.9805  0.0019
  470MOL0     H63390   2.390   9.639   3.875 -1.0211 -0.7894  0.1928
  470MOL0     H63391   2.288   9.394   3.816  0.2030 -3.5144 -3.2651
  470MOL0     H63392   2.355   9.414   3.656  2.3094 -3.3987 -0.0147
  470MOL0     H63393   2.485   9.276   3.782 -0.1160  0.7733 -0.3611
  470MOL0     H63394   2.577   9.410   3.730 -0.9148  0.3507 -1.2343
  470MOL0     H63395   2.596   9.525   3.942 -1.4472  1.0642  3.1404
  470MOL0     H63396   2.460   9.433   4.004 -0.1405  1.4403 -0.5815
  470MOL0     H63397   2.739   9.312   3.921  0.9622  1.6819  1.3097
  470MOL0     H63398   2.611   9.221   3.979 -0.2054  1.0917  0.1855
  470MOL0     H63399   2.744   9.241   4.153  0.0393 -1.1685 -5.3759
  470MOL0     H63400   2.794   9.408   4.119 -0.6568  1.0699 -4.7721
  470MOL0     H63401   2.459   9.222   4.234 -2.5313  1.6837  0.7528
  470MOL0     H63402   2.250   9.298   4.416 -1.2093 -0.2029 -0.1034
  470MOL0     H63403   2.266   9.470   4.464 -0.7949  1.0963 -1.1353
  470MOL0     H63404   2.065   9.439   4.339  0.1198  1.5989  1.1577
  470MOL0     H63405   2.178   9.557   4.281 -1.2773 -0.1063 -1.9371
  470MOL0     H63406   2.165   9.272   4.162  0.5666 -0.5947 -0.8623
  470MOL0     H63407   2.245   9.403   4.093 -1.0802 -0.5637 -1.0924
  470MOL0     H63408   2.013   9.523   4.097  0.3437  0.1843  0.2443
  470MOL0     H63409   1.955   9.372   4.163  2.5190 -1.5353  0.9880
  470MOL0     H63410   1.971   9.258   3.706  0.3757  0.2944 -0.3537
  470MOL0     H63411   2.007   9.022   3.641  2.7364  0.4964  0.4895
  470MOL0     H63412   1.885   8.479   3.860 -0.4802 -0.5595 -0.9408
  470MOL0     H63413   1.983   8.261   3.832  1.8418 -0.9702 -2.3130
  470MOL0     H63414   2.109   8.060   3.834 -0.5475  2.0206  0.4380
  470MOL0     H63415   2.169   8.112   3.672  0.5402 -1.7652 -1.1942
  470MOL0     H63416   2.236   7.882   3.748  1.1003 -0.5538  1.6877
  470MOL0     H63417   2.377   7.998   3.718 -0.7515  0.0671 -1.0672
  470MOL0     H63418   2.378   8.019   3.971 -0.3778  0.8879 -1.0901
  470MOL0     H63419   2.267   7.873   3.967  1.0073 -3.2143 -1.2107
  470MOL0     H63420   2.552   7.906   3.848  1.5931 -1.9022  1.2535
  470MOL0     H63421   2.452   7.757   3.830 -0.0395  1.5902 -1.5738
  470MOL0     H63422   2.583   7.707   4.002  3.2325  1.5674  0.4891
  470MOL0     H63423   2.444   7.771   4.096 -0.3595  2.2833  1.6630
  470MOL0     H63424   2.694   7.914   4.025  0.3690 -1.4539  0.5743
  470MOL0     H63425   2.565   7.995   4.113  0.1626  0.6296 -1.9257
  470MOL0     H63426   2.585   7.858   4.305 -1.7366 -2.8838 -1.7086
  470MOL0     H63427   2.737   7.946   4.249  0.6401  0.9200 -4.0716
  470MOL0     H63428   2.791   7.730   4.344  3.7758 -0.8678 -1.7321
  470MOL0     H63429   2.677   7.647   4.245 -2.3152  1.3584  0.5559
  470MOL0     H63430   2.370   8.422   3.903  0.1145 -0.2903 -0.9669
  470MOL0     H63431   2.271   8.647   3.897 -0.7083  0.4688 -1.0500
  470MOL0     H63432   1.968   8.918   4.047  0.6826  1.8932  1.1474
  470MOL0     H63433   2.022   9.160   4.122 -0.0702  0.3899  0.2382
  470MOL0     H63434   2.130   9.830   3.404  1.1602 -0.5845  0.0735
  470MOL0     H63435   1.980  10.040   3.338 -2.2207 -2.0112  2.3452
  470MOL0     H63436   1.903  10.452   3.592 -1.0885 -0.4649  0.5984
  470MOL0     H63437   1.785  10.652   3.648 -0.3437  0.2142 -0.2378
  470MOL0     H63438   1.492  10.821   3.314 -0.6353 -1.2085 -0.2752
  470MOL0     H63439   1.483  10.930   3.453  1.4806 -0.2352 -0.0539
  470MOL0     H63440   1.360  10.653   3.414  1.0425  0.7452 -0.4301
  470MOL0     H63441   1.271  10.791   3.415 -1.2970 -0.7274  0.2716
  470MOL0     H63442   1.360  10.844   3.654 -2.3172 -0.6671  2.0743
  470MOL0     H63443   1.400  10.676   3.660 -3.7231 -1.3417  0.5560
  470MOL0     H63444   1.150  10.770   3.711 -0.1223 -0.6258  0.2232
  470MOL0     H63445   1.129  10.703   3.553 -1.8195 -0.5785  1.1599
  470MOL0     H63446   1.255  10.378   3.811  0.6825 -0.6145 -1.5865
  470MOL0     H63447   1.568  10.610   3.280 -0.7783 -0.8604  0.6405
  470MOL0     H63448   1.633  10.368   3.164  1.6278 -1.6069 -3.9272
  470MOL0     H63449   1.711  10.510   3.092  2.6757 -0.6311 -1.3085
  470MOL0     H63450   1.802  10.354   3.125 -1.1516 -3.1518  0.2458
  471MOL0     O63451   2.357   5.740   1.455 -0.6400  0.6477  0.4377
  471MOL0     C63452   2.314   5.730   1.343 -1.4770 -0.1286  1.0685
  471MOL0     O63453   2.350   5.807   1.234 -0.7298 -0.1328 -0.2582
  471MOL0     C63454   2.417   5.926   1.240  0.5342  0.0280 -0.9163
  471MOL0     C63455   2.521   5.958   1.329  0.2284 -0.2342 -0.6848
  471MOL0     C63456   2.581   6.086   1.315  0.0326  0.8521  0.5319
  471MOL0     C63457   2.531   6.182   1.231  0.4256 -0.6196  0.1633
  471MOL0     O63458   2.598   6.299   1.232 -0.2902 -0.4875  0.9622
  471MOL0     C63459   2.573   6.400   1.135 -0.3365  0.5425 -0.3720
  471MOL0     C63460   2.657   6.516   1.155  0.8877  0.1744 -0.2462
  471MOL0     C63461   2.803   6.481   1.138  0.4789  0.4827 -0.3278
  471MOL0     C63462   2.886   6.515   1.261 -0.2019  0.2627  0.3934
  471MOL0     C63463   3.038   6.471   1.248  0.4090  0.6502  0.2700
  471MOL0     C63464   3.117   6.542   1.357  0.3355 -0.4514  0.1683
  471MOL0     C63465   3.267   6.528   1.345 -0.1162  0.2481 -0.2542
  471MOL0     C63466   3.342   6.585   1.455  0.5040 -0.8020 -0.5091
  471MOL0     N63467   3.390   6.721   1.430 -0.5356 -0.7892 -0.2162
  471MOL0     C63468   3.483   6.756   1.338 -0.6409  0.7530 -0.5873
  471MOL0     C63469   3.494   6.889   1.339 -0.2229 -0.0647  1.3369
  471MOL0     C63470   3.576   6.977   1.245  0.3139  0.1368 -0.5468
  471MOL0     C63471   3.558   6.952   1.091 -0.8325  0.1853 -0.2793
  471MOL0     C63472   3.575   7.078   1.012 -0.4536  0.2749 -0.3247
  471MOL0     C63473   3.711   7.139   1.040 -0.0481 -0.1722 -0.6430
  471MOL0     O63474   3.715   7.237   0.929 -0.8399 -0.3048  0.5618
  471MOL0     C63475   3.843   7.284   0.906  0.2416  0.2429  0.5339
  471MOL0     C63476   3.900   7.279   0.780  0.0645 -0.3329  0.2895
  471MOL0     C63477   4.029   7.328   0.755  0.3508 -0.0743 -1.3870
  471MOL0     C63478   4.095   7.412   0.849  0.4740 -0.5205 -0.6330
  471MOL0     C63479   4.219   7.493   0.824  0.2291  0.5827 -0.5064
  471MOL0     O63480   4.257   7.512   0.694  0.6717 -0.4669 -0.1497
  471MOL0     C63481   4.381   7.561   0.672  0.1419 -0.4321  0.3202
  471MOL0     C63482   4.401   7.672   0.587  0.2757  0.7742  0.8908
  471MOL0     C63483   4.536   7.719   0.556  0.6629  0.0425 -0.1321
  471MOL0     C63484   4.647   7.654   0.617  0.5839 -0.2181 -0.3444
  471MOL0     O63485   4.780   7.687   0.621  0.0494 -0.2674  0.1729
  471MOL0     C63486   4.818   7.819   0.576 -0.1989  0.4160 -0.3089
  471MOL0     C63487   4.967   7.825   0.587  0.7829 -0.0411 -0.6112
  471MOL0     C63488   5.040   7.719   0.490 -0.5627 -0.6748  0.2456
  471MOL0     C63489   5.186   7.727   0.479  0.5168  1.1961 -0.9867
  471MOL0     C63490   5.236   7.603   0.396  0.2901  0.1735 -0.2957
  471MOL0     C63491   5.385   7.615   0.386  0.4153  1.2495 -0.3970
  471MOL0     C63492   5.443   7.498   0.312 -0.0770 -0.8234 -0.3667
  471MOL0     C63493   5.443   7.506   0.155 -0.3480  0.7424  0.1433
  471MOL0    Cl63494   5.581   7.609   0.101 -0.0121 -0.1938 -0.5093
  471MOL0     C63495   4.623   7.536   0.688 -0.2046 -0.1073 -0.1379
  471MOL0     C63496   4.493   7.493   0.711  0.5866 -0.7195 -0.0830
  471MOL0     O63497   4.273   7.542   0.928  0.6778 -0.2454 -0.0025
  471MOL0     C63498   4.037   7.405   0.978 -0.0992 -0.5458 -0.0000
  471MOL0     C63499   3.912   7.352   1.010  0.1509 -0.4446  1.0950
  471MOL0     N63500   3.421   6.933   1.442  0.5979 -0.9208  0.2359
  471MOL0     N63501   3.361   6.832   1.495  0.0668 -0.2226 -0.1180
  471MOL0     C63502   2.419   6.151   1.157 -0.7162 -0.5699  0.6416
  471MOL0     C63503   2.361   6.025   1.165 -0.2922 -0.0904  0.4391
  471MOL0     C63504   2.229   5.626   1.309 -0.8835  0.3598  0.2546
  471MOL0     C63505   2.096   5.623   1.356 -0.2214 -1.4084 -0.3451
  471MOL0     C63506   2.009   5.532   1.305  0.0983  0.2092  1.5362
  471MOL0     C63507   2.055   5.428   1.218 -0.2119  0.2670  0.0278
  471MOL0     O63508   1.972   5.325   1.188  0.3100 -0.2860 -0.4276
  471MOL0     C63509   1.851   5.367   1.110 -0.1384  0.2253 -0.2262
  471MOL0     C63510   1.868   5.345   0.963  0.7378 -0.0934  0.5611
  471MOL0     C63511   1.854   5.202   0.931 -0.0769  0.1954 -0.0031
  471MOL0     C63512   1.878   5.176   0.773 -0.0577 -0.4635 -0.9250
  471MOL0     C63513   2.023   5.197   0.751  0.1725 -0.1826 -0.1440
  471MOL0     C63514   2.136   5.225   0.729 -0.4470  0.7995 -0.1808
  471MOL0     C63515   2.188   5.427   1.170  0.3357  0.2071 -0.1193
  471MOL0     C63516   2.270   5.536   1.207  0.6348  0.0977  0.7011
  471MOL0     C63517   2.413   5.528   1.167 -0.7534  0.4470 -0.8046
  471MOL0     H63518   2.550   5.880   1.398 -2.0666  0.0549  0.6916
  471MOL0     H63519   2.658   6.118   1.384 -0.0909  1.6005  0.3397
  471MOL0     H63520   2.578   6.370   1.029  0.2143  0.2504 -0.2698
  471MOL0     H63521   2.473   6.437   1.154  0.4572  2.2945  0.6014
  471MOL0     H63522   2.645   6.537   1.262 -1.6349 -0.7216 -0.2804
  471MOL0     H63523   2.619   6.594   1.090 -1.3970 -0.5406  0.1484
  471MOL0     H63524   2.848   6.531   1.051  1.3955 -0.2882 -0.3146
  471MOL0     H63525   2.809   6.374   1.117  2.4577  0.9699 -2.8387
  471MOL0     H63526   2.886   6.624   1.268  3.8734  0.3739  1.4757
  471MOL0     H63527   2.840   6.468   1.349 -0.0324 -0.7772 -0.0594
  471MOL0     H63528   3.052   6.363   1.249 -0.5256  0.5073 -0.6861
  471MOL0     H63529   3.069   6.517   1.153  0.9549  1.2898  0.7404
  471MOL0     H63530   3.103   6.649   1.344  3.9810 -0.1212 -2.9404
  471MOL0     H63531   3.072   6.502   1.449 -3.2789 -0.2464 -1.3629
  471MOL0     H63532   3.307   6.574   1.254 -0.1101  1.5056  0.3645
  471MOL0     H63533   3.292   6.423   1.329 -0.9673  0.2473 -1.7767
  471MOL0     H63534   3.283   6.593   1.547 -1.5557  0.0741 -1.8536
  471MOL0     H63535   3.430   6.526   1.483  0.1406 -1.4392 -0.6883
  471MOL0     H63536   3.531   6.691   1.266 -2.3713  0.2667 -1.3636
  471MOL0     H63537   3.543   7.077   1.275 -0.0485 -0.5558  1.5685
  471MOL0     H63538   3.678   6.968   1.283  0.2023 -2.3779 -0.6811
  471MOL0     H63539   3.631   6.878   1.056 -1.7849 -1.0353  0.2367
  471MOL0     H63540   3.455   6.917   1.083 -1.6367  1.6783  2.2954
  471MOL0     H63541   3.498   7.152   1.037  0.3068  0.3989  1.9540
  471MOL0     H63542   3.559   7.067   0.905 -5.2468  1.5639  0.0257
  471MOL0     H63543   3.792   7.065   1.044 -1.0835 -1.2699  2.9780
  471MOL0     H63544   3.708   7.199   1.131  0.9858  1.1619 -1.4500
  471MOL0     H63545   3.849   7.225   0.700  2.1814  0.3764 -1.6369
  471MOL0     H63546   4.076   7.328   0.657 -1.8881  0.1011 -2.5123
  471MOL0     H63547   4.311   7.720   0.550  0.7961  0.8190 -0.3564
  471MOL0     H63548   4.545   7.805   0.491 -2.2668 -0.0958 -0.8558
  471MOL0     H63549   4.790   7.838   0.472  0.7498  2.6443 -0.2043
  471MOL0     H63550   4.779   7.898   0.641 -1.9250 -1.6220  1.2765
  471MOL0     H63551   4.988   7.931   0.572 -2.2419  0.9845  1.5326
  471MOL0     H63552   4.999   7.804   0.689  1.1037  2.0475 -0.2554
  471MOL0     H63553   5.006   7.620   0.521  0.0169 -0.7758  0.5639
  471MOL0     H63554   5.008   7.725   0.385 -0.9274 -1.8967  0.2765
  471MOL0     H63555   5.226   7.703   0.578 -1.6019 -0.2967 -0.4287
  471MOL0     H63556   5.227   7.823   0.446  1.6610  0.6909 -1.0823
  471MOL0     H63557   5.199   7.607   0.293 -0.6880 -2.6772 -0.1273
  471MOL0     H63558   5.198   7.508   0.435 -1.2292 -0.8513 -3.9161
  471MOL0     H63559   5.412   7.703   0.326 -0.4517 -0.4576 -3.4591
  471MOL0     H63560   5.432   7.629   0.484  1.2260  0.2905 -0.6388
  471MOL0     H63561   5.378   7.414   0.336 -1.5557  0.5285  0.5397
  471MOL0     H63562   5.538   7.464   0.355  0.0225 -2.6301 -1.8493
  471MOL0     H63563   5.465   7.405   0.120  2.1347  1.0250  0.7335
  471MOL0     H63564   5.351   7.554   0.119  0.0953  1.0386 -0.6186
  471MOL0     H63565   4.709   7.472   0.702  0.7977  1.0696 -0.7172
  471MOL0     H63566   4.479   7.401   0.767 -0.7104 -0.2062  0.4886
  471MOL0     H63567   4.082   7.469   1.053 -1.3965 -0.2362  0.5325
  471MOL0     H63568   3.870   7.363   1.109  2.3650 -0.1537  2.0667
  471MOL0     H63569   2.383   6.233   1.094 -1.2219  1.1638  3.0428
  471MOL0     H63570   2.268   6.008   1.112 -1.1818  2.6677  0.9355
  471MOL0     H63571   2.060   5.693   1.431  0.3617  0.3393 -1.6298
  471MOL0     H63572   1.904   5.523   1.328 -0.5113  0.5052 -0.8333
  471MOL0     H63573   1.817   5.467   1.136  2.0562  0.5671  1.6663
  471MOL0     H63574   1.766   5.303   1.136  0.8508 -1.4146 -0.8418
  471MOL0     H63575   1.969   5.377   0.935  1.4578 -3.0934 -0.6477
  471MOL0     H63576   1.794   5.409   0.915  1.3584  1.9700  2.2115
  471MOL0     H63577   1.752   5.170   0.954  0.5044 -1.3483  0.5740
  471MOL0     H63578   1.925   5.141   0.989 -1.0601  1.8086  3.1538
  471MOL0     H63579   1.839   5.081   0.735  0.6285 -0.7495 -0.9196
  471MOL0     H63580   1.818   5.258   0.731 -0.3139  0.7124  1.5383
  471MOL0     H63581   2.237   5.246   0.701 -1.3530  2.0183 -2.8340
  471MOL0     H63582   2.212   5.340   1.109 -2.7714  0.1902 -1.4655
  471MOL0     H63583   2.469   5.497   1.256  0.2915  1.8303 -0.9579
  471MOL0     H63584   2.428   5.472   1.074 -2.6735  2.6474 -2.5673
  471MOL0     H63585   2.450   5.628   1.145 -1.9704  1.3911  1.1413
  472MOL0     O63586  10.250   7.781  10.360 -0.8104 -0.3003 -0.7695
  472MOL0     C63587  10.154   7.762  10.289  0.8002 -0.8607  0.7526
  472MOL0     O63588  10.155   7.796  10.155  0.3709  0.5040  0.2672
  472MOL0     C63589  10.264   7.794  10.072  0.2328  0.9447  0.5041
  472MOL0     C63590  10.281   7.886   9.966  0.5682 -0.1871 -1.2058
  472MOL0     C63591  10.383   7.854   9.872  0.2893 -0.5335 -0.8871
  472MOL0     C63592  10.474   7.746   9.893  0.0779 -0.6918 -0.4295
  472MOL0     O63593  10.583   7.740   9.811  0.1255 -0.2014  0.6768
  472MOL0     C63594  10.656   7.622   9.802 -0.7265 -0.2064 -0.7199
  472MOL0     C63595  10.746   7.636   9.679  0.0525 -0.4533 -0.2939
  472MOL0     C63596  10.885   7.591   9.712  0.9411  0.7837  0.8139
  472MOL0     C63597  10.976   7.558   9.598  0.4317  0.2188 -0.6503
  472MOL0     C63598  11.105   7.538   9.674 -1.4233 -0.0900 -0.3123
  472MOL0     C63599  11.217   7.517   9.575  0.0044  0.8418  0.7689
  472MOL0     C63600  11.196   7.379   9.500 -0.5729  0.3684  0.2473
  472MOL0     C63601  11.313   7.309   9.440 -0.3802 -0.8367 -0.0920
  472MOL0     N63602  11.396   7.403   9.363 -0.4255 -0.3744  0.6970
  472MOL0     C63603  11.355   7.486   9.263  0.0815 -0.5676  0.5546
  472MOL0     C63604  11.459   7.552   9.226 -0.6196 -0.9433 -0.8087
  472MOL0     C63605  11.468   7.657   9.122 -0.2994 -0.3228  0.7083
  472MOL0     C63606  11.552   7.607   8.997 -0.1926  0.4200  1.0043
  472MOL0     C63607  11.506   7.472   8.930 -0.6113 -0.5111 -0.5731
  472MOL0     C63608  11.558   7.448   8.779  0.1946  1.1607 -0.3480
  472MOL0     O63609  11.517   7.329   8.729  0.7571 -0.7630  0.1045
  472MOL0     C63610  11.533   7.292   8.599 -0.7092 -0.1414  0.4029
  472MOL0     C63611  11.564   7.167   8.560  1.2266 -0.4708 -0.6348
  472MOL0     C63612  11.579   7.126   8.424 -0.0670  0.3159  0.5492
  472MOL0     C63613  11.582   7.231   8.324  0.5307 -0.2703  0.3864
  472MOL0     C63614  11.622   7.207   8.179 -0.2957 -0.4533 -0.9941
  472MOL0     O63615  11.611   7.078   8.134  0.2820 -1.0035  0.1717
  472MOL0     C63616  11.658   7.056   8.009 -0.2312 -0.2644  0.0078
  472MOL0     C63617  11.598   7.100   7.891 -0.0887  0.2899  0.6255
  472MOL0     C63618  11.637   7.050   7.764  0.1066 -0.0262  0.0536
  472MOL0     C63619  11.746   6.966   7.746  0.2648  0.4070 -0.7840
  472MOL0     O63620  11.794   6.912   7.628  0.2251  0.5051  0.4863
  472MOL0     C63621  11.769   6.992   7.506 -0.4832 -0.6545  0.5084
  472MOL0     C63622  11.870   6.951   7.399 -0.3205  0.7308 -0.4092
  472MOL0     C63623  11.870   6.802   7.358 -0.1618  0.3525 -0.3827
  472MOL0     C63624  11.741   6.765   7.275 -1.2088  0.1284  0.1407
  472MOL0     C63625  11.761   6.627   7.216  0.0567  0.4995 -0.5178
  472MOL0     C63626  11.658   6.580   7.122  0.5538  0.5396 -0.8070
  472MOL0     C63627  11.617   6.661   7.007  0.0729 -0.2159  0.6528
  472MOL0     C63628  11.730   6.727   6.942 -0.8788 -0.0060 -0.0428
  472MOL0    Cl63629  11.674   6.798   6.796 -0.0126 -0.2957  0.1008
  472MOL0     C63630  11.816   6.930   7.858  0.6208  0.5183  0.2598
  472MOL0     C63631  11.762   6.966   7.991  0.2724  0.2870 -0.0508
  472MOL0     O63632  11.683   7.301   8.123  0.2524  0.2120 -0.3345
  472MOL0     C63633  11.555   7.360   8.359 -0.0211  0.6943 -1.3901
  472MOL0     C63634  11.537   7.392   8.497  0.3030 -0.5145  0.0397
  472MOL0     N63635  11.564   7.522   9.309 -0.6706  0.4280  0.7882
  472MOL0     N63636  11.527   7.429   9.393 -0.1001 -0.4983  0.4764
  472MOL0     C63637  10.457   7.659  10.001  0.4430 -0.2362 -0.6769
  472MOL0     C63638  10.350   7.680  10.082 -0.1283  0.5774  0.6048
  472MOL0     C63639  10.022   7.726  10.348  0.7027  0.2964  0.3472
  472MOL0     C63640   9.913   7.748  10.264  0.3367 -0.8014  0.2420
  472MOL0     C63641   9.783   7.730  10.320 -0.2585 -0.3423 -0.1423
  472MOL0     C63642   9.766   7.668  10.437  0.1004 -0.0821  0.5155
  472MOL0     O63643   9.638   7.634  10.473 -0.4212 -0.9724 -0.2122
  472MOL0     C63644   9.623   7.612  10.613 -0.5641  0.2772 -0.0380
  472MOL0     C63645   9.479   7.622  10.652 -0.1216 -0.3315  0.5538
  472MOL0     C63646   9.458   7.610  10.803  0.9253  0.1064  0.0307
  472MOL0     C63647   9.313   7.621  10.843  0.1294  0.0103 -0.2769
  472MOL0     C63648   9.302   7.640  10.987 -0.4140 -0.4642 -0.7143
  472MOL0     C63649   9.323   7.656  11.105 -1.3498  0.3870 -0.0783
  472MOL0     C63650   9.877   7.639  10.524 -0.6850  0.3210  0.4455
  472MOL0     C63651  10.005   7.678  10.478 -0.9551 -0.7390  0.0911
  472MOL0     C63652  10.112   7.659  10.577 -0.0547  0.4826 -0.2250
  472MOL0     H63653  10.206   7.960   9.943  1.4288  1.3499  0.6056
  472MOL0     H63654  10.389   7.919   9.786  3.6913 -2.8490 -2.6012
  472MOL0     H63655  10.722   7.610   9.889  0.1275 -1.3852 -1.4954
  472MOL0     H63656  10.594   7.533   9.807  0.8568 -1.4600 -2.1093
  472MOL0     H63657  10.756   7.737   9.639 -2.7239 -0.1275 -0.3578
  472MOL0     H63658  10.702   7.579   9.596  0.5466  0.9569 -1.5453
  472MOL0     H63659  10.869   7.496   9.764  0.5344  0.9941  1.0777
  472MOL0     H63660  10.933   7.662   9.780  1.6112  1.1534 -0.0150
  472MOL0     H63661  10.942   7.470   9.544 -3.1064  0.1588  1.3824
  472MOL0     H63662  10.993   7.642   9.530  0.3283  0.6350 -0.1693
  472MOL0     H63663  11.136   7.630   9.724  1.0556 -1.5754  1.0481
  472MOL0     H63664  11.093   7.463   9.753 -0.9772  0.3553  0.1791
  472MOL0     H63665  11.203   7.601   9.506 -1.7450 -1.8425 -2.4543
  472MOL0     H63666  11.323   7.529   9.602  0.8509  0.4600 -2.0894
  472MOL0     H63667  11.114   7.401   9.431 -1.2660 -0.5336  0.7619
  472MOL0     H63668  11.141   7.310   9.565 -1.4373  0.5840 -0.2486
  472MOL0     H63669  11.369   7.258   9.519  0.1343  1.0822  0.8514
  472MOL0     H63670  11.267   7.236   9.372 -2.2440 -1.3366  1.6323
  472MOL0     H63671  11.263   7.504   9.209  0.7986 -0.4959 -0.6686
  472MOL0     H63672  11.368   7.683   9.085  1.3380  0.4214 -3.8842
  472MOL0     H63673  11.523   7.737   9.171 -1.2084  1.2391 -0.7427
  472MOL0     H63674  11.537   7.691   8.927  2.3970 -0.5984 -0.9600
  472MOL0     H63675  11.659   7.605   9.020  0.1467 -2.2710 -0.4326
  472MOL0     H63676  11.398   7.487   8.923 -0.4030  0.4064 -2.1654
  472MOL0     H63677  11.525   7.395   9.006  3.1439  1.7556  1.0448
  472MOL0     H63678  11.666   7.449   8.794 -0.1805  1.0662  3.3160
  472MOL0     H63679  11.538   7.535   8.716  2.3665  1.7165 -0.3274
  472MOL0     H63680  11.566   7.090   8.637  0.2810 -1.2669 -1.3673
  472MOL0     H63681  11.603   7.021   8.410  0.7478  0.7230 -1.5121
  472MOL0     H63682  11.508   7.156   7.913  1.0721  2.2920  0.5761
  472MOL0     H63683  11.584   7.081   7.674 -0.0459 -1.3568 -0.3443
  472MOL0     H63684  11.667   6.978   7.467  0.0034  0.8393 -1.4250
  472MOL0     H63685  11.785   7.099   7.523  0.4517 -0.5859 -0.6512
  472MOL0     H63686  11.847   7.002   7.304  1.0221  0.7501 -0.7465
  472MOL0     H63687  11.970   6.984   7.429  0.5715 -1.0799 -1.2114
  472MOL0     H63688  11.967   6.775   7.315  1.2501  1.3821  1.9893
  472MOL0     H63689  11.871   6.742   7.449 -0.0583 -0.2164 -0.7492
  472MOL0     H63690  11.731   6.844   7.200  0.1599  0.6611  0.4990
  472MOL0     H63691  11.647   6.780   7.330 -2.6411 -2.9866 -1.1792
  472MOL0     H63692  11.777   6.554   7.296  1.9219 -1.0524 -2.1755
  472MOL0     H63693  11.853   6.627   7.156 -0.0933  2.0134 -0.7838
  472MOL0     H63694  11.689   6.480   7.090 -1.1952 -1.0683  2.0815
  472MOL0     H63695  11.567   6.570   7.181  1.1781 -2.1063 -0.1597
  472MOL0     H63696  11.547   6.736   7.044 -1.1050 -0.7522 -0.4025
  472MOL0     H63697  11.554   6.594   6.948  1.5345 -1.1605  0.1202
  472MOL0     H63698  11.784   6.799   7.004  0.3161  0.2647 -1.3454
  472MOL0     H63699  11.791   6.642   6.909 -2.6683 -1.6678  0.6672
  472MOL0     H63700  11.898   6.860   7.845  0.2682  0.4702 -2.0888
  472MOL0     H63701  11.797   6.917   8.081  0.1625  0.3394  0.0205
  472MOL0     H63702  11.564   7.442   8.288  2.6364  0.0615 -1.9037
  472MOL0     H63703  11.526   7.497   8.521  0.7069 -0.4266 -0.1489
  472MOL0     H63704  10.525   7.574  10.000  1.8788  0.8155 -2.7843
  472MOL0     H63705  10.320   7.615  10.163  0.0349  1.5028  1.4311
  472MOL0     H63706   9.928   7.782  10.162  1.3715 -0.7931  0.3844
  472MOL0     H63707   9.715   7.762  10.242  1.8786  2.5475 -1.0090
  472MOL0     H63708   9.658   7.694  10.676  2.9354  0.4871 -2.0060
  472MOL0     H63709   9.659   7.516  10.652  2.2006  0.6167 -1.5697
  472MOL0     H63710   9.419   7.541  10.608 -0.4010 -1.5950  3.0763
  472MOL0     H63711   9.431   7.715  10.618  1.8806  1.9940  3.5309
  472MOL0     H63712   9.509   7.694  10.852 -0.5014  1.0253 -0.0125
  472MOL0     H63713   9.496   7.515  10.841 -0.4739 -1.4936 -2.3328
  472MOL0     H63714   9.259   7.686  10.773 -1.6211 -0.0688  0.9252
  472MOL0     H63715   9.255   7.528  10.839 -3.3431  2.0278 -0.9140
  472MOL0     H63716   9.341   7.642  11.209 -1.8417 -3.9504 -0.3971
  472MOL0     H63717   9.865   7.615  10.629  1.9261  0.6041  0.8777
  472MOL0     H63718  10.113   7.751  10.635  0.5408  1.9957 -2.5055
  472MOL0     H63719  10.092   7.579  10.648 -1.3578  1.6516  0.7757
  472MOL0     H63720  10.205   7.629  10.528 -1.4582 -1.4125 -1.9670
  473MOL0     O63721   0.505   2.732   4.700 -0.2593  0.3978  0.3848
  473MOL0     C63722   0.518   2.633   4.624 -0.9563 -0.7227 -0.5521
  473MOL0     O63723   0.449   2.616   4.505 -0.5562  0.0919  0.6820
  473MOL0     C63724   0.354   2.699   4.453 -0.5564  0.8344 -0.3667
  473MOL0     C63725   0.353   2.841   4.468  0.1442  0.8647  0.6056
  473MOL0     C63726   0.249   2.920   4.416 -0.6287 -0.4806  0.9464
  473MOL0     C63727   0.152   2.861   4.333  0.7245 -0.9728 -0.5066
  473MOL0     O63728   0.045   2.933   4.285 -0.5365  0.5312  0.6781
  473MOL0     C63729   0.077   2.995   4.159 -0.0256 -0.2058  0.6340
  473MOL0     C63730  -0.046   2.964   4.062 -0.7800 -0.2406  0.0528
  473MOL0     C63731  -0.048   3.059   3.948  0.4104  0.3836  0.4887
  473MOL0     C63732   0.079   3.072   3.863  0.0894 -0.6593 -0.1705
  473MOL0     C63733   0.048   3.153   3.736 -0.1893 -0.0987 -0.8361
  473MOL0     C63734   0.174   3.157   3.649  0.1541 -0.6555 -0.3397
  473MOL0     C63735   0.147   3.221   3.511  0.0049  0.0728 -0.3984
  473MOL0     C63736   0.273   3.208   3.425 -0.0118  0.0457 -0.3586
  473MOL0     N63737   0.365   3.321   3.436  0.1424  0.9109 -1.6261
  473MOL0     C63738   0.333   3.446   3.404  0.2158  0.5226  0.2620
  473MOL0     C63739   0.453   3.513   3.443 -0.4321  0.4078 -0.2969
  473MOL0     C63740   0.479   3.659   3.449  0.4829 -0.9915 -0.1769
  473MOL0     C63741   0.347   3.733   3.467  0.6888  0.0580  0.3071
  473MOL0     C63742   0.268   3.757   3.333 -0.4025  0.0597  0.1348
  473MOL0     C63743   0.146   3.838   3.356  0.8845 -1.0377  0.2764
  473MOL0     O63744   0.185   3.975   3.381 -0.2768 -0.4725 -0.7451
  473MOL0     C63745   0.099   4.066   3.439 -0.6536 -0.3731 -0.8509
  473MOL0     C63746   0.155   4.187   3.463 -0.5292  0.1142  0.6083
  473MOL0     C63747   0.088   4.284   3.541 -0.4662 -0.2823 -1.2472
  473MOL0     C63748  -0.042   4.269   3.592  0.6546  0.3796  0.1202
  473MOL0     C63749  -0.121   4.356   3.682  0.3380 -0.0805 -0.0191
  473MOL0     O63750  -0.250   4.323   3.698 -0.1366  0.0698 -0.8039
  473MOL0     C63751  -0.330   4.425   3.744 -0.7680 -0.1558 -0.1204
  473MOL0     C63752  -0.387   4.522   3.659  0.3411  0.3411  0.4029
  473MOL0     C63753  -0.482   4.614   3.712 -0.2041 -0.9144  0.1967
  473MOL0     C63754  -0.530   4.598   3.841 -0.0192 -0.2590 -0.1951
  473MOL0     O63755  -0.634   4.678   3.887 -0.2552 -0.0996 -0.2407
  473MOL0     C63756  -0.765   4.613   3.886  0.0257 -0.5888  1.0080
  473MOL0     C63757  -0.825   4.652   3.750  0.1153 -0.0504 -0.0011
  473MOL0     C63758  -0.873   4.804   3.747 -0.2288 -0.0873  0.5627
  473MOL0     C63759  -1.022   4.816   3.795 -0.1627 -0.5145 -0.1213
  473MOL0     C63760  -1.070   4.964   3.789  0.7589 -0.5805 -0.2323
  473MOL0     C63761  -1.223   4.965   3.789 -0.0979 -1.0445  0.4180
  473MOL0     C63762  -1.284   5.111   3.815  0.4457 -0.1476  0.3131
  473MOL0     C63763  -1.435   5.112   3.797 -0.3526 -0.3102 -0.1349
  473MOL0    Cl63764  -1.499   5.269   3.828 -0.2040 -0.1202 -0.3327
  473MOL0     C63765  -0.477   4.493   3.925  0.2170 -0.9278 -0.6432
  473MOL0     C63766  -0.371   4.416   3.875  0.3560 -1.2594 -0.6857
  473MOL0     O63767  -0.066   4.446   3.749  0.1695  0.5479 -0.0241
  473MOL0     C63768  -0.105   4.152   3.544 -0.7300 -0.3860 -0.1180
  473MOL0     C63769  -0.034   4.052   3.479  0.1977  0.6031 -1.0471
  473MOL0     N63770   0.555   3.429   3.475 -0.1286 -0.6172  0.4792
  473MOL0     N63771   0.492   3.311   3.477  0.6871  0.1708  0.4617
  473MOL0     C63772   0.161   2.721   4.303  0.0052 -0.2506  0.7786
  473MOL0     C63773   0.264   2.650   4.358 -0.0795  0.1514  0.7727
  473MOL0     C63774   0.614   2.532   4.665 -0.3485  0.5148  0.5702
  473MOL0     C63775   0.749   2.565   4.636  0.4462 -0.7902 -0.8936
  473MOL0     C63776   0.841   2.458   4.640 -0.6041 -0.1437 -0.3875
  473MOL0     C63777   0.806   2.330   4.666 -0.4688 -0.1572 -0.0339
  473MOL0     O63778   0.904   2.231   4.682  0.5165  0.2128  0.1911
  473MOL0     C63779   1.000   2.197   4.575  0.7066  0.0894  1.1320
  473MOL0     C63780   0.962   2.249   4.432  1.1657 -0.8206  1.7382
  473MOL0     C63781   1.037   2.185   4.313 -0.3374 -0.3159 -0.0558
  473MOL0     C63782   1.000   2.234   4.168  0.4841  0.5006 -0.7577
  473MOL0     C63783   0.863   2.197   4.112  0.2470  0.3655 -0.6048
  473MOL0     C63784   0.750   2.181   4.065 -0.2381  1.1845  0.4732
  473MOL0     C63785   0.671   2.300   4.682  0.1035  0.2686  0.0612
  473MOL0     C63786   0.570   2.396   4.670 -0.1808 -0.5876  0.5171
  473MOL0     C63787   0.425   2.348   4.663  0.5993 -0.1232  0.8207
  473MOL0     H63788   0.432   2.895   4.521  1.9213 -0.5961 -0.4536
  473MOL0     H63789   0.237   3.023   4.450 -0.1971 -0.0263 -0.2295
  473MOL0     H63790   0.081   3.103   4.176  2.2805 -0.3048  0.9986
  473MOL0     H63791   0.170   2.964   4.111 -0.0871 -1.1957  1.1260
  473MOL0     H63792  -0.139   2.963   4.119 -0.7386  0.7294  0.1551
  473MOL0     H63793  -0.024   2.861   4.033  2.0004 -0.3144  2.0129
  473MOL0     H63794  -0.078   3.162   3.967 -2.5167 -0.2534 -0.1628
  473MOL0     H63795  -0.125   3.015   3.883  0.4011  0.5579  0.3807
  473MOL0     H63796   0.165   3.117   3.912  0.3785  2.4876 -3.1789
  473MOL0     H63797   0.110   2.971   3.833 -3.2005 -1.7864 -0.2617
  473MOL0     H63798  -0.035   3.104   3.684  0.1505 -2.0723  0.3565
  473MOL0     H63799   0.019   3.250   3.776  0.7792 -0.2018  0.1898
  473MOL0     H63800   0.252   3.213   3.702  0.6369 -0.2911 -1.4134
  473MOL0     H63801   0.207   3.055   3.629  2.0883 -0.2182  0.3978
  473MOL0     H63802   0.108   3.323   3.524 -3.8310 -1.3754  0.9614
  473MOL0     H63803   0.053   3.182   3.471 -0.0141  0.3430 -0.6177
  473MOL0     H63804   0.335   3.120   3.448  0.8391  0.9980  1.1621
  473MOL0     H63805   0.248   3.204   3.319  1.5569 -2.2422 -0.7303
  473MOL0     H63806   0.237   3.482   3.370  0.7963 -0.0935 -2.2834
  473MOL0     H63807   0.556   3.676   3.524  1.2264  0.2122 -1.1543
  473MOL0     H63808   0.519   3.692   3.352  0.0945 -0.5532 -0.1900
  473MOL0     H63809   0.274   3.691   3.536  1.2201 -1.3866  0.0183
  473MOL0     H63810   0.365   3.832   3.509  2.0650 -0.2388  0.4806
  473MOL0     H63811   0.237   3.665   3.282 -3.8040  2.3071 -2.2121
  473MOL0     H63812   0.329   3.800   3.254 -1.7772 -1.2583 -1.7381
  473MOL0     H63813   0.089   3.790   3.436  3.1015 -3.8530  0.3104
  473MOL0     H63814   0.086   3.836   3.266 -0.4882 -0.2366  1.1428
  473MOL0     H63815   0.261   4.203   3.444 -0.2159 -1.4478  0.8582
  473MOL0     H63816   0.144   4.369   3.580  0.1582 -2.6913  3.8868
  473MOL0     H63817  -0.358   4.529   3.555  0.0339 -1.4840  0.1572
  473MOL0     H63818  -0.525   4.686   3.643  2.5125 -1.2173 -1.9686
  473MOL0     H63819  -0.764   4.505   3.904 -0.4913 -0.2600  3.2536
  473MOL0     H63820  -0.825   4.657   3.966  0.8420  1.0889  0.7414
  473MOL0     H63821  -0.751   4.620   3.677  0.8393 -1.9069  1.4507
  473MOL0     H63822  -0.917   4.593   3.740 -0.6925  0.6263  2.5001
  473MOL0     H63823  -0.805   4.857   3.814  0.0605  0.3996 -0.1087
  473MOL0     H63824  -0.865   4.854   3.650  0.3724  0.1367  0.7291
  473MOL0     H63825  -1.046   4.780   3.895  0.9864  0.1330  0.4020
  473MOL0     H63826  -1.074   4.757   3.719  2.7540 -1.6526 -1.3872
  473MOL0     H63827  -1.027   5.017   3.704 -1.0752 -0.9241 -1.4035
  473MOL0     H63828  -1.037   5.009   3.884 -2.2388 -1.1728  1.2172
  473MOL0     H63829  -1.259   4.941   3.689  1.1029  1.1589 -0.6201
  473MOL0     H63830  -1.264   4.900   3.867  1.8093  2.8975  5.3440
  473MOL0     H63831  -1.235   5.191   3.758  2.5567 -2.0421 -0.6890
  473MOL0     H63832  -1.263   5.140   3.919 -1.8378  0.1450  0.7335
  473MOL0     H63833  -1.458   5.075   3.697 -2.8307 -4.2756  1.6719
  473MOL0     H63834  -1.486   5.043   3.863 -1.3065  0.9424  0.4782
  473MOL0     H63835  -0.511   4.485   4.028 -0.5266  3.0462 -0.4128
  473MOL0     H63836  -0.341   4.332   3.937 -4.6643 -1.5512  1.8525
  473MOL0     H63837  -0.212   4.135   3.553 -1.1232  1.5729 -0.5016
  473MOL0     H63838  -0.084   3.956   3.467  0.2931  0.1888  1.3024
  473MOL0     H63839   0.087   2.667   4.244 -3.8699  1.2754  3.7893
  473MOL0     H63840   0.278   2.550   4.318  1.0219  1.7911 -3.3887
  473MOL0     H63841   0.779   2.663   4.600  2.9669 -0.9814  0.4437
  473MOL0     H63842   0.948   2.478   4.632 -0.3317 -1.6632 -1.0484
  473MOL0     H63843   1.009   2.088   4.576 -1.0469 -0.1543 -1.0648
  473MOL0     H63844   1.094   2.247   4.601 -0.1350  0.5342  3.6056
  473MOL0     H63845   0.982   2.357   4.433  0.5444 -0.6670  0.4829
  473MOL0     H63846   0.857   2.242   4.400  0.7145  0.2616  2.9029
  473MOL0     H63847   1.021   2.077   4.316 -2.2961 -0.0581 -0.0525
  473MOL0     H63848   1.143   2.211   4.324 -0.8609  2.2694 -0.3584
  473MOL0     H63849   1.010   2.342   4.157 -0.4399  0.4508 -2.4156
  473MOL0     H63850   1.072   2.190   4.098 -0.8006 -3.1492 -0.0388
  473MOL0     H63851   0.655   2.165   4.018 -1.0677  2.4799  1.6474
  473MOL0     H63852   0.640   2.198   4.704  1.7963 -0.1908  0.4999
  473MOL0     H63853   0.383   2.348   4.562 -4.3451 -2.1035  2.5319
  473MOL0     H63854   0.419   2.242   4.690 -1.2392 -0.4504 -0.6360
  473MOL0     H63855   0.357   2.404   4.729 -3.3456 -1.7545 -1.4796
  474MOL0     O63856   7.677   9.814   8.748  0.2279 -0.0384  0.4260
  474MOL0     C63857   7.714   9.906   8.669  0.4190 -0.4992  0.3603
  474MOL0     O63858   7.842   9.954   8.647  0.1733 -0.0594  0.4474
  474MOL0     C63859   7.934   9.921   8.743  0.7590  0.4665  0.3244
  474MOL0     C63860   7.964   9.790   8.789  0.7722  0.3054 -0.8423
  474MOL0     C63861   8.066   9.771   8.881 -0.1949 -0.1060  0.0217
  474MOL0     C63862   8.141   9.881   8.922 -0.2470  0.4702 -0.2205
  474MOL0     O63863   8.232   9.869   9.019 -0.6833  0.1257 -0.3786
  474MOL0     C63864   8.253   9.984   9.105  0.7841  0.5317  0.2884
  474MOL0     C63865   8.315   9.957   9.239 -0.2872 -0.1769  0.3237
  474MOL0     C63866   8.457   9.897   9.228 -0.2685  0.2112  0.1796
  474MOL0     C63867   8.543   9.931   9.337  0.5182 -0.6309 -0.5976
  474MOL0     C63868   8.656   9.825   9.336 -0.5432 -0.1257  0.2447
  474MOL0     C63869   8.729   9.860   9.467 -0.1086  0.7215  1.0236
  474MOL0     C63870   8.870   9.783   9.478  0.2328  0.2900  0.8333
  474MOL0     C63871   8.860   9.671   9.578  0.3273 -0.1523  0.4187
  474MOL0     N63872   8.975   9.583   9.565  0.0860  0.2473  0.0739
  474MOL0     C63873   9.061   9.552   9.667 -0.1778 -0.4430  0.6541
  474MOL0     C63874   9.120   9.436   9.631  0.0218 -0.7178 -0.4773
  474MOL0     C63875   9.242   9.377   9.700  0.4199  0.0838 -0.8019
  474MOL0     C63876   9.363   9.358   9.599 -0.4017  0.0186  0.2116
  474MOL0     C63877   9.499   9.318   9.666  0.3128 -0.4852 -0.2720
  474MOL0     C63878   9.611   9.284   9.560  0.3471 -0.4130 -0.2893
  474MOL0     O63879   9.647   9.403   9.493  0.0436  0.3127 -0.1059
  474MOL0     C63880   9.732   9.499   9.549 -0.0813  0.2653 -1.3101
  474MOL0     C63881   9.793   9.481   9.675 -0.0134 -0.4716  0.2407
  474MOL0     C63882   9.887   9.575   9.719 -0.2119 -0.2974  0.5090
  474MOL0     C63883   9.920   9.688   9.643  0.0509  0.0000  0.7520
  474MOL0     C63884  10.019   9.786   9.687  0.1270  0.1282  0.7163
  474MOL0     O63885  10.052   9.763   9.812 -0.0305 -0.2000 -1.1567
  474MOL0     C63886  10.152   9.838   9.880 -0.4721 -1.0597  0.0578
  474MOL0     C63887  10.184   9.975   9.860  1.7024 -0.1086  0.3922
  474MOL0     C63888  10.273  10.043   9.926 -0.0593  0.0507  0.3826
  474MOL0     C63889  10.350   9.961  10.016  0.3030 -0.1440  0.6904
  474MOL0     O63890  10.462  10.011  10.084 -0.4432  0.4133  0.2962
  474MOL0     C63891  10.514  10.139  10.056  0.3021 -0.1119 -0.7406
  474MOL0     C63892  10.651  10.176  10.114 -0.4769  0.3132 -1.2411
  474MOL0     C63893  10.665  10.172  10.269 -0.3858  0.5892 -0.0620
  474MOL0     C63894  10.625  10.282  10.359  0.1595 -0.1797 -0.6203
  474MOL0     C63895  10.684  10.412  10.317 -0.4973  0.1496 -0.1791
  474MOL0     C63896  10.668  10.514  10.428  0.1735 -0.6352 -0.1040
  474MOL0     C63897  10.750  10.646  10.388  0.6825 -0.0056  0.8309
  474MOL0     C63898  10.665  10.739  10.303  0.2261 -0.0159  0.2409
  474MOL0    Cl63899  10.741  10.902  10.291 -0.3235 -0.0541 -0.0653
  474MOL0     C63900  10.319   9.831  10.050  0.3233 -1.1573  0.2315
  474MOL0     C63901  10.216   9.773   9.973  0.4963 -0.0217 -0.5649
  474MOL0     O63902  10.049   9.885   9.619  0.4188 -0.7263  0.4536
  474MOL0     C63903   9.859   9.699   9.515 -0.3611  0.3459  1.2395
  474MOL0     C63904   9.767   9.607   9.473 -0.0315  0.7018 -0.5781
  474MOL0     N63905   9.059   9.388   9.522 -0.1167 -0.4733  0.1882
  474MOL0     N63906   8.971   9.470   9.488  0.4673 -0.1176  0.5271
  474MOL0     C63907   8.109  10.012   8.871 -0.5043 -0.2472  0.6136
  474MOL0     C63908   7.997  10.035   8.788 -0.1010  0.8387 -0.0849
  474MOL0     C63909   7.600   9.981   8.606 -0.7434  0.6547  0.4982
  474MOL0     C63910   7.626  10.027   8.481 -0.8393 -0.6966 -1.0125
  474MOL0     C63911   7.529  10.092   8.400 -1.0056 -0.0441  0.2318
  474MOL0     C63912   7.401  10.117   8.455 -0.0233  0.0652 -0.2346
  474MOL0     O63913   7.310  10.180   8.370  0.1743  0.3081  0.3314
  474MOL0     C63914   7.237  10.288   8.429 -0.0645 -0.7271 -0.0458
  474MOL0     C63915   7.323  10.417   8.432  0.8312  0.2539  0.0086
  474MOL0     C63916   7.390  10.438   8.297 -0.6967 -0.1877 -0.9662
  474MOL0     C63917   7.436  10.583   8.261 -0.4774 -0.3700 -0.6212
  474MOL0     C63918   7.511  10.642   8.369  0.5136 -0.0522  0.1527
  474MOL0     C63919   7.580  10.696   8.447 -0.5692 -0.3343 -0.7507
  474MOL0     C63920   7.375  10.074   8.593  0.3649 -0.3029  0.1615
  474MOL0     C63921   7.475  10.005   8.659 -0.2303  0.1537 -0.3572
  474MOL0     C63922   7.432   9.965   8.802 -0.0464  0.4957 -0.6635
  474MOL0     H63923   7.911   9.706   8.746 -0.2619  1.2681 -1.4866
  474MOL0     H63924   8.074   9.669   8.918  2.8436  0.5383  1.4810
  474MOL0     H63925   8.302  10.064   9.050  0.3575 -0.5225 -1.7016
  474MOL0     H63926   8.154  10.027   9.125  0.1545  0.9250 -3.0828
  474MOL0     H63927   8.266   9.878   9.297  1.3699 -2.2591 -0.9428
  474MOL0     H63928   8.317  10.051   9.296  1.6610  0.7237 -1.1431
  474MOL0     H63929   8.499   9.952   9.143  0.7167 -1.1438 -0.2451
  474MOL0     H63930   8.449   9.790   9.211  2.4505 -0.4467  2.4012
  474MOL0     H63931   8.578  10.034   9.328 -0.5209 -0.2794 -0.7938
  474MOL0     H63932   8.494   9.920   9.434 -1.4526 -2.0316 -1.6897
  474MOL0     H63933   8.623   9.721   9.334 -0.7921 -0.0578  0.5564
  474MOL0     H63934   8.720   9.833   9.248 -1.6453  3.3707 -0.4087
  474MOL0     H63935   8.740   9.969   9.469 -0.8462  0.7910  1.4946
  474MOL0     H63936   8.672   9.831   9.556 -2.4449 -0.7734 -0.8338
  474MOL0     H63937   8.947   9.846   9.524  1.6437 -1.7726  1.4192
  474MOL0     H63938   8.914   9.758   9.380  0.2301 -2.3996  1.4573
  474MOL0     H63939   8.869   9.720   9.676  1.9954  2.1194 -0.7690
  474MOL0     H63940   8.768   9.613   9.569  0.0060  0.4118 -0.0083
  474MOL0     H63941   9.088   9.614   9.752  2.3319  0.5425 -0.7632
  474MOL0     H63942   9.273   9.442   9.782 -0.2483 -1.9388  1.1497
  474MOL0     H63943   9.229   9.282   9.753  2.2308 -1.1132 -2.3629
  474MOL0     H63944   9.343   9.268   9.539  1.0186  0.0812 -0.3977
  474MOL0     H63945   9.376   9.451   9.544 -2.6927  1.3673  1.7791
  474MOL0     H63946   9.478   9.224   9.716 -1.6469  0.7315  1.3122
  474MOL0     H63947   9.518   9.398   9.739  0.5948  2.2657 -3.1289
  474MOL0     H63948   9.576   9.202   9.496  0.2797 -2.2794  1.9657
  474MOL0     H63949   9.693   9.240   9.618 -0.9336  0.4683  2.3445
  474MOL0     H63950   9.774   9.394   9.737 -0.7333 -0.2198  0.3827
  474MOL0     H63951   9.933   9.545   9.812  0.0119 -0.9491  0.1902
  474MOL0     H63952  10.117  10.040   9.804  0.9712  1.9536  3.4031
  474MOL0     H63953  10.293  10.149   9.914 -0.2152  0.0088 -0.2824
  474MOL0     H63954  10.524  10.156   9.948  2.9331  1.2737 -0.3666
  474MOL0     H63955  10.441  10.205  10.104  0.0665 -0.7619 -0.2069
  474MOL0     H63956  10.729  10.109  10.077 -0.6669 -1.0357  0.6631
  474MOL0     H63957  10.680  10.275  10.078 -0.2606 -0.0960 -2.2087
  474MOL0     H63958  10.603  10.086  10.297  0.8132 -0.5864 -0.8820
  474MOL0     H63959  10.772  10.162  10.291  0.0691  2.9411 -0.9152
  474MOL0     H63960  10.651  10.256  10.462  1.1821  1.0882 -0.5408
  474MOL0     H63961  10.516  10.282  10.350  0.0915 -0.7311  0.0544
  474MOL0     H63962  10.634  10.440  10.224 -1.5441 -1.1407 -0.0310
  474MOL0     H63963  10.792  10.399  10.309 -0.6002 -0.4691 -0.6065
  474MOL0     H63964  10.562  10.528  10.452  0.2553  1.1384 -0.6819
  474MOL0     H63965  10.706  10.467  10.519  1.6102  0.9970  0.1826
  474MOL0     H63966  10.834  10.613  10.325 -0.4264 -0.0811 -0.6741
  474MOL0     H63967  10.785  10.690  10.482  1.2696 -1.5721  1.3747
  474MOL0     H63968  10.644  10.696  10.205 -0.4003 -0.3696  0.5283
  474MOL0     H63969  10.570  10.766  10.351  1.2499  2.0654  1.2431
  474MOL0     H63970  10.373   9.780  10.129  1.0152  0.3438  0.7606
  474MOL0     H63971  10.189   9.670   9.991 -0.4141  0.2988 -0.0422
  474MOL0     H63972   9.887   9.778   9.446 -2.1042 -0.3757 -0.3965
  474MOL0     H63973   9.738   9.623   9.370 -2.0779 -1.7148 -0.4862
  474MOL0     H63974   8.152  10.104   8.907  0.2211 -1.7270  3.8565
  474MOL0     H63975   7.972  10.138   8.767  1.4158  1.4433  0.9111
  474MOL0     H63976   7.718  10.000   8.431 -0.2527 -0.5884 -0.0117
  474MOL0     H63977   7.564  10.130   8.305  1.4260  0.9776  1.4645
  474MOL0     H63978   7.184  10.260   8.520  0.0064 -1.7146 -0.3004
  474MOL0     H63979   7.152  10.306   8.363 -2.4113 -4.2979  1.6814
  474MOL0     H63980   7.401  10.410   8.508  0.1712  0.6648  0.7430
  474MOL0     H63981   7.260  10.503   8.458 -0.2343  0.2011 -2.1631
  474MOL0     H63982   7.318  10.411   8.219 -1.3038  1.6755 -1.0938
  474MOL0     H63983   7.477  10.371   8.292  0.0592  0.7232 -0.4305
  474MOL0     H63984   7.496  10.574   8.170 -0.0537 -2.7134 -0.1841
  474MOL0     H63985   7.350  10.649   8.246 -1.1468 -0.9635  0.4545
  474MOL0     H63986   7.649  10.752   8.508  1.3494 -1.9406 -1.3510
  474MOL0     H63987   7.277  10.088   8.637 -0.2728  0.5402 -1.4448
  474MOL0     H63988   7.501  10.003   8.878 -0.6480 -1.7612  1.1303
  474MOL0     H63989   7.334   9.996   8.840 -0.2319 -1.5599  0.7163
  474MOL0     H63990   7.427   9.856   8.813 -0.6009  0.6051  0.2751
  475MOL0     O63991   9.384   3.692   4.301  0.1341 -0.4926  0.1819
  475MOL0     C63992   9.370   3.726   4.423  0.7232 -0.3285  0.0197
  475MOL0     O63993   9.456   3.707   4.532  0.1665  0.0443  0.7074
  475MOL0     C63994   9.548   3.607   4.530 -0.1931  0.1023  0.2661
  475MOL0     C63995   9.629   3.572   4.420 -0.2486  0.6821  0.3409
  475MOL0     C63996   9.723   3.473   4.445 -0.1915  0.8601 -0.4428
  475MOL0     C63997   9.734   3.409   4.565  0.2243  0.0837  0.3630
  475MOL0     O63998   9.813   3.300   4.575 -0.0114  0.8019  0.1056
  475MOL0     C63999   9.776   3.179   4.648 -0.1304  0.2911  0.2737
  475MOL0     C64000   9.904   3.089   4.684  0.7750 -0.8732  0.8337
  475MOL0     C64001   9.935   3.010   4.561 -0.3544 -0.1637  0.6015
  475MOL0     C64002  10.041   2.906   4.571 -0.4107  0.7868  0.3211
  475MOL0     C64003  10.188   2.952   4.549  0.5243 -0.3667 -0.0769
  475MOL0     C64004  10.274   2.817   4.562 -1.5859 -0.4430  1.3579
  475MOL0     C64005  10.407   2.827   4.471 -0.2555  0.5562  0.1850
  475MOL0     C64006  10.517   2.725   4.512 -0.3122 -0.5559  0.5960
  475MOL0     N64007  10.590   2.750   4.635 -0.1860 -0.1408 -0.3425
  475MOL0     C64008  10.622   2.656   4.729 -0.9727  0.6823 -0.0428
  475MOL0     C64009  10.665   2.719   4.836  0.2943 -1.1028 -1.0900
  475MOL0     C64010  10.709   2.666   4.965 -0.3597  0.6196 -0.4883
  475MOL0     C64011  10.860   2.692   4.976 -0.5572  0.6642  0.3088
  475MOL0     C64012  10.921   2.623   5.090  0.3221 -0.2375 -0.3472
  475MOL0     C64013  11.073   2.623   5.086 -0.6968 -0.4552  0.3122
  475MOL0     O64014  11.119   2.514   5.001 -0.0841 -0.4137  0.3182
  475MOL0     C64015  11.247   2.467   4.997 -0.7400  0.3116  0.4718
  475MOL0     C64016  11.351   2.522   5.063 -0.0782 -0.3997  0.2015
  475MOL0     C64017  11.478   2.460   5.037 -0.1779  0.1565 -0.2753
  475MOL0     C64018  11.491   2.341   4.959  0.5299 -0.0825 -0.6023
  475MOL0     C64019  11.619   2.261   4.968 -0.8029 -0.0782 -0.3633
  475MOL0     O64020  11.618   2.130   4.922 -0.1714 -0.3024  0.3934
  475MOL0     C64021  11.721   2.044   4.950 -0.0747  0.3099  0.8216
  475MOL0     C64022  11.848   2.091   4.941 -0.5543 -0.6720  0.2400
  475MOL0     C64023  11.956   2.012   4.950 -0.0887  0.0558 -0.2657
  475MOL0     C64024  11.937   1.868   4.971 -0.1245 -0.5372  1.0096
  475MOL0     O64025  12.035   1.767   4.977 -0.0147  0.1045 -0.3407
  475MOL0     C64026  12.178   1.811   4.973 -0.1524 -0.4933  0.3028
  475MOL0     C64027  12.229   1.842   4.833  0.3204 -0.2026  0.4967
  475MOL0     C64028  12.226   1.713   4.739  0.5286 -0.2816 -0.2961
  475MOL0     C64029  12.343   1.616   4.770 -0.0482 -0.3554  0.6650
  475MOL0     C64030  12.370   1.510   4.661  0.1506 -0.4692  0.0903
  475MOL0     C64031  12.514   1.458   4.683 -0.2574  0.2392 -0.1732
  475MOL0     C64032  12.546   1.359   4.571  1.1201  0.3954 -0.3058
  475MOL0     C64033  12.667   1.399   4.492 -0.5291 -0.0541 -0.7744
  475MOL0    Cl64034  12.625   1.491   4.351 -0.1232  0.1773  0.4877
  475MOL0     C64035  11.805   1.821   4.983 -0.1847  0.3492 -0.2546
  475MOL0     C64036  11.695   1.910   4.969 -0.0339  0.1660 -0.5163
  475MOL0     O64037  11.712   2.307   5.032  0.1973 -0.4033  0.3055
  475MOL0     C64038  11.377   2.277   4.908  0.3596  0.2759  0.5777
  475MOL0     C64039  11.261   2.348   4.919 -0.0704  0.4088 -0.7515
  475MOL0     N64040  10.646   2.859   4.823 -0.9223  0.9824  1.0968
  475MOL0     N64041  10.603   2.873   4.699 -0.2662 -0.7378 -0.3128
  475MOL0     C64042   9.651   3.450   4.667  0.3113 -0.3441 -1.1084
  475MOL0     C64043   9.564   3.562   4.652 -0.9898 -0.4355  0.0205
  475MOL0     C64044   9.252   3.807   4.456 -0.0768  1.3466 -0.0560
  475MOL0     C64045   9.223   3.827   4.588 -0.2255 -0.0350 -0.5799
  475MOL0     C64046   9.136   3.925   4.632 -0.6961  0.0557 -1.2148
  475MOL0     C64047   9.076   4.010   4.543  0.7173  0.1632  0.4858
  475MOL0     O64048   8.995   4.111   4.575 -0.4914 -0.3000  0.4047
  475MOL0     C64049   8.963   4.153   4.710  0.5869 -0.6071 -0.0338
  475MOL0     C64050   9.059   4.256   4.770 -0.9052  0.6464 -0.8206
  475MOL0     C64051   8.990   4.334   4.879  0.4764 -0.2328 -0.2624
  475MOL0     C64052   9.025   4.287   5.020  0.5442 -0.2142 -0.0930
  475MOL0     C64053   8.992   4.400   5.104  0.3229  0.7144 -1.4576
  475MOL0     C64054   8.966   4.486   5.187  0.7207 -1.0976 -0.6799
  475MOL0     C64055   9.096   3.990   4.408  0.3594 -0.1023 -0.2017
  475MOL0     C64056   9.172   3.881   4.364  0.3500 -0.1644 -0.4002
  475MOL0     C64057   9.177   3.876   4.213 -1.1827  0.4900  0.3951
  475MOL0     H64058   9.633   3.631   4.329 -1.4619  0.5305  0.1630
  475MOL0     H64059   9.783   3.439   4.361  2.5112  0.1164  1.6429
  475MOL0     H64060   9.729   3.211   4.741 -0.1789  4.9019 -1.0896
  475MOL0     H64061   9.706   3.122   4.586  0.1183 -0.3352  0.5696
  475MOL0     H64062   9.886   3.020   4.767 -0.3475 -1.5201  0.0776
  475MOL0     H64063   9.984   3.155   4.720  0.2177  0.5426 -0.3847
  475MOL0     H64064   9.964   3.077   4.480 -1.0907 -1.1813 -0.5341
  475MOL0     H64065   9.842   2.961   4.532 -2.0788  2.8230  0.7409
  475MOL0     H64066  10.025   2.840   4.656 -5.1089 -1.1272 -1.6832
  475MOL0     H64067  10.024   2.845   4.482  2.0972  0.5925 -0.0979
  475MOL0     H64068  10.209   3.000   4.453  1.1273 -1.0417 -0.2939
  475MOL0     H64069  10.215   3.035   4.615 -0.0142  1.4836 -2.0791
  475MOL0     H64070  10.300   2.798   4.666  1.4947 -1.5030  0.5063
  475MOL0     H64071  10.210   2.739   4.521 -2.5939  1.2793 -0.5218
  475MOL0     H64072  10.430   2.932   4.487 -2.9659  0.8390  3.4598
  475MOL0     H64073  10.384   2.818   4.365  0.3609  1.6028 -0.0499
  475MOL0     H64074  10.473   2.624   4.509  0.2299 -0.8073 -3.6481
  475MOL0     H64075  10.584   2.730   4.427  0.9815  0.5063  1.6334
  475MOL0     H64076  10.613   2.548   4.719  0.6993  0.4186  0.9990
  475MOL0     H64077  10.648   2.701   5.049 -0.4267  0.7096 -0.5746
  475MOL0     H64078  10.676   2.561   4.969 -2.0752  1.1496  0.0614
  475MOL0     H64079  10.912   2.660   4.886 -0.2847  2.5167 -0.2360
  475MOL0     H64080  10.884   2.799   4.970  0.6730  0.4121  0.4277
  475MOL0     H64081  10.891   2.518   5.080 -2.0989  0.2618  0.8024
  475MOL0     H64082  10.875   2.654   5.185 -1.1147  2.4237 -1.8088
  475MOL0     H64083  11.089   2.602   5.192 -0.6499 -0.3567  0.3241
  475MOL0     H64084  11.130   2.715   5.069  1.7916 -1.5596  1.9629
  475MOL0     H64085  11.346   2.600   5.138  1.8891 -1.5511  1.6392
  475MOL0     H64086  11.565   2.500   5.087  0.4659 -2.0704  0.5392
  475MOL0     H64087  11.857   2.192   4.902 -2.2994 -0.5610  0.0222
  475MOL0     H64088  12.054   2.060   4.952 -0.5588  1.0951  2.6287
  475MOL0     H64089  12.187   1.898   5.038  1.1461  1.2385 -2.0203
  475MOL0     H64090  12.240   1.728   5.008  1.4540  0.4804 -0.1242
  475MOL0     H64091  12.170   1.921   4.785  0.8362 -1.1425 -1.8205
  475MOL0     H64092  12.332   1.878   4.838  0.4346 -0.6683  3.3327
  475MOL0     H64093  12.136   1.655   4.760  0.9843 -1.3121 -1.0593
  475MOL0     H64094  12.230   1.755   4.638 -0.0179  2.4996  0.7590
  475MOL0     H64095  12.325   1.551   4.856 -1.4223 -0.3658  0.4034
  475MOL0     H64096  12.432   1.678   4.786 -0.8239  1.0759 -0.2737
  475MOL0     H64097  12.360   1.560   4.565 -0.5993  1.4442  1.1099
  475MOL0     H64098  12.289   1.437   4.661 -0.8379  0.5985  0.3102
  475MOL0     H64099  12.583   1.541   4.670  0.1671 -0.0203  0.4049
  475MOL0     H64100  12.530   1.403   4.776  0.5610 -3.5694 -2.3487
  475MOL0     H64101  12.465   1.359   4.497  1.4645 -0.6107 -0.6857
  475MOL0     H64102  12.557   1.256   4.606 -2.9780 -0.8448 -2.0075
  475MOL0     H64103  12.733   1.455   4.559  0.7639  1.2873 -3.0397
  475MOL0     H64104  12.715   1.309   4.455  0.3259  1.3052 -3.1842
  475MOL0     H64105  11.800   1.713   4.995  0.7147  0.3680  0.3871
  475MOL0     H64106  11.592   1.876   4.975  0.2763 -0.6021  0.8549
  475MOL0     H64107  11.386   2.185   4.851 -0.9147 -0.3880  1.4046
  475MOL0     H64108  11.166   2.306   4.888  0.9149 -0.6180 -2.5471
  475MOL0     H64109   9.659   3.405   4.766  0.8808  1.9646 -0.0505
  475MOL0     H64110   9.519   3.615   4.735 -0.8456 -1.4657  0.7800
  475MOL0     H64111   9.267   3.770   4.669 -2.2944 -2.2249 -0.8821
  475MOL0     H64112   9.132   3.939   4.739  1.8893  0.0126 -1.0476
  475MOL0     H64113   8.947   4.072   4.782  0.8102  0.4994  1.2843
  475MOL0     H64114   8.871   4.207   4.689  1.0918 -0.7587 -3.1873
  475MOL0     H64115   9.092   4.325   4.692 -0.0822  2.2794  0.8755
  475MOL0     H64116   9.146   4.203   4.810 -1.5400 -0.5114 -0.9463
  475MOL0     H64117   8.883   4.330   4.860  0.0706 -1.7569  1.9678
  475MOL0     H64118   9.028   4.437   4.874  0.0102 -0.0199  0.4338
  475MOL0     H64119   8.968   4.200   5.053 -0.2662  0.0049 -0.8775
  475MOL0     H64120   9.133   4.269   5.017  0.7650  1.0914 -1.3242
  475MOL0     H64121   8.937   4.560   5.259  3.3025 -0.9822  0.3364
  475MOL0     H64122   9.055   4.052   4.330 -0.0128  0.2549  0.2688
  475MOL0     H64123   9.268   3.906   4.161 -1.2638 -2.8552 -2.0642
  475MOL0     H64124   9.175   3.771   4.184  1.0125  0.8387 -1.2412
  475MOL0     H64125   9.095   3.931   4.164 -2.3625 -2.4148 -1.1520
  476MOL0     O64126   5.607   0.793   7.304 -0.0154 -0.1648 -0.2227
  476MOL0     C64127   5.697   0.855   7.251  1.2547 -0.9603  0.2138
  476MOL0     O64128   5.776   0.948   7.318  0.8788  0.2823  0.3768
  476MOL0     C64129   5.792   0.945   7.451 -0.0029 -0.1096  0.1911
  476MOL0     C64130   5.895   0.863   7.504 -0.6883 -0.7640  0.2450
  476MOL0     C64131   5.902   0.849   7.644  1.0644  0.0100 -0.4368
  476MOL0     C64132   5.810   0.922   7.726 -0.6163 -0.5879  0.1593
  476MOL0     O64133   5.813   0.908   7.862  0.1157 -0.7287 -0.8769
  476MOL0     C64134   5.693   0.858   7.920 -0.0243  0.4202  0.3167
  476MOL0     C64135   5.707   0.841   8.071  0.7305  0.1460  0.0038
  476MOL0     C64136   5.797   0.731   8.118 -1.0980 -0.1997  0.2243
  476MOL0     C64137   5.833   0.749   8.267 -0.0566  0.2489  0.9981
  476MOL0     C64138   5.910   0.624   8.309  0.1124 -0.5124  0.0254
  476MOL0     C64139   5.947   0.612   8.455 -0.0263  0.2680  0.2040
  476MOL0     C64140   5.971   0.459   8.487  0.6437  0.0531  0.3499
  476MOL0     C64141   5.989   0.433   8.638 -0.1890 -0.9978  0.5424
  476MOL0     N64142   5.996   0.282   8.653  0.6496  0.2429  0.2126
  476MOL0     C64143   6.110   0.208   8.657 -0.8633 -0.8742 -0.1188
  476MOL0     C64144   6.077   0.077   8.640 -0.6149 -0.0529 -0.4001
  476MOL0     C64145   6.164  -0.045   8.632  0.0095  0.9915 -0.7304
  476MOL0     C64146   6.279  -0.039   8.734 -0.3496 -0.9233 -0.4242
  476MOL0     C64147   6.375  -0.149   8.685  0.3732 -0.1403  0.2894
  476MOL0     C64148   6.503  -0.106   8.616  0.1655  0.3789  0.2864
  476MOL0     O64149   6.499  -0.063   8.484  0.6146 -0.7297  0.4986
  476MOL0     C64150   6.470   0.067   8.468  0.2977 -1.0219 -0.4771
  476MOL0     C64151   6.540   0.174   8.542  0.6201  1.5413 -0.3523
  476MOL0     C64152   6.503   0.312   8.512  1.0487  0.1527  0.0797
  476MOL0     C64153   6.408   0.343   8.408  0.0502  0.1508  0.7758
  476MOL0     C64154   6.383   0.478   8.353  0.3624 -0.4617  0.3556
  476MOL0     O64155   6.450   0.576   8.408 -0.0885  0.3944 -0.1033
  476MOL0     C64156   6.443   0.703   8.350  0.1178 -0.2110 -0.1668
  476MOL0     C64157   6.553   0.758   8.303 -1.1189 -0.3516  0.1492
  476MOL0     C64158   6.542   0.879   8.230 -0.1161  0.4791 -0.0020
  476MOL0     C64159   6.416   0.948   8.220  0.0791  0.1506  1.6622
  476MOL0     O64160   6.417   1.061   8.147  0.0259 -0.6832  0.2591
  476MOL0     C64161   6.329   1.050   8.038 -0.3069 -0.4253  0.2022
  476MOL0     C64162   6.343   1.155   7.931  0.4928 -0.2514  0.6275
  476MOL0     C64163   6.254   1.113   7.819 -0.7061  0.2846 -0.6600
  476MOL0     C64164   6.257   1.196   7.693  0.0862 -0.0455 -0.5946
  476MOL0     C64165   6.160   1.139   7.588  0.2377 -0.1680 -0.3464
  476MOL0     C64166   6.160   1.236   7.469  0.1325 -0.0957  0.5024
  476MOL0     C64167   6.032   1.218   7.382 -0.5579 -0.2358 -0.8418
  476MOL0     C64168   6.008   1.350   7.300  0.5421  0.0810  0.3374
  476MOL0    Cl64169   5.846   1.319   7.214 -0.6364 -0.0936 -0.3450
  476MOL0     C64170   6.300   0.893   8.268  0.5306  0.8389  0.1265
  476MOL0     C64171   6.317   0.773   8.335  0.7071 -0.0822 -0.5607
  476MOL0     O64172   6.321   0.483   8.248 -0.1820 -0.3039 -0.2227
  476MOL0     C64173   6.347   0.235   8.338  0.5077  0.5918  0.0250
  476MOL0     C64174   6.370   0.104   8.378 -0.2723  0.0692  0.7527
  476MOL0     N64175   5.941   0.074   8.628  0.0724 -0.3419  0.5709
  476MOL0     N64176   5.893   0.195   8.638  0.3130  0.3250  0.1373
  476MOL0     C64177   5.713   1.008   7.674 -0.2985 -0.5096  0.1899
  476MOL0     C64178   5.707   1.019   7.533 -0.1285 -0.4216 -0.1982
  476MOL0     C64179   5.707   0.854   7.104 -0.3659  0.0837  0.4562
  476MOL0     C64180   5.768   0.964   7.044 -0.2446 -0.3052  0.6718
  476MOL0     C64181   5.808   0.970   6.909  0.0237 -0.0151  0.0427
  476MOL0     C64182   5.778   0.860   6.838  0.1536 -0.6827 -0.2868
  476MOL0     O64183   5.812   0.855   6.715  0.0363 -0.3322 -0.2976
  476MOL0     C64184   5.949   0.821   6.685  0.0559  0.3509 -0.9388
  476MOL0     C64185   5.976   0.812   6.543 -0.8457 -0.3838 -0.1765
  476MOL0     C64186   5.917   0.922   6.454  0.4691  0.2825  0.7259
  476MOL0     C64187   5.942   1.063   6.496  0.6605  0.5395 -0.5046
  476MOL0     C64188   6.088   1.084   6.479 -0.1686 -0.0898 -0.0520
  476MOL0     C64189   6.204   1.100   6.469 -0.5820 -0.3437 -0.3951
  476MOL0     C64190   5.705   0.754   6.889  0.4742 -0.1380 -0.0287
  476MOL0     C64191   5.681   0.740   7.022  0.1860  0.4317  0.1209
  476MOL0     C64192   5.605   0.612   7.070 -0.5427 -0.0878  0.8151
  476MOL0     H64193   5.961   0.816   7.432 -0.9141  0.1689 -0.5870
  476MOL0     H64194   5.970   0.780   7.694  0.5847 -0.5025 -0.4744
  476MOL0     H64195   5.606   0.924   7.915 -0.7728 -0.5981 -0.9090
  476MOL0     H64196   5.673   0.760   7.875 -1.1030 -0.1317  1.9376
  476MOL0     H64197   5.601   0.827   8.093  0.4495  0.6236 -0.9756
  476MOL0     H64198   5.731   0.937   8.118 -2.3245  1.1457 -0.2077
  476MOL0     H64199   5.895   0.733   8.070 -1.0702 -2.8990  0.0073
  476MOL0     H64200   5.756   0.630   8.105  0.0726 -0.2789 -4.3597
  476MOL0     H64201   5.897   0.835   8.284  0.3801  0.5856 -1.7804
  476MOL0     H64202   5.741   0.758   8.327 -1.8756  1.7868 -1.7689
  476MOL0     H64203   5.844   0.539   8.289 -1.4009  0.7857 -0.7257
  476MOL0     H64204   5.999   0.611   8.247 -0.3938  2.3353 -1.4821
  476MOL0     H64205   6.032   0.677   8.482 -0.2706  0.0250  1.6230
  476MOL0     H64206   5.864   0.642   8.519 -1.1420 -1.1401 -0.5369
  476MOL0     H64207   6.058   0.425   8.429  2.2464 -0.1769  2.7612
  476MOL0     H64208   5.879   0.407   8.458  0.9597  0.4369 -1.4956
  476MOL0     H64209   6.076   0.484   8.680 -2.6710  1.1403  3.5702
  476MOL0     H64210   5.907   0.480   8.692  0.6578 -0.9707  1.8521
  476MOL0     H64211   6.212   0.245   8.660 -1.6354  1.6660 -1.6672
  476MOL0     H64212   6.114  -0.142   8.641  0.4917  0.7889 -0.2146
  476MOL0     H64213   6.207  -0.034   8.532 -0.5236  2.8738 -0.8033
  476MOL0     H64214   6.320   0.062   8.747 -1.1493 -0.8580  2.2013
  476MOL0     H64215   6.243  -0.054   8.836 -1.1505  1.1817 -0.3382
  476MOL0     H64216   6.319  -0.204   8.609 -0.4924 -1.3265  1.7463
  476MOL0     H64217   6.396  -0.210   8.773  1.3104  2.0913  1.6900
  476MOL0     H64218   6.561  -0.198   8.615  0.6888  0.6978 -1.4337
  476MOL0     H64219   6.557  -0.042   8.687 -1.4220 -1.0462  2.9625
  476MOL0     H64220   6.622   0.150   8.609 -1.0760 -2.0642  0.6567
  476MOL0     H64221   6.549   0.390   8.574 -0.1186  1.4971 -0.6918
  476MOL0     H64222   6.653   0.715   8.294 -0.4691  1.0108  0.6721
  476MOL0     H64223   6.634   0.921   8.188  0.9975  1.4016  3.1053
  476MOL0     H64224   6.353   0.954   7.991  0.0415 -0.0332 -0.4453
  476MOL0     H64225   6.225   1.054   8.073 -0.7635 -2.9412 -0.6208
  476MOL0     H64226   6.315   1.255   7.963  1.0355  0.1207 -0.0452
  476MOL0     H64227   6.450   1.156   7.907  1.1129 -0.8350  3.0651
  476MOL0     H64228   6.281   1.015   7.779 -2.6165 -0.4463 -0.2496
  476MOL0     H64229   6.155   1.118   7.865 -0.9861  2.6686 -1.3964
  476MOL0     H64230   6.359   1.203   7.653 -0.6155  1.1364 -2.3227
  476MOL0     H64231   6.217   1.296   7.713 -0.8522 -0.0086 -2.4933
  476MOL0     H64232   6.067   1.126   7.643  0.5880 -3.7614 -0.3455
  476MOL0     H64233   6.206   1.048   7.548  2.7125  0.5428  0.6500
  476MOL0     H64234   6.169   1.340   7.503 -0.7007 -0.5298  2.1580
  476MOL0     H64235   6.247   1.231   7.403  1.0861  0.6378  1.6447
  476MOL0     H64236   5.948   1.203   7.450  0.5228 -1.0417  0.3964
  476MOL0     H64237   6.037   1.131   7.316 -3.7132 -1.1877  0.0039
  476MOL0     H64238   6.001   1.438   7.364  1.9920  1.0659 -0.7804
  476MOL0     H64239   6.089   1.363   7.227 -1.3114  5.3970 -1.2815
  476MOL0     H64240   6.200   0.934   8.259 -0.1740 -0.8325  0.0169
  476MOL0     H64241   6.234   0.726   8.386  1.3604  0.3726  0.9752
  476MOL0     H64242   6.281   0.234   8.252  0.9221 -1.6041 -0.3118
  476MOL0     H64243   6.305   0.032   8.329 -3.4321  2.3789  1.2209
  476MOL0     H64244   5.638   1.058   7.736 -1.4992  1.1609 -2.3999
  476MOL0     H64245   5.629   1.084   7.493  2.1887  1.9525 -1.1395
  476MOL0     H64246   5.795   1.049   7.106 -1.4370  0.8298 -0.3104
  476MOL0     H64247   5.865   1.056   6.875 -2.5608  1.1032 -1.8413
  476MOL0     H64248   5.966   0.730   6.744  0.2235 -0.2999 -1.9529
  476MOL0     H64249   6.018   0.892   6.732 -1.5340  0.4135  1.4541
  476MOL0     H64250   5.932   0.714   6.523  0.9378 -1.4461  0.9313
  476MOL0     H64251   6.084   0.796   6.531 -0.5622  0.8546  0.5838
  476MOL0     H64252   5.814   0.887   6.450  0.6700 -0.9189  3.3873
  476MOL0     H64253   5.960   0.908   6.355  1.4226 -0.7775  1.2642
  476MOL0     H64254   5.874   1.127   6.439 -1.2276 -2.4833 -1.9068
  476MOL0     H64255   5.922   1.073   6.603  3.0911 -1.2797  0.2302
  476MOL0     H64256   6.310   1.114   6.456 -0.8172  2.1350 -0.1902
  476MOL0     H64257   5.681   0.683   6.811  1.5892  1.9746 -2.3992
  476MOL0     H64258   5.644   0.533   7.006  0.9881  1.8596 -0.7961
  476MOL0     H64259   5.628   0.584   7.173  2.3860 -1.3978 -0.0845
  476MOL0     H64260   5.498   0.622   7.048 -0.0442  2.7641 -0.9821
  477MOL0     O64261   4.522   8.930  10.012  0.0252 -0.3428 -0.5288
  477MOL0     C64262   4.509   8.807   9.975 -0.1568  0.5520  0.9649
  477MOL0     O64263   4.397   8.749   9.913  1.1370 -0.4952  0.8199
  477MOL0     C64264   4.279   8.820   9.922  0.5068  0.0434  0.6566
  477MOL0     C64265   4.226   8.866  10.049 -0.0255 -0.2284  0.6365
  477MOL0     C64266   4.104   8.923  10.067 -0.5165  0.2874  0.0278
  477MOL0     C64267   4.027   8.942   9.957  0.2848  0.7391  0.3327
  477MOL0     O64268   3.908   9.005   9.972 -0.3308 -0.5184  0.2165
  477MOL0     C64269   3.793   8.940   9.914 -0.1802  0.1276  0.0349
  477MOL0     C64270   3.660   9.003   9.952  0.0075  0.4238 -0.0357
  477MOL0     C64271   3.661   9.139   9.901 -0.0144  0.3292 -0.3485
  477MOL0     C64272   3.526   9.192   9.857 -0.0965 -0.5610  0.8317
  477MOL0     C64273   3.509   9.347   9.852 -0.0729 -0.9089  0.0524
  477MOL0     C64274   3.611   9.416   9.766 -0.3874  1.0925 -0.1132
  477MOL0     C64275   3.588   9.570   9.750 -0.3990 -0.1855  0.4478
  477MOL0     C64276   3.494   9.604   9.634  0.0104  0.1389  0.0419
  477MOL0     N64277   3.487   9.751   9.596  0.8939  0.3151 -0.1846
  477MOL0     C64278   3.547   9.853   9.663  0.3387  0.0417 -0.7474
  477MOL0     C64279   3.465   9.953   9.657 -0.0025  0.2190 -0.3608
  477MOL0     C64280   3.494  10.084   9.725  0.6074 -0.3030  0.3109
  477MOL0     C64281   3.493  10.092   9.878 -0.1920  0.4982  0.1288
  477MOL0     C64282   3.410  10.211   9.931 -0.0072 -1.1078 -0.4884
  477MOL0     C64283   3.262  10.210   9.907  0.7869  0.3236  0.3934
  477MOL0     O64284   3.196  10.289  10.009 -0.0597  0.3680  1.1742
  477MOL0     C64285   3.172  10.424   9.994  0.1591 -0.2540  0.4701
  477MOL0     C64286   3.234  10.514   9.912  1.1546  0.2996  0.1604
  477MOL0     C64287   3.192  10.649   9.894  0.4678  0.4439 -0.2104
  477MOL0     C64288   3.092  10.688   9.982 -0.1543 -0.3322 -0.0958
  477MOL0     C64289   3.048  10.827   9.979 -0.1337  0.1744 -0.5711
  477MOL0     O64290   2.949  10.855  10.069  0.0242 -0.0996 -0.2723
  477MOL0     C64291   2.927  10.992  10.109  1.0908  0.2405 -0.1011
  477MOL0     C64292   3.006  11.107  10.077  0.6494 -0.3166  1.1257
  477MOL0     C64293   2.965  11.234  10.108  0.4879  0.2596  0.2329
  477MOL0     C64294   2.851  11.256  10.182  0.3784  0.3270 -0.1278
  477MOL0     O64295   2.810  11.388  10.201  0.2588 -0.2818 -0.6807
  477MOL0     C64296   2.851  11.433  10.335  0.4081  0.1094 -1.0374
  477MOL0     C64297   2.842  11.590  10.349 -0.0930 -0.4133 -0.0613
  477MOL0     C64298   2.700  11.639  10.375 -0.5055 -0.0441  0.4488
  477MOL0     C64299   2.687  11.794  10.374 -0.1903  0.4614  0.1397
  477MOL0     C64300   2.605  11.842  10.495 -0.8610  0.3679 -0.0958
  477MOL0     C64301   2.593  11.998  10.499  0.0855  0.2392 -0.4931
  477MOL0     C64302   2.483  12.052  10.590 -0.4177 -0.0524 -0.0555
  477MOL0     C64303   2.530  12.028  10.740  1.3042  0.4823  0.3234
  477MOL0    Cl64304   2.676  12.133  10.793 -0.3570  0.0457 -0.3539
  477MOL0     C64305   2.781  11.148  10.232  0.3906  0.6017  0.3357
  477MOL0     C64306   2.820  11.020  10.193 -0.1031  0.9985  1.6224
  477MOL0     O64307   3.088  10.890   9.885 -0.0393 -0.0302 -0.1147
  477MOL0     C64308   3.032  10.599  10.073 -0.2557  0.1875  0.1870
  477MOL0     C64309   3.062  10.461  10.073  0.3745 -0.1745 -0.3517
  477MOL0     N64310   3.358   9.922   9.567  0.0554 -0.0721 -0.8257
  477MOL0     N64311   3.373   9.801   9.540  0.3597 -0.3750  0.5733
  477MOL0     C64312   4.077   8.915   9.832 -0.0591 -0.2472  0.6353
  477MOL0     C64313   4.196   8.844   9.811 -0.1030  0.5549  0.1674
  477MOL0     C64314   4.637   8.726   9.959 -0.2259 -0.3980 -0.1196
  477MOL0     C64315   4.648   8.626   9.854  0.0531  0.5866 -1.0751
  477MOL0     C64316   4.771   8.558   9.835  0.7175  0.0584 -0.0474
  477MOL0     C64317   4.883   8.586   9.917 -0.2441 -0.0345 -0.2188
  477MOL0     O64318   5.013   8.535   9.893 -0.1616  0.9405 -0.8087
  477MOL0     C64319   5.055   8.540   9.757  0.8507  0.0167  0.0671
  477MOL0     C64320   5.142   8.666   9.739  0.9608  0.1964 -0.1313
  477MOL0     C64321   5.197   8.689   9.593  0.1737 -0.4131  0.1706
  477MOL0     C64322   5.297   8.584   9.533 -0.6425  0.4516  0.4287
  477MOL0     C64323   5.430   8.604   9.592  0.7782  0.3151 -0.6342
  477MOL0     C64324   5.543   8.625   9.650  0.8650 -0.7120 -0.8459
  477MOL0     C64325   4.874   8.688  10.017  0.7630 -0.5832  0.3748
  477MOL0     C64326   4.749   8.753  10.042  0.5637  0.4221 -0.1676
  477MOL0     C64327   4.734   8.839  10.165 -0.1999  0.1358 -0.4186
  477MOL0     H64328   4.293   8.844  10.131 -0.7338 -3.0312  0.5868
  477MOL0     H64329   4.081   8.937  10.172 -1.0320 -0.1829 -0.0118
  477MOL0     H64330   3.806   8.936   9.806  0.0868 -0.2260  0.0746
  477MOL0     H64331   3.798   8.835   9.945  0.1844  0.1295 -0.0071
  477MOL0     H64332   3.655   9.022  10.060  0.8911 -1.2281  0.3268
  477MOL0     H64333   3.577   8.946   9.909 -0.5345  2.6805 -2.2194
  477MOL0     H64334   3.740   9.145   9.825  1.0765  0.3159  0.7361
  477MOL0     H64335   3.686   9.204   9.986 -0.3892 -0.5376  0.4392
  477MOL0     H64336   3.500   9.147   9.760 -2.0403  0.1523  0.9807
  477MOL0     H64337   3.447   9.168   9.929  1.0240  0.8987  2.5946
  477MOL0     H64338   3.414   9.375   9.804  1.5694  1.1272 -2.2597
  477MOL0     H64339   3.514   9.391   9.951  0.5523  0.8681 -0.7349
  477MOL0     H64340   3.709   9.399   9.811 -0.6923 -0.0392  0.1487
  477MOL0     H64341   3.616   9.375   9.664 -0.1106  2.3690 -0.6319
  477MOL0     H64342   3.676   9.633   9.737  0.8285 -1.2910  2.8556
  477MOL0     H64343   3.557   9.602   9.850  0.9637 -0.4706  0.9757
  477MOL0     H64344   3.526   9.549   9.545 -1.2117 -1.2176  0.4021
  477MOL0     H64345   3.391   9.581   9.661 -0.6133 -0.2501 -2.4280
  477MOL0     H64346   3.634   9.856   9.727  1.0147  0.4467 -1.6581
  477MOL0     H64347   3.583  10.136   9.686  2.3066 -2.5509  1.0080
  477MOL0     H64348   3.410  10.136   9.679  0.2490 -0.7208  0.4884
  477MOL0     H64349   3.449   9.996   9.909 -1.5076  1.8728  2.8452
  477MOL0     H64350   3.593  10.109   9.917 -1.0587 -0.8289  3.2175
  477MOL0     H64351   3.453  10.302   9.888  0.3782 -0.0247  1.9983
  477MOL0     H64352   3.420  10.229  10.039 -2.7382 -0.8850 -0.1832
  477MOL0     H64353   3.219  10.109   9.905 -2.1273  1.4354  0.8476
  477MOL0     H64354   3.233  10.263   9.816 -1.2003  1.4190  1.5756
  477MOL0     H64355   3.319  10.471   9.861  0.0879 -3.0280  0.9283
  477MOL0     H64356   3.243  10.710   9.819 -0.0358  0.4088 -0.5868
  477MOL0     H64357   3.103  11.092  10.030  1.0762  0.1049  1.8544
  477MOL0     H64358   3.029  11.310  10.066  3.6209 -2.9531 -1.3936
  477MOL0     H64359   2.796  11.387  10.417  0.6262 -0.7884 -1.3840
  477MOL0     H64360   2.959  11.415  10.344  0.0962 -1.9759 -0.9605
  477MOL0     H64361   2.902  11.620  10.435  2.5017 -0.7687 -1.6182
  477MOL0     H64362   2.888  11.641  10.263  4.6592  2.6864  3.7973
  477MOL0     H64363   2.627  11.605  10.301 -1.5222  1.9701  0.4576
  477MOL0     H64364   2.660  11.599  10.469 -1.0739 -0.8210 -0.1183
  477MOL0     H64365   2.644  11.832  10.280 -0.7069  0.2356  0.2828
  477MOL0     H64366   2.791  11.828  10.385  1.4762 -4.3116  1.7325
  477MOL0     H64367   2.641  11.806  10.591  0.6908  0.6780 -0.5343
  477MOL0     H64368   2.505  11.799  10.482  0.4298 -3.4769  1.2328
  477MOL0     H64369   2.689  12.047  10.519 -0.4813  0.0004  3.6494
  477MOL0     H64370   2.574  12.040  10.400 -1.5734 -0.6584 -0.5972
  477MOL0     H64371   2.389  11.998  10.579  0.3898 -1.5742  0.2555
  477MOL0     H64372   2.451  12.157  10.580 -2.4227 -0.6882 -0.8588
  477MOL0     H64373   2.447  12.047  10.808  1.3130  0.9957  0.1957
  477MOL0     H64374   2.549  11.922  10.758 -2.3275 -0.9961 -2.8750
  477MOL0     H64375   2.694  11.182  10.287 -0.2315  0.0098 -0.2830
  477MOL0     H64376   2.769  10.935  10.238  1.5186 -0.3869  0.9665
  477MOL0     H64377   2.951  10.631  10.138  0.0544 -0.2807  0.8107
  477MOL0     H64378   3.002  10.391  10.130  1.0311 -0.6112 -0.1943
  477MOL0     H64379   4.025   8.948   9.742  2.3343 -1.2609 -1.2484
  477MOL0     H64380   4.234   8.805   9.717  0.9199  1.4353  0.1952
  477MOL0     H64381   4.558   8.609   9.795 -0.3787 -1.4333  0.0950
  477MOL0     H64382   4.778   8.490   9.751  0.3329  1.9789 -1.7323
  477MOL0     H64383   4.971   8.546   9.687  0.4245 -1.0662  0.4695
  477MOL0     H64384   5.122   8.459   9.729 -1.3779 -1.8871 -0.0983
  477MOL0     H64385   5.222   8.645   9.811 -0.1553 -1.6844  0.6361
  477MOL0     H64386   5.086   8.754   9.773  1.6822 -0.7371  4.0602
  477MOL0     H64387   5.238   8.790   9.579 -0.3465 -0.3736 -1.2384
  477MOL0     H64388   5.111   8.684   9.526 -0.6646  1.7514  1.0153
  477MOL0     H64389   5.263   8.481   9.553  0.3771 -0.3091 -1.5077
  477MOL0     H64390   5.310   8.594   9.425 -2.2763  2.0768  0.3321
  477MOL0     H64391   5.626   8.642   9.716 -0.8010 -1.0888  1.5051
  477MOL0     H64392   4.962   8.731  10.063  1.0810 -1.0408  0.2114
  477MOL0     H64393   4.762   8.942  10.140 -1.1291  1.0673  2.0557
  477MOL0     H64394   4.632   8.840  10.206 -0.2825 -0.8084 -0.5762
  477MOL0     H64395   4.796   8.802  10.247 -2.7905 -2.7642  0.4091
  478MOL0     O64396   8.488   2.541   3.010  0.4009 -0.3553  0.6190
  478MOL0     C64397   8.552   2.472   2.939 -0.7551 -0.0758 -0.8694
  478MOL0     O64398   8.499   2.377   2.849  0.6574  0.3629 -0.4600
  478MOL0     C64399   8.375   2.316   2.866  0.2691 -0.1995 -0.2341
  478MOL0     C64400   8.301   2.289   2.754  0.3806  0.0168  0.3768
  478MOL0     C64401   8.174   2.231   2.768 -0.0961  0.4353  0.1320
  478MOL0     C64402   8.132   2.200   2.898  1.2374 -0.9560  0.1800
  478MOL0     O64403   7.999   2.171   2.917 -0.9944  0.0090 -0.9965
  478MOL0     C64404   7.903   2.282   2.884  0.1162 -0.0889  0.0893
  478MOL0     C64405   7.818   2.315   3.009  0.8736 -0.3972 -0.3954
  478MOL0     C64406   7.722   2.438   2.985 -0.6154  0.7813 -0.0248
  478MOL0     C64407   7.621   2.432   2.857 -0.8640  0.3745 -0.2126
  478MOL0     C64408   7.520   2.556   2.875 -0.0454 -0.5735 -0.0251
  478MOL0     C64409   7.428   2.571   2.752  0.1471  0.7916 -0.6555
  478MOL0     C64410   7.321   2.466   2.733 -0.0929  0.9991 -0.0083
  478MOL0     C64411   7.232   2.449   2.859  0.4481 -0.5877 -0.0006
  478MOL0     N64412   7.298   2.356   2.947  0.2719  0.5286  0.4072
  478MOL0     C64413   7.317   2.363   3.089  0.4250  0.5288 -0.1921
  478MOL0     C64414   7.365   2.240   3.122 -0.1766  0.3227  0.4557
  478MOL0     C64415   7.398   2.212   3.259 -0.7710 -0.4159  0.1041
  478MOL0     C64416   7.516   2.292   3.305  0.2653 -0.2456 -0.7803
  478MOL0     C64417   7.572   2.244   3.439 -0.1832 -0.8744  0.2544
  478MOL0     C64418   7.708   2.318   3.476  0.3960  0.3308  0.5218
  478MOL0     O64419   7.785   2.237   3.557 -1.0460 -0.7937 -0.3651
  478MOL0     C64420   7.864   2.136   3.502  0.3145 -0.3704 -0.5984
  478MOL0     C64421   7.931   2.066   3.595  1.0822  0.4062  0.0040
  478MOL0     C64422   8.003   1.949   3.562 -0.6430 -0.3563  0.5065
  478MOL0     C64423   8.011   1.904   3.427  0.1570 -0.9193 -0.1515
  478MOL0     C64424   8.063   1.774   3.391 -0.8511 -0.1754  1.0785
  478MOL0     O64425   8.065   1.737   3.260 -0.0936 -0.2176  0.8763
  478MOL0     C64426   8.142   1.632   3.221  1.1481  1.1010 -0.0984
  478MOL0     C64427   8.272   1.593   3.273  0.3601 -0.3992  0.4655
  478MOL0     C64428   8.340   1.489   3.215  0.1207  0.8843  0.7861
  478MOL0     C64429   8.284   1.411   3.115 -0.1454 -0.1426 -0.1619
  478MOL0     O64430   8.365   1.325   3.045 -0.3598  0.1369  0.3845
  478MOL0     C64431   8.314   1.232   2.943 -0.3233  0.3468 -0.2662
  478MOL0     C64432   8.432   1.161   2.875  0.7753  0.5902  1.0076
  478MOL0     C64433   8.506   1.065   2.968 -0.6881  0.0185 -0.3613
  478MOL0     C64434   8.624   0.995   2.903 -0.8508 -0.1082  1.0082
  478MOL0     C64435   8.696   0.895   2.995  0.9494 -0.0774 -0.1160
  478MOL0     C64436   8.726   0.765   2.917 -0.6021  0.6028 -0.0774
  478MOL0     C64437   8.814   0.658   2.987 -0.0377 -0.1801 -0.5665
  478MOL0     C64438   8.880   0.558   2.896  0.3603 -0.7600  0.2747
  478MOL0    Cl64439   8.764   0.494   2.777  0.0329 -0.0044  0.3510
  478MOL0     C64440   8.143   1.428   3.076  0.2222 -0.3536 -0.5716
  478MOL0     C64441   8.079   1.542   3.132  0.1732 -0.5429  0.0984
  478MOL0     O64442   8.102   1.702   3.481 -0.2919 -0.7802  0.4753
  478MOL0     C64443   7.952   1.981   3.327 -0.6809  0.8766  0.1058
  478MOL0     C64444   7.875   2.092   3.362  0.4102 -0.6607 -0.0974
  478MOL0     N64445   7.380   2.156   3.007  0.2507 -0.2617 -0.5113
  478MOL0     N64446   7.328   2.226   2.912 -0.2971  0.0574 -0.1121
  478MOL0     C64447   8.216   2.199   3.011  0.1428 -1.5711 -0.0742
  478MOL0     C64448   8.343   2.261   2.991  0.4174 -0.1287 -0.6792
  478MOL0     C64449   8.696   2.492   2.949 -0.9748 -0.0431  0.8644
  478MOL0     C64450   8.755   2.618   2.921 -0.2852  0.7252 -0.4541
  478MOL0     C64451   8.895   2.631   2.928 -0.8332 -0.2298 -0.1795
  478MOL0     C64452   8.986   2.525   2.964  0.0202  0.0245 -0.1779
  478MOL0     O64453   9.123   2.541   2.956  0.1036  0.2897 -0.1425
  478MOL0     C64454   9.203   2.518   3.075  0.2347  0.1006 -0.1120
  478MOL0     C64455   9.187   2.631   3.173  0.3957  0.0696 -0.3494
  478MOL0     C64456   9.228   2.763   3.112 -0.4522 -0.1435  0.0799
  478MOL0     C64457   9.237   2.889   3.192 -1.4708 -0.4169  0.2954
  478MOL0     C64458   9.113   2.947   3.238  0.6438 -0.5727  0.6124
  478MOL0     C64459   9.016   3.012   3.275  0.2436  0.2367  0.2684
  478MOL0     C64460   8.924   2.399   2.989 -0.2712  0.0023 -0.1099
  478MOL0     C64461   8.787   2.379   2.978  0.3153 -0.0347 -0.0167
  478MOL0     C64462   8.735   2.233   3.003  0.6657 -1.0827  1.1025
  478MOL0     H64463   8.344   2.315   2.657  2.3205 -3.3824  0.1311
  478MOL0     H64464   8.093   2.222   2.696  1.1010  0.3659 -1.2497
  478MOL0     H64465   7.954   2.376   2.864  0.9420 -0.5965 -0.2512
  478MOL0     H64466   7.839   2.257   2.799  0.0318 -1.7339  0.5857
  478MOL0     H64467   7.887   2.343   3.089  2.9156 -3.9534 -0.7085
  478MOL0     H64468   7.771   2.225   3.049 -0.7575  0.6028  0.0168
  478MOL0     H64469   7.784   2.528   2.978  1.5740 -0.7708 -1.9660
  478MOL0     H64470   7.653   2.453   3.069 -2.8876 -0.9577 -1.4608
  478MOL0     H64471   7.675   2.444   2.763 -4.1276  0.1088 -2.2514
  478MOL0     H64472   7.575   2.334   2.847  0.2448 -0.2834  0.8570
  478MOL0     H64473   7.477   2.560   2.975  2.1402 -0.1950  0.9654
  478MOL0     H64474   7.591   2.638   2.855  2.0494 -2.4051 -0.5351
  478MOL0     H64475   7.381   2.668   2.770 -0.6979 -0.0284  2.0831
  478MOL0     H64476   7.491   2.564   2.663  0.6278 -2.8959 -0.1868
  478MOL0     H64477   7.360   2.367   2.710 -0.3002  1.0181 -0.4656
  478MOL0     H64478   7.251   2.492   2.653 -0.4520 -1.8602 -0.7323
  478MOL0     H64479   7.224   2.542   2.915  0.6118 -1.0061  0.7289
  478MOL0     H64480   7.135   2.409   2.829 -1.1988  1.2754  2.4508
  478MOL0     H64481   7.293   2.451   3.147 -0.6315 -0.5424  1.0544
  478MOL0     H64482   7.318   2.240   3.328 -0.3709  0.7403  0.1297
  478MOL0     H64483   7.405   2.104   3.274 -5.5544 -0.7189  1.6834
  478MOL0     H64484   7.599   2.286   3.234 -1.2170 -2.7817 -2.4972
  478MOL0     H64485   7.485   2.395   3.325  0.8029 -0.6556  2.8231
  478MOL0     H64486   7.587   2.136   3.436 -0.9624 -1.0002  0.6497
  478MOL0     H64487   7.502   2.271   3.519 -1.5408  0.3216 -1.2491
  478MOL0     H64488   7.687   2.416   3.519  1.4444  1.6129 -1.6867
  478MOL0     H64489   7.762   2.349   3.385  0.3625  0.0710  0.4128
  478MOL0     H64490   7.919   2.099   3.698 -1.0336  0.7721 -0.3130
  478MOL0     H64491   8.057   1.891   3.636  0.4584 -0.7524 -0.5636
  478MOL0     H64492   8.319   1.653   3.351  1.9507 -0.1608 -0.6272
  478MOL0     H64493   8.444   1.470   3.238  0.1689 -0.4022 -0.3515
  478MOL0     H64494   8.260   1.147   2.986  1.5055 -0.0590  1.4085
  478MOL0     H64495   8.247   1.282   2.872 -3.1537 -2.5124  0.1737
  478MOL0     H64496   8.391   1.097   2.796  3.0687 -0.8143  0.8539
  478MOL0     H64497   8.496   1.234   2.824 -1.4432 -1.1057 -5.1025
  478MOL0     H64498   8.544   1.122   3.053 -3.3877 -1.4532  2.0398
  478MOL0     H64499   8.435   0.990   3.005  2.0338 -1.5804  2.0703
  478MOL0     H64500   8.697   1.062   2.858 -0.2693 -0.3192  1.6304
  478MOL0     H64501   8.578   0.945   2.817  2.4375  0.0261 -1.0054
  478MOL0     H64502   8.626   0.860   3.072 -0.8649  2.5355 -0.4210
  478MOL0     H64503   8.784   0.943   3.040 -0.7339  1.0175  2.2961
  478MOL0     H64504   8.633   0.713   2.893  0.0465 -1.9427  2.3964
  478MOL0     H64505   8.782   0.798   2.829  1.2172  1.4446  1.3285
  478MOL0     H64506   8.744   0.608   3.056  0.0779  1.1275  0.5456
  478MOL0     H64507   8.885   0.716   3.046 -1.4409  1.1207 -0.0751
  478MOL0     H64508   8.966   0.609   2.852 -0.8224 -0.7980 -2.2754
  478MOL0     H64509   8.918   0.472   2.952 -0.8727 -1.2618  0.3785
  478MOL0     H64510   8.098   1.361   3.003 -2.5131  0.4425  0.2948
  478MOL0     H64511   7.977   1.575   3.113  1.1204  1.7528 -1.3661
  478MOL0     H64512   7.958   1.952   3.222  2.7649 -1.6913  0.8269
  478MOL0     H64513   7.813   2.141   3.288 -0.5931 -4.3876 -1.9726
  478MOL0     H64514   8.188   2.187   3.115  0.6356  2.4967  0.6957
  478MOL0     H64515   8.404   2.271   3.080 -1.2875  2.3785  0.3396
  478MOL0     H64516   8.693   2.701   2.888  1.5890  2.5140  0.3477
  478MOL0     H64517   8.937   2.731   2.915 -0.5342 -0.5469 -2.0183
  478MOL0     H64518   9.307   2.505   3.043  0.3538  0.3830  0.1585
  478MOL0     H64519   9.164   2.431   3.128  1.2262 -0.2247  0.0986
  478MOL0     H64520   9.240   2.619   3.268  1.8098  0.4571 -1.0642
  478MOL0     H64521   9.081   2.639   3.199  0.7122  0.2308  0.9783
  478MOL0     H64522   9.160   2.779   3.028 -1.3657 -1.3664  0.5616
  478MOL0     H64523   9.324   2.744   3.063  0.3079 -1.1523  1.8823
  478MOL0     H64524   9.314   2.878   3.268  0.4271  0.2300 -1.4531
  478MOL0     H64525   9.284   2.961   3.125  0.0102  1.7347  3.4420
  478MOL0     H64526   8.923   3.063   3.288 -0.4370  0.6719 -4.4343
  478MOL0     H64527   8.974   2.305   3.008 -4.4912 -2.1445  1.8413
  478MOL0     H64528   8.627   2.226   3.014  0.3359  1.0841 -0.1327
  478MOL0     H64529   8.770   2.168   2.922 -0.0042  2.0034 -1.8751
  478MOL0     H64530   8.793   2.190   3.085  2.5946 -0.4233  0.1434
  479MOL0     O64531   3.079   7.434   0.858 -0.0669 -0.6653  0.1514
  479MOL0     C64532   2.971   7.487   0.823 -0.1534  0.4127  0.8575
  479MOL0     O64533   2.965   7.600   0.759 -0.0414 -1.1792 -0.0804
  479MOL0     C64534   3.088   7.657   0.727  0.4994 -0.1930  0.1945
  479MOL0     C64535   3.117   7.689   0.594  0.7691 -0.3205  0.4897
  479MOL0     C64536   3.237   7.754   0.554  0.4669 -0.1695 -0.3600
  479MOL0     C64537   3.337   7.778   0.649  0.6873  0.5223  0.1241
  479MOL0     O64538   3.452   7.829   0.594  0.5679  1.1443 -0.3579
  479MOL0     C64539   3.570   7.802   0.667 -0.0321 -0.4738  0.3829
  479MOL0     C64540   3.682   7.865   0.590 -0.0892 -0.6067 -1.1936
  479MOL0     C64541   3.812   7.851   0.664  0.0684 -0.3406 -0.5081
  479MOL0     C64542   3.925   7.911   0.591 -0.7862 -0.0531  0.0086
  479MOL0     C64543   4.049   7.869   0.661 -0.8703  0.2177  0.0100
  479MOL0     C64544   4.077   7.938   0.798 -0.5263  0.3019 -0.2860
  479MOL0     C64545   4.228   7.929   0.848  0.2373 -0.4965  1.1901
  479MOL0     C64546   4.245   7.967   0.986  0.6845 -0.4956 -1.0383
  479MOL0     N64547   4.392   7.969   1.030  0.6754  0.1281  0.3548
  479MOL0     C64548   4.488   7.874   0.986  0.3032 -0.7017  0.9470
  479MOL0     C64549   4.603   7.927   1.022  0.2146 -0.6689 -0.5871
  479MOL0     C64550   4.730   7.862   1.010 -0.4565  0.5611  0.4991
  479MOL0     C64551   4.719   7.713   1.067 -0.0779  0.3282 -0.6928
  479MOL0     C64552   4.840   7.624   1.036  0.2789  0.2500 -0.3870
  479MOL0     C64553   4.835   7.487   1.103 -0.5524  0.9279  1.3224
  479MOL0     O64554   4.754   7.401   1.027  0.1244  0.0885  0.1594
  479MOL0     C64555   4.630   7.351   1.073  0.0105  0.9813 -0.2014
  479MOL0     C64556   4.568   7.232   1.016 -0.2767 -1.3124 -0.0825
  479MOL0     C64557   4.443   7.178   1.044 -0.1817  0.3178  0.0067
  479MOL0     C64558   4.365   7.237   1.139  0.1754 -0.6676 -0.7996
  479MOL0     C64559   4.228   7.186   1.164  0.1018 -0.4485  0.2338
  479MOL0     O64560   4.177   7.098   1.092 -0.2942  0.3460  0.7826
  479MOL0     C64561   4.081   7.012   1.123  0.4441  0.1257 -0.5505
  479MOL0     C64562   4.014   7.012   1.246  0.4958 -0.3831  0.6724
  479MOL0     C64563   3.919   6.919   1.274 -0.0923 -0.5290 -0.0120
  479MOL0     C64564   3.893   6.823   1.177 -0.3750  1.6063  0.6872
  479MOL0     O64565   3.802   6.723   1.212  0.2852  0.3815  0.0407
  479MOL0     C64566   3.873   6.598   1.246 -0.4884 -0.5526  0.1581
  479MOL0     C64567   3.779   6.477   1.264  0.2321 -0.7000 -0.1157
  479MOL0     C64568   3.850   6.344   1.270  0.1718  0.6358  0.0783
  479MOL0     C64569   3.754   6.224   1.281  0.0295  0.3887 -1.0705
  479MOL0     C64570   3.664   6.223   1.394  0.4007 -0.4669 -0.4798
  479MOL0     C64571   3.558   6.118   1.379 -0.0363 -0.3787  0.3035
  479MOL0     C64572   3.451   6.117   1.493  0.5506  0.2808 -0.5172
  479MOL0     C64573   3.338   6.015   1.462 -0.5651 -0.1302 -1.0996
  479MOL0    Cl64574   3.414   5.842   1.459 -0.2609 -0.1482  0.0908
  479MOL0     C64575   3.960   6.825   1.052  0.3875 -0.1996  0.6516
  479MOL0     C64576   4.052   6.920   1.027  0.6691  0.2806  0.2757
  479MOL0     O64577   4.166   7.249   1.252 -0.0520 -0.6281 -0.0061
  479MOL0     C64578   4.415   7.363   1.195  0.3895  0.6647  1.1313
  479MOL0     C64579   4.543   7.405   1.165  0.3575 -0.2651  0.0511
  479MOL0     N64580   4.587   8.049   1.086 -0.2198 -0.9134 -0.4417
  479MOL0     N64581   4.457   8.075   1.084 -0.5943  0.9416  0.6610
  479MOL0     C64582   3.310   7.753   0.782  1.3896 -0.2497  0.5325
  479MOL0     C64583   3.186   7.694   0.818 -0.1933 -0.4238 -0.3097
  479MOL0     C64584   2.844   7.402   0.849  0.2646  0.1032  0.8759
  479MOL0     C64585   2.721   7.457   0.797  0.1734  0.1328 -0.5501
  479MOL0     C64586   2.591   7.410   0.812 -0.2369  0.5582 -0.2260
  479MOL0     C64587   2.585   7.290   0.889 -0.1775 -0.1412  0.7488
  479MOL0     O64588   2.461   7.245   0.930  0.3290  0.8653 -0.2462
  479MOL0     C64589   2.363   7.340   0.969 -0.0595 -0.0286 -0.0944
  479MOL0     C64590   2.270   7.289   1.076 -0.2952 -0.4265 -0.1150
  479MOL0     C64591   2.354   7.257   1.206  0.3074 -0.9986  0.9081
  479MOL0     C64592   2.251   7.190   1.308 -0.8707 -0.8524 -0.2274
  479MOL0     C64593   2.328   7.149   1.420 -0.5816 -0.1037 -0.4978
  479MOL0     C64594   2.392   7.118   1.512  0.0537  0.0036 -1.4260
  479MOL0     C64595   2.695   7.235   0.947  0.2349  0.1712  0.4494
  479MOL0     C64596   2.824   7.286   0.931  0.7506  0.4392  0.2873
  479MOL0     C64597   2.933   7.221   1.009  0.3684 -0.0604 -0.2332
  479MOL0     H64598   3.041   7.680   0.517 -0.4125  1.1822  1.4301
  479MOL0     H64599   3.249   7.784   0.451 -1.4477  0.2145 -0.5060
  479MOL0     H64600   3.573   7.862   0.759  0.8681  2.4067 -1.3715
  479MOL0     H64601   3.578   7.695   0.685 -4.3053 -0.6215  2.5658
  479MOL0     H64602   3.661   7.971   0.573  2.9740  0.0424 -1.4203
  479MOL0     H64603   3.683   7.807   0.497  0.0361 -3.1757  0.3063
  479MOL0     H64604   3.819   7.742   0.679 -0.5812 -0.4283 -0.8045
  479MOL0     H64605   3.806   7.892   0.765  0.8724 -1.8672  0.1959
  479MOL0     H64606   3.921   7.873   0.488 -0.9287 -0.2728  0.0974
  479MOL0     H64607   3.924   8.020   0.584  0.1999 -0.1213 -2.2249
  479MOL0     H64608   4.044   7.760   0.669 -1.9042  0.3402  1.1904
  479MOL0     H64609   4.136   7.885   0.596 -0.5363  0.4031  0.4888
  479MOL0     H64610   4.054   8.045   0.795 -0.0144  0.4149 -0.3508
  479MOL0     H64611   4.011   7.897   0.875  1.3888  2.4170  2.7215
  479MOL0     H64612   4.279   8.000   0.783 -1.3092  0.7527  1.2719
  479MOL0     H64613   4.268   7.832   0.821 -1.4213 -0.4533 -1.8009
  479MOL0     H64614   4.213   8.070   1.005  2.0041 -0.4187  1.2204
  479MOL0     H64615   4.186   7.904   1.053 -0.6017  0.4219 -1.2712
  479MOL0     H64616   4.461   7.787   0.928 -1.6284 -0.2313  1.0740
  479MOL0     H64617   4.735   7.842   0.903 -0.8712 -0.4135  0.6465
  479MOL0     H64618   4.815   7.907   1.063 -0.7120  1.8436 -0.1626
  479MOL0     H64619   4.696   7.709   1.174 -0.2588 -0.0512 -0.7424
  479MOL0     H64620   4.633   7.669   1.016  1.1257 -3.0289 -0.0470
  479MOL0     H64621   4.921   7.678   1.085  2.7370  0.5608 -4.3908
  479MOL0     H64622   4.864   7.612   0.930  3.8713  1.0839  0.2144
  479MOL0     H64623   4.798   7.487   1.206 -1.3628 -0.0450  1.0504
  479MOL0     H64624   4.935   7.441   1.108  0.0831  1.5586 -2.6116
  479MOL0     H64625   4.616   7.183   0.932  0.8337  2.3051 -1.7614
  479MOL0     H64626   4.408   7.096   0.982  0.3936  0.3610 -0.3802
  479MOL0     H64627   4.039   7.082   1.325 -1.5658  2.3394 -0.9356
  479MOL0     H64628   3.868   6.923   1.370 -0.5281  0.9995 -0.2780
  479MOL0     H64629   3.942   6.576   1.164 -0.6875 -1.5737  0.2389
  479MOL0     H64630   3.935   6.605   1.336  0.3775 -2.8678 -0.1741
  479MOL0     H64631   3.726   6.497   1.357  1.8080 -4.4048  1.8023
  479MOL0     H64632   3.701   6.468   1.188  2.3385 -0.4770 -2.4346
  479MOL0     H64633   3.921   6.338   1.187  1.1671  0.5664  0.9051
  479MOL0     H64634   3.909   6.345   1.363  1.0964 -2.1213 -0.4076
  479MOL0     H64635   3.814   6.133   1.283 -1.8295 -0.8755  0.5691
  479MOL0     H64636   3.706   6.211   1.183 -0.6845  0.9342 -0.8077
  479MOL0     H64637   3.611   6.319   1.391 -0.3223 -0.6955  2.1121
  479MOL0     H64638   3.709   6.232   1.494 -2.4686 -1.6720  1.0233
  479MOL0     H64639   3.503   6.139   1.286  1.6154  2.1856 -0.1995
  479MOL0     H64640   3.602   6.019   1.367  1.1533  0.0654  0.8371
  479MOL0     H64641   3.404   6.215   1.508 -1.0121 -0.4243 -0.5531
  479MOL0     H64642   3.506   6.088   1.582 -1.0385  1.7192  1.0046
  479MOL0     H64643   3.268   6.013   1.546 -0.1179 -1.7553 -0.7194
  479MOL0     H64644   3.291   6.045   1.368  0.9073 -0.4037 -1.9627
  479MOL0     H64645   3.938   6.752   0.974  2.5467 -0.9158  0.6398
  479MOL0     H64646   4.101   6.906   0.931 -0.3247 -1.5727 -0.0130
  479MOL0     H64647   4.352   7.416   1.266  0.7051 -0.2410  2.1177
  479MOL0     H64648   4.584   7.492   1.216  2.3607 -0.8194 -0.5235
  479MOL0     H64649   3.373   7.771   0.868  0.5947 -3.1441  1.8689
  479MOL0     H64650   3.152   7.684   0.921  0.1649  1.9687  0.1121
  479MOL0     H64651   2.728   7.536   0.722 -0.5877  1.6219  0.8882
  479MOL0     H64652   2.503   7.451   0.765 -1.1137 -0.0818  0.8247
  479MOL0     H64653   2.319   7.382   0.878  0.1804  0.7644  0.1514
  479MOL0     H64654   2.417   7.425   1.010  0.3108  0.3761 -1.3598
  479MOL0     H64655   2.231   7.191   1.046 -1.2003  0.8011 -3.2438
  479MOL0     H64656   2.191   7.363   1.090 -1.7939 -2.2361  1.7012
  479MOL0     H64657   2.395   7.354   1.233 -2.4651  0.8495 -0.9203
  479MOL0     H64658   2.447   7.206   1.179  0.8847 -0.2503  1.4519
  479MOL0     H64659   2.175   7.259   1.345 -0.4370  0.4706 -1.7153
  479MOL0     H64660   2.206   7.104   1.258 -1.2457 -0.4406 -0.5941
  479MOL0     H64661   2.439   7.101   1.607 -0.7759  3.1282 -0.3234
  479MOL0     H64662   2.671   7.155   1.017  0.6330 -0.2815  0.0746
  479MOL0     H64663   2.995   7.297   1.058 -0.5614  0.9453 -0.5592
  479MOL0     H64664   2.887   7.158   1.085 -1.3400  1.1818 -0.1543
  479MOL0     H64665   2.989   7.147   0.953  0.1189 -2.9224  3.0151
  480MOL0     O64666   6.884   4.379   9.807  0.1990 -0.7119 -0.4324
  480MOL0     C64667   6.802   4.448   9.875  0.0226  0.9841  0.4035
  480MOL0     O64668   6.836   4.532   9.972 -0.5553  0.4930 -0.4605
  480MOL0     C64669   6.967   4.540  10.004  0.5153  0.7350  0.1253
  480MOL0     C64670   7.043   4.623   9.925 -0.2326  0.9235  0.5434
  480MOL0     C64671   7.181   4.636   9.951 -0.0567 -0.7435 -0.2375
  480MOL0     C64672   7.237   4.563  10.063 -0.7625 -0.6199 -0.5078
  480MOL0     O64673   7.368   4.569  10.091 -0.3228 -0.4416 -0.3187
  480MOL0     C64674   7.466   4.665  10.028 -0.0926  0.6162  0.3477
  480MOL0     C64675   7.586   4.661  10.122  0.0846 -0.4013 -0.6097
  480MOL0     C64676   7.716   4.727  10.071 -0.6213 -0.5399  0.2188
  480MOL0     C64677   7.804   4.768  10.191 -0.0363 -0.1421  0.4192
  480MOL0     C64678   7.935   4.841  10.152 -0.7660  0.0561 -0.0402
  480MOL0     C64679   8.013   4.881  10.286  0.1490 -0.8392  0.1431
  480MOL0     C64680   8.087   4.757  10.341 -0.5073  0.6485  0.2194
  480MOL0     C64681   8.180   4.786  10.462  0.6283  0.4563 -0.4848
  480MOL0     N64682   8.276   4.893  10.434  0.1641  0.0748 -0.5466
  480MOL0     C64683   8.291   5.021  10.485 -0.2935 -0.0392 -0.2026
  480MOL0     C64684   8.415   5.067  10.443 -0.1033  0.3635  0.1674
  480MOL0     C64685   8.496   5.185  10.489 -0.1149 -0.6140  0.5249
  480MOL0     C64686   8.500   5.204  10.640 -0.5120 -0.0894  0.4027
  480MOL0     C64687   8.575   5.083  10.710 -0.1600  0.7361  0.3909
  480MOL0     C64688   8.726   5.096  10.701  0.1815 -0.0683 -0.0418
  480MOL0     O64689   8.788   4.987  10.781 -0.7959 -0.5012  0.3176
  480MOL0     C64690   8.808   5.008  10.914 -0.8893  0.6173  0.1760
  480MOL0     C64691   8.825   5.130  10.981  0.6064 -0.5792 -0.2708
  480MOL0     C64692   8.852   5.126  11.121  0.2737 -0.3584  0.0957
  480MOL0     C64693   8.831   5.010  11.203 -0.6840 -0.0511  1.0741
  480MOL0     C64694   8.853   5.006  11.354  0.5644 -0.3983  0.2238
  480MOL0     O64695   8.819   4.899  11.422 -0.2603  0.0392  0.0942
  480MOL0     C64696   8.832   4.866  11.551  0.7254 -0.3156  0.3068
  480MOL0     C64697   8.895   4.953  11.639  0.6630 -0.3383 -0.2314
  480MOL0     C64698   8.899   4.918  11.774 -0.6348  0.0141 -0.0299
  480MOL0     C64699   8.846   4.796  11.819 -0.4010  0.6428 -0.2327
  480MOL0     O64700   8.832   4.784  11.958  0.6867  0.5116  0.2213
  480MOL0     C64701   8.734   4.695  12.019  0.3539 -0.0761  0.9658
  480MOL0     C64702   8.719   4.745  12.159  0.2654  0.4313 -0.1645
  480MOL0     C64703   8.674   4.896  12.154  0.5416  0.1123  0.0453
  480MOL0     C64704   8.644   4.930  12.299 -0.5832 -0.6772  0.2777
  480MOL0     C64705   8.621   5.082  12.312 -0.0389 -0.7242  0.0566
  480MOL0     C64706   8.483   5.136  12.264 -0.1449  0.6998 -0.3656
  480MOL0     C64707   8.475   5.282  12.236 -0.2012  1.0953 -0.7438
  480MOL0     C64708   8.333   5.323  12.196  0.7996  0.6517  0.6696
  480MOL0    Cl64709   8.360   5.477  12.101 -0.1250  0.3726 -0.0818
  480MOL0     C64710   8.797   4.706  11.723 -0.1047  0.6887 -0.4172
  480MOL0     C64711   8.785   4.750  11.596  0.8179  0.7769  0.0576
  480MOL0     O64712   8.888   5.114  11.400 -0.2588 -0.5529  0.0515
  480MOL0     C64713   8.810   4.892  11.124 -0.3529 -0.1512 -1.0666
  480MOL0     C64714   8.825   4.893  10.983  0.6543  0.4635  0.4562
  480MOL0     N64715   8.464   4.970  10.347  0.2028 -0.5955 -0.8471
  480MOL0     N64716   8.376   4.867  10.341 -0.0557 -0.9335 -0.5686
  480MOL0     C64717   7.155   4.502  10.148  0.0234  0.6829 -0.2055
  480MOL0     C64718   7.014   4.484  10.127 -0.1072 -0.1160  0.1265
  480MOL0     C64719   6.655   4.435   9.859 -0.1310 -0.1279  0.0280
  480MOL0     C64720   6.570   4.513   9.944  0.1680  0.4508 -0.5252
  480MOL0     C64721   6.431   4.504   9.941 -0.1809 -0.0869 -0.0208
  480MOL0     C64722   6.363   4.427   9.848 -1.0600  0.3750 -0.9124
  480MOL0     O64723   6.225   4.414   9.830  0.2884  0.1277  0.0469
  480MOL0     C64724   6.141   4.503   9.898  0.0020 -0.1265  0.6719
  480MOL0     C64725   6.008   4.482   9.839  0.4712  1.0823 -1.2118
  480MOL0     C64726   5.948   4.352   9.870 -0.1865  0.3201  0.3165
  480MOL0     C64727   5.961   4.314  10.025  0.5675  1.3416  0.3128
  480MOL0     C64728   5.901   4.184  10.026  0.3140 -1.0577  1.3443
  480MOL0     C64729   5.833   4.083  10.035  0.3155 -0.5576 -0.9383
  480MOL0     C64730   6.450   4.352   9.769 -0.7223  0.2424 -0.3511
  480MOL0     C64731   6.597   4.351   9.771  0.9135 -0.2993 -0.9222
  480MOL0     C64732   6.675   4.247   9.685 -0.3461  1.2761 -0.2616
  480MOL0     H64733   6.998   4.673   9.840  0.7513 -0.6782 -0.9940
  480MOL0     H64734   7.239   4.694   9.880 -1.3536 -1.3604 -1.8348
  480MOL0     H64735   7.506   4.622   9.936  0.8615  2.7359 -0.2880
  480MOL0     H64736   7.415   4.760  10.013 -1.7077 -0.5772 -2.6487
  480MOL0     H64737   7.602   4.561  10.161  3.5414 -0.3461 -1.5707
  480MOL0     H64738   7.557   4.720  10.209  0.6533 -0.2411 -0.5248
  480MOL0     H64739   7.687   4.820  10.023  0.7960  0.0361  0.4169
  480MOL0     H64740   7.764   4.659   9.999  0.3312  0.8543 -0.5033
  480MOL0     H64741   7.735   4.837  10.240 -1.6803 -2.8986  2.2722
  480MOL0     H64742   7.817   4.676  10.250 -1.7422 -1.4377 -1.0953
  480MOL0     H64743   8.001   4.792  10.080 -0.2055  1.1190 -0.2712
  480MOL0     H64744   7.905   4.933  10.102  1.0062  1.0614  0.6676
  480MOL0     H64745   8.081   4.966  10.275 -0.7026 -0.0053  1.1516
  480MOL0     H64746   7.930   4.909  10.351 -0.3635 -4.6646  1.3694
  480MOL0     H64747   8.138   4.705  10.260 -2.6459 -0.2887 -0.5820
  480MOL0     H64748   8.015   4.689  10.388 -1.4120  1.2821 -0.2300
  480MOL0     H64749   8.125   4.813  10.553  1.3251  0.8632 -0.1766
  480MOL0     H64750   8.231   4.692  10.486 -1.9142 -0.9066 -0.1218
  480MOL0     H64751   8.225   5.071  10.555 -1.3008 -1.4816 -0.0807
  480MOL0     H64752   8.599   5.177  10.453 -0.5966  0.8466 -1.3526
  480MOL0     H64753   8.461   5.276  10.439 -3.6003 -0.6752  2.5303
  480MOL0     H64754   8.547   5.298  10.671  0.5895  0.3779 -2.4132
  480MOL0     H64755   8.402   5.203  10.689 -0.3307  0.4072  0.7897
  480MOL0     H64756   8.558   4.991  10.653  3.5839 -0.4408  0.9046
  480MOL0     H64757   8.531   5.077  10.810 -1.8927 -0.5257 -0.3965
  480MOL0     H64758   8.761   5.195  10.729 -0.7950  0.0721  0.7720
  480MOL0     H64759   8.738   5.076  10.595 -2.9351 -1.3998 -0.2616
  480MOL0     H64760   8.833   5.231  10.940  0.2202 -1.3182 -2.2802
  480MOL0     H64761   8.878   5.217  11.174  0.9947  0.3187 -1.3686
  480MOL0     H64762   8.934   5.049  11.607 -3.0432  1.3246 -0.2314
  480MOL0     H64763   8.939   4.991  11.844 -0.6183  1.2858 -1.3138
  480MOL0     H64764   8.641   4.694  11.961  1.3846 -0.3467 -0.7375
  480MOL0     H64765   8.776   4.595  12.025  1.3410  0.2171 -0.6466
  480MOL0     H64766   8.640   4.682  12.201  1.3602 -2.6925 -2.4654
  480MOL0     H64767   8.815   4.730  12.210 -0.1452 -1.2090  0.1945
  480MOL0     H64768   8.753   4.950  12.102  0.6124 -1.7879 -1.9803
  480MOL0     H64769   8.585   4.907  12.091 -2.0955 -0.8157  3.3203
  480MOL0     H64770   8.733   4.911  12.359 -0.0407  3.0307  0.9083
  480MOL0     H64771   8.553   4.878  12.331 -1.9730  1.8118  0.6532
  480MOL0     H64772   8.704   5.138  12.270  0.9498 -0.7053  1.9058
  480MOL0     H64773   8.619   5.103  12.420  2.0785 -0.4469  0.0821
  480MOL0     H64774   8.455   5.088  12.169 -0.1859  2.0091 -1.0344
  480MOL0     H64775   8.405   5.112  12.336  0.6622  1.8606  0.9404
  480MOL0     H64776   8.551   5.309  12.162  2.1550  1.0477  1.5185
  480MOL0     H64777   8.505   5.334  12.327 -2.0537 -1.9358  1.8503
  480MOL0     H64778   8.282   5.247  12.136  1.6591 -0.5641  1.4296
  480MOL0     H64779   8.275   5.334  12.288  1.1743  1.2356  0.8391
  480MOL0     H64780   8.741   4.618  11.752  1.7311 -0.6492 -0.7622
  480MOL0     H64781   8.745   4.677  11.526 -1.2519  1.0243  0.9109
  480MOL0     H64782   8.806   4.796  11.175  0.2019  1.2706  1.9060
  480MOL0     H64783   8.821   4.797  10.932  2.2197  0.7947 -0.3409
  480MOL0     H64784   7.203   4.452  10.232  0.0421 -0.0735 -0.6622
  480MOL0     H64785   6.948   4.429  10.193  0.5396 -2.0046 -0.7459
  480MOL0     H64786   6.608   4.571  10.028 -1.3572 -1.1191  1.3388
  480MOL0     H64787   6.375   4.561  10.014  2.3365  0.7030  1.3872
  480MOL0     H64788   6.171   4.603   9.865  1.8085 -1.1871 -1.1094
  480MOL0     H64789   6.141   4.502  10.008  1.8254 -3.6874  0.7710
  480MOL0     H64790   6.020   4.496   9.731  1.2396  1.6980 -1.0567
  480MOL0     H64791   5.937   4.559   9.873 -0.7505 -0.2536 -0.6390
  480MOL0     H64792   5.984   4.269   9.808  0.2666  1.1496 -0.5641
  480MOL0     H64793   5.841   4.363   9.854 -0.0593  3.8335  0.9987
  480MOL0     H64794   6.061   4.307  10.068 -1.2685 -0.3297  4.9741
  480MOL0     H64795   5.898   4.383  10.081 -0.7917  0.5685 -0.2035
  480MOL0     H64796   5.789   3.986  10.048  1.4383 -1.1395 -1.3043
  480MOL0     H64797   6.395   4.287   9.701  0.7853 -2.8697  1.1969
  480MOL0     H64798   6.613   4.183   9.622  1.3227  1.5232 -2.2383
  480MOL0     H64799   6.731   4.306   9.612  0.9150  0.4138 -0.0189
  480MOL0     H64800   6.742   4.184   9.744  0.6157  0.8325 -1.7645
  481MOL0     O64801   4.825   3.575   1.230  0.5259  0.0201  0.5159
  481MOL0     C64802   4.763   3.603   1.326  1.2090  0.3825 -0.4900
  481MOL0     O64803   4.823   3.651   1.438 -0.9165 -0.4609  0.1286
  481MOL0     C64804   4.898   3.762   1.407 -0.0464  0.2344 -0.9960
  481MOL0     C64805   5.030   3.763   1.358 -0.9284 -0.7492 -0.4544
  481MOL0     C64806   5.092   3.889   1.332 -0.0777 -0.3241 -0.1568
  481MOL0     C64807   5.041   4.014   1.382  0.1648  1.3849  0.4096
  481MOL0     O64808   5.103   4.131   1.375 -0.1681 -0.3291 -0.1781
  481MOL0     C64809   5.230   4.134   1.318 -0.6958 -1.2891 -0.7638
  481MOL0     C64810   5.291   4.275   1.306  0.1706 -0.1332 -0.1198
  481MOL0     C64811   5.316   4.329   1.444  0.4452 -0.0328 -0.4447
  481MOL0     C64812   5.465   4.319   1.477  0.1681  0.1926  0.4287
  481MOL0     C64813   5.505   4.184   1.548  0.7339 -0.5916  0.0604
  481MOL0     C64814   5.441   4.175   1.682  0.2895 -0.8875 -0.3250
  481MOL0     C64815   5.497   4.064   1.781  0.4676 -1.0643  1.4084
  481MOL0     C64816   5.437   3.936   1.745  0.6877  1.4482 -0.1378
  481MOL0     N64817   5.469   3.837   1.848 -0.4062  0.6543  0.5071
  481MOL0     C64818   5.602   3.801   1.860  0.4444 -0.2334  0.0033
  481MOL0     C64819   5.608   3.778   1.994  0.5353  0.8458 -0.1593
  481MOL0     C64820   5.724   3.746   2.081  0.1868  1.3738  0.8236
  481MOL0     C64821   5.715   3.792   2.225 -0.0076 -0.4132 -0.2321
  481MOL0     C64822   5.628   3.917   2.264 -0.4001 -0.7822  0.2423
  481MOL0     C64823   5.686   4.057   2.231  0.8409 -0.3865  0.0107
  481MOL0     O64824   5.606   4.143   2.310 -0.0461 -0.2436 -0.4440
  481MOL0     C64825   5.516   4.224   2.253 -0.2834 -0.1649  0.1514
  481MOL0     C64826   5.419   4.264   2.347  0.0836  0.2353  0.5782
  481MOL0     C64827   5.318   4.339   2.296  0.2165 -0.6345  0.5409
  481MOL0     C64828   5.310   4.375   2.157 -0.2463 -0.1155 -0.3220
  481MOL0     C64829   5.198   4.459   2.107 -0.3062  0.7113 -0.6373
  481MOL0     O64830   5.125   4.523   2.199 -0.2179 -0.1478  0.0592
  481MOL0     C64831   5.032   4.614   2.156  0.1388 -0.2679  0.4611
  481MOL0     C64832   5.085   4.738   2.130 -0.6149  0.2521 -0.2802
  481MOL0     C64833   5.010   4.845   2.072 -0.9937  0.4926 -0.4070
  481MOL0     C64834   4.874   4.822   2.035 -0.6981 -0.4889 -0.6348
  481MOL0     O64835   4.784   4.917   1.984 -0.7545  1.0415  0.4061
  481MOL0     C64836   4.844   4.999   1.889 -0.2181  0.6302 -0.1701
  481MOL0     C64837   4.839   5.156   1.921 -0.7044 -0.6318  0.3847
  481MOL0     C64838   4.718   5.227   1.853 -0.1308  0.5474  0.7409
  481MOL0     C64839   4.733   5.378   1.846  0.3182 -0.0484 -0.2516
  481MOL0     C64840   4.620   5.436   1.763 -0.0942 -0.0521 -0.0560
  481MOL0     C64841   4.596   5.579   1.789 -0.5757 -0.6788 -0.2765
  481MOL0     C64842   4.706   5.682   1.775  0.1058 -0.6637 -0.2203
  481MOL0     C64843   4.654   5.830   1.779 -0.3327  0.4981 -0.7552
  481MOL0    Cl64844   4.632   5.895   1.615 -0.4539 -0.3472  0.5395
  481MOL0     C64845   4.824   4.693   2.061  0.7469  0.3671  0.0540
  481MOL0     C64846   4.910   4.588   2.106  0.8255 -0.1855  0.1632
  481MOL0     O64847   5.176   4.462   1.983 -0.7265 -0.5083  0.0646
  481MOL0     C64848   5.417   4.353   2.073 -0.3874 -0.3035  0.4213
  481MOL0     C64849   5.519   4.272   2.119 -0.4180 -0.0126  0.1974
  481MOL0     N64850   5.479   3.777   2.048 -0.1902 -0.1545 -0.0004
  481MOL0     N64851   5.395   3.826   1.962 -0.9285 -0.3134 -0.6212
  481MOL0     C64852   4.921   4.005   1.455 -0.1108 -0.1813  0.4749
  481MOL0     C64853   4.850   3.881   1.468  0.0328  0.0792  1.2163
  481MOL0     C64854   4.629   3.543   1.341  0.6016 -0.1058 -0.5383
  481MOL0     C64855   4.573   3.528   1.469 -0.0036 -0.0627 -0.5314
  481MOL0     C64856   4.447   3.475   1.482  0.0392 -0.2963 -0.5178
  481MOL0     C64857   4.380   3.405   1.383 -0.2757 -0.1613  0.5934
  481MOL0     O64858   4.269   3.338   1.403  0.3876  0.8837  0.5916
  481MOL0     C64859   4.172   3.301   1.304 -0.6940 -0.8359  0.1770
  481MOL0     C64860   4.039   3.292   1.371  0.1174  0.8399  0.4772
  481MOL0     C64861   4.011   3.382   1.500 -1.0079  0.4698  0.2279
  481MOL0     C64862   3.863   3.385   1.553 -0.0097 -0.4076 -0.2859
  481MOL0     C64863   3.822   3.254   1.597  0.7319 -0.4707  0.8216
  481MOL0     C64864   3.772   3.156   1.641  0.6073 -0.3510  0.4597
  481MOL0     C64865   4.426   3.429   1.250  0.0335  0.2204 -0.0769
  481MOL0     C64866   4.552   3.491   1.221 -1.0737 -0.0593 -0.8171
  481MOL0     C64867   4.602   3.510   1.073  0.7983 -0.0692  0.0786
  481MOL0     H64868   5.067   3.666   1.328 -1.7420 -0.8866 -1.0618
  481MOL0     H64869   5.192   3.876   1.292  1.0332 -0.9368  2.5741
  481MOL0     H64870   5.285   4.068   1.387 -1.9542  0.3855  2.0215
  481MOL0     H64871   5.219   4.083   1.222 -1.5308 -1.3761 -0.6322
  481MOL0     H64872   5.214   4.331   1.254 -0.2545 -1.7272 -1.3063
  481MOL0     H64873   5.384   4.273   1.248  0.1122 -2.2152 -0.2359
  481MOL0     H64874   5.240   4.304   1.518  0.6189  1.9167  0.4788
  481MOL0     H64875   5.297   4.437   1.436 -3.8215 -0.5576  0.4457
  481MOL0     H64876   5.522   4.328   1.384  0.0625 -0.0032  0.3440
  481MOL0     H64877   5.488   4.407   1.538 -0.1165  0.0485  0.7491
  481MOL0     H64878   5.489   4.091   1.492  0.3060 -1.4075  1.4752
  481MOL0     H64879   5.613   4.195   1.561  0.3405  1.2911  2.4240
  481MOL0     H64880   5.459   4.274   1.724  1.6034 -0.4439 -1.8471
  481MOL0     H64881   5.332   4.164   1.673  0.2932  0.5152 -3.0408
  481MOL0     H64882   5.461   4.093   1.880 -3.0089  4.2399 -0.9465
  481MOL0     H64883   5.606   4.071   1.779  0.4268 -0.4579  0.3684
  481MOL0     H64884   5.329   3.944   1.729  0.1280 -1.0132  1.7016
  481MOL0     H64885   5.477   3.900   1.649 -0.7074  0.9370 -0.5452
  481MOL0     H64886   5.675   3.787   1.781  0.0761  0.9482 -0.5584
  481MOL0     H64887   5.743   3.639   2.071 -1.3506  1.0463  1.1012
  481MOL0     H64888   5.811   3.791   2.033  2.0929  1.4056  4.0575
  481MOL0     H64889   5.672   3.701   2.269 -0.1054 -0.9136 -1.3429
  481MOL0     H64890   5.816   3.800   2.267 -1.0008 -0.5893  2.4282
  481MOL0     H64891   5.620   3.928   2.372 -1.3187  0.2811  0.0838
  481MOL0     H64892   5.522   3.914   2.235 -0.4453 -1.8218  0.4662
  481MOL0     H64893   5.689   4.083   2.124  1.6806  1.7756  0.5063
  481MOL0     H64894   5.789   4.056   2.268  0.6237 -0.5612  0.6131
  481MOL0     H64895   5.419   4.219   2.446  0.1620  0.4185  0.6621
  481MOL0     H64896   5.242   4.367   2.368 -0.2934 -0.6329  0.0143
  481MOL0     H64897   5.191   4.747   2.150 -0.8123  0.7575  0.5795
  481MOL0     H64898   5.055   4.943   2.059 -0.6417  0.2810 -0.8384
  481MOL0     H64899   4.952   4.984   1.887 -0.5173 -2.4497  1.3748
  481MOL0     H64900   4.798   4.989   1.790 -1.8896  0.6225  0.5628
  481MOL0     H64901   4.834   5.187   2.026 -1.6801 -0.5460  0.3247
  481MOL0     H64902   4.927   5.199   1.872 -0.4668 -1.1498  0.3545
  481MOL0     H64903   4.694   5.177   1.759  2.4360 -1.3131  0.9930
  481MOL0     H64904   4.638   5.208   1.924 -0.1362  3.5786  1.7100
  481MOL0     H64905   4.830   5.404   1.802  1.8145 -1.7439  1.8741
  481MOL0     H64906   4.728   5.410   1.950  0.4076  0.1869 -0.3173
  481MOL0     H64907   4.527   5.386   1.789 -1.1993  2.7528  1.9633
  481MOL0     H64908   4.630   5.416   1.656 -1.9595  0.1720 -0.3068
  481MOL0     H64909   4.522   5.612   1.715 -0.2226  0.1118 -0.2950
  481MOL0     H64910   4.537   5.585   1.881  1.4588  1.8653  1.0060
  481MOL0     H64911   4.758   5.650   1.684 -0.7957 -1.0105 -0.6173
  481MOL0     H64912   4.763   5.671   1.868 -2.1182 -1.4679  1.1259
  481MOL0     H64913   4.560   5.840   1.834 -0.3422 -3.1245  0.1018
  481MOL0     H64914   4.735   5.883   1.829 -1.9782  3.4495 -1.0091
  481MOL0     H64915   4.720   4.683   2.031  1.0450  1.3465 -1.4358
  481MOL0     H64916   4.866   4.489   2.105 -0.9655  0.5765 -0.6337
  481MOL0     H64917   5.405   4.389   1.972  3.7898 -0.1589 -0.1795
  481MOL0     H64918   5.597   4.239   2.052  0.3949  1.9649  0.1178
  481MOL0     H64919   4.876   4.095   1.496 -1.0599  0.0994 -1.0720
  481MOL0     H64920   4.756   3.876   1.520  0.3523 -2.4983  1.6763
  481MOL0     H64921   4.613   3.549   1.568  0.7959  3.1933 -1.4119
  481MOL0     H64922   4.409   3.471   1.583  1.2366  1.1482  0.0404
  481MOL0     H64923   4.200   3.215   1.243 -0.3232 -1.5567  1.3346
  481MOL0     H64924   4.163   3.385   1.235 -2.2157  0.1368  1.4735
  481MOL0     H64925   4.022   3.188   1.399 -0.8787  0.1203 -2.4193
  481MOL0     H64926   3.958   3.310   1.299  1.0368 -2.1314 -1.4682
  481MOL0     H64927   4.043   3.482   1.467 -0.6243  0.1287 -0.4560
  481MOL0     H64928   4.070   3.345   1.584 -0.6678  0.3114 -0.0796
  481MOL0     H64929   3.862   3.454   1.637  1.3583 -1.8168  0.9667
  481MOL0     H64930   3.797   3.421   1.473  2.1327  2.3380 -0.9806
  481MOL0     H64931   3.732   3.068   1.687 -2.1050 -0.4475 -1.8256
  481MOL0     H64932   4.374   3.382   1.167  1.2183 -0.6074 -0.3881
  481MOL0     H64933   4.639   3.612   1.059  1.9954 -0.5265 -0.1624
  481MOL0     H64934   4.674   3.433   1.043 -2.1442 -2.1869 -2.1341
  481MOL0     H64935   4.523   3.489   1.000 -1.0284 -3.6094  2.7408
  482MOL0     O64936   5.311  10.448  10.604 -0.3872  0.1491  0.5198
  482MOL0     C64937   5.293  10.561  10.558 -0.3184 -0.2602  0.8978
  482MOL0     O64938   5.382  10.674  10.552 -0.2083  0.2850 -1.0008
  482MOL0     C64939   5.516  10.659  10.609 -0.5690 -0.3141  0.3525
  482MOL0     C64940   5.537  10.585  10.731 -0.3894 -0.5910  0.5671
  482MOL0     C64941   5.672  10.580  10.779  0.9988 -0.4513 -0.8182
  482MOL0     C64942   5.781  10.640  10.713  0.4667  1.0433 -0.5571
  482MOL0     O64943   5.915  10.628  10.754  0.2745  0.1531  0.0203
  482MOL0     C64944   5.947  10.582  10.895  0.0396  0.4839  1.1942
  482MOL0     C64945   6.096  10.556  10.901 -0.3726  0.9681 -0.1729
  482MOL0     C64946   6.136  10.409  10.897  0.8991  0.5958  0.1373
  482MOL0     C64947   6.272  10.377  10.949 -0.5320  0.2260  0.4503
  482MOL0     C64948   6.294  10.372  11.101  0.0520  0.6072  0.6345
  482MOL0     C64949   6.416  10.291  11.148 -0.6113  0.3432  0.1782
  482MOL0     C64950   6.437  10.318  11.302  0.9891 -0.2774 -0.0574
  482MOL0     C64951   6.521  10.221  11.382 -0.3865  1.1697  0.7447
  482MOL0     N64952   6.476  10.085  11.364  0.4253 -0.3341  0.1950
  482MOL0     C64953   6.352  10.031  11.384  0.1041  0.5869 -0.6325
  482MOL0     C64954   6.375   9.899  11.376  0.7215  1.6722  0.0658
  482MOL0     C64955   6.293   9.774  11.395  0.1733 -0.3467  0.5172
  482MOL0     C64956   6.144   9.800  11.431 -0.3539 -0.4095 -0.0133
  482MOL0     C64957   6.082   9.671  11.467  0.3876 -0.2058  0.1840
  482MOL0     C64958   5.938   9.698  11.506 -0.0663  0.6431 -0.8394
  482MOL0     O64959   5.862   9.743  11.397  0.0743 -0.9424  0.0193
  482MOL0     C64960   5.810   9.661  11.301 -0.2495 -0.4715  0.5404
  482MOL0     C64961   5.718   9.711  11.214  0.2444 -0.2433 -0.1087
  482MOL0     C64962   5.666   9.635  11.110 -0.1892 -0.6934  0.5008
  482MOL0     C64963   5.703   9.505  11.089 -0.4992  1.0031  0.6985
  482MOL0     C64964   5.623   9.408  11.002  0.1871 -0.3337  0.2705
  482MOL0     O64965   5.518   9.465  10.928  0.0698  0.3102 -0.2714
  482MOL0     C64966   5.462   9.388  10.831  0.5679 -1.0507 -0.4305
  482MOL0     C64967   5.334   9.319  10.853 -0.5759 -0.0411  0.3492
  482MOL0     C64968   5.273   9.254  10.752 -0.6791  0.9985  0.1298
  482MOL0     C64969   5.330   9.247  10.622 -0.2138  0.7123 -0.0649
  482MOL0     O64970   5.293   9.174  10.519  0.0572  0.4577  0.0791
  482MOL0     C64971   5.189   9.077  10.538 -0.0208  0.4880  0.1749
  482MOL0     C64972   5.148   9.006  10.412 -0.7134  0.1075 -0.3382
  482MOL0     C64973   5.253   8.908  10.368  0.6101  0.5506  0.1746
  482MOL0     C64974   5.200   8.778  10.295  0.2608 -0.2531 -0.0326
  482MOL0     C64975   5.317   8.686  10.271 -0.2311 -0.2457 -0.3293
  482MOL0     C64976   5.263   8.568  10.194 -0.6754 -0.6333  0.4640
  482MOL0     C64977   5.365   8.453  10.187 -0.5830  0.0641  0.0978
  482MOL0     C64978   5.472   8.456  10.076 -0.4535  0.0007  0.2466
  482MOL0    Cl64979   5.411   8.414   9.919 -0.4375 -0.0893  0.3271
  482MOL0     C64980   5.450   9.320  10.601  0.1375 -0.9603 -0.1772
  482MOL0     C64981   5.520   9.387  10.703 -0.5003  0.5897 -0.0707
  482MOL0     O64982   5.648   9.286  11.007  0.1197 -0.2741 -0.1326
  482MOL0     C64983   5.792   9.445  11.176 -0.6014 -0.3936 -0.8423
  482MOL0     C64984   5.844   9.522  11.275  0.7175 -0.1642 -0.8512
  482MOL0     N64985   6.510   9.884  11.342  1.3101 -0.4628 -0.2198
  482MOL0     N64986   6.568   9.998  11.341 -0.5041  0.9072 -0.7130
  482MOL0     C64987   5.755  10.707  10.593 -0.5037  0.4581  1.1886
  482MOL0     C64988   5.625  10.717  10.544  0.0540 -0.2776  0.5388
  482MOL0     C64989   5.169  10.570  10.472 -0.4950  0.4025 -1.3769
  482MOL0     C64990   5.053  10.507  10.519  0.5413 -0.0059  0.4565
  482MOL0     C64991   4.938  10.486  10.440 -0.4878  0.4907  0.4490
  482MOL0     C64992   4.943  10.538  10.312 -0.1559 -0.9970  0.9534
  482MOL0     O64993   4.826  10.538  10.238  0.0875  0.2391 -0.1179
  482MOL0     C64994   4.794  10.632  10.130  0.3343  0.2924 -0.5365
  482MOL0     C64995   4.646  10.627  10.089  0.0786  0.4445 -0.9554
  482MOL0     C64996   4.595  10.762  10.044 -0.3669 -0.3799  0.2821
  482MOL0     C64997   4.640  10.778   9.900 -0.0009  0.7087 -0.4580
  482MOL0     C64998   4.742  10.889   9.904  0.4503 -0.2304 -0.2746
  482MOL0     C64999   4.812  10.992   9.907 -0.0538  0.0526 -0.1135
  482MOL0     C65000   5.054  10.613  10.272 -0.1286 -0.0948  0.3226
  482MOL0     C65001   5.171  10.630  10.348  0.2643 -0.1221  0.0101
  482MOL0     C65002   5.286  10.702  10.276 -0.4543  1.0415  0.4215
  482MOL0     H65003   5.454  10.539  10.783 -0.1891  0.7817  2.1747
  482MOL0     H65004   5.691  10.536  10.876  1.3266 -1.0376 -1.1422
  482MOL0     H65005   5.922  10.663  10.964 -1.0796 -0.9912  2.5854
  482MOL0     H65006   5.892  10.490  10.917 -1.2843  1.0324  0.3060
  482MOL0     H65007   6.130  10.591  10.999  2.5216 -0.3522 -0.5990
  482MOL0     H65008   6.149  10.612  10.824  0.7851  0.1168 -0.0251
  482MOL0     H65009   6.115  10.368  10.798  3.1630 -2.0226  0.6332
  482MOL0     H65010   6.065  10.356  10.962  0.4784  0.6031 -0.3072
  482MOL0     H65011   6.303  10.284  10.900  2.3920  2.5655 -2.6997
  482MOL0     H65012   6.341  10.446  10.897 -0.9001 -0.4572 -1.0043
  482MOL0     H65013   6.282  10.476  11.133  0.3751  1.2852 -1.2984
  482MOL0     H65014   6.208  10.323  11.147  1.1318 -1.0815  0.9215
  482MOL0     H65015   6.407  10.185  11.123  0.3036 -0.2123  1.9672
  482MOL0     H65016   6.507  10.324  11.098 -1.8896  0.5958 -2.0830
  482MOL0     H65017   6.341  10.338  11.350  0.9434  1.1729 -0.7219
  482MOL0     H65018   6.482  10.416  11.318 -1.1785  0.7517  0.1082
  482MOL0     H65019   6.624  10.240  11.350 -0.2405 -2.0674 -1.1157
  482MOL0     H65020   6.507  10.247  11.487 -1.7323  2.2280  0.3353
  482MOL0     H65021   6.262  10.085  11.412 -0.1911 -0.5189  0.6795
  482MOL0     H65022   6.300   9.719  11.301 -0.6142  2.3135 -1.1787
  482MOL0     H65023   6.340   9.717  11.476  0.0497  0.2500  1.0146
  482MOL0     H65024   6.139   9.860  11.522 -0.9992 -2.4506  1.3624
  482MOL0     H65025   6.086   9.848  11.351 -1.7073 -2.5753 -0.4105
  482MOL0     H65026   6.128   9.618  11.552  3.1902 -0.4564 -1.3677
  482MOL0     H65027   6.091   9.605  11.381  0.1372  0.9090 -0.7172
  482MOL0     H65028   5.938   9.779  11.579 -1.0644  1.0660 -1.2849
  482MOL0     H65029   5.897   9.615  11.563 -0.3153  0.4479 -1.2986
  482MOL0     H65030   5.676   9.808  11.238  0.8272 -0.3162  1.2517
  482MOL0     H65031   5.596   9.685  11.044  0.4880  2.5992  2.0266
  482MOL0     H65032   5.289   9.335  10.951  1.7384  1.1636  1.2937
  482MOL0     H65033   5.192   9.184  10.767 -0.0126 -0.7088 -3.1089
  482MOL0     H65034   5.228   9.011  10.616 -1.3544  2.8095  3.0268
  482MOL0     H65035   5.096   9.129  10.565 -0.8992 -0.5541 -0.7228
  482MOL0     H65036   5.060   8.951  10.447  0.1133 -0.5780  0.7225
  482MOL0     H65037   5.117   9.074  10.332  0.6268 -1.4522 -2.2922
  482MOL0     H65038   5.307   8.956  10.286 -2.2952  0.4136 -2.0191
  482MOL0     H65039   5.319   8.875  10.449  2.5978  0.1475 -1.5244
  482MOL0     H65040   5.145   8.790  10.202 -0.8324 -1.1883  0.4762
  482MOL0     H65041   5.133   8.741  10.373  2.6792 -0.2514  2.2061
  482MOL0     H65042   5.358   8.662  10.370  0.9543 -0.3142 -0.8179
  482MOL0     H65043   5.400   8.717  10.208  1.1017 -2.3036  0.2833
  482MOL0     H65044   5.173   8.531  10.246  0.5209  1.0232  4.0918
  482MOL0     H65045   5.247   8.608  10.094  0.6053 -3.8355 -1.1375
  482MOL0     H65046   5.304   8.362  10.180  0.4962 -0.5806 -1.7549
  482MOL0     H65047   5.416   8.447  10.283 -0.3651 -1.0319 -0.0740
  482MOL0     H65048   5.518   8.555  10.073 -1.9065  0.6830 -0.4239
  482MOL0     H65049   5.547   8.378  10.094 -1.3326 -0.7222  0.8827
  482MOL0     H65050   5.483   9.321  10.498  0.3906 -2.7114 -0.1505
  482MOL0     H65051   5.608   9.448  10.682 -0.4893  0.0901 -1.6853
  482MOL0     H65052   5.813   9.339  11.177 -2.9722 -0.9213 -0.1020
  482MOL0     H65053   5.918   9.465  11.331  2.0781 -0.7026 -3.0517
  482MOL0     H65054   5.839  10.763  10.551 -0.1323 -0.7518  0.2651
  482MOL0     H65055   5.611  10.769  10.450  0.2788  0.7223  1.0469
  482MOL0     H65056   5.065  10.463  10.617  0.9602 -2.3610 -0.5993
  482MOL0     H65057   4.871  10.405  10.467  0.5648 -1.8650 -3.2521
  482MOL0     H65058   4.854  10.617  10.040  1.1893  2.2447 -0.3573
  482MOL0     H65059   4.818  10.732  10.169 -1.7118  1.0282 -1.0333
  482MOL0     H65060   4.581  10.608  10.175  0.3234 -1.0449 -1.0748
  482MOL0     H65061   4.638  10.550  10.011 -0.6865 -0.2636 -0.1994
  482MOL0     H65062   4.632  10.846  10.104 -0.0394  0.5065 -1.1348
  482MOL0     H65063   4.486  10.761  10.040 -0.4432  0.9911  1.2143
  482MOL0     H65064   4.684  10.687   9.859  3.3039  1.3286  1.4083
  482MOL0     H65065   4.544  10.813   9.859  0.7312  2.5287 -0.6976
  482MOL0     H65066   4.865  11.085   9.914 -0.6413  0.4607 -0.8305
  482MOL0     H65067   5.043  10.648  10.170 -1.3779 -0.2884  0.3709
  482MOL0     H65068   5.342  10.773  10.337  1.0034 -2.8846  4.2068
  482MOL0     H65069   5.355  10.624  10.241 -1.3630  1.1803 -1.8502
  482MOL0     H65070   5.236  10.742  10.188  0.0131 -0.8677 -0.7787
  483MOL0     O65071   1.504   0.471   2.250  0.0629  0.3132  0.2680
  483MOL0     C65072   1.402   0.410   2.209 -1.0620 -0.2441  0.1530
  483MOL0     O65073   1.405   0.319   2.106 -0.0598 -0.5545  0.2717
  483MOL0     C65074   1.535   0.277   2.074  0.9228 -0.0676  0.2310
  483MOL0     C65075   1.616   0.367   2.000 -0.4104 -0.6617  1.3031
  483MOL0     C65076   1.752   0.345   1.978 -0.1221  0.5183  1.0941
  483MOL0     C65077   1.802   0.222   2.038 -0.5112 -0.3511 -1.0185
  483MOL0     O65078   1.940   0.206   2.046  0.2343 -0.2061  0.0678
  483MOL0     C65079   2.006   0.313   2.115  0.2489  0.1174  0.2790
  483MOL0     C65080   2.084   0.394   2.006 -0.2571  0.9163 -0.1721
  483MOL0     C65081   2.235   0.395   2.048 -0.0516  0.8480  1.2486
  483MOL0     C65082   2.299   0.262   1.999 -0.2515  0.7608 -0.4656
  483MOL0     C65083   2.444   0.244   2.020 -0.6494  0.3608  0.1506
  483MOL0     C65084   2.484   0.293   2.159  0.6791  0.2153 -0.2677
  483MOL0     C65085   2.617   0.236   2.197  0.7665 -0.7154  0.5782
  483MOL0     C65086   2.725   0.336   2.153 -0.3871 -0.8387  0.0852
  483MOL0     N65087   2.853   0.287   2.199  0.0736  0.6692 -0.4836
  483MOL0     C65088   2.930   0.197   2.134  0.2692 -0.1492  0.4107
  483MOL0     C65089   3.039   0.185   2.219  0.7074 -0.2157  0.8238
  483MOL0     C65090   3.138   0.081   2.220 -0.5681  0.1950  0.0959
  483MOL0     C65091   3.282   0.139   2.211 -0.4869 -0.1317  0.0268
  483MOL0     C65092   3.316   0.183   2.070  0.1176 -0.1996  0.1044
  483MOL0     C65093   3.435   0.278   2.080  0.0438 -1.1449 -0.2177
  483MOL0     O65094   3.542   0.187   2.077 -0.0788 -0.4997 -0.0846
  483MOL0     C65095   3.665   0.250   2.076 -0.9277  0.1582 -0.1356
  483MOL0     C65096   3.680   0.382   2.124  0.2062 -0.4212  0.8302
  483MOL0     C65097   3.809   0.439   2.123  0.2957  0.0061  0.4094
  483MOL0     C65098   3.921   0.380   2.078  0.5957  0.6213 -0.1163
  483MOL0     C65099   4.049   0.449   2.065 -0.0810  0.2286 -0.3465
  483MOL0     O65100   4.157   0.373   2.030  0.0724  0.7108  0.3447
  483MOL0     C65101   4.273   0.435   1.992 -0.7508 -0.5501  0.1410
  483MOL0     C65102   4.396   0.360   2.004  0.4546 -0.4143  0.3301
  483MOL0     C65103   4.521   0.409   1.960  0.3881 -0.9984 -0.3545
  483MOL0     C65104   4.532   0.529   1.896  0.3049 -0.1888 -0.4643
  483MOL0     O65105   4.655   0.565   1.856 -0.2688  0.1707 -0.3681
  483MOL0     C65106   4.679   0.616   1.722 -0.6817  0.2241 -0.3467
  483MOL0     C65107   4.826   0.609   1.679  0.3937  0.3950  0.5984
  483MOL0     C65108   4.878   0.462   1.675 -0.5507  0.2609 -1.2555
  483MOL0     C65109   5.031   0.441   1.634  0.2579  0.4021 -0.3764
  483MOL0     C65110   5.056   0.428   1.486  0.2891 -0.0029 -0.1668
  483MOL0     C65111   5.081   0.564   1.420 -0.7041 -0.1893 -1.5832
  483MOL0     C65112   5.091   0.550   1.266 -0.6859  0.4974 -0.3868
  483MOL0     C65113   5.101   0.677   1.183 -0.6714  0.0705 -0.7164
  483MOL0    Cl65114   5.253   0.766   1.237 -0.0823 -0.1785 -0.0055
  483MOL0     C65115   4.410   0.600   1.872  0.2409  0.6288  0.3382
  483MOL0     C65116   4.279   0.554   1.921  0.4962 -0.9861 -0.4324
  483MOL0     O65117   4.061   0.568   2.098  1.1794  0.2163 -0.0854
  483MOL0     C65118   3.898   0.251   2.018 -0.2655 -0.9545  0.0589
  483MOL0     C65119   3.785   0.181   2.037  1.0289 -0.0907  0.0985
  483MOL0     N65120   3.032   0.275   2.326 -0.3609 -0.5074 -0.1506
  483MOL0     N65121   2.919   0.332   2.305  0.5212  0.1062  0.6823
  483MOL0     C65122   1.718   0.129   2.103  0.1665  0.2307 -0.1670
  483MOL0     C65123   1.588   0.163   2.127  0.4552 -0.2546  0.4560
  483MOL0     C65124   1.281   0.420   2.294  0.4329  0.3915  0.2471
  483MOL0     C65125   1.260   0.534   2.371  0.1488 -0.3860  0.6670
  483MOL0     C65126   1.158   0.538   2.469  0.4934  0.3949 -0.6876
  483MOL0     C65127   1.058   0.429   2.479 -0.2846 -0.5317  0.7009
  483MOL0     O65128   0.946   0.440   2.563 -0.3712 -0.4346  0.4337
  483MOL0     C65129   0.880   0.321   2.594  0.5592 -0.7073 -0.5009
  483MOL0     C65130   0.830   0.335   2.744  0.3439  0.7166 -0.4456
  483MOL0     C65131   0.687   0.374   2.732 -0.0915  0.2034 -0.2930
  483MOL0     C65132   0.622   0.391   2.872 -0.4942 -0.5958  0.9242
  483MOL0     C65133   0.483   0.414   2.847  0.6786 -0.3160  0.6261
  483MOL0     C65134   0.360   0.414   2.839  0.6261  0.6152  0.0792
  483MOL0     C65135   1.078   0.320   2.391  0.1417 -0.1235  0.8880
  483MOL0     C65136   1.184   0.320   2.297  0.0370  0.9036 -0.6203
  483MOL0     C65137   1.185   0.198   2.209  0.4890  0.8444  0.1964
  483MOL0     H65138   1.572   0.459   1.963  1.2334 -0.3037  0.1080
  483MOL0     H65139   1.802   0.426   1.925  1.3658  0.6934  2.6555
  483MOL0     H65140   1.940   0.378   2.173  2.2097  2.5014 -0.0040
  483MOL0     H65141   2.075   0.263   2.184 -0.5279  0.1877  1.1223
  483MOL0     H65142   2.040   0.494   2.008 -0.6079  0.7514  0.7959
  483MOL0     H65143   2.069   0.360   1.903  2.4132 -0.0679 -0.3219
  483MOL0     H65144   2.249   0.396   2.157  3.9381 -1.2698  0.9517
  483MOL0     H65145   2.277   0.490   2.017  0.0879  0.3306 -0.2005
  483MOL0     H65146   2.235   0.188   2.049 -1.2317  1.3917 -0.7473
  483MOL0     H65147   2.283   0.248   1.892  1.9285 -2.4427 -0.5312
  483MOL0     H65148   2.469   0.137   2.016 -0.2664  0.4894 -1.9678
  483MOL0     H65149   2.492   0.297   1.937 -0.8713 -2.3280 -1.8329
  483MOL0     H65150   2.492   0.402   2.171  0.5085  0.3572 -1.4190
  483MOL0     H65151   2.407   0.250   2.223  0.1223  0.0590 -1.0412
  483MOL0     H65152   2.629   0.137   2.153 -0.8258 -0.4371 -0.5979
  483MOL0     H65153   2.617   0.232   2.306 -0.2092 -1.9735  0.5581
  483MOL0     H65154   2.726   0.343   2.044 -0.8632 -1.6521  0.0220
  483MOL0     H65155   2.715   0.434   2.201  1.1270 -2.3786  3.9413
  483MOL0     H65156   2.914   0.124   2.056  1.1342  0.0003  0.0871
  483MOL0     H65157   3.133   0.025   2.314 -0.8229 -1.3281 -0.7905
  483MOL0     H65158   3.125   0.016   2.133  1.0313 -0.2344  0.1420
  483MOL0     H65159   3.280   0.225   2.279  0.6048  1.3292 -1.6961
  483MOL0     H65160   3.348   0.060   2.247 -0.4283  0.1380  0.5164
  483MOL0     H65161   3.234   0.240   2.026 -0.2868 -0.3865  0.6043
  483MOL0     H65162   3.333   0.097   2.005 -0.0647 -0.3720  0.2834
  483MOL0     H65163   3.428   0.330   2.176  0.6953 -1.9811  0.2910
  483MOL0     H65164   3.443   0.340   1.990  0.4661 -3.2420 -1.7013
  483MOL0     H65165   3.608   0.454   2.161 -0.6278 -0.9573  0.2668
  483MOL0     H65166   3.805   0.542   2.157 -0.3162  0.5549 -1.2075
  483MOL0     H65167   4.385   0.260   2.046  0.9051 -0.2847  0.7549
  483MOL0     H65168   4.608   0.346   1.973  0.1430 -0.8304  3.0020
  483MOL0     H65169   4.613   0.556   1.658 -1.8080 -0.7226  1.5838
  483MOL0     H65170   4.645   0.719   1.715 -0.8938  0.1729 -0.1061
  483MOL0     H65171   4.829   0.662   1.583 -0.2680 -1.9564 -0.8115
  483MOL0     H65172   4.899   0.666   1.738  2.5295 -1.6280  0.0396
  483MOL0     H65173   4.857   0.422   1.775 -0.0157  2.3765 -0.2351
  483MOL0     H65174   4.815   0.409   1.603 -3.5007  1.4641  0.2552
  483MOL0     H65175   5.053   0.338   1.661  2.6282  0.2714 -2.5011
  483MOL0     H65176   5.102   0.508   1.682  1.7560 -2.1984  1.2302
  483MOL0     H65177   4.976   0.379   1.430  1.8723  0.4581 -3.0125
  483MOL0     H65178   5.145   0.369   1.461 -0.3282 -0.3574 -1.6118
  483MOL0     H65179   4.990   0.619   1.445  0.7181  0.8379  2.0093
  483MOL0     H65180   5.171   0.607   1.464  0.0160 -0.5920 -2.6215
  483MOL0     H65181   5.002   0.500   1.227 -0.3588  2.0110 -3.2824
  483MOL0     H65182   5.170   0.481   1.236 -1.5230 -1.7332  2.1185
  483MOL0     H65183   5.099   0.656   1.075 -3.5069  0.0327 -0.7398
  483MOL0     H65184   5.014   0.740   1.202  0.7057  2.3289 -1.4994
  483MOL0     H65185   4.408   0.697   1.823 -0.9295 -0.0823 -1.0990
  483MOL0     H65186   4.189   0.606   1.891 -0.3307 -0.9518  1.9372
  483MOL0     H65187   3.974   0.195   1.963 -2.1763 -1.9066 -1.7641
  483MOL0     H65188   3.781   0.076   2.010  1.6446  0.0363 -0.4994
  483MOL0     H65189   1.759   0.040   2.151  6.1312  1.8587 -1.3818
  483MOL0     H65190   1.525   0.105   2.194 -1.2030 -0.3661 -1.0972
  483MOL0     H65191   1.330   0.617   2.374 -0.9004  0.6536 -1.6806
  483MOL0     H65192   1.140   0.628   2.528  4.1264 -0.4882  2.0759
  483MOL0     H65193   0.937   0.227   2.597  1.8654  0.0594  2.3833
  483MOL0     H65194   0.799   0.307   2.522  2.4209 -1.5402 -2.5722
  483MOL0     H65195   0.889   0.411   2.798 -0.9374 -0.4007  2.8191
  483MOL0     H65196   0.847   0.239   2.795 -0.2662  0.6058 -0.4447
  483MOL0     H65197   0.638   0.291   2.680  0.3426  0.2025 -0.7045
  483MOL0     H65198   0.671   0.466   2.674 -3.5489  0.4263  0.7811
  483MOL0     H65199   0.631   0.299   2.931 -0.2450 -0.6406  0.8170
  483MOL0     H65200   0.668   0.479   2.918  1.0148 -2.1326  2.5172
  483MOL0     H65201   0.254   0.399   2.829  0.5853  1.8951 -2.1367
  483MOL0     H65202   1.011   0.234   2.400  3.2538 -2.6832  1.5814
  483MOL0     H65203   1.277   0.144   2.233 -1.2250 -1.6517  1.5952
  483MOL0     H65204   1.099   0.136   2.234  2.6738 -0.8213  4.6180
  483MOL0     H65205   1.178   0.225   2.103 -1.8929  0.8361  0.3086
  484MOL0     O65206   9.927  10.817   5.068  0.5495  0.3582 -0.3649
  484MOL0     C65207   9.909  10.823   4.944 -0.0116  0.6942  0.2192
  484MOL0     O65208   9.949  10.719   4.866 -0.0195 -0.2526 -0.2033
  484MOL0     C65209  10.062  10.646   4.907 -0.9078  0.8636 -0.7891
  484MOL0     C65210  10.171  10.693   4.988  0.3620 -0.1355 -0.5447
  484MOL0     C65211  10.288  10.616   5.005  0.7044 -0.8369 -0.0844
  484MOL0     C65212  10.301  10.491   4.941  0.2102  0.6850  0.2414
  484MOL0     O65213  10.432  10.447   4.962  0.3753  0.0025  0.8266
  484MOL0     C65214  10.492  10.370   4.864  0.3034  0.0740  0.1002
  484MOL0     C65215  10.528  10.232   4.931  0.0303  0.0574  0.0739
  484MOL0     C65216  10.588  10.231   5.075  0.1515 -0.3290 -0.1247
  484MOL0     C65217  10.467  10.191   5.162 -0.4623 -0.0481  0.1734
  484MOL0     C65218  10.502  10.198   5.306  0.5490  0.3177  0.2516
  484MOL0     C65219  10.386  10.169   5.397 -1.2905 -0.3179 -0.5096
  484MOL0     C65220  10.427  10.161   5.546  0.8454  0.6546  0.0857
  484MOL0     C65221  10.410  10.307   5.605 -0.2916  0.8828  1.0794
  484MOL0     N65222  10.451  10.314   5.751 -0.2259  0.1094  0.8062
  484MOL0     C65223  10.463  10.202   5.833 -0.0844  0.0391 -0.2048
  484MOL0     C65224  10.538  10.237   5.934 -0.1191  0.2526 -0.2256
  484MOL0     C65225  10.597  10.157   6.042  0.3693 -0.1078  0.4168
  484MOL0     C65226  10.656  10.035   5.983  0.3226  0.7191  0.0193
  484MOL0     C65227  10.720   9.958   6.098 -0.3650  0.1973 -1.3914
  484MOL0     C65228  10.781   9.824   6.051  0.6492 -0.0773 -0.7643
  484MOL0     O65229  10.894   9.836   5.970  0.2129 -0.6421 -0.1973
  484MOL0     C65230  11.021   9.864   6.012  0.7593 -0.1091  0.6674
  484MOL0     C65231  11.110   9.923   5.922 -0.7006  0.2101  0.6544
  484MOL0     C65232  11.239   9.956   5.964  0.2780  0.3616 -0.2131
  484MOL0     C65233  11.282   9.925   6.097 -0.3267 -0.6277 -0.1084
  484MOL0     C65234  11.415   9.970   6.141 -0.7015 -0.8381  0.2213
  484MOL0     O65235  11.453   9.915   6.260 -0.0535  1.1003 -0.1287
  484MOL0     C65236  11.586   9.915   6.285 -0.1616 -0.1966  0.1714
  484MOL0     C65237  11.625  10.013   6.368 -0.8065  0.4215  0.2126
  484MOL0     C65238  11.759  10.035   6.392  0.0786  0.4923 -0.4308
  484MOL0     C65239  11.863   9.960   6.337 -1.6677 -0.4150  0.1491
  484MOL0     O65240  12.005   9.997   6.355 -0.0195  0.2329  0.5900
  484MOL0     C65241  12.021  10.067   6.482  0.1232  0.0454  0.7155
  484MOL0     C65242  12.163  10.067   6.517 -0.6964 -0.4544 -0.2057
  484MOL0     C65243  12.235  10.170   6.434  0.1027  1.1055 -0.3918
  484MOL0     C65244  12.381  10.138   6.448 -0.2420 -0.1497 -0.3247
  484MOL0     C65245  12.465  10.247   6.385  0.7839  0.1733 -1.4248
  484MOL0     C65246  12.605  10.247   6.431 -0.0780 -0.0064  0.1942
  484MOL0     C65247  12.646  10.376   6.498 -0.9635 -0.3920 -0.2998
  484MOL0     C65248  12.660  10.500   6.415 -0.3872 -0.0194 -0.1696
  484MOL0    Cl65249  12.664  10.467   6.245 -0.1485 -0.0437  0.3192
  484MOL0     C65250  11.824   9.856   6.251  0.4051 -0.7240 -0.0335
  484MOL0     C65251  11.681   9.836   6.226  0.1631  0.5304  0.1345
  484MOL0     O65252  11.492  10.031   6.064  0.0974  0.2536  0.2837
  484MOL0     C65253  11.187   9.873   6.186 -0.1354  0.0982 -0.6250
  484MOL0     C65254  11.055   9.847   6.141 -0.2153 -0.0359  0.2326
  484MOL0     N65255  10.575  10.364   5.917  0.7324 -0.1098 -0.0104
  484MOL0     N65256  10.535  10.410   5.804  0.0368  0.0383  0.5658
  484MOL0     C65257  10.192  10.443   4.867 -0.2360  0.2342  0.5449
  484MOL0     C65258  10.077  10.515   4.849  0.2586  0.2453  0.5563
  484MOL0     C65259   9.795  10.913   4.903  0.0097  0.6701  0.8132
  484MOL0     C65260   9.776  11.035   4.979 -0.1063  0.6508  1.3436
  484MOL0     C65261   9.690  11.132   4.928 -0.5568 -0.3010 -0.4172
  484MOL0     C65262   9.616  11.109   4.826 -0.1555 -0.3947 -0.5285
  484MOL0     O65263   9.537  11.213   4.792  0.5525  0.2750  0.4673
  484MOL0     C65264   9.551  11.280   4.665 -0.0873  0.3060  0.3890
  484MOL0     C65265   9.538  11.429   4.684  0.2694  0.0832 -0.3831
  484MOL0     C65266   9.565  11.505   4.553  0.4212 -0.7010 -0.4487
  484MOL0     C65267   9.433  11.499   4.460 -0.8911 -0.6694  0.3803
  484MOL0     C65268   9.489  11.547   4.336  0.3966  0.5470 -0.1506
  484MOL0     C65269   9.544  11.603   4.247  1.5608  0.4575 -0.2180
  484MOL0     C65270   9.630  10.993   4.747 -0.9514 -0.4344 -0.0139
  484MOL0     C65271   9.709  10.891   4.792  0.6692  0.1577  0.2365
  484MOL0     C65272   9.706  10.781   4.701 -0.0064  0.3303 -0.9918
  484MOL0     H65273  10.160  10.794   5.025 -0.3502  0.4530 -2.2654
  484MOL0     H65274  10.360  10.651   5.078  2.6068 -1.2399 -1.6712
  484MOL0     H65275  10.419  10.348   4.786 -0.7857  1.7743  0.5648
  484MOL0     H65276  10.585  10.416   4.829 -0.2628  1.3831  0.2517
  484MOL0     H65277  10.592  10.180   4.859 -2.5658 -0.4922 -1.9705
  484MOL0     H65278  10.440  10.170   4.914 -0.0742  0.0972  0.4536
  484MOL0     H65279  10.624  10.330   5.103  3.0726 -1.1358 -0.6700
  484MOL0     H65280  10.667  10.158   5.099  1.2753  0.9542  0.2076
  484MOL0     H65281  10.388  10.266   5.153  0.0834  0.7340  1.6264
  484MOL0     H65282  10.426  10.098   5.121 -0.7837  0.1477  0.0415
  484MOL0     H65283  10.579  10.125   5.328  0.4414 -0.3215 -1.3683
  484MOL0     H65284  10.540  10.297   5.331 -1.2437  1.4294 -1.0858
  484MOL0     H65285  10.310  10.249   5.397 -2.3672 -1.3031 -0.0114
  484MOL0     H65286  10.332  10.079   5.366 -0.4919 -0.9871  0.0186
  484MOL0     H65287  10.521  10.114   5.574 -0.9026 -2.3162  1.4018
  484MOL0     H65288  10.346  10.103   5.591 -0.1432  2.2077  0.4067
  484MOL0     H65289  10.484  10.367   5.552  4.1806 -0.8449  4.7311
  484MOL0     H65290  10.311  10.352   5.591 -0.6646  0.2477  1.5911
  484MOL0     H65291  10.432  10.100   5.815  3.8421 -1.5202  0.9755
  484MOL0     H65292  10.666  10.211   6.107  1.1074 -0.4978 -0.0321
  484MOL0     H65293  10.507  10.129   6.098  0.3956 -0.3530  0.3350
  484MOL0     H65294  10.573   9.978   5.941 -0.4816  1.3347  0.7325
  484MOL0     H65295  10.727  10.071   5.908  0.5568 -1.6375 -0.9533
  484MOL0     H65296  10.643   9.927   6.169  1.0500  4.1604  2.2784
  484MOL0     H65297  10.791  10.017   6.156 -0.4574 -0.8911 -0.1339
  484MOL0     H65298  10.709   9.774   5.985  1.7665 -1.1666 -1.1948
  484MOL0     H65299  10.803   9.756   6.134  2.3791  2.2250  0.8029
  484MOL0     H65300  11.072   9.952   5.824 -2.5263 -0.5667  1.0891
  484MOL0     H65301  11.299  10.025   5.906  1.5288  0.3535  1.0130
  484MOL0     H65302  11.544  10.071   6.412 -0.8177  1.3429 -0.9754
  484MOL0     H65303  11.779  10.117   6.459  0.2439  1.2821 -1.4190
  484MOL0     H65304  11.981  10.168   6.471  0.3573  0.0976  0.3127
  484MOL0     H65305  11.977  10.028   6.574  1.7628  0.8367  1.8944
  484MOL0     H65306  12.167  10.102   6.621 -2.1556 -0.1992 -0.2059
  484MOL0     H65307  12.205   9.967   6.509 -0.6748 -0.4590 -0.0453
  484MOL0     H65308  12.194  10.152   6.334  1.2086 -1.7755 -0.4229
  484MOL0     H65309  12.218  10.273   6.468  2.9925  1.8460 -0.9158
  484MOL0     H65310  12.408  10.044   6.399 -0.3581 -0.9898  1.1672
  484MOL0     H65311  12.412  10.132   6.553  1.9791 -2.1659 -1.0142
  484MOL0     H65312  12.420  10.345   6.405  2.5132  0.2366  3.6646
  484MOL0     H65313  12.460  10.226   6.278  1.0937 -0.9094 -1.2405
  484MOL0     H65314  12.630  10.180   6.514 -0.1100 -0.0145  0.1976
  484MOL0     H65315  12.667  10.215   6.347  0.5008  2.1942 -0.2819
  484MOL0     H65316  12.742  10.369   6.550 -1.3965 -3.0057  0.2789
  484MOL0     H65317  12.579  10.398   6.582  1.4627  3.7070  0.8544
  484MOL0     H65318  12.578  10.570   6.434 -0.2580  1.0095 -2.9466
  484MOL0     H65319  12.760  10.541   6.432 -1.4437  3.5171 -1.5453
  484MOL0     H65320  11.902   9.804   6.196 -0.3272 -0.4226 -1.4191
  484MOL0     H65321  11.645   9.767   6.150  2.9473  1.3479 -2.1327
  484MOL0     H65322  11.225   9.858   6.286  2.7433 -0.0738 -1.6524
  484MOL0     H65323  10.987   9.812   6.218  2.0034 -2.3206  1.3020
  484MOL0     H65324  10.203  10.351   4.810 -0.7877 -0.6943  1.8539
  484MOL0     H65325  10.005  10.469   4.782 -0.8475  1.0188  1.1895
  484MOL0     H65326   9.824  11.053   5.075 -1.1853 -2.8978  2.7014
  484MOL0     H65327   9.686  11.229   4.977 -2.3991  0.1938 -1.4524
  484MOL0     H65328   9.472  11.244   4.598  0.8903 -0.9961 -0.1147
  484MOL0     H65329   9.643  11.257   4.611 -1.1443 -0.5948 -1.1219
  484MOL0     H65330   9.604  11.462   4.765 -0.2985  1.9714 -0.6326
  484MOL0     H65331   9.438  11.454   4.720 -2.3369 -3.5968 -4.1670
  484MOL0     H65332   9.652  11.460   4.504  1.8194  3.8013 -2.6258
  484MOL0     H65333   9.586  11.610   4.572 -1.8064 -0.4748  1.1575
  484MOL0     H65334   9.396  11.397   4.448 -0.2665 -1.1731  2.3609
  484MOL0     H65335   9.357  11.566   4.501 -0.9620 -1.2714  1.2714
  484MOL0     H65336   9.613  11.652   4.181  3.0289 -0.8848  0.2528
  484MOL0     H65337   9.559  10.986   4.665 -1.2027  1.5156 -0.0036
  484MOL0     H65338   9.683  10.691   4.759  0.4651  1.3518  0.8340
  484MOL0     H65339   9.641  10.799   4.615 -0.3508  1.9995 -0.4087
  484MOL0     H65340   9.803  10.762   4.654 -0.5951 -0.6011 -1.8666
  485MOL0     O65341   2.636   6.176   3.260 -0.2124  0.1523  0.1512
  485MOL0     C65342   2.560   6.213   3.348  0.7836 -0.1096 -0.1322
  485MOL0     O65343   2.534   6.149   3.462 -0.3138 -0.2347  0.5832
  485MOL0     C65344   2.585   6.025   3.486  0.7199  0.5163  1.0532
  485MOL0     C65345   2.492   5.927   3.535  0.6432 -0.3946  0.1169
  485MOL0     C65346   2.548   5.799   3.583 -0.0022 -0.3463  1.0287
  485MOL0     C65347   2.686   5.772   3.565 -0.1222 -0.0971  0.0609
  485MOL0     O65348   2.734   5.650   3.595 -0.5137 -0.0993 -0.5591
  485MOL0     C65349   2.668   5.567   3.700 -0.8078 -0.0831 -0.1479
  485MOL0     C65350   2.778   5.474   3.745 -0.5104 -0.2145  0.1966
  485MOL0     C65351   2.857   5.390   3.641  0.5095 -0.0225 -0.2887
  485MOL0     C65352   2.987   5.444   3.623 -0.5613  0.5967 -0.2316
  485MOL0     C65353   3.062   5.372   3.518  0.6637  0.2179 -0.3336
  485MOL0     C65354   3.028   5.415   3.380  0.6554  0.5220 -0.4348
  485MOL0     C65355   3.018   5.564   3.351 -0.8472  0.6250  0.6324
  485MOL0     C65356   3.015   5.599   3.202 -0.2721  0.7209  0.9714
  485MOL0     N65357   2.879   5.566   3.149  0.5868  0.9337  0.7021
  485MOL0     C65358   2.752   5.575   3.215 -0.2784 -0.2044  0.1418
  485MOL0     C65359   2.658   5.530   3.122  0.4165  0.1393 -0.8630
  485MOL0     C65360   2.509   5.521   3.115 -0.4069 -0.2078 -0.3106
  485MOL0     C65361   2.472   5.385   3.068 -0.4822  0.7547 -0.1868
  485MOL0     C65362   2.505   5.273   3.168  0.9376  0.0950  0.7349
  485MOL0     C65363   2.441   5.146   3.102  0.0329 -0.1873 -0.3120
  485MOL0     O65364   2.431   5.049   3.212  0.5331  0.0907 -0.6859
  485MOL0     C65365   2.381   4.929   3.176 -1.0001  0.2407  0.0792
  485MOL0     C65366   2.249   4.893   3.194 -0.6566  1.0685 -0.8794
  485MOL0     C65367   2.205   4.763   3.158 -0.0405 -0.8462  0.2743
  485MOL0     C65368   2.294   4.668   3.095  0.0744  0.2306  0.4657
  485MOL0     C65369   2.247   4.529   3.061 -0.0596 -0.5205 -0.7717
  485MOL0     O65370   2.347   4.449   3.003 -0.3628 -0.4820 -0.2386
  485MOL0     C65371   2.326   4.324   2.961  0.2255  0.7746  0.1520
  485MOL0     C65372   2.240   4.229   3.022 -0.6219  0.7568  0.5773
  485MOL0     C65373   2.245   4.092   2.978 -0.0175 -0.2869 -0.4962
  485MOL0     C65374   2.336   4.046   2.888  0.5369 -0.3018 -0.0382
  485MOL0     O65375   2.348   3.916   2.861  0.2187 -0.6511  1.0088
  485MOL0     C65376   2.434   3.856   2.763 -0.3683 -0.5497 -0.6885
  485MOL0     C65377   2.399   3.716   2.764 -0.1379  0.1010  0.6113
  485MOL0     C65378   2.458   3.644   2.644  0.2566 -0.3797  0.5611
  485MOL0     C65379   2.426   3.491   2.671 -0.7246 -0.5334  0.2559
  485MOL0     C65380   2.532   3.415   2.739  0.0575  0.2155 -1.0927
  485MOL0     C65381   2.661   3.414   2.652  0.4264 -0.0088 -0.1340
  485MOL0     C65382   2.780   3.360   2.724  1.1271 -1.1811  0.8574
  485MOL0     C65383   2.863   3.264   2.645  0.3210  1.0304 -0.3114
  485MOL0    Cl65384   3.007   3.221   2.733 -0.1515  0.1038  0.2799
  485MOL0     C65385   2.417   4.143   2.825 -0.3295 -0.0884 -0.6538
  485MOL0     C65386   2.411   4.282   2.860  1.1004  0.1730  0.1828
  485MOL0     O65387   2.131   4.498   3.081  0.4938 -0.2337  0.4515
  485MOL0     C65388   2.426   4.713   3.080  0.3876 -0.3676  0.4349
  485MOL0     C65389   2.465   4.838   3.116  0.3479  0.0106  0.1717
  485MOL0     N65390   2.729   5.500   3.006  0.3892 -0.3551  0.4321
  485MOL0     N65391   2.861   5.515   3.025 -0.3977  0.1599 -0.5897
  485MOL0     C65392   2.772   5.864   3.511  0.6175  0.1242  1.1290
  485MOL0     C65393   2.721   5.989   3.478  0.5545  1.0410  1.2307
  485MOL0     C65394   2.480   6.327   3.302  0.1054 -0.3135 -0.2743
  485MOL0     C65395   2.459   6.419   3.402  0.6548 -0.8013 -0.2148
  485MOL0     C65396   2.366   6.523   3.374  0.1293  0.2200  0.5596
  485MOL0     C65397   2.306   6.536   3.245  1.1184 -0.3098 -0.7776
  485MOL0     O65398   2.196   6.616   3.221  0.0321  0.1518 -0.2787
  485MOL0     C65399   2.144   6.686   3.335 -0.1166 -1.1274  0.2296
  485MOL0     C65400   2.006   6.749   3.296  0.4384 -0.2155 -0.6824
  485MOL0     C65401   1.926   6.784   3.421  0.1121  0.5421 -0.6621
  485MOL0     C65402   1.803   6.859   3.377  0.7165  0.1483 -0.3370
  485MOL0     C65403   1.691   6.779   3.325  0.6144  0.4554  0.1458
  485MOL0     C65404   1.597   6.729   3.272 -0.3175  0.4102 -0.9324
  485MOL0     C65405   2.343   6.453   3.146 -0.1386 -0.1093  0.1868
  485MOL0     C65406   2.422   6.347   3.170 -0.3536  0.5141  0.2597
  485MOL0     C65407   2.428   6.243   3.057 -0.2333 -0.4617 -0.2102
  485MOL0     H65408   2.386   5.950   3.537  0.5361 -0.8371 -0.2102
  485MOL0     H65409   2.489   5.716   3.621  1.3445 -1.6011  0.4741
  485MOL0     H65410   2.642   5.631   3.784  0.1389 -0.9939  0.8632
  485MOL0     H65411   2.582   5.514   3.658 -1.0633  0.1110  0.1275
  485MOL0     H65412   2.738   5.392   3.806  2.0887 -2.5557 -0.9742
  485MOL0     H65413   2.849   5.527   3.809  0.5661 -0.6573 -0.5967
  485MOL0     H65414   2.810   5.404   3.543  2.5834  1.8962 -1.1083
  485MOL0     H65415   2.856   5.284   3.667  1.0017 -0.2756 -1.2401
  485MOL0     H65416   2.986   5.549   3.592  3.8152  0.7548 -0.4730
  485MOL0     H65417   3.047   5.445   3.715 -2.7280  0.2499  1.2464
  485MOL0     H65418   3.168   5.395   3.524  1.2232 -1.5649 -2.2945
  485MOL0     H65419   3.050   5.264   3.511 -0.5959  0.3456 -6.8222
  485MOL0     H65420   3.109   5.371   3.322 -1.0165 -0.2408 -2.2987
  485MOL0     H65421   2.930   5.370   3.359 -0.0456  0.6236  2.2090
  485MOL0     H65422   3.103   5.617   3.396  0.5806 -3.1047  2.8040
  485MOL0     H65423   2.932   5.612   3.399 -1.3281 -1.5523  2.0764
  485MOL0     H65424   3.047   5.702   3.182 -0.7825  0.4199 -1.7659
  485MOL0     H65425   3.103   5.543   3.169 -1.9367 -0.7783 -1.2208
  485MOL0     H65426   2.723   5.598   3.317 -0.5599  0.7094 -0.1298
  485MOL0     H65427   2.451   5.548   3.204 -0.3123 -1.3123  0.0995
  485MOL0     H65428   2.479   5.599   3.044 -0.1792  0.4848  0.3419
  485MOL0     H65429   2.366   5.394   3.042  0.4987  2.3345 -4.6623
  485MOL0     H65430   2.525   5.354   2.977  0.1370 -2.0000  1.0159
  485MOL0     H65431   2.455   5.300   3.262 -1.1161  2.3059 -0.8661
  485MOL0     H65432   2.614   5.274   3.168  1.0649  4.2639  0.6206
  485MOL0     H65433   2.509   5.104   3.027  0.3971 -1.4057  0.6824
  485MOL0     H65434   2.342   5.168   3.061 -0.9862 -0.6392  1.8202
  485MOL0     H65435   2.174   4.955   3.242 -3.3599  0.2286 -3.6527
  485MOL0     H65436   2.101   4.736   3.177 -0.4387  1.3141  1.5387
  485MOL0     H65437   2.162   4.249   3.094  0.8771 -1.2115  2.9278
  485MOL0     H65438   2.186   4.022   3.036  1.2478 -1.5803 -0.6907
  485MOL0     H65439   2.417   3.899   2.663 -2.4803  2.4097  0.7872
  485MOL0     H65440   2.539   3.865   2.792 -0.5338 -0.5515 -0.0779
  485MOL0     H65441   2.432   3.666   2.856  1.5543  1.4751  0.7961
  485MOL0     H65442   2.291   3.698   2.751 -0.4791  1.8833  0.7817
  485MOL0     H65443   2.409   3.693   2.560 -0.6481 -1.1304  0.6360
  485MOL0     H65444   2.563   3.668   2.624 -0.9027  4.7517 -0.7599
  485MOL0     H65445   2.417   3.451   2.569  1.0771 -0.3848  0.0027
  485MOL0     H65446   2.334   3.478   2.728 -1.1728  1.5517  0.1047
  485MOL0     H65447   2.506   3.311   2.763 -2.8440  1.2913  0.8862
  485MOL0     H65448   2.552   3.470   2.831 -0.0867  0.3818 -1.1622
  485MOL0     H65449   2.643   3.348   2.567  3.1906  0.1041 -0.9067
  485MOL0     H65450   2.686   3.515   2.620  1.9585 -0.0839  0.7289
  485MOL0     H65451   2.742   3.310   2.813  0.3507  2.1832  2.5520
  485MOL0     H65452   2.845   3.444   2.752 -0.8616  0.9419 -0.5140
  485MOL0     H65453   2.796   3.181   2.623  0.2858  1.1198 -0.5434
  485MOL0     H65454   2.883   3.299   2.543 -1.4394  0.3312 -0.9184
  485MOL0     H65455   2.481   4.112   2.743 -0.8015 -2.0537 -0.3256
  485MOL0     H65456   2.466   4.361   2.809 -1.9561  3.1203  1.0564
  485MOL0     H65457   2.505   4.648   3.045 -0.1497 -0.7996  0.0123
  485MOL0     H65458   2.568   4.871   3.107 -0.2943  1.7482 -1.4720
  485MOL0     H65459   2.876   5.834   3.497  0.6104  1.4965 -3.2115
  485MOL0     H65460   2.786   6.074   3.458  1.6954 -0.0538  0.1319
  485MOL0     H65461   2.498   6.387   3.498 -2.7937 -1.2251  1.2100
  485MOL0     H65462   2.344   6.585   3.460  1.6614 -0.1287  1.2370
  485MOL0     H65463   2.209   6.768   3.365 -1.3112 -1.2083  3.3512
  485MOL0     H65464   2.138   6.618   3.419  1.3491 -2.5459 -0.7589
  485MOL0     H65465   1.955   6.670   3.241  2.7558 -1.8718 -0.5876
  485MOL0     H65466   2.032   6.823   3.219 -0.1246 -2.1549 -2.8219
  485MOL0     H65467   1.980   6.853   3.487 -1.6618 -0.9835  2.6760
  485MOL0     H65468   1.891   6.691   3.467 -1.2048 -1.0443 -4.4499
  485MOL0     H65469   1.776   6.931   3.454  1.4519 -0.4070  0.4672
  485MOL0     H65470   1.820   6.931   3.297 -3.1915  0.3896 -1.1369
  485MOL0     H65471   1.508   6.710   3.215 -1.2257 -1.0390  0.8819
  485MOL0     H65472   2.303   6.468   3.046  1.0972  3.2058  0.0498
  485MOL0     H65473   2.407   6.143   3.096 -3.1768 -0.3803 -1.3268
  485MOL0     H65474   2.363   6.267   2.972 -0.6174  1.0244  0.4711
  485MOL0     H65475   2.530   6.245   3.016  0.0155 -4.8785 -0.2959
  486MOL0     O65476   2.824   9.291   0.037  0.6298 -0.0222  0.3827
  486MOL0     C65477   2.781   9.405   0.014  0.0978  1.0635  0.6814
  486MOL0     O65478   2.657   9.451   0.030  0.3801 -0.6607 -0.5291
  486MOL0     C65479   2.569   9.377   0.108  0.6103  0.4371 -0.5863
  486MOL0     C65480   2.544   9.405   0.240 -0.6688  0.6650 -0.8931
  486MOL0     C65481   2.468   9.318   0.317 -0.3225  0.6159 -0.0478
  486MOL0     C65482   2.411   9.203   0.267  0.6774  1.0569 -0.2769
  486MOL0     O65483   2.359   9.104   0.352 -0.4937  0.0881  0.5008
  486MOL0     C65484   2.336   9.123   0.495  0.1035  0.5581  0.2459
  486MOL0     C65485   2.229   9.026   0.536  0.8979 -0.5290 -0.0972
  486MOL0     C65486   2.086   9.077   0.502 -0.4407 -0.0923  0.2711
  486MOL0     C65487   2.026   9.137   0.638  0.1630 -0.1122  1.1691
  486MOL0     C65488   2.082   9.276   0.689 -0.2702  0.3854 -0.5337
  486MOL0     C65489   1.984   9.369   0.746  0.7641 -0.6652 -0.9201
  486MOL0     C65490   1.944   9.327   0.889 -0.3338 -0.2303 -0.1588
  486MOL0     C65491   1.801   9.300   0.894  0.3089  0.4913  0.1419
  486MOL0     N65492   1.742   9.198   0.810  1.2423 -0.7604  0.0522
  486MOL0     C65493   1.659   9.208   0.697 -0.0990  0.3278 -0.7474
  486MOL0     C65494   1.639   9.076   0.672 -0.9522 -1.1124  0.2307
  486MOL0     C65495   1.558   9.024   0.552 -0.3601  0.2568 -0.0023
  486MOL0     C65496   1.664   8.988   0.443  0.1508 -0.2060 -0.7863
  486MOL0     C65497   1.699   9.115   0.368 -0.0735  0.1887 -0.1841
  486MOL0     C65498   1.800   9.074   0.263 -0.8299 -0.2263 -0.4591
  486MOL0     O65499   1.838   9.200   0.204 -0.3194  1.0511  0.4840
  486MOL0     C65500   1.929   9.204   0.098 -0.2228  0.5190  0.4216
  486MOL0     C65501   1.940   9.324   0.034 -0.3731  0.0696  0.9898
  486MOL0     C65502   2.017   9.341  -0.081 -0.8949  0.0407  0.2862
  486MOL0     C65503   2.102   9.237  -0.126 -0.1917  0.4551 -0.6215
  486MOL0     C65504   2.184   9.246  -0.238 -0.3738 -0.3733  1.2290
  486MOL0     O65505   2.220   9.373  -0.281 -0.7076 -0.2528  0.7839
  486MOL0     C65506   2.291   9.393  -0.392 -1.1968  0.4664  0.5134
  486MOL0     C65507   2.417   9.459  -0.377 -0.6584 -0.1926  0.4614
  486MOL0     C65508   2.495   9.487  -0.486  0.3217 -0.3485 -0.1359
  486MOL0     C65509   2.449   9.444  -0.610 -0.0396 -0.5543  0.6869
  486MOL0     O65510   2.532   9.432  -0.719  0.2933  0.8680 -0.4083
  486MOL0     C65511   2.633   9.535  -0.733  0.7742 -0.1913  0.8700
  486MOL0     C65512   2.685   9.544  -0.880 -0.1970  0.2239  0.2037
  486MOL0     C65513   2.770   9.675  -0.898  0.9687  0.6787 -0.2946
  486MOL0     C65514   2.905   9.635  -0.952 -0.1140  0.1525 -0.1574
  486MOL0     C65515   3.013   9.736  -0.971 -0.1674 -0.0171  0.2616
  486MOL0     C65516   2.968   9.872  -1.028 -0.2651 -0.2874 -0.0880
  486MOL0     C65517   3.092   9.967  -1.032 -0.4040  0.2431 -0.7849
  486MOL0     C65518   3.050  10.108  -1.084  0.1394  0.1142 -0.3520
  486MOL0    Cl65519   3.200  10.205  -1.109 -0.2193 -0.0311 -0.1985
  486MOL0     C65520   2.318   9.398  -0.629 -0.3563  0.7807  0.5799
  486MOL0     C65521   2.244   9.360  -0.517 -0.3097 -0.0027  0.9279
  486MOL0     O65522   2.217   9.142  -0.291  1.0254 -0.2517  0.5478
  486MOL0     C65523   2.106   9.119  -0.043 -0.1713 -0.3113 -0.2582
  486MOL0     C65524   2.019   9.102   0.063  0.4155  0.3639  0.2338
  486MOL0     N65525   1.705   8.995   0.759 -0.1969  0.2219 -0.0391
  486MOL0     N65526   1.769   9.068   0.843 -0.4083  0.0061  0.4630
  486MOL0     C65527   2.431   9.182   0.129  0.5242  0.2124  1.0462
  486MOL0     C65528   2.514   9.257   0.058  0.8434 -1.0097  0.1277
  486MOL0     C65529   2.878   9.509  -0.026 -0.1942 -0.5688 -0.1460
  486MOL0     C65530   2.843   9.645  -0.001  0.1291  0.5513  0.0841
  486MOL0     C65531   2.935   9.748  -0.015 -0.4138  0.4807 -0.3306
  486MOL0     C65532   3.065   9.716  -0.072 -0.5130 -0.1264  0.2668
  486MOL0     O65533   3.163   9.804  -0.088 -0.8474 -0.5710 -0.4592
  486MOL0     C65534   3.131   9.936  -0.052 -0.1353  0.4166 -1.0243
  486MOL0     C65535   3.257  10.022  -0.068 -0.3843  0.2104 -0.2469
  486MOL0     C65536   3.310  10.000  -0.209  0.1754 -0.2328  0.0392
  486MOL0     C65537   3.422  10.097  -0.249 -1.1130  0.0405 -0.0479
  486MOL0     C65538   3.463  10.069  -0.389  0.1944  0.6573 -0.1978
  486MOL0     C65539   3.475  10.005  -0.499  0.1933  0.7290 -0.0779
  486MOL0     C65540   3.098   9.588  -0.100  0.7390 -0.6305  0.7632
  486MOL0     C65541   3.012   9.483  -0.064 -1.2331  0.1183  0.4774
  486MOL0     C65542   3.073   9.339  -0.072  0.3336 -0.2125  0.7331
  486MOL0     H65543   2.582   9.497   0.283 -4.4972  1.3906  1.4390
  486MOL0     H65544   2.474   9.338   0.424  1.2857  2.0651 -0.3711
  486MOL0     H65545   2.433   9.101   0.540 -0.4464  0.0889  1.2449
  486MOL0     H65546   2.298   9.222   0.522  0.1799  1.6725 -3.3308
  486MOL0     H65547   2.233   8.991   0.640 -2.2672  0.9684  0.6514
  486MOL0     H65548   2.243   8.938   0.473 -3.1159 -1.2039 -0.2542
  486MOL0     H65549   2.030   8.987   0.475  1.2003 -0.7518 -1.1122
  486MOL0     H65550   2.075   9.152   0.423 -2.3984 -1.1349 -0.5058
  486MOL0     H65551   1.918   9.145   0.627  0.5662  3.5025 -6.0340
  486MOL0     H65552   2.048   9.071   0.723  4.3998  0.4167  0.7313
  486MOL0     H65553   2.155   9.254   0.767 -0.0430 -1.1875 -1.1541
  486MOL0     H65554   2.134   9.321   0.603  0.1273  0.3931 -0.2951
  486MOL0     H65555   2.027   9.470   0.756 -0.8625 -0.0411  0.2092
  486MOL0     H65556   1.896   9.390   0.685  0.0221 -1.6321 -0.2150
  486MOL0     H65557   1.971   9.407   0.960 -1.0080 -0.5553  0.4783
  486MOL0     H65558   1.999   9.237   0.917 -1.6305 -1.5512 -1.7393
  486MOL0     H65559   1.781   9.288   1.001  1.0526 -1.2350  0.1058
  486MOL0     H65560   1.757   9.395   0.860 -1.4773 -0.9285 -1.7580
  486MOL0     H65561   1.615   9.296   0.651 -2.2628  0.9862  2.2927
  486MOL0     H65562   1.499   8.937   0.583 -2.6585  1.8830  0.4039
  486MOL0     H65563   1.485   9.092   0.507  1.0317  2.8001  1.3295
  486MOL0     H65564   1.753   8.945   0.488 -0.4204  0.0769  0.6941
  486MOL0     H65565   1.611   8.913   0.384 -0.8640  0.1411 -0.3470
  486MOL0     H65566   1.741   9.194   0.432  1.6241 -1.5136  0.9188
  486MOL0     H65567   1.609   9.152   0.320  0.4171 -0.7588 -1.9130
  486MOL0     H65568   1.752   8.998   0.199 -3.2158  0.7861 -0.0000
  486MOL0     H65569   1.883   9.022   0.312  1.0465  1.9986 -1.1297
  486MOL0     H65570   1.862   9.393   0.066 -2.4036 -1.6801  0.0201
  486MOL0     H65571   2.021   9.438  -0.130 -2.3292  1.3128  2.5089
  486MOL0     H65572   2.450   9.470  -0.274  0.4272  2.3247 -0.0886
  486MOL0     H65573   2.594   9.527  -0.464  0.5887 -0.4056 -1.1936
  486MOL0     H65574   2.606   9.633  -0.693  1.2509  0.9315 -1.4309
  486MOL0     H65575   2.722   9.503  -0.678  1.7016  0.1228 -0.4007
  486MOL0     H65576   2.746   9.457  -0.906  0.9225  1.5199 -1.8344
  486MOL0     H65577   2.596   9.538  -0.943  0.4556  0.1797 -0.7341
  486MOL0     H65578   2.716   9.746  -0.961 -1.2867 -0.9481 -0.3096
  486MOL0     H65579   2.785   9.725  -0.801 -3.1688  2.4661 -0.3655
  486MOL0     H65580   2.888   9.575  -1.041 -1.8132  0.6328 -0.1882
  486MOL0     H65581   2.941   9.561  -0.880 -0.2480 -1.2077 -1.4543
  486MOL0     H65582   3.077   9.696  -1.050  0.8491  1.5088  0.2618
  486MOL0     H65583   3.061   9.749  -0.874 -1.5537  1.8903  0.7544
  486MOL0     H65584   2.931   9.858  -1.130  1.1033 -2.1864 -0.3744
  486MOL0     H65585   2.893   9.915  -0.961  0.2444 -2.2256  1.8385
  486MOL0     H65586   3.166   9.925  -1.101  1.1515 -1.7831  1.9149
  486MOL0     H65587   3.139   9.975  -0.933  0.8684 -2.2540 -1.1236
  486MOL0     H65588   2.990  10.104  -1.176 -0.0491 -0.8522 -0.1940
  486MOL0     H65589   2.986  10.153  -1.009  3.0289 -1.0867  3.1004
  486MOL0     H65590   2.289   9.365  -0.728  4.0995 -0.2641 -0.5874
  486MOL0     H65591   2.151   9.304  -0.523 -0.5752  0.5601 -0.8185
  486MOL0     H65592   2.171   9.036  -0.067  1.2750  0.3583  1.1088
  486MOL0     H65593   2.011   9.006   0.114 -0.2325  0.6816  0.7523
  486MOL0     H65594   2.391   9.093   0.082 -0.7960  1.5648 -0.4919
  486MOL0     H65595   2.515   9.244  -0.050 -2.6437 -2.3159  0.1463
  486MOL0     H65596   2.745   9.676   0.033  0.7385 -1.2012  4.1093
  486MOL0     H65597   2.916   9.849   0.021  2.9426  1.1331 -0.1402
  486MOL0     H65598   3.098   9.935   0.053 -1.4588 -2.8720 -1.3392
  486MOL0     H65599   3.049   9.980  -0.109  0.1782  2.7879  0.2485
  486MOL0     H65600   3.332   9.998   0.008  0.6620 -1.6403 -1.7595
  486MOL0     H65601   3.231  10.128  -0.064 -3.2390 -0.3212 -1.9985
  486MOL0     H65602   3.229  10.008  -0.282 -1.9514 -0.3271  2.2612
  486MOL0     H65603   3.340   9.895  -0.216 -1.8620 -0.7970 -1.1201
  486MOL0     H65604   3.390  10.199  -0.226 -1.4937 -0.6642  3.0084
  486MOL0     H65605   3.514  10.092  -0.190 -1.0937  0.9525  0.0158
  486MOL0     H65606   3.486   9.947  -0.588  2.4942  3.4817 -1.7483
  486MOL0     H65607   3.192   9.572  -0.152 -0.4194 -1.7065 -1.1339
  486MOL0     H65608   3.100   9.303   0.028  1.7418 -0.0901  0.4202
  486MOL0     H65609   3.001   9.277  -0.126  0.0608  0.8843 -0.2226
  486MOL0     H65610   3.166   9.339  -0.130  1.4923 -2.9341  2.3963
  487MOL0     O65611  10.422  11.232   1.517 -0.8084  0.1455 -0.3668
  487MOL0     C65612  10.381  11.271   1.625  0.3791  0.6849 -0.0998
  487MOL0     O65613  10.282  11.365   1.634  0.9896 -0.0273 -0.3476
  487MOL0     C65614  10.212  11.392   1.520  0.0287 -0.8126 -0.4748
  487MOL0     C65615  10.073  11.368   1.508  0.8739  0.2393  0.0237
  487MOL0     C65616   9.992  11.413   1.400 -0.5465  0.5631  0.0396
  487MOL0     C65617  10.051  11.494   1.301  0.2424 -0.7327 -0.6998
  487MOL0     O65618   9.968  11.548   1.207  0.1930 -0.7548 -0.0119
  487MOL0     C65619   9.998  11.668   1.133  0.1635  0.0869  0.5860
  487MOL0     C65620  10.075  11.646   0.995  0.1359  0.2270 -0.3323
  487MOL0     C65621   9.996  11.575   0.889  0.6026 -0.3210  0.3759
  487MOL0     C65622  10.012  11.426   0.890 -0.3041  0.4162 -0.3992
  487MOL0     C65623   9.989  11.364   0.751  1.3628  0.1710 -0.1655
  487MOL0     C65624  10.018  11.216   0.731 -0.3047 -0.1594 -0.1331
  487MOL0     C65625  10.170  11.193   0.726 -0.0702 -0.3078 -0.7049
  487MOL0     C65626  10.211  11.038   0.716 -0.0341 -0.6622  0.0069
  487MOL0     N65627  10.351  11.016   0.763  0.0830 -0.0368  1.4160
  487MOL0     C65628  10.472  11.067   0.720 -0.6381 -0.3866  0.2992
  487MOL0     C65629  10.565  10.969   0.757 -0.9299  0.5229 -0.2213
  487MOL0     C65630  10.715  10.976   0.735  0.2329 -0.0006  0.5442
  487MOL0     C65631  10.804  11.032   0.839 -0.4435  0.5286 -0.4122
  487MOL0     C65632  10.949  11.050   0.803  0.1209  0.6794 -0.5031
  487MOL0     C65633  11.050  11.089   0.919 -0.2212 -0.3295 -0.3250
  487MOL0     O65634  11.068  10.976   1.006  0.7582  0.3707 -0.0952
  487MOL0     C65635  11.169  10.886   0.977  0.0044  0.4124  0.2895
  487MOL0     C65636  11.174  10.767   1.050  1.1635  0.0410 -0.5796
  487MOL0     C65637  11.276  10.675   1.046  0.7663  0.7229  0.7495
  487MOL0     C65638  11.386  10.691   0.955  0.2624  0.5698 -0.1154
  487MOL0     C65639  11.504  10.593   0.953  0.4501  0.4882  0.3332
  487MOL0     O65640  11.502  10.489   1.047  0.3920  0.1142  0.1484
  487MOL0     C65641  11.602  10.397   1.032  0.4821 -0.6589  0.4805
  487MOL0     C65642  11.727  10.411   1.093  0.3556  0.0630 -0.2719
  487MOL0     C65643  11.834  10.330   1.060 -0.2464  0.8656  0.4750
  487MOL0     C65644  11.814  10.239   0.953 -0.4638 -0.0566  0.1806
  487MOL0     O65645  11.931  10.188   0.891  0.2304 -0.6289 -0.6378
  487MOL0     C65646  11.909  10.103   0.776  0.0582  0.0659  0.3491
  487MOL0     C65647  12.051  10.063   0.710 -0.3393 -0.0572 -0.7347
  487MOL0     C65648  12.120  10.160   0.624 -1.0603 -0.7623 -0.4826
  487MOL0     C65649  12.233  10.102   0.547 -0.0879 -1.2561 -0.1770
  487MOL0     C65650  12.327  10.207   0.483  0.1224  0.2862  0.1657
  487MOL0     C65651  12.430  10.146   0.397 -0.5761 -0.4617 -0.0261
  487MOL0     C65652  12.528  10.246   0.346  1.3325  0.0486 -0.5949
  487MOL0     C65653  12.642  10.195   0.252  0.4109 -0.0417  0.3191
  487MOL0    Cl65654  12.563  10.156   0.085  0.0505  0.2283 -0.4328
  487MOL0     C65655  11.693  10.216   0.900  0.4062  0.0232 -0.4284
  487MOL0     C65656  11.580  10.295   0.936 -0.0515  0.4827 -0.1800
  487MOL0     O65657  11.603  10.615   0.871  0.4562  0.1297 -0.2681
  487MOL0     C65658  11.382  10.806   0.874 -0.4689  0.3139 -0.0785
  487MOL0     C65659  11.279  10.906   0.875 -0.7735 -0.6155 -0.3407
  487MOL0     N65660  10.503  10.878   0.837 -0.1979  0.7885 -0.5291
  487MOL0     N65661  10.378  10.902   0.832  0.2291  1.1066 -0.0814
  487MOL0     C65662  10.187  11.514   1.304 -0.4724 -0.0071  0.1356
  487MOL0     C65663  10.265  11.465   1.410 -0.2836 -0.1143  0.0135
  487MOL0     C65664  10.423  11.197   1.750 -0.4540 -0.2367  0.0162
  487MOL0     C65665  10.335  11.190   1.862 -0.5773  0.3113 -0.3741
  487MOL0     C65666  10.362  11.112   1.978 -0.0498 -0.7676 -0.3558
  487MOL0     C65667  10.489  11.039   1.984  0.4430  0.2015  0.4240
  487MOL0     O65668  10.510  10.966   2.102 -0.1876 -0.1292  0.4120
  487MOL0     C65669  10.634  10.905   2.121 -0.5305  0.2396 -0.4133
  487MOL0     C65670  10.622  10.784   2.203 -0.2418  0.9943  0.4496
  487MOL0     C65671  10.756  10.719   2.260 -0.7901 -0.1876 -0.2481
  487MOL0     C65672  10.745  10.576   2.306 -0.0919 -0.0568 -1.1295
  487MOL0     C65673  10.689  10.488   2.208  0.1160  0.2712  0.6640
  487MOL0     C65674  10.614  10.444   2.128 -0.3267 -0.2603 -0.0154
  487MOL0     C65675  10.580  11.061   1.873  0.6463  0.7791 -0.2789
  487MOL0     C65676  10.554  11.142   1.764 -0.0699  0.8683 -0.0677
  487MOL0     C65677  10.655  11.162   1.657  0.4301  0.2666 -0.6082
  487MOL0     H65678  10.023  11.309   1.584  2.7197 -0.7969  0.4941
  487MOL0     H65679   9.886  11.393   1.396 -0.5652  0.6400  0.1612
  487MOL0     H65680   9.905  11.719   1.105  0.7754  0.2866 -1.2124
  487MOL0     H65681  10.055  11.742   1.190 -0.4546  0.4044  0.8096
  487MOL0     H65682  10.173  11.599   1.008 -0.3455 -0.9696 -0.8034
  487MOL0     H65683  10.096  11.742   0.948 -1.7450  1.1492  0.6304
  487MOL0     H65684  10.053  11.600   0.799  3.5270  0.8485  2.4000
  487MOL0     H65685   9.894  11.615   0.887  0.5951 -0.3310 -2.3880
  487MOL0     H65686  10.113  11.406   0.926 -0.1184 -0.2429 -1.2510
  487MOL0     H65687   9.938  11.382   0.957  1.3485 -0.8574  0.6712
  487MOL0     H65688   9.885  11.388   0.728  1.7262  1.2511 -0.7412
  487MOL0     H65689  10.047  11.421   0.677  2.8010  0.0123  0.7879
  487MOL0     H65690   9.968  11.163   0.813  0.8212 -1.8339 -0.4770
  487MOL0     H65691   9.977  11.171   0.640 -2.0350  2.3276 -0.6693
  487MOL0     H65692  10.224  11.243   0.806 -2.2365  2.2019 -0.6740
  487MOL0     H65693  10.206  11.247   0.638  0.7404  1.4337  0.6416
  487MOL0     H65694  10.136  10.989   0.779  1.8694  0.0188  2.9786
  487MOL0     H65695  10.201  11.013   0.610 -0.6477 -1.3085  0.2103
  487MOL0     H65696  10.498  11.157   0.665 -0.2565 -0.9187 -0.4050
  487MOL0     H65697  10.747  10.878   0.698 -0.1294 -0.2082  0.7723
  487MOL0     H65698  10.725  11.050   0.654 -2.7463 -0.3397 -0.2432
  487MOL0     H65699  10.768  11.121   0.893 -2.8238 -0.7997  0.3425
  487MOL0     H65700  10.806  10.959   0.920 -1.7680 -1.0561 -1.7351
  487MOL0     H65701  10.970  11.132   0.734 -1.9656  1.5264 -0.2202
  487MOL0     H65702  10.984  10.955   0.760  0.5533  0.0995  1.0565
  487MOL0     H65703  11.008  11.177   0.969  1.6878  0.3052  0.2420
  487MOL0     H65704  11.144  11.120   0.872  0.1511 -0.2096  0.4798
  487MOL0     H65705  11.095  10.762   1.125  1.6941  0.0635 -0.0183
  487MOL0     H65706  11.279  10.594   1.117 -5.2838 -0.1983  0.4047
  487MOL0     H65707  11.754  10.489   1.164  1.4000 -1.2841  0.8904
  487MOL0     H65708  11.933  10.345   1.102  0.2671  2.0265 -1.0619
  487MOL0     H65709  11.846  10.015   0.794  0.5259  0.0458  2.0823
  487MOL0     H65710  11.856  10.162   0.701 -0.2690  0.4317  0.8573
  487MOL0     H65711  12.116  10.033   0.793  1.6972 -1.1665 -2.6558
  487MOL0     H65712  12.023   9.975   0.651  1.6378 -0.2369 -1.4501
  487MOL0     H65713  12.049  10.212   0.559 -0.8434 -1.2289 -1.1077
  487MOL0     H65714  12.167  10.234   0.689  0.6103 -0.1852 -2.2476
  487MOL0     H65715  12.186  10.037   0.472  0.1318 -0.0060 -1.4360
  487MOL0     H65716  12.289  10.046   0.622  2.0020  0.0994 -0.6304
  487MOL0     H65717  12.376  10.255   0.568  0.2379  1.3275 -0.4734
  487MOL0     H65718  12.264  10.282   0.434 -1.4730 -2.3789 -2.2093
  487MOL0     H65719  12.476  10.067   0.457 -1.9119 -2.0428 -0.9980
  487MOL0     H65720  12.381  10.094   0.314  0.6147 -0.3801 -0.8044
  487MOL0     H65721  12.567  10.291   0.438  0.4570 -0.4936  0.0640
  487MOL0     H65722  12.470  10.317   0.287  0.3660  1.3803  1.7782
  487MOL0     H65723  12.720  10.270   0.232  3.3877 -2.7017  1.1009
  487MOL0     H65724  12.681  10.103   0.294 -1.8006 -0.4752  1.5721
  487MOL0     H65725  11.676  10.138   0.826  0.4406 -0.9466  0.5596
  487MOL0     H65726  11.484  10.267   0.893  0.9233  0.2390 -2.3519
  487MOL0     H65727  11.467  10.813   0.806 -0.7929  1.9686 -0.3418
  487MOL0     H65728  11.279  10.997   0.815 -3.4938  1.2475  2.1936
  487MOL0     H65729  10.231  11.575   1.226 -0.8827 -1.0130 -0.9187
  487MOL0     H65730  10.370  11.490   1.420  0.2114 -1.0922 -2.2342
  487MOL0     H65731  10.242  11.245   1.856 -0.8911 -0.1964 -0.2330
  487MOL0     H65732  10.300  11.119   2.067 -1.6392 -0.4816 -1.4593
  487MOL0     H65733  10.707  10.972   2.166 -0.3863  0.2473 -0.6560
  487MOL0     H65734  10.677  10.863   2.029  0.5030  0.8885 -0.2449
  487MOL0     H65735  10.576  10.727   2.122  0.1168  2.1522 -0.5981
  487MOL0     H65736  10.550  10.804   2.283  1.6287  1.4506  2.1044
  487MOL0     H65737  10.793  10.775   2.347  1.2647  0.3916 -1.4173
  487MOL0     H65738  10.831  10.735   2.182  1.0374  0.8182  1.5909
  487MOL0     H65739  10.847  10.546   2.330 -0.3685  1.3403  2.5318
  487MOL0     H65740  10.699  10.564   2.405  1.0807  0.3433 -0.5248
  487MOL0     H65741  10.539  10.410   2.060  0.2392  0.4451 -1.0241
  487MOL0     H65742  10.681  11.024   1.888  1.0510 -0.0526 -4.1604
  487MOL0     H65743  10.625  11.110   1.565 -2.1479 -0.0320  0.3178
  487MOL0     H65744  10.666  11.267   1.628  2.5948  0.0478 -0.7281
  487MOL0     H65745  10.752  11.122   1.687 -0.1477 -1.0925 -0.4634
  488MOL0     O65746   0.391   3.707   6.594  0.3738 -0.3148 -0.4938
  488MOL0     C65747   0.372   3.704   6.714 -0.0890 -0.3749 -0.2829
  488MOL0     O65748   0.267   3.754   6.776 -0.4041 -0.3252 -0.4589
  488MOL0     C65749   0.197   3.860   6.725 -0.1570 -0.0831  0.1771
  488MOL0     C65750   0.168   3.899   6.596  0.0790 -0.0102  0.7921
  488MOL0     C65751   0.097   4.009   6.569  0.4284 -0.3167  0.2032
  488MOL0     C65752   0.050   4.093   6.665 -0.4912 -0.8604 -1.0275
  488MOL0     O65753  -0.020   4.214   6.644 -0.3996  0.6951 -0.3346
  488MOL0     C65754  -0.083   4.230   6.513 -0.3055 -0.0056 -0.3981
  488MOL0     C65755  -0.167   4.360   6.511 -0.2323  1.1291  0.1621
  488MOL0     C65756  -0.182   4.418   6.364  0.2291  0.0828  0.0182
  488MOL0     C65757  -0.284   4.535   6.354 -0.6955  0.2931  0.3178
  488MOL0     C65758  -0.310   4.573   6.196  0.4377 -0.2653 -0.5851
  488MOL0     C65759  -0.330   4.719   6.174 -0.2571 -0.4663 -0.8057
  488MOL0     C65760  -0.458   4.762   6.250  0.0911 -0.2059  0.5083
  488MOL0     C65761  -0.476   4.915   6.222  0.4078  0.0258  0.4353
  488MOL0     N65762  -0.536   4.981   6.332 -0.1299  0.0537  0.3874
  488MOL0     C65763  -0.663   4.973   6.361 -0.3916  0.9972  0.2746
  488MOL0     C65764  -0.671   5.035   6.481  0.0912  0.7315  0.2357
  488MOL0     C65765  -0.803   5.055   6.547 -0.9699 -0.6971  0.3517
  488MOL0     C65766  -0.830   4.930   6.633 -0.3386  0.1972  0.2160
  488MOL0     C65767  -0.927   4.934   6.748  1.2575 -0.7328  0.2694
  488MOL0     C65768  -1.045   5.016   6.717 -0.7267 -0.7365  0.8761
  488MOL0     O65769  -1.018   5.163   6.695 -0.0427  0.0871 -0.6546
  488MOL0     C65770  -1.103   5.262   6.741 -0.7355  0.2429  0.3160
  488MOL0     C65771  -1.227   5.242   6.802  1.5871  0.3331 -0.0856
  488MOL0     C65772  -1.308   5.341   6.839  0.3512 -0.5104  0.0589
  488MOL0     C65773  -1.271   5.475   6.804  1.0618  0.5746 -0.4571
  488MOL0     C65774  -1.370   5.586   6.814  0.5066 -0.9011 -0.5374
  488MOL0     O65775  -1.491   5.564   6.874  0.2985 -0.4385  0.2027
  488MOL0     C65776  -1.569   5.677   6.886 -0.2128 -0.4795 -0.4724
  488MOL0     C65777  -1.678   5.695   6.801 -0.3916  0.7673  0.5538
  488MOL0     C65778  -1.779   5.782   6.830 -0.0021 -0.7208 -0.1753
  488MOL0     C65779  -1.771   5.864   6.943 -0.6007 -0.4276  0.1101
  488MOL0     O65780  -1.872   5.961   6.956 -0.6487 -0.1886  0.0932
  488MOL0     C65781  -1.856   6.068   7.043  0.4459  0.0242  0.2368
  488MOL0     C65782  -1.984   6.148   7.032 -0.0426  0.1439  0.8506
  488MOL0     C65783  -2.108   6.076   7.085  0.2039  0.1993 -0.0926
  488MOL0     C65784  -2.216   6.171   7.096  0.9073 -0.9855  0.8171
  488MOL0     C65785  -2.302   6.175   6.971 -0.2407 -0.9933  0.5809
  488MOL0     C65786  -2.383   6.309   6.966 -0.7142  0.3440 -0.3921
  488MOL0     C65787  -2.290   6.421   6.906  0.5958  0.8225 -0.8705
  488MOL0     C65788  -2.301   6.564   6.968 -0.5225  0.5277 -0.1429
  488MOL0    Cl65789  -2.228   6.572   7.132 -0.2068 -0.1055 -0.0477
  488MOL0     C65790  -1.663   5.855   7.030 -0.9720  0.0004  0.0318
  488MOL0     C65791  -1.557   5.761   6.998 -0.3985 -1.1744  0.0869
  488MOL0     O65792  -1.330   5.686   6.759 -0.3797  0.2175 -0.0480
  488MOL0     C65793  -1.149   5.495   6.736 -0.5338 -0.0139  0.6847
  488MOL0     C65794  -1.064   5.392   6.715 -0.6519  0.1588 -0.4366
  488MOL0     N65795  -0.550   5.100   6.507  0.0662 -0.1199  0.2108
  488MOL0     N65796  -0.468   5.064   6.416  0.2689 -0.3541 -0.6647
  488MOL0     C65797   0.084   4.062   6.802  0.1392  0.2297  0.5153
  488MOL0     C65798   0.147   3.941   6.831  0.1701 -0.1174  0.1631
  488MOL0     C65799   0.477   3.627   6.789  0.0598 -0.1772  0.0034
  488MOL0     C65800   0.498   3.494   6.755  0.8963 -0.7361 -0.4266
  488MOL0     C65801   0.598   3.416   6.807  0.2776 -0.2264 -0.1262
  488MOL0     C65802   0.686   3.474   6.895 -0.6262  0.0277  0.1070
  488MOL0     O65803   0.790   3.399   6.949 -0.3859  0.6416  0.0743
  488MOL0     C65804   0.903   3.479   6.997 -0.5422 -0.4971  0.8312
  488MOL0     C65805   1.015   3.377   7.010 -0.3440 -0.5041 -0.0631
  488MOL0     C65806   1.069   3.352   6.865  0.2394  0.5185 -0.3063
  488MOL0     C65807   1.107   3.484   6.791 -0.2886 -0.2825 -0.3289
  488MOL0     C65808   1.180   3.445   6.673 -0.6480  0.0791 -0.7238
  488MOL0     C65809   1.226   3.398   6.575  0.2689  0.0223  0.2323
  488MOL0     C65810   0.667   3.609   6.936 -0.5088  0.5465 -0.4566
  488MOL0     C65811   0.566   3.688   6.882 -0.1446  0.5685  0.0320
  488MOL0     C65812   0.553   3.830   6.925  0.7711 -0.4550  0.1992
  488MOL0     H65813   0.190   3.836   6.509 -1.6420 -0.8073  0.8929
  488MOL0     H65814   0.091   4.033   6.463  0.1947 -4.0509 -0.7738
  488MOL0     H65815  -0.006   4.240   6.436  1.2525 -1.2706  0.9463
  488MOL0     H65816  -0.139   4.141   6.481 -2.5694 -0.3210  3.7550
  488MOL0     H65817  -0.118   4.438   6.570 -1.6669  0.1367  2.8509
  488MOL0     H65818  -0.265   4.328   6.547  0.2165  0.6981  1.0562
  488MOL0     H65819  -0.209   4.330   6.306  1.2921 -1.0880  1.2410
  488MOL0     H65820  -0.092   4.444   6.308 -2.3640  1.9782 -3.7114
  488MOL0     H65821  -0.378   4.511   6.404 -0.0225  0.4991  1.7276
  488MOL0     H65822  -0.237   4.619   6.405  0.0450  0.0065  0.1316
  488MOL0     H65823  -0.212   4.538   6.161  1.2592  0.6518  0.7205
  488MOL0     H65824  -0.394   4.519   6.151 -1.2004  1.1974  0.5743
  488MOL0     H65825  -0.242   4.774   6.208 -1.1406  1.5494 -1.6050
  488MOL0     H65826  -0.339   4.741   6.067 -2.0296 -0.8482 -0.7641
  488MOL0     H65827  -0.461   4.744   6.358  1.0671  3.3591  1.2692
  488MOL0     H65828  -0.542   4.726   6.191  1.7340 -1.4634 -1.1904
  488MOL0     H65829  -0.377   4.960   6.206 -0.0111  0.4870 -1.0231
  488MOL0     H65830  -0.531   4.925   6.128  1.3997 -0.8172 -0.2760
  488MOL0     H65831  -0.738   4.916   6.305  1.3845  0.5025 -1.7300
  488MOL0     H65832  -0.797   5.148   6.603 -2.0071  0.3397 -1.1734
  488MOL0     H65833  -0.881   5.069   6.472 -0.9352  0.8455  0.5772
  488MOL0     H65834  -0.869   4.853   6.566  1.6623  3.6975 -5.8726
  488MOL0     H65835  -0.731   4.901   6.668  0.0413  1.9116  0.6724
  488MOL0     H65836  -0.868   4.970   6.833  3.3563 -1.8119 -0.6494
  488MOL0     H65837  -0.962   4.834   6.772  0.8415 -1.0009 -1.3354
  488MOL0     H65838  -1.118   4.992   6.794 -1.1949 -1.4486  0.2260
  488MOL0     H65839  -1.086   4.981   6.622  1.3067 -2.5256  0.5873
  488MOL0     H65840  -1.256   5.141   6.826  2.9483  0.5032  2.7273
  488MOL0     H65841  -1.407   5.312   6.872  0.3952  1.9927  2.9026
  488MOL0     H65842  -1.680   5.641   6.708  0.7267  1.3733  0.1567
  488MOL0     H65843  -1.859   5.794   6.758  1.9128 -0.3312 -2.3635
  488MOL0     H65844  -1.842   6.027   7.143  1.5049 -1.5137 -0.5021
  488MOL0     H65845  -1.779   6.138   7.009 -0.3442  0.3287 -0.9917
  488MOL0     H65846  -1.964   6.244   7.079 -1.8616  1.6248 -1.2264
  488MOL0     H65847  -2.003   6.158   6.924  1.2812 -0.8434  0.4950
  488MOL0     H65848  -2.141   6.006   7.008  0.0237  0.9297 -0.6867
  488MOL0     H65849  -2.090   6.026   7.181 -0.5401 -0.8014 -0.4577
  488MOL0     H65850  -2.186   6.272   7.125  0.5260 -1.0447  1.4322
  488MOL0     H65851  -2.289   6.132   7.168 -0.1032 -0.1590  0.2577
  488MOL0     H65852  -2.367   6.086   6.968  0.3854 -1.4385 -0.3153
  488MOL0     H65853  -2.243   6.163   6.880 -3.2643 -1.7880 -1.4197
  488MOL0     H65854  -2.466   6.282   6.900 -0.9207  0.6655 -0.2636
  488MOL0     H65855  -2.426   6.346   7.060 -1.0618  0.5468 -0.6289
  488MOL0     H65856  -2.308   6.437   6.800  2.7274  2.0801 -1.1190
  488MOL0     H65857  -2.188   6.382   6.915 -0.1434 -0.9602  0.4961
  488MOL0     H65858  -2.241   6.634   6.910  0.8666 -0.9144 -0.5270
  488MOL0     H65859  -2.406   6.595   6.974 -1.2788 -1.7924 -0.4251
  488MOL0     H65860  -1.653   5.923   7.114 -1.7431 -3.0486  2.8220
  488MOL0     H65861  -1.468   5.756   7.060 -0.5225 -0.1601  0.3734
  488MOL0     H65862  -1.120   5.597   6.712 -1.0574 -0.2501 -1.1222
  488MOL0     H65863  -0.968   5.394   6.665 -0.5246 -2.3335 -0.3940
  488MOL0     H65864   0.051   4.139   6.871 -3.1360  2.0216 -2.6901
  488MOL0     H65865   0.158   3.921   6.937  0.6710  0.1821  0.1691
  488MOL0     H65866   0.414   3.460   6.694 -0.5381  2.9342 -0.7296
  488MOL0     H65867   0.608   3.309   6.790 -1.5161 -0.5960  0.8687
  488MOL0     H65868   0.887   3.524   7.095  1.6616 -0.8823  1.4337
  488MOL0     H65869   0.926   3.561   6.928 -0.2016 -1.4226 -0.1912
  488MOL0     H65870   0.984   3.285   7.061  0.0260 -1.5275 -1.5919
  488MOL0     H65871   1.103   3.422   7.057  0.1248 -0.3053 -1.1121
  488MOL0     H65872   0.991   3.290   6.820  1.8583 -2.1831  0.3862
  488MOL0     H65873   1.160   3.292   6.867  0.3245  0.4667 -2.6437
  488MOL0     H65874   1.031   3.555   6.758  0.3398 -0.0067 -1.2561
  488MOL0     H65875   1.180   3.535   6.854  0.0421  0.5579 -1.3558
  488MOL0     H65876   1.259   3.352   6.484  1.6126  0.1492  0.6229
  488MOL0     H65877   0.733   3.667   6.999 -1.4319  0.1327  0.9247
  488MOL0     H65878   0.521   3.890   6.840 -1.2853  2.5698  2.8470
  488MOL0     H65879   0.471   3.859   6.991  2.7015  3.1378  1.3003
  488MOL0     H65880   0.649   3.872   6.958  1.1635 -1.6458  0.6229
  489MOL0     O65881   1.362   4.539   3.147  0.0148  0.7706  0.3370
  489MOL0     C65882   1.476   4.574   3.148  0.2458 -0.1150  0.2774
  489MOL0     O65883   1.519   4.710   3.152  0.1698  0.1785 -0.4845
  489MOL0     C65884   1.436   4.816   3.157 -0.1071 -0.1086 -0.2280
  489MOL0     C65885   1.466   4.938   3.102 -0.1382  0.1263 -0.5068
  489MOL0     C65886   1.387   5.047   3.127 -0.6908  0.1807 -0.2540
  489MOL0     C65887   1.276   5.041   3.208 -0.1504 -0.1762 -0.0635
  489MOL0     O65888   1.201   5.155   3.207  0.6887  0.4919  0.9151
  489MOL0     C65889   1.109   5.177   3.313 -0.5609  0.5328  0.2812
  489MOL0     C65890   1.056   5.322   3.311 -0.9184  0.0055  0.3144
  489MOL0     C65891   1.142   5.441   3.350  0.1014 -0.1777 -0.2921
  489MOL0     C65892   1.224   5.477   3.229 -0.5914 -1.2084  0.2506
  489MOL0     C65893   1.318   5.601   3.263 -0.3166  0.0565  0.2717
  489MOL0     C65894   1.379   5.665   3.132  0.3650  0.4740  0.2441
  489MOL0     C65895   1.461   5.573   3.042  0.0629  0.6149  0.6538
  489MOL0     C65896   1.585   5.508   3.098  0.6244  0.5024 -0.1374
  489MOL0     N65897   1.639   5.403   3.011  0.5407  0.1867  0.6833
  489MOL0     C65898   1.680   5.410   2.886 -0.0503 -0.6694  0.0226
  489MOL0     C65899   1.714   5.284   2.846  0.3027 -0.2887  0.0535
  489MOL0     C65900   1.782   5.259   2.716 -0.8136 -0.1924 -0.7410
  489MOL0     C65901   1.726   5.132   2.657 -0.1075 -0.7412 -0.6696
  489MOL0     C65902   1.578   5.149   2.603  0.0760  0.3738  0.0517
  489MOL0     C65903   1.466   5.138   2.697  1.3827 -0.7361  0.0200
  489MOL0     O65904   1.338   5.135   2.618  0.4408 -0.3455 -0.1196
  489MOL0     C65905   1.219   5.128   2.691  0.5452  0.4359 -0.1815
  489MOL0     C65906   1.212   5.173   2.827 -0.5334 -0.9713 -0.5865
  489MOL0     C65907   1.086   5.184   2.889 -0.4341 -0.5279 -0.0723
  489MOL0     C65908   0.963   5.161   2.829  0.2017  0.5290  0.2198
  489MOL0     C65909   0.837   5.151   2.905 -0.5361 -0.4925  0.4148
  489MOL0     O65910   0.739   5.070   2.852  0.3731 -0.5694  0.2680
  489MOL0     C65911   0.610   5.071   2.910 -0.4990 -0.6749  0.3127
  489MOL0     C65912   0.537   5.189   2.934 -0.6232  0.8592  0.1051
  489MOL0     C65913   0.411   5.169   3.003 -0.4901  0.6106 -0.1948
  489MOL0     C65914   0.362   5.042   3.033  0.7751 -0.7954 -0.0987
  489MOL0     O65915   0.229   5.025   3.083  0.7935  0.3468  0.0710
  489MOL0     C65916   0.243   4.970   3.221 -0.9545 -0.4301  0.5538
  489MOL0     C65917   0.113   5.016   3.284 -0.1356 -0.6774  0.4021
  489MOL0     C65918   0.094   5.166   3.311  0.5770  0.1533 -0.2487
  489MOL0     C65919   0.122   5.208   3.465 -0.3410  0.5816 -0.7191
  489MOL0     C65920   0.074   5.338   3.492 -0.0803  1.1648  0.1018
  489MOL0     C65921   0.090   5.382   3.647  0.0226 -0.7066  0.8703
  489MOL0     C65922   0.026   5.289   3.748  0.4537  0.4618 -0.8544
  489MOL0     C65923  -0.128   5.263   3.727 -0.4398 -0.0714 -0.4190
  489MOL0    Cl65924  -0.232   5.413   3.703  0.0063 -0.0914 -0.0658
  489MOL0     C65925   0.446   4.935   3.020 -0.7067  0.4038 -0.6135
  489MOL0     C65926   0.566   4.941   2.951  0.6611 -1.0356  0.0375
  489MOL0     O65927   0.832   5.204   3.011  0.1567 -0.0351  0.0535
  489MOL0     C65928   0.978   5.121   2.691  0.0574  0.8779  0.1583
  489MOL0     C65929   1.101   5.107   2.622  0.0340 -0.2671  0.7275
  489MOL0     N65930   1.683   5.198   2.954  0.1094 -0.5282 -0.1463
  489MOL0     N65931   1.640   5.276   3.047  0.0785 -0.1523  0.5684
  489MOL0     C65932   1.248   4.925   3.272 -0.2806 -0.0993  0.9372
  489MOL0     C65933   1.325   4.812   3.238 -0.3169  0.0759 -0.1667
  489MOL0     C65934   1.578   4.470   3.122  0.3001  0.0648 -0.6136
  489MOL0     C65935   1.530   4.339   3.091 -0.3195 -0.1738 -0.1995
  489MOL0     C65936   1.615   4.229   3.059  0.0111  0.4707  0.2005
  489MOL0     C65937   1.752   4.245   3.062  0.7856 -0.1151 -0.4780
  489MOL0     O65938   1.844   4.148   3.032  0.8343  0.3261 -1.4757
  489MOL0     C65939   1.853   4.046   3.130 -0.0254  0.1728  0.5203
  489MOL0     C65940   1.903   4.097   3.259 -0.4920  0.3550 -0.5977
  489MOL0     C65941   1.936   3.979   3.346  0.5723 -0.3032 -1.0774
  489MOL0     C65942   1.993   4.022   3.485 -0.1376 -0.1569 -0.6832
  489MOL0     C65943   1.898   4.101   3.574  0.5770 -0.2408  0.1865
  489MOL0     C65944   1.820   4.152   3.651 -0.5989 -1.4149 -0.0486
  489MOL0     C65945   1.798   4.370   3.106  0.0328 -0.2229  0.0705
  489MOL0     C65946   1.719   4.486   3.130 -0.0506 -0.2753 -0.1235
  489MOL0     C65947   1.785   4.617   3.157  0.2046  0.3256  0.6645
  489MOL0     H65948   1.563   4.951   3.055  1.4255 -3.3612  1.3754
  489MOL0     H65949   1.418   5.143   3.088  0.7204 -0.0061  0.3526
  489MOL0     H65950   1.028   5.106   3.292  0.2760  0.1471 -1.9414
  489MOL0     H65951   1.150   5.161   3.413  1.0427  3.0738  0.1234
  489MOL0     H65952   0.974   5.331   3.383  0.3358 -1.2766  2.0247
  489MOL0     H65953   1.015   5.325   3.210 -0.5926  0.0290  0.1807
  489MOL0     H65954   1.205   5.418   3.436  0.2028  0.2482 -0.2460
  489MOL0     H65955   1.079   5.526   3.379 -2.1446 -2.1215  0.7961
  489MOL0     H65956   1.276   5.390   3.189  0.9433  0.5387 -1.7988
  489MOL0     H65957   1.158   5.511   3.149  1.4250  0.3628 -0.8265
  489MOL0     H65958   1.268   5.680   3.319 -1.0579  0.1464 -0.4897
  489MOL0     H65959   1.393   5.563   3.333  1.8189 -0.3420 -2.0683
  489MOL0     H65960   1.303   5.711   3.068  1.2969  0.6067 -0.8085
  489MOL0     H65961   1.448   5.746   3.159  1.3620 -0.3829  0.3165
  489MOL0     H65962   1.478   5.635   2.953  2.3994  0.6972  1.0974
  489MOL0     H65963   1.402   5.490   3.002 -0.0992  0.5592  0.9967
  489MOL0     H65964   1.653   5.594   3.100 -0.8099  1.7401 -1.2796
  489MOL0     H65965   1.559   5.465   3.195  0.5456 -1.8102 -1.1415
  489MOL0     H65966   1.686   5.501   2.827  0.8374  0.0807  1.2289
  489MOL0     H65967   1.781   5.343   2.646  0.9247 -0.1364 -0.7544
  489MOL0     H65968   1.888   5.247   2.740 -0.2447  0.8826 -2.4687
  489MOL0     H65969   1.788   5.106   2.571  0.6978 -0.3742 -0.2168
  489MOL0     H65970   1.723   5.053   2.732 -3.3947  0.8162  1.0404
  489MOL0     H65971   1.550   5.065   2.539  0.4833  0.4403 -0.2171
  489MOL0     H65972   1.575   5.239   2.542  0.3308 -0.5674 -1.4024
  489MOL0     H65973   1.472   5.237   2.742 -0.4297 -0.4403 -0.3142
  489MOL0     H65974   1.463   5.056   2.770 -2.1914  0.0236  0.9350
  489MOL0     H65975   1.295   5.208   2.888 -0.9744 -1.0481  0.0717
  489MOL0     H65976   1.084   5.202   2.996 -1.7178  0.4595 -0.2349
  489MOL0     H65977   0.578   5.281   2.896 -1.2246  0.8189 -0.6578
  489MOL0     H65978   0.339   5.247   3.023 -1.2218 -0.1698  0.3078
  489MOL0     H65979   0.259   4.862   3.215  0.4488 -0.2813  1.3599
  489MOL0     H65980   0.327   5.013   3.277 -0.4328  0.8357 -1.1318
  489MOL0     H65981   0.020   4.991   3.230 -0.2107  2.3968 -1.0976
  489MOL0     H65982   0.112   4.960   3.378  0.3241 -2.1189 -0.4171
  489MOL0     H65983   0.158   5.227   3.247 -0.8304  1.3972 -0.5476
  489MOL0     H65984  -0.011   5.188   3.289 -0.0542 -1.9112  0.5015
  489MOL0     H65985   0.225   5.190   3.497 -0.7802  1.0585  1.0454
  489MOL0     H65986   0.070   5.137   3.529 -1.7079 -0.9710 -3.3843
  489MOL0     H65987  -0.032   5.341   3.465  0.1825  0.2437 -1.0630
  489MOL0     H65988   0.117   5.413   3.425 -3.3886  1.5093 -1.8491
  489MOL0     H65989   0.196   5.394   3.668 -0.3191  2.8166  1.2335
  489MOL0     H65990   0.047   5.483   3.652  0.0084 -0.6818  0.3515
  489MOL0     H65991   0.044   5.339   3.844 -1.2377  0.6094 -0.5841
  489MOL0     H65992   0.078   5.193   3.754  1.4738  1.0574  0.4010
  489MOL0     H65993  -0.129   5.201   3.637  0.7325 -0.4094 -0.2091
  489MOL0     H65994  -0.167   5.199   3.806 -1.6814  0.8531 -0.2482
  489MOL0     H65995   0.415   4.837   3.054  1.6943 -1.0148 -2.1970
  489MOL0     H65996   0.633   4.857   2.945  1.8620 -0.0687 -0.5449
  489MOL0     H65997   0.885   5.114   2.635 -1.2106 -0.0078  2.2733
  489MOL0     H65998   1.112   5.096   2.514  0.7602 -0.5143  0.8221
  489MOL0     H65999   1.168   4.928   3.345  0.2880 -0.6346  1.5874
  489MOL0     H66000   1.312   4.723   3.298 -3.4278  2.1014  2.5419
  489MOL0     H66001   1.422   4.328   3.098 -0.2750  0.3430  2.2744
  489MOL0     H66002   1.580   4.136   3.016 -2.1931  1.9932 -1.4903
  489MOL0     H66003   1.919   3.969   3.088  0.2654  0.7962 -0.1803
  489MOL0     H66004   1.759   3.994   3.146  0.2561 -0.7602 -0.7070
  489MOL0     H66005   1.834   4.162   3.313  0.9912 -0.6209  2.7750
  489MOL0     H66006   1.999   4.149   3.246 -0.7368  1.4811  1.6053
  489MOL0     H66007   2.006   3.915   3.293 -0.2908 -0.0577 -2.5839
  489MOL0     H66008   1.847   3.919   3.369  0.1909  0.4219 -0.6117
  489MOL0     H66009   1.995   3.929   3.542  2.0488  1.3244  1.8911
  489MOL0     H66010   2.096   4.059   3.485 -0.5663  1.1117  0.3441
  489MOL0     H66011   1.768   4.207   3.727  1.4992  1.0003 -0.2065
  489MOL0     H66012   1.906   4.377   3.102  0.1927 -1.5861  1.1971
  489MOL0     H66013   1.740   4.689   3.088  0.9871 -2.7449 -3.4359
  489MOL0     H66014   1.761   4.646   3.259 -0.8416 -0.1451  0.5615
  489MOL0     H66015   1.894   4.620   3.167  0.1661  1.4168  0.8278
  490MOL0     O66016   6.313   2.356   1.822  0.2824  0.3785  0.3132
  490MOL0     C66017   6.300   2.457   1.745 -0.4699 -0.0040  0.3734
  490MOL0     O66018   6.380   2.494   1.645 -0.9380 -0.1433 -0.2522
  490MOL0     C66019   6.505   2.446   1.631  0.3011 -0.1251  0.6920
  490MOL0     C66020   6.607   2.463   1.718 -0.4919  0.3646 -0.3253
  490MOL0     C66021   6.741   2.415   1.688  0.7649  0.1314 -0.0060
  490MOL0     C66022   6.765   2.340   1.576 -0.3575  0.3286  0.3386
  490MOL0     O66023   6.892   2.277   1.561 -0.5737  0.0533  0.3443
  490MOL0     C66024   6.973   2.334   1.458 -0.7143  0.6790  0.4317
  490MOL0     C66025   7.056   2.223   1.394  0.7562  0.3850 -0.1573
  490MOL0     C66026   7.186   2.194   1.460  0.4402 -0.0821 -0.3353
  490MOL0     C66027   7.292   2.300   1.434  0.1947  0.5954 -0.4393
  490MOL0     C66028   7.422   2.255   1.502 -1.4385 -0.1862 -0.7164
  490MOL0     C66029   7.438   2.255   1.655  1.0336 -0.2187  0.4663
  490MOL0     C66030   7.575   2.202   1.699 -0.7238  0.2015 -0.0352
  490MOL0     C66031   7.625   2.246   1.842 -0.0731  0.3443  0.5000
  490MOL0     N66032   7.536   2.175   1.945  0.5792 -0.3679  0.5199
  490MOL0     C66033   7.548   2.053   1.997  0.2922  0.5618 -0.6603
  490MOL0     C66034   7.454   2.042   2.099 -0.0989  0.2101 -0.4349
  490MOL0     C66035   7.439   1.917   2.183 -0.1044 -0.6536 -0.3175
  490MOL0     C66036   7.555   1.887   2.272  0.1281 -0.9020  0.5352
  490MOL0     C66037   7.536   1.772   2.383  0.1543 -0.0621  0.1782
  490MOL0     C66038   7.662   1.701   2.423 -0.2884  0.7725  0.3091
  490MOL0     O66039   7.709   1.620   2.313  0.5027  0.0167 -0.1630
  490MOL0     C66040   7.808   1.524   2.336  1.0261 -1.0662 -0.7944
  490MOL0     C66041   7.818   1.418   2.245 -0.1221 -0.0235  1.0784
  490MOL0     C66042   7.919   1.329   2.248  0.1086  0.4334 -0.2970
  490MOL0     C66043   8.012   1.327   2.363 -0.2905  0.7322 -0.3984
  490MOL0     C66044   8.096   1.206   2.377 -0.6065 -1.1432 -0.9280
  490MOL0     O66045   8.197   1.207   2.467  0.0387  0.9758 -0.3573
  490MOL0     C66046   8.300   1.113   2.434  0.8576 -0.2262  0.0619
  490MOL0     C66047   8.314   1.007   2.520 -0.3329  0.0177 -0.3768
  490MOL0     C66048   8.433   0.930   2.506  0.0080  0.0498  0.1002
  490MOL0     C66049   8.531   0.960   2.407  0.2322 -0.0523  0.7039
  490MOL0     O66050   8.651   0.892   2.386  0.1305  0.3060 -0.4715
  490MOL0     C66051   8.714   0.831   2.495 -0.5909 -0.5055  0.3597
  490MOL0     C66052   8.851   0.783   2.455 -0.7490  0.2311 -0.5051
  490MOL0     C66053   8.839   0.656   2.370  0.5239  0.2480 -0.0040
  490MOL0     C66054   8.967   0.602   2.299  0.3182  0.0550  0.3181
  490MOL0     C66055   8.925   0.478   2.210  0.1489  1.4817  0.9853
  490MOL0     C66056   9.019   0.431   2.090  0.2706  0.6858 -0.5839
  490MOL0     C66057   9.141   0.380   2.150 -0.7172 -0.0604 -0.3110
  490MOL0     C66058   9.255   0.377   2.049 -0.5631 -0.7142  1.0823
  490MOL0    Cl66059   9.225   0.228   1.949  0.0196 -0.5885 -0.5651
  490MOL0     C66060   8.506   1.066   2.323  0.4254 -0.2693 -0.0175
  490MOL0     C66061   8.391   1.140   2.337  0.6613 -0.6698  1.3010
  490MOL0     O66062   8.059   1.107   2.318 -0.6231  0.2865 -0.6803
  490MOL0     C66063   8.008   1.437   2.451  0.0056 -0.3133 -0.1253
  490MOL0     C66064   7.906   1.531   2.440  0.7836  0.6276 -0.8402
  490MOL0     N66065   7.382   2.158   2.104 -0.0620  0.2379  0.5885
  490MOL0     N66066   7.436   2.235   2.019 -0.2021 -0.3562  0.0730
  490MOL0     C66067   6.664   2.331   1.479  0.7491 -0.4287 -0.5181
  490MOL0     C66068   6.536   2.390   1.503  0.2665 -0.3760 -0.5206
  490MOL0     C66069   6.182   2.534   1.755  0.4749 -0.1805 -0.6895
  490MOL0     C66070   6.111   2.527   1.875 -0.2773 -1.4151 -0.5183
  490MOL0     C66071   5.980   2.583   1.883  0.6541 -0.4114 -0.6171
  490MOL0     C66072   5.915   2.643   1.773 -0.0118 -0.2977 -0.4299
  490MOL0     O66073   5.787   2.690   1.779  0.6884 -0.6185  0.6133
  490MOL0     C66074   5.731   2.723   1.913 -1.4539 -0.3025 -0.9104
  490MOL0     C66075   5.806   2.846   1.964 -0.0999  0.7770 -0.2750
  490MOL0     C66076   5.728   2.908   2.076 -0.3850 -0.1515 -0.9014
  490MOL0     C66077   5.818   2.985   2.180 -0.0445 -0.3493 -0.7524
  490MOL0     C66078   5.877   2.906   2.293 -0.3558  0.3155 -0.5870
  490MOL0     C66079   5.921   2.847   2.396  0.4005  0.9904 -0.0179
  490MOL0     C66080   5.993   2.642   1.654  1.1398 -0.3784  0.0463
  490MOL0     C66081   6.119   2.583   1.638  0.7940 -0.7489 -0.2522
  490MOL0     C66082   6.174   2.585   1.500 -0.0057  1.6186 -0.1329
  490MOL0     H66083   6.594   2.512   1.813  0.0344  0.2375 -0.1842
  490MOL0     H66084   6.816   2.419   1.767 -0.2968  0.8425  1.0071
  490MOL0     H66085   6.911   2.383   1.383  0.0067  0.5943 -0.2282
  490MOL0     H66086   7.039   2.411   1.500  1.5909 -0.8166 -0.2607
  490MOL0     H66087   7.083   2.250   1.291 -0.8145  1.1849 -0.3983
  490MOL0     H66088   6.998   2.130   1.391 -0.2531  0.8522 -5.6084
  490MOL0     H66089   7.220   2.094   1.429 -2.0515 -0.7230 -1.2893
  490MOL0     H66090   7.162   2.194   1.567  2.2982 -2.2052  0.1668
  490MOL0     H66091   7.308   2.316   1.327 -1.0817  2.7423 -0.3493
  490MOL0     H66092   7.269   2.401   1.469  2.9682  1.9296 -2.0992
  490MOL0     H66093   7.445   2.151   1.475  1.1823  0.7311 -2.3857
  490MOL0     H66094   7.498   2.324   1.466 -0.4039 -0.7957  0.2279
  490MOL0     H66095   7.421   2.353   1.700 -1.6440 -0.4404  0.1279
  490MOL0     H66096   7.358   2.198   1.704 -1.8156  2.6960 -0.4517
  490MOL0     H66097   7.641   2.238   1.621  1.3578 -0.7266  1.2168
  490MOL0     H66098   7.578   2.093   1.684 -3.5610  0.4145 -3.2529
  490MOL0     H66099   7.731   2.231   1.861  0.5720  0.4445 -2.5472
  490MOL0     H66100   7.600   2.352   1.848 -0.8408  0.1655  0.5883
  490MOL0     H66101   7.627   1.981   1.975 -1.2055 -1.7939  1.1358
  490MOL0     H66102   7.356   1.947   2.248  0.1185  1.4710 -0.9458
  490MOL0     H66103   7.409   1.832   2.121  0.5630  0.1564 -1.7808
  490MOL0     H66104   7.638   1.869   2.203 -0.0745 -0.9258  0.2996
  490MOL0     H66105   7.576   1.977   2.331  1.3413 -0.4984 -0.4729
  490MOL0     H66106   7.455   1.707   2.349  1.8148 -1.4156 -1.3162
  490MOL0     H66107   7.506   1.820   2.477  0.4539  0.9910 -0.2509
  490MOL0     H66108   7.637   1.636   2.508 -1.5326  0.8202 -0.0024
  490MOL0     H66109   7.738   1.769   2.462  1.1978 -0.6197 -0.0408
  490MOL0     H66110   7.741   1.392   2.172 -2.0488 -1.2324  3.3869
  490MOL0     H66111   7.926   1.246   2.178 -2.4653 -1.2631  1.2588
  490MOL0     H66112   8.247   0.994   2.604  0.8057  0.8149  0.6811
  490MOL0     H66113   8.448   0.848   2.575 -0.1771  0.2768  0.4119
  490MOL0     H66114   8.723   0.897   2.582  1.2849 -0.3076  0.0601
  490MOL0     H66115   8.650   0.749   2.529 -1.4677  0.1540  0.3363
  490MOL0     H66116   8.907   0.861   2.403 -1.3017  1.2231  0.3374
  490MOL0     H66117   8.890   0.749   2.551 -0.6450  0.5287 -0.4385
  490MOL0     H66118   8.800   0.576   2.433 -0.5809 -0.8312 -1.9508
  490MOL0     H66119   8.757   0.672   2.300 -0.3174 -2.2140  0.3293
  490MOL0     H66120   9.040   0.567   2.372  0.8566 -1.6184 -0.9628
  490MOL0     H66121   9.011   0.681   2.238 -0.6869 -1.3642 -2.4204
  490MOL0     H66122   8.833   0.513   2.162 -0.4586 -0.0645  0.9734
  490MOL0     H66123   8.895   0.396   2.276  4.2615  1.2100  2.8727
  490MOL0     H66124   8.967   0.353   2.033 -1.6671 -1.3990  3.6460
  490MOL0     H66125   9.038   0.520   2.029 -3.2067  0.4323 -2.2903
  490MOL0     H66126   9.127   0.284   2.201 -1.5165  0.5275  0.6089
  490MOL0     H66127   9.165   0.452   2.229 -1.6328  0.6989 -0.7089
  490MOL0     H66128   9.265   0.467   1.988  0.2925 -1.1078  0.6351
  490MOL0     H66129   9.350   0.381   2.104  0.8332 -0.7912 -1.2167
  490MOL0     H66130   8.584   1.100   2.255  0.0356  3.0675  1.0169
  490MOL0     H66131   8.370   1.231   2.282  2.6747 -0.4982  0.7085
  490MOL0     H66132   8.074   1.437   2.537 -0.9138 -1.0681  0.6091
  490MOL0     H66133   7.899   1.621   2.501  2.5053 -0.9668  1.9190
  490MOL0     H66134   6.681   2.268   1.392 -0.9107 -0.1826 -1.0600
  490MOL0     H66135   6.453   2.381   1.434  0.4534 -0.7958 -0.6955
  490MOL0     H66136   6.134   2.469   1.964  3.0956 -0.2432 -0.4617
  490MOL0     H66137   5.928   2.565   1.976  0.7863  3.6520  0.4102
  490MOL0     H66138   5.731   2.643   1.988 -0.6754  0.0374 -0.5359
  490MOL0     H66139   5.626   2.750   1.900 -1.3550  0.5219 -0.0532
  490MOL0     H66140   5.816   2.919   1.883 -2.7848  0.7554 -0.7107
  490MOL0     H66141   5.905   2.817   2.003 -0.5504  0.2450  0.5077
  490MOL0     H66142   5.680   2.835   2.143  2.6125  0.1391  1.8032
  490MOL0     H66143   5.646   2.969   2.034 -1.9345 -1.0526  0.6600
  490MOL0     H66144   5.909   3.021   2.132  1.5910  0.4041  2.5530
  490MOL0     H66145   5.775   3.078   2.217  0.4954 -1.1274  2.1006
  490MOL0     H66146   5.962   2.798   2.482 -2.8800  1.8468  2.2168
  490MOL0     H66147   5.940   2.674   1.565  1.6638  1.0479  0.2305
  490MOL0     H66148   6.103   2.618   1.424 -1.0225  0.2081  0.1498
  490MOL0     H66149   6.252   2.661   1.500 -0.1443  1.7670 -0.9868
  490MOL0     H66150   6.217   2.489   1.470  0.2137  1.4388  0.7116
  491MOL0     O66151   8.999   7.478   4.816 -0.7596  0.5633  1.0905
  491MOL0     C66152   9.053   7.587   4.835  0.3680  0.6374 -0.3127
  491MOL0     O66153   9.179   7.601   4.885  0.0878 -0.1644 -0.2299
  491MOL0     C66154   9.263   7.497   4.894 -0.3886 -0.4845 -0.5843
  491MOL0     C66155   9.237   7.382   4.979 -0.5344 -0.9775  0.1593
  491MOL0     C66156   9.337   7.287   4.999 -0.0324  0.3348  0.4281
  491MOL0     C66157   9.467   7.310   4.951 -0.3571  0.2365  0.5283
  491MOL0     O66158   9.566   7.208   4.969  0.5610 -0.0116 -0.5170
  491MOL0     C66159   9.703   7.229   4.948 -0.0589 -0.4279 -0.4365
  491MOL0     C66160   9.769   7.139   5.064 -0.2716 -0.0084 -0.0219
  491MOL0     C66161   9.919   7.161   5.079 -0.2505 -0.4958  0.2744
  491MOL0     C66162   9.992   7.042   5.141  0.8126  1.0201  0.1583
  491MOL0     C66163  10.148   7.067   5.172 -0.2668  0.4360 -0.2687
  491MOL0     C66164  10.210   6.935   5.189 -0.3937 -0.5205 -0.1072
  491MOL0     C66165  10.357   6.945   5.252 -0.8790 -0.0928  0.3077
  491MOL0     C66166  10.441   7.042   5.158 -0.3800 -0.4019 -1.3884
  491MOL0     N66167  10.578   7.048   5.210  0.0648 -0.7006  0.4642
  491MOL0     C66168  10.654   6.937   5.232 -0.3336  0.6230  0.6259
  491MOL0     C66169  10.779   6.978   5.226  0.0106  0.0473  0.1627
  491MOL0     C66170  10.895   6.892   5.262 -0.2045  0.5882 -0.7373
  491MOL0     C66171  10.930   6.871   5.413 -0.3173  0.2935 -0.4116
  491MOL0     C66172  10.957   6.998   5.486  1.1583 -0.3153 -1.1275
  491MOL0     C66173  11.097   7.038   5.466 -0.1748  0.7034 -0.5048
  491MOL0     O66174  11.184   6.948   5.536  0.1321 -0.0694  1.0165
  491MOL0     C66175  11.219   6.990   5.654 -0.5518  0.1367  0.8232
  491MOL0     C66176  11.318   7.085   5.662  0.1159 -0.7454  0.0375
  491MOL0     C66177  11.376   7.119   5.776  0.5419 -0.5258 -0.1412
  491MOL0     C66178  11.345   7.064   5.903  0.2561 -1.2257  0.8327
  491MOL0     C66179  11.381   7.115   6.035 -0.4208  0.6508  0.7837
  491MOL0     O66180  11.449   7.226   6.020 -0.8814  0.3106 -0.6085
  491MOL0     C66181  11.496   7.275   6.141  0.0639  0.2361  0.3498
  491MOL0     C66182  11.427   7.393   6.185 -0.6236  0.5537  0.1830
  491MOL0     C66183  11.474   7.444   6.308  0.5348 -0.3688 -0.4532
  491MOL0     C66184  11.571   7.381   6.380 -0.5473  0.5327 -0.3713
  491MOL0     O66185  11.593   7.411   6.515  0.0394 -0.6834  0.5639
  491MOL0     C66186  11.493   7.344   6.595 -0.2270 -0.0639  0.3288
  491MOL0     C66187  11.527   7.372   6.743  0.1188 -0.5895  0.6253
  491MOL0     C66188  11.412   7.350   6.835  0.0864  0.3110 -0.1830
  491MOL0     C66189  11.355   7.210   6.828 -0.6715  0.4745 -0.6567
  491MOL0     C66190  11.239   7.161   6.918 -0.4609 -0.4512  0.0431
  491MOL0     C66191  11.224   6.999   6.915  0.2077 -0.4181 -0.7152
  491MOL0     C66192  11.240   6.932   6.779 -1.6883 -1.1975  0.6267
  491MOL0     C66193  11.176   6.791   6.778  0.1625 -0.3325 -0.1652
  491MOL0    Cl66194  11.256   6.670   6.900 -0.0015  0.4066 -0.6332
  491MOL0     C66195  11.634   7.264   6.330  0.8463 -0.0365  0.8609
  491MOL0     C66196  11.595   7.212   6.209 -0.4496 -0.0907 -0.5506
  491MOL0     O66197  11.335   7.061   6.140  0.0052 -0.0648  0.4914
  491MOL0     C66198  11.248   6.967   5.894 -0.5702  1.4562 -0.2623
  491MOL0     C66199  11.180   6.924   5.772 -0.2662  0.2716  0.4248
  491MOL0     N66200  10.786   7.110   5.203 -0.0412  0.1633 -0.6172
  491MOL0     N66201  10.666   7.153   5.197 -0.2862 -0.0472  0.0308
  491MOL0     C66202   9.491   7.427   4.877 -0.2210 -0.0741  0.1411
  491MOL0     C66203   9.389   7.523   4.846 -0.0695 -0.2009 -0.1246
  491MOL0     C66204   8.982   7.708   4.787  0.2803 -0.5613 -0.5756
  491MOL0     C66205   8.910   7.702   4.666 -0.2275 -0.3698 -0.1072
  491MOL0     C66206   8.820   7.802   4.627 -0.5370 -0.6170 -0.8020
  491MOL0     C66207   8.807   7.917   4.710  0.3449 -0.1446 -0.1444
  491MOL0     O66208   8.728   8.027   4.681 -0.6759  0.4650 -0.6080
  491MOL0     C66209   8.612   8.001   4.603 -0.6196  0.0344  0.1751
  491MOL0     C66210   8.518   8.116   4.634 -0.3378 -0.9397  0.0601
  491MOL0     C66211   8.380   8.103   4.583  0.0232 -0.0823 -0.3440
  491MOL0     C66212   8.297   8.225   4.607 -1.2137 -0.5368 -0.9003
  491MOL0     C66213   8.157   8.197   4.584  0.7925 -0.4708  0.3540
  491MOL0     C66214   8.038   8.190   4.558 -0.0324 -1.0539  0.6890
  491MOL0     C66215   8.880   7.927   4.829 -0.7236 -0.6382 -0.6362
  491MOL0     C66216   8.971   7.820   4.871  0.2464 -0.7655  0.9480
  491MOL0     C66217   9.042   7.830   5.009  0.8634  0.2220 -0.2632
  491MOL0     H66218   9.140   7.361   5.022  0.8681  0.1906  4.3533
  491MOL0     H66219   9.313   7.194   5.050 -1.6103  0.1018 -0.6510
  491MOL0     H66220   9.728   7.204   4.845 -1.0155  2.4034 -1.4533
  491MOL0     H66221   9.732   7.333   4.967  0.2739 -0.6141  0.1163
  491MOL0     H66222   9.745   7.033   5.051  0.3364 -0.3934  1.7310
  491MOL0     H66223   9.725   7.155   5.163  2.8381  2.0186  1.1648
  491MOL0     H66224   9.952   7.251   5.131  1.9482 -0.9648 -0.1945
  491MOL0     H66225   9.966   7.163   4.980 -0.5947  0.2272  0.1236
  491MOL0     H66226   9.944   7.025   5.237 -2.3218 -0.0817 -1.4758
  491MOL0     H66227   9.980   6.952   5.080  0.3191 -0.0383  1.7652
  491MOL0     H66228  10.198   7.128   5.096 -1.7498 -0.6924 -2.2574
  491MOL0     H66229  10.154   7.123   5.266  1.2968  1.4313 -0.9113
  491MOL0     H66230  10.138   6.889   5.257  0.4562 -0.8410  0.5873
  491MOL0     H66231  10.222   6.890   5.090  0.4163  1.6057 -1.0413
  491MOL0     H66232  10.394   6.843   5.251 -2.8348 -0.8463 -0.0819
  491MOL0     H66233  10.345   6.988   5.352  0.8019  0.1116  0.4517
  491MOL0     H66234  10.439   7.001   5.057 -1.3709 -1.9187 -0.7811
  491MOL0     H66235  10.411   7.145   5.137  1.4834  0.4760 -0.0173
  491MOL0     H66236  10.614   6.837   5.248 -0.7423  0.7039  0.1390
  491MOL0     H66237  10.874   6.790   5.230 -2.1159 -0.3764  3.0496
  491MOL0     H66238  10.977   6.927   5.197  2.9326 -2.8059  1.0074
  491MOL0     H66239  10.848   6.819   5.462  0.2229 -0.6703 -0.4966
  491MOL0     H66240  11.010   6.796   5.422 -2.8098 -2.3676  1.0381
  491MOL0     H66241  10.921   6.993   5.589  2.2430  1.8842 -0.5772
  491MOL0     H66242  10.893   7.069   5.433 -3.8188 -3.3401  0.1242
  491MOL0     H66243  11.111   7.144   5.490 -0.0721  0.7677 -0.8528
  491MOL0     H66244  11.118   7.025   5.360 -3.8875  4.0978 -1.8880
  491MOL0     H66245  11.356   7.119   5.566 -1.5372 -0.7907 -0.6772
  491MOL0     H66246  11.447   7.201   5.769  1.7603 -1.6580 -1.8893
  491MOL0     H66247  11.344   7.440   6.134 -0.7124  0.3698  0.1578
  491MOL0     H66248  11.426   7.536   6.341  0.7655  0.0544 -1.2818
  491MOL0     H66249  11.397   7.393   6.578 -0.6897  0.2002  3.2089
  491MOL0     H66250  11.480   7.240   6.566 -2.0363  0.8238 -2.3565
  491MOL0     H66251  11.599   7.294   6.771  0.3164  0.0149  1.8762
  491MOL0     H66252  11.575   7.470   6.755  4.1535 -2.4260  1.4505
  491MOL0     H66253  11.448   7.370   6.936 -0.8893  0.6513  0.1077
  491MOL0     H66254  11.334   7.425   6.817 -2.1677 -0.4274  4.8297
  491MOL0     H66255  11.435   7.137   6.839 -0.9660 -0.0176 -1.6050
  491MOL0     H66256  11.317   7.197   6.726  1.4312 -2.2935 -1.2021
  491MOL0     H66257  11.145   7.196   6.874 -0.8485  0.8212  1.7777
  491MOL0     H66258  11.239   7.209   7.016  0.6738  0.5070 -0.4123
  491MOL0     H66259  11.301   6.962   6.983 -2.4962 -0.6216  2.4935
  491MOL0     H66260  11.129   6.961   6.955  0.5844  0.1756  0.8344
  491MOL0     H66261  11.347   6.929   6.757 -1.9674 -0.3329 -1.0401
  491MOL0     H66262  11.189   6.989   6.700 -2.5063 -2.6010  0.1004
  491MOL0     H66263  11.072   6.793   6.815  0.6957  1.5325  1.4006
  491MOL0     H66264  11.163   6.740   6.682  1.7080  1.6741 -1.5166
  491MOL0     H66265  11.710   7.206   6.383  0.3520  0.1040  1.7379
  491MOL0     H66266  11.645   7.125   6.168 -3.6615 -2.7195  0.6679
  491MOL0     H66267  11.238   6.908   5.984  0.7570 -0.4404 -1.2909
  491MOL0     H66268  11.104   6.847   5.771 -2.0949  1.9981 -0.4489
  491MOL0     H66269   9.588   7.452   4.836 -0.7685  1.7518 -0.1212
  491MOL0     H66270   9.410   7.621   4.804  1.2650 -1.3902 -2.4276
  491MOL0     H66271   8.915   7.618   4.597  0.7125 -0.7715  0.4294
  491MOL0     H66272   8.761   7.794   4.537  3.3861  1.5050 -3.9256
  491MOL0     H66273   8.581   7.899   4.627  0.2111 -0.6947 -1.6977
  491MOL0     H66274   8.623   8.005   4.494 -0.6677 -2.4820  0.0157
  491MOL0     H66275   8.553   8.213   4.596 -4.0368  0.3960 -0.3340
  491MOL0     H66276   8.511   8.128   4.743  3.4013 -1.4837  0.4843
  491MOL0     H66277   8.339   8.010   4.625 -2.3078 -0.6405 -3.4511
  491MOL0     H66278   8.388   8.091   4.475  0.8186 -1.5238 -0.1576
  491MOL0     H66279   8.317   8.247   4.712 -1.1085 -3.8039 -0.1173
  491MOL0     H66280   8.326   8.308   4.542  2.4277 -1.1718 -0.3039
  491MOL0     H66281   7.933   8.178   4.547 -0.0791  0.0466 -0.2219
  491MOL0     H66282   8.874   8.016   4.889  2.0587 -0.2436 -0.7954
  491MOL0     H66283   9.146   7.863   4.993  0.5063  0.9070 -1.3016
  491MOL0     H66284   8.980   7.904   5.060 -3.1775 -2.8505 -0.2457
  491MOL0     H66285   9.053   7.734   5.060  2.5844  1.5592  2.0752
  492MOL0     O66286   6.697   6.265   1.387 -0.3356  0.6068 -0.0985
  492MOL0     C66287   6.753   6.182   1.448  0.8817  0.7297  0.2169
  492MOL0     O66288   6.837   6.202   1.544 -0.1328  0.6177  0.0977
  492MOL0     C66289   6.926   6.313   1.549 -0.1569 -0.4084  0.3032
  492MOL0     C66290   6.946   6.398   1.437 -0.0880 -0.1398  0.7077
  492MOL0     C66291   7.022   6.509   1.438  0.3481 -0.1670 -0.2133
  492MOL0     C66292   7.086   6.549   1.555 -0.2715  0.3530  0.3072
  492MOL0     O66293   7.166   6.653   1.576 -0.6375 -0.9845  0.6231
  492MOL0     C66294   7.167   6.746   1.468 -0.5232  0.1780 -0.6500
  492MOL0     C66295   7.264   6.854   1.510  0.1877  0.3498  0.2375
  492MOL0     C66296   7.226   6.920   1.647  0.5127  0.2514 -0.9027
  492MOL0     C66297   7.267   7.060   1.640 -0.1758  0.2854 -0.2290
  492MOL0     C66298   7.254   7.136   1.771  0.0348 -0.1214 -0.1119
  492MOL0     C66299   7.384   7.125   1.856  0.3035 -0.2518  0.1982
  492MOL0     C66300   7.358   7.209   1.980  0.2723  0.2667  0.0051
  492MOL0     C66301   7.475   7.199   2.091  0.6321 -0.3900 -0.1796
  492MOL0     N66302   7.609   7.237   2.044  0.8310 -0.7453 -1.0091
  492MOL0     C66303   7.686   7.335   2.105 -0.4274  0.5905  1.2052
  492MOL0     C66304   7.805   7.313   2.054  0.5176 -0.6336 -0.4471
  492MOL0     C66305   7.922   7.392   2.110  0.3859  0.3310 -0.0205
  492MOL0     C66306   7.963   7.495   2.004  0.2864 -0.1247 -0.4119
  492MOL0     C66307   8.095   7.559   2.030  0.4241 -0.0864  0.2664
  492MOL0     C66308   8.134   7.657   1.932  0.1832 -0.5845  0.2990
  492MOL0     O66309   8.225   7.746   1.984  0.0140  0.4635  0.3330
  492MOL0     C66310   8.318   7.821   1.919  0.2496 -0.0899 -0.7016
  492MOL0     C66311   8.310   7.865   1.782  0.5295 -0.0542  0.1715
  492MOL0     C66312   8.419   7.935   1.727 -0.2321  0.9285  0.7674
  492MOL0     C66313   8.525   7.976   1.810 -0.0146  0.0336  0.2783
  492MOL0     C66314   8.636   8.058   1.756  0.5366 -0.3389 -0.0544
  492MOL0     O66315   8.616   8.114   1.638 -0.3357 -0.2321  0.2784
  492MOL0     C66316   8.659   8.243   1.631 -0.5374  0.8983  0.0219
  492MOL0     C66317   8.785   8.264   1.581 -0.3104  1.1355  0.4965
  492MOL0     C66318   8.824   8.400   1.557 -0.1497  0.5410 -0.6276
  492MOL0     C66319   8.737   8.510   1.586 -0.5862  0.1012 -0.5934
  492MOL0     O66320   8.793   8.642   1.581 -0.1329  0.3430  0.5311
  492MOL0     C66321   8.757   8.726   1.695  0.0566  0.0001 -0.3399
  492MOL0     C66322   8.824   8.861   1.681  0.0689 -0.0704  0.5077
  492MOL0     C66323   8.797   8.928   1.542 -1.2965  0.0807  0.1258
  492MOL0     C66324   8.913   9.016   1.501 -0.1847  0.1838  0.2593
  492MOL0     C66325   8.909   9.032   1.342 -0.3090  0.0481 -0.0726
  492MOL0     C66326   8.786   9.115   1.314 -0.2165  0.0762  0.1950
  492MOL0     C66327   8.775   9.150   1.167  0.0649 -0.1452  0.3318
  492MOL0     C66328   8.662   9.257   1.151 -0.1821 -0.3006  0.6939
  492MOL0    Cl66329   8.499   9.184   1.180 -0.1446  0.0107 -0.2225
  492MOL0     C66330   8.604   8.485   1.622  0.2948 -0.0496 -0.2241
  492MOL0     C66331   8.570   8.345   1.628  0.7581  0.3854 -0.0074
  492MOL0     O66332   8.734   8.077   1.822  0.3481 -0.1782 -0.2861
  492MOL0     C66333   8.518   7.944   1.949  0.0763 -0.2320 -0.7492
  492MOL0     C66334   8.418   7.867   2.005  0.2672  0.2998  0.9737
  492MOL0     N66335   7.812   7.214   1.964  0.7736  0.1634  0.2602
  492MOL0     N66336   7.689   7.171   1.963 -0.2907  0.1780  0.1476
  492MOL0     C66337   7.047   6.480   1.668 -0.3748 -0.2086  0.5088
  492MOL0     C66338   6.968   6.365   1.672 -0.0458 -1.1018 -0.7042
  492MOL0     C66339   6.725   6.033   1.425  0.6307 -0.5488 -0.3235
  492MOL0     C66340   6.623   6.000   1.332 -0.2463  0.2060  0.7242
  492MOL0     C66341   6.582   5.864   1.308 -1.1402  0.2201 -0.5405
  492MOL0     C66342   6.641   5.757   1.381 -0.3076 -1.1291 -0.3137
  492MOL0     O66343   6.599   5.629   1.377 -0.4284  0.9119  0.4416
  492MOL0     C66344   6.476   5.605   1.314  0.3382  0.6536  0.2088
  492MOL0     C66345   6.419   5.470   1.347 -0.8221 -0.0052  0.8803
  492MOL0     C66346   6.476   5.353   1.273 -1.1208 -0.2111  0.1661
  492MOL0     C66347   6.461   5.341   1.122 -0.3747  0.9854  0.4899
  492MOL0     C66348   6.542   5.226   1.076 -0.1964  0.1738  0.0318
  492MOL0     C66349   6.622   5.138   1.046 -0.1822  0.2254 -0.0739
  492MOL0     C66350   6.743   5.786   1.468 -1.4966  0.0011 -0.3212
  492MOL0     C66351   6.786   5.922   1.490  0.4455  1.1129 -0.6022
  492MOL0     C66352   6.900   5.940   1.584  0.4405 -0.0577  0.1937
  492MOL0     H66353   6.916   6.373   1.336 -0.4098  1.3293  0.4116
  492MOL0     H66354   7.037   6.561   1.344 -1.3169  0.8322  0.0367
  492MOL0     H66355   7.211   6.696   1.382 -1.6734 -1.2303 -0.4706
  492MOL0     H66356   7.068   6.790   1.451 -0.9330 -1.1858 -2.1165
  492MOL0     H66357   7.256   6.931   1.432  1.1011  0.3490  0.1296
  492MOL0     H66358   7.364   6.809   1.507 -0.3302 -1.1563  2.7372
  492MOL0     H66359   7.264   6.862   1.732 -3.2487 -2.8013 -1.0839
  492MOL0     H66360   7.117   6.917   1.656  0.6231  1.2543  1.6633
  492MOL0     H66361   7.371   7.059   1.605 -0.1741 -0.5000 -0.2124
  492MOL0     H66362   7.218   7.119   1.562  0.6620  0.7039 -0.4597
  492MOL0     H66363   7.228   7.241   1.752 -0.4130 -0.1872  0.1182
  492MOL0     H66364   7.164   7.104   1.824  0.4424  1.9044  1.9933
  492MOL0     H66365   7.399   7.026   1.899  2.8149  0.0518  0.1960
  492MOL0     H66366   7.475   7.156   1.804  0.9413 -0.7998  0.9708
  492MOL0     H66367   7.265   7.172   2.024  0.4678  1.4830  1.5446
  492MOL0     H66368   7.347   7.317   1.964 -0.0136  0.2807  0.2868
  492MOL0     H66369   7.445   7.272   2.166 -0.7734  0.3518 -1.3982
  492MOL0     H66370   7.469   7.096   2.129 -0.7958 -0.0607  0.5369
  492MOL0     H66371   7.652   7.408   2.178 -0.2346 -0.0744  1.9761
  492MOL0     H66372   7.908   7.441   2.206 -0.7004  1.6396 -0.8045
  492MOL0     H66373   7.998   7.314   2.118  0.9954  0.9889  0.7255
  492MOL0     H66374   7.968   7.451   1.904  0.6164  0.3789 -0.6219
  492MOL0     H66375   7.888   7.574   1.994  2.6236  1.9905 -7.6012
  492MOL0     H66376   8.169   7.478   2.026  0.9695  0.4441 -0.5770
  492MOL0     H66377   8.093   7.589   2.136 -2.5780  1.6188 -0.1725
  492MOL0     H66378   8.048   7.720   1.908 -1.6293 -2.7895  0.7299
  492MOL0     H66379   8.181   7.616   1.841  0.9909  0.4179  0.2437
  492MOL0     H66380   8.220   7.848   1.724  1.2755 -0.9688 -0.7525
  492MOL0     H66381   8.407   7.959   1.622 -1.5449 -0.2544  0.6073
  492MOL0     H66382   8.848   8.176   1.574 -0.8655  0.7997 -0.5125
  492MOL0     H66383   8.923   8.438   1.531  0.0576  1.2993  1.1450
  492MOL0     H66384   8.648   8.723   1.696 -0.0496 -0.5599 -3.6957
  492MOL0     H66385   8.800   8.680   1.785 -0.6434  0.9596  0.5200
  492MOL0     H66386   8.778   8.922   1.760 -0.7013  1.3150 -0.9710
  492MOL0     H66387   8.931   8.854   1.701  0.3173  0.3613 -0.6473
  492MOL0     H66388   8.764   8.850   1.473 -1.1325 -0.3243  0.4982
  492MOL0     H66389   8.711   8.993   1.560 -0.7847  1.2874 -1.5758
  492MOL0     H66390   9.006   8.980   1.546 -1.1952  0.0636  2.4130
  492MOL0     H66391   8.898   9.113   1.550  2.5117  1.6075 -1.5331
  492MOL0     H66392   8.905   8.933   1.297 -1.1814 -0.4682  1.0952
  492MOL0     H66393   8.991   9.093   1.303 -2.4405  4.3015  1.4290
  492MOL0     H66394   8.693   9.060   1.330 -1.5421  2.1660  0.0873
  492MOL0     H66395   8.799   9.199   1.383  2.7414 -2.0519  2.4849
  492MOL0     H66396   8.747   9.070   1.099 -2.2667 -0.3791  1.4604
  492MOL0     H66397   8.866   9.196   1.128 -1.0032 -1.2321 -3.9400
  492MOL0     H66398   8.666   9.338   1.224 -1.4032 -0.9499  1.5253
  492MOL0     H66399   8.672   9.288   1.046 -0.2941 -0.8241  0.5283
  492MOL0     H66400   8.533   8.566   1.608  0.7093 -0.0375 -2.8971
  492MOL0     H66401   8.466   8.317   1.635 -0.1398  3.2591 -0.4506
  492MOL0     H66402   8.596   7.974   2.017  0.5444 -3.7740  0.4958
  492MOL0     H66403   8.405   7.846   2.110 -2.0753  2.9457  1.3140
  492MOL0     H66404   7.087   6.508   1.765 -1.3227  0.5747  0.6799
  492MOL0     H66405   6.932   6.310   1.759  1.4055 -2.7841 -1.1082
  492MOL0     H66406   6.587   6.073   1.260  0.7185 -0.7805 -0.8047
  492MOL0     H66407   6.504   5.854   1.234 -1.2148 -0.4277 -0.3867
  492MOL0     H66408   6.480   5.630   1.207 -0.9732 -0.9297 -0.2505
  492MOL0     H66409   6.403   5.677   1.352 -0.9784  0.8798 -2.5141
  492MOL0     H66410   6.311   5.467   1.329 -0.6482 -0.7432 -0.1115
  492MOL0     H66411   6.433   5.454   1.454  2.8656 -1.6825  0.3129
  492MOL0     H66412   6.437   5.259   1.313 -0.0257 -0.1537  1.4276
  492MOL0     H66413   6.583   5.347   1.298 -1.7633 -0.3120  3.2293
  492MOL0     H66414   6.358   5.320   1.095  1.3528 -4.4105 -3.6737
  492MOL0     H66415   6.498   5.431   1.073  2.7581 -0.6724 -0.5218
  492MOL0     H66416   6.673   5.056   0.999  1.8189  0.1434  2.0634
  492MOL0     H66417   6.788   5.706   1.526 -2.3904 -0.3722 -0.1256
  492MOL0     H66418   6.941   5.849   1.629  0.3030  0.0210  0.4753
  492MOL0     H66419   6.984   5.976   1.524  3.3083 -5.5738  0.1885
  492MOL0     H66420   6.855   6.000   1.663 -2.2896 -2.9417  1.0431
  493MOL0     O66421   3.779   0.260   5.071 -0.1530 -0.7803  0.4732
  493MOL0     C66422   3.709   0.324   5.147  0.0916 -0.0960 -0.4417
  493MOL0     O66423   3.751   0.386   5.253 -0.8014 -0.1190 -0.5381
  493MOL0     C66424   3.886   0.366   5.282 -0.5974  0.3244  0.3697
  493MOL0     C66425   3.980   0.467   5.243  0.5653 -0.8616 -0.1461
  493MOL0     C66426   4.118   0.458   5.279 -0.3912 -0.0119  0.1138
  493MOL0     C66427   4.159   0.352   5.358  0.0960 -0.7619 -0.4200
  493MOL0     O66428   4.287   0.369   5.412  0.6616 -0.0704 -0.5397
  493MOL0     C66429   4.319   0.324   5.541 -1.3592  0.7100  0.0956
  493MOL0     C66430   4.478   0.324   5.548 -0.9903 -0.2079  0.8009
  493MOL0     C66431   4.523   0.184   5.541  0.7344 -0.1313 -0.7545
  493MOL0     C66432   4.494   0.119   5.681 -0.5964  0.0272 -0.6080
  493MOL0     C66433   4.535  -0.031   5.688 -1.0145 -0.2889 -0.3311
  493MOL0     C66434   4.518  -0.097   5.821  0.2219 -0.6064 -0.1782
  493MOL0     C66435   4.568  -0.242   5.836 -0.3830 -0.2186  0.9611
  493MOL0     C66436   4.458  -0.350   5.840 -0.2283  0.3358  0.4871
  493MOL0     N66437   4.376  -0.338   5.959  0.5760  0.1028 -0.7227
  493MOL0     C66438   4.405  -0.368   6.093  0.4588  0.7781 -0.7602
  493MOL0     C66439   4.292  -0.321   6.159 -0.8941 -0.4402 -0.1124
  493MOL0     C66440   4.279  -0.286   6.308  0.3369  0.3898  0.2618
  493MOL0     C66441   4.261  -0.409   6.396 -0.0636  0.1956 -0.5873
  493MOL0     C66442   4.231  -0.370   6.536 -0.2457 -0.1900  0.0579
  493MOL0     C66443   4.199  -0.479   6.632  0.7107  0.7955 -0.4863
  493MOL0     O66444   4.297  -0.578   6.633 -0.3226  0.2734 -0.1721
  493MOL0     C66445   4.271  -0.711   6.610 -1.3935  0.8342 -1.4016
  493MOL0     C66446   4.158  -0.786   6.592  0.0277 -0.4963  0.1769
  493MOL0     C66447   4.154  -0.922   6.563 -0.2096  0.1858 -0.4150
  493MOL0     C66448   4.273  -1.007   6.566  0.2763 -0.3089 -0.0360
  493MOL0     C66449   4.263  -1.145   6.552  0.6128  0.9765  0.1618
  493MOL0     O66450   4.130  -1.186   6.581 -0.8386  0.5163  0.4463
  493MOL0     C66451   4.099  -1.319   6.566 -0.0232 -0.9285 -0.4708
  493MOL0     C66452   4.069  -1.408   6.680 -0.3751  0.3198 -0.2475
  493MOL0     C66453   4.006  -1.534   6.654  0.1915 -0.6355 -0.2304
  493MOL0     C66454   3.975  -1.576   6.522 -0.2576  0.0530  0.4593
  493MOL0     O66455   3.911  -1.690   6.500 -0.3778  0.3337  0.6026
  493MOL0     C66456   3.801  -1.716   6.583 -0.5547 -0.1545  0.1813
  493MOL0     C66457   3.695  -1.800   6.517 -0.4910  0.2458  0.6152
  493MOL0     C66458   3.590  -1.858   6.616 -0.4931  0.1924  0.4617
  493MOL0     C66459   3.466  -1.904   6.542  0.3152 -0.5882 -0.3663
  493MOL0     C66460   3.361  -1.977   6.631 -0.4114  0.6836  0.3878
  493MOL0     C66461   3.224  -1.978   6.562 -0.5345  1.2195 -0.8196
  493MOL0     C66462   3.106  -2.030   6.648  0.2102 -1.0304  0.3190
  493MOL0     C66463   3.115  -2.169   6.690 -0.1353  0.3384 -0.0173
  493MOL0    Cl66464   2.945  -2.207   6.738 -0.1105  0.4886  0.0056
  493MOL0     C66465   4.026  -1.499   6.419  0.7086 -0.2888  0.1537
  493MOL0     C66466   4.072  -1.365   6.441 -1.4542 -0.8933  0.3474
  493MOL0     O66467   4.363  -1.217   6.527 -0.2461 -0.2074  1.2129
  493MOL0     C66468   4.389  -0.927   6.586 -0.7955  0.6227 -1.3798
  493MOL0     C66469   4.388  -0.787   6.606  0.4014  0.1938 -0.3017
  493MOL0     N66470   4.200  -0.284   6.067 -0.3897  0.2502 -0.0607
  493MOL0     N66471   4.251  -0.296   5.946 -0.1347  0.2801 -0.5963
  493MOL0     C66472   4.071   0.262   5.397  0.8539  0.1363 -0.4225
  493MOL0     C66473   3.937   0.266   5.358 -0.5069  0.4872 -0.3135
  493MOL0     C66474   3.564   0.317   5.117 -1.0186  0.7438  0.1984
  493MOL0     C66475   3.485   0.286   5.232 -0.0860 -0.5040 -0.0110
  493MOL0     C66476   3.352   0.251   5.214 -0.5176 -0.3688 -0.5480
  493MOL0     C66477   3.290   0.250   5.083 -0.5127 -0.4641  0.3841
  493MOL0     O66478   3.149   0.244   5.080  0.4730 -0.3008 -0.5109
  493MOL0     C66479   3.083   0.258   4.951 -0.2612  0.9720  0.1238
  493MOL0     C66480   3.047   0.397   4.914  0.8610  0.9365  0.5168
  493MOL0     C66481   2.974   0.477   5.020 -0.3058  0.4684  0.2536
  493MOL0     C66482   2.916   0.607   4.957 -0.6136  1.0464  0.1687
  493MOL0     C66483   3.014   0.705   4.904 -0.8422  0.0246  0.9417
  493MOL0     C66484   3.096   0.794   4.870 -0.0751 -0.9457  0.3390
  493MOL0     C66485   3.373   0.287   4.974  0.4914 -0.2877  0.7152
  493MOL0     C66486   3.510   0.317   4.992  0.3303  0.2390  0.1391
  493MOL0     C66487   3.592   0.344   4.863  0.8814 -0.0840 -0.5585
  493MOL0     H66488   3.929   0.535   5.175  0.8708 -1.4102 -0.9333
  493MOL0     H66489   4.185   0.542   5.260  0.1315 -0.1927  1.1093
  493MOL0     H66490   4.292   0.393   5.622 -2.1137 -0.5949  0.9945
  493MOL0     H66491   4.277   0.228   5.573  2.0968 -1.3360 -0.9814
  493MOL0     H66492   4.514   0.381   5.633 -0.7878  0.4027  0.3132
  493MOL0     H66493   4.518   0.360   5.453 -0.9166 -1.3331  0.3898
  493MOL0     H66494   4.628   0.172   5.514  1.0930 -1.2309  0.9867
  493MOL0     H66495   4.471   0.118   5.472 -2.8686  0.9821  0.6380
  493MOL0     H66496   4.558   0.165   5.757 -1.8162 -2.3058  2.0527
  493MOL0     H66497   4.390   0.129   5.712 -1.1701 -2.4139 -1.5179
  493MOL0     H66498   4.467  -0.085   5.621 -1.3576 -3.6082  2.4181
  493MOL0     H66499   4.638  -0.041   5.652 -1.5539 -3.6950 -1.3238
  493MOL0     H66500   4.560  -0.016   5.881 -3.4801  2.3354 -1.1661
  493MOL0     H66501   4.414  -0.083   5.852  1.0033  1.2480  1.8649
  493MOL0     H66502   4.616  -0.245   5.934 -0.6836 -1.5372  1.0834
  493MOL0     H66503   4.635  -0.265   5.753 -1.6293 -1.8599  0.3488
  493MOL0     H66504   4.402  -0.341   5.746 -1.2909  2.5124  1.2484
  493MOL0     H66505   4.508  -0.447   5.845 -0.2193  0.3077 -0.0875
  493MOL0     H66506   4.505  -0.404   6.113 -0.8870 -1.2811  3.3977
  493MOL0     H66507   4.367  -0.226   6.333 -0.0932  1.0421  0.2173
  493MOL0     H66508   4.190  -0.224   6.318 -1.1943 -1.0669 -2.8109
  493MOL0     H66509   4.191  -0.481   6.353 -1.9930  0.1725  2.3437
  493MOL0     H66510   4.361  -0.455   6.395 -0.3499 -0.4733  0.3538
  493MOL0     H66511   4.157  -0.290   6.532 -0.9907 -0.8936 -0.4403
  493MOL0     H66512   4.317  -0.313   6.572  1.7516 -0.2507 -4.0983
  493MOL0     H66513   4.101  -0.518   6.602  0.5988  0.3772  0.3840
  493MOL0     H66514   4.194  -0.439   6.734 -0.6984  1.0314 -0.6201
  493MOL0     H66515   4.061  -0.736   6.589  0.6650  0.9686  1.9461
  493MOL0     H66516   4.061  -0.978   6.547  0.2211 -1.6271  2.6285
  493MOL0     H66517   4.087  -1.367   6.779 -0.0322 -1.7831  0.6175
  493MOL0     H66518   3.972  -1.593   6.738  0.2053 -0.0063  0.2272
  493MOL0     H66519   3.826  -1.760   6.680  0.8204 -0.4650 -0.2844
  493MOL0     H66520   3.751  -1.625   6.615 -2.5370 -1.3339  0.5491
  493MOL0     H66521   3.653  -1.747   6.432 -1.2432 -0.6033  0.4367
  493MOL0     H66522   3.757  -1.883   6.481 -0.0421  1.3127 -1.1618
  493MOL0     H66523   3.638  -1.952   6.644  0.3854  0.7408  0.8343
  493MOL0     H66524   3.575  -1.803   6.709 -0.6416  0.0114  0.5465
  493MOL0     H66525   3.501  -1.970   6.463  1.3409 -2.5022  1.5768
  493MOL0     H66526   3.414  -1.820   6.495  0.8480  0.7131  1.2585
  493MOL0     H66527   3.345  -1.923   6.725 -1.3294  2.2380 -0.6244
  493MOL0     H66528   3.401  -2.078   6.647 -0.7859  0.3162 -0.8851
  493MOL0     H66529   3.193  -1.877   6.534  1.9132  1.9390 -1.1211
  493MOL0     H66530   3.223  -2.039   6.471 -3.3890 -1.2772  0.6872
  493MOL0     H66531   3.028  -2.021   6.571  1.6737 -0.7273 -1.1902
  493MOL0     H66532   3.087  -1.966   6.734 -2.3985  0.8943 -1.5435
  493MOL0     H66533   3.145  -2.227   6.602  1.5512  0.0709  0.6893
  493MOL0     H66534   3.186  -2.180   6.772  0.3065 -0.7958 -0.5275
  493MOL0     H66535   4.023  -1.533   6.316  3.0672 -0.7304  0.1663
  493MOL0     H66536   4.088  -1.303   6.353  0.2644 -0.6990  0.7638
  493MOL0     H66537   4.489  -0.969   6.587 -1.2246 -0.4792  0.1173
  493MOL0     H66538   4.483  -0.736   6.617 -0.9994  2.5459  2.1837
  493MOL0     H66539   4.105   0.172   5.448  1.3799  0.6180  0.0869
  493MOL0     H66540   3.879   0.181   5.394  2.0228 -0.5994  1.5239
  493MOL0     H66541   3.524   0.283   5.334 -0.3276  0.2876  0.1105
  493MOL0     H66542   3.299   0.220   5.304 -1.8538  0.7064 -0.9351
  493MOL0     H66543   2.999   0.189   4.938  0.6472 -0.6642  2.2900
  493MOL0     H66544   3.140   0.216   4.868  0.8595  2.5229  0.0609
  493MOL0     H66545   2.988   0.382   4.823  1.0535 -1.0950  0.6758
  493MOL0     H66546   3.139   0.446   4.881  0.4680  0.0264 -2.2379
  493MOL0     H66547   3.047   0.516   5.092  0.7231 -1.0902  0.1159
  493MOL0     H66548   2.889   0.426   5.064 -1.1015  2.2476  0.8636
  493MOL0     H66549   2.864   0.570   4.869  1.1479 -2.6047  0.4825
  493MOL0     H66550   2.846   0.664   5.019  1.6338  2.1044  1.9003
  493MOL0     H66551   3.170   0.859   4.829 -0.5419 -1.9002 -2.1931
  493MOL0     H66552   3.327   0.284   4.876 -3.4585 -1.0777  2.3755
  493MOL0     H66553   3.658   0.432   4.875  0.2658  0.3180 -0.0384
  493MOL0     H66554   3.656   0.262   4.828  0.8236 -1.2463  1.8543
  493MOL0     H66555   3.511   0.370   4.794 -1.8891  0.9035  2.7709
  494MOL0     O66556   1.572   2.565   1.301  0.1770  0.3111  0.2789
  494MOL0     C66557   1.653   2.575   1.393 -1.7371 -0.1971 -0.0601
  494MOL0     O66558   1.631   2.564   1.525 -0.5609 -0.1921 -0.0287
  494MOL0     C66559   1.506   2.537   1.568 -0.0531 -0.8630  0.0811
  494MOL0     C66560   1.443   2.646   1.648 -0.2245  0.2976  1.1447
  494MOL0     C66561   1.310   2.625   1.682  0.3055 -1.7764 -0.2894
  494MOL0     C66562   1.235   2.512   1.645 -0.2527  0.2989  0.3378
  494MOL0     O66563   1.106   2.495   1.684  0.1873 -0.0572  0.1358
  494MOL0     C66564   1.088   2.384   1.773  0.5316 -0.6011  0.2998
  494MOL0     C66565   0.939   2.366   1.804 -0.2835  0.7778 -0.4341
  494MOL0     C66566   0.856   2.334   1.688  0.1965  1.0827  0.5104
  494MOL0     C66567   0.734   2.242   1.736 -0.3311  0.5412  0.3026
  494MOL0     C66568   0.655   2.202   1.617  0.7704 -0.0956 -0.0711
  494MOL0     C66569   0.536   2.098   1.652 -0.3400 -0.0981 -0.3420
  494MOL0     C66570   0.436   2.075   1.536 -0.7737  0.1471  0.2410
  494MOL0     C66571   0.510   2.013   1.418  0.5718  0.8463 -0.8037
  494MOL0     N66572   0.406   1.963   1.327  0.7506  0.4669  0.3582
  494MOL0     C66573   0.326   2.042   1.248 -0.8638  0.7001  0.0206
  494MOL0     C66574   0.269   1.954   1.160  0.7510  0.0326  0.3265
  494MOL0     C66575   0.178   1.980   1.045  0.3364  0.9683  0.1936
  494MOL0     C66576   0.196   1.915   0.911 -0.2517  0.3390 -0.2403
  494MOL0     C66577   0.173   1.767   0.913  0.4138  0.7085  0.4078
  494MOL0     C66578   0.191   1.692   0.777  0.1354  0.5294 -0.7808
  494MOL0     O66579   0.067   1.670   0.714 -1.2225 -0.2501 -0.3905
  494MOL0     C66580   0.054   1.570   0.614  0.2056 -0.4051  0.0913
  494MOL0     C66581  -0.056   1.574   0.533  0.6302  1.1047  0.6066
  494MOL0     C66582  -0.081   1.484   0.421 -0.0644 -0.4021 -0.7280
  494MOL0     C66583   0.003   1.374   0.405  0.3292 -0.0036 -0.2774
  494MOL0     C66584  -0.028   1.264   0.302  0.4900  0.7672  0.3108
  494MOL0     O66585   0.065   1.160   0.290 -0.1760 -0.8202  0.2709
  494MOL0     C66586   0.069   1.077   0.185 -0.0407  0.2590  0.4171
  494MOL0     C66587   0.106   0.948   0.221 -0.0270 -0.3048 -0.8827
  494MOL0     C66588   0.116   0.850   0.124  0.9371  0.6530  0.3555
  494MOL0     C66589   0.088   0.877  -0.014 -0.7645  1.5743  0.3756
  494MOL0     O66590   0.089   0.790  -0.123  0.1028 -0.0087 -0.5763
  494MOL0     C66591   0.197   0.687  -0.119 -0.5407  0.4149 -0.4897
  494MOL0     C66592   0.340   0.747  -0.135  0.0044  0.0595 -0.0961
  494MOL0     C66593   0.438   0.636  -0.150 -0.7716 -0.1645  0.0797
  494MOL0     C66594   0.565   0.680  -0.227  0.2506 -0.9890 -0.1184
  494MOL0     C66595   0.677   0.582  -0.213  1.0156 -0.6181  0.5593
  494MOL0     C66596   0.783   0.609  -0.326 -0.6000  0.0349 -0.0048
  494MOL0     C66597   0.888   0.494  -0.331  0.0224 -0.2837  0.4029
  494MOL0     C66598   0.984   0.514  -0.210  0.2468 -0.1989  0.2167
  494MOL0    Cl66599   1.114   0.622  -0.253  0.0568 -0.2807 -0.0179
  494MOL0     C66600   0.041   1.003  -0.046 -0.3964 -0.2231  0.7472
  494MOL0     C66601   0.042   1.098   0.051  0.8398 -0.4756 -0.1424
  494MOL0     O66602  -0.138   1.269   0.242  0.0720 -0.1718  0.5464
  494MOL0     C66603   0.119   1.366   0.482 -0.3730  0.2470 -0.2228
  494MOL0     C66604   0.143   1.461   0.583 -0.0655  0.0374  0.4387
  494MOL0     N66605   0.308   1.832   1.196 -0.0910  0.4319 -0.6579
  494MOL0     N66606   0.390   1.836   1.289  0.3039 -0.4768 -0.3163
  494MOL0     C66607   1.303   2.410   1.572 -0.4980  1.6789 -0.4959
  494MOL0     C66608   1.437   2.417   1.536 -0.7188 -0.3548 -0.0045
  494MOL0     C66609   1.794   2.601   1.363 -0.2647  0.8908  0.1386
  494MOL0     C66610   1.864   2.686   1.453  0.0548 -0.1012  0.2933
  494MOL0     C66611   1.992   2.726   1.422 -0.4343 -0.0545 -0.0870
  494MOL0     C66612   2.058   2.683   1.318 -0.1832  1.2290  0.6284
  494MOL0     O66613   2.194   2.711   1.305  0.1419 -0.5708  0.0162
  494MOL0     C66614   2.269   2.691   1.181  0.4431  0.0830 -0.9935
  494MOL0     C66615   2.397   2.622   1.216 -0.4882 -0.0823  0.0191
  494MOL0     C66616   2.398   2.469   1.222  0.0793 -0.0652 -0.1782
  494MOL0     C66617   2.388   2.400   1.081 -0.0601 -0.0900  0.1980
  494MOL0     C66618   2.403   2.263   1.120 -0.0174  0.1967  0.7535
  494MOL0     C66619   2.396   2.148   1.131  0.0905  0.2183 -0.6746
  494MOL0     C66620   1.997   2.585   1.232  0.7341 -0.0194 -0.3880
  494MOL0     C66621   1.867   2.542   1.257  0.5032 -0.1720 -0.1632
  494MOL0     C66622   1.803   2.428   1.167  0.0517  0.1124 -0.2407
  494MOL0     H66623   1.494   2.737   1.679  0.9180 -0.8101  2.6677
  494MOL0     H66624   1.251   2.682   1.753  1.1428 -1.0393 -0.1714
  494MOL0     H66625   1.117   2.291   1.721  0.1999 -1.8076  2.1834
  494MOL0     H66626   1.149   2.387   1.864 -0.2937  0.8861  0.8176
  494MOL0     H66627   0.900   2.459   1.847  1.0463  0.8572  0.6476
  494MOL0     H66628   0.928   2.284   1.876 -1.5434 -0.4036 -1.8889
  494MOL0     H66629   0.896   2.280   1.602 -2.3587  1.5128 -1.0636
  494MOL0     H66630   0.824   2.425   1.636 -0.7530 -1.3841 -3.7001
  494MOL0     H66631   0.784   2.151   1.769  2.7748  0.9437 -2.7175
  494MOL0     H66632   0.663   2.287   1.807 -1.6633 -0.2049 -0.5140
  494MOL0     H66633   0.603   2.291   1.579  1.0086 -0.2108 -0.6823
  494MOL0     H66634   0.718   2.159   1.538 -0.4301  2.3405 -2.5307
  494MOL0     H66635   0.577   2.002   1.684 -0.1823  0.5165  1.4027
  494MOL0     H66636   0.470   2.140   1.729  1.5153 -2.2197  2.6010
  494MOL0     H66637   0.391   2.166   1.497 -1.0260 -1.0431 -2.5305
  494MOL0     H66638   0.357   2.012   1.578  0.4937 -2.2599 -0.7678
  494MOL0     H66639   0.585   2.077   1.371  1.4696 -0.2656 -0.9209
  494MOL0     H66640   0.560   1.921   1.449 -1.6451 -0.6438 -1.3743
  494MOL0     H66641   0.319   2.150   1.249 -1.2509  0.6915 -0.8186
  494MOL0     H66642   0.074   1.955   1.066 -0.4154  1.4595 -2.5996
  494MOL0     H66643   0.164   2.088   1.033 -0.8592  1.1121  2.3886
  494MOL0     H66644   0.131   1.957   0.833  2.7487  2.7206 -1.6858
  494MOL0     H66645   0.300   1.929   0.879  0.4090  1.9353  2.3583
  494MOL0     H66646   0.072   1.742   0.947  0.2150  2.7664  1.4608
  494MOL0     H66647   0.242   1.723   0.985  0.6134  2.0950  1.0959
  494MOL0     H66648   0.228   1.595   0.813  1.7330  1.8603  1.4705
  494MOL0     H66649   0.260   1.731   0.701 -1.5398 -0.3298 -2.8351
  494MOL0     H66650  -0.125   1.652   0.566 -3.1655 -1.3552 -0.9041
  494MOL0     H66651  -0.171   1.493   0.360 -0.2615  0.7200 -0.2996
  494MOL0     H66652   0.110   0.914   0.324 -1.8170 -0.5860 -0.8653
  494MOL0     H66653   0.148   0.754   0.162 -1.4322 -0.5739 -0.5155
  494MOL0     H66654   0.195   0.627  -0.027  4.4122  2.6286  1.4506
  494MOL0     H66655   0.174   0.619  -0.201  1.0179 -0.1395 -0.5005
  494MOL0     H66656   0.322   0.799  -0.230 -1.3995 -2.0381 -1.0706
  494MOL0     H66657   0.374   0.810  -0.053 -1.5936 -0.6245  1.1563
  494MOL0     H66658   0.465   0.585  -0.057 -2.0592 -0.2276  0.4413
  494MOL0     H66659   0.400   0.560  -0.219 -0.4652 -0.9488  0.7552
  494MOL0     H66660   0.615   0.773  -0.200  0.8431 -2.0297  2.7578
  494MOL0     H66661   0.536   0.688  -0.332  1.9883 -0.6074 -0.5933
  494MOL0     H66662   0.638   0.480  -0.220  0.3974 -0.5477  2.2667
  494MOL0     H66663   0.727   0.595  -0.116  0.8301  0.0252  0.5759
  494MOL0     H66664   0.744   0.626  -0.427 -0.9941  1.7092  0.3928
  494MOL0     H66665   0.834   0.700  -0.292 -1.0027  0.2196  0.1087
  494MOL0     H66666   0.944   0.500  -0.425  2.3058 -0.4367  1.6840
  494MOL0     H66667   0.849   0.392  -0.334 -0.1960 -0.1923  0.0507
  494MOL0     H66668   0.935   0.568  -0.129 -3.6634  2.3940 -3.4604
  494MOL0     H66669   1.030   0.420  -0.178  3.3270  0.6461 -1.3318
  494MOL0     H66670   0.006   1.031  -0.144 -1.4645 -0.5125  1.0339
  494MOL0     H66671   0.010   1.197   0.018 -0.5532 -1.5942 -2.4042
  494MOL0     H66672   0.196   1.289   0.478  0.5696  1.1745 -0.4011
  494MOL0     H66673   0.234   1.458   0.642  1.4338 -2.1247 -1.8317
  494MOL0     H66674   1.252   2.323   1.533  1.2514 -0.0866  1.0061
  494MOL0     H66675   1.491   2.354   1.466 -2.8609 -1.7106 -0.5013
  494MOL0     H66676   1.830   2.725   1.549  2.4292  0.4573  0.9807
  494MOL0     H66677   2.051   2.778   1.496  0.2184 -1.8775  0.7194
  494MOL0     H66678   2.294   2.788   1.137  3.1133  0.4883  1.1259
  494MOL0     H66679   2.219   2.627   1.107 -0.0980 -0.1715 -0.4124
  494MOL0     H66680   2.442   2.668   1.304 -2.0530  4.0532 -1.1223
  494MOL0     H66681   2.457   2.644   1.127 -1.0985  0.4051 -0.2794
  494MOL0     H66682   2.314   2.431   1.280  0.3936  0.8810  0.9285
  494MOL0     H66683   2.486   2.432   1.276  1.4258 -1.0750 -2.8617
  494MOL0     H66684   2.291   2.417   1.033 -0.2751  1.7477  1.2314
  494MOL0     H66685   2.472   2.425   1.015 -0.6706  1.2141 -0.1003
  494MOL0     H66686   2.371   2.044   1.134  0.3337  0.0836 -2.3056
  494MOL0     H66687   2.051   2.535   1.152  0.8386 -2.1503  0.9289
  494MOL0     H66688   1.749   2.496   1.100  0.0524  1.6710  1.2745
  494MOL0     H66689   1.875   2.365   1.113 -1.5020 -0.5972 -1.5543
  494MOL0     H66690   1.740   2.363   1.228 -0.7148  0.8326 -0.2554
  495MOL0     O66691   8.861   4.916   2.843  0.1177 -0.2730 -0.5683
  495MOL0     C66692   8.914   4.805   2.837 -0.7885  0.4761 -1.3858
  495MOL0     O66693   8.998   4.762   2.738 -0.6347 -0.1167 -0.1208
  495MOL0     C66694   9.036   4.851   2.646 -0.2596 -0.9859 -0.9913
  495MOL0     C66695   8.944   4.933   2.584  0.2031  0.2810  0.1759
  495MOL0     C66696   8.993   5.030   2.491  0.6713  1.3230 -0.3341
  495MOL0     C66697   9.125   5.046   2.462 -0.3483  0.8422  0.0191
  495MOL0     O66698   9.175   5.144   2.381  0.9372 -0.2572 -0.4385
  495MOL0     C66699   9.093   5.191   2.273 -0.2152  0.8334  0.8588
  495MOL0     C66700   9.194   5.281   2.215 -0.2109  0.1200 -0.4385
  495MOL0     C66701   9.304   5.207   2.130 -0.7910 -0.6098  0.0620
  495MOL0     C66702   9.398   5.300   2.057 -1.8507  0.0875  1.2438
  495MOL0     C66703   9.528   5.238   1.983 -0.6731  0.0671 -0.2353
  495MOL0     C66704   9.649   5.221   2.079  0.6370 -0.6055  0.8716
  495MOL0     C66705   9.762   5.170   1.992 -0.4164  0.2503 -1.0240
  495MOL0     C66706   9.901   5.186   2.061 -0.0764  0.3970  0.0109
  495MOL0     N66707   9.994   5.072   2.015 -0.5732 -0.2487 -0.8274
  495MOL0     C66708  10.077   5.072   1.908  0.2159 -0.0162 -0.6804
  495MOL0     C66709  10.166   4.974   1.921 -0.3688  0.3420 -0.4796
  495MOL0     C66710  10.270   4.951   1.818 -1.0029  0.0886 -0.5625
  495MOL0     C66711  10.276   4.812   1.762 -0.2213 -0.3599 -0.1264
  495MOL0     C66712  10.143   4.762   1.696  0.0367 -0.4072 -0.1950
  495MOL0     C66713  10.179   4.633   1.619  0.1536  0.4224 -1.0490
  495MOL0     O66714  10.058   4.583   1.559 -0.6852 -0.0473 -0.3158
  495MOL0     C66715  10.065   4.454   1.503  0.2301  0.1271 -0.2050
  495MOL0     C66716   9.946   4.392   1.465 -0.6092  0.0903  0.5898
  495MOL0     C66717   9.938   4.268   1.390  0.0761  0.0045 -0.2471
  495MOL0     C66718  10.055   4.196   1.381 -0.2011  0.5641  0.0962
  495MOL0     C66719  10.058   4.064   1.316  0.0443  0.2901 -0.1509
  495MOL0     O66720  10.150   3.966   1.355  0.3294  0.2340 -0.2291
  495MOL0     C66721  10.133   3.839   1.300 -0.2451  0.2408 -0.1410
  495MOL0     C66722  10.018   3.779   1.239 -0.3345 -0.3813 -0.2921
  495MOL0     C66723  10.020   3.645   1.196  0.3934 -0.3274  0.6304
  495MOL0     C66724  10.138   3.569   1.216 -0.7196 -0.0694  0.1223
  495MOL0     O66725  10.154   3.442   1.166 -0.0058  0.3788 -0.6671
  495MOL0     C66726  10.081   3.404   1.056 -1.0385 -0.4563  0.2988
  495MOL0     C66727  10.138   3.290   0.979  0.8877  0.7055 -0.1380
  495MOL0     C66728  10.294   3.294   0.941 -0.3719  0.6934  0.5370
  495MOL0     C66729  10.339   3.438   0.919 -0.8333 -0.5970  0.3180
  495MOL0     C66730  10.490   3.445   0.907  0.9432  0.4324 -0.4797
  495MOL0     C66731  10.541   3.562   0.828 -0.9628 -1.2384  0.6891
  495MOL0     C66732  10.692   3.557   0.815 -0.9153  0.0142  0.2345
  495MOL0     C66733  10.731   3.661   0.709  0.5200  0.6770 -1.3409
  495MOL0    Cl66734  10.905   3.684   0.748 -0.1676 -0.1374  0.5606
  495MOL0     C66735  10.250   3.623   1.274 -0.0101  0.3629 -0.3679
  495MOL0     C66736  10.251   3.754   1.316  0.6071  0.7488 -0.8089
  495MOL0     O66737   9.970   4.052   1.234 -0.3331  0.8200  1.3487
  495MOL0     C66738  10.174   4.252   1.423 -0.5172 -0.4009 -0.5135
  495MOL0     C66739  10.179   4.378   1.479  0.2149 -0.6040 -0.8578
  495MOL0     N66740  10.135   4.899   2.032  0.3306 -0.2527 -1.2028
  495MOL0     N66741  10.025   4.955   2.090  0.3206  0.1685 -0.8399
  495MOL0     C66742   9.215   4.957   2.523 -0.3179  0.4921 -0.2932
  495MOL0     C66743   9.170   4.858   2.607  0.2779  0.0298  0.2679
  495MOL0     C66744   8.892   4.711   2.950 -0.6485 -0.1980  0.1266
  495MOL0     C66745   8.969   4.593   2.943  0.6229 -0.0080  1.0041
  495MOL0     C66746   8.965   4.506   3.050 -0.4391  1.1750 -0.5078
  495MOL0     C66747   8.881   4.522   3.164 -0.9363 -0.1206 -0.0075
  495MOL0     O66748   8.853   4.416   3.250  0.1419  0.5143 -0.2432
  495MOL0     C66749   8.718   4.364   3.274 -0.0896 -0.4279 -0.3279
  495MOL0     C66750   8.643   4.288   3.165 -0.3496 -0.3046 -0.1742
  495MOL0     C66751   8.738   4.194   3.092  0.5878 -0.2807 -0.0326
  495MOL0     C66752   8.658   4.116   2.987  0.0921 -0.2876 -0.3968
  495MOL0     C66753   8.562   4.016   3.037  0.3678 -0.4705 -1.0586
  495MOL0     C66754   8.485   3.932   3.079  0.5562  0.7459 -0.0712
  495MOL0     C66755   8.803   4.632   3.161  0.2177 -0.0326  0.3364
  495MOL0     C66756   8.792   4.718   3.054 -0.6418  0.2823  0.3096
  495MOL0     C66757   8.684   4.812   3.060  0.1734 -0.4633 -0.6878
  495MOL0     H66758   8.838   4.938   2.609  0.8644  2.2205  3.1682
  495MOL0     H66759   8.924   5.105   2.453 -0.7577  0.7591  1.0484
  495MOL0     H66760   9.066   5.124   2.190  2.3371  1.3863 -0.5103
  495MOL0     H66761   9.003   5.237   2.315 -0.7522 -1.1472  2.0171
  495MOL0     H66762   9.238   5.353   2.284  1.1308 -0.2839 -0.8294
  495MOL0     H66763   9.138   5.342   2.143  0.5663  1.9377  0.4459
  495MOL0     H66764   9.248   5.165   2.046  0.8501  2.4961 -2.8106
  495MOL0     H66765   9.362   5.134   2.188 -0.3989 -2.0892 -2.0728
  495MOL0     H66766   9.336   5.354   1.984 -0.6821 -0.5854 -0.3144
  495MOL0     H66767   9.441   5.375   2.125  3.9932  1.6746 -3.3248
  495MOL0     H66768   9.516   5.137   1.944 -0.3498 -0.9044  2.0088
  495MOL0     H66769   9.557   5.312   1.908  1.0937  1.7264  1.9470
  495MOL0     H66770   9.676   5.321   2.116 -1.5273  1.9274 -3.6180
  495MOL0     H66771   9.618   5.154   2.160 -0.2306 -0.0667  1.0001
  495MOL0     H66772   9.757   5.211   1.890  0.2686  0.2587 -1.0559
  495MOL0     H66773   9.732   5.066   1.978 -0.2345 -0.3906  2.5478
  495MOL0     H66774   9.936   5.288   2.048 -1.8583  0.9991 -0.3320
  495MOL0     H66775   9.887   5.166   2.168 -0.8723 -2.9013 -0.5838
  495MOL0     H66776  10.090   5.141   1.825  1.0012 -1.7383 -2.0503
  495MOL0     H66777  10.257   5.035   1.750 -2.5863  0.6806  0.4018
  495MOL0     H66778  10.358   4.968   1.881 -1.3920 -0.6870  0.2172
  495MOL0     H66779  10.356   4.800   1.689 -0.3032  1.2022 -0.5061
  495MOL0     H66780  10.297   4.746   1.847  3.9873 -1.8845 -2.1000
  495MOL0     H66781  10.114   4.842   1.628 -3.0980  0.0318  1.4725
  495MOL0     H66782  10.060   4.747   1.767 -1.9649 -0.2863 -2.3793
  495MOL0     H66783  10.217   4.555   1.685 -1.3052 -1.0858 -1.9146
  495MOL0     H66784  10.246   4.660   1.537  0.3886 -0.5863 -1.1916
  495MOL0     H66785   9.849   4.436   1.488 -1.1806 -0.3747 -0.8061
  495MOL0     H66786   9.846   4.220   1.358  1.5964 -2.3084 -1.3870
  495MOL0     H66787   9.922   3.828   1.224  1.2487  3.0100 -0.2379
  495MOL0     H66788   9.935   3.593   1.152  1.1413 -0.9201 -0.1332
  495MOL0     H66789   9.981   3.384   1.095 -2.0654 -0.5419 -2.1668
  495MOL0     H66790  10.078   3.489   0.987 -2.4608 -0.4317  0.3642
  495MOL0     H66791  10.116   3.200   1.038  0.5543  1.2592  0.5978
  495MOL0     H66792  10.091   3.289   0.881  1.3708  1.7535 -0.3996
  495MOL0     H66793  10.343   3.254   1.031 -1.2863 -2.0178 -0.0721
  495MOL0     H66794  10.316   3.219   0.865  0.2885 -0.0322  1.4163
  495MOL0     H66795  10.306   3.506   0.998 -2.2198  0.1470 -0.8533
  495MOL0     H66796  10.299   3.474   0.824  3.8235  0.5685 -1.4859
  495MOL0     H66797  10.521   3.357   0.849  0.0078  2.5047 -4.4812
  495MOL0     H66798  10.544   3.434   1.002  0.8318 -4.0194 -0.6943
  495MOL0     H66799  10.494   3.558   0.730 -0.9602 -1.2408  0.6877
  495MOL0     H66800  10.512   3.656   0.876  1.3373 -0.0283 -0.1394
  495MOL0     H66801  10.733   3.456   0.803 -1.4703 -0.5083  2.3886
  495MOL0     H66802  10.739   3.576   0.911  3.4404 -1.6910 -1.3207
  495MOL0     H66803  10.713   3.608   0.615 -0.3893 -1.4986 -0.0079
  495MOL0     H66804  10.683   3.758   0.726  0.5612  0.4012  0.6578
  495MOL0     H66805  10.345   3.571   1.282  1.1868  2.4003 -0.8162
  495MOL0     H66806  10.340   3.796   1.362  0.4765 -0.8706  1.0208
  495MOL0     H66807  10.267   4.197   1.414  0.1928  0.8503 -1.2309
  495MOL0     H66808  10.276   4.409   1.516 -0.2593  0.3032 -0.3337
  495MOL0     H66809   9.323   4.961   2.514  0.2082 -2.4358  2.6938
  495MOL0     H66810   9.245   4.795   2.655  1.2408 -0.7546 -2.1067
  495MOL0     H66811   9.038   4.581   2.860 -1.3805 -0.4376 -0.7061
  495MOL0     H66812   9.033   4.422   3.050  0.5318  1.9491 -1.3039
  495MOL0     H66813   8.655   4.446   3.311  0.3958  0.0251 -0.5005
  495MOL0     H66814   8.709   4.293   3.357  0.1277  1.3267  1.2759
  495MOL0     H66815   8.592   4.359   3.099 -3.2538 -2.4796 -0.4732
  495MOL0     H66816   8.560   4.233   3.209 -0.0356 -1.1675 -0.6445
  495MOL0     H66817   8.774   4.122   3.166 -0.5811 -2.4287 -1.4346
  495MOL0     H66818   8.817   4.243   3.035 -2.2491  2.3675 -2.0173
  495MOL0     H66819   8.598   4.180   2.923 -2.0227 -0.5371  1.2187
  495MOL0     H66820   8.731   4.063   2.925 -0.5242  0.3370 -1.6827
  495MOL0     H66821   8.422   3.851   3.111 -1.2409  2.7026  1.6513
  495MOL0     H66822   8.732   4.651   3.241 -0.1076  1.8821 -0.3383
  495MOL0     H66823   8.600   4.759   3.105 -0.8752 -0.4454 -2.5298
  495MOL0     H66824   8.711   4.905   3.111 -1.3255 -1.0614  1.3135
  495MOL0     H66825   8.644   4.846   2.964  0.5059  2.0740 -0.0091
  496MOL0     O66826   3.286   8.123   9.855 -0.1123  0.0362 -0.0424
  496MOL0     C66827   3.381   8.186   9.910  0.5309 -0.2640 -0.2084
  496MOL0     O66828   3.364   8.316   9.968  0.6527  0.2529 -0.5772
  496MOL0     C66829   3.237   8.364   9.989  0.5711 -1.0316  0.9058
  496MOL0     C66830   3.188   8.381  10.120 -0.2625 -0.6439 -0.4747
  496MOL0     C66831   3.073   8.455  10.144  0.2862  1.1147 -0.3562
  496MOL0     C66832   2.997   8.506  10.040  0.0799  0.7342  0.9013
  496MOL0     O66833   2.872   8.558  10.072 -0.4828 -0.0587 -0.0171
  496MOL0     C66834   2.851   8.695  10.024  0.3264  0.9187 -0.3566
  496MOL0     C66835   2.947   8.809  10.083 -0.7306  0.6655 -0.7283
  496MOL0     C66836   2.914   8.859  10.226 -0.1646  0.4139 -0.0402
  496MOL0     C66837   2.787   8.944  10.227  0.3853  0.8147 -0.0426
  496MOL0     C66838   2.727   8.939  10.366  0.1982  0.4494  0.5800
  496MOL0     C66839   2.616   9.050  10.400 -0.2743 -0.3731  0.2656
  496MOL0     C66840   2.491   9.051  10.305  0.0715  0.3414 -0.3965
  496MOL0     C66841   2.506   9.149  10.186 -0.2413  0.6569  0.3917
  496MOL0     N66842   2.542   9.088  10.056 -0.7870  0.4423 -0.2679
  496MOL0     C66843   2.620   9.142   9.956  0.3242 -1.2083 -0.1074
  496MOL0     C66844   2.627   9.042   9.861  0.4487 -0.7122  0.4580
  496MOL0     C66845   2.713   9.053   9.742 -0.0540 -0.0404 -0.0247
  496MOL0     C66846   2.632   9.127   9.641  0.0671  0.2691  0.2265
  496MOL0     C66847   2.538   9.028   9.565  0.5390 -0.7299 -0.6636
  496MOL0     C66848   2.513   9.077   9.421  0.1649 -0.3189 -1.0972
  496MOL0     O66849   2.436   9.196   9.422  0.3980 -0.3774 -0.6559
  496MOL0     C66850   2.292   9.195   9.431  0.3771  0.0628 -0.0301
  496MOL0     C66851   2.215   9.315   9.429 -0.0857  0.1207 -0.0240
  496MOL0     C66852   2.071   9.310   9.427  1.2427  0.7095  0.2810
  496MOL0     C66853   2.003   9.191   9.439 -0.7483 -0.2114 -0.9218
  496MOL0     C66854   1.848   9.200   9.456 -1.1070 -0.2125  0.7253
  496MOL0     O66855   1.794   9.079   9.502  0.1756 -0.4002  0.7286
  496MOL0     C66856   1.657   9.060   9.521  0.8903 -0.4197 -0.4270
  496MOL0     C66857   1.623   8.926   9.551 -0.3495 -0.3090 -0.0789
  496MOL0     C66858   1.490   8.900   9.589 -0.1046 -0.3905  0.3176
  496MOL0     C66859   1.393   8.990   9.567  0.9890  0.2566 -0.4411
  496MOL0     O66860   1.268   8.936   9.589 -0.6022  0.0637  0.5156
  496MOL0     C66861   1.160   9.022   9.615  0.9108 -0.8509 -1.0125
  496MOL0     C66862   1.034   8.942   9.656 -0.4083  0.1284 -0.0949
  496MOL0     C66863   0.897   9.018   9.646  0.5726  0.0483 -0.5175
  496MOL0     C66864   0.901   9.149   9.708  1.3479 -0.7131 -0.6561
  496MOL0     C66865   0.753   9.203   9.734  0.2972 -0.1318 -0.4919
  496MOL0     C66866   0.654   9.116   9.823 -0.7568 -0.0630 -0.2755
  496MOL0     C66867   0.709   9.120   9.961 -0.3608  0.3902 -0.0409
  496MOL0     C66868   0.612   9.069  10.061  0.2910 -0.3360  0.3422
  496MOL0    Cl66869   0.646   8.896  10.088  0.0758  0.2407 -0.5291
  496MOL0     C66870   1.417   9.116   9.536  0.3146 -0.1645 -0.9479
  496MOL0     C66871   1.551   9.153   9.506 -0.5447 -0.1997 -0.7492
  496MOL0     O66872   1.785   9.301   9.416  0.3645 -0.4566 -0.1039
  496MOL0     C66873   2.074   9.073   9.456  0.9488  0.4667 -0.1354
  496MOL0     C66874   2.220   9.070   9.447 -0.0799 -0.4837 -1.2708
  496MOL0     N66875   2.533   8.946   9.899 -0.2138  0.4728 -0.1184
  496MOL0     N66876   2.484   8.966  10.024 -0.0530 -0.2213  0.6050
  496MOL0     C66877   3.038   8.482   9.909 -1.1381 -0.0152  0.5509
  496MOL0     C66878   3.167   8.419   9.879  0.3795 -0.1409  0.0093
  496MOL0     C66879   3.514   8.137   9.890 -0.3012  0.2103  0.1339
  496MOL0     C66880   3.584   8.151   9.771 -1.0461  0.6257  0.4140
  496MOL0     C66881   3.718   8.105   9.758  0.4256 -0.0201 -0.2245
  496MOL0     C66882   3.781   8.032   9.857  0.6609  0.9834  0.3169
  496MOL0     O66883   3.915   8.000   9.835  0.4733  0.7436 -0.6326
  496MOL0     C66884   3.975   7.893   9.912  0.4337  0.3239 -0.1514
  496MOL0     C66885   4.117   7.881   9.861  0.0249  0.0437 -0.1996
  496MOL0     C66886   4.200   7.780   9.947  0.2668  0.3271 -0.3675
  496MOL0     C66887   4.146   7.633   9.941  0.3433  0.0005  0.8281
  496MOL0     C66888   4.258   7.539   9.932 -0.3141 -0.5922  0.6517
  496MOL0     C66889   4.336   7.443   9.914 -0.9232 -0.9880  0.7853
  496MOL0     C66890   3.714   8.002   9.978  0.6005  0.4369  0.9902
  496MOL0     C66891   3.581   8.062   9.991  0.2801 -0.5659  0.7437
  496MOL0     C66892   3.527   8.033  10.136 -0.7164 -0.7494 -0.8750
  496MOL0     H66893   3.242   8.356  10.210  0.8207 -1.8214 -1.4027
  496MOL0     H66894   3.046   8.474  10.247 -1.3794 -1.8632 -0.1405
  496MOL0     H66895   2.873   8.695   9.917 -0.3527  1.7352 -0.5063
  496MOL0     H66896   2.751   8.735  10.041  0.1095 -0.1031  0.9182
  496MOL0     H66897   2.955   8.893  10.014 -1.3619 -0.2239 -1.9090
  496MOL0     H66898   3.047   8.765  10.090 -1.8806 -1.8853  1.4504
  496MOL0     H66899   2.998   8.923  10.255 -0.8942  2.1867 -1.5765
  496MOL0     H66900   2.909   8.778  10.299 -0.5189  0.8054  0.3810
  496MOL0     H66901   2.815   9.048  10.209 -0.6454  1.2066  0.5173
  496MOL0     H66902   2.717   8.894  10.159 -1.7423  2.3397  0.9457
  496MOL0     H66903   2.658   8.855  10.358 -1.0468  1.4833 -0.0543
  496MOL0     H66904   2.809   8.926  10.437 -0.2378  0.1356  1.0387
  496MOL0     H66905   2.572   9.019  10.495  0.1275  2.9912  1.7032
  496MOL0     H66906   2.665   9.147  10.413  0.8772 -0.7320 -1.1547
  496MOL0     H66907   2.404   9.081  10.364 -1.1442 -3.5706  0.0942
  496MOL0     H66908   2.469   8.949  10.271  1.4199  0.3027 -1.2341
  496MOL0     H66909   2.412   9.204  10.175 -4.0418 -4.7440  2.1979
  496MOL0     H66910   2.577   9.228  10.213 -2.6053  3.9926 -2.2224
  496MOL0     H66911   2.680   9.232   9.959  1.2638 -1.8245  0.0216
  496MOL0     H66912   2.809   9.095   9.770  1.0656 -2.3576 -0.1094
  496MOL0     H66913   2.732   8.948   9.715 -1.0460 -0.5623  1.1951
  496MOL0     H66914   2.571   9.208   9.683 -0.5258 -0.5793  1.0274
  496MOL0     H66915   2.700   9.163   9.564 -0.0701 -1.5130 -0.7858
  496MOL0     H66916   2.442   9.022   9.618 -0.3083  2.8226 -1.4922
  496MOL0     H66917   2.576   8.926   9.568  1.1703 -0.5028 -0.7307
  496MOL0     H66918   2.451   9.006   9.365 -0.5448 -0.2655 -0.4020
  496MOL0     H66919   2.603   9.090   9.361  1.0187  1.2419  0.4489
  496MOL0     H66920   2.264   9.410   9.410  2.8048 -0.4436  3.5377
  496MOL0     H66921   2.016   9.400   9.403 -0.9761 -0.3191  1.2405
  496MOL0     H66922   1.702   8.852   9.558  1.3644  1.4920  0.6796
  496MOL0     H66923   1.453   8.798   9.601  0.0548 -0.4319  0.4529
  496MOL0     H66924   1.187   9.086   9.699 -1.3895 -1.4693  0.2882
  496MOL0     H66925   1.131   9.072   9.521  1.6361  0.6869 -0.4554
  496MOL0     H66926   1.027   8.851   9.596 -1.3747 -0.3204  0.6538
  496MOL0     H66927   1.040   8.904   9.759 -1.6834 -1.3892 -0.5401
  496MOL0     H66928   0.872   9.032   9.541 -0.8139  0.0868 -0.2071
  496MOL0     H66929   0.825   8.949   9.693  2.6460 -3.5322 -2.2161
  496MOL0     H66930   0.961   9.219   9.649 -0.2702 -0.4495 -2.0806
  496MOL0     H66931   0.953   9.138   9.804 -0.4961  2.2687  0.8317
  496MOL0     H66932   0.699   9.204   9.638  0.1090 -0.5473 -0.3942
  496MOL0     H66933   0.755   9.308   9.765  3.3482 -0.9418  2.5788
  496MOL0     H66934   0.555   9.161   9.827 -0.9979 -0.6157  2.7934
  496MOL0     H66935   0.639   9.012   9.792 -0.4882 -0.2665  0.2492
  496MOL0     H66936   0.732   9.226   9.981 -1.3489  0.7912 -0.9719
  496MOL0     H66937   0.805   9.068   9.961 -0.3307  0.2786 -3.0669
  496MOL0     H66938   0.625   9.126  10.153  2.9457  0.8919 -0.7114
  496MOL0     H66939   0.509   9.071  10.024 -0.4040  1.5551  2.2001
  496MOL0     H66940   1.343   9.195   9.524 -0.7114 -1.1507 -1.2838
  496MOL0     H66941   1.574   9.253   9.471  0.3460  0.4634  1.5452
  496MOL0     H66942   2.020   8.980   9.476  2.2825 -0.2426  0.2687
  496MOL0     H66943   2.266   8.976   9.475 -2.5139 -0.7618  2.5447
  496MOL0     H66944   2.991   8.522   9.819  0.0730  1.3021  0.4603
  496MOL0     H66945   3.209   8.407   9.780  1.5329 -2.4322  0.7337
  496MOL0     H66946   3.547   8.200   9.681 -1.1506  1.2524  0.7893
  496MOL0     H66947   3.781   8.127   9.673 -0.4707  3.2880 -0.1585
  496MOL0     H66948   3.923   7.800   9.887 -1.2492  1.9081 -3.0440
  496MOL0     H66949   3.968   7.909  10.020 -2.1464 -2.1671  0.1723
  496MOL0     H66950   4.164   7.979   9.846  1.1647 -0.8118 -2.6568
  496MOL0     H66951   4.116   7.846   9.758 -0.0983 -0.5790  0.0121
  496MOL0     H66952   4.200   7.812  10.051  2.3767  0.4074 -0.3445
  496MOL0     H66953   4.303   7.776   9.910 -0.2613  0.5641 -1.9483
  496MOL0     H66954   4.091   7.602  10.030 -1.2629  0.1585 -0.0715
  496MOL0     H66955   4.080   7.627   9.854 -2.5517  1.7720  2.7560
  496MOL0     H66956   4.404   7.363   9.894  2.3266  1.0945  2.5657
  496MOL0     H66957   3.759   7.949  10.061 -0.1828 -1.8005  0.0734
  496MOL0     H66958   3.570   8.108  10.203 -4.7468  0.4756  0.6197
  496MOL0     H66959   3.419   8.044  10.147 -0.5645  0.6630 -0.5841
  496MOL0     H66960   3.560   7.938  10.178 -1.8290 -0.9947 -0.5323
  497MOL0     O66961   7.209   7.668   1.944 -0.3246 -0.5374 -0.4107
  497MOL0     C66962   7.154   7.577   2.001  1.2195  0.5410  0.0587
  497MOL0     O66963   7.174   7.539   2.136 -0.9185 -0.2285  0.5157
  497MOL0     C66964   7.250   7.625   2.207  0.6332 -0.0387 -0.2108
  497MOL0     C66965   7.380   7.589   2.226  0.8082 -0.0062 -0.7128
  497MOL0     C66966   7.464   7.677   2.297 -0.9942 -1.9571 -1.0974
  497MOL0     C66967   7.418   7.819   2.316 -0.3262 -0.0912 -1.1470
  497MOL0     O66968   7.489   7.913   2.384 -0.5149  0.4210  0.0922
  497MOL0     C66969   7.634   7.910   2.361  0.1642  0.0229 -0.5530
  497MOL0     C66970   7.705   8.040   2.399 -0.4323 -0.0258  0.4110
  497MOL0     C66971   7.690   8.150   2.299 -0.1550  0.5115 -0.5577
  497MOL0     C66972   7.805   8.248   2.298  0.0693  0.0822 -0.3575
  497MOL0     C66973   7.793   8.346   2.175  0.1066  0.0605  0.2310
  497MOL0     C66974   7.915   8.437   2.151 -0.3165  0.1992 -0.5558
  497MOL0     C66975   7.903   8.523   2.028  0.5319 -0.8901 -0.2484
  497MOL0     C66976   7.789   8.628   2.040 -0.1084 -1.0294 -0.3884
  497MOL0     N66977   7.802   8.740   1.947  0.5145  0.4937  0.3931
  497MOL0     C66978   7.798   8.712   1.813  0.9079 -0.5275  0.1225
  497MOL0     C66979   7.779   8.835   1.760  0.6495 -0.3383  0.4202
  497MOL0     C66980   7.739   8.858   1.618  0.7666  0.4980  0.6443
  497MOL0     C66981   7.723   9.003   1.571  0.1521 -0.2048 -0.2474
  497MOL0     C66982   7.669   9.017   1.426  1.0951  0.5738 -0.1598
  497MOL0     C66983   7.753   8.960   1.317 -0.0824 -0.1204 -1.4237
  497MOL0     O66984   7.866   9.044   1.298 -0.2607  0.9358  0.5986
  497MOL0     C66985   7.976   8.981   1.244  0.1991  0.0818  0.1736
  497MOL0     C66986   8.106   9.019   1.267 -0.2143  0.3950 -0.4761
  497MOL0     C66987   8.218   8.952   1.224 -0.3823  0.0876  0.9248
  497MOL0     C66988   8.208   8.836   1.150  0.0619  0.4584  0.7396
  497MOL0     C66989   8.323   8.755   1.097 -0.2283  0.0732  0.6706
  497MOL0     O66990   8.439   8.779   1.161  0.1118  0.0870 -0.5822
  497MOL0     C66991   8.554   8.709   1.143 -0.8410  0.3742  0.5133
  497MOL0     C66992   8.638   8.692   1.251 -0.0330  0.2716  0.8188
  497MOL0     C66993   8.765   8.648   1.238 -0.8479  0.7053 -0.7450
  497MOL0     C66994   8.816   8.598   1.122 -0.3653 -0.2288  0.6915
  497MOL0     O66995   8.949   8.557   1.112  0.3757 -0.4361  0.7154
  497MOL0     C66996   9.051   8.621   1.188 -0.8929  0.3262  0.0287
  497MOL0     C66997   9.087   8.538   1.310 -0.3822 -0.1417 -0.4901
  497MOL0     C66998   9.183   8.612   1.404 -0.0746 -0.0129  0.8387
  497MOL0     C66999   9.145   8.600   1.554  0.2966 -0.6997 -0.1869
  497MOL0     C67000   9.229   8.693   1.653 -0.3533 -0.3425 -0.0328
  497MOL0     C67001   9.381   8.650   1.650 -0.1937  0.0442 -0.0687
  497MOL0     C67002   9.468   8.698   1.767 -0.3981  0.4431  0.0783
  497MOL0     C67003   9.592   8.615   1.790  0.5374 -1.0885  0.7600
  497MOL0    Cl67004   9.680   8.565   1.650  0.2065  0.2702 -0.3984
  497MOL0     C67005   8.729   8.601   1.013 -0.8058  0.3657 -0.3430
  497MOL0     C67006   8.601   8.658   1.022 -0.4829  0.0989 -0.4571
  497MOL0     O67007   8.308   8.661   1.015  0.6471  0.4283 -0.3250
  497MOL0     C67008   8.077   8.797   1.112 -0.1497 -0.1747 -0.8660
  497MOL0     C67009   7.961   8.867   1.159 -0.3164 -0.3648  0.0648
  497MOL0     N67010   7.781   8.927   1.863  0.6452  0.0458 -0.9571
  497MOL0     N67011   7.799   8.873   1.973 -0.1497 -0.4144  0.2611
  497MOL0     C67012   7.283   7.843   2.292 -0.0898  0.5378  0.6057
  497MOL0     C67013   7.204   7.751   2.231 -0.4987 -0.7666 -0.0946
  497MOL0     C67014   7.062   7.483   1.920  0.6296  0.7878 -0.0449
  497MOL0     C67015   6.955   7.424   1.985 -0.0582  0.4986  0.7759
  497MOL0     C67016   6.852   7.348   1.924  0.2302 -0.7354  0.5688
  497MOL0     C67017   6.852   7.342   1.784  0.1378 -0.3861  0.2399
  497MOL0     O67018   6.759   7.270   1.722  0.4916  0.0786 -0.8457
  497MOL0     C67019   6.757   7.237   1.586  0.0472 -0.4889  0.0777
  497MOL0     C67020   6.603   7.207   1.553 -0.1934 -0.7890  0.3566
  497MOL0     C67021   6.546   7.092   1.634  0.4633  0.5209  0.2998
  497MOL0     C67022   6.398   7.065   1.600 -0.4377  0.6684 -0.4502
  497MOL0     C67023   6.349   6.936   1.647 -0.6518  0.0016 -0.0126
  497MOL0     C67024   6.330   6.826   1.699  0.1935  0.0918 -0.3112
  497MOL0     C67025   6.960   7.398   1.715 -0.6958  0.2972 -0.3639
  497MOL0     C67026   7.065   7.469   1.779  0.0834 -0.2646  0.0636
  497MOL0     C67027   7.169   7.526   1.690 -0.1531  0.1079 -0.6989
  497MOL0     H67028   7.408   7.485   2.213 -0.0323 -0.0419 -2.7715
  497MOL0     H67029   7.563   7.653   2.334 -1.2137  1.1008  2.0705
  497MOL0     H67030   7.680   7.829   2.419  1.8639  0.4302 -1.2687
  497MOL0     H67031   7.660   7.890   2.257  2.0679 -1.9114  0.2125
  497MOL0     H67032   7.810   8.009   2.398 -0.4662 -0.1370  0.3174
  497MOL0     H67033   7.685   8.084   2.497 -0.5724  1.1922 -0.1452
  497MOL0     H67034   7.605   8.209   2.337  0.7104  0.4535  1.6511
  497MOL0     H67035   7.678   8.111   2.198  0.9048 -1.8264  0.1388
  497MOL0     H67036   7.813   8.313   2.386 -3.7999 -0.6997  0.7531
  497MOL0     H67037   7.902   8.197   2.290  2.0143  3.4508  0.1126
  497MOL0     H67038   7.775   8.293   2.081 -1.7814  3.5071 -1.5767
  497MOL0     H67039   7.710   8.411   2.201 -0.3622  0.3644 -1.8287
  497MOL0     H67040   7.928   8.502   2.237  0.1590  0.1047 -0.5578
  497MOL0     H67041   8.004   8.374   2.145 -1.4519 -1.4664 -0.6309
  497MOL0     H67042   7.898   8.465   1.935 -2.9430  2.3384 -2.3981
  497MOL0     H67043   7.990   8.586   2.006  0.3025 -0.8596 -1.1045
  497MOL0     H67044   7.697   8.571   2.024 -1.8039  1.1592  1.0584
  497MOL0     H67045   7.783   8.662   2.143 -3.6068  1.0026 -1.1124
  497MOL0     H67046   7.810   8.619   1.758  4.4936  0.5448 -1.2196
  497MOL0     H67047   7.797   8.790   1.555 -1.1920 -1.9523  1.3424
  497MOL0     H67048   7.638   8.817   1.608  1.3446 -1.5092  2.2799
  497MOL0     H67049   7.648   9.037   1.642 -1.5220 -3.2954 -0.3487
  497MOL0     H67050   7.821   9.049   1.585 -0.1557 -0.3899  3.5727
  497MOL0     H67051   7.652   9.123   1.404 -1.2201  0.1210 -0.8257
  497MOL0     H67052   7.567   8.980   1.432  0.1908  2.8958  0.0114
  497MOL0     H67053   7.690   8.943   1.229 -2.7322 -2.8014  0.7753
  497MOL0     H67054   7.784   8.863   1.357  2.0525  1.2155  0.3813
  497MOL0     H67055   8.125   9.105   1.330  0.9731  0.3696 -0.7825
  497MOL0     H67056   8.316   8.988   1.251 -0.8435  0.1057  2.7022
  497MOL0     H67057   8.606   8.730   1.348  0.8216  1.3609  0.6972
  497MOL0     H67058   8.814   8.648   1.335 -0.0321  0.6039 -1.1501
  497MOL0     H67059   9.147   8.633   1.137 -1.8651 -0.7472 -2.1542
  497MOL0     H67060   9.022   8.722   1.221  0.2362  0.1052  1.8742
  497MOL0     H67061   8.997   8.511   1.366  0.3757 -2.9115 -0.4363
  497MOL0     H67062   9.135   8.444   1.280 -0.4202 -0.7390  1.2237
  497MOL0     H67063   9.287   8.586   1.385  0.0165  1.3034 -0.6645
  497MOL0     H67064   9.185   8.717   1.375 -0.3428 -1.1548 -4.0575
  497MOL0     H67065   9.144   8.493   1.577 -0.9239 -0.8081 -0.6154
  497MOL0     H67066   9.041   8.636   1.561  0.7867  0.6864  0.2225
  497MOL0     H67067   9.187   8.672   1.751 -0.6501 -0.9363 -0.2825
  497MOL0     H67068   9.223   8.797   1.620 -1.7701 -0.9870 -1.9841
  497MOL0     H67069   9.374   8.540   1.652 -5.0836  0.1803  1.1687
  497MOL0     H67070   9.428   8.675   1.554 -1.4159  0.1088 -0.6727
  497MOL0     H67071   9.405   8.692   1.856 -3.7223  2.9199 -1.8769
  497MOL0     H67072   9.492   8.803   1.747  0.4222  0.8591  2.8529
  497MOL0     H67073   9.653   8.675   1.858 -2.1347  1.2050  1.3345
  497MOL0     H67074   9.556   8.528   1.846 -4.1647  0.5695  0.8341
  497MOL0     H67075   8.769   8.559   0.922  1.2701 -0.0016  0.6720
  497MOL0     H67076   8.556   8.652   0.923 -0.0937  3.2767 -0.9171
  497MOL0     H67077   8.059   8.721   1.037 -0.0751 -0.8098 -0.2503
  497MOL0     H67078   7.863   8.834   1.124 -0.3457 -0.3527  0.1350
  497MOL0     H67079   7.239   7.940   2.313 -0.2801  0.6195 -0.1327
  497MOL0     H67080   7.106   7.788   2.203 -0.5296 -0.1313  0.8171
  497MOL0     H67081   6.948   7.431   2.093 -4.0465  1.3359  0.5995
  497MOL0     H67082   6.768   7.316   1.986 -1.3119  1.2852 -0.3405
  497MOL0     H67083   6.811   7.143   1.576 -1.1185 -1.1688  0.0147
  497MOL0     H67084   6.794   7.316   1.521 -0.5487 -1.1417 -1.0831
  497MOL0     H67085   6.612   7.185   1.446  1.5853  0.4215  0.2077
  497MOL0     H67086   6.538   7.294   1.568  0.8466  0.5398 -2.2210
  497MOL0     H67087   6.559   7.120   1.739  2.2063  0.0074  0.2482
  497MOL0     H67088   6.605   7.003   1.611 -1.3926 -0.9118  0.7567
  497MOL0     H67089   6.334   7.146   1.637 -0.6720  0.7179 -0.9487
  497MOL0     H67090   6.381   7.063   1.492  1.0141 -1.5779 -0.6739
  497MOL0     H67091   6.327   6.728   1.742 -3.3651 -0.2782 -1.0808
  497MOL0     H67092   6.973   7.382   1.608  1.0878  1.7299 -0.4035
  497MOL0     H67093   7.211   7.622   1.722  1.7861 -0.1116 -2.3502
  497MOL0     H67094   7.246   7.449   1.674 -2.8803 -2.1383 -4.8240
  497MOL0     H67095   7.134   7.551   1.590  2.2273 -0.4870 -1.7713
  498MOL0     O67096  10.930   7.933   6.251  0.1701 -0.0844 -0.1129
  498MOL0     C67097  10.940   7.882   6.137  0.0920 -0.2434  0.2695
  498MOL0     O67098  11.045   7.824   6.083 -0.5107 -0.3205 -0.6486
  498MOL0     C67099  11.156   7.806   6.167  0.0755 -0.3337 -0.0762
  498MOL0     C67100  11.166   7.739   6.295  0.0941 -0.5910  0.8582
  498MOL0     C67101  11.284   7.752   6.372 -0.1391  0.2088  0.4124
  498MOL0     C67102  11.388   7.843   6.336 -0.7638 -0.1768 -0.1415
  498MOL0     O67103  11.511   7.859   6.397 -0.3212  0.0003 -0.3823
  498MOL0     C67104  11.498   7.856   6.541 -0.0057 -0.2877 -0.8073
  498MOL0     C67105  11.637   7.868   6.597  0.2592  0.4129 -0.7273
  498MOL0     C67106  11.727   7.760   6.547 -0.6657  0.4637  0.8004
  498MOL0     C67107  11.828   7.727   6.651 -0.5218  0.3308 -0.9597
  498MOL0     C67108  11.942   7.637   6.607 -0.1380  0.8079  0.4658
  498MOL0     C67109  12.055   7.635   6.712 -0.0284  0.5370  0.4459
  498MOL0     C67110  12.150   7.535   6.668  0.4642  1.1855 -0.1601
  498MOL0     C67111  12.270   7.519   6.745 -0.7011  0.2661  1.0694
  498MOL0     N67112  12.375   7.600   6.688 -0.1732  0.0644 -0.5948
  498MOL0     C67113  12.429   7.711   6.751  0.2269 -0.3344 -0.8548
  498MOL0     C67114  12.522   7.762   6.665  0.0847  0.2053  0.1346
  498MOL0     C67115  12.612   7.878   6.676 -0.5775 -0.5712 -0.2502
  498MOL0     C67116  12.699   7.862   6.800 -0.4043 -0.0607  0.3136
  498MOL0     C67117  12.823   7.779   6.766 -0.0429  0.1999 -0.4387
  498MOL0     C67118  12.917   7.761   6.885 -0.9024  0.3996 -0.5673
  498MOL0     O67119  13.010   7.654   6.854  0.3431  0.2075  0.3629
  498MOL0     C67120  13.084   7.588   6.945  0.4811 -0.2743 -0.1226
  498MOL0     C67121  13.072   7.603   7.083 -0.2561  0.2185 -0.3979
  498MOL0     C67122  13.139   7.527   7.177  0.3736 -0.8386  0.5899
  498MOL0     C67123  13.221   7.424   7.133 -1.1761  0.3028  1.1815
  498MOL0     C67124  13.291   7.333   7.236 -0.7262 -0.3006  0.2617
  498MOL0     O67125  13.371   7.224   7.181 -0.0735 -0.4713  0.0689
  498MOL0     C67126  13.469   7.161   7.249  0.1915  0.7647 -0.1544
  498MOL0     C67127  13.490   7.027   7.233  0.1396 -0.3149  0.5471
  498MOL0     C67128  13.597   6.953   7.290  0.2115 -0.6286  0.3231
  498MOL0     C67129  13.667   7.016   7.396 -1.0141 -1.5964 -0.2019
  498MOL0     O67130  13.768   6.949   7.467 -0.0758 -0.2663 -0.0629
  498MOL0     C67131  13.895   6.965   7.398  0.0523 -0.7422 -0.4153
  498MOL0     C67132  14.003   6.877   7.461  1.0472  0.6052  0.0443
  498MOL0     C67133  13.974   6.728   7.467  0.4784  0.5805 -0.5608
  498MOL0     C67134  14.098   6.649   7.508 -0.7592 -0.0074 -0.6220
  498MOL0     C67135  14.186   6.625   7.387 -0.5377  0.4506  0.5151
  498MOL0     C67136  14.320   6.558   7.422 -0.6867  0.2850  0.8938
  498MOL0     C67137  14.408   6.516   7.297  0.3565 -0.1294 -0.9447
  498MOL0     C67138  14.454   6.641   7.235 -0.3278  0.7806  0.6424
  498MOL0    Cl67139  14.548   6.614   7.082 -0.0094 -0.0481  0.1444
  498MOL0     C67140  13.645   7.149   7.423  0.2647 -0.4920  0.0216
  498MOL0     C67141  13.552   7.220   7.345 -0.8940 -0.0394 -0.5585
  498MOL0     O67142  13.278   7.357   7.355 -0.3340 -0.0826 -0.2492
  498MOL0     C67143  13.245   7.415   6.995 -0.0967  0.2019 -0.2321
  498MOL0     C67144  13.173   7.491   6.902 -0.1652 -0.0153 -0.2497
  498MOL0     N67145  12.541   7.668   6.560  0.8491 -0.2076  0.5127
  498MOL0     N67146  12.452   7.578   6.580 -0.4701 -0.8090  0.1977
  498MOL0     C67147  11.380   7.901   6.209  0.2608  0.2027  0.1295
  498MOL0     C67148  11.266   7.885   6.129 -0.6015  0.5300  0.3403
  498MOL0     C67149  10.819   7.909   6.057  0.1995 -0.0400  0.2267
  498MOL0     C67150  10.793   7.826   5.950 -0.4855 -0.3203  0.5886
  498MOL0     C67151  10.693   7.855   5.859 -0.1031  0.4588  0.1260
  498MOL0     C67152  10.601   7.965   5.861  0.1152 -0.9599 -0.2821
  498MOL0     O67153  10.509   7.996   5.767  0.3772  0.3047  0.7647
  498MOL0     C67154  10.492   7.894   5.668 -0.2974  1.0075  0.5271
  498MOL0     C67155  10.361   7.898   5.594 -0.4691 -0.4474 -0.4500
  498MOL0     C67156  10.350   8.009   5.483  0.0505  0.5608 -0.9688
  498MOL0     C67157  10.447   7.954   5.369  1.1715 -0.6341 -1.0045
  498MOL0     C67158  10.416   8.042   5.256  0.9547 -0.1661  1.4011
  498MOL0     C67159  10.389   8.121   5.157  0.2946  0.5250  0.2177
  498MOL0     C67160  10.613   8.040   5.982  0.1204  0.2918  0.0645
  498MOL0     C67161  10.718   8.019   6.076 -0.8423 -0.5383 -0.2875
  498MOL0     C67162  10.719   8.100   6.197 -0.6030 -0.7469 -0.5423
  498MOL0     H67163  11.085   7.675   6.327 -0.1594  0.1879  1.8208
  498MOL0     H67164  11.282   7.693   6.463  1.7052 -0.2693  0.1682
  498MOL0     H67165  11.437   7.939   6.576 -0.8190 -1.1829 -0.0400
  498MOL0     H67166  11.447   7.767   6.579 -0.6097 -0.8038 -2.6945
  498MOL0     H67167  11.630   7.859   6.706 -2.0651 -1.1769 -0.9235
  498MOL0     H67168  11.668   7.972   6.582 -1.1652  0.4808 -4.0894
  498MOL0     H67169  11.792   7.788   6.463 -0.3963 -1.3226  0.3705
  498MOL0     H67170  11.682   7.664   6.519  1.8497 -0.7997  0.8107
  498MOL0     H67171  11.871   7.823   6.680 -1.8408  0.3574  1.1104
  498MOL0     H67172  11.771   7.682   6.733  0.5781 -2.9264 -1.8459
  498MOL0     H67173  11.905   7.535   6.593  1.1269  0.3243  0.5477
  498MOL0     H67174  11.982   7.672   6.511 -1.4228 -0.8837 -0.7465
  498MOL0     H67175  12.105   7.733   6.715  0.0806  0.4671  2.7653
  498MOL0     H67176  12.025   7.610   6.815  1.4001 -4.4348 -0.1159
  498MOL0     H67177  12.172   7.548   6.562 -0.1209  0.4506 -0.3766
  498MOL0     H67178  12.094   7.442   6.674 -1.3136  2.2706  1.2133
  498MOL0     H67179  12.246   7.553   6.846  0.3790  0.0336  1.4124
  498MOL0     H67180  12.303   7.415   6.750  1.7176  0.5094 -3.7900
  498MOL0     H67181  12.400   7.762   6.842 -1.1930  1.6975 -2.3745
  498MOL0     H67182  12.678   7.896   6.591 -1.7554  2.2005 -0.6601
  498MOL0     H67183  12.557   7.971   6.693 -0.1848 -0.3073 -0.4076
  498MOL0     H67184  12.736   7.959   6.833 -1.7157 -0.7287  4.3421
  498MOL0     H67185  12.647   7.815   6.884  0.1051 -1.4429 -0.1015
  498MOL0     H67186  12.883   7.820   6.684 -0.1518 -2.4398 -1.9482
  498MOL0     H67187  12.794   7.679   6.734 -1.0025  0.6400 -0.9810
  498MOL0     H67188  12.853   7.743   6.971 -0.6346  3.6117  0.4362
  498MOL0     H67189  12.973   7.852   6.905 -0.0592  0.4436 -2.7854
  498MOL0     H67190  12.996   7.674   7.117 -0.3308  1.3431 -2.7130
  498MOL0     H67191  13.120   7.537   7.284 -0.6373  1.4193  0.2558
  498MOL0     H67192  13.441   6.972   7.153  4.1168 -2.0857 -0.9742
  498MOL0     H67193  13.611   6.849   7.260 -2.6845 -0.7964 -0.7595
  498MOL0     H67194  13.876   6.932   7.296 -0.0922  0.3980 -0.7678
  498MOL0     H67195  13.926   7.069   7.409  1.9651 -1.4527  1.8636
  498MOL0     H67196  14.102   6.905   7.424  3.5195 -3.2159  3.0028
  498MOL0     H67197  14.010   6.913   7.564  0.0872  1.1215 -0.0614
  498MOL0     H67198  13.894   6.718   7.540 -0.9465  2.4005 -1.7924
  498MOL0     H67199  13.942   6.688   7.371  1.0942 -1.9824  0.2222
  498MOL0     H67200  14.057   6.557   7.552 -0.3340 -0.3536 -0.9340
  498MOL0     H67201  14.155   6.692   7.590 -3.2309 -0.7586  1.6489
  498MOL0     H67202  14.201   6.726   7.349 -4.2369  0.3835 -1.6428
  498MOL0     H67203  14.143   6.566   7.306  0.5355 -0.1477  0.3668
  498MOL0     H67204  14.370   6.616   7.501  0.7985 -2.1448  1.8658
  498MOL0     H67205  14.303   6.461   7.472 -0.3599  0.8915  2.2479
  498MOL0     H67206  14.344   6.458   7.229  1.1097 -0.7676 -1.1220
  498MOL0     H67207  14.498   6.463   7.326 -1.2222 -1.0036  2.9418
  498MOL0     H67208  14.367   6.705   7.217 -1.9645 -1.3771  0.4491
  498MOL0     H67209  14.525   6.691   7.302 -0.9448  1.5497  0.7394
  498MOL0     H67210  13.691   7.202   7.505 -1.7441  1.5415 -0.0698
  498MOL0     H67211  13.541   7.326   7.367  4.1976  0.6245  0.0551
  498MOL0     H67212  13.315   7.340   6.959  1.9318  1.6680  0.5090
  498MOL0     H67213  13.180   7.462   6.798 -1.4480  1.1950 -0.6940
  498MOL0     H67214  11.451   7.972   6.167 -1.0974  1.1919 -0.5631
  498MOL0     H67215  11.259   7.954   6.045  1.6512 -0.3736 -0.6683
  498MOL0     H67216  10.863   7.749   5.919  0.3543  1.7595 -3.3764
  498MOL0     H67217  10.700   7.791   5.771  0.1195  0.0551  0.4352
  498MOL0     H67218  10.494   7.795   5.715 -0.9167 -0.0081 -1.4899
  498MOL0     H67219  10.565   7.896   5.586 -2.6618 -1.0675 -1.7874
  498MOL0     H67220  10.267   7.895   5.650 -1.6479 -0.7534 -2.3812
  498MOL0     H67221  10.365   7.803   5.539  1.6407 -1.0006  0.5517
  498MOL0     H67222  10.376   8.108   5.521  1.1673 -0.0107 -0.1781
  498MOL0     H67223  10.248   8.007   5.443  0.0214 -1.2196 -0.8741
  498MOL0     H67224  10.551   7.960   5.405  0.4576 -0.1180  1.1015
  498MOL0     H67225  10.422   7.851   5.340 -3.5902  0.8892 -3.3753
  498MOL0     H67226  10.351   8.182   5.077 -1.3067 -1.5531 -0.6946
  498MOL0     H67227  10.530   8.110   5.991 -1.0087 -1.1399  1.2446
  498MOL0     H67228  10.818   8.137   6.226 -1.6482  0.7183  1.3765
  498MOL0     H67229  10.648   8.182   6.187  0.0767  0.4172  2.9420
  498MOL0     H67230  10.673   8.039   6.274 -3.0821  3.5521  1.7433
  499MOL0     O67231   8.193   8.663   9.635 -0.2024  0.5136  0.3962
  499MOL0     C67232   8.275   8.650   9.545  0.4029 -0.2678  0.1927
  499MOL0     O67233   8.245   8.581   9.426 -0.0365  0.5868  0.0817
  499MOL0     C67234   8.123   8.526   9.400 -0.0472 -0.1211  0.0073
  499MOL0     C67235   8.016   8.612   9.371  0.5716 -0.6074 -0.3631
  499MOL0     C67236   7.889   8.570   9.354 -0.4683  0.3150 -0.1939
  499MOL0     C67237   7.856   8.435   9.366 -0.1632 -0.1219 -0.1336
  499MOL0     O67238   7.724   8.402   9.363  0.2133  0.6284  0.9403
  499MOL0     C67239   7.678   8.273   9.386 -1.5956 -0.3926 -0.2291
  499MOL0     C67240   7.667   8.259   9.535  0.2717  1.6965 -0.3639
  499MOL0     C67241   7.592   8.125   9.556 -0.4455  0.0499 -0.4502
  499MOL0     C67242   7.448   8.107   9.517 -0.0265  0.9376 -0.2054
  499MOL0     C67243   7.409   7.957   9.564 -0.2760 -0.4004 -0.4546
  499MOL0     C67244   7.265   7.932   9.541 -1.0788 -0.7525  0.2935
  499MOL0     C67245   7.216   7.906   9.397 -0.3222  0.0312 -0.4977
  499MOL0     C67246   7.251   7.768   9.345  0.5837 -0.4628 -0.0439
  499MOL0     N67247   7.203   7.755   9.205  0.2325  0.0744  0.3466
  499MOL0     C67248   7.274   7.814   9.094 -0.6739  0.5602 -0.8097
  499MOL0     C67249   7.200   7.775   8.990  0.3727 -0.6437 -0.1230
  499MOL0     C67250   7.215   7.834   8.857 -0.2027  0.5026 -0.0856
  499MOL0     C67251   7.263   7.731   8.756 -0.2853  0.3428  1.4823
  499MOL0     C67252   7.411   7.735   8.734  0.6000  0.0240 -0.8017
  499MOL0     C67253   7.462   7.654   8.608 -0.0822 -0.0511  0.6143
  499MOL0     O67254   7.439   7.706   8.480  0.4233 -0.5420  0.1356
  499MOL0     C67255   7.309   7.704   8.434  0.4318  0.2109  0.5883
  499MOL0     C67256   7.234   7.826   8.416 -0.0686  0.5357  0.1184
  499MOL0     C67257   7.101   7.819   8.390 -0.5916 -0.5005 -0.1948
  499MOL0     C67258   7.027   7.700   8.372 -0.5513  0.1445  0.2289
  499MOL0     C67259   6.877   7.701   8.342  0.1287  0.3325 -1.3081
  499MOL0     O67260   6.822   7.827   8.329  0.2584  0.0946  1.6009
  499MOL0     C67261   6.687   7.833   8.293 -0.2556 -1.0312  0.0981
  499MOL0     C67262   6.620   7.741   8.219 -0.2947  1.0337  0.3992
  499MOL0     C67263   6.480   7.762   8.187 -0.3682  0.0469  0.1324
  499MOL0     C67264   6.416   7.873   8.227  0.4304  0.8075 -0.4909
  499MOL0     O67265   6.286   7.904   8.199  0.7813  0.2502 -0.0671
  499MOL0     C67266   6.190   7.815   8.135  0.5605  0.3431  0.2377
  499MOL0     C67267   6.055   7.882   8.132  0.1017 -1.0656 -0.2186
  499MOL0     C67268   5.929   7.801   8.115 -0.5539 -0.9444 -0.4539
  499MOL0     C67269   5.803   7.892   8.117  0.1872  1.2823 -0.7206
  499MOL0     C67270   5.670   7.810   8.109 -0.2729  0.6124 -0.2070
  499MOL0     C67271   5.662   7.692   8.222 -0.2612  0.6334  0.7470
  499MOL0     C67272   5.511   7.658   8.215  0.9852  0.9462  0.1229
  499MOL0     C67273   5.458   7.549   8.312 -0.9265  0.1717 -0.1904
  499MOL0    Cl67274   5.517   7.389   8.276  0.2332  0.3881  0.7463
  499MOL0     C67275   6.485   7.962   8.304 -0.6013 -0.9825  0.1915
  499MOL0     C67276   6.621   7.947   8.344  0.3673 -0.0036 -0.5345
  499MOL0     O67277   6.815   7.596   8.356 -0.1166  0.3146  0.0057
  499MOL0     C67278   7.100   7.584   8.383 -0.9149 -0.7931  1.0880
  499MOL0     C67279   7.244   7.578   8.420  0.7791  0.7978  0.6818
  499MOL0     N67280   7.106   7.684   9.027 -0.6975 -0.0782 -0.9070
  499MOL0     N67281   7.102   7.677   9.156  0.7409 -0.2470 -0.2974
  499MOL0     C67282   7.965   8.353   9.393  0.5708  0.6674  0.3278
  499MOL0     C67283   8.092   8.395   9.421  0.2179 -0.7152 -0.0633
  499MOL0     C67284   8.395   8.731   9.548 -0.4630  0.3534  0.1349
  499MOL0     C67285   8.388   8.875   9.541  0.3637  0.6194 -0.5840
  499MOL0     C67286   8.500   8.949   9.525  0.2125  0.0750  0.2648
  499MOL0     C67287   8.631   8.904   9.537 -0.4606  1.3008 -0.7373
  499MOL0     O67288   8.728   9.000   9.527 -0.1823  0.4586  0.6644
  499MOL0     C67289   8.871   8.961   9.557  0.5773  0.3503 -0.9577
  499MOL0     C67290   8.960   8.883   9.464 -0.2136  0.0247 -0.3611
  499MOL0     C67291   8.947   8.953   9.318  0.4087  0.2754 -0.3371
  499MOL0     C67292   9.078   8.999   9.248 -0.5232  0.7076 -1.2364
  499MOL0     C67293   9.171   8.890   9.218 -0.1275  0.1557 -0.8361
  499MOL0     C67294   9.260   8.806   9.197  0.4130  0.0733 -0.6019
  499MOL0     C67295   8.651   8.766   9.557  0.1252 -0.1111  0.1466
  499MOL0     C67296   8.527   8.677   9.553 -0.7805 -0.7312 -0.7585
  499MOL0     C67297   8.548   8.531   9.573  1.0821 -1.2183 -0.2418
  499MOL0     H67298   8.060   8.709   9.351  4.2755 -2.1157 -0.2516
  499MOL0     H67299   7.822   8.655   9.340 -0.1450  0.5853 -0.0910
  499MOL0     H67300   7.579   8.261   9.342 -1.0807  1.0973 -1.8766
  499MOL0     H67301   7.737   8.191   9.343  0.4857  1.3496 -0.8991
  499MOL0     H67302   7.605   8.337   9.580  0.9019  1.2353  1.3827
  499MOL0     H67303   7.763   8.249   9.586  1.1762  2.8143 -1.7571
  499MOL0     H67304   7.590   8.109   9.664 -0.5204 -0.3304 -0.5053
  499MOL0     H67305   7.655   8.049   9.509  1.2545  1.0605  0.0938
  499MOL0     H67306   7.391   8.188   9.563 -0.9696  0.3996 -0.3784
  499MOL0     H67307   7.437   8.113   9.408  1.3008  3.2392 -0.2788
  499MOL0     H67308   7.468   7.881   9.513  1.5891 -0.5792  1.8168
  499MOL0     H67309   7.433   7.943   9.670 -1.9090  1.8119  0.2866
  499MOL0     H67310   7.246   7.848   9.609  0.1002 -0.3629  1.1376
  499MOL0     H67311   7.211   8.020   9.577 -2.0487 -1.1986 -0.0542
  499MOL0     H67312   7.253   7.983   9.328 -0.8403 -0.6724 -1.5921
  499MOL0     H67313   7.107   7.916   9.386 -0.3914 -0.6213 -0.4153
  499MOL0     H67314   7.359   7.757   9.353  0.5335 -0.2702  1.0773
  499MOL0     H67315   7.195   7.688   9.395  2.2125 -1.7915 -0.2817
  499MOL0     H67316   7.351   7.890   9.105  0.1731 -0.3736 -0.1722
  499MOL0     H67317   7.117   7.870   8.825  1.2987  1.4167 -4.2746
  499MOL0     H67318   7.281   7.920   8.871  0.9843 -0.4521  0.4039
  499MOL0     H67319   7.242   7.629   8.790 -1.5120 -0.6027 -1.7480
  499MOL0     H67320   7.212   7.740   8.660  1.6359  0.8517  0.4547
  499MOL0     H67321   7.453   7.699   8.829 -1.6494 -0.5817  0.0299
  499MOL0     H67322   7.441   7.839   8.718 -0.1643  0.5133  0.7115
  499MOL0     H67323   7.433   7.549   8.616 -0.1143 -0.2943 -1.8420
  499MOL0     H67324   7.568   7.646   8.635 -0.6867 -2.1527  2.6795
  499MOL0     H67325   7.286   7.920   8.431  2.5158 -0.7754 -0.2144
  499MOL0     H67326   7.054   7.917   8.379  1.7623  1.0699  2.4680
  499MOL0     H67327   6.669   7.660   8.167 -0.0505  1.5727 -0.2285
  499MOL0     H67328   6.428   7.701   8.114  0.9375 -2.2976  1.0422
  499MOL0     H67329   6.213   7.796   8.030  0.8455  0.5711  0.2578
  499MOL0     H67330   6.177   7.725   8.196 -0.3753  1.5196  1.8704
  499MOL0     H67331   6.056   7.926   8.232  1.3314 -3.2551  0.7861
  499MOL0     H67332   6.047   7.962   8.058 -0.8615 -0.5307  0.4416
  499MOL0     H67333   5.928   7.734   8.029 -3.5855 -1.3643 -0.1840
  499MOL0     H67334   5.929   7.734   8.202 -2.8134 -0.5558 -0.0967
  499MOL0     H67335   5.803   7.951   8.025  1.1832 -2.6072 -3.4605
  499MOL0     H67336   5.787   7.952   8.208 -2.7415 -3.1250  2.0798
  499MOL0     H67337   5.681   7.746   8.021 -0.5866 -1.5889  1.2672
  499MOL0     H67338   5.577   7.868   8.106 -0.4789  0.3831  1.0982
  499MOL0     H67339   5.715   7.602   8.188 -1.9834  1.1434 -4.1632
  499MOL0     H67340   5.694   7.714   8.324 -2.1999 -1.8624  2.0360
  499MOL0     H67341   5.471   7.627   8.119 -0.1559 -1.6086  1.3360
  499MOL0     H67342   5.458   7.751   8.240  0.8916  1.2556 -1.1436
  499MOL0     H67343   5.485   7.573   8.416  2.5162  0.0128 -0.9353
  499MOL0     H67344   5.349   7.541   8.313 -1.1281  2.2083 -1.4240
  499MOL0     H67345   6.438   8.059   8.322 -3.3649 -2.1321 -0.3924
  499MOL0     H67346   6.677   8.016   8.405 -1.3449  1.8693 -0.9568
  499MOL0     H67347   7.044   7.496   8.355  0.9289 -1.3234 -1.2157
  499MOL0     H67348   7.292   7.482   8.436 -0.9156 -0.4467 -1.2460
  499MOL0     H67349   7.955   8.245   9.400  0.3472  0.4882 -2.0080
  499MOL0     H67350   8.169   8.324   9.450  2.8143  1.3294 -1.5624
  499MOL0     H67351   8.293   8.920   9.516  0.1209  1.1233  1.1304
  499MOL0     H67352   8.487   9.056   9.514 -1.6394 -0.2340 -0.9502
  499MOL0     H67353   8.871   8.890   9.641 -1.0961  0.1855 -1.0645
  499MOL0     H67354   8.931   9.050   9.578  2.4014 -0.1379 -3.6279
  499MOL0     H67355   8.943   8.776   9.449 -2.1228  0.3601 -0.8990
  499MOL0     H67356   9.061   8.892   9.505 -1.5823  1.3268  3.1142
  499MOL0     H67357   8.879   9.038   9.323 -1.2382 -0.9535 -1.0152
  499MOL0     H67358   8.898   8.887   9.246  0.0623 -0.4613  0.5559
  499MOL0     H67359   9.046   9.046   9.154  0.1858  1.0890 -1.2908
  499MOL0     H67360   9.123   9.069   9.319 -3.5926 -0.4723  2.1808
  499MOL0     H67361   9.339   8.735   9.184 -0.5890 -0.6894 -2.9604
  499MOL0     H67362   8.752   8.727   9.560  1.0024  1.9599 -0.3237
  499MOL0     H67363   8.563   8.484   9.476 -2.0667 -3.7860  0.3487
  499MOL0     H67364   8.634   8.514   9.638  1.5261  0.9689 -0.1770
  499MOL0     H67365   8.457   8.496   9.623  0.1389  3.3988  1.8345
  500MOL0     O67366   8.158   6.673   3.106 -0.3670 -1.0469 -0.2345
  500MOL0     C67367   8.128   6.708   3.222  0.2181  0.5254 -0.7629
  500MOL0     O67368   8.213   6.733   3.318  0.1916 -0.4915 -0.0296
  500MOL0     C67369   8.348   6.704   3.293 -0.2438 -0.3276 -0.2163
  500MOL0     C67370   8.392   6.590   3.213 -0.4516 -0.1895  0.2964
  500MOL0     C67371   8.521   6.562   3.194 -0.1832 -0.0389  0.3993
  500MOL0     C67372   8.620   6.645   3.237 -1.1214  0.1907  0.4364
  500MOL0     O67373   8.757   6.622   3.219 -0.0115  0.7630 -0.5477
  500MOL0     C67374   8.835   6.591   3.339 -0.1112 -1.2624  0.5313
  500MOL0     C67375   8.981   6.663   3.352  0.0029  0.1295  0.4300
  500MOL0     C67376   8.963   6.794   3.419  0.3306  0.1779 -0.4593
  500MOL0     C67377   8.955   6.919   3.320 -0.3200  0.3260 -0.1986
  500MOL0     C67378   8.924   7.055   3.399  0.6354 -0.6244  0.2499
  500MOL0     C67379   8.887   7.160   3.290 -0.0695  0.2082 -0.6783
  500MOL0     C67380   8.822   7.291   3.347 -0.5721 -0.3437 -0.3340
  500MOL0     C67381   8.935   7.392   3.400  0.6978  0.4074 -1.2331
  500MOL0     N67382   9.048   7.394   3.316  0.9056 -0.2443 -0.4306
  500MOL0     C67383   9.180   7.347   3.348  0.3320 -0.0404 -0.5362
  500MOL0     C67384   9.247   7.376   3.232 -0.7676  0.6753  0.3739
  500MOL0     C67385   9.397   7.326   3.203  0.6718 -0.7384 -0.0269
  500MOL0     C67386   9.407   7.212   3.099 -0.8495 -0.1994 -0.0939
  500MOL0     C67387   9.336   7.090   3.154  0.3366  0.2814  1.4047
  500MOL0     C67388   9.352   6.987   3.044 -0.0021 -0.5168 -0.0101
  500MOL0     O67389   9.306   6.868   3.112 -0.4296 -0.7666  0.0962
  500MOL0     C67390   9.370   6.747   3.084  0.0282  0.1504 -1.3955
  500MOL0     C67391   9.477   6.725   2.997 -0.5601  0.6060 -0.5396
  500MOL0     C67392   9.528   6.599   2.975  0.5239 -0.7226  0.4197
  500MOL0     C67393   9.477   6.487   3.037  0.5806 -0.4182  0.3459
  500MOL0     C67394   9.528   6.361   2.999  0.0416 -0.2530 -0.2152
  500MOL0     O67395   9.477   6.256   3.072 -0.1383  0.2253 -0.0008
  500MOL0     C67396   9.539   6.133   3.053 -0.3944  1.0296  0.6790
  500MOL0     C67397   9.457   6.022   3.019  0.4067 -0.7046 -0.2836
  500MOL0     C67398   9.521   5.903   2.999 -0.3723  0.2836 -0.5071
  500MOL0     C67399   9.664   5.881   3.007  0.1528 -0.2239 -0.2650
  500MOL0     O67400   9.733   5.767   3.002 -0.1846  0.0270  0.6875
  500MOL0     C67401   9.663   5.646   2.988  0.6506 -0.4822 -0.1299
  500MOL0     C67402   9.752   5.526   2.990  0.4443 -0.1468 -0.4335
  500MOL0     C67403   9.815   5.503   3.140  0.5797  0.2576 -0.0635
  500MOL0     C67404   9.906   5.377   3.125  0.3752 -0.2739 -0.4624
  500MOL0     C67405   9.980   5.346   3.249  0.0643 -0.0776 -0.0584
  500MOL0     C67406  10.050   5.218   3.225  0.2495  0.0516 -0.0689
  500MOL0     C67407  10.136   5.178   3.346  0.8704 -0.2174 -0.8805
  500MOL0     C67408  10.205   5.052   3.317 -0.5957 -0.6378  0.7607
  500MOL0    Cl67409  10.102   4.899   3.339  0.1081 -0.0246 -0.0133
  500MOL0     C67410   9.737   5.991   3.039  1.2779 -0.7055 -0.3259
  500MOL0     C67411   9.678   6.114   3.076 -1.0859  0.7386 -0.3207
  500MOL0     O67412   9.572   6.353   2.888 -0.0238  0.0546  0.3313
  500MOL0     C67413   9.372   6.501   3.126 -0.1071  0.4233  0.3539
  500MOL0     C67414   9.320   6.632   3.154 -0.9732  0.0657 -0.6209
  500MOL0     N67415   9.158   7.427   3.139  0.0837  0.4869 -0.8346
  500MOL0     N67416   9.036   7.437   3.195 -1.1490 -0.6529  0.7181
  500MOL0     C67417   8.586   6.766   3.313  0.1670  1.1207 -0.1954
  500MOL0     C67418   8.450   6.789   3.345 -0.3913 -0.5215  0.0397
  500MOL0     C67419   7.981   6.711   3.259  0.2965  0.8011  1.0254
  500MOL0     C67420   7.892   6.631   3.179  0.2324  0.5266 -0.1551
  500MOL0     C67421   7.760   6.613   3.220 -0.4837  0.2815  0.8355
  500MOL0     C67422   7.709   6.666   3.341 -0.1639  0.2877 -0.1354
  500MOL0     O67423   7.591   6.618   3.386 -0.0472  0.4714  0.3176
  500MOL0     C67424   7.526   6.656   3.502 -0.2618  0.2825  0.0012
  500MOL0     C67425   7.577   6.601   3.631  0.9610  0.2972  0.5196
  500MOL0     C67426   7.491   6.654   3.750  0.5091  0.5165  0.2737
  500MOL0     C67427   7.351   6.601   3.747  0.0212  0.1555  0.4738
  500MOL0     C67428   7.347   6.458   3.760 -1.0809 -0.6715  0.5039
  500MOL0     C67429   7.342   6.333   3.769  0.6875 -0.5118  0.2906
  500MOL0     C67430   7.792   6.762   3.404  0.4829  0.1225 -0.7841
  500MOL0     C67431   7.921   6.788   3.362 -0.2824  0.6687 -0.5473
  500MOL0     C67432   7.992   6.898   3.430  0.1268  0.0293  0.4214
  500MOL0     H67433   8.321   6.518   3.172  0.1875 -1.7484  1.8122
  500MOL0     H67434   8.548   6.465   3.152 -0.3875 -0.8107  1.9832
  500MOL0     H67435   8.772   6.613   3.426 -0.0842 -1.3221  0.5660
  500MOL0     H67436   8.851   6.484   3.325 -0.4506 -1.1921 -0.5176
  500MOL0     H67437   9.024   6.677   3.252 -1.6552  2.0122 -0.0873
  500MOL0     H67438   9.053   6.602   3.408  0.0817 -0.9459 -0.7864
  500MOL0     H67439   9.054   6.788   3.480 -1.2692  0.3286  2.0740
  500MOL0     H67440   8.880   6.794   3.490  0.0024 -0.7157 -0.8361
  500MOL0     H67441   9.042   6.930   3.255 -1.3384  3.7764 -1.2000
  500MOL0     H67442   8.877   6.890   3.250  0.6218 -0.3914 -0.9836
  500MOL0     H67443   8.828   7.048   3.451 -0.9777  2.2596 -2.0027
  500MOL0     H67444   9.005   7.101   3.456 -0.0618  0.3193  0.5051
  500MOL0     H67445   8.976   7.177   3.229  1.4116  0.9331  1.5697
  500MOL0     H67446   8.817   7.113   3.220 -0.8871  2.7257 -1.6603
  500MOL0     H67447   8.764   7.269   3.437  2.1736 -1.7434  1.2185
  500MOL0     H67448   8.767   7.325   3.258  0.4230 -0.5797 -1.0666
  500MOL0     H67449   8.885   7.490   3.406 -0.1641 -0.0665 -0.4990
  500MOL0     H67450   8.963   7.359   3.500  0.3760 -3.2486 -2.2279
  500MOL0     H67451   9.218   7.297   3.437  0.7865  1.8354  0.3768
  500MOL0     H67452   9.449   7.411   3.159 -0.6316  0.9956  1.6469
  500MOL0     H67453   9.454   7.319   3.297  0.2345  1.2485  0.4165
  500MOL0     H67454   9.374   7.235   2.997  3.0469 -0.1143 -1.5311
  500MOL0     H67455   9.515   7.197   3.093 -0.7876  0.3063 -0.3469
  500MOL0     H67456   9.231   7.109   3.175 -0.3141  0.1297 -1.3740
  500MOL0     H67457   9.388   7.049   3.241  2.7226 -0.0127 -0.0670
  500MOL0     H67458   9.458   6.983   3.019  0.0023  2.6619 -0.9181
  500MOL0     H67459   9.303   6.989   2.946  1.5929 -1.5667 -0.8690
  500MOL0     H67460   9.531   6.798   2.938  0.4387 -0.0118 -0.4115
  500MOL0     H67461   9.597   6.602   2.891  1.7120 -0.3874  1.3939
  500MOL0     H67462   9.354   6.056   3.018  1.0094  1.2582 -0.5974
  500MOL0     H67463   9.466   5.810   2.986  0.3326 -0.7154  2.7482
  500MOL0     H67464   9.586   5.637   3.065 -1.2188  0.6331 -1.7578
  500MOL0     H67465   9.612   5.643   2.891 -0.5262 -2.3807  0.4965
  500MOL0     H67466   9.692   5.436   2.972  1.1980 -0.3659 -2.0244
  500MOL0     H67467   9.820   5.546   2.907  0.8538  0.3955  0.0292
  500MOL0     H67468   9.860   5.591   3.187 -0.1751  0.7913 -0.3043
  500MOL0     H67469   9.734   5.474   3.207  0.4566 -1.0889 -0.7806
  500MOL0     H67470   9.980   5.396   3.047  0.8018 -1.9019 -0.4776
  500MOL0     H67471   9.848   5.291   3.091  0.3781  0.6708 -3.0357
  500MOL0     H67472   9.917   5.340   3.339 -0.4177  0.9975 -0.3133
  500MOL0     H67473  10.046   5.432   3.263  0.3109 -0.3407  0.4065
  500MOL0     H67474   9.981   5.135   3.210  0.9097 -0.0350 -3.4691
  500MOL0     H67475  10.114   5.234   3.138 -0.8318 -2.2956 -1.3698
  500MOL0     H67476  10.067   5.156   3.428  1.9573 -0.5003 -0.0127
  500MOL0     H67477  10.205   5.253   3.386  0.2287  0.0518 -0.2719
  500MOL0     H67478  10.243   5.062   3.215 -0.8065 -1.0103  0.6412
  500MOL0     H67479  10.288   5.030   3.385 -0.0612 -2.9581 -0.5269
  500MOL0     H67480   9.845   5.979   3.049  1.3318  0.6213  0.8660
  500MOL0     H67481   9.734   6.206   3.089  2.0709 -0.5936 -2.8503
  500MOL0     H67482   9.338   6.413   3.180  0.0592 -1.0864 -1.8538
  500MOL0     H67483   9.242   6.641   3.229 -0.3932 -0.3881  0.0522
  500MOL0     H67484   8.665   6.836   3.337  0.4666  1.4112 -1.9247
  500MOL0     H67485   8.424   6.877   3.403  1.4519  1.1538 -1.5448
  500MOL0     H67486   7.928   6.564   3.102  0.8159  0.4776  0.1516
  500MOL0     H67487   7.702   6.536   3.171  2.0740 -1.1408 -0.1556
  500MOL0     H67488   7.419   6.643   3.484 -0.7148  3.6840 -0.3749
  500MOL0     H67489   7.517   6.764   3.514  1.7069  0.3932  0.7493
  500MOL0     H67490   7.683   6.627   3.638  0.9880  0.4821 -0.3701
  500MOL0     H67491   7.575   6.492   3.620 -3.3303  0.3944 -1.4292
  500MOL0     H67492   7.486   6.763   3.745 -0.7853  0.4181 -1.7055
  500MOL0     H67493   7.531   6.613   3.844 -0.8590 -2.2577 -0.2536
  500MOL0     H67494   7.293   6.643   3.829 -1.6726 -2.8841  0.9855
  500MOL0     H67495   7.295   6.627   3.657  0.6589  0.5800  0.1919
  500MOL0     H67496   7.335   6.226   3.774 -3.7036 -0.3772  0.2765
  500MOL0     H67497   7.739   6.811   3.485  1.0855  0.8305 -0.8032
  500MOL0     H67498   8.070   6.941   3.366 -0.7112 -0.2090 -0.7868
  500MOL0     H67499   7.929   6.982   3.462 -1.2352 -0.6642 -0.3918
  500MOL0     H67500   8.047   6.858   3.516  1.8355  0.0720 -0.5973
  501MOL0     O67501   9.605   9.449   7.711 -0.4892 -1.3485 -0.5475
  501MOL0     C67502   9.709   9.382   7.691 -0.4331 -0.5713  0.1803
  501MOL0     O67503   9.719   9.244   7.723 -0.2587  0.0246 -0.4352
  501MOL0     C67504   9.619   9.194   7.801 -0.2177 -0.1807 -0.4377
  501MOL0     C67505   9.608   9.210   7.942 -0.0864  0.1630 -0.4903
  501MOL0     C67506   9.499   9.155   8.005 -0.3471  0.3541  0.3894
  501MOL0     C67507   9.401   9.089   7.932  0.6363 -1.3735 -0.5392
  501MOL0     O67508   9.303   9.041   8.014  0.3507  0.4851 -0.9227
  501MOL0     C67509   9.200   8.968   7.952 -0.3030 -0.0626 -0.3077
  501MOL0     C67510   9.096   8.929   8.060 -0.4751  0.6191  0.3903
  501MOL0     C67511   8.980   8.849   8.005  0.3214 -0.2442 -0.2396
  501MOL0     C67512   8.915   8.900   7.877  0.5587 -0.4482 -0.3760
  501MOL0     C67513   8.858   9.049   7.891  0.4680  0.4187 -0.0473
  501MOL0     C67514   8.776   9.102   7.784  0.3504 -0.0707 -0.3566
  501MOL0     C67515   8.633   9.053   7.777  0.1926  0.2677 -0.0523
  501MOL0     C67516   8.564   9.133   7.666  0.6221  0.4047 -0.2829
  501MOL0     N67517   8.431   9.091   7.644 -0.2090 -0.1852  0.4441
  501MOL0     C67518   8.316   9.172   7.666  0.3365 -1.3090  0.4412
  501MOL0     C67519   8.215   9.088   7.643 -0.5909 -0.5783  0.5355
  501MOL0     C67520   8.071   9.130   7.666 -0.6712 -0.1730 -0.9657
  501MOL0     C67521   8.022   9.119   7.815 -0.3089 -0.3018  0.5632
  501MOL0     C67522   8.084   9.233   7.893 -0.4960 -0.7206  1.0645
  501MOL0     C67523   8.003   9.255   8.023 -0.7627 -0.4967  0.1486
  501MOL0     O67524   8.021   9.150   8.123 -0.3336  0.9299 -0.7225
  501MOL0     C67525   8.152   9.111   8.167  0.3756  0.5469 -0.1601
  501MOL0     C67526   8.261   9.203   8.182  0.7374  0.5252  0.8114
  501MOL0     C67527   8.390   9.159   8.198 -1.6085 -0.4154  0.0668
  501MOL0     C67528   8.416   9.023   8.221 -0.3252 -0.1595 -0.3040
  501MOL0     C67529   8.547   8.955   8.235 -1.2185  1.0595 -0.5251
  501MOL0     O67530   8.552   8.865   8.338 -0.5165 -0.2831 -0.0490
  501MOL0     C67531   8.655   8.778   8.344 -0.5388  0.0590 -0.2568
  501MOL0     C67532   8.715   8.698   8.236  0.0452 -0.3102  0.0033
  501MOL0     C67533   8.825   8.613   8.272  0.7080 -0.3428  0.1172
  501MOL0     C67534   8.872   8.592   8.404  1.1399 -0.0451  0.3390
  501MOL0     O67535   8.979   8.511   8.440  0.2712 -0.2314 -0.2106
  501MOL0     C67536   9.081   8.486   8.344  0.0207 -0.3391 -0.2527
  501MOL0     C67537   9.203   8.428   8.407  0.0513 -0.6364 -0.3776
  501MOL0     C67538   9.314   8.386   8.309 -0.0062 -0.0026  0.1240
  501MOL0     C67539   9.448   8.356   8.379  0.8567  0.5748 -0.1288
  501MOL0     C67540   9.542   8.289   8.270 -0.1478 -0.2406 -0.5966
  501MOL0     C67541   9.665   8.378   8.242 -0.5852  0.9662 -0.1825
  501MOL0     C67542   9.640   8.514   8.169  0.1683 -0.6154  0.0111
  501MOL0     C67543   9.752   8.549   8.064 -0.9253  0.2500 -0.0075
  501MOL0    Cl67544   9.905   8.610   8.136  0.1148  0.0955 -0.0899
  501MOL0     C67545   8.796   8.655   8.503 -0.0448 -0.3618  0.9375
  501MOL0     C67546   8.694   8.744   8.476  0.6941 -0.5443  0.0935
  501MOL0     O67547   8.644   8.976   8.164 -0.5784 -0.0964  0.5637
  501MOL0     C67548   8.307   8.932   8.217  0.2177 -0.3904  0.9251
  501MOL0     C67549   8.174   8.971   8.203  0.4256  0.0884 -0.1191
  501MOL0     N67550   8.269   8.966   7.612 -0.4958  0.0485  0.3454
  501MOL0     N67551   8.400   8.964   7.616 -0.7980 -0.2186 -0.5487
  501MOL0     C67552   9.413   9.066   7.798  0.9193 -0.5923  0.3893
  501MOL0     C67553   9.525   9.121   7.734 -0.8942  0.8472  0.3251
  501MOL0     C67554   9.830   9.454   7.634 -0.1050  0.1295  0.1527
  501MOL0     C67555   9.955   9.390   7.651  0.3677 -0.3632 -0.3658
  501MOL0     C67556  10.074   9.453   7.616  0.2396 -0.9147  0.5823
  501MOL0     C67557  10.064   9.584   7.572 -0.1998  0.6400 -0.0189
  501MOL0     O67558  10.176   9.654   7.523  0.1132 -0.7971  0.0338
  501MOL0     C67559  10.293   9.576   7.489  0.0155 -1.3876 -0.7617
  501MOL0     C67560  10.407   9.667   7.445 -0.1795 -0.6421  0.0706
  501MOL0     C67561  10.537   9.592   7.408 -0.4137 -0.1180 -0.0912
  501MOL0     C67562  10.642   9.675   7.335  0.1859  0.5133  0.6999
  501MOL0     C67563  10.628   9.641   7.188 -0.6240  0.5939 -0.5684
  501MOL0     C67564  10.588   9.629   7.074  0.3665 -0.4285 -0.6206
  501MOL0     C67565   9.936   9.648   7.564 -0.9620 -0.4673 -0.8867
  501MOL0     C67566   9.816   9.582   7.574 -0.0769 -0.5438  0.1966
  501MOL0     C67567   9.686   9.654   7.541  0.0221 -1.1523  0.1776
  501MOL0     H67568   9.677   9.277   7.993 -2.4115  2.9628 -0.7404
  501MOL0     H67569   9.471   9.174   8.108 -1.6056  1.5649 -0.1541
  501MOL0     H67570   9.145   9.035   7.885  0.0844  2.7792  2.0482
  501MOL0     H67571   9.236   8.871   7.917  0.4798 -0.4598  1.4901
  501MOL0     H67572   9.053   9.012   8.116 -0.1424  0.0019  1.5905
  501MOL0     H67573   9.151   8.866   8.130 -1.3341  2.2054  2.5854
  501MOL0     H67574   8.899   8.840   8.078  1.0871  0.2767  0.7036
  501MOL0     H67575   9.016   8.747   7.989  0.2765 -0.0082 -1.9826
  501MOL0     H67576   8.988   8.888   7.797  1.1951 -3.5168  0.5668
  501MOL0     H67577   8.827   8.842   7.847  0.1438  0.5139 -1.0642
  501MOL0     H67578   8.805   9.054   7.987 -1.4895 -0.6414 -1.0120
  501MOL0     H67579   8.944   9.116   7.895  2.1130 -1.5125 -1.2826
  501MOL0     H67580   8.759   9.209   7.800  0.0494  0.0393 -1.3670
  501MOL0     H67581   8.826   9.092   7.688 -1.2145  0.4234 -1.2614
  501MOL0     H67582   8.581   9.064   7.872 -1.9532 -4.6840 -0.3471
  501MOL0     H67583   8.641   8.945   7.758 -2.8760 -0.5027  2.2551
  501MOL0     H67584   8.561   9.240   7.686  0.6255  0.6334 -1.4097
  501MOL0     H67585   8.621   9.122   7.573  1.5821 -1.2422  0.4495
  501MOL0     H67586   8.314   9.271   7.709  0.3381 -0.8448 -0.6046
  501MOL0     H67587   8.056   9.230   7.625 -2.9380  0.8051  1.8768
  501MOL0     H67588   8.018   9.050   7.613 -3.3534 -0.0570  1.2833
  501MOL0     H67589   7.913   9.117   7.813 -0.4531 -4.7898  1.8014
  501MOL0     H67590   8.053   9.020   7.849  0.3612 -0.7723 -1.2921
  501MOL0     H67591   8.065   9.323   7.833 -1.6962  0.0578  2.5383
  501MOL0     H67592   8.192   9.226   7.914 -0.0830 -3.4517 -1.3313
  501MOL0     H67593   7.901   9.259   7.984 -0.5306 -3.2172 -0.9435
  501MOL0     H67594   8.028   9.350   8.072  0.4499 -0.1459 -1.0904
  501MOL0     H67595   8.237   9.309   8.177  0.6677  0.5464  1.5063
  501MOL0     H67596   8.475   9.224   8.184 -2.0313 -0.0728 -0.9632
  501MOL0     H67597   8.697   8.735   8.135  2.3509  1.1819  0.0551
  501MOL0     H67598   8.887   8.575   8.191  2.0644  0.9491  0.4971
  501MOL0     H67599   9.035   8.431   8.262 -0.1951 -0.7692  0.1508
  501MOL0     H67600   9.119   8.574   8.291  1.7642 -0.4886  0.6604
  501MOL0     H67601   9.250   8.501   8.474  0.7070  0.3554 -1.8706
  501MOL0     H67602   9.178   8.342   8.470  0.2332 -0.4277 -0.0207
  501MOL0     H67603   9.275   8.299   8.254 -2.8469  0.6085  1.0047
  501MOL0     H67604   9.323   8.480   8.255 -4.7861  0.8821  0.4506
  501MOL0     H67605   9.434   8.283   8.459  0.8077 -0.1739 -0.8127
  501MOL0     H67606   9.499   8.442   8.425  0.5058  1.6541 -1.6767
  501MOL0     H67607   9.488   8.269   8.177  0.5958  1.1588 -1.3596
  501MOL0     H67608   9.568   8.189   8.307 -1.0200 -0.7226 -1.2649
  501MOL0     H67609   9.707   8.389   8.343 -0.3862 -0.1084 -0.1453
  501MOL0     H67610   9.745   8.318   8.199 -2.5085 -1.1953 -0.9354
  501MOL0     H67611   9.637   8.595   8.242 -2.3945  0.0384 -0.7140
  501MOL0     H67612   9.546   8.503   8.114  0.8035 -2.2432 -0.8365
  501MOL0     H67613   9.774   8.465   7.999 -0.9235  0.3533 -0.1399
  501MOL0     H67614   9.712   8.630   8.002  1.4616  0.3101 -1.5756
  501MOL0     H67615   8.833   8.641   8.604 -1.5843 -0.9479  1.4425
  501MOL0     H67616   8.643   8.799   8.555 -1.2640  2.1654 -2.8323
  501MOL0     H67617   8.330   8.828   8.238  1.7060  0.2421  2.6832
  501MOL0     H67618   8.094   8.898   8.197 -0.6370  0.8620  2.8067
  501MOL0     H67619   9.338   9.023   7.733 -0.1212  3.7474 -1.7071
  501MOL0     H67620   9.553   9.087   7.635  1.8503  1.1274  0.9447
  501MOL0     H67621   9.958   9.297   7.707  3.8281 -0.8800 -1.1920
  501MOL0     H67622  10.169   9.403   7.634 -0.4044 -1.0187  4.4232
  501MOL0     H67623  10.274   9.498   7.414  1.7327 -0.0023 -2.7676
  501MOL0     H67624  10.323   9.537   7.587  0.4073  0.3366 -0.1653
  501MOL0     H67625  10.428   9.737   7.526 -2.8237 -1.8009  1.8905
  501MOL0     H67626  10.376   9.724   7.357 -1.8972 -3.2830 -1.1513
  501MOL0     H67627  10.511   9.507   7.345 -1.4448  0.8526 -1.0118
  501MOL0     H67628  10.577   9.559   7.505  0.4400  2.5344  0.5564
  501MOL0     H67629  10.607   9.778   7.346 -1.0695  0.1075  0.6485
  501MOL0     H67630  10.742   9.653   7.372 -0.6330 -2.3492  1.4472
  501MOL0     H67631  10.583   9.608   6.969  0.3838  2.2939 -1.2410
  501MOL0     H67632   9.936   9.754   7.539  0.3601  0.6606  3.2278
  501MOL0     H67633   9.703   9.749   7.491 -3.0881  0.0329  1.1602
  501MOL0     H67634   9.623   9.594   7.475 -0.1848 -2.6940  1.6855
  501MOL0     H67635   9.627   9.683   7.628  0.3883  3.1266 -0.7803
  502MOL0     O67636   4.377   6.345   5.547  0.2159  0.6898 -0.1846
  502MOL0     C67637   4.454   6.434   5.566  1.3066  0.2658  0.4585
  502MOL0     O67638   4.431   6.537   5.654 -0.6708  0.3200 -0.4358
  502MOL0     C67639   4.322   6.535   5.741 -0.2261  0.6837  0.2407
  502MOL0     C67640   4.270   6.424   5.825 -0.2993  0.0337  0.3518
  502MOL0     C67641   4.170   6.441   5.913  0.1843  1.0259 -0.1537
  502MOL0     C67642   4.095   6.564   5.920 -0.0604 -0.1697  0.1731
  502MOL0     O67643   3.976   6.592   5.983  0.7973  0.6920 -0.4077
  502MOL0     C67644   3.881   6.480   5.974 -0.9552  0.6632  0.0565
  502MOL0     C67645   3.764   6.518   6.062 -0.2815 -0.4007  1.3371
  502MOL0     C67646   3.673   6.399   6.098  0.6369  0.7342  0.3254
  502MOL0     C67647   3.731   6.298   6.187  0.5837 -1.3398  0.0114
  502MOL0     C67648   3.628   6.242   6.276  0.0154  0.4424  0.4879
  502MOL0     C67649   3.695   6.122   6.352 -0.1772 -0.2122 -0.4633
  502MOL0     C67650   3.615   6.075   6.471  0.2901 -0.0296  0.1412
  502MOL0     C67651   3.483   6.012   6.433 -0.0151  0.0542  0.2089
  502MOL0     N67652   3.391   5.981   6.548  0.2448  0.5329 -0.3661
  502MOL0     C67653   3.281   6.053   6.592 -0.1461  0.0726  0.2855
  502MOL0     C67654   3.236   5.991   6.709 -0.4276 -0.6335 -0.1122
  502MOL0     C67655   3.119   6.037   6.787  0.6906  0.3808  0.0072
  502MOL0     C67656   3.143   6.187   6.835 -0.1530  0.7317  0.5747
  502MOL0     C67657   3.265   6.197   6.934  1.0145 -0.0552 -0.2111
  502MOL0     C67658   3.257   6.329   7.016  0.2600  0.2071 -0.5745
  502MOL0     O67659   3.366   6.338   7.109  0.4970 -0.3616 -0.5654
  502MOL0     C67660   3.476   6.404   7.072  0.6117  0.1405  0.1034
  502MOL0     C67661   3.562   6.420   7.178 -0.7207 -0.3243 -0.7609
  502MOL0     C67662   3.686   6.476   7.148 -0.4218  0.6452 -0.7798
  502MOL0     C67663   3.717   6.540   7.028  0.3443 -0.4738  1.0883
  502MOL0     C67664   3.829   6.637   7.017  0.2149  0.2572 -0.1937
  502MOL0     O67665   3.845   6.698   6.901  0.4407  0.6190  0.1811
  502MOL0     C67666   3.958   6.772   6.877 -0.0345 -0.6325  0.2163
  502MOL0     C67667   4.010   6.751   6.748 -0.0507  0.0835 -0.1972
  502MOL0     C67668   4.123   6.816   6.709 -0.1828 -0.3158  0.2675
  502MOL0     C67669   4.184   6.914   6.799 -0.1602 -0.1064  1.0862
  502MOL0     O67670   4.305   6.976   6.764  1.5490  1.0088  0.2858
  502MOL0     C67671   4.340   6.975   6.628  0.6443 -0.8030 -1.3765
  502MOL0     C67672   4.492   7.022   6.618  0.0716  0.4939  0.1079
  502MOL0     C67673   4.539   7.004   6.475 -0.5505 -0.8844 -0.2939
  502MOL0     C67674   4.687   7.031   6.471 -0.0652 -0.1371 -0.1046
  502MOL0     C67675   4.739   6.989   6.333 -0.4560  0.7631 -0.4102
  502MOL0     C67676   4.889   7.002   6.305  0.4824  0.3994  0.7167
  502MOL0     C67677   4.909   7.013   6.153  0.6896 -0.0521  0.4973
  502MOL0     C67678   5.060   7.054   6.107 -0.2651  0.3164 -0.5095
  502MOL0    Cl67679   5.156   6.912   6.094 -0.1849  0.3989 -0.0683
  502MOL0     C67680   4.119   6.938   6.920 -0.5689 -0.8000 -0.0788
  502MOL0     C67681   4.012   6.864   6.960 -0.0702 -0.3700 -0.9072
  502MOL0     O67682   3.899   6.648   7.120  0.0646  0.2873 -0.1615
  502MOL0     C67683   3.617   6.531   6.923 -0.3854 -0.0279 -0.4464
  502MOL0     C67684   3.504   6.458   6.946  0.4251 -0.2440 -0.6073
  502MOL0     N67685   3.331   5.889   6.730  0.4356  0.8717  0.0633
  502MOL0     N67686   3.423   5.883   6.638 -0.0576 -1.4192  0.1697
  502MOL0     C67687   4.145   6.670   5.849  0.0783 -0.9024  0.1213
  502MOL0     C67688   4.259   6.656   5.765 -0.2975  0.4933 -0.9457
  502MOL0     C67689   4.588   6.436   5.493 -0.3697 -0.8230 -0.1315
  502MOL0     C67690   4.594   6.386   5.368 -0.5810 -0.5568  0.9740
  502MOL0     C67691   4.716   6.396   5.289  1.0299 -0.1682 -0.5026
  502MOL0     C67692   4.822   6.464   5.334 -0.3124 -0.2914  0.3616
  502MOL0     O67693   4.930   6.499   5.263 -0.0887 -0.3208 -0.4470
  502MOL0     C67694   4.993   6.399   5.181 -0.2195  0.0488  0.1849
  502MOL0     C67695   5.136   6.407   5.179 -0.0727 -0.6842 -0.9271
  502MOL0     C67696   5.184   6.532   5.101  0.4302  0.6212  0.1549
  502MOL0     C67697   5.284   6.506   4.994 -0.4224 -0.4397 -0.0696
  502MOL0     C67698   5.390   6.420   5.050 -0.7986  0.7940 -0.3419
  502MOL0     C67699   5.484   6.344   5.096  0.2896 -0.0366  0.0569
  502MOL0     C67700   4.824   6.502   5.465  0.3303  0.0704 -0.0307
  502MOL0     C67701   4.711   6.495   5.551  0.2109  0.0410 -0.0686
  502MOL0     C67702   4.742   6.511   5.697 -0.0882  0.9467 -0.1086
  502MOL0     H67703   4.324   6.329   5.817 -2.6330 -1.3250 -0.1571
  502MOL0     H67704   4.128   6.348   5.951 -0.4076  1.0941 -0.6170
  502MOL0     H67705   3.853   6.460   5.870 -1.2173  2.4441 -0.2507
  502MOL0     H67706   3.920   6.386   6.015 -1.3497 -0.5756 -2.2814
  502MOL0     H67707   3.708   6.593   6.005 -1.7543 -1.6896  1.0364
  502MOL0     H67708   3.805   6.568   6.151  2.9022 -2.1778  1.0317
  502MOL0     H67709   3.636   6.349   6.008  1.3701  2.3685 -0.9545
  502MOL0     H67710   3.590   6.441   6.155  0.3478 -0.1401  0.5665
  502MOL0     H67711   3.772   6.212   6.132 -0.0357 -2.1731  0.8183
  502MOL0     H67712   3.813   6.340   6.247 -3.3548  1.1777  4.2396
  502MOL0     H67713   3.587   6.318   6.343 -3.7512 -1.1016  0.1720
  502MOL0     H67714   3.551   6.202   6.209  0.2956  1.3837 -0.4154
  502MOL0     H67715   3.716   6.047   6.275  0.9901 -0.3177 -0.0724
  502MOL0     H67716   3.793   6.149   6.393  0.2197 -1.3177 -0.6319
  502MOL0     H67717   3.614   6.156   6.544  1.1855 -0.0411  0.1725
  502MOL0     H67718   3.683   6.000   6.513  0.1814 -1.6058 -2.2998
  502MOL0     H67719   3.435   6.083   6.365  0.6346 -0.4021 -0.7553
  502MOL0     H67720   3.514   5.917   6.388 -0.7570 -1.3136  2.4240
  502MOL0     H67721   3.230   6.131   6.537 -3.6722 -1.9460  0.4018
  502MOL0     H67722   3.025   6.029   6.732 -0.4466 -1.6775  2.0738
  502MOL0     H67723   3.109   5.979   6.879  1.3643 -0.7218 -0.5935
  502MOL0     H67724   3.162   6.249   6.747 -2.4712 -0.5566 -0.9623
  502MOL0     H67725   3.053   6.211   6.894  1.5951 -3.2230  5.6103
  502MOL0     H67726   3.362   6.214   6.888  1.6273  2.0426  1.6842
  502MOL0     H67727   3.270   6.110   7.001  3.2969  0.5278  0.4328
  502MOL0     H67728   3.166   6.333   7.077  0.5993  0.8082 -0.0957
  502MOL0     H67729   3.245   6.420   6.956 -0.6280 -0.4429 -1.4170
  502MOL0     H67730   3.532   6.387   7.277 -4.3726  0.0257 -1.5916
  502MOL0     H67731   3.749   6.473   7.236 -0.5044 -1.5991 -0.7341
  502MOL0     H67732   3.967   6.673   6.686 -0.8854  1.5704 -1.5763
  502MOL0     H67733   4.153   6.802   6.606  0.1720 -3.2378  0.6669
  502MOL0     H67734   4.340   6.873   6.589 -0.8013 -1.7334  0.8557
  502MOL0     H67735   4.283   7.030   6.552  0.2136 -2.0057 -1.9441
  502MOL0     H67736   4.505   7.129   6.639  0.4728  0.4679  0.0085
  502MOL0     H67737   4.550   6.964   6.689 -0.2900  1.0101  0.8362
  502MOL0     H67738   4.518   6.899   6.452  1.5221 -1.3176 -0.4027
  502MOL0     H67739   4.483   7.072   6.410  3.3315 -0.9989 -4.2489
  502MOL0     H67740   4.735   6.979   6.554 -1.3933 -0.8656  0.2384
  502MOL0     H67741   4.702   7.139   6.478 -0.9997  0.0431 -0.6262
  502MOL0     H67742   4.685   7.050   6.260 -0.4609  1.2761  0.0129
  502MOL0     H67743   4.716   6.882   6.327 -0.0523  0.4232  2.5859
  502MOL0     H67744   4.914   7.097   6.354 -0.9913  1.8030 -1.0991
  502MOL0     H67745   4.949   6.918   6.341 -3.5701 -3.4165 -0.5662
  502MOL0     H67746   4.850   7.099   6.119 -2.0984 -1.8104  0.6067
  502MOL0     H67747   4.880   6.923   6.097  3.4738 -0.6426 -0.1777
  502MOL0     H67748   5.059   7.090   6.003 -1.0628  0.3916 -0.4826
  502MOL0     H67749   5.095   7.126   6.182 -1.1673 -0.0426  0.2868
  502MOL0     H67750   4.164   7.006   6.991  0.1748  0.8246 -2.0086
  502MOL0     H67751   3.975   6.887   7.060 -0.0992  0.6165 -1.1408
  502MOL0     H67752   3.644   6.577   6.828  3.7621  0.3315  0.7190
  502MOL0     H67753   3.441   6.441   6.859  1.0966  0.1485 -1.1830
  502MOL0     H67754   4.102   6.770   5.858  0.5536 -0.8072  1.8724
  502MOL0     H67755   4.321   6.740   5.734  2.1123 -0.6732  0.4380
  502MOL0     H67756   4.505   6.344   5.322 -0.2068 -0.9945  0.6396
  502MOL0     H67757   4.708   6.366   5.185  0.1152 -2.4192  0.1458
  502MOL0     H67758   4.951   6.394   5.080  1.0456 -0.1608 -0.3518
  502MOL0     H67759   4.982   6.299   5.223 -2.4190 -0.3495 -1.1898
  502MOL0     H67760   5.173   6.309   5.146 -0.6948 -0.6442 -1.7737
  502MOL0     H67761   5.170   6.415   5.283  1.6084 -1.1108 -1.4119
  502MOL0     H67762   5.244   6.586   5.174  1.2170 -1.1107  0.8439
  502MOL0     H67763   5.095   6.584   5.064  0.2404  0.9957  1.1094
  502MOL0     H67764   5.246   6.457   4.905  0.1064  1.6043 -1.5040
  502MOL0     H67765   5.336   6.600   4.971 -0.6817  0.0200  1.1708
  502MOL0     H67766   5.555   6.268   5.122 -1.9398 -2.0050  0.7328
  502MOL0     H67767   4.914   6.546   5.508  1.3003 -3.5264  2.0748
  502MOL0     H67768   4.653   6.525   5.759 -1.4804 -2.5650 -1.0661
  502MOL0     H67769   4.795   6.419   5.723  0.7983  1.7121  0.8538
  502MOL0     H67770   4.813   6.587   5.730  1.3613 -0.1128 -0.6658
  503MOL0     O67771   2.131   0.693   1.870  0.3435  0.2034  0.8605
  503MOL0     C67772   2.143   0.786   1.788  0.6863 -0.7571 -0.4272
  503MOL0     O67773   2.243   0.875   1.800  0.3077 -0.2341  0.1822
  503MOL0     C67774   2.356   0.849   1.869  1.0199  1.4139 -0.6090
  503MOL0     C67775   2.414   0.732   1.912  0.0193  0.4260  1.0444
  503MOL0     C67776   2.529   0.727   1.989  0.1688 -0.3585  0.0551
  503MOL0     C67777   2.582   0.843   2.042 -0.3797 -0.2051 -0.5703
  503MOL0     O67778   2.692   0.833   2.124  0.0843  0.0280 -0.2496
  503MOL0     C67779   2.709   0.928   2.228 -0.3638 -0.0755 -0.1745
  503MOL0     C67780   2.783   0.883   2.353  0.0520  1.3488  0.2376
  503MOL0     C67781   2.701   0.802   2.452 -0.1050  0.1815  0.4665
  503MOL0     C67782   2.661   0.660   2.407 -0.0039 -0.4714  0.0970
  503MOL0     C67783   2.617   0.563   2.510 -0.0696  0.2639  0.5969
  503MOL0     C67784   2.740   0.504   2.586  0.3886  0.1760  0.0950
  503MOL0     C67785   2.707   0.397   2.694 -0.5883 -0.2181 -0.0287
  503MOL0     C67786   2.832   0.367   2.772  0.1323  1.2144 -0.3193
  503MOL0     N67787   2.795   0.276   2.886  0.0993 -0.4789  0.5214
  503MOL0     C67788   2.758   0.324   3.009  0.1584 -0.3481 -0.4901
  503MOL0     C67789   2.758   0.217   3.096  0.7338  0.5376  0.6045
  503MOL0     C67790   2.717   0.218   3.244 -0.5246  0.3178  0.0229
  503MOL0     C67791   2.581   0.276   3.256 -0.4291  0.8178  0.4416
  503MOL0     C67792   2.544   0.289   3.402  0.1674  0.1286 -0.3567
  503MOL0     C67793   2.496   0.151   3.469  0.4732 -0.1279 -0.1281
  503MOL0     O67794   2.467   0.186   3.607  0.5343  0.2168  0.8751
  503MOL0     C67795   2.559   0.148   3.704  0.3629  1.2001 -1.3089
  503MOL0     C67796   2.697   0.125   3.680 -0.8353  0.1186 -0.6311
  503MOL0     C67797   2.780   0.074   3.783  0.3752 -0.8925  0.2797
  503MOL0     C67798   2.730   0.077   3.921 -0.2376  0.4267  1.4401
  503MOL0     C67799   2.813   0.041   4.036  0.0853 -0.7144 -0.5677
  503MOL0     O67800   2.757   0.055   4.157  0.6851  0.3626 -0.2832
  503MOL0     C67801   2.836   0.044   4.273  0.8137 -0.7632 -0.6138
  503MOL0     C67802   2.873  -0.073   4.330  0.0144  0.4563  0.2932
  503MOL0     C67803   2.958  -0.085   4.445 -0.3324 -0.7669 -0.5393
  503MOL0     C67804   3.012   0.031   4.494  0.6127  0.0194  0.5683
  503MOL0     O67805   3.091   0.042   4.605 -0.0584  0.3067 -0.7912
  503MOL0     C67806   3.161  -0.076   4.642 -0.5930 -0.2670 -0.6008
  503MOL0     C67807   3.257  -0.053   4.762  0.4457  0.4372  0.4794
  503MOL0     C67808   3.358  -0.160   4.772  1.0126  0.0256 -0.2659
  503MOL0     C67809   3.448  -0.114   4.883 -0.2354 -0.1428 -0.3907
  503MOL0     C67810   3.388  -0.127   5.021 -0.2607  0.1090  0.8410
  503MOL0     C67811   3.500  -0.071   5.114 -0.0986 -0.4686  0.2990
  503MOL0     C67812   3.619  -0.154   5.140 -0.8775  0.6972 -0.8027
  503MOL0     C67813   3.696  -0.103   5.254 -0.5851 -0.0969 -0.1874
  503MOL0    Cl67814   3.849  -0.208   5.289  0.6419  0.0744 -0.1430
  503MOL0     C67815   2.975   0.158   4.429 -1.0825  0.3156 -0.3600
  503MOL0     C67816   2.887   0.162   4.323 -0.6481  0.1457 -0.9854
  503MOL0     O67817   2.933  -0.003   4.009 -0.1172 -0.0168  0.2700
  503MOL0     C67818   2.588   0.103   3.942 -0.1566 -0.0296 -0.3650
  503MOL0     C67819   2.511   0.135   3.840  0.2018 -0.3278  0.6251
  503MOL0     N67820   2.793   0.106   3.018  0.3457 -0.3482  0.0688
  503MOL0     N67821   2.807   0.140   2.890 -0.0340  1.3648 -0.1620
  503MOL0     C67822   2.527   0.963   1.988  0.0153 -0.7374  0.1353
  503MOL0     C67823   2.416   0.963   1.909 -1.0331 -1.1580 -0.8132
  503MOL0     C67824   2.043   0.803   1.680 -0.0826 -0.1707 -0.6355
  503MOL0     C67825   2.064   0.909   1.593  0.7734 -0.3126  0.2793
  503MOL0     C67826   1.986   0.937   1.481  0.4553  0.4703  0.5772
  503MOL0     C67827   1.877   0.865   1.456 -0.1916 -0.0259  0.9334
  503MOL0     O67828   1.789   0.900   1.355  0.0422  1.1460  0.6526
  503MOL0     C67829   1.696   0.804   1.309 -0.6666  1.4586 -0.1149
  503MOL0     C67830   1.614   0.853   1.187  0.5996  0.3206 -0.3440
  503MOL0     C67831   1.524   0.741   1.114  0.0775  0.9477  0.1757
  503MOL0     C67832   1.384   0.716   1.170 -0.2513 -0.0336 -0.1617
  503MOL0     C67833   1.399   0.667   1.304 -0.2091 -0.4812 -0.9400
  503MOL0     C67834   1.404   0.617   1.412  0.4617  0.5104 -0.9606
  503MOL0     C67835   1.847   0.760   1.549  0.4420 -0.2528  0.7302
  503MOL0     C67836   1.932   0.723   1.653  0.2838  0.3869  0.2454
  503MOL0     C67837   1.910   0.594   1.726  0.7807 -0.0789 -0.0466
  503MOL0     H67838   2.363   0.641   1.883  1.1098 -1.0231  3.4001
  503MOL0     H67839   2.583   0.635   2.010 -1.9591 -1.3811  1.3348
  503MOL0     H67840   2.757   1.016   2.185  0.3706  0.0872  0.9264
  503MOL0     H67841   2.608   0.953   2.261 -1.3787 -1.6748 -1.8844
  503MOL0     H67842   2.807   0.975   2.408 -1.5720  2.0466 -0.1679
  503MOL0     H67843   2.872   0.829   2.318 -1.6008 -2.8517  1.9473
  503MOL0     H67844   2.607   0.852   2.473  0.6006  1.2297  1.2088
  503MOL0     H67845   2.751   0.798   2.549 -1.8152  3.3648  1.6151
  503MOL0     H67846   2.576   0.675   2.340 -1.0960 -0.7192  1.3772
  503MOL0     H67847   2.742   0.623   2.344  1.0784  0.2770  1.0006
  503MOL0     H67848   2.545   0.617   2.573 -2.6352  0.7182 -2.4938
  503MOL0     H67849   2.562   0.478   2.470 -1.7777  0.1257  2.9955
  503MOL0     H67850   2.813   0.467   2.514  0.7234  2.5276 -0.8827
  503MOL0     H67851   2.794   0.583   2.639  2.8385 -0.6080 -1.1131
  503MOL0     H67852   2.666   0.309   2.644 -4.9715  0.1850  2.3603
  503MOL0     H67853   2.630   0.442   2.758  0.6363  1.0262  0.6374
  503MOL0     H67854   2.908   0.323   2.707 -0.8339  0.4632 -0.9666
  503MOL0     H67855   2.867   0.460   2.818  2.6908  1.0846 -1.7973
  503MOL0     H67856   2.752   0.430   3.031  2.8448 -0.3472  0.6862
  503MOL0     H67857   2.728   0.119   3.289 -0.2040  0.8853  1.2351
  503MOL0     H67858   2.786   0.287   3.293  0.4944  0.2601 -1.2651
  503MOL0     H67859   2.570   0.371   3.203  1.3574  1.0789  0.4843
  503MOL0     H67860   2.503   0.204   3.227  2.4056 -2.1225 -0.5441
  503MOL0     H67861   2.459   0.357   3.403  0.4142  0.4450  0.7506
  503MOL0     H67862   2.623   0.317   3.473 -1.3280 -2.2446  2.4860
  503MOL0     H67863   2.567   0.068   3.468 -1.6576 -2.0508  0.4981
  503MOL0     H67864   2.402   0.112   3.431 -2.0678  0.7905  4.4965
  503MOL0     H67865   2.746   0.132   3.584  2.5307 -0.5513  0.9007
  503MOL0     H67866   2.881   0.040   3.761 -0.1235 -0.1683 -3.8535
  503MOL0     H67867   2.834  -0.162   4.281 -0.6134  1.7073 -1.5779
  503MOL0     H67868   2.978  -0.181   4.491 -1.5796 -0.1687  1.3430
  503MOL0     H67869   3.100  -0.161   4.674 -0.6249  0.7285  2.1955
  503MOL0     H67870   3.221  -0.114   4.558 -1.6070 -5.1973  0.5880
  503MOL0     H67871   3.310   0.042   4.760  2.0078 -0.2057  3.9702
  503MOL0     H67872   3.192  -0.056   4.850 -0.6091 -0.1920 -0.2896
  503MOL0     H67873   3.306  -0.253   4.795 -0.3386 -0.1071 -3.3919
  503MOL0     H67874   3.409  -0.171   4.676 -0.2731 -2.9408 -0.6991
  503MOL0     H67875   3.479  -0.009   4.873 -2.2349  0.6328  0.8956
  503MOL0     H67876   3.535  -0.179   4.876  1.7026  1.7123  3.2819
  503MOL0     H67877   3.348  -0.227   5.041  0.1475  0.2727  2.5391
  503MOL0     H67878   3.308  -0.052   5.024 -1.1395 -0.6704 -1.1091
  503MOL0     H67879   3.537   0.027   5.081  2.1660 -1.1419  0.6803
  503MOL0     H67880   3.445  -0.040   5.204 -1.7661 -0.0710 -0.8216
  503MOL0     H67881   3.674  -0.154   5.045  0.7325  0.9664  0.0984
  503MOL0     H67882   3.593  -0.257   5.167  2.1967  0.3262  1.2502
  503MOL0     H67883   3.733  -0.004   5.223 -0.9387  0.0070 -0.2790
  503MOL0     H67884   3.634  -0.094   5.343  3.0449  4.5313  2.3270
  503MOL0     H67885   3.016   0.257   4.443  0.0102 -0.4715  3.3537
  503MOL0     H67886   2.864   0.254   4.270 -1.4757 -0.2835 -1.3917
  503MOL0     H67887   2.563   0.112   4.047  1.6542 -0.1075  0.1106
  503MOL0     H67888   2.407   0.160   3.856 -1.2968 -3.0230 -3.2468
  503MOL0     H67889   2.563   1.063   2.009  0.6450 -0.6587 -1.2055
  503MOL0     H67890   2.367   1.057   1.888  0.8695 -0.2492 -1.3752
  503MOL0     H67891   2.143   0.979   1.621 -0.8714  1.6607  0.1816
  503MOL0     H67892   2.012   1.016   1.411  3.5486  0.2150  1.2630
  503MOL0     H67893   1.628   0.779   1.391 -2.1533 -2.8355 -2.3356
  503MOL0     H67894   1.748   0.711   1.288 -1.0792  1.1230  0.3372
  503MOL0     H67895   1.682   0.900   1.115 -1.1915 -0.1522 -2.4608
  503MOL0     H67896   1.556   0.943   1.213  2.3780  1.5551 -0.4469
  503MOL0     H67897   1.584   0.652   1.090 -0.8235  0.4039 -0.0971
  503MOL0     H67898   1.493   0.792   1.022  1.8148  1.2408 -0.2882
  503MOL0     H67899   1.327   0.809   1.157  1.4886  1.0298 -0.5848
  503MOL0     H67900   1.335   0.639   1.110  0.7106 -1.1544  0.4579
  503MOL0     H67901   1.413   0.557   1.500  1.0850  1.3745 -0.4230
  503MOL0     H67902   1.769   0.688   1.527  0.9508  0.0201 -2.4807
  503MOL0     H67903   1.987   0.520   1.702 -0.4703 -1.2957 -0.4650
  503MOL0     H67904   1.901   0.610   1.834  1.9430 -1.6271  0.3226
  503MOL0     H67905   1.815   0.543   1.706  2.0237 -2.9867  0.8598
  504MOL0     O67906   7.357   5.468   7.433  0.0659  0.6169  0.1310
  504MOL0     C67907   7.289   5.446   7.536  0.0231  0.0338 -0.2237
  504MOL0     O67908   7.302   5.510   7.656 -0.0912 -0.0854  0.3435
  504MOL0     C67909   7.423   5.562   7.698 -0.4212  0.6181 -0.3731
  504MOL0     C67910   7.418   5.679   7.773  0.6154 -0.3729 -0.1723
  504MOL0     C67911   7.534   5.729   7.847 -0.6876 -0.1843 -0.5115
  504MOL0     C67912   7.656   5.659   7.831 -1.2143  0.5043 -0.0854
  504MOL0     O67913   7.772   5.690   7.907  0.9633  0.6054  0.3006
  504MOL0     C67914   7.896   5.621   7.886  0.3713  0.2775  0.5538
  504MOL0     C67915   8.001   5.682   7.979 -0.3756  0.5155  0.8268
  504MOL0     C67916   8.013   5.834   7.985  0.6281 -0.2220  0.1344
  504MOL0     C67917   8.025   5.897   7.845  0.9055 -1.2774 -0.2937
  504MOL0     C67918   8.151   5.862   7.766 -0.0841  0.0258  0.1704
  504MOL0     C67919   8.271   5.903   7.845  0.1720  0.2910  0.5365
  504MOL0     C67920   8.401   5.877   7.769  0.5483  0.4615  0.4122
  504MOL0     C67921   8.423   5.954   7.635  1.0328  0.3955 -0.0924
  504MOL0     N67922   8.535   5.895   7.556  0.2830 -0.8573  0.6297
  504MOL0     C67923   8.657   5.845   7.614  0.1433 -0.4130 -0.6073
  504MOL0     C67924   8.707   5.775   7.521 -0.8156  0.3364 -0.7768
  504MOL0     C67925   8.834   5.682   7.529 -0.1214 -0.0669  0.4036
  504MOL0     C67926   8.816   5.581   7.640  0.1871  1.3766 -0.4928
  504MOL0     C67927   8.948   5.497   7.661 -0.0292  0.2232 -0.7815
  504MOL0     C67928   9.064   5.575   7.716  0.3278  0.2283  0.1073
  504MOL0     O67929   9.188   5.513   7.684  0.5200 -0.0502 -0.2589
  504MOL0     C67930   9.299   5.545   7.769  0.0157 -0.2193  0.2278
  504MOL0     C67931   9.425   5.551   7.706 -0.5526 -1.2097 -0.0557
  504MOL0     C67932   9.536   5.588   7.784  0.3032  0.0087 -0.9573
  504MOL0     C67933   9.523   5.601   7.924 -0.6631 -0.0309  0.7225
  504MOL0     C67934   9.644   5.633   7.995 -0.8757 -0.4501 -0.3190
  504MOL0     O67935   9.769   5.626   7.928 -0.3469 -0.4680 -0.3636
  504MOL0     C67936   9.883   5.638   8.009  0.0572 -0.9006 -0.0080
  504MOL0     C67937   9.923   5.542   8.102  0.4639  0.7287  0.5138
  504MOL0     C67938  10.047   5.547   8.152  0.7811  0.3045 -0.3441
  504MOL0     C67939  10.134   5.649   8.126 -0.9855  0.0317 -1.1698
  504MOL0     O67940  10.257   5.631   8.188 -0.9659  0.6830  0.4630
  504MOL0     C67941  10.368   5.722   8.160 -0.3632  0.1913 -0.1315
  504MOL0     C67942  10.485   5.692   8.247 -0.1763  0.1611  0.1306
  504MOL0     C67943  10.615   5.764   8.217  0.3267  0.2955  1.0014
  504MOL0     C67944  10.693   5.696   8.092 -0.7401  0.2749 -0.5172
  504MOL0     C67945  10.836   5.745   8.082 -0.2435 -1.4690  0.5832
  504MOL0     C67946  10.908   5.654   7.978 -0.8500 -0.3560  1.0572
  504MOL0     C67947  11.057   5.696   7.968  0.1713  0.8767 -0.0698
  504MOL0     C67948  11.133   5.606   7.865  0.6859  0.1192  0.1970
  504MOL0    Cl67949  11.053   5.644   7.703 -0.1681 -1.0103 -0.1192
  504MOL0     C67950  10.102   5.751   8.040 -0.0918  0.1856 -0.5747
  504MOL0     C67951   9.968   5.752   7.991 -0.3610  0.1040 -0.4223
  504MOL0     O67952   9.627   5.635   8.121 -0.2044  0.4786  0.3613
  504MOL0     C67953   9.403   5.584   7.983  0.5375 -1.8487 -0.4096
  504MOL0     C67954   9.286   5.554   7.905 -0.3794  0.2604 -0.2206
  504MOL0     N67955   8.645   5.801   7.401 -0.7812 -0.5798  0.4077
  504MOL0     N67956   8.538   5.871   7.419 -0.0097 -0.9374  1.0305
  504MOL0     C67957   7.656   5.545   7.751 -0.2242 -0.3259 -0.9225
  504MOL0     C67958   7.545   5.495   7.682  0.0883 -0.1143  0.8275
  504MOL0     C67959   7.201   5.335   7.523  0.2764  0.3625  0.4437
  504MOL0     C67960   7.074   5.346   7.587  0.4810  0.6205 -0.2362
  504MOL0     C67961   6.975   5.255   7.554 -0.2000 -0.4188  0.2947
  504MOL0     C67962   6.997   5.146   7.470 -0.3010  0.4859  0.1700
  504MOL0     O67963   6.882   5.067   7.445  0.4606  0.1955 -0.4656
  504MOL0     C67964   6.870   4.982   7.327  0.1042 -0.0107  0.3197
  504MOL0     C67965   6.754   5.039   7.245 -0.7139 -0.7282  0.4747
  504MOL0     C67966   6.718   4.936   7.136  0.4793  0.0539 -0.4167
  504MOL0     C67967   6.577   4.971   7.078 -0.9826 -0.3714 -1.0346
  504MOL0     C67968   6.535   4.898   6.964  0.3576 -0.3302  0.3706
  504MOL0     C67969   6.506   4.833   6.868  0.6738 -0.7261  0.4185
  504MOL0     C67970   7.122   5.126   7.420 -0.4501  0.5247  0.0727
  504MOL0     C67971   7.228   5.218   7.449 -0.1917  0.1630  0.1724
  504MOL0     C67972   7.363   5.170   7.392 -0.5899 -0.7014 -0.4986
  504MOL0     H67973   7.322   5.731   7.771 -0.5675 -2.2910  1.9327
  504MOL0     H67974   7.514   5.816   7.909 -0.6553  0.6723 -1.6694
  504MOL0     H67975   7.893   5.517   7.918 -0.3293  0.1238  0.0002
  504MOL0     H67976   7.933   5.623   7.783 -2.6957  2.9077 -0.6573
  504MOL0     H67977   8.104   5.652   7.957 -0.6281 -0.2691  0.7151
  504MOL0     H67978   7.983   5.643   8.080  0.0899 -1.3611  0.2212
  504MOL0     H67979   8.098   5.871   8.044 -1.7854  1.5284  2.7708
  504MOL0     H67980   7.919   5.856   8.036 -0.5356 -3.7169 -0.2913
  504MOL0     H67981   7.946   5.858   7.779  1.0192 -2.6307  0.3450
  504MOL0     H67982   8.027   6.006   7.851 -1.3001 -0.8642 -3.7856
  504MOL0     H67983   8.154   5.756   7.740  2.2882  0.3825 -1.3214
  504MOL0     H67984   8.142   5.918   7.672 -2.0679  1.8317  1.3483
  504MOL0     H67985   8.262   6.009   7.870  0.3282  0.4204  0.0671
  504MOL0     H67986   8.276   5.841   7.934 -2.0894  0.9001  1.1396
  504MOL0     H67987   8.424   5.769   7.772  1.1429  0.5484  3.9910
  504MOL0     H67988   8.480   5.925   7.827  3.0524  0.3026 -2.6041
  504MOL0     H67989   8.329   5.951   7.579  0.2823 -2.8930  1.1055
  504MOL0     H67990   8.447   6.060   7.642  1.7827  0.6752 -4.2152
  504MOL0     H67991   8.682   5.853   7.719  0.5044  1.8055 -0.8093
  504MOL0     H67992   8.844   5.626   7.436  0.2519  0.8115 -0.0992
  504MOL0     H67993   8.922   5.746   7.537 -0.0845 -0.0419 -0.1681
  504MOL0     H67994   8.777   5.638   7.725  1.1102  1.4550 -0.1045
  504MOL0     H67995   8.731   5.522   7.604  2.6739 -0.7973 -3.3149
  504MOL0     H67996   8.978   5.454   7.565  1.2259  1.4725 -0.9814
  504MOL0     H67997   8.919   5.417   7.730 -3.7576  1.0196 -1.1926
  504MOL0     H67998   9.045   5.583   7.823 -2.4023  1.1306 -0.3664
  504MOL0     H67999   9.065   5.679   7.684  0.8883 -0.1659 -1.2283
  504MOL0     H68000   9.441   5.553   7.599  3.6542  1.1917  0.4037
  504MOL0     H68001   9.629   5.617   7.735  1.1803 -1.4424 -0.2186
  504MOL0     H68002   9.855   5.470   8.147  0.2085  2.2923  2.7769
  504MOL0     H68003  10.084   5.468   8.217 -0.4388 -1.9641 -2.2632
  504MOL0     H68004  10.397   5.701   8.057 -0.8023  0.5987 -0.3436
  504MOL0     H68005  10.334   5.825   8.178 -2.2142 -0.4328  0.1905
  504MOL0     H68006  10.454   5.702   8.352 -0.7326  0.5785 -0.0722
  504MOL0     H68007  10.509   5.585   8.239  1.1865  0.4890 -0.4730
  504MOL0     H68008  10.613   5.872   8.201  1.2010 -0.0462 -2.2482
  504MOL0     H68009  10.675   5.753   8.308  2.7130 -3.3251 -0.7522
  504MOL0     H68010  10.634   5.729   8.006 -1.9203  1.2138  0.6098
  504MOL0     H68011  10.702   5.587   8.098  1.5942  0.5001  1.4443
  504MOL0     H68012  10.889   5.749   8.178 -1.4406  0.2250  1.2333
  504MOL0     H68013  10.820   5.847   8.043  0.3163 -0.8372  1.9324
  504MOL0     H68014  10.896   5.555   8.023  0.8067 -0.1044  2.1395
  504MOL0     H68015  10.857   5.668   7.882 -3.2985  4.4780  2.7556
  504MOL0     H68016  11.108   5.680   8.064 -2.9674 -1.8276  1.3512
  504MOL0     H68017  11.063   5.800   7.933  1.7946 -0.9313 -6.4716
  504MOL0     H68018  11.237   5.641   7.859  0.7164 -0.2252 -3.0388
  504MOL0     H68019  11.145   5.501   7.895 -0.2833 -0.4313 -1.2587
  504MOL0     H68020  10.169   5.831   8.009 -0.6475  0.7438 -0.3481
  504MOL0     H68021   9.936   5.811   7.906 -0.8212 -0.0639 -0.3674
  504MOL0     H68022   9.386   5.597   8.089 -0.2922 -1.4409 -0.5838
  504MOL0     H68023   9.191   5.538   7.956  0.7059  0.6630  2.0405
  504MOL0     H68024   7.749   5.489   7.749  1.3722  2.0865  0.4302
  504MOL0     H68025   7.540   5.406   7.621 -1.4101 -0.9188  2.0558
  504MOL0     H68026   7.046   5.430   7.650 -1.5650 -1.3368  1.6554
  504MOL0     H68027   6.875   5.272   7.594  0.3702  0.4583  1.4237
  504MOL0     H68028   6.863   4.876   7.356  1.1533 -0.1472  0.0943
  504MOL0     H68029   6.957   4.996   7.262  0.5115  2.1501  1.2595
  504MOL0     H68030   6.792   5.136   7.210  1.3464 -0.6464  2.6978
  504MOL0     H68031   6.666   5.067   7.305 -0.1758  2.0614  0.1210
  504MOL0     H68032   6.723   4.835   7.176 -1.4701 -0.0996 -0.4677
  504MOL0     H68033   6.788   4.959   7.055  3.1042 -3.1101  0.7243
  504MOL0     H68034   6.507   4.959   7.161  1.4673  0.9269  1.3624
  504MOL0     H68035   6.568   5.077   7.051  1.4654 -0.0661 -0.9217
  504MOL0     H68036   6.478   4.780   6.780 -3.9586  1.1249  0.5228
  504MOL0     H68037   7.150   5.045   7.353  0.5767  1.9288 -1.2681
  504MOL0     H68038   7.374   5.063   7.409 -0.4787 -0.6865 -0.4772
  504MOL0     H68039   7.364   5.177   7.283 -1.0126 -0.8970 -0.5143
  504MOL0     H68040   7.444   5.234   7.430 -0.4389 -0.3032 -1.4665
  505MOL0     O68041   7.118   8.399   1.044  0.2147  0.6522 -0.0889
  505MOL0     C68042   7.173   8.472   0.960 -0.6184 -0.2535  1.0764
  505MOL0     O68043   7.295   8.453   0.902 -0.0147  0.2648 -0.3429
  505MOL0     C68044   7.373   8.346   0.932  0.1945  0.4419 -0.0050
  505MOL0     C68045   7.427   8.326   1.067  0.3308 -0.5436 -0.2269
  505MOL0     C68046   7.520   8.219   1.087  0.5279 -1.2414 -1.2547
  505MOL0     C68047   7.537   8.131   0.985 -0.6433  0.4085  0.7752
  505MOL0     O68048   7.628   8.033   0.976  0.1627 -0.2651 -0.3955
  505MOL0     C68049   7.689   7.989   1.100  0.2123  0.5890 -0.0501
  505MOL0     C68050   7.759   7.851   1.073  0.2098 -0.2896  0.4280
  505MOL0     C68051   7.839   7.844   0.950 -0.1102  0.3422 -0.0937
  505MOL0     C68052   7.950   7.947   0.938 -0.2176 -0.5058 -0.6510
  505MOL0     C68053   8.075   7.906   0.863  0.8131  0.7274  0.3894
  505MOL0     C68054   8.216   7.938   0.923  0.0270  0.2059 -0.1148
  505MOL0     C68055   8.342   7.869   0.865 -0.0859  0.5049  0.3093
  505MOL0     C68056   8.335   7.884   0.712 -0.1201 -0.1698  0.4787
  505MOL0     N68057   8.461   7.902   0.649 -0.3235 -1.2975  0.0904
  505MOL0     C68058   8.536   7.810   0.581 -0.3038 -0.9016 -0.8435
  505MOL0     C68059   8.653   7.868   0.552 -0.2891 -0.5671 -0.0670
  505MOL0     C68060   8.760   7.799   0.464  0.1592  0.4887  0.5078
  505MOL0     C68061   8.849   7.715   0.550 -0.2270 -0.5618  0.0956
  505MOL0     C68062   8.910   7.788   0.665 -0.1672  0.6261  0.1007
  505MOL0     C68063   9.030   7.888   0.643  1.1599 -0.9432 -0.5393
  505MOL0     O68064   9.133   7.820   0.580  0.5226  0.4472  0.3069
  505MOL0     C68065   9.262   7.845   0.614  0.5100 -0.1973 -1.2795
  505MOL0     C68066   9.317   7.949   0.686 -0.2087 -0.4270 -0.0666
  505MOL0     C68067   9.458   7.973   0.683 -0.4480  0.2292  0.3950
  505MOL0     C68068   9.538   7.888   0.619 -1.3350  0.0051 -0.1412
  505MOL0     C68069   9.688   7.901   0.631 -0.4340  1.2281  0.1935
  505MOL0     O68070   9.760   7.810   0.571  1.0102  0.4655 -0.2063
  505MOL0     C68071   9.899   7.795   0.585  0.1119 -0.3358 -0.0701
  505MOL0     C68072   9.978   7.876   0.509 -0.0992  0.3270 -0.2594
  505MOL0     C68073  10.114   7.866   0.522  0.2093 -0.1873 -0.4305
  505MOL0     C68074  10.178   7.776   0.603 -0.3065 -1.3284  0.3757
  505MOL0     O68075  10.307   7.778   0.641 -0.0037  0.1024  0.4240
  505MOL0     C68076  10.405   7.869   0.587 -0.4384  1.0241  0.6263
  505MOL0     C68077  10.401   8.020   0.625 -0.4737 -0.1571 -0.9521
  505MOL0     C68078  10.530   8.094   0.583  0.2775 -0.2941 -0.7340
  505MOL0     C68079  10.651   8.045   0.680 -0.6767 -0.5353  0.4336
  505MOL0     C68080  10.748   8.148   0.734 -0.1752  0.5229 -0.1550
  505MOL0     C68081  10.816   8.219   0.623  0.7402 -0.5280  0.2656
  505MOL0     C68082  10.909   8.315   0.677  0.8001 -0.0884  0.4232
  505MOL0     C68083  11.030   8.268   0.756 -0.2992  0.5197  0.4731
  505MOL0    Cl68084  11.149   8.208   0.655 -0.0625 -0.1535  0.1860
  505MOL0     C68085  10.097   7.689   0.666  0.2382  0.3730  0.4302
  505MOL0     C68086   9.957   7.690   0.659  0.1349  0.7465  0.6291
  505MOL0     O68087   9.738   7.998   0.689 -0.6630  0.0977  0.1910
  505MOL0     C68088   9.478   7.779   0.553 -0.0226  0.2883 -0.3854
  505MOL0     C68089   9.340   7.750   0.553 -0.5008 -0.8663  0.1445
  505MOL0     N68090   8.655   8.006   0.597  0.4325  0.0992  0.3885
  505MOL0     N68091   8.543   8.014   0.649  0.8378 -0.4989 -0.2808
  505MOL0     C68092   7.475   8.147   0.858 -0.0964  0.0005 -0.1293
  505MOL0     C68093   7.396   8.254   0.830  0.3402 -0.1711  0.6741
  505MOL0     C68094   7.105   8.604   0.924  0.2159  0.1619  0.8727
  505MOL0     C68095   7.164   8.687   0.826 -0.1619  0.0179  0.0826
  505MOL0     C68096   7.112   8.809   0.787 -0.3975 -1.0770 -0.2827
  505MOL0     C68097   6.995   8.860   0.842  0.2041  0.1923  0.2201
  505MOL0     O68098   6.931   8.972   0.810 -0.3381  0.0382 -0.7243
  505MOL0     C68099   6.963   9.056   0.699 -0.3489  0.5328 -0.0629
  505MOL0     C68100   6.883   9.188   0.706  0.6190  0.1013  0.4958
  505MOL0     C68101   6.737   9.166   0.744  0.5687 -0.3962  0.4926
  505MOL0     C68102   6.667   9.303   0.717  0.1542  0.0992  0.1014
  505MOL0     C68103   6.733   9.419   0.776  0.0133  0.8001  0.3158
  505MOL0     C68104   6.788   9.513   0.840  0.7474  0.1937 -0.1188
  505MOL0     C68105   6.932   8.772   0.933  0.1686 -0.3381  0.1407
  505MOL0     C68106   6.984   8.651   0.979 -0.1209 -0.0048  0.1534
  505MOL0     C68107   6.917   8.583   1.093 -0.0376  0.1011 -0.5249
  505MOL0     H68108   7.398   8.395   1.145  0.0633  2.1570 -2.5334
  505MOL0     H68109   7.578   8.208   1.178 -1.6073 -0.2642  0.3117
  505MOL0     H68110   7.763   8.056   1.144  2.5574 -0.4258 -2.1412
  505MOL0     H68111   7.603   7.983   1.167 -0.4327  2.6816 -0.6004
  505MOL0     H68112   7.670   7.789   1.055 -0.3767  0.5945  0.2001
  505MOL0     H68113   7.820   7.821   1.158 -0.7530  0.9204  1.5859
  505MOL0     H68114   7.771   7.849   0.865  0.1108  3.5278 -0.2153
  505MOL0     H68115   7.886   7.745   0.953 -0.8597 -0.0012  0.4678
  505MOL0     H68116   7.913   8.045   0.905 -0.9905 -0.7333 -0.4759
  505MOL0     H68117   7.979   7.962   1.043 -3.5777 -0.6567  0.4022
  505MOL0     H68118   8.062   7.797   0.859  1.0705  0.4363  4.3069
  505MOL0     H68119   8.078   7.949   0.762  1.8670 -0.1035  0.0419
  505MOL0     H68120   8.233   8.046   0.927  1.5947 -0.0573  2.3384
  505MOL0     H68121   8.211   7.916   1.030 -2.2065 -1.5165 -0.4875
  505MOL0     H68122   8.351   7.764   0.896  0.0849 -0.4124 -2.5753
  505MOL0     H68123   8.435   7.915   0.899  0.6607 -0.8193  0.1451
  505MOL0     H68124   8.268   7.806   0.674  2.1269 -2.8575  1.5979
  505MOL0     H68125   8.289   7.979   0.683 -0.1124 -0.8472 -2.0538
  505MOL0     H68126   8.503   7.708   0.563 -1.8983 -0.3618 -1.1239
  505MOL0     H68127   8.709   7.733   0.393 -1.0425  0.0011  1.7739
  505MOL0     H68128   8.825   7.868   0.410  0.0350 -0.1493 -0.4940
  505MOL0     H68129   8.796   7.626   0.587  0.9689 -1.8006 -1.0692
  505MOL0     H68130   8.922   7.659   0.491  2.2257  2.9349 -0.4527
  505MOL0     H68131   8.962   7.717   0.730 -1.8213  1.4901  2.5152
  505MOL0     H68132   8.844   7.837   0.737 -0.5737  1.1815 -0.6337
  505MOL0     H68133   9.064   7.922   0.741  0.0455 -1.0947 -0.0831
  505MOL0     H68134   8.994   7.972   0.583  0.7898 -0.7710 -0.0831
  505MOL0     H68135   9.265   8.019   0.751  0.7682  0.5758 -0.3316
  505MOL0     H68136   9.490   8.062   0.736  1.6967  0.1302 -0.6202
  505MOL0     H68137   9.945   7.964   0.454  0.2962 -0.9635 -2.7095
  505MOL0     H68138  10.179   7.939   0.474  0.4795 -1.2610 -1.7381
  505MOL0     H68139  10.506   7.845   0.621 -0.0252  0.3546 -0.9590
  505MOL0     H68140  10.418   7.843   0.481  2.0504 -0.0802  1.1256
  505MOL0     H68141  10.312   8.062   0.576 -0.6358  0.9708  0.2654
  505MOL0     H68142  10.388   8.031   0.733 -2.6469  0.4195 -1.2091
  505MOL0     H68143  10.552   8.062   0.481  0.8988  0.0840 -0.7225
  505MOL0     H68144  10.502   8.200   0.590 -2.0071 -0.5777 -3.5002
  505MOL0     H68145  10.706   7.962   0.636 -1.2051 -1.9310  2.3038
  505MOL0     H68146  10.605   7.999   0.768 -3.1155 -2.7320 -1.8281
  505MOL0     H68147  10.820   8.092   0.794  0.2150  0.9202 -0.2524
  505MOL0     H68148  10.685   8.217   0.791 -1.8128 -0.0764 -1.1383
  505MOL0     H68149  10.876   8.155   0.558  1.4033  0.3082  0.0202
  505MOL0     H68150  10.749   8.271   0.554 -0.0750 -1.1830  0.5634
  505MOL0     H68151  10.860   8.392   0.737 -2.6069 -1.2159 -0.6733
  505MOL0     H68152  10.949   8.373   0.593  1.2783  0.9992  1.3697
  505MOL0     H68153  11.071   8.342   0.825 -2.0929  0.5829  1.5309
  505MOL0     H68154  10.997   8.191   0.826  1.3088 -1.6722 -1.0374
  505MOL0     H68155  10.147   7.613   0.725 -0.3628  0.5160  1.1243
  505MOL0     H68156   9.901   7.621   0.723  2.7570 -1.7384  0.4518
  505MOL0     H68157   9.542   7.707   0.505 -0.6531 -1.6007  1.4275
  505MOL0     H68158   9.297   7.680   0.482  2.0792 -2.4435 -0.0206
  505MOL0     H68159   7.502   8.072   0.785 -1.9980 -0.6138 -0.2431
  505MOL0     H68160   7.343   8.277   0.738 -0.4553 -1.2884  0.8290
  505MOL0     H68161   7.255   8.648   0.781 -1.5820 -2.0893 -1.1248
  505MOL0     H68162   7.168   8.868   0.715 -0.2304  1.0312  1.4345
  505MOL0     H68163   6.936   9.008   0.604 -3.2894 -0.5200  1.1921
  505MOL0     H68164   7.070   9.078   0.702 -0.0682 -0.8852  1.2892
  505MOL0     H68165   6.905   9.238   0.611  0.8579  0.3624  0.6851
  505MOL0     H68166   6.932   9.245   0.786  1.5996 -2.6275  1.9921
  505MOL0     H68167   6.730   9.148   0.852  0.0345  2.3909  0.9815
  505MOL0     H68168   6.698   9.081   0.687  1.9635  0.9287 -2.6552
  505MOL0     H68169   6.665   9.322   0.609  0.2487  2.8967  0.4944
  505MOL0     H68170   6.567   9.310   0.760  0.5257  0.9714  0.8671
  505MOL0     H68171   6.831   9.599   0.888 -2.3116  0.1618  3.1146
  505MOL0     H68172   6.833   8.806   0.960 -1.3015 -0.2819 -4.5606
  505MOL0     H68173   6.832   8.645   1.123  1.2114  0.6873  2.0860
  505MOL0     H68174   6.878   8.486   1.061  1.1509  0.4076 -3.1426
  505MOL0     H68175   6.992   8.578   1.172 -1.0943 -0.3964  0.4866
  506MOL0     O68176   4.348   9.189   6.439 -0.6596 -0.4941 -0.1599
  506MOL0     C68177   4.321   9.307   6.458  0.5865  0.4441 -0.2848
  506MOL0     O68178   4.383   9.387   6.551 -0.2586  0.6066 -0.6840
  506MOL0     C68179   4.423   9.318   6.667 -0.1578 -0.3123  0.5392
  506MOL0     C68180   4.553   9.341   6.716  0.0526 -0.0661  0.3255
  506MOL0     C68181   4.593   9.277   6.827 -0.2684  0.1516  0.1488
  506MOL0     C68182   4.507   9.203   6.902 -0.3460 -0.5137  0.0948
  506MOL0     O68183   4.552   9.152   7.022 -0.0858  0.4667 -0.4319
  506MOL0     C68184   4.685   9.171   7.062  0.0849  0.5860  0.1796
  506MOL0     C68185   4.706   9.124   7.209  0.3268 -0.7176  0.2132
  506MOL0     C68186   4.854   9.115   7.247  0.5614 -0.6692 -0.4612
  506MOL0     C68187   4.865   9.101   7.399  0.0406 -0.3303 -0.0184
  506MOL0     C68188   5.015   9.105   7.445  0.3611 -0.4948  0.4121
  506MOL0     C68189   5.066   9.239   7.481 -0.4257  0.7597 -0.4511
  506MOL0     C68190   5.208   9.229   7.556  0.2593 -0.0454 -0.8462
  506MOL0     C68191   5.278   9.360   7.564  0.1982  0.5557  0.0257
  506MOL0     N68192   5.401   9.346   7.647 -0.8378  0.3878  0.6981
  506MOL0     C68193   5.505   9.428   7.610  0.4581  0.0683 -0.6422
  506MOL0     C68194   5.573   9.442   7.723 -1.3556 -0.4023 -0.5709
  506MOL0     C68195   5.690   9.541   7.734 -1.0687 -0.6047  0.8779
  506MOL0     C68196   5.683   9.680   7.817  0.0440  1.0627  0.1021
  506MOL0     C68197   5.556   9.762   7.790 -1.0063  0.6458 -0.1608
  506MOL0     C68198   5.576   9.909   7.838  1.0338 -0.1299 -0.2573
  506MOL0     O68199   5.689   9.974   7.788 -0.4280 -0.8595  0.8362
  506MOL0     C68200   5.668  10.107   7.751 -0.5156  0.0017 -0.2406
  506MOL0     C68201   5.599  10.201   7.832  0.0400 -0.8652  0.3221
  506MOL0     C68202   5.602  10.337   7.804  0.7705  0.4125  0.3834
  506MOL0     C68203   5.665  10.382   7.691 -0.7972  0.0321  0.2741
  506MOL0     C68204   5.656  10.526   7.640  0.1732 -0.4343 -0.7112
  506MOL0     O68205   5.706  10.559   7.514 -0.5660  0.4146 -1.2644
  506MOL0     C68206   5.713  10.692   7.477  0.4760 -0.6041  0.5001
  506MOL0     C68207   5.790  10.789   7.542 -0.2129 -0.2147 -0.2677
  506MOL0     C68208   5.784  10.931   7.520 -0.4123  0.4377 -0.5750
  506MOL0     C68209   5.688  10.981   7.429 -0.4086  0.1143  0.4698
  506MOL0     O68210   5.672  11.118   7.392  0.0684  0.1481 -0.1295
  506MOL0     C68211   5.752  11.219   7.446 -0.1486 -0.7009 -0.4370
  506MOL0     C68212   5.743  11.358   7.386 -0.7862  0.2431  0.2664
  506MOL0     C68213   5.623  11.439   7.440 -0.1737  0.0898 -0.5044
  506MOL0     C68214   5.642  11.495   7.582  0.4726  0.8119  0.6040
  506MOL0     C68215   5.525  11.581   7.638 -0.5624 -0.0651  0.4313
  506MOL0     C68216   5.390  11.519   7.637 -0.4234  0.5534 -0.4850
  506MOL0     C68217   5.280  11.612   7.707  0.3134  0.6357 -0.4990
  506MOL0     C68218   5.142  11.554   7.675 -0.3417 -0.0733  0.0366
  506MOL0    Cl68219   5.118  11.563   7.488 -0.7033 -0.1030 -0.3539
  506MOL0     C68220   5.619  10.885   7.360  0.2934 -0.3648  0.3479
  506MOL0     C68221   5.619  10.743   7.390 -0.0819  0.0081  0.0544
  506MOL0     O68222   5.601  10.608   7.709  0.5519 -0.4987 -0.0286
  506MOL0     C68223   5.728  10.292   7.604  0.0140 -0.1064 -1.1711
  506MOL0     C68224   5.744  10.155   7.640 -0.8852  0.1311 -0.2997
  506MOL0     N68225   5.522   9.363   7.828  0.3647  0.4022 -0.3836
  506MOL0     N68226   5.416   9.303   7.777  0.4135  0.0844 -0.6105
  506MOL0     C68227   4.376   9.176   6.857 -0.9629 -0.0616 -0.3499
  506MOL0     C68228   4.341   9.237   6.738 -0.5289 -0.1205 -0.1627
  506MOL0     C68229   4.224   9.364   6.372  0.2940 -0.0141 -0.2694
  506MOL0     C68230   4.217   9.501   6.351  0.2973 -0.1117 -1.1889
  506MOL0     C68231   4.112   9.569   6.286 -0.0516 -0.3141  0.2374
  506MOL0     C68232   4.010   9.490   6.227  0.6229 -0.3570 -0.2567
  506MOL0     O68233   3.895   9.531   6.160  0.3992  0.7043 -0.8555
  506MOL0     C68234   3.859   9.666   6.130  0.3870  1.1693  0.6608
  506MOL0     C68235   3.726   9.663   6.046  0.0209 -0.8056  0.8344
  506MOL0     C68236   3.648   9.797   6.026 -0.2415 -0.4443 -0.4012
  506MOL0     C68237   3.534   9.781   5.926 -0.2094  0.1671 -0.6132
  506MOL0     C68238   3.477   9.908   5.878 -0.6017  0.1331 -0.3850
  506MOL0     C68239   3.432  10.015   5.842 -0.5911 -0.8324  0.5841
  506MOL0     C68240   4.020   9.353   6.236  0.2270  0.4437 -0.0301
  506MOL0     C68241   4.126   9.290   6.307  0.9524 -0.3026 -0.2824
  506MOL0     C68242   4.117   9.142   6.310 -1.2309 -0.1066 -0.3936
  506MOL0     H68243   4.613   9.415   6.663  0.3528 -1.0744 -0.7893
  506MOL0     H68244   4.691   9.311   6.861  0.0516 -0.2741 -0.3294
  506MOL0     H68245   4.744   9.114   6.990 -0.5405  2.5503 -2.0226
  506MOL0     H68246   4.716   9.276   7.073  0.7326  0.2510  1.9177
  506MOL0     H68247   4.658   9.027   7.216 -0.5091 -0.6603 -2.9620
  506MOL0     H68248   4.655   9.190   7.280 -2.9071 -1.3731 -1.3349
  506MOL0     H68249   4.903   9.207   7.214  1.7733 -1.2680 -0.3913
  506MOL0     H68250   4.895   9.032   7.189  1.2066  1.0963 -2.6742
  506MOL0     H68251   4.818   9.191   7.442  1.3336 -0.0670  0.8944
  506MOL0     H68252   4.804   9.019   7.437 -1.8708  1.1998  0.4252
  506MOL0     H68253   5.023   9.034   7.528 -1.8504 -1.1785  0.1153
  506MOL0     H68254   5.063   9.065   7.355  0.1049 -0.1433  0.1153
  506MOL0     H68255   5.086   9.289   7.386  1.0308  0.7820 -0.1514
  506MOL0     H68256   4.990   9.300   7.530 -0.2826  1.3375 -0.9382
  506MOL0     H68257   5.263   9.154   7.498 -0.0141  0.1535 -1.3678
  506MOL0     H68258   5.192   9.199   7.660  0.4625 -2.6717 -1.4905
  506MOL0     H68259   5.299   9.403   7.465  0.3406 -0.0293 -0.2028
  506MOL0     H68260   5.214   9.425   7.625 -1.7114 -1.2066  0.0289
  506MOL0     H68261   5.538   9.464   7.513 -0.8180  2.6291 -0.2264
  506MOL0     H68262   5.771   9.488   7.784  1.6090  2.3376 -0.0726
  506MOL0     H68263   5.727   9.573   7.636  3.0696  1.3483  2.8419
  506MOL0     H68264   5.677   9.656   7.923 -3.8781 -1.3353 -0.4737
  506MOL0     H68265   5.779   9.731   7.802  2.9735 -3.9108 -0.2908
  506MOL0     H68266   5.465   9.718   7.832 -1.6564  0.9890 -1.1596
  506MOL0     H68267   5.535   9.750   7.683  0.1796  0.2542 -0.3614
  506MOL0     H68268   5.584   9.902   7.946 -0.7457 -0.3752 -0.1006
  506MOL0     H68269   5.481   9.955   7.806  2.3547  0.3589 -3.9578
  506MOL0     H68270   5.552  10.177   7.926  2.1941 -3.9098  0.7791
  506MOL0     H68271   5.544  10.407   7.863  0.8877  1.1682 -0.3740
  506MOL0     H68272   5.861  10.767   7.621  1.9197  1.7775 -1.4945
  506MOL0     H68273   5.853  10.988   7.582  0.1623  1.5449 -2.1595
  506MOL0     H68274   5.741  11.221   7.555 -2.6158 -1.8294 -0.6154
  506MOL0     H68275   5.856  11.196   7.420 -0.5139 -2.9408 -0.0762
  506MOL0     H68276   5.842  11.403   7.399  0.4161 -1.0985 -2.9874
  506MOL0     H68277   5.738  11.350   7.277  1.0439 -0.5553  0.2094
  506MOL0     H68278   5.615  11.528   7.376 -0.8263  0.9030  0.6691
  506MOL0     H68279   5.538  11.372   7.437  0.7165 -1.0725 -0.4575
  506MOL0     H68280   5.734  11.553   7.572  2.5790 -2.4659 -0.7213
  506MOL0     H68281   5.662  11.409   7.646  2.2474 -1.8080 -3.0984
  506MOL0     H68282   5.515  11.677   7.586  0.4788 -0.3206 -0.2616
  506MOL0     H68283   5.568  11.607   7.735  2.6186 -0.0737 -0.8585
  506MOL0     H68284   5.366  11.510   7.531 -3.6659  1.4726  0.0308
  506MOL0     H68285   5.409  11.420   7.678  1.3862  2.3031  3.4330
  506MOL0     H68286   5.275  11.714   7.667  3.7863  0.9282 -0.4780
  506MOL0     H68287   5.295  11.609   7.816  1.2738 -0.9242 -0.6509
  506MOL0     H68288   5.160  11.449   7.702 -1.6494 -0.2887  0.1457
  506MOL0     H68289   5.057  11.596   7.728 -0.6774 -0.2519 -0.3539
  506MOL0     H68290   5.551  10.907   7.279  1.6930 -1.9641 -1.3483
  506MOL0     H68291   5.565  10.675   7.325  0.8218 -1.8499  1.1727
  506MOL0     H68292   5.792  10.328   7.525  1.5263  1.7891  0.7993
  506MOL0     H68293   5.812  10.087   7.589 -0.3173  0.0492  0.5352
  506MOL0     H68294   4.313   9.118   6.925 -2.2311  0.9576 -0.6150
  506MOL0     H68295   4.250   9.203   6.690 -0.6389  0.6692 -0.5267
  506MOL0     H68296   4.294   9.568   6.389 -0.2193 -0.3675  0.4191
  506MOL0     H68297   4.114   9.676   6.269  1.6149 -0.3440  0.1169
  506MOL0     H68298   3.937   9.724   6.081 -2.5480  2.8669 -2.4016
  506MOL0     H68299   3.826   9.712   6.224 -0.4206 -2.1221  2.1454
  506MOL0     H68300   3.656   9.585   6.078 -0.1106 -0.7026  0.7981
  506MOL0     H68301   3.751   9.630   5.945 -2.8123  1.5575 -0.8164
  506MOL0     H68302   3.703   9.877   5.977 -2.8232 -0.2040 -3.1957
  506MOL0     H68303   3.613   9.821   6.127  0.7341 -3.4677  0.7788
  506MOL0     H68304   3.567   9.725   5.838 -1.4485 -0.1287 -0.9027
  506MOL0     H68305   3.450   9.722   5.965 -1.4421  1.9118 -0.5452
  506MOL0     H68306   3.400  10.113   5.815 -0.0030 -1.0922 -1.1542
  506MOL0     H68307   3.949   9.289   6.185 -0.4063  0.0695  1.2782
  506MOL0     H68308   4.103   9.098   6.409 -2.3105  0.5509 -0.2423
  506MOL0     H68309   4.031   9.107   6.252 -2.3343  1.5104  0.2320
  506MOL0     H68310   4.214   9.110   6.270 -0.3573  0.4159  1.2145
  507MOL0     O68311   7.497   4.957   3.025 -0.0813  0.4048  0.1234
  507MOL0     C68312   7.565   4.903   3.114  0.2016  0.3704  0.2558
  507MOL0     O68313   7.658   4.962   3.195 -0.0300 -0.0725 -0.0786
  507MOL0     C68314   7.678   5.099   3.193  0.5675 -0.2534  0.4247
  507MOL0     C68315   7.563   5.187   3.210 -0.2189 -0.1793  0.7726
  507MOL0     C68316   7.583   5.326   3.187 -0.1239 -0.2507  0.7304
  507MOL0     C68317   7.704   5.381   3.163  0.1942 -0.0432 -0.3047
  507MOL0     O68318   7.718   5.510   3.127  0.6704 -0.3035  0.4979
  507MOL0     C68319   7.648   5.602   3.213  0.4889 -0.3836 -0.1315
  507MOL0     C68320   7.661   5.743   3.152 -0.0675 -0.1745 -0.0851
  507MOL0     C68321   7.566   5.842   3.235 -0.4582 -0.7350 -0.6022
  507MOL0     C68322   7.574   5.996   3.207 -0.1701  0.2987  0.2460
  507MOL0     C68323   7.456   6.056   3.287 -0.5434 -0.4240  0.9232
  507MOL0     C68324   7.463   6.216   3.279 -0.5423 -0.1385 -0.7812
  507MOL0     C68325   7.359   6.285   3.365  0.1355  0.5410 -0.3061
  507MOL0     C68326   7.218   6.298   3.294  0.4952 -0.4359  0.4896
  507MOL0     N68327   7.147   6.167   3.271  0.5634  0.2329  0.3342
  507MOL0     C68328   7.096   6.087   3.374  0.4963 -0.4802  0.2889
  507MOL0     C68329   7.041   5.980   3.311 -0.4389 -1.1668 -0.0668
  507MOL0     C68330   6.978   5.875   3.391 -0.5527 -1.0386  0.2542
  507MOL0     C68331   7.087   5.796   3.464 -0.2924 -0.1347 -0.4987
  507MOL0     C68332   7.179   5.709   3.382 -0.9080 -0.2103 -0.6070
  507MOL0     C68333   7.306   5.668   3.467  0.1971 -0.5799  0.0379
  507MOL0     O68334   7.266   5.569   3.574 -0.1447 -0.8089 -0.2506
  507MOL0     C68335   7.284   5.439   3.555 -0.6317  0.4101  0.2579
  507MOL0     C68336   7.179   5.348   3.579 -0.1813 -0.9729  0.7462
  507MOL0     C68337   7.188   5.208   3.563  0.1852  0.2905 -0.1428
  507MOL0     C68338   7.313   5.156   3.528 -0.1506  0.7414 -0.2529
  507MOL0     C68339   7.333   5.016   3.501  0.1182 -0.0933 -0.8656
  507MOL0     O68340   7.249   4.927   3.570  0.6253 -0.3445 -0.0971
  507MOL0     C68341   7.303   4.810   3.589  0.0819 -0.2842 -0.1604
  507MOL0     C68342   7.260   4.696   3.517  0.0507 -0.3208  0.2286
  507MOL0     C68343   7.321   4.568   3.531 -0.5360 -0.2109 -0.1444
  507MOL0     C68344   7.426   4.554   3.630  0.2728 -0.9344  0.0838
  507MOL0     O68345   7.483   4.430   3.627 -0.3136  0.4980  0.4447
  507MOL0     C68346   7.557   4.395   3.749 -0.2015  0.4149  0.4605
  507MOL0     C68347   7.597   4.246   3.720 -0.0270  0.2793  0.3409
  507MOL0     C68348   7.470   4.154   3.718  0.2157 -0.7241  0.0050
  507MOL0     C68349   7.405   4.143   3.853  0.1892  0.5212  0.5516
  507MOL0     C68350   7.310   4.022   3.857 -0.8419  0.7450 -0.6642
  507MOL0     C68351   7.216   4.037   3.975 -0.2824  0.0763 -0.2644
  507MOL0     C68352   7.111   4.139   3.945  0.0265 -0.7368  0.8341
  507MOL0     C68353   7.027   4.114   3.823 -0.1498 -0.4145  0.3568
  507MOL0    Cl68354   6.876   4.188   3.846  0.2866  0.3758  0.3137
  507MOL0     C68355   7.450   4.665   3.713  0.5525  0.0210 -0.3888
  507MOL0     C68356   7.401   4.793   3.681  1.4576  0.8707 -0.4021
  507MOL0     O68357   7.428   4.989   3.424  0.1243  0.5177  0.0380
  507MOL0     C68358   7.430   5.243   3.515 -0.2470 -0.0238  0.7128
  507MOL0     C68359   7.412   5.383   3.541 -0.3945  0.6582 -0.1819
  507MOL0     N68360   7.033   6.012   3.177 -1.5458  0.0189  0.4517
  507MOL0     N68361   7.092   6.124   3.158 -0.5340 -0.1710 -0.8840
  507MOL0     C68362   7.815   5.290   3.163 -0.0027  0.1429 -0.1739
  507MOL0     C68363   7.803   5.159   3.187  0.0504  0.6847 -0.5093
  507MOL0     C68364   7.547   4.755   3.133  0.0856  0.7959  0.3436
  507MOL0     C68365   7.552   4.714   3.260  0.0409  0.1785  0.4470
  507MOL0     C68366   7.537   4.580   3.285  0.8591  0.2901 -0.3218
  507MOL0     C68367   7.490   4.490   3.187 -1.1762  0.1778 -0.9274
  507MOL0     O68368   7.469   4.362   3.235  0.2446 -0.4629  0.5548
  507MOL0     C68369   7.417   4.252   3.149 -0.0901 -0.1291  0.1663
  507MOL0     C68370   7.458   4.118   3.208  0.1537  0.2001  0.7425
  507MOL0     C68371   7.613   4.099   3.219 -0.5254 -0.0837 -0.5090
  507MOL0     C68372   7.686   4.078   3.081 -1.0115  0.8145 -0.3956
  507MOL0     C68373   7.828   4.023   3.106 -0.3976  0.9003 -0.6252
  507MOL0     C68374   7.938   3.971   3.132 -1.0490  0.0343  1.0304
  507MOL0     C68375   7.487   4.536   3.056  0.8681  0.7952  0.3120
  507MOL0     C68376   7.515   4.669   3.023  1.0756  0.4709  0.1395
  507MOL0     C68377   7.483   4.711   2.882  0.1237 -0.1573 -0.4743
  507MOL0     H68378   7.462   5.154   3.231  0.2830 -1.7996  0.7560
  507MOL0     H68379   7.491   5.383   3.193 -0.0914 -0.1319  0.1987
  507MOL0     H68380   7.540   5.590   3.223  0.0323  2.1609 -1.1879
  507MOL0     H68381   7.685   5.612   3.316  2.4978  1.7790 -0.9676
  507MOL0     H68382   7.644   5.742   3.044  2.8843 -0.9942 -0.6360
  507MOL0     H68383   7.766   5.772   3.159 -0.0966 -0.2968  1.1441
  507MOL0     H68384   7.582   5.822   3.341 -1.1020 -2.8619 -0.8610
  507MOL0     H68385   7.461   5.816   3.220 -1.2457  2.0188 -0.4010
  507MOL0     H68386   7.669   6.041   3.237  0.4773  0.2941 -1.6572
  507MOL0     H68387   7.563   6.019   3.100 -0.4716  0.0084  0.2134
  507MOL0     H68388   7.362   6.012   3.254  0.1453 -1.6669  0.5635
  507MOL0     H68389   7.454   6.027   3.392 -0.7207 -0.7710  0.8243
  507MOL0     H68390   7.559   6.261   3.307 -3.1237  4.7622  1.3599
  507MOL0     H68391   7.457   6.244   3.174 -1.6806  2.0144 -0.1970
  507MOL0     H68392   7.392   6.387   3.390  0.5976  0.4730 -0.6158
  507MOL0     H68393   7.356   6.241   3.465 -0.1537  0.0969 -0.5069
  507MOL0     H68394   7.161   6.369   3.355  1.4577  1.3620 -0.6121
  507MOL0     H68395   7.230   6.354   3.201 -1.1315  0.5013  0.8077
  507MOL0     H68396   7.112   6.102   3.480  1.0136 -1.3162  0.3414
  507MOL0     H68397   6.916   5.925   3.466  0.4617  0.5448  0.0848
  507MOL0     H68398   6.907   5.819   3.330 -0.0796 -0.6534 -0.6767
  507MOL0     H68399   7.151   5.865   3.520 -0.3816 -0.1856 -0.3317
  507MOL0     H68400   7.039   5.734   3.541  1.4682 -0.6635  0.2115
  507MOL0     H68401   7.227   5.765   3.301 -0.6790 -0.5348 -0.7007
  507MOL0     H68402   7.125   5.620   3.349  0.9467 -0.8526 -2.0772
  507MOL0     H68403   7.353   5.750   3.522  0.0752  0.5404 -1.4840
  507MOL0     H68404   7.382   5.627   3.401  0.7540  2.2843 -1.2370
  507MOL0     H68405   7.088   5.399   3.610  0.8352  0.3150  1.7275
  507MOL0     H68406   7.108   5.141   3.593  0.0721  0.2034 -0.6346
  507MOL0     H68407   7.180   4.711   3.446 -1.6875 -0.4531  2.0839
  507MOL0     H68408   7.316   4.496   3.451  2.3486  2.0075 -2.5563
  507MOL0     H68409   7.641   4.465   3.758 -0.7209  1.2362 -0.6994
  507MOL0     H68410   7.498   4.398   3.841  1.5716 -0.9944  1.6911
  507MOL0     H68411   7.653   4.231   3.627  0.5120  0.8698  0.5591
  507MOL0     H68412   7.652   4.210   3.807 -0.8459  2.1785  1.7206
  507MOL0     H68413   7.391   4.190   3.651 -0.0562 -2.1930 -0.4989
  507MOL0     H68414   7.493   4.053   3.683  1.4183 -0.1879 -0.8315
  507MOL0     H68415   7.356   4.241   3.852  1.1227  1.0037  0.9687
  507MOL0     H68416   7.480   4.137   3.933  0.6610 -2.2342  0.0264
  507MOL0     H68417   7.353   3.921   3.867 -2.4071  0.1344  0.1945
  507MOL0     H68418   7.247   4.014   3.768 -0.4059  1.8286 -1.0820
  507MOL0     H68419   7.168   3.944   4.007 -0.7541 -0.3911 -2.2355
  507MOL0     H68420   7.270   4.080   4.060 -1.2585  0.7269  0.0405
  507MOL0     H68421   7.155   4.239   3.937 -0.6545 -0.5833 -2.3206
  507MOL0     H68422   7.043   4.132   4.031 -0.2167  0.7560  0.7891
  507MOL0     H68423   7.078   4.160   3.738  0.4071 -2.7083 -0.6213
  507MOL0     H68424   7.013   4.006   3.817 -2.8046 -0.1996  1.2602
  507MOL0     H68425   7.523   4.646   3.792 -1.2452  1.5288  1.7648
  507MOL0     H68426   7.412   4.867   3.760  1.8711 -1.1080  1.4992
  507MOL0     H68427   7.524   5.205   3.477 -0.3249 -2.5558  2.8418
  507MOL0     H68428   7.496   5.452   3.540 -1.2830  1.7771  0.4194
  507MOL0     H68429   7.904   5.348   3.141 -1.8873  2.2886 -3.0479
  507MOL0     H68430   7.892   5.098   3.191 -1.6725 -2.0557 -1.3347
  507MOL0     H68431   7.590   4.790   3.329  2.4833 -0.0285 -0.5530
  507MOL0     H68432   7.562   4.552   3.387 -0.4881  2.3856  0.6531
  507MOL0     H68433   7.462   4.254   3.050  2.7605  0.5942  1.3827
  507MOL0     H68434   7.309   4.271   3.150 -0.2690 -1.0121 -1.0240
  507MOL0     H68435   7.423   4.049   3.131  0.3999  2.3209 -1.4188
  507MOL0     H68436   7.404   4.097   3.300 -1.4145 -0.6456 -0.3130
  507MOL0     H68437   7.636   4.020   3.292  1.9282  1.0785  0.0851
  507MOL0     H68438   7.663   4.186   3.262 -0.3043 -0.5117  0.1259
  507MOL0     H68439   7.627   4.007   3.022 -0.4470 -2.9820  3.1287
  507MOL0     H68440   7.692   4.173   3.027 -3.5578  1.8197  0.8892
  507MOL0     H68441   8.038   3.937   3.148 -0.1803  0.2582 -2.9059
  507MOL0     H68442   7.444   4.463   2.988 -0.1518  0.5003  1.2262
  507MOL0     H68443   7.566   4.768   2.840  1.7785 -1.3601  1.0033
  507MOL0     H68444   7.483   4.617   2.826 -0.1355  0.1781 -1.0487
  507MOL0     H68445   7.390   4.767   2.871  0.4746  0.0462 -3.2020
  508MOL0     O68446  10.146   6.768   9.462 -0.0730  0.0353 -0.5452
  508MOL0     C68447  10.188   6.653   9.465 -0.8614 -1.2913 -0.3833
  508MOL0     O68448  10.124   6.552   9.403 -0.0683  0.2228 -0.1491
  508MOL0     C68449  10.071   6.597   9.278  0.1027 -0.0650  0.2031
  508MOL0     C68450   9.940   6.644   9.291  0.1125  1.1503 -0.9315
  508MOL0     C68451   9.868   6.673   9.171  0.4226 -0.9020  0.1509
  508MOL0     C68452   9.932   6.646   9.051 -0.4882 -0.3289  0.1821
  508MOL0     O68453   9.890   6.693   8.926 -0.3757 -0.4155  0.2512
  508MOL0     C68454   9.751   6.678   8.899  0.3229 -1.0197 -0.4158
  508MOL0     C68455   9.704   6.819   8.918 -0.4671 -0.3289 -1.4338
  508MOL0     C68456   9.566   6.836   8.855 -1.0002  0.0852 -1.0489
  508MOL0     C68457   9.444   6.796   8.933  0.1851 -0.1689 -0.7643
  508MOL0     C68458   9.390   6.662   8.895  0.7970  0.4725 -0.0111
  508MOL0     C68459   9.287   6.624   9.000 -0.1891  0.4505  0.2826
  508MOL0     C68460   9.213   6.501   8.948  0.4211  0.0215 -0.1189
  508MOL0     C68461   9.267   6.369   8.977 -1.3584 -0.0780 -0.5294
  508MOL0     N68462   9.387   6.315   8.893  0.1974  1.1631  0.5054
  508MOL0     C68463   9.498   6.270   8.944  0.0442  0.0277  0.2622
  508MOL0     C68464   9.574   6.230   8.838 -0.1582  0.0499 -0.0306
  508MOL0     C68465   9.713   6.171   8.838 -0.6008 -0.7745 -0.0434
  508MOL0     C68466   9.816   6.284   8.826 -0.8000  0.7989  0.0027
  508MOL0     C68467   9.785   6.367   8.711 -0.1390 -1.0156  0.2996
  508MOL0     C68468   9.910   6.457   8.683 -0.4143 -0.4039  0.1760
  508MOL0     O68469  10.006   6.379   8.608 -0.2425 -0.3996 -0.1286
  508MOL0     C68470  10.122   6.450   8.578  0.0512  0.2903  0.1636
  508MOL0     C68471  10.165   6.579   8.610 -0.6639  0.3287 -0.0619
  508MOL0     C68472  10.306   6.606   8.597  0.3763 -0.4713 -0.7049
  508MOL0     C68473  10.397   6.521   8.524  0.8142 -0.0360  0.0595
  508MOL0     C68474  10.542   6.551   8.498 -0.9284 -0.3506 -0.4932
  508MOL0     O68475  10.595   6.636   8.597  0.7869  0.5314 -0.1047
  508MOL0     C68476  10.735   6.656   8.610  1.0966 -0.6597  1.0216
  508MOL0     C68477  10.836   6.623   8.519  0.2435  0.0633 -0.2240
  508MOL0     C68478  10.963   6.672   8.530 -0.3043 -0.0646 -0.2179
  508MOL0     C68479  11.014   6.746   8.646  1.1196  0.4705  0.2803
  508MOL0     O68480  11.139   6.794   8.648  0.2989 -0.6924 -0.4982
  508MOL0     C68481  11.143   6.933   8.598  0.2532  0.8103 -0.3531
  508MOL0     C68482  11.249   7.019   8.667  0.4172  0.1703 -0.1214
  508MOL0     C68483  11.204   7.035   8.813  0.4838 -0.3924 -0.5504
  508MOL0     C68484  11.310   7.118   8.891  0.5503  0.6059 -1.0002
  508MOL0     C68485  11.454   7.039   8.906 -0.3626 -0.3849 -0.3641
  508MOL0     C68486  11.429   6.924   9.005 -0.8491  0.1194  0.0367
  508MOL0     C68487  11.569   6.852   9.010  0.0027 -1.0185  0.0782
  508MOL0     C68488  11.590   6.724   9.080  0.9920  0.5161  0.4278
  508MOL0    Cl68489  11.749   6.657   9.033 -0.1599 -0.2132 -0.4341
  508MOL0     C68490  10.912   6.777   8.738 -0.2459  1.0083 -0.1468
  508MOL0     C68491  10.775   6.732   8.725  0.0526 -0.8667  0.3198
  508MOL0     O68492  10.605   6.484   8.422  0.5777  0.4247  0.5687
  508MOL0     C68493  10.337   6.408   8.461  0.1598  0.4141 -0.1919
  508MOL0     C68494  10.211   6.369   8.498  0.3591 -0.0068  0.1787
  508MOL0     N68495   9.487   6.239   8.728  0.1293 -0.1433  0.4766
  508MOL0     N68496   9.375   6.281   8.766 -0.1606 -0.8911 -0.3156
  508MOL0     C68497  10.060   6.608   9.039 -0.1104  0.1109  1.1740
  508MOL0     C68498  10.135   6.591   9.154  0.5505  0.4335  0.3320
  508MOL0     C68499  10.289   6.612   9.570  0.3803  0.7107  0.5583
  508MOL0     C68500  10.361   6.714   9.634  0.4951 -0.5168 -0.6433
  508MOL0     C68501  10.458   6.700   9.738 -0.1518  0.1223  1.1816
  508MOL0     C68502  10.499   6.566   9.773  0.5053  0.0737 -0.3163
  508MOL0     O68503  10.605   6.541   9.853  0.0542 -0.2727 -0.3479
  508MOL0     C68504  10.629   6.636   9.958  0.5248  0.4054  1.1346
  508MOL0     C68505  10.744   6.578  10.037  0.1529 -0.0576 -0.6709
  508MOL0     C68506  10.879   6.614   9.966 -0.0703  0.6073 -0.6092
  508MOL0     C68507  10.993   6.586  10.061  0.4306  0.3305 -0.6897
  508MOL0     C68508  11.128   6.617  10.006  0.5597  0.1711 -0.0685
  508MOL0     C68509  11.234   6.663   9.985 -0.0763  0.0832  1.2848
  508MOL0     C68510  10.429   6.470   9.707 -0.1183  0.5653  0.1617
  508MOL0     C68511  10.326   6.480   9.613  0.1080 -0.6112  0.3863
  508MOL0     C68512  10.250   6.365   9.569 -0.0894 -0.1114  0.2192
  508MOL0     H68513   9.895   6.641   9.390  2.7964  2.2595  0.4119
  508MOL0     H68514   9.768   6.715   9.163  0.7232 -0.2117 -0.0953
  508MOL0     H68515   9.728   6.663   8.793  0.1317  0.8442 -0.6788
  508MOL0     H68516   9.696   6.611   8.965 -0.3093  1.3307  1.5865
  508MOL0     H68517   9.774   6.890   8.873 -0.6250 -0.3053 -1.6462
  508MOL0     H68518   9.689   6.850   9.022  0.4494  1.1320 -1.7037
  508MOL0     H68519   9.574   6.788   8.757 -1.1524 -1.1581 -0.4801
  508MOL0     H68520   9.554   6.944   8.845  2.0044  0.6832  0.5981
  508MOL0     H68521   9.464   6.809   9.039  1.3743  1.0101 -1.1047
  508MOL0     H68522   9.367   6.868   8.903 -0.7074  0.6655  3.0729
  508MOL0     H68523   9.344   6.664   8.796  1.5244  0.4640 -0.3585
  508MOL0     H68524   9.471   6.588   8.892  1.4361  1.1772 -2.4487
  508MOL0     H68525   9.324   6.595   9.098 -3.4354  0.2500  1.5494
  508MOL0     H68526   9.213   6.703   9.014 -1.7323 -0.9327  0.1957
  508MOL0     H68527   9.189   6.503   8.841 -1.5630 -0.1456  0.2818
  508MOL0     H68528   9.121   6.503   9.008  1.8055  2.6708  2.1762
  508MOL0     H68529   9.298   6.374   9.082 -4.0562 -1.7378  0.4654
  508MOL0     H68530   9.194   6.287   8.986  1.0190 -2.1590  1.3305
  508MOL0     H68531   9.529   6.267   9.048  1.2075 -0.9109 -0.0849
  508MOL0     H68532   9.741   6.115   8.928  3.8263  0.2450 -0.5494
  508MOL0     H68533   9.714   6.106   8.750 -2.9416 -0.8343 -0.0685
  508MOL0     H68534   9.803   6.351   8.912 -0.4226  3.1826 -1.7262
  508MOL0     H68535   9.920   6.250   8.830 -1.1704 -0.2404  1.9850
  508MOL0     H68536   9.694   6.423   8.735 -0.3566 -0.7775 -1.0061
  508MOL0     H68537   9.765   6.296   8.630 -0.7703 -2.0013  1.2980
  508MOL0     H68538   9.951   6.495   8.777 -0.5011 -0.3618  0.1965
  508MOL0     H68539   9.878   6.543   8.624  0.6546 -0.8316 -1.0857
  508MOL0     H68540  10.103   6.656   8.655 -0.4350 -0.3328  1.4505
  508MOL0     H68541  10.349   6.702   8.625 -0.8669 -0.4718  1.4292
  508MOL0     H68542  10.817   6.558   8.434 -1.9362  0.8468 -0.3918
  508MOL0     H68543  11.042   6.661   8.456  2.3509  2.7075  1.9620
  508MOL0     H68544  11.157   6.925   8.490 -0.9093  1.9919 -0.6139
  508MOL0     H68545  11.045   6.979   8.616 -0.0541 -0.6633  2.1992
  508MOL0     H68546  11.351   6.981   8.659 -0.0422 -1.8398  2.2628
  508MOL0     H68547  11.240   7.115   8.616  1.4412  0.0800 -0.4854
  508MOL0     H68548  11.116   7.099   8.819  1.9482  1.5691  1.5157
  508MOL0     H68549  11.181   6.941   8.865  4.2625  0.6607  3.6542
  508MOL0     H68550  11.263   7.119   8.990 -0.8873  0.6830 -1.6641
  508MOL0     H68551  11.314   7.218   8.848  0.7991  0.2826 -1.7409
  508MOL0     H68552  11.533   7.102   8.949  2.6801 -2.0581 -3.0532
  508MOL0     H68553  11.487   6.993   8.813  2.2817  1.0432 -0.2376
  508MOL0     H68554  11.408   6.964   9.105  0.4397  1.7690 -0.3171
  508MOL0     H68555  11.350   6.858   8.967 -2.9252  1.8413  1.1342
  508MOL0     H68556  11.644   6.922   9.047 -3.8512  3.0508  0.9968
  508MOL0     H68557  11.589   6.831   8.904  1.0462  3.4031 -0.8180
  508MOL0     H68558  11.589   6.733   9.189 -0.2733  1.5057  0.3482
  508MOL0     H68559  11.510   6.653   9.056 -0.6356  2.0896  1.0220
  508MOL0     H68560  10.928   6.827   8.833 -2.3185  0.7395  0.3912
  508MOL0     H68561  10.727   6.761   8.817  3.6798 -0.2027  2.1834
  508MOL0     H68562  10.394   6.342   8.395 -0.5621  0.5091 -0.9194
  508MOL0     H68563  10.172   6.277   8.457  0.6628  0.3094 -0.8737
  508MOL0     H68564  10.116   6.613   8.946  1.9127  3.1003  2.3905
  508MOL0     H68565  10.239   6.562   9.167 -0.0060 -1.7294  0.4862
  508MOL0     H68566  10.347   6.818   9.607  2.7394 -0.4721 -1.8455
  508MOL0     H68567  10.502   6.788   9.784 -0.8666  2.5879 -2.3691
  508MOL0     H68568  10.545   6.641  10.028 -0.0819  2.0371  0.3339
  508MOL0     H68569  10.655   6.733   9.914 -0.1745 -0.7166 -2.0216
  508MOL0     H68570  10.730   6.471  10.055  0.0962  0.3043  1.8815
  508MOL0     H68571  10.750   6.623  10.137  0.3852  0.4753 -0.9204
  508MOL0     H68572  10.874   6.716   9.927 -0.4508 -0.2885 -3.0583
  508MOL0     H68573  10.888   6.545   9.882  4.6625  0.4650 -0.2043
  508MOL0     H68574  10.982   6.645  10.152  3.0636 -1.4951  0.9826
  508MOL0     H68575  10.985   6.484  10.101  2.7512 -0.0960 -1.1433
  508MOL0     H68576  11.329   6.709   9.968  0.5311 -1.5493 -0.0020
  508MOL0     H68577  10.455   6.369   9.737 -1.6390  0.0487 -0.1649
  508MOL0     H68578  10.270   6.276   9.630  0.4764 -0.5218 -0.5443
  508MOL0     H68579  10.141   6.373   9.561  0.0826  0.3660 -2.4723
  508MOL0     H68580  10.289   6.354   9.468  0.9043 -0.7791  0.6574
  509MOL0     O68581   7.572   7.266   2.391 -0.3350 -0.3071 -0.1166
  509MOL0     C68582   7.559   7.186   2.486 -0.1201 -1.1358 -0.0187
  509MOL0     O68583   7.448   7.118   2.523 -0.3997 -0.4973  0.3339
  509MOL0     C68584   7.337   7.120   2.448  0.6683 -0.0981 -0.4398
  509MOL0     C68585   7.302   6.998   2.386 -0.6997  0.5468 -0.7876
  509MOL0     C68586   7.183   6.985   2.319 -0.6259  0.0935 -0.0778
  509MOL0     C68587   7.106   7.098   2.307 -0.4360 -0.3619  0.2560
  509MOL0     O68588   6.981   7.071   2.248  0.5052 -0.2002  0.1200
  509MOL0     C68589   6.860   7.146   2.285 -0.0174 -0.5143  0.2492
  509MOL0     C68590   6.741   7.057   2.261  0.4080  0.2339  1.1559
  509MOL0     C68591   6.618   7.144   2.266 -0.5752 -0.2215 -0.2753
  509MOL0     C68592   6.504   7.057   2.228  1.0180  0.0582  0.6539
  509MOL0     C68593   6.381   7.149   2.243 -0.2080 -0.3088  0.2315
  509MOL0     C68594   6.247   7.068   2.225 -0.8024 -0.8826 -0.4469
  509MOL0     C68595   6.124   7.157   2.255 -0.2561  0.2786  0.2082
  509MOL0     C68596   5.988   7.079   2.249 -0.1432  0.0466 -0.3707
  509MOL0     N68597   5.876   7.173   2.258  0.2348  0.2598 -1.1008
  509MOL0     C68598   5.750   7.134   2.313  0.1889 -0.7258  0.0574
  509MOL0     C68599   5.672   7.248   2.314 -0.5149 -0.7370  0.3241
  509MOL0     C68600   5.545   7.258   2.385 -0.1386  0.0397  0.5157
  509MOL0     C68601   5.514   7.403   2.417 -0.5770 -0.8543 -0.1449
  509MOL0     C68602   5.376   7.412   2.495  0.2120  0.2544 -0.0144
  509MOL0     C68603   5.263   7.424   2.391  0.3151 -0.5484  0.2861
  509MOL0     O68604   5.128   7.446   2.441 -0.1335  0.5809 -0.0456
  509MOL0     C68605   5.082   7.371   2.549  0.0041  0.2181  0.5745
  509MOL0     C68606   4.996   7.431   2.637 -0.2038 -0.6702 -0.0021
  509MOL0     C68607   4.946   7.364   2.743 -0.0851  0.6001  0.4394
  509MOL0     C68608   4.989   7.237   2.775 -0.1762 -0.4729  0.6026
  509MOL0     C68609   4.925   7.168   2.886  0.0872 -0.4096 -0.8858
  509MOL0     O68610   4.982   7.051   2.926 -0.1032 -0.2714  0.4590
  509MOL0     C68611   4.938   7.012   3.044  0.0807 -0.1158  0.7665
  509MOL0     C68612   4.999   7.051   3.163  0.3198  0.9619 -0.4647
  509MOL0     C68613   4.974   6.984   3.279  0.5794  0.3295  0.2186
  509MOL0     C68614   4.874   6.882   3.280  1.2152  0.0214  0.1963
  509MOL0     O68615   4.833   6.808   3.388  0.5438 -0.1348  0.2814
  509MOL0     C68616   4.773   6.885   3.490 -0.2674 -0.3681  0.1462
  509MOL0     C68617   4.626   6.870   3.465  0.0661  0.4897  0.2417
  509MOL0     C68618   4.537   6.905   3.582 -0.1542 -0.0973 -0.2170
  509MOL0     C68619   4.540   7.060   3.605 -1.3393 -0.5613 -0.4534
  509MOL0     C68620   4.421   7.113   3.682 -1.2682  0.0528 -0.6733
  509MOL0     C68621   4.449   7.110   3.840 -0.9860 -0.0745  0.0731
  509MOL0     C68622   4.330   7.160   3.922  0.3741  0.3641 -0.0074
  509MOL0     C68623   4.198   7.095   3.871 -0.7155  0.2285 -0.2360
  509MOL0    Cl68624   4.070   7.175   3.961  0.1907  0.1003  0.1594
  509MOL0     C68625   4.804   6.851   3.164 -1.2161 -0.1357 -0.2392
  509MOL0     C68626   4.839   6.918   3.042 -0.0517  0.5086  0.0127
  509MOL0     O68627   4.839   7.227   2.949 -0.0602  0.2130  0.2192
  509MOL0     C68628   5.078   7.175   2.688 -0.5915  0.8959 -0.1111
  509MOL0     C68629   5.119   7.238   2.575  0.9154  0.6938  0.1527
  509MOL0     N68630   5.747   7.347   2.251 -0.1920 -0.0430  0.6008
  509MOL0     N68631   5.863   7.307   2.213  0.0922  0.3193  0.2928
  509MOL0     C68632   7.152   7.223   2.354 -0.8160  0.0843  0.2267
  509MOL0     C68633   7.273   7.240   2.424 -0.0722  0.3412  0.1333
  509MOL0     C68634   7.682   7.150   2.560  0.3768 -0.4418  0.0180
  509MOL0     C68635   7.698   7.017   2.591 -0.9751 -0.0185 -0.5550
  509MOL0     C68636   7.809   6.967   2.658  0.8765  0.0826 -0.8928
  509MOL0     C68637   7.911   7.054   2.695  0.0535  0.6220  0.1083
  509MOL0     O68638   8.022   7.013   2.761 -0.0043  0.5137 -0.1172
  509MOL0     C68639   8.067   7.071   2.887 -0.0753  0.0749  0.2569
  509MOL0     C68640   8.186   6.991   2.947  0.1180 -0.1325 -0.4226
  509MOL0     C68641   8.279   6.965   2.826  0.6053 -0.3731 -0.4872
  509MOL0     C68642   8.404   6.886   2.865 -0.7688  0.8453  0.8419
  509MOL0     C68643   8.486   6.962   2.959  0.3091  1.0379 -0.4634
  509MOL0     C68644   8.538   7.025   3.046 -0.3805  0.5281  0.0123
  509MOL0     C68645   7.906   7.185   2.654  0.1132 -0.7385  0.2136
  509MOL0     C68646   7.791   7.241   2.585  0.6512  0.8247  0.1050
  509MOL0     C68647   7.792   7.387   2.571  0.5035  0.6382  0.1753
  509MOL0     H68648   7.360   6.909   2.410 -1.0776  0.3511 -0.5914
  509MOL0     H68649   7.141   6.890   2.288 -0.8436 -0.6938  2.4327
  509MOL0     H68650   6.844   7.185   2.386  0.4170  0.0622  0.0981
  509MOL0     H68651   6.854   7.231   2.218 -1.1531 -0.7570  0.0350
  509MOL0     H68652   6.744   6.980   2.339  3.7354  0.6660  1.6113
  509MOL0     H68653   6.745   7.015   2.160 -1.9682  3.1253 -0.2809
  509MOL0     H68654   6.636   7.219   2.188  2.3643  2.1282  2.4331
  509MOL0     H68655   6.607   7.194   2.363 -1.4583  1.8337 -1.3674
  509MOL0     H68656   6.509   7.025   2.123  0.8861  2.1578 -0.0292
  509MOL0     H68657   6.503   6.974   2.299  0.4706  0.2070  0.8255
  509MOL0     H68658   6.387   7.195   2.342  1.3989  1.7718 -0.7574
  509MOL0     H68659   6.400   7.225   2.166  1.9482 -1.4567 -0.4493
  509MOL0     H68660   6.251   7.025   2.125  2.3160  0.3973 -0.9944
  509MOL0     H68661   6.241   6.985   2.296 -2.0517  0.5501  1.2008
  509MOL0     H68662   6.124   7.241   2.184  1.2000 -1.3507 -1.8749
  509MOL0     H68663   6.134   7.200   2.355  1.5461  0.9839 -0.2345
  509MOL0     H68664   5.986   7.030   2.151  2.3263  2.5619 -1.8330
  509MOL0     H68665   5.987   7.008   2.332  1.0044  0.0348 -0.3479
  509MOL0     H68666   5.731   7.037   2.359  1.0893 -1.7927 -1.7471
  509MOL0     H68667   5.466   7.214   2.323 -0.0150 -2.1444  1.8272
  509MOL0     H68668   5.556   7.190   2.469 -0.0528  0.9189  1.2270
  509MOL0     H68669   5.586   7.436   2.492 -1.7684  3.0115 -0.4917
  509MOL0     H68670   5.515   7.459   2.323 -2.5327 -1.2128 -0.4125
  509MOL0     H68671   5.378   7.510   2.543  0.5912  0.9132 -1.3309
  509MOL0     H68672   5.370   7.326   2.562  1.0560 -0.7084 -1.1177
  509MOL0     H68673   5.260   7.328   2.339  0.7651 -0.2899 -0.2265
  509MOL0     H68674   5.290   7.495   2.312 -1.2424 -2.0859 -1.7176
  509MOL0     H68675   4.945   7.521   2.603 -1.1301 -1.6431 -1.2878
  509MOL0     H68676   4.874   7.410   2.809 -0.1050 -0.6766  1.3376
  509MOL0     H68677   5.088   7.112   3.153  0.5801  0.6678 -0.0246
  509MOL0     H68678   5.034   7.010   3.365  1.5477  2.3881 -1.0014
  509MOL0     H68679   4.804   6.840   3.585 -1.7972  0.6079  1.1475
  509MOL0     H68680   4.804   6.990   3.485 -0.5810 -0.2123  1.2649
  509MOL0     H68681   4.593   6.941   3.388  0.7366  2.7183  1.8939
  509MOL0     H68682   4.599   6.773   3.424 -3.3390  0.8868  1.2662
  509MOL0     H68683   4.436   6.875   3.550 -0.4446  0.0649  0.5330
  509MOL0     H68684   4.560   6.853   3.675 -4.6935  1.4744  2.0789
  509MOL0     H68685   4.531   7.103   3.505  1.8033 -0.6941 -0.8846
  509MOL0     H68686   4.632   7.092   3.655 -1.2262 -1.2191 -0.2351
  509MOL0     H68687   4.336   7.051   3.653  0.7972 -2.8900 -0.8114
  509MOL0     H68688   4.405   7.220   3.664 -3.2421  0.1333  1.1558
  509MOL0     H68689   4.465   7.003   3.851 -0.4889  0.2133  2.7077
  509MOL0     H68690   4.538   7.168   3.864  0.4851 -0.6501 -3.3314
  509MOL0     H68691   4.323   7.269   3.918  3.0688  0.6561  0.9840
  509MOL0     H68692   4.345   7.123   4.024 -0.9524 -3.1116 -0.9324
  509MOL0     H68693   4.176   7.116   3.766  0.3944 -0.5447 -0.6505
  509MOL0     H68694   4.206   6.987   3.883  0.1706  0.3057 -0.0260
  509MOL0     H68695   4.733   6.770   3.174 -0.0522 -1.2186 -0.4749
  509MOL0     H68696   4.793   6.888   2.948 -0.1629 -0.2611  0.3060
  509MOL0     H68697   5.119   7.076   2.701 -0.6791  0.5190 -2.4069
  509MOL0     H68698   5.178   7.188   2.499 -0.3317  1.2813 -1.2704
  509MOL0     H68699   7.103   7.317   2.328  0.8847  0.9665  0.0932
  509MOL0     H68700   7.311   7.333   2.464  2.5542  0.4120 -2.2252
  509MOL0     H68701   7.628   6.936   2.571  1.5600 -2.5280  0.0318
  509MOL0     H68702   7.815   6.860   2.676 -0.2528 -0.1612 -1.7965
  509MOL0     H68703   7.982   7.070   2.955  0.0568  0.1250  0.4240
  509MOL0     H68704   8.099   7.173   2.863 -2.2640  0.5660 -0.9176
  509MOL0     H68705   8.145   6.900   2.993 -1.1021  0.3873 -0.4310
  509MOL0     H68706   8.238   7.058   3.015 -1.3375  0.5657  0.0507
  509MOL0     H68707   8.303   7.056   2.769  0.3384  1.5441  2.2268
  509MOL0     H68708   8.224   6.899   2.759  0.4823 -2.5540  1.6538
  509MOL0     H68709   8.387   6.792   2.917  0.8008  1.3932  2.4349
  509MOL0     H68710   8.466   6.864   2.777  1.4283  0.1732  2.4730
  509MOL0     H68711   8.598   7.072   3.121  2.6544 -1.4621 -0.9822
  509MOL0     H68712   7.993   7.245   2.677  0.2641 -0.0185 -1.9897
  509MOL0     H68713   7.747   7.439   2.656  2.9826  3.5351 -0.1104
  509MOL0     H68714   7.897   7.417   2.568  0.3142  1.3518  0.5418
  509MOL0     H68715   7.742   7.427   2.483 -2.3566 -1.7152  0.5821
  510MOL0     O68716   1.660  10.396   8.677  0.2584 -0.0427 -0.0642
  510MOL0     C68717   1.604  10.344   8.578 -0.2706  0.7702  0.2906
  510MOL0     O68718   1.675  10.281   8.475  0.1576 -0.3565 -1.0263
  510MOL0     C68719   1.812  10.279   8.479 -0.7619  0.6665 -1.0317
  510MOL0     C68720   1.882  10.157   8.505 -1.0691  0.5230 -0.0718
  510MOL0     C68721   2.021  10.145   8.484 -0.3154 -0.7916  0.0055
  510MOL0     C68722   2.090  10.255   8.431 -0.1183 -0.3294 -0.1815
  510MOL0     O68723   2.227  10.254   8.420 -0.1538 -0.6407 -0.9135
  510MOL0     C68724   2.284  10.182   8.307 -0.3394 -0.6120 -0.1200
  510MOL0     C68725   2.428  10.207   8.305  0.1412 -0.5615 -0.0457
  510MOL0     C68726   2.503  10.142   8.189 -0.4563  0.3143 -0.5543
  510MOL0     C68727   2.652  10.181   8.189 -0.2642  0.8118 -0.4633
  510MOL0     C68728   2.718  10.122   8.070  0.4901 -1.1359 -1.1015
  510MOL0     C68729   2.733   9.961   8.062 -0.2500  0.3409  0.8842
  510MOL0     C68730   2.866   9.917   8.112  0.8333 -0.4682 -0.2466
  510MOL0     C68731   2.976   9.930   8.005  0.3687 -0.0592 -0.2123
  510MOL0     N68732   3.109   9.888   8.043  0.1404  0.2047  0.0919
  510MOL0     C68733   3.147   9.753   8.058  0.0952  0.1570  0.2144
  510MOL0     C68734   3.280   9.762   8.069 -0.3761 -0.2876  0.0398
  510MOL0     C68735   3.366   9.647   8.112 -0.1368  0.1189  0.5222
  510MOL0     C68736   3.358   9.527   8.008 -0.5332 -0.9085  0.5250
  510MOL0     C68737   3.478   9.436   8.021 -0.4354  1.4323  0.2545
  510MOL0     C68738   3.568   9.476   7.899 -0.3909 -0.0240  0.5202
  510MOL0     O68739   3.637   9.601   7.897  0.1602  0.3200  0.0259
  510MOL0     C68740   3.700   9.631   7.785 -1.5462  0.1087 -0.3350
  510MOL0     C68741   3.665   9.734   7.695  0.0534 -0.2030  0.5404
  510MOL0     C68742   3.742   9.767   7.589 -0.4575 -0.3570  0.0146
  510MOL0     C68743   3.850   9.689   7.552  0.2006 -0.1786 -0.6145
  510MOL0     C68744   3.930   9.730   7.437  0.1225  0.1362  1.0028
  510MOL0     O68745   3.892   9.844   7.373  0.3629  0.4494 -0.0772
  510MOL0     C68746   3.987   9.888   7.283  0.4426 -0.2651 -0.1315
  510MOL0     C68747   4.020   9.822   7.169 -1.0284 -0.2059 -0.7859
  510MOL0     C68748   4.103   9.877   7.073 -0.2258 -0.7806 -0.5284
  510MOL0     C68749   4.157  10.009   7.097  0.2095 -0.7085 -0.6782
  510MOL0     O68750   4.232  10.060   7.002 -0.6222  0.3272 -0.1933
  510MOL0     C68751   4.257  10.201   6.979 -0.1074 -0.4976 -0.4214
  510MOL0     C68752   4.408  10.242   7.013  0.1126  0.2506  0.1099
  510MOL0     C68753   4.433  10.255   7.157  0.3619  0.0820  0.0487
  510MOL0     C68754   4.577  10.320   7.180 -0.0470 -0.8929 -0.5363
  510MOL0     C68755   4.625  10.325   7.331  0.0186  0.0197  0.7305
  510MOL0     C68756   4.534  10.399   7.422  0.1657 -0.7472  0.1328
  510MOL0     C68757   4.522  10.549   7.377 -0.4457  0.0013 -0.4726
  510MOL0     C68758   4.457  10.642   7.474  0.2956 -0.8744  0.0060
  510MOL0    Cl68759   4.295  10.592   7.472 -0.0212 -0.4090  0.0487
  510MOL0     C68760   4.127  10.082   7.216  0.0254  1.0759 -0.1969
  510MOL0     C68761   4.037  10.013   7.305 -1.0174  0.4978  0.8606
  510MOL0     O68762   4.020   9.653   7.395 -0.3559  0.5701 -0.3353
  510MOL0     C68763   3.892   9.579   7.629  0.7457  0.6647 -0.0392
  510MOL0     C68764   3.822   9.561   7.749 -0.1055  0.6285 -0.5025
  510MOL0     N68765   3.324   9.900   8.067 -0.1408  0.0580  0.4388
  510MOL0     N68766   3.213   9.968   8.040 -0.3560 -0.1227  0.4359
  510MOL0     C68767   2.022  10.373   8.391  0.0110  1.1075  0.0406
  510MOL0     C68768   1.886  10.381   8.420  0.0292  0.2029 -0.8526
  510MOL0     C68769   1.458  10.356   8.558  0.5845 -0.4687  0.5385
  510MOL0     C68770   1.400  10.330   8.432  0.4423 -0.0450 -0.6778
  510MOL0     C68771   1.264  10.357   8.408  0.6839 -0.4520 -0.6075
  510MOL0     C68772   1.176  10.410   8.508  0.0890  0.4869 -0.3061
  510MOL0     O68773   1.038  10.439   8.506 -0.5085  0.4973  0.3115
  510MOL0     C68774   0.967  10.418   8.378  0.2038  0.4254  0.5915
  510MOL0     C68775   0.861  10.526   8.367  0.5129  0.3725  0.0625
  510MOL0     C68776   0.776  10.514   8.243  0.3878  0.4401  0.1498
  510MOL0     C68777   0.633  10.556   8.262 -0.9121 -0.8592  0.0129
  510MOL0     C68778   0.542  10.457   8.328 -0.2508  0.3020  0.6921
  510MOL0     C68779   0.458  10.391   8.374 -0.4505 -0.6678 -0.0924
  510MOL0     C68780   1.241  10.442   8.624  0.5175 -0.5736  0.5725
  510MOL0     C68781   1.375  10.421   8.655  0.5654 -0.0965  0.0221
  510MOL0     C68782   1.410  10.459   8.805  0.5881  0.3227  0.7076
  510MOL0     H68783   1.831  10.069   8.542 -0.9459  1.5376  2.6793
  510MOL0     H68784   2.082  10.063   8.523  2.0648 -0.1546 -2.1158
  510MOL0     H68785   2.264  10.075   8.315 -3.2829 -0.0854  0.6473
  510MOL0     H68786   2.240  10.216   8.212  0.7272 -1.8525 -1.0945
  510MOL0     H68787   2.478  10.192   8.401 -1.0762 -0.4322  0.6286
  510MOL0     H68788   2.439  10.314   8.285  0.5000 -0.6598 -0.3713
  510MOL0     H68789   2.470  10.173   8.090  0.9346  2.7958 -0.3244
  510MOL0     H68790   2.493  10.033   8.198  0.2472  0.0558 -2.3755
  510MOL0     H68791   2.652  10.288   8.167  2.6210  1.0410  0.2835
  510MOL0     H68792   2.699  10.155   8.284 -2.9903 -1.3995  0.4004
  510MOL0     H68793   2.662  10.169   7.989 -1.2919  1.6681  1.5037
  510MOL0     H68794   2.819  10.165   8.076  1.0300 -2.0722 -2.9522
  510MOL0     H68795   2.655   9.906   8.115  1.5690 -3.2191  0.1717
  510MOL0     H68796   2.728   9.924   7.959  2.6374 -3.2506  1.8386
  510MOL0     H68797   2.860   9.815   8.151  1.5426 -1.4556 -2.5542
  510MOL0     H68798   2.897   9.985   8.192 -1.6636 -0.2140  0.5876
  510MOL0     H68799   2.955   9.861   7.922  0.4998  0.0491 -0.3359
  510MOL0     H68800   2.978  10.030   7.963 -0.4946  1.0387  2.1913
  510MOL0     H68801   3.078   9.670   8.050  1.3669 -0.7684 -1.6094
  510MOL0     H68802   3.471   9.676   8.104  0.3964 -1.8263 -0.3183
  510MOL0     H68803   3.357   9.605   8.212 -0.1263  0.0555  0.4971
  510MOL0     H68804   3.266   9.468   8.019  0.4696 -2.9550 -1.2854
  510MOL0     H68805   3.361   9.570   7.908 -2.1956 -2.1267 -0.0979
  510MOL0     H68806   3.443   9.333   8.005 -3.2125  2.5749 -1.8984
  510MOL0     H68807   3.531   9.437   8.117  1.2164 -0.1537 -0.5869
  510MOL0     H68808   3.516   9.456   7.805 -0.9368  3.0634  0.0649
  510MOL0     H68809   3.650   9.404   7.910 -0.1889  0.1488  0.1586
  510MOL0     H68810   3.571   9.789   7.698  0.4428  0.5611 -0.6367
  510MOL0     H68811   3.714   9.858   7.537  0.1746  0.3019  0.8028
  510MOL0     H68812   3.976   9.723   7.157  0.0186 -0.9214  0.8772
  510MOL0     H68813   4.138   9.834   6.980  0.2716 -0.7126 -0.3773
  510MOL0     H68814   4.230  10.214   6.874  0.4798 -4.1175 -1.1258
  510MOL0     H68815   4.181  10.255   7.036  0.0808 -0.7009  0.0303
  510MOL0     H68816   4.477  10.162   6.984  0.7578  1.4562 -1.8828
  510MOL0     H68817   4.433  10.331   6.956  1.1523  0.0816  0.2880
  510MOL0     H68818   4.360  10.317   7.210 -1.2517 -1.2489 -0.5304
  510MOL0     H68819   4.438  10.155   7.201  1.1689 -0.1360 -0.5098
  510MOL0     H68820   4.578  10.415   7.126 -1.1353 -0.1186  0.7505
  510MOL0     H68821   4.644  10.251   7.128 -0.9251 -0.1295 -2.7989
  510MOL0     H68822   4.725  10.368   7.336  1.2327 -2.2033 -1.6476
  510MOL0     H68823   4.636  10.227   7.378  1.5910 -1.2645 -2.0531
  510MOL0     H68824   4.437  10.350   7.430 -0.6458  0.7071 -0.4021
  510MOL0     H68825   4.576  10.397   7.523  2.9774  0.4500 -0.9052
  510MOL0     H68826   4.480  10.567   7.277 -2.5019  1.9075  0.6581
  510MOL0     H68827   4.627  10.580   7.374 -0.9689  1.8023 -1.2265
  510MOL0     H68828   4.495  10.639   7.577 -0.0937  0.7455  0.2236
  510MOL0     H68829   4.458  10.748   7.445  1.1630  0.1017  3.2106
  510MOL0     H68830   4.154  10.184   7.244  1.4136  0.8205 -0.5557
  510MOL0     H68831   4.004  10.066   7.395  2.7141  1.7724  1.6436
  510MOL0     H68832   3.980   9.520   7.606  2.4613  1.0682  4.5168
  510MOL0     H68833   3.859   9.483   7.814 -0.4647  1.7833  1.1577
  510MOL0     H68834   2.066  10.463   8.348  2.7593 -0.6635 -1.0931
  510MOL0     H68835   1.838  10.473   8.387  1.6191  0.8023 -1.6136
  510MOL0     H68836   1.455  10.277   8.355  0.0499 -0.8026 -0.4417
  510MOL0     H68837   1.241  10.336   8.304  4.2432  2.1405 -2.1176
  510MOL0     H68838   0.928  10.317   8.393  0.9856  0.2521  1.5754
  510MOL0     H68839   1.034  10.413   8.292 -1.1754  1.7780 -0.6260
  510MOL0     H68840   0.909  10.623   8.382 -0.1024  0.9036 -1.2824
  510MOL0     H68841   0.795  10.522   8.453  0.0119 -4.2013 -0.3069
  510MOL0     H68842   0.782  10.416   8.195  3.4347  0.1986  0.8113
  510MOL0     H68843   0.809  10.587   8.169 -0.7970 -0.7440 -1.6083
  510MOL0     H68844   0.638  10.647   8.323 -0.1326 -1.9504  1.6605
  510MOL0     H68845   0.606  10.578   8.158  0.1870 -1.9846 -0.5311
  510MOL0     H68846   0.386  10.317   8.405 -0.4206  0.3606  2.6929
  510MOL0     H68847   1.173  10.475   8.702  1.4635 -3.4096  2.7646
  510MOL0     H68848   1.477  10.545   8.805  0.3910  0.5312 -1.3665
  510MOL0     H68849   1.321  10.465   8.867  1.1868 -1.1112  1.7700
  510MOL0     H68850   1.465  10.378   8.855 -0.4457  0.4116  2.0535
  511MOL0     O68851   7.960   8.569   8.167  0.2517 -0.0529  0.3587
  511MOL0     C68852   7.871   8.571   8.249  0.1282 -0.4178  1.0081
  511MOL0     O68853   7.888   8.578   8.387 -0.8706  0.6233 -0.0910
  511MOL0     C68854   8.013   8.581   8.443  0.4044  0.3540 -0.5585
  511MOL0     C68855   8.010   8.568   8.581 -0.5281  0.1665  0.3349
  511MOL0     C68856   8.128   8.563   8.657  0.1119  0.0999 -0.2091
  511MOL0     C68857   8.254   8.577   8.591  0.2926  0.9827  0.0768
  511MOL0     O68858   8.372   8.589   8.653 -0.1949  0.9304 -0.2564
  511MOL0     C68859   8.382   8.569   8.794  0.6091  0.5288  0.6861
  511MOL0     C68860   8.516   8.608   8.841 -0.3387 -0.8744 -0.2864
  511MOL0     C68861   8.622   8.502   8.848  0.3320  0.4960  0.0182
  511MOL0     C68862   8.605   8.384   8.751  0.2110 -0.2883  0.4493
  511MOL0     C68863   8.710   8.281   8.774 -0.4176 -0.6324 -0.1891
  511MOL0     C68864   8.850   8.323   8.720 -0.5966  0.4189  1.3448
  511MOL0     C68865   8.962   8.209   8.739 -0.4921 -0.2043 -0.1276
  511MOL0     C68866   8.995   8.173   8.882 -0.0821 -0.0348  0.6575
  511MOL0     N68867   9.093   8.063   8.897  0.5205 -0.6166  0.1525
  511MOL0     C68868   9.220   8.079   8.860  0.3505  0.0341 -1.0300
  511MOL0     C68869   9.288   7.962   8.893  0.0832 -0.5795  0.2253
  511MOL0     C68870   9.434   7.937   8.867  0.0109  0.7076  0.0120
  511MOL0     C68871   9.452   7.788   8.825 -0.2667  0.8749  0.3188
  511MOL0     C68872   9.398   7.760   8.680  0.3663  0.9194  0.4588
  511MOL0     C68873   9.382   7.611   8.649  0.3465 -0.8451  0.3894
  511MOL0     O68874   9.413   7.587   8.512  0.0747 -0.3492 -0.1227
  511MOL0     C68875   9.548   7.578   8.480 -0.0422 -0.1379  1.1512
  511MOL0     C68876   9.663   7.605   8.554 -0.7546  0.4401 -0.2927
  511MOL0     C68877   9.796   7.577   8.510 -0.3311  0.2052  0.2700
  511MOL0     C68878   9.816   7.538   8.379 -0.3231 -0.2507 -0.1969
  511MOL0     C68879   9.950   7.517   8.317 -0.2918  0.2298  0.2119
  511MOL0     O68880  10.062   7.516   8.400 -0.0597  0.5356  0.3596
  511MOL0     C68881  10.176   7.467   8.346 -0.3163  1.2510 -0.7457
  511MOL0     C68882  10.251   7.543   8.254 -0.5581 -0.1605 -1.0428
  511MOL0     C68883  10.362   7.494   8.188 -0.6935 -0.9793 -0.4028
  511MOL0     C68884  10.400   7.364   8.200  0.0278  0.8688  0.3493
  511MOL0     O68885  10.505   7.299   8.136  0.0714 -0.9159  0.6028
  511MOL0     C68886  10.592   7.370   8.055  0.5423  0.2075 -0.3126
  511MOL0     C68887  10.670   7.278   7.961  0.4010 -0.3024  0.6608
  511MOL0     C68888  10.591   7.209   7.849  0.2555  0.0850 -0.5777
  511MOL0     C68889  10.687   7.119   7.767  0.2259 -0.3303 -0.2887
  511MOL0     C68890  10.618   7.049   7.648 -0.2998  0.6684  0.4647
  511MOL0     C68891  10.713   6.965   7.563  0.0245 -0.1769 -0.4772
  511MOL0     C68892  10.650   6.907   7.430 -0.1359 -0.0869  0.7051
  511MOL0     C68893  10.592   7.011   7.331  0.0482  0.6974  0.0278
  511MOL0    Cl68894  10.699   7.145   7.302 -0.0364  0.0667 -0.0061
  511MOL0     C68895  10.325   7.278   8.295  0.2098  0.1205  0.1547
  511MOL0     C68896  10.215   7.330   8.358  0.5147 -0.0017  0.4893
  511MOL0     O68897   9.943   7.482   8.200 -0.3955  0.4171 -0.1910
  511MOL0     C68898   9.702   7.504   8.306  0.5885 -0.6008 -0.0246
  511MOL0     C68899   9.573   7.532   8.348 -0.2068  0.8159  0.1560
  511MOL0     N68900   9.200   7.878   8.956  0.0465 -0.0666 -0.0303
  511MOL0     N68901   9.088   7.945   8.966  1.1422 -0.0210  0.4140
  511MOL0     C68902   8.253   8.571   8.450  0.1581 -0.2827  0.5503
  511MOL0     C68903   8.134   8.566   8.375 -0.1819  0.4829  0.0137
  511MOL0     C68904   7.728   8.558   8.205  0.1025  0.5032  0.4892
  511MOL0     C68905   7.626   8.514   8.299 -0.9184  0.3290  0.6304
  511MOL0     C68906   7.492   8.497   8.260 -0.4163 -0.8793  0.2862
  511MOL0     C68907   7.453   8.512   8.125  0.1027  0.7601  0.6017
  511MOL0     O68908   7.323   8.482   8.097  0.6181 -0.4105 -0.0968
  511MOL0     C68909   7.280   8.495   7.968  0.4322 -0.0529 -0.1422
  511MOL0     C68910   7.129   8.496   7.972 -0.1538 -0.1486 -0.9254
  511MOL0     C68911   7.070   8.573   7.862  0.3004  0.7822 -0.0980
  511MOL0     C68912   6.936   8.512   7.819 -0.1669  0.6048  0.2957
  511MOL0     C68913   6.840   8.507   7.928  0.3589 -0.0450 -0.5804
  511MOL0     C68914   6.743   8.524   8.000  0.4394  0.6587  0.7986
  511MOL0     C68915   7.550   8.553   8.031 -0.6533  0.3444  0.1456
  511MOL0     C68916   7.683   8.572   8.073  0.5337  0.5967 -0.2000
  511MOL0     C68917   7.776   8.635   7.965  0.1478 -0.3399  0.3736
  511MOL0     H68918   7.912   8.564   8.627  0.0991  0.6168  1.7768
  511MOL0     H68919   8.110   8.560   8.764 -1.5079  2.1182 -0.3712
  511MOL0     H68920   8.310   8.638   8.839  1.0055  2.7780 -1.8847
  511MOL0     H68921   8.365   8.462   8.809  3.0357 -0.8069 -4.0817
  511MOL0     H68922   8.505   8.658   8.938 -0.4455  2.1666 -1.7591
  511MOL0     H68923   8.548   8.683   8.768  0.3041 -1.8200 -1.0061
  511MOL0     H68924   8.632   8.469   8.952 -2.0544 -0.1872  0.0860
  511MOL0     H68925   8.719   8.549   8.835 -0.2904  1.9279  0.3197
  511MOL0     H68926   8.511   8.329   8.765  0.0149 -0.4472 -1.2281
  511MOL0     H68927   8.611   8.413   8.645 -0.9366  3.6976  1.2957
  511MOL0     H68928   8.724   8.271   8.882  0.1365 -1.0122 -0.2937
  511MOL0     H68929   8.681   8.187   8.726 -1.1342 -0.6206  0.2160
  511MOL0     H68930   8.845   8.342   8.612  1.4986  1.8208  1.4343
  511MOL0     H68931   8.893   8.410   8.771 -0.1545  1.1619 -0.2115
  511MOL0     H68932   9.052   8.237   8.685 -0.8413 -0.2823 -0.7647
  511MOL0     H68933   8.919   8.117   8.698 -2.3146  0.5435 -0.0104
  511MOL0     H68934   9.025   8.264   8.935  1.3746 -0.8119  1.2069
  511MOL0     H68935   8.899   8.147   8.929 -0.8149 -1.6581 -1.5678
  511MOL0     H68936   9.266   8.164   8.811  1.4273  0.3070  0.3757
  511MOL0     H68937   9.471   8.011   8.796  2.6493  0.3775  0.9353
  511MOL0     H68938   9.492   7.961   8.956  0.5900  2.2236 -0.7435
  511MOL0     H68939   9.557   7.759   8.836 -0.6573 -0.0786  1.9289
  511MOL0     H68940   9.407   7.726   8.903  0.6047 -2.7632 -1.8568
  511MOL0     H68941   9.467   7.811   8.612 -0.1764  3.8453  1.9908
  511MOL0     H68942   9.305   7.814   8.660 -0.7630 -1.1304 -0.2313
  511MOL0     H68943   9.279   7.582   8.670  0.6871 -0.4975  2.8820
  511MOL0     H68944   9.432   7.540   8.716 -0.2785  0.1757  1.9858
  511MOL0     H68945   9.654   7.629   8.659 -0.4077 -0.1676 -0.1179
  511MOL0     H68946   9.880   7.603   8.574 -0.3510 -0.5425  0.6131
  511MOL0     H68947  10.216   7.646   8.254  1.4205  0.7179  2.9958
  511MOL0     H68948  10.429   7.560   8.133  0.9153 -1.9880  0.2655
  511MOL0     H68949  10.552   7.455   7.998  0.6331  1.2217  1.0725
  511MOL0     H68950  10.671   7.418   8.115 -0.6624  2.3091 -0.3103
  511MOL0     H68951  10.743   7.336   7.905 -3.1218  1.4049 -2.6918
  511MOL0     H68952  10.725   7.207   8.023 -0.0869 -0.5284  0.8456
  511MOL0     H68953  10.507   7.154   7.895  1.2826  0.0646  1.4156
  511MOL0     H68954  10.552   7.283   7.779  2.6878  1.4361 -0.5980
  511MOL0     H68955  10.715   7.040   7.837 -0.1117  0.1248  0.3712
  511MOL0     H68956  10.772   7.178   7.729  0.2671 -0.3071 -0.1612
  511MOL0     H68957  10.585   7.125   7.577  2.1282  1.6286  0.2718
  511MOL0     H68958  10.533   6.993   7.689  1.1711 -1.7634  0.3991
  511MOL0     H68959  10.796   7.032   7.541  0.6894 -0.0921  1.9846
  511MOL0     H68960  10.737   6.873   7.618  1.6927  0.6233  0.1892
  511MOL0     H68961  10.571   6.836   7.455 -0.6652  0.4279  0.5204
  511MOL0     H68962  10.728   6.853   7.376 -2.4095 -3.1559  0.2332
  511MOL0     H68963  10.564   6.971   7.233 -0.2938  1.1526 -0.0597
  511MOL0     H68964  10.497   7.045   7.374 -0.0538  1.9383 -1.1482
  511MOL0     H68965  10.367   7.185   8.330  0.8253  0.2951 -0.1024
  511MOL0     H68966  10.161   7.261   8.422 -1.7007  3.4966  2.7362
  511MOL0     H68967   9.698   7.483   8.200  0.1568  0.0025 -0.1316
  511MOL0     H68968   9.487   7.517   8.283  0.7030 -0.9027 -0.7144
  511MOL0     H68969   8.352   8.588   8.409  0.6474  2.2176  2.4770
  511MOL0     H68970   8.138   8.558   8.267 -2.9582  2.0520 -0.3160
  511MOL0     H68971   7.657   8.484   8.398  0.5184 -0.2535  0.0239
  511MOL0     H68972   7.417   8.473   8.334  0.2601 -2.1092  0.5913
  511MOL0     H68973   7.326   8.419   7.904  0.3641 -1.5937  1.5619
  511MOL0     H68974   7.312   8.593   7.933 -0.3959  1.6552  3.4106
  511MOL0     H68975   7.102   8.534   8.072  1.9173  2.2306 -1.1511
  511MOL0     H68976   7.089   8.395   7.976  1.3689 -0.7448  0.5272
  511MOL0     H68977   7.118   8.581   7.764 -2.2372 -0.3082 -1.5275
  511MOL0     H68978   7.059   8.673   7.905  1.9812  0.3351  1.4650
  511MOL0     H68979   6.893   8.572   7.738  1.0428 -0.3730 -1.1310
  511MOL0     H68980   6.943   8.411   7.778 -2.1653  0.0704  1.1712
  511MOL0     H68981   6.663   8.525   8.071 -0.5771 -1.9430 -0.1643
  511MOL0     H68982   7.526   8.578   7.928 -1.9982  0.9244  0.5760
  511MOL0     H68983   7.816   8.730   8.001 -0.2287 -0.2030  0.4413
  511MOL0     H68984   7.856   8.566   7.939 -0.4270 -0.5033 -1.0774
  511MOL0     H68985   7.726   8.661   7.871 -1.3428  4.9505  2.2697
  512MOL0     O68986   9.222   3.897  10.167 -0.2111  0.9934 -0.1932
  512MOL0     C68987   9.195   4.011  10.147 -0.7646 -0.7713 -0.4203
  512MOL0     O68988   9.260   4.118  10.208 -0.3197  0.3021 -1.0559
  512MOL0     C68989   9.378   4.095  10.273  0.1465  0.2966  0.0436
  512MOL0     C68990   9.482   4.017  10.221  0.4164  0.0567  0.5350
  512MOL0     C68991   9.594   3.987  10.302  1.5275 -1.1148 -0.3702
  512MOL0     C68992   9.595   4.029  10.437 -0.3124 -0.2590  0.3513
  512MOL0     O68993   9.693   3.986  10.522 -0.6720 -0.5558 -0.3342
  512MOL0     C68994   9.820   4.048  10.493 -1.2998  0.2524  0.2858
  512MOL0     C68995   9.933   3.966  10.541 -0.6689 -0.0453 -1.5239
  512MOL0     C68996  10.004   3.879  10.431 -0.0847 -0.1661 -0.4442
  512MOL0     C68997  10.009   3.734  10.491 -0.3552  0.3181  0.3435
  512MOL0     C68998   9.881   3.652  10.455 -0.5684 -0.7692  0.6994
  512MOL0     C68999   9.872   3.517  10.521 -0.0160 -0.5841 -0.3495
  512MOL0     C69000   9.852   3.525  10.674  0.5804 -0.3428 -0.3469
  512MOL0     C69001   9.729   3.609  10.728 -0.4090 -0.0765  0.3110
  512MOL0     N69002   9.598   3.578  10.656  0.5152  0.8766  0.0105
  512MOL0     C69003   9.546   3.653  10.553  0.0347 -0.8757 -0.2518
  512MOL0     C69004   9.431   3.591  10.532  0.1510  0.7637  0.8889
  512MOL0     C69005   9.336   3.639  10.421 -0.7728  0.1408  0.2591
  512MOL0     C69006   9.363   3.569  10.291 -1.0050 -0.2137  0.8283
  512MOL0     C69007   9.476   3.617  10.221 -0.2655 -1.9536  0.8375
  512MOL0     C69008   9.489   3.546  10.078  0.0842 -0.4896  0.1382
  512MOL0     O69009   9.536   3.409  10.103  0.2683  0.7383  0.4413
  512MOL0     C69010   9.522   3.333   9.995  0.0390 -0.6584 -0.4400
  512MOL0     C69011   9.409   3.252   9.975  0.2720 -0.1317  0.7056
  512MOL0     C69012   9.400   3.163   9.869  0.3334  0.3855  0.4445
  512MOL0     C69013   9.507   3.149   9.783  0.3771 -0.7642 -0.2659
  512MOL0     C69014   9.512   3.054   9.680  1.1004 -0.3408 -1.0221
  512MOL0     O69015   9.636   2.981   9.665  0.5216  0.2299  0.0837
  512MOL0     C69016   9.636   2.885   9.576  0.3120  0.5055 -0.5935
  512MOL0     C69017   9.677   2.894   9.437  0.7003 -0.8369 -0.1611
  512MOL0     C69018   9.657   2.775   9.359 -0.3166  0.0853 -0.4762
  512MOL0     C69019   9.598   2.658   9.410  0.1310  0.4116  0.1537
  512MOL0     O69020   9.551   2.563   9.321 -0.1622 -0.3120  0.8303
  512MOL0     C69021   9.647   2.488   9.240 -0.2804 -0.5452 -0.6085
  512MOL0     C69022   9.715   2.378   9.336  1.2486 -0.2336 -0.2098
  512MOL0     C69023   9.596   2.279   9.372 -0.7191 -0.2116  0.1510
  512MOL0     C69024   9.547   2.201   9.259  0.2718 -0.0424 -0.3730
  512MOL0     C69025   9.486   2.069   9.308 -0.5027 -0.5945 -0.0038
  512MOL0     C69026   9.450   1.982   9.182 -0.4691 -0.6227 -0.2294
  512MOL0     C69027   9.566   1.946   9.079 -0.0623  0.2963 -0.5917
  512MOL0     C69028   9.523   1.878   8.958 -0.4835 -0.9068  0.2697
  512MOL0    Cl69029   9.420   1.741   8.964  0.3511  0.4614  0.0139
  512MOL0     C69030   9.558   2.658   9.543  0.2276  0.9119 -0.1805
  512MOL0     C69031   9.575   2.769   9.625 -0.0214  1.3571  0.2260
  512MOL0     O69032   9.406   3.039   9.621 -0.0198 -0.2836  0.4746
  512MOL0     C69033   9.628   3.218   9.810 -0.0310 -1.4800 -0.9198
  512MOL0     C69034   9.630   3.312   9.914 -0.8553  0.5011 -0.2408
  512MOL0     N69035   9.417   3.472  10.611  0.4008 -0.1159  0.4607
  512MOL0     N69036   9.515   3.475  10.686  0.0899  0.0601 -0.6243
  512MOL0     C69037   9.496   4.111  10.484 -0.4308 -0.2196 -0.3145
  512MOL0     C69038   9.385   4.141  10.404 -0.5993 -0.1637  0.3925
  512MOL0     C69039   9.097   4.056  10.041 -0.1804  0.1677 -0.7410
  512MOL0     C69040   9.090   4.198  10.012  0.2566  0.5846 -0.1715
  512MOL0     C69041   9.001   4.248   9.913  0.5875  0.6939 -0.6798
  512MOL0     C69042   8.920   4.158   9.842  0.0997  0.8091  0.7137
  512MOL0     O69043   8.832   4.198   9.746 -0.0801  0.2532 -0.4099
  512MOL0     C69044   8.834   4.336   9.687 -0.4081 -1.1280  0.0844
  512MOL0     C69045   8.732   4.341   9.575 -0.6035  0.7064 -0.0110
  512MOL0     C69046   8.739   4.473   9.502 -0.1228 -0.6270  0.1460
  512MOL0     C69047   8.864   4.483   9.411 -0.3892 -0.2344  0.4161
  512MOL0     C69048   8.816   4.515   9.281 -0.1165 -0.2469  1.1285
  512MOL0     C69049   8.766   4.534   9.175 -0.4921  0.1792 -0.0097
  512MOL0     C69050   8.927   4.021   9.868  0.6549 -0.2744  1.0160
  512MOL0     C69051   9.013   3.967   9.968  0.5897  1.3817  1.2574
  512MOL0     C69052   9.018   3.811   9.990 -0.4424 -0.1868  0.9653
  512MOL0     H69053   9.463   3.974  10.123  1.4579 -0.7202  0.6598
  512MOL0     H69054   9.668   3.917  10.263  2.5266 -0.2371 -0.1210
  512MOL0     H69055   9.834   4.065  10.386 -0.4183 -2.3322 -0.0666
  512MOL0     H69056   9.833   4.140  10.551  2.6861 -1.5010  2.6165
  512MOL0     H69057   9.890   3.902  10.618 -4.8336  2.2019 -1.7009
  512MOL0     H69058  10.005   4.038  10.580 -1.1899  0.7071 -1.9325
  512MOL0     H69059  10.105   3.914  10.409 -1.0669  0.6688 -4.4085
  512MOL0     H69060   9.950   3.877  10.336 -1.0763 -1.7234  0.1096
  512MOL0     H69061  10.097   3.685  10.448 -0.5239  1.0297 -0.8789
  512MOL0     H69062  10.024   3.739  10.599 -4.7914  1.5901  1.1248
  512MOL0     H69063   9.803   3.720  10.492  0.7211  1.1856 -0.0310
  512MOL0     H69064   9.872   3.630  10.348 -0.4507  2.3389 -0.0223
  512MOL0     H69065   9.785   3.467  10.475 -2.0768  1.7496  0.7670
  512MOL0     H69066   9.965   3.462  10.504  2.3171  3.0548 -0.2022
  512MOL0     H69067   9.941   3.566  10.722  0.7447 -3.2093  2.0711
  512MOL0     H69068   9.837   3.422  10.708  0.1778 -0.1060  0.1929
  512MOL0     H69069   9.717   3.583  10.834  0.5662  2.0161  1.0005
  512MOL0     H69070   9.751   3.716  10.724  0.5447 -0.2929 -2.1254
  512MOL0     H69071   9.575   3.751  10.518 -0.4607 -0.5517  0.2239
  512MOL0     H69072   9.237   3.604  10.452 -0.0734  1.0152  3.9686
  512MOL0     H69073   9.330   3.747  10.408 -2.7963  0.0203 -0.0545
  512MOL0     H69074   9.381   3.463  10.315 -1.4795 -0.4340  0.2445
  512MOL0     H69075   9.267   3.567  10.239  0.0557  0.1372 -1.2391
  512MOL0     H69076   9.570   3.598  10.273 -0.5085 -2.9102  0.9468
  512MOL0     H69077   9.466   3.725  10.205 -4.7997 -2.3850 -0.6449
  512MOL0     H69078   9.566   3.603  10.024  2.5463  2.2786  5.6896
  512MOL0     H69079   9.392   3.554  10.028  0.1720  0.0302  0.0466
  512MOL0     H69080   9.324   3.260  10.042 -1.0138  0.6785 -0.9247
  512MOL0     H69081   9.315   3.100   9.846  1.8663 -2.0762  1.1220
  512MOL0     H69082   9.714   2.990   9.402 -0.0818 -0.4912 -0.0588
  512MOL0     H69083   9.702   2.781   9.261  0.1816 -0.2961 -0.2766
  512MOL0     H69084   9.601   2.447   9.149 -2.0365 -0.8313  0.3662
  512MOL0     H69085   9.727   2.551   9.200 -1.1047 -1.2698 -3.7231
  512MOL0     H69086   9.779   2.305   9.286 -0.3602 -1.2561 -0.8471
  512MOL0     H69087   9.767   2.416   9.424 -0.2770 -0.1383  0.6757
  512MOL0     H69088   9.618   2.213   9.457 -4.3550 -0.0762  1.3601
  512MOL0     H69089   9.513   2.341   9.407 -0.3617  0.7393 -0.6617
  512MOL0     H69090   9.623   2.185   9.182  0.0145  1.1524 -0.9076
  512MOL0     H69091   9.470   2.259   9.206 -0.1273 -0.2724 -0.0466
  512MOL0     H69092   9.406   2.102   9.374 -0.1611  2.2193 -0.8575
  512MOL0     H69093   9.559   2.018   9.371 -1.6156  0.1033  1.9165
  512MOL0     H69094   9.404   1.889   9.216  1.9254 -1.1439  1.9118
  512MOL0     H69095   9.372   2.039   9.131  0.4388  1.4114  0.5047
  512MOL0     H69096   9.645   1.881   9.119  1.5584  1.3742 -1.9004
  512MOL0     H69097   9.624   2.034   9.051  0.5121  0.2427  0.3815
  512MOL0     H69098   9.480   1.954   8.892 -0.2033 -0.0507  1.0470
  512MOL0     H69099   9.617   1.859   8.905  0.5609  1.8004  1.0097
  512MOL0     H69100   9.517   2.572   9.594  0.2183  1.1018  0.1326
  512MOL0     H69101   9.547   2.759   9.729 -3.6060 -0.3658 -0.7062
  512MOL0     H69102   9.716   3.218   9.747  0.9304  1.1378  0.2739
  512MOL0     H69103   9.725   3.364   9.911 -0.6123  0.0246 -1.1806
  512MOL0     H69104   9.500   4.133  10.591  0.3878  1.7026 -0.7037
  512MOL0     H69105   9.293   4.183  10.443 -0.4373 -0.8089  1.5062
  512MOL0     H69106   9.153   4.264  10.070 -0.5657  0.4907  0.8610
  512MOL0     H69107   9.010   4.353   9.886  1.1975  0.5528 -1.0523
  512MOL0     H69108   8.936   4.356   9.654 -0.2676  1.3697  1.7964
  512MOL0     H69109   8.800   4.412   9.758 -0.7874  0.1844 -1.4313
  512MOL0     H69110   8.631   4.322   9.613 -0.1059 -0.8789  0.5817
  512MOL0     H69111   8.748   4.255   9.510 -1.2997 -0.5082  1.3586
  512MOL0     H69112   8.742   4.541   9.588  0.5567  0.2577 -0.5566
  512MOL0     H69113   8.648   4.508   9.452 -1.7919 -0.8031  2.8136
  512MOL0     H69114   8.924   4.568   9.444  1.4884 -2.4053  2.9936
  512MOL0     H69115   8.935   4.400   9.406 -1.5414 -1.1658 -2.0732
  512MOL0     H69116   8.706   4.557   9.090  1.0664  0.1410 -1.1478
  512MOL0     H69117   8.857   3.958   9.814 -1.2557  0.6136  2.3645
  512MOL0     H69118   8.966   3.775  10.079  0.2674 -0.6343  1.1997
  512MOL0     H69119   8.978   3.754   9.906 -0.1822  3.5945 -1.9882
  512MOL0     H69120   9.120   3.777  10.007  0.0307  0.3369 -0.6762
  513MOL0     O69121   7.053   6.341   4.665  0.0246 -0.2450 -0.0225
  513MOL0     C69122   6.988   6.440   4.637 -0.0884  0.1736 -0.7407
  513MOL0     O69123   7.035   6.568   4.643  0.3159  0.2964  0.4177
  513MOL0     C69124   7.174   6.569   4.654  0.6726 -0.0371  0.5862
  513MOL0     C69125   7.232   6.567   4.782 -0.1190 -0.4378 -0.4886
  513MOL0     C69126   7.363   6.605   4.801 -0.3278 -0.5620 -0.1549
  513MOL0     C69127   7.445   6.631   4.691 -0.2968  0.5937 -0.4255
  513MOL0     O69128   7.580   6.654   4.700  0.5451 -0.6835 -0.0027
  513MOL0     C69129   7.651   6.530   4.730  0.1116 -0.2884  0.4275
  513MOL0     C69130   7.797   6.542   4.671  0.3805 -0.0897 -0.3904
  513MOL0     C69131   7.877   6.659   4.733 -0.0627 -0.1728  0.0789
  513MOL0     C69132   7.903   6.772   4.632 -0.1876  0.1760 -0.6346
  513MOL0     C69133   7.964   6.893   4.706  1.5293  0.2449  0.0746
  513MOL0     C69134   7.870   6.977   4.796 -0.0819  0.5840  0.0852
  513MOL0     C69135   7.939   7.102   4.861 -0.3373 -0.2714 -0.3269
  513MOL0     C69136   7.844   7.145   4.965  0.3125  0.4040 -0.1737
  513MOL0     N69137   7.869   7.290   5.008 -0.4138  0.4567  0.6336
  513MOL0     C69138   7.948   7.327   5.113 -0.6601 -0.6416  0.1375
  513MOL0     C69139   7.949   7.462   5.114 -0.3046  0.2668  0.2827
  513MOL0     C69140   8.017   7.553   5.210 -0.8767 -0.0169 -0.3472
  513MOL0     C69141   8.163   7.582   5.159  0.2519  0.4245 -0.9643
  513MOL0     C69142   8.210   7.701   5.240 -0.7478  0.0301  0.4109
  513MOL0     C69143   8.219   7.671   5.399 -0.1153 -0.0661 -0.2688
  513MOL0     O69144   8.336   7.587   5.442 -0.2413 -0.1573 -0.2596
  513MOL0     C69145   8.463   7.627   5.427  0.7942 -0.0415  0.1788
  513MOL0     C69146   8.497   7.757   5.407 -0.5181  0.6010 -0.0522
  513MOL0     C69147   8.631   7.800   5.386 -0.5153  0.0109  0.4825
  513MOL0     C69148   8.743   7.707   5.387 -0.0875  0.2098  0.4730
  513MOL0     C69149   8.879   7.751   5.371  1.2729 -0.3716  0.7109
  513MOL0     O69150   8.975   7.676   5.435  0.4518 -0.1270  0.3677
  513MOL0     C69151   9.098   7.702   5.403  0.6542 -0.4499 -0.0608
  513MOL0     C69152   9.159   7.620   5.309 -0.4899  1.1020  0.3221
  513MOL0     C69153   9.292   7.635   5.279  0.3463 -0.0655 -0.5918
  513MOL0     C69154   9.368   7.745   5.328  0.1213  1.1469 -0.8500
  513MOL0     O69155   9.503   7.782   5.303  0.7107 -0.3963  0.6083
  513MOL0     C69156   9.565   7.714   5.190  0.0816  0.1056  0.0032
  513MOL0     C69157   9.698   7.776   5.146 -1.0343 -0.1483  0.1555
  513MOL0     C69158   9.803   7.762   5.265  0.2994  0.0775 -0.0086
  513MOL0     C69159   9.950   7.732   5.207  0.4401  0.2830 -0.3074
  513MOL0     C69160  10.047   7.704   5.320 -0.6750  0.3102 -0.3860
  513MOL0     C69161  10.184   7.679   5.277 -0.6622 -0.2416 -0.5367
  513MOL0     C69162  10.240   7.567   5.362 -0.0736  0.7670 -0.2571
  513MOL0     C69163  10.195   7.423   5.303 -0.0388 -0.1587  0.3596
  513MOL0    Cl69164  10.285   7.380   5.154  0.1334 -0.2357  0.3843
  513MOL0     C69165   9.306   7.824   5.421 -0.5679 -0.1767 -0.5916
  513MOL0     C69166   9.172   7.804   5.457  0.0644  0.2139 -0.2623
  513MOL0     O69167   8.898   7.847   5.295  0.2613 -0.0350 -0.8221
  513MOL0     C69168   8.703   7.573   5.411  0.3044  0.0875 -0.5338
  513MOL0     C69169   8.567   7.543   5.441  0.0122  0.4044 -0.0606
  513MOL0     N69170   7.868   7.506   5.014  0.1530  0.2247 -0.0177
  513MOL0     N69171   7.831   7.403   4.951  0.3566  0.2802  0.5512
  513MOL0     C69172   7.387   6.641   4.569 -0.0970  0.0007 -0.2609
  513MOL0     C69173   7.256   6.617   4.551  0.0335 -0.1940  0.0056
  513MOL0     C69174   6.852   6.428   4.583  1.6934  1.0976 -0.7959
  513MOL0     C69175   6.810   6.511   4.481  0.1777 -0.2436  0.3911
  513MOL0     C69176   6.695   6.486   4.404  0.6990 -0.0605 -0.4758
  513MOL0     C69177   6.602   6.397   4.448  0.2957  0.1285 -0.6720
  513MOL0     O69178   6.485   6.384   4.373 -0.4617 -0.2191  0.2191
  513MOL0     C69179   6.381   6.309   4.430  0.2634 -0.2031 -0.2987
  513MOL0     C69180   6.251   6.336   4.354  0.2199 -0.2571 -0.0668
  513MOL0     C69181   6.249   6.264   4.216 -2.0356  0.7557  0.8369
  513MOL0     C69182   6.127   6.283   4.135  1.2782 -0.0845 -0.9727
  513MOL0     C69183   6.011   6.196   4.175  0.1776  0.3327 -0.3379
  513MOL0     C69184   5.935   6.104   4.215 -0.2251  1.0993  0.2819
  513MOL0     C69185   6.635   6.317   4.560 -0.4181  0.0877  0.3948
  513MOL0     C69186   6.755   6.328   4.633  0.0060  0.6133  0.2064
  513MOL0     C69187   6.778   6.229   4.746  0.8284  0.2354  0.8095
  513MOL0     H69188   7.163   6.554   4.864 -0.1659  0.7161 -0.3239
  513MOL0     H69189   7.416   6.607   4.896 -0.8146  1.7286  0.1291
  513MOL0     H69190   7.672   6.504   4.834 -0.0355 -0.1635  0.4872
  513MOL0     H69191   7.592   6.446   4.690 -1.0435  1.7231 -2.4418
  513MOL0     H69192   7.786   6.559   4.564 -1.2721  0.4798 -0.1566
  513MOL0     H69193   7.856   6.452   4.693 -0.0518  0.6135  5.0449
  513MOL0     H69194   7.978   6.625   4.757  1.4490 -0.2267 -5.0504
  513MOL0     H69195   7.818   6.707   4.812 -1.5268  3.2435 -2.7839
  513MOL0     H69196   7.976   6.744   4.556  0.1979  0.3243 -0.3244
  513MOL0     H69197   7.814   6.809   4.581 -0.1594  0.6026 -0.3773
  513MOL0     H69198   8.050   6.856   4.763  0.2082 -3.7004 -0.1679
  513MOL0     H69199   8.005   6.960   4.631  2.3688  0.1584  0.4422
  513MOL0     H69200   7.780   7.013   4.745 -0.9548  1.6635  2.2551
  513MOL0     H69201   7.831   6.914   4.876 -1.1838  1.8954  0.6276
  513MOL0     H69202   7.950   7.187   4.793 -0.2060 -1.2618 -1.5786
  513MOL0     H69203   8.034   7.072   4.908 -0.6940 -1.4080 -0.3008
  513MOL0     H69204   7.745   7.144   4.920  1.0745  1.2770 -2.0109
  513MOL0     H69205   7.855   7.084   5.055  0.1467 -0.8558 -0.9774
  513MOL0     H69206   8.005   7.258   5.174 -0.1047  1.3314  1.9728
  513MOL0     H69207   7.958   7.645   5.211 -0.4280  0.2887  1.5189
  513MOL0     H69208   8.000   7.516   5.312 -1.0127  4.6318  1.5676
  513MOL0     H69209   8.222   7.492   5.179 -0.5529  0.0193 -0.3862
  513MOL0     H69210   8.163   7.596   5.050  0.0110  1.4786 -0.8304
  513MOL0     H69211   8.144   7.785   5.215 -2.1825 -0.9326  0.8756
  513MOL0     H69212   8.312   7.728   5.211  0.0911 -0.1231  2.9372
  513MOL0     H69213   8.133   7.611   5.427 -0.2579 -0.3477 -1.2620
  513MOL0     H69214   8.203   7.760   5.461 -0.6243 -0.2688 -0.1025
  513MOL0     H69215   8.420   7.832   5.403 -0.7532  0.5434  2.2198
  513MOL0     H69216   8.641   7.908   5.381  2.2834 -0.2349 -2.0795
  513MOL0     H69217   9.097   7.550   5.254 -0.4232  1.4319 -0.1819
  513MOL0     H69218   9.334   7.557   5.217  2.1167 -1.7502  2.4648
  513MOL0     H69219   9.594   7.614   5.224  1.2895  1.3829  3.0459
  513MOL0     H69220   9.502   7.697   5.102 -0.1249 -0.0298  0.1770
  513MOL0     H69221   9.742   7.729   5.057 -1.3684 -2.2063  1.0036
  513MOL0     H69222   9.685   7.880   5.115  3.3686  1.4520  2.8200
  513MOL0     H69223   9.794   7.858   5.315 -1.7373  0.1322 -0.3845
  513MOL0     H69224   9.781   7.689   5.344  3.0436  1.6176  2.3457
  513MOL0     H69225   9.983   7.826   5.161  2.1168  0.0545  0.3604
  513MOL0     H69226   9.949   7.648   5.137 -1.2926 -1.6977  1.9335
  513MOL0     H69227  10.008   7.618   5.374 -0.1050  0.6560  0.5979
  513MOL0     H69228  10.055   7.782   5.396 -0.9666 -0.2708  0.2494
  513MOL0     H69229  10.196   7.638   5.176 -1.5782 -0.4459 -0.5624
  513MOL0     H69230  10.240   7.772   5.290 -0.0342 -0.9371  2.3817
  513MOL0     H69231  10.210   7.583   5.466  0.7326  1.8997 -0.1773
  513MOL0     H69232  10.349   7.566   5.357  0.1538  2.6747  2.4838
  513MOL0     H69233  10.214   7.345   5.376  4.1391 -0.7592 -1.0679
  513MOL0     H69234  10.089   7.429   5.276 -0.1314  1.1921  0.9442
  513MOL0     H69235   9.383   7.889   5.461  0.5728 -1.0495 -1.2924
  513MOL0     H69236   9.116   7.856   5.533 -0.4474  1.1591 -1.2699
  513MOL0     H69237   8.782   7.499   5.416  0.0052 -0.4112 -2.3956
  513MOL0     H69238   8.550   7.443   5.481 -0.3637  0.1421 -0.8582
  513MOL0     H69239   7.448   6.685   4.490 -0.4315  1.8454  0.4554
  513MOL0     H69240   7.235   6.642   4.447 -1.1455  4.7814  1.1809
  513MOL0     H69241   6.864   6.602   4.454 -0.1559 -0.1190  0.1333
  513MOL0     H69242   6.662   6.545   4.318 -0.4129  0.0680  0.0183
  513MOL0     H69243   6.365   6.350   4.531 -2.5225 -1.4063 -0.1469
  513MOL0     H69244   6.403   6.203   4.446  0.1911 -0.5979 -2.5176
  513MOL0     H69245   6.234   6.444   4.350  0.1975 -0.1392  2.1431
  513MOL0     H69246   6.166   6.294   4.409  0.3528  1.2096  1.3316
  513MOL0     H69247   6.276   6.159   4.230  2.3511  0.9029 -3.6688
  513MOL0     H69248   6.325   6.316   4.157 -3.1650  1.9206  0.3611
  513MOL0     H69249   6.088   6.385   4.130  1.6214  0.1164  0.0993
  513MOL0     H69250   6.159   6.263   4.033 -2.3359 -1.0870 -2.0584
  513MOL0     H69251   5.875   6.022   4.247 -0.8184  0.8190 -1.4548
  513MOL0     H69252   6.559   6.250   4.598  1.2119 -2.1025  0.0234
  513MOL0     H69253   6.853   6.277   4.810  1.3038  2.4783 -1.2621
  513MOL0     H69254   6.682   6.225   4.798 -0.8388  0.7581 -2.0468
  513MOL0     H69255   6.812   6.130   4.715  0.6588 -0.4404  2.6427
  514MOL0     O69256   1.212   7.281  10.711 -0.3130 -0.4874  0.0703
  514MOL0     C69257   1.105   7.222  10.681 -0.7607  0.9926 -0.3280
  514MOL0     O69258   1.090   7.136  10.572 -0.2557 -0.0900 -0.3767
  514MOL0     C69259   1.196   7.066  10.522 -0.1445  0.5321 -0.1271
  514MOL0     C69260   1.292   7.128  10.443 -0.5831  0.7425  0.0198
  514MOL0     C69261   1.402   7.053  10.396 -0.1899 -0.2722  0.7880
  514MOL0     C69262   1.418   6.914  10.426  0.3647  0.2666  0.6587
  514MOL0     O69263   1.515   6.833  10.370  0.2554 -0.0383 -0.6666
  514MOL0     C69264   1.621   6.883  10.282 -0.5265  0.6782 -0.2169
  514MOL0     C69265   1.682   6.761  10.221  0.0390  0.7659 -0.4802
  514MOL0     C69266   1.782   6.809  10.116  0.7576 -0.5989 -0.2600
  514MOL0     C69267   1.875   6.690  10.081 -0.1216 -0.1297  0.4327
  514MOL0     C69268   1.980   6.746   9.971  0.5664 -0.0278 -0.7440
  514MOL0     C69269   2.070   6.620   9.933  0.1032 -0.9312 -1.0521
  514MOL0     C69270   2.205   6.674   9.875  0.0157 -0.3708 -0.5856
  514MOL0     C69271   2.309   6.559   9.869  0.4169 -0.4945 -0.1984
  514MOL0     N69272   2.425   6.589   9.780  0.2476 -0.4152  0.1009
  514MOL0     C69273   2.428   6.540   9.648  0.0929  0.1215 -0.6873
  514MOL0     C69274   2.554   6.579   9.606 -0.3566 -0.0199 -0.2905
  514MOL0     C69275   2.637   6.558   9.481 -0.3246  0.3638  0.0020
  514MOL0     C69276   2.790   6.545   9.498  0.2368 -0.2747 -0.6874
  514MOL0     C69277   2.832   6.468   9.620 -0.4355 -0.1694  0.4273
  514MOL0     C69278   2.966   6.398   9.609  0.9769  0.1875  0.8035
  514MOL0     O69279   3.075   6.491   9.593 -0.2662 -0.3374  0.5932
  514MOL0     C69280   3.196   6.441   9.556  0.9124  0.3499  0.3521
  514MOL0     C69281   3.272   6.534   9.481 -0.5069  0.3252 -0.0513
  514MOL0     C69282   3.399   6.497   9.437  0.3170  0.6537 -1.0057
  514MOL0     C69283   3.453   6.364   9.468  0.2364 -0.2520  0.2405
  514MOL0     C69284   3.589   6.328   9.412  0.7838  0.0801  0.1982
  514MOL0     O69285   3.632   6.202   9.449 -0.0841 -0.5588 -0.1376
  514MOL0     C69286   3.759   6.175   9.402 -0.4067  0.2749  0.0482
  514MOL0     C69287   3.876   6.184   9.487 -0.0513 -0.2670  0.2935
  514MOL0     C69288   4.005   6.145   9.444  0.5715 -1.0797  0.1908
  514MOL0     C69289   4.024   6.106   9.312  0.6945  0.5521  1.2094
  514MOL0     O69290   4.150   6.112   9.246 -0.2915  0.0430 -0.6095
  514MOL0     C69291   4.266   6.141   9.320 -1.1733  0.3638 -0.0431
  514MOL0     C69292   4.388   6.125   9.216 -0.1059 -0.6863  0.1104
  514MOL0     C69293   4.523   6.174   9.275 -0.4611  0.1000 -0.3616
  514MOL0     C69294   4.649   6.123   9.206 -0.5359 -0.1324 -0.4963
  514MOL0     C69295   4.771   6.157   9.294  0.4686 -0.1017  0.8372
  514MOL0     C69296   4.903   6.127   9.233 -0.3934 -0.2781 -0.7561
  514MOL0     C69297   5.004   6.222   9.290 -1.2809 -0.8058  0.0930
  514MOL0     C69298   5.145   6.167   9.285 -0.1367 -0.2111 -0.1423
  514MOL0    Cl69299   5.285   6.286   9.310 -0.2125  0.3828  0.0619
  514MOL0     C69300   3.908   6.092   9.226 -0.5710  0.0935 -0.0263
  514MOL0     C69301   3.785   6.124   9.273  0.1469  0.0475 -0.0165
  514MOL0     O69302   3.639   6.399   9.328 -0.6932  0.0499  0.2537
  514MOL0     C69303   3.367   6.272   9.536 -0.2896 -0.3436  0.1304
  514MOL0     C69304   3.249   6.320   9.588  0.1840 -0.1862  0.4307
  514MOL0     N69305   2.609   6.648   9.705 -0.1171  0.5895 -0.7840
  514MOL0     N69306   2.534   6.655   9.810  0.0111  0.2945  0.0682
  514MOL0     C69307   1.324   6.860  10.516  0.4260  0.1325  0.0591
  514MOL0     C69308   1.215   6.931  10.560  0.1659 -0.2414 -1.0196
  514MOL0     C69309   0.979   7.266  10.744 -1.0394 -0.0424  0.0973
  514MOL0     C69310   0.860   7.268  10.667  0.1688 -0.3999 -0.2919
  514MOL0     C69311   0.744   7.336  10.715 -0.0801  0.3417  0.2821
  514MOL0     C69312   0.743   7.377  10.849  0.6095 -0.8868  0.4671
  514MOL0     O69313   0.643   7.434  10.911 -0.2629  0.4448 -0.4556
  514MOL0     C69314   0.519   7.473  10.853  1.2627 -0.1824  0.3250
  514MOL0     C69315   0.415   7.553  10.949 -0.3145 -0.8350 -0.1762
  514MOL0     C69316   0.462   7.701  10.970  0.2569 -0.5059 -0.0636
  514MOL0     C69317   0.457   7.779  10.841  0.4115  0.7797  0.1896
  514MOL0     C69318   0.467   7.924  10.871 -0.0831 -0.4952 -0.6977
  514MOL0     C69319   0.478   8.043  10.881  0.7219 -1.1505 -0.4406
  514MOL0     C69320   0.847   7.355  10.935  0.3459 -0.6064 -0.9190
  514MOL0     C69321   0.969   7.308  10.880  0.6623  0.7194  0.2917
  514MOL0     C69322   1.088   7.286  10.971  0.1828 -0.2574 -0.0825
  514MOL0     H69323   1.295   7.235  10.425  0.2034  0.6650 -0.3647
  514MOL0     H69324   1.484   7.096  10.340 -0.1474  0.1520  1.1682
  514MOL0     H69325   1.581   6.960  10.215 -0.5424  2.5482  1.8534
  514MOL0     H69326   1.691   6.938  10.344 -1.5582  0.2211  1.4111
  514MOL0     H69327   1.607   6.698  10.171  1.2214 -2.7191  1.8079
  514MOL0     H69328   1.731   6.695  10.291  1.2539  0.5084 -1.5412
  514MOL0     H69329   1.840   6.897  10.145  1.9876 -1.2426 -0.7434
  514MOL0     H69330   1.714   6.844  10.038  0.1942 -0.4816  0.2722
  514MOL0     H69331   1.927   6.655  10.171 -1.8878  1.9057  2.3912
  514MOL0     H69332   1.819   6.603  10.045  0.3896  0.0374 -0.8066
  514MOL0     H69333   1.923   6.805   9.899 -0.0508 -0.3244 -0.5078
  514MOL0     H69334   2.038   6.821  10.025 -0.9476  0.5083  0.2218
  514MOL0     H69335   2.088   6.555  10.019 -3.5396  0.1063  0.6826
  514MOL0     H69336   2.008   6.558   9.867  1.1597 -1.4594 -1.5628
  514MOL0     H69337   2.238   6.756   9.939  0.6956 -1.7914  0.9517
  514MOL0     H69338   2.196   6.722   9.777  1.3152 -0.6275 -0.8420
  514MOL0     H69339   2.343   6.527   9.968 -1.3163 -0.8540  0.3109
  514MOL0     H69340   2.252   6.475   9.828  2.8256 -1.6404 -1.4524
  514MOL0     H69341   2.347   6.482   9.604  1.2425  0.9271 -4.1814
  514MOL0     H69342   2.594   6.469   9.434  2.0858 -1.1716  0.5351
  514MOL0     H69343   2.633   6.640   9.408  1.1914  0.4906  0.0295
  514MOL0     H69344   2.820   6.491   9.407  2.4592 -2.4797  1.2000
  514MOL0     H69345   2.842   6.641   9.494 -1.2465  0.5747 -0.2808
  514MOL0     H69346   2.759   6.389   9.642  2.2932 -2.6140  1.4057
  514MOL0     H69347   2.822   6.533   9.708 -2.8598 -1.1767  0.9809
  514MOL0     H69348   2.957   6.353   9.510 -1.6354  2.4892 -0.1682
  514MOL0     H69349   2.969   6.332   9.696 -1.0551  1.3485  1.8317
  514MOL0     H69350   3.234   6.633   9.457  1.8675  1.1740 -0.5533
  514MOL0     H69351   3.454   6.563   9.371 -0.0324  1.2050 -0.7568
  514MOL0     H69352   3.857   6.208   9.591  0.1904 -2.8104  0.9975
  514MOL0     H69353   4.092   6.153   9.508  0.0651 -0.2523  0.7990
  514MOL0     H69354   4.282   6.243   9.355 -1.5500  1.2655 -2.3203
  514MOL0     H69355   4.275   6.065   9.398  0.8872 -0.4355 -1.0001
  514MOL0     H69356   4.395   6.020   9.187 -1.0332 -0.7949  0.2468
  514MOL0     H69357   4.368   6.186   9.127 -0.6215  1.2437  1.4747
  514MOL0     H69358   4.523   6.283   9.272 -0.2969  0.2608  2.4879
  514MOL0     H69359   4.522   6.145   9.380  1.1330  0.8024 -0.1170
  514MOL0     H69360   4.663   6.158   9.103  0.9024 -1.0470 -0.6446
  514MOL0     H69361   4.638   6.014   9.203  2.1131 -0.4413 -2.0314
  514MOL0     H69362   4.765   6.107   9.390 -1.0330  3.1816  2.6191
  514MOL0     H69363   4.768   6.263   9.321 -2.1828 -0.2281  1.3038
  514MOL0     H69364   4.921   6.024   9.264 -1.3218 -0.4771 -0.8693
  514MOL0     H69365   4.905   6.127   9.124  4.0331 -2.5588 -0.8963
  514MOL0     H69366   4.976   6.257   9.390 -3.9892  0.8929 -1.1262
  514MOL0     H69367   5.001   6.306   9.220 -1.7724  0.0499  1.0988
  514MOL0     H69368   5.147   6.092   9.365  0.6301  0.2539  0.2961
  514MOL0     H69369   5.163   6.110   9.194 -0.7210  0.7541 -0.8775
  514MOL0     H69370   3.919   6.044   9.129 -1.2223 -3.3905  1.4695
  514MOL0     H69371   3.697   6.108   9.211 -0.9082  1.7430  0.9780
  514MOL0     H69372   3.426   6.187   9.568  1.8214  0.8188 -0.4698
  514MOL0     H69373   3.196   6.250   9.652  1.8131  0.9233  3.1595
  514MOL0     H69374   1.333   6.755  10.544 -0.1536  0.5263  1.8434
  514MOL0     H69375   1.139   6.883  10.621  0.8053  0.8879  0.7792
  514MOL0     H69376   0.852   7.236  10.564  0.4606  0.9232 -0.7378
  514MOL0     H69377   0.656   7.325  10.651 -1.1724 -0.6294  1.8872
  514MOL0     H69378   0.463   7.383  10.826  0.0680  0.9552 -1.2401
  514MOL0     H69379   0.525   7.537  10.765 -0.6919  0.9394  0.9431
  514MOL0     H69380   0.423   7.500  11.044 -2.2276  0.9733  1.0963
  514MOL0     H69381   0.314   7.552  10.906 -0.5701 -1.5615  0.4012
  514MOL0     H69382   0.568   7.699  10.999  0.8165  0.9017 -1.8142
  514MOL0     H69383   0.394   7.734  11.049 -1.5559  0.1769 -1.8407
  514MOL0     H69384   0.544   7.752  10.780  0.2239 -6.2926  2.1583
  514MOL0     H69385   0.364   7.757  10.788  1.8868  0.2319 -2.3377
  514MOL0     H69386   0.497   8.149  10.878  0.3999 -1.0476  0.6408
  514MOL0     H69387   0.835   7.385  11.038  2.3343 -1.1906 -0.4746
  514MOL0     H69388   1.171   7.357  10.965 -1.6907  2.0633  0.0249
  514MOL0     H69389   1.059   7.281  11.076  1.0853  2.8260  0.3985
  514MOL0     H69390   1.124   7.186  10.944 -0.3960 -0.0698 -1.6497
  515MOL0     O69391   1.588  10.761   7.720 -0.0022 -0.7260  0.0106
  515MOL0     C69392   1.589  10.814   7.830  0.3766 -0.3985  0.1255
  515MOL0     O69393   1.486  10.904   7.878  0.2717 -0.3979 -0.1205
  515MOL0     C69394   1.376  10.929   7.804  0.4795  0.2952  0.1032
  515MOL0     C69395   1.266  10.844   7.788  0.2940  0.2396 -0.2592
  515MOL0     C69396   1.157  10.880   7.712 -0.1291 -0.7095  1.2633
  515MOL0     C69397   1.152  11.015   7.657  0.5136 -0.0142  0.1237
  515MOL0     O69398   1.042  11.049   7.586  0.0860 -0.0533 -0.8873
  515MOL0     C69399   1.065  11.113   7.459  1.0077 -0.2930  0.0925
  515MOL0     C69400   1.150  11.041   7.348  0.9542 -0.0988  0.0351
  515MOL0     C69401   1.138  11.095   7.207 -0.1509 -0.7483  0.7206
  515MOL0     C69402   1.248  11.051   7.107  0.2884 -0.0686  0.8993
  515MOL0     C69403   1.231  11.143   6.988  0.4862 -0.6833  0.4682
  515MOL0     C69404   1.346  11.103   6.890  0.3745 -1.0902 -0.8133
  515MOL0     C69405   1.303  11.157   6.752  0.0162 -1.1776 -0.1899
  515MOL0     C69406   1.418  11.132   6.655 -1.5299 -0.7531 -0.1252
  515MOL0     N69407   1.514  11.244   6.663 -0.4260  0.7070  0.3874
  515MOL0     C69408   1.629  11.250   6.735 -0.2888 -0.4820  0.4509
  515MOL0     C69409   1.711  11.342   6.680  0.1591 -0.3557 -0.3809
  515MOL0     C69410   1.842  11.376   6.736 -0.1112  0.2225  0.1870
  515MOL0     C69411   1.849  11.516   6.800 -0.0336  0.7978  0.8275
  515MOL0     C69412   1.887  11.620   6.695  0.1536 -0.6502 -0.9188
  515MOL0     C69413   2.027  11.619   6.664  0.4619  0.2048 -0.7503
  515MOL0     O69414   2.045  11.562   6.536 -0.7733 -0.2795  0.4881
  515MOL0     C69415   2.166  11.575   6.480  0.4704  0.7534 -0.6722
  515MOL0     C69416   2.182  11.537   6.343  0.1596 -0.1922  1.3031
  515MOL0     C69417   2.299  11.551   6.272 -1.2835  0.0771 -0.1982
  515MOL0     C69418   2.407  11.608   6.334 -0.2481  0.4333  1.1177
  515MOL0     C69419   2.540  11.610   6.265  0.2702 -0.1134  0.1911
  515MOL0     O69420   2.645  11.634   6.340 -1.0723 -0.7743 -0.4684
  515MOL0     C69421   2.770  11.638   6.269 -0.1720 -0.1813 -0.1544
  515MOL0     C69422   2.808  11.745   6.189 -0.5480 -0.4423  0.5028
  515MOL0     C69423   2.932  11.740   6.129 -0.6833 -0.2837  1.5531
  515MOL0     C69424   3.013  11.628   6.145 -0.2733 -0.3045 -0.5868
  515MOL0     O69425   3.143  11.624   6.108 -0.4645  0.0983  0.2184
  515MOL0     C69426   3.212  11.725   6.021  0.0205 -1.0353 -0.9663
  515MOL0     C69427   3.362  11.668   5.996 -0.5434  0.4385 -0.0788
  515MOL0     C69428   3.431  11.632   6.119 -0.0361  0.5522 -0.6424
  515MOL0     C69429   3.582  11.604   6.106  1.0578 -0.8369 -0.2542
  515MOL0     C69430   3.638  11.533   6.227  0.1247  0.3371  0.2566
  515MOL0     C69431   3.792  11.528   6.228  0.4895 -0.6077  0.4641
  515MOL0     C69432   3.836  11.450   6.355  0.5374  0.8253  0.7575
  515MOL0     C69433   3.979  11.413   6.330  0.4902 -0.4004 -0.1425
  515MOL0    Cl69434   4.076  11.557   6.283 -0.8595  0.0443 -0.3625
  515MOL0     C69435   2.978  11.526   6.222  0.1659  0.5979  0.2907
  515MOL0     C69436   2.851  11.525   6.281 -0.3235 -0.7054  0.1817
  515MOL0     O69437   2.547  11.588   6.142  0.9886  0.0952  0.0755
  515MOL0     C69438   2.394  11.662   6.465 -0.4207  0.1831  0.2630
  515MOL0     C69439   2.270  11.646   6.536 -0.7152 -0.5736 -0.4933
  515MOL0     N69440   1.654  11.378   6.557  0.8309 -0.2466 -0.5122
  515MOL0     N69441   1.534  11.333   6.556 -0.3203  0.3607 -0.4953
  515MOL0     C69442   1.262  11.102   7.679  0.0781 -0.2239 -1.1678
  515MOL0     C69443   1.376  11.053   7.743 -0.2649  0.8955  0.4229
  515MOL0     C69444   1.707  10.790   7.917 -0.4190  0.2822  0.4581
  515MOL0     C69445   1.691  10.828   8.054  0.1752 -0.2102  0.5298
  515MOL0     C69446   1.799  10.827   8.141 -0.1791 -0.2820  0.2579
  515MOL0     C69447   1.932  10.792   8.092  0.5286 -0.1837 -0.3381
  515MOL0     O69448   2.055  10.797   8.157  0.4279 -0.0893 -0.3617
  515MOL0     C69449   2.057  10.791   8.301 -0.5064  0.7082  0.2020
  515MOL0     C69450   2.200  10.781   8.352 -0.1620  0.4567 -0.3967
  515MOL0     C69451   2.284  10.694   8.266 -0.2782  0.4070  0.2878
  515MOL0     C69452   2.413  10.675   8.344  0.0192  0.0441 -0.8904
  515MOL0     C69453   2.511  10.633   8.245  0.1716  0.8584  0.6384
  515MOL0     C69454   2.599  10.576   8.174  0.8628  0.5026 -0.6139
  515MOL0     C69455   1.944  10.730   7.970 -0.7167 -0.1949 -0.2974
  515MOL0     C69456   1.835  10.734   7.876  0.2027  0.1494 -0.9153
  515MOL0     C69457   1.867  10.669   7.740 -0.9588  0.9238  0.1559
  515MOL0     H69458   1.259  10.746   7.834 -2.9882  0.3976 -0.1652
  515MOL0     H69459   1.063  10.827   7.701 -1.0264  0.3020  3.2643
  515MOL0     H69460   0.970  11.118   7.405  0.0195 -1.4049  1.6049
  515MOL0     H69461   1.105  11.213   7.476 -0.7337 -0.0460  3.9784
  515MOL0     H69462   1.134  10.933   7.353 -0.5739  0.0893 -0.2046
  515MOL0     H69463   1.253  11.060   7.380  1.7835 -0.7228 -2.1116
  515MOL0     H69464   1.145  11.204   7.205  2.7383 -0.8307  1.3182
  515MOL0     H69465   1.036  11.074   7.174  0.1727 -3.0183  1.0349
  515MOL0     H69466   1.350  11.049   7.146  0.5090 -2.7130  0.3700
  515MOL0     H69467   1.225  10.949   7.076  0.1247  0.8171 -2.1890
  515MOL0     H69468   1.137  11.115   6.938  0.5991 -0.6765  0.2527
  515MOL0     H69469   1.231  11.246   7.023  0.5513 -0.7487  0.6609
  515MOL0     H69470   1.438  11.155   6.916  1.0246 -2.8292  0.5331
  515MOL0     H69471   1.351  10.994   6.884 -2.4551 -1.5344  2.0662
  515MOL0     H69472   1.290  11.266   6.759  0.5750 -1.1163 -0.0814
  515MOL0     H69473   1.210  11.117   6.709 -0.8799  1.9314 -1.4413
  515MOL0     H69474   1.471  11.040   6.683  5.1067  3.4430  3.5703
  515MOL0     H69475   1.391  11.113   6.551  3.1526  0.5926 -1.8414
  515MOL0     H69476   1.643  11.187   6.822 -0.3639 -1.7325 -0.3980
  515MOL0     H69477   1.862  11.304   6.816 -3.1393 -0.9161  0.0266
  515MOL0     H69478   1.915  11.360   6.656 -1.6611 -0.4431 -1.1425
  515MOL0     H69479   1.748  11.539   6.837 -0.3906  0.2347  0.2224
  515MOL0     H69480   1.926  11.508   6.877 -1.0687 -1.6867  1.6801
  515MOL0     H69481   1.866  11.715   6.745  1.4523 -1.1535  0.6571
  515MOL0     H69482   1.833  11.625   6.600  1.2934  0.4166 -1.5359
  515MOL0     H69483   2.089  11.568   6.738  0.9963  0.1085 -1.2619
  515MOL0     H69484   2.077  11.717   6.663  1.2877 -0.1949  0.0764
  515MOL0     H69485   2.102  11.492   6.284  2.6205  0.4688 -2.9872
  515MOL0     H69486   2.302  11.532   6.165  0.4345  0.5065 -0.2637
  515MOL0     H69487   2.740  11.830   6.186 -0.6305 -0.5353 -0.4814
  515MOL0     H69488   2.969  11.824   6.070  0.0402 -1.9546 -0.5073
  515MOL0     H69489   3.145  11.732   5.934 -2.6980  0.2985  1.0892
  515MOL0     H69490   3.209  11.820   6.075  0.2043 -1.4771 -0.1685
  515MOL0     H69491   3.353  11.582   5.930 -3.9260  0.6607 -0.0826
  515MOL0     H69492   3.417  11.747   5.943  1.6547 -0.6833  0.3893
  515MOL0     H69493   3.411  11.713   6.190 -1.3293 -1.2405  1.1736
  515MOL0     H69494   3.382  11.545   6.164  1.1002 -2.6544 -4.9289
  515MOL0     H69495   3.631  11.699   6.083 -2.5301  1.3178  0.2364
  515MOL0     H69496   3.582  11.536   6.021 -3.9408 -1.0737 -0.3389
  515MOL0     H69497   3.603  11.430   6.230 -3.0500  1.2718 -0.8003
  515MOL0     H69498   3.601  11.584   6.316  3.0365  1.0063  1.1915
  515MOL0     H69499   3.826  11.484   6.134 -0.6260  2.2100 -1.3747
  515MOL0     H69500   3.823  11.632   6.239 -2.8103  0.5303  0.1477
  515MOL0     H69501   3.775  11.360   6.365  0.6969  0.2586 -2.5199
  515MOL0     H69502   3.829  11.518   6.441  1.1235  0.7637  0.8590
  515MOL0     H69503   4.025  11.370   6.419  1.7479  2.1090  0.4962
  515MOL0     H69504   3.987  11.337   6.251 -2.7537 -0.0084 -0.9870
  515MOL0     H69505   3.036  11.435   6.234 -0.7527  0.1511  1.5030
  515MOL0     H69506   2.832  11.444   6.350  0.8367 -1.4539 -0.3520
  515MOL0     H69507   2.486  11.694   6.513  0.5722 -3.3227  0.9864
  515MOL0     H69508   2.268  11.690   6.636 -2.6018  2.0931 -1.5834
  515MOL0     H69509   1.263  11.201   7.636  0.5240  0.4888  0.4107
  515MOL0     H69510   1.466  11.112   7.753  2.3031 -2.8675  1.5743
  515MOL0     H69511   1.593  10.853   8.094 -0.1193 -1.5882  0.7061
  515MOL0     H69512   1.792  10.866   8.242  3.7366 -0.1623  0.6204
  515MOL0     H69513   1.995  10.702   8.319  1.0812 -0.6096 -0.5528
  515MOL0     H69514   2.013  10.884   8.339 -2.6180  0.7175 -1.9655
  515MOL0     H69515   2.200  10.747   8.456  0.6783 -0.7330 -0.7685
  515MOL0     H69516   2.231  10.885   8.363 -3.4283  1.4047  1.2378
  515MOL0     H69517   2.294  10.733   8.164  0.1004  3.9798  1.5363
  515MOL0     H69518   2.245  10.594   8.247 -1.8908  1.2586 -1.2343
  515MOL0     H69519   2.440  10.773   8.386  2.4780 -0.7289 -0.5376
  515MOL0     H69520   2.397  10.594   8.416 -3.3239 -0.5294 -2.1192
  515MOL0     H69521   2.670  10.519   8.118  0.3152 -1.4807  0.5864
  515MOL0     H69522   2.041  10.694   7.937 -0.2142  0.0549  0.8385
  515MOL0     H69523   1.785  10.638   7.675 -0.2197  0.2536 -0.4755
  515MOL0     H69524   1.932  10.735   7.682  1.7436 -1.2405  0.5374
  515MOL0     H69525   1.929  10.580   7.752 -1.4053  0.5881  0.0105
  516MOL0     O69526   4.944   1.032   4.534  0.2995 -0.4381  0.3682
  516MOL0     C69527   4.945   0.928   4.584 -0.4823  0.0770 -0.2613
  516MOL0     O69528   5.052   0.876   4.640  0.3842 -0.3815 -0.6215
  516MOL0     C69529   5.168   0.941   4.646  0.6096  0.3045  1.0351
  516MOL0     C69530   5.240   0.981   4.534 -0.0331  0.2039  0.3816
  516MOL0     C69531   5.371   1.022   4.545  0.3483 -0.2789 -0.3380
  516MOL0     C69532   5.415   1.076   4.661  0.6597 -0.4476 -0.6548
  516MOL0     O69533   5.519   1.160   4.680 -0.1022  0.0481  0.6179
  516MOL0     C69534   5.628   1.150   4.581 -0.0255 -0.8982 -0.4561
  516MOL0     C69535   5.740   1.245   4.622 -0.4896  0.3170 -0.0820
  516MOL0     C69536   5.799   1.218   4.757  0.5090  0.1711  0.6252
  516MOL0     C69537   5.916   1.312   4.783  0.1196  0.1922  0.8432
  516MOL0     C69538   5.984   1.279   4.921 -0.8327 -0.0647  0.9740
  516MOL0     C69539   6.089   1.382   4.969 -0.0601  0.8776 -0.3082
  516MOL0     C69540   6.227   1.354   4.892  0.7012 -0.1256  0.1150
  516MOL0     C69541   6.271   1.487   4.819  0.1589  0.1775  0.0695
  516MOL0     N69542   6.216   1.496   4.686  0.0389  0.0528  0.3797
  516MOL0     C69543   6.102   1.561   4.644  0.2733  0.3454  0.4105
  516MOL0     C69544   6.106   1.561   4.507  0.4184 -0.3449 -0.0640
  516MOL0     C69545   5.993   1.608   4.417 -0.3882  1.0596 -0.0896
  516MOL0     C69546   5.868   1.514   4.422 -0.8442 -0.8583  0.1504
  516MOL0     C69547   5.773   1.556   4.308 -0.4040 -0.3036 -0.1804
  516MOL0     C69548   5.646   1.466   4.297  0.0265 -1.0517  0.6584
  516MOL0     O69549   5.682   1.340   4.240 -0.2770  0.5165 -0.0472
  516MOL0     C69550   5.574   1.258   4.211  0.7229  0.3421  1.0541
  516MOL0     C69551   5.594   1.126   4.180  0.6920  0.6671  0.3985
  516MOL0     C69552   5.492   1.034   4.158  0.1546  0.2462 -0.5395
  516MOL0     C69553   5.363   1.071   4.157  0.1950  0.3779 -0.5480
  516MOL0     C69554   5.259   0.969   4.139  1.1038  0.1450  0.5392
  516MOL0     O69555   5.295   0.838   4.123 -0.3114 -0.0484  0.5299
  516MOL0     C69556   5.205   0.739   4.156  0.0841 -0.3084 -0.1825
  516MOL0     C69557   5.119   0.695   4.058  0.3614  0.4156 -0.4255
  516MOL0     C69558   5.022   0.594   4.100 -0.4749 -0.9717 -0.5684
  516MOL0     C69559   5.012   0.553   4.232 -0.4649  0.2659 -0.4069
  516MOL0     O69560   4.940   0.440   4.253  0.8572  0.3141 -0.2150
  516MOL0     C69561   4.922   0.360   4.380  0.4750 -0.5719 -0.0106
  516MOL0     C69562   5.027   0.255   4.400  0.1345  0.6823  0.1766
  516MOL0     C69563   5.039   0.173   4.271 -0.4734 -0.8678  0.2122
  516MOL0     C69564   5.099   0.037   4.284 -0.7170  1.2075 -0.1780
  516MOL0     C69565   5.149  -0.022   4.152 -0.2461 -0.2618 -0.1633
  516MOL0     C69566   5.209  -0.161   4.195  0.8302 -0.0464  0.2026
  516MOL0     C69567   5.303  -0.228   4.093 -0.3018 -0.6745 -0.0731
  516MOL0     C69568   5.433  -0.147   4.067  0.0155  0.1566 -0.0670
  516MOL0    Cl69569   5.531  -0.143   4.220  0.2915 -0.3053  0.0444
  516MOL0     C69570   5.104   0.603   4.321  1.1351  0.3050 -0.1749
  516MOL0     C69571   5.193   0.699   4.285  0.2285  0.8976 -1.3796
  516MOL0     O69572   5.151   1.007   4.167  0.7800 -0.4227  0.5125
  516MOL0     C69573   5.331   1.211   4.193  0.5151 -0.6095  0.0667
  516MOL0     C69574   5.440   1.303   4.217  0.9125  0.2121  0.4128
  516MOL0     N69575   6.222   1.494   4.472  0.1941 -0.7999  0.5259
  516MOL0     N69576   6.277   1.450   4.574 -0.2451  0.7673 -0.0590
  516MOL0     C69577   5.335   1.064   4.778  0.4437  0.5691  0.7044
  516MOL0     C69578   5.217   0.989   4.773  0.1823  0.4504 -0.1813
  516MOL0     C69579   4.845   0.828   4.541  0.2586 -0.2598 -0.5868
  516MOL0     C69580   4.791   0.734   4.640 -0.9954 -1.1123 -0.1035
  516MOL0     C69581   4.711   0.634   4.601  0.2594  0.1561  0.7114
  516MOL0     C69582   4.678   0.610   4.463 -0.8870  0.0157 -0.3361
  516MOL0     O69583   4.576   0.515   4.445 -0.3739 -0.3340 -0.0708
  516MOL0     C69584   4.534   0.478   4.316  0.3546  0.0275 -0.5297
  516MOL0     C69585   4.381   0.513   4.309 -0.4740  0.7562 -0.0506
  516MOL0     C69586   4.326   0.495   4.165  0.3296  0.2111  0.3785
  516MOL0     C69587   4.338   0.625   4.093 -0.1607 -1.1691 -0.4526
  516MOL0     C69588   4.247   0.728   4.143 -0.1256  0.3786 -0.1356
  516MOL0     C69589   4.168   0.809   4.191  0.3528  0.9415  0.1132
  516MOL0     C69590   4.725   0.700   4.365 -0.2527  0.2271  0.1630
  516MOL0     C69591   4.814   0.800   4.402  0.2758 -0.0821 -0.4269
  516MOL0     C69592   4.869   0.885   4.291  0.5623 -0.2922  0.1235
  516MOL0     H69593   5.199   0.970   4.434  0.2306 -2.0133  0.4704
  516MOL0     H69594   5.428   1.026   4.453 -2.6975  0.0064 -2.3302
  516MOL0     H69595   5.659   1.046   4.590 -1.3368 -1.1296  2.8607
  516MOL0     H69596   5.593   1.179   4.482  0.7801 -0.7148 -0.6947
  516MOL0     H69597   5.695   1.345   4.616 -1.6782 -0.3038 -3.2709
  516MOL0     H69598   5.811   1.241   4.540 -3.4055  1.1714 -2.8723
  516MOL0     H69599   5.829   1.113   4.755 -0.4588 -0.1264 -1.9465
  516MOL0     H69600   5.724   1.234   4.835 -0.8781  3.1608 -1.1229
  516MOL0     H69601   5.990   1.297   4.704 -2.2880 -1.8212 -1.2124
  516MOL0     H69602   5.877   1.414   4.773 -0.9399 -0.3262 -0.5242
  516MOL0     H69603   5.907   1.283   4.998 -1.1391 -1.0365  0.7251
  516MOL0     H69604   6.033   1.181   4.919 -0.9977 -0.1897 -2.0360
  516MOL0     H69605   6.046   1.482   4.956 -4.0472 -0.7566 -0.9009
  516MOL0     H69606   6.127   1.371   5.071  0.4108  0.6260 -0.5095
  516MOL0     H69607   6.212   1.275   4.817  2.5410 -0.6886  0.2835
  516MOL0     H69608   6.312   1.325   4.954  2.0764  1.2817 -1.0102
  516MOL0     H69609   6.252   1.575   4.880  1.2610 -0.5439  1.5145
  516MOL0     H69610   6.380   1.477   4.810 -0.0167 -0.4096 -1.8964
  516MOL0     H69611   6.033   1.616   4.706 -1.9679 -3.2202  1.3950
  516MOL0     H69612   5.958   1.706   4.451  0.6930  0.9955  1.3351
  516MOL0     H69613   6.031   1.623   4.316  2.4015  0.3059  0.7510
  516MOL0     H69614   5.895   1.409   4.403 -0.2709 -0.9996  1.5876
  516MOL0     H69615   5.807   1.529   4.511 -0.3053 -0.9511  0.5464
  516MOL0     H69616   5.834   1.552   4.217  2.8290 -0.1953  1.8004
  516MOL0     H69617   5.757   1.664   4.317 -1.9783 -0.5316 -0.0816
  516MOL0     H69618   5.582   1.518   4.224  2.2584 -1.3558 -1.6566
  516MOL0     H69619   5.580   1.467   4.385 -2.2137  2.3391 -0.8292
  516MOL0     H69620   5.694   1.084   4.180 -0.6666 -2.9674 -0.6196
  516MOL0     H69621   5.508   0.928   4.138  1.0561  0.5746 -1.7054
  516MOL0     H69622   5.126   0.725   3.954 -4.2209  0.4270 -0.9416
  516MOL0     H69623   4.966   0.552   4.017  1.0566 -1.7327 -1.2506
  516MOL0     H69624   4.899   0.421   4.467 -1.6552  1.0591 -1.6175
  516MOL0     H69625   4.828   0.304   4.373 -0.0867 -0.0683  2.5274
  516MOL0     H69626   5.117   0.316   4.417 -0.4496  1.0119  2.4618
  516MOL0     H69627   4.999   0.190   4.483 -0.8339  0.8540 -0.0131
  516MOL0     H69628   4.937   0.156   4.234 -0.3364 -4.4673  1.0725
  516MOL0     H69629   5.098   0.232   4.200  0.8136 -1.7930  0.4701
  516MOL0     H69630   5.030  -0.032   4.333  2.2061 -1.7761  0.0986
  516MOL0     H69631   5.183   0.045   4.354  0.2228  1.5231 -1.3209
  516MOL0     H69632   5.220   0.048   4.108  0.5109 -1.8047 -1.5502
  516MOL0     H69633   5.068  -0.043   4.082 -0.6873 -1.0753  0.5752
  516MOL0     H69634   5.267  -0.154   4.288 -2.4749 -2.4063  2.7094
  516MOL0     H69635   5.124  -0.225   4.222 -1.1887  2.7287  0.8877
  516MOL0     H69636   5.256  -0.246   3.996 -0.0671 -1.8459  0.0135
  516MOL0     H69637   5.330  -0.321   4.144 -0.4924 -0.7723 -0.1488
  516MOL0     H69638   5.476  -0.206   3.985 -0.7523  1.7104 -1.6515
  516MOL0     H69639   5.408  -0.051   4.021 -2.2366  0.3761  1.4722
  516MOL0     H69640   5.082   0.575   4.424 -2.1850 -0.6969 -1.0129
  516MOL0     H69641   5.251   0.757   4.356  1.7194 -1.2465 -0.7657
  516MOL0     H69642   5.229   1.248   4.199 -0.2943 -2.1987 -2.4129
  516MOL0     H69643   5.412   1.407   4.230  3.1911  1.2760 -2.1326
  516MOL0     H69644   5.388   1.089   4.869 -0.2809  2.2755  0.6847
  516MOL0     H69645   5.163   0.969   4.865  2.4389  2.3086  1.6920
  516MOL0     H69646   4.827   0.730   4.742 -1.0258 -2.4482 -0.1240
  516MOL0     H69647   4.677   0.556   4.668  0.6494 -1.0427 -0.4316
  516MOL0     H69648   4.546   0.370   4.304  0.1084 -0.3357  1.9575
  516MOL0     H69649   4.583   0.530   4.234  1.1084 -2.6169 -1.8629
  516MOL0     H69650   4.356   0.603   4.366  0.9453  2.8724 -2.5764
  516MOL0     H69651   4.337   0.426   4.360 -0.9167 -0.0954 -1.8072
  516MOL0     H69652   4.221   0.467   4.179  0.6395 -0.8552  0.6712
  516MOL0     H69653   4.373   0.413   4.110  0.6752  1.6723 -1.6238
  516MOL0     H69654   4.438   0.668   4.083 -0.8119  0.4325 -0.2818
  516MOL0     H69655   4.313   0.602   3.990 -0.2209 -2.3989 -0.1808
  516MOL0     H69656   4.094   0.878   4.226 -1.4495  1.5724 -4.2374
  516MOL0     H69657   4.694   0.691   4.261 -0.4823 -0.4312  0.2791
  516MOL0     H69658   4.977   0.894   4.281  0.4585  2.4182  0.7395
  516MOL0     H69659   4.835   0.835   4.199 -0.0094 -0.9045  0.6561
  516MOL0     H69660   4.827   0.986   4.299  2.3985  0.6417 -1.3003
  517MOL0     O69661  10.912   6.247   9.577  0.0310 -0.0821 -0.2331
  517MOL0     C69662  10.923   6.298   9.465 -0.3927 -0.1522 -0.4147
  517MOL0     O69663  10.841   6.286   9.357 -0.4701  0.3302 -0.0901
  517MOL0     C69664  10.743   6.193   9.369 -0.0903 -1.0348 -0.9821
  517MOL0     C69665  10.716   6.114   9.254  0.5964 -0.8975 -0.4629
  517MOL0     C69666  10.611   6.028   9.246  0.4111  0.4066  0.0061
  517MOL0     C69667  10.518   6.032   9.347  0.6371  0.4862  1.1307
  517MOL0     O69668  10.425   5.928   9.326  0.3098  0.0519 -0.1175
  517MOL0     C69669  10.321   5.917   9.424 -0.8157  0.6682 -0.1611
  517MOL0     C69670  10.217   6.021   9.420  0.1660 -0.0264 -0.1607
  517MOL0     C69671  10.151   6.028   9.276  1.2170 -0.4276 -0.2971
  517MOL0     C69672  10.097   6.164   9.247 -0.1268  0.2767 -0.3842
  517MOL0     C69673  10.103   6.206   9.100  0.7958 -0.9093  0.2327
  517MOL0     C69674  10.250   6.239   9.059 -0.0312 -0.7099  0.9329
  517MOL0     C69675  10.261   6.274   8.909  1.0931  0.0569  0.0074
  517MOL0     C69676  10.398   6.307   8.860  0.1721 -0.2773 -0.5661
  517MOL0     N69677  10.470   6.419   8.938  0.0677 -0.2985 -0.5491
  517MOL0     C69678  10.577   6.413   9.014  0.4079 -0.0135  0.4334
  517MOL0     C69679  10.602   6.533   9.065  0.4352  0.9729 -0.2375
  517MOL0     C69680  10.710   6.565   9.168  0.4146  0.1475 -0.4359
  517MOL0     C69681  10.660   6.572   9.303  1.1133  0.0515 -0.4296
  517MOL0     C69682  10.558   6.686   9.325  0.1825 -0.3145  0.0820
  517MOL0     C69683  10.600   6.821   9.261  0.8843 -0.5056 -0.0567
  517MOL0     O69684  10.714   6.894   9.316 -0.4466  0.8630 -0.4503
  517MOL0     C69685  10.776   6.994   9.248 -0.5056 -0.3247  0.9900
  517MOL0     C69686  10.724   7.049   9.125 -0.1460  0.1043  0.5020
  517MOL0     C69687  10.799   7.129   9.046  1.5541 -1.4490  0.2872
  517MOL0     C69688  10.928   7.179   9.095  0.1744 -0.5881 -0.7539
  517MOL0     C69689  11.009   7.274   9.017 -0.4100 -0.2352 -0.4763
  517MOL0     O69690  10.975   7.296   8.886 -0.3161 -0.4196  0.0450
  517MOL0     C69691  11.043   7.382   8.797  0.3256 -0.3026  0.0454
  517MOL0     C69692  11.030   7.359   8.654 -0.1855 -0.2224  0.1136
  517MOL0     C69693  11.095   7.439   8.560 -0.3527 -0.0854  1.1639
  517MOL0     C69694  11.164   7.552   8.595  0.4640  0.5595  0.3834
  517MOL0     O69695  11.208   7.648   8.505  0.5813  0.1305 -0.5168
  517MOL0     C69696  11.276   7.606   8.388 -0.2875 -0.0008  0.6613
  517MOL0     C69697  11.219   7.681   8.279 -0.1028  0.3044  0.5364
  517MOL0     C69698  11.250   7.634   8.137  0.2049 -0.2390 -0.2107
  517MOL0     C69699  11.400   7.648   8.098  1.6662  0.4106 -0.2971
  517MOL0     C69700  11.417   7.598   7.954  0.1296 -0.3132  0.2472
  517MOL0     C69701  11.556   7.597   7.906 -0.2617 -0.5070 -0.2929
  517MOL0     C69702  11.567   7.538   7.763  0.0447  0.3813  0.7603
  517MOL0     C69703  11.719   7.522   7.711  0.0547 -0.4491 -0.1001
  517MOL0    Cl69704  11.714   7.490   7.534  0.0716 -0.3905 -0.0539
  517MOL0     C69705  11.186   7.572   8.739 -0.4210  1.4590  0.2582
  517MOL0     C69706  11.134   7.485   8.838 -0.1976  0.0788  0.1047
  517MOL0     O69707  11.097   7.328   9.082 -0.2860 -0.5621 -0.4305
  517MOL0     C69708  10.982   7.131   9.221  0.0657 -0.1242 -0.0167
  517MOL0     C69709  10.908   7.030   9.285  0.5306 -0.5537  1.4098
  517MOL0     N69710  10.509   6.628   9.020 -0.6312 -0.3151 -0.5926
  517MOL0     N69711  10.437   6.553   8.944 -0.5600 -0.2682  0.5541
  517MOL0     C69712  10.530   6.107   9.457 -0.0795  0.3342 -0.6931
  517MOL0     C69713  10.642   6.199   9.468 -0.5511  0.6910  0.4186
  517MOL0     C69714  11.053   6.356   9.431 -0.5134  0.2588 -0.8798
  517MOL0     C69715  11.102   6.323   9.305 -0.0646 -0.8783 -0.3140
  517MOL0     C69716  11.228   6.374   9.273  0.2285 -0.3524  0.5076
  517MOL0     C69717  11.305   6.454   9.358 -0.5277  0.7058 -0.0917
  517MOL0     O69718  11.426   6.506   9.311  0.3933  0.5676  0.2077
  517MOL0     C69719  11.529   6.409   9.308  0.0388 -1.1095  0.9680
  517MOL0     C69720  11.657   6.465   9.368  0.3301  0.1125 -0.7205
  517MOL0     C69721  11.641   6.470   9.524 -1.1136  0.1747  0.1002
  517MOL0     C69722  11.777   6.489   9.599  0.6695 -0.0937 -0.5440
  517MOL0     C69723  11.847   6.362   9.622  0.2638  0.4162  0.9627
  517MOL0     C69724  11.885   6.249   9.647 -0.5642  0.0671 -0.6802
  517MOL0     C69725  11.252   6.479   9.486  0.2130 -0.6025 -0.2704
  517MOL0     C69726  11.131   6.423   9.525 -0.3100 -1.1311 -0.6831
  517MOL0     C69727  11.087   6.458   9.667  0.5293  0.3459 -0.1109
  517MOL0     H69728  10.774   6.129   9.164 -1.0457 -1.7767 -1.7168
  517MOL0     H69729  10.601   5.969   9.155 -0.2011 -0.8245  0.8528
  517MOL0     H69730  10.274   5.819   9.410 -0.9245  0.4960  1.3188
  517MOL0     H69731  10.367   5.907   9.523 -3.2323  0.8219  1.0411
  517MOL0     H69732  10.260   6.117   9.451 -0.3328  0.5321 -1.1590
  517MOL0     H69733  10.139   5.991   9.490 -1.8925 -1.6669 -2.9522
  517MOL0     H69734  10.074   5.950   9.266  1.1207 -0.2821 -0.7286
  517MOL0     H69735  10.223   6.001   9.198  0.5787  0.0165 -1.0588
  517MOL0     H69736   9.996   6.155   9.288 -0.0905 -1.0475 -0.5502
  517MOL0     H69737  10.128   6.251   9.306 -5.2971  0.6085  2.4536
  517MOL0     H69738  10.060   6.126   9.038  0.6729  0.7919 -2.0182
  517MOL0     H69739  10.037   6.293   9.092 -2.1979 -3.1803 -3.0870
  517MOL0     H69740  10.290   6.324   9.116 -1.3422 -1.0650  2.4701
  517MOL0     H69741  10.312   6.151   9.077  0.3976 -0.8422 -0.9829
  517MOL0     H69742  10.202   6.365   8.890 -1.2366 -0.7745  2.5649
  517MOL0     H69743  10.209   6.197   8.852 -0.3952  0.0328  1.3130
  517MOL0     H69744  10.474   6.228   8.865 -0.3386 -0.7175  0.3794
  517MOL0     H69745  10.389   6.343   8.757 -1.6728  2.9594  0.5996
  517MOL0     H69746  10.626   6.321   9.044  0.5254  0.2562  1.0891
  517MOL0     H69747  10.782   6.484   9.187 -2.3213 -2.3905 -0.1736
  517MOL0     H69748  10.753   6.663   9.145 -1.1079  0.9133 -0.1301
  517MOL0     H69749  10.621   6.473   9.329 -0.7922  1.3886  2.2318
  517MOL0     H69750  10.742   6.597   9.370 -0.3897  0.5993  1.2681
  517MOL0     H69751  10.563   6.696   9.433  2.1293 -2.0495  0.2214
  517MOL0     H69752  10.460   6.658   9.287 -0.3364 -0.0336  1.1715
  517MOL0     H69753  10.517   6.892   9.260 -0.2480 -1.6666  2.5067
  517MOL0     H69754  10.611   6.815   9.152  1.0252  1.3365 -0.1825
  517MOL0     H69755  10.628   7.023   9.082  0.5210 -0.3731 -0.7488
  517MOL0     H69756  10.759   7.168   8.953  2.4249 -0.9301  0.1180
  517MOL0     H69757  10.953   7.292   8.615 -0.8917 -0.1966  1.3921
  517MOL0     H69758  11.073   7.413   8.456  1.0842 -3.0453  1.4836
  517MOL0     H69759  11.385   7.614   8.389  0.3293 -4.9073 -0.3898
  517MOL0     H69760  11.268   7.497   8.377 -3.4775  0.3635 -2.2160
  517MOL0     H69761  11.111   7.677   8.296 -0.5504  4.1798 -0.4453
  517MOL0     H69762  11.256   7.783   8.294 -2.5084  1.5139 -1.0200
  517MOL0     H69763  11.230   7.528   8.118  5.4995 -1.5833  0.2241
  517MOL0     H69764  11.186   7.680   8.061 -1.8228 -0.8679  1.0366
  517MOL0     H69765  11.466   7.587   8.160  1.5101  1.0328  0.5028
  517MOL0     H69766  11.432   7.753   8.105 -0.6006  1.1926 -0.7326
  517MOL0     H69767  11.366   7.673   7.892  1.5876  2.5939  2.3295
  517MOL0     H69768  11.365   7.502   7.943  1.4156 -1.2641  1.9425
  517MOL0     H69769  11.602   7.696   7.903 -1.7791  0.2101 -1.4856
  517MOL0     H69770  11.620   7.543   7.977 -0.7445 -0.6657  0.0238
  517MOL0     H69771  11.518   7.607   7.695  0.5926  0.6127  0.5954
  517MOL0     H69772  11.516   7.442   7.759  0.3555  0.2111  0.8205
  517MOL0     H69773  11.780   7.609   7.739 -2.8835  1.6722  0.1876
  517MOL0     H69774  11.760   7.440   7.771  0.3737 -0.8852 -0.9057
  517MOL0     H69775  11.252   7.655   8.762 -0.8664  2.7495 -2.7091
  517MOL0     H69776  11.161   7.504   8.941 -1.9640  1.7151  0.3237
  517MOL0     H69777  11.079   7.167   9.252  0.5361 -1.2902 -0.1151
  517MOL0     H69778  10.957   6.983   9.370 -0.3944  0.8967  2.8180
  517MOL0     H69779  10.457   6.108   9.538  0.5357 -0.2106 -0.1136
  517MOL0     H69780  10.645   6.258   9.559 -2.5097  0.4860  0.6455
  517MOL0     H69781  11.050   6.258   9.236  2.2178 -1.2471 -1.8111
  517MOL0     H69782  11.262   6.370   9.170  2.1064 -1.1479  1.1371
  517MOL0     H69783  11.549   6.396   9.201  0.6422 -0.7560  1.0374
  517MOL0     H69784  11.504   6.309   9.343 -0.3676 -1.1043  0.6993
  517MOL0     H69785  11.691   6.563   9.334 -0.6628  1.9928  3.1410
  517MOL0     H69786  11.732   6.390   9.340  1.8431  0.2883  2.4878
  517MOL0     H69787  11.590   6.379   9.556 -0.8578  0.3525  1.0560
  517MOL0     H69788  11.563   6.542   9.551 -0.4799  0.3927  1.4840
  517MOL0     H69789  11.843   6.551   9.538 -0.1870  1.0314 -0.3658
  517MOL0     H69790  11.759   6.539   9.695 -0.1010 -0.3833 -0.5255
  517MOL0     H69791  11.942   6.162   9.673 -0.2419  0.4790  0.0225
  517MOL0     H69792  11.309   6.546   9.549  0.0631 -0.6265 -0.1095
  517MOL0     H69793  11.114   6.555   9.709 -2.3100  1.0460  0.2627
  517MOL0     H69794  10.978   6.466   9.673  0.5729  0.8803 -0.0142
  517MOL0     H69795  11.088   6.374   9.737  0.4249 -1.0217 -1.6860
  518MOL0     O69796   3.097   2.117  11.036 -0.0267  0.4552  0.3553
  518MOL0     C69797   3.049   2.120  11.154 -0.6837  0.2427 -0.1635
  518MOL0     O69798   3.111   2.169  11.265 -0.0349 -0.6837  0.1647
  518MOL0     C69799   3.246   2.201  11.269  0.3320 -0.2742 -1.0111
  518MOL0     C69800   3.285   2.257  11.388 -0.9956 -0.8738  0.1923
  518MOL0     C69801   3.420   2.318  11.397  1.0400  0.4227  0.4331
  518MOL0     C69802   3.507   2.304  11.294 -0.1375 -0.4150  0.4121
  518MOL0     O69803   3.631   2.363  11.309  0.0381  0.2616 -0.1461
  518MOL0     C69804   3.671   2.441  11.197  0.5565  0.4260  0.2667
  518MOL0     C69805   3.798   2.524  11.238 -0.5216 -0.3502 -0.5060
  518MOL0     C69806   3.906   2.453  11.315 -0.2842  0.4443  0.0113
  518MOL0     C69807   4.038   2.539  11.338  0.0362 -0.0932  0.6188
  518MOL0     C69808   4.158   2.464  11.397  0.5314 -0.6972  0.4625
  518MOL0     C69809   4.277   2.559  11.425  0.0345  0.8510 -0.8446
  518MOL0     C69810   4.336   2.632  11.308 -0.3314  0.3238  0.3544
  518MOL0     C69811   4.396   2.522  11.207  0.0149 -1.2073 -0.3654
  518MOL0     N69812   4.386   2.575  11.065 -0.6750 -0.8460 -0.2445
  518MOL0     C69813   4.480   2.589  10.971  0.5582  0.5046  0.7585
  518MOL0     C69814   4.427   2.629  10.850  0.0581 -0.5307 -0.1766
  518MOL0     C69815   4.510   2.645  10.723 -0.4129  0.4235 -0.2425
  518MOL0     C69816   4.452   2.748  10.638 -0.1333  0.0935  0.3804
  518MOL0     C69817   4.531   2.755  10.506 -0.3029 -0.5079  0.5976
  518MOL0     C69818   4.502   2.858  10.406 -0.4357 -0.5479 -0.5174
  518MOL0     O69819   4.515   2.993  10.454  1.1164 -1.0361  0.2441
  518MOL0     C69820   4.641   3.046  10.477  0.4987  0.6076  0.0969
  518MOL0     C69821   4.649   3.136  10.579  0.3418 -0.3546  0.0156
  518MOL0     C69822   4.765   3.207  10.611 -0.2574  0.9324 -0.6243
  518MOL0     C69823   4.885   3.188  10.539  0.6800  0.1698  0.4697
  518MOL0     C69824   4.998   3.287  10.556 -0.2809 -0.0343  0.6958
  518MOL0     O69825   5.012   3.363  10.668 -0.3298  0.2799 -0.5202
  518MOL0     C69826   5.105   3.463  10.662 -0.7194 -0.8108 -0.6295
  518MOL0     C69827   5.237   3.460  10.717 -0.0440  0.6881  0.2332
  518MOL0     C69828   5.318   3.578  10.703 -0.5486  0.5362 -0.0806
  518MOL0     C69829   5.277   3.698  10.653  0.3355 -0.4045 -1.4168
  518MOL0     O69830   5.352   3.812  10.664  0.3257 -0.9058 -0.1133
  518MOL0     C69831   5.463   3.814  10.573 -1.1035 -0.3324 -0.2685
  518MOL0     C69832   5.440   3.935  10.484  0.0442 -0.4360  0.1359
  518MOL0     C69833   5.428   4.067  10.571  1.1399  0.5818  0.6743
  518MOL0     C69834   5.425   4.196  10.485 -0.5658 -0.0870 -0.2236
  518MOL0     C69835   5.543   4.228  10.396  0.8085  0.4710 -0.7607
  518MOL0     C69836   5.681   4.241  10.467  0.4287 -0.3964 -0.0605
  518MOL0     C69837   5.806   4.223  10.380 -0.1785  0.7451 -0.0051
  518MOL0     C69838   5.933   4.244  10.461  0.6972 -0.5616  0.3134
  518MOL0    Cl69839   6.080   4.266  10.346 -0.3133 -0.0329 -0.7596
  518MOL0     C69840   5.148   3.697  10.599 -0.4425 -0.9321  0.3844
  518MOL0     C69841   5.065   3.586  10.611 -0.5529  0.7139 -0.2082
  518MOL0     O69842   5.072   3.303  10.457  0.2849 -0.4608  0.9690
  518MOL0     C69843   4.884   3.095  10.433 -0.3198 -0.0444  0.1789
  518MOL0     C69844   4.759   3.035  10.397  0.2346 -0.0912 -0.1220
  518MOL0     N69845   4.295   2.651  10.881  0.2311  1.0199 -0.5887
  518MOL0     N69846   4.273   2.615  11.011 -0.1279 -0.2639  0.3947
  518MOL0     C69847   3.472   2.222  11.182  0.1390 -0.6956  0.7604
  518MOL0     C69848   3.346   2.182  11.172 -0.2478  0.1289 -0.0206
  518MOL0     C69849   2.909   2.072  11.180 -1.0547 -0.3261  0.1824
  518MOL0     C69850   2.873   2.043  11.311  0.2234  0.7605  0.6801
  518MOL0     C69851   2.747   1.996  11.352  0.6751  0.1252 -0.9041
  518MOL0     C69852   2.644   1.996  11.264  0.0053 -0.1815 -0.0357
  518MOL0     O69853   2.512   1.979  11.289 -0.6448 -0.3370 -0.7312
  518MOL0     C69854   2.462   2.063  11.397 -0.4378 -0.4892 -1.0117
  518MOL0     C69855   2.306   2.047  11.420  0.4675 -0.2572  0.7237
  518MOL0     C69856   2.258   1.902  11.432 -0.7582 -0.3237  1.1986
  518MOL0     C69857   2.111   1.905  11.383  0.2311  0.5086  0.4756
  518MOL0     C69858   2.074   1.769  11.410 -0.2619  0.3313 -0.4107
  518MOL0     C69859   2.065   1.653  11.425 -0.6979  0.2580  0.2754
  518MOL0     C69860   2.665   2.037  11.138 -0.3005  0.8079  0.1175
  518MOL0     C69861   2.800   2.070  11.087  1.3966  0.6410  0.0585
  518MOL0     C69862   2.821   2.114  10.947 -0.1302 -0.0784  0.0261
  518MOL0     H69863   3.208   2.267  11.464 -2.7225  1.7481 -1.6994
  518MOL0     H69864   3.442   2.376  11.485  0.1801  3.4620 -1.2283
  518MOL0     H69865   3.696   2.381  11.109 -0.8032  1.9177 -1.2048
  518MOL0     H69866   3.586   2.508  11.176 -1.0421 -1.6401 -0.1684
  518MOL0     H69867   3.765   2.603  11.307  1.7865 -2.2695  3.1318
  518MOL0     H69868   3.836   2.574  11.149  1.7616  1.3025  1.2738
  518MOL0     H69869   3.938   2.361  11.265 -2.0773  0.8366 -2.0199
  518MOL0     H69870   3.867   2.432  11.415 -3.4168 -0.8149 -1.3230
  518MOL0     H69871   4.075   2.591  11.249 -0.2541 -0.3138  0.3637
  518MOL0     H69872   4.017   2.623  11.405 -0.6991  0.0454  0.2326
  518MOL0     H69873   4.126   2.432  11.497 -1.2077  1.3317  0.6410
  518MOL0     H69874   4.192   2.382  11.333  2.4505 -0.8818  1.6279
  518MOL0     H69875   4.255   2.635  11.500 -1.6677  2.2250 -2.6477
  518MOL0     H69876   4.354   2.494  11.468  1.0164  2.4583 -0.0752
  518MOL0     H69877   4.418   2.695  11.343 -0.8194  0.4710  1.2579
  518MOL0     H69878   4.262   2.691  11.253  0.2624 -0.5997 -1.5215
  518MOL0     H69879   4.501   2.495  11.222  0.2183 -1.4772 -2.0563
  518MOL0     H69880   4.356   2.421  11.213 -2.1374 -0.3811  0.0507
  518MOL0     H69881   4.583   2.559  10.985  0.4018 -0.4689 -0.0132
  518MOL0     H69882   4.613   2.673  10.749  0.0650 -3.5258  3.2073
  518MOL0     H69883   4.509   2.549  10.672  2.7563 -0.4252  1.0889
  518MOL0     H69884   4.356   2.706  10.608  0.4140  1.1987 -3.4618
  518MOL0     H69885   4.449   2.837  10.701  0.8938 -1.3211  2.5313
  518MOL0     H69886   4.528   2.656  10.459 -0.8810  1.1140 -3.0955
  518MOL0     H69887   4.633   2.774  10.542  0.3953 -0.9854 -1.0386
  518MOL0     H69888   4.406   2.822  10.368  1.7702 -5.7076 -1.9617
  518MOL0     H69889   4.580   2.848  10.330  0.9100  2.7997  0.2580
  518MOL0     H69890   4.558   3.153  10.635  2.2220 -2.1051  4.0176
  518MOL0     H69891   4.776   3.291  10.679 -3.4351  1.8073 -1.0151
  518MOL0     H69892   5.260   3.367  10.768 -3.7911  0.5413  2.0627
  518MOL0     H69893   5.424   3.568  10.723 -0.5889 -2.6716 -0.9805
  518MOL0     H69894   5.554   3.808  10.633 -0.0091 -2.5076 -2.0474
  518MOL0     H69895   5.469   3.723  10.513  2.9088 -0.4521  0.0868
  518MOL0     H69896   5.525   3.928  10.415 -0.2254 -0.6781 -0.1765
  518MOL0     H69897   5.347   3.932  10.426 -0.9009 -0.9444  1.6409
  518MOL0     H69898   5.335   4.073  10.629  1.1958  2.9529  0.5807
  518MOL0     H69899   5.511   4.066  10.641  1.7329 -1.5228  0.0422
  518MOL0     H69900   5.427   4.283  10.551 -1.4207  0.2032 -0.5740
  518MOL0     H69901   5.328   4.187  10.435 -0.0871  0.1005 -1.2189
  518MOL0     H69902   5.517   4.312  10.331 -0.8344 -0.0863 -0.8605
  518MOL0     H69903   5.544   4.145  10.325  0.7528 -1.6337  1.5710
  518MOL0     H69904   5.697   4.343  10.503  1.0135 -0.5828  0.2037
  518MOL0     H69905   5.681   4.177  10.555 -1.0982 -0.0976  0.1939
  518MOL0     H69906   5.813   4.296  10.299  0.3818 -0.7460 -1.3585
  518MOL0     H69907   5.812   4.118  10.348  1.3264  0.5022  0.9502
  518MOL0     H69908   5.934   4.330  10.528 -0.9726 -2.8397  3.4793
  518MOL0     H69909   5.949   4.152  10.517  0.8621  0.0174  1.2365
  518MOL0     H69910   5.097   3.786  10.565 -1.3358 -0.4281  2.8143
  518MOL0     H69911   4.962   3.603  10.582 -0.1188  3.4614 -0.4178
  518MOL0     H69912   4.976   3.073  10.380 -1.0230 -3.1433  0.0955
  518MOL0     H69913   4.746   2.993  10.298  0.2661  0.3454 -0.3116
  518MOL0     H69914   3.540   2.214  11.098 -0.7415  0.4374 -0.0875
  518MOL0     H69915   3.334   2.120  11.084 -2.2150  3.9722 -2.7665
  518MOL0     H69916   2.941   2.059  11.395  0.5998 -1.9323  0.9797
  518MOL0     H69917   2.742   1.962  11.455  1.6617  2.8719  0.1513
  518MOL0     H69918   2.485   2.166  11.370 -3.8116  0.5198 -0.5873
  518MOL0     H69919   2.511   2.051  11.494  1.1563  2.2253 -1.3990
  518MOL0     H69920   2.269   2.098  11.330 -0.4917  1.3046  1.9527
  518MOL0     H69921   2.265   2.083  11.514 -1.4740 -3.9391  1.4752
  518MOL0     H69922   2.267   1.865  11.534  2.2239 -1.6131  0.5880
  518MOL0     H69923   2.315   1.846  11.358  0.8876 -1.6355  3.3375
  518MOL0     H69924   2.041   1.977  11.426 -1.8822 -0.3898 -1.3180
  518MOL0     H69925   2.104   1.915  11.275 -0.0418 -1.5160  0.2804
  518MOL0     H69926   2.056   1.547  11.440 -2.7246  0.0695 -1.6882
  518MOL0     H69927   2.585   2.030  11.065  3.4754 -1.8797 -4.3667
  518MOL0     H69928   2.731   2.113  10.885  0.0145  0.3319 -0.1979
  518MOL0     H69929   2.860   2.216  10.935 -0.5658 -0.0069 -0.8404
  518MOL0     H69930   2.881   2.039  10.895 -0.3962  0.0336 -0.4521
  519MOL0     O69931   7.364   3.088   6.619  0.2351  0.2458 -0.6692
  519MOL0     C69932   7.460   3.141   6.568 -1.0490 -0.2967 -0.1246
  519MOL0     O69933   7.597   3.107   6.593  0.3023  0.1391  0.3388
  519MOL0     C69934   7.621   3.040   6.711  0.2712  0.1937 -0.5546
  519MOL0     C69935   7.591   3.090   6.837 -0.0293 -0.5500 -0.0285
  519MOL0     C69936   7.607   3.018   6.955 -0.1369 -0.4128 -0.2993
  519MOL0     C69937   7.667   2.897   6.941 -0.2584  0.5492  0.3486
  519MOL0     O69938   7.697   2.814   7.043  0.0273 -0.1093 -0.4530
  519MOL0     C69939   7.574   2.776   7.112 -0.1679  0.7687 -0.1847
  519MOL0     C69940   7.582   2.644   7.190 -0.0057  0.2196 -0.7397
  519MOL0     C69941   7.689   2.638   7.306  0.1888 -0.4640 -0.5884
  519MOL0     C69942   7.674   2.510   7.382 -0.2652  0.3019 -0.5845
  519MOL0     C69943   7.755   2.509   7.508 -0.7063  0.5914  0.1875
  519MOL0     C69944   7.782   2.364   7.544 -0.6884  0.1387  0.4385
  519MOL0     C69945   7.887   2.360   7.655  0.5191 -0.2247  0.1473
  519MOL0     C69946   7.880   2.216   7.717 -0.2692 -0.0191 -0.7397
  519MOL0     N69947   7.912   2.254   7.857  0.2064 -0.5623 -0.5619
  519MOL0     C69948   8.017   2.330   7.902  0.3781  0.3464  0.0594
  519MOL0     C69949   8.001   2.333   8.035  0.5439 -0.0296 -0.7641
  519MOL0     C69950   8.080   2.405   8.142  0.5604  0.7586  1.0639
  519MOL0     C69951   8.078   2.347   8.283 -0.8938 -0.4056  0.0781
  519MOL0     C69952   8.144   2.220   8.291 -0.1372 -0.2336  0.4935
  519MOL0     C69953   8.122   2.158   8.429  0.3037  0.1604  0.5638
  519MOL0     O69954   8.208   2.227   8.517  0.0674 -0.4610  0.7895
  519MOL0     C69955   8.344   2.192   8.524  1.1827  0.6743  0.1378
  519MOL0     C69956   8.412   2.275   8.617  0.7451  0.1064 -0.1577
  519MOL0     C69957   8.544   2.248   8.643 -0.4248 -0.3336 -0.5925
  519MOL0     C69958   8.601   2.136   8.577  0.2027 -0.2167 -0.4572
  519MOL0     C69959   8.739   2.103   8.612 -0.0868 -0.2311  0.3813
  519MOL0     O69960   8.769   1.970   8.629  0.4799  0.2472  0.5437
  519MOL0     C69961   8.897   1.945   8.633 -0.0053  0.5342 -0.5438
  519MOL0     C69962   8.940   1.913   8.762 -0.1676 -0.0653 -0.4914
  519MOL0     C69963   9.078   1.872   8.780  0.5446  0.6069  1.1924
  519MOL0     C69964   9.158   1.858   8.666  1.0771 -0.2647 -0.4227
  519MOL0     O69965   9.285   1.809   8.689  0.3562 -0.5577  0.6744
  519MOL0     C69966   9.303   1.675   8.674  0.0278  0.8360 -0.8436
  519MOL0     C69967   9.451   1.647   8.628 -0.7350  0.1730 -0.5166
  519MOL0     C69968   9.482   1.701   8.480  0.6585 -0.0016 -0.0297
  519MOL0     C69969   9.629   1.692   8.450  0.8861  0.5640  0.6584
  519MOL0     C69970   9.663   1.760   8.316 -1.1487  0.1299  0.7229
  519MOL0     C69971   9.685   1.904   8.336 -0.8929 -0.5577 -0.3329
  519MOL0     C69972   9.811   1.935   8.428  0.2971 -0.2603  0.9883
  519MOL0     C69973   9.866   2.075   8.385 -0.3966 -1.2584  0.1927
  519MOL0    Cl69974   9.952   2.055   8.220  0.1145  0.2615  0.2917
  519MOL0     C69975   9.107   1.890   8.533  0.3632 -0.4962  0.3657
  519MOL0     C69976   8.981   1.932   8.520 -0.3505 -1.0175  0.3146
  519MOL0     O69977   8.820   2.200   8.606  0.4189  0.4185 -0.0491
  519MOL0     C69978   8.537   2.044   8.494  0.8649 -0.2957 -0.1234
  519MOL0     C69979   8.413   2.084   8.459 -0.5188  0.4738 -0.1344
  519MOL0     N69980   7.889   2.259   8.069  0.5138  1.1869  0.2227
  519MOL0     N69981   7.839   2.207   7.964 -0.0602  1.1561  0.5661
  519MOL0     C69982   7.708   2.837   6.816  0.7426 -0.9295  0.5008
  519MOL0     C69983   7.685   2.914   6.706 -0.1283 -1.0304  1.1920
  519MOL0     C69984   7.454   3.230   6.444  0.3578 -0.1101 -0.5298
  519MOL0     C69985   7.563   3.252   6.363 -0.9063 -0.9113 -0.2890
  519MOL0     C69986   7.558   3.327   6.248  0.7297 -0.4350  0.9089
  519MOL0     C69987   7.441   3.388   6.205  0.1792 -0.1170 -0.6887
  519MOL0     O69988   7.418   3.467   6.093 -0.3185  0.5146 -0.7338
  519MOL0     C69989   7.517   3.510   6.007  0.3325  0.1139  0.8452
  519MOL0     C69990   7.487   3.503   5.856  0.5118  0.3249 -0.0306
  519MOL0     C69991   7.413   3.389   5.814  0.1851  0.7396  0.2484
  519MOL0     C69992   7.488   3.255   5.836 -0.2170  1.0949 -0.0384
  519MOL0     C69993   7.600   3.232   5.748  0.0180 -1.1132  0.5446
  519MOL0     C69994   7.694   3.212   5.673  0.3302 -0.8756 -0.6110
  519MOL0     C69995   7.330   3.372   6.287  1.1111 -0.2092  0.0782
  519MOL0     C69996   7.331   3.298   6.403  0.3015  0.3833 -0.6959
  519MOL0     C69997   7.207   3.290   6.487 -0.1160 -0.1415  0.2513
  519MOL0     H69998   7.547   3.189   6.840  0.0790 -0.5112  0.4326
  519MOL0     H69999   7.577   3.068   7.047  1.2767  0.9755 -0.5511
  519MOL0     H70000   7.547   2.861   7.176  1.7660  0.2335  1.4463
  519MOL0     H70001   7.491   2.761   7.042 -1.3883 -3.9157  1.8928
  519MOL0     H70002   7.596   2.579   7.103  2.6229  0.8553 -0.8747
  519MOL0     H70003   7.488   2.634   7.244  1.5906  2.3182  2.8229
  519MOL0     H70004   7.659   2.722   7.370  1.9764  1.0553 -1.6463
  519MOL0     H70005   7.792   2.647   7.273  1.2211 -1.1415  2.1955
  519MOL0     H70006   7.570   2.490   7.411 -0.2088 -0.7482 -1.0862
  519MOL0     H70007   7.698   2.430   7.312  1.2885  0.2942 -0.0796
  519MOL0     H70008   7.848   2.561   7.485 -1.3810  1.0864 -1.6525
  519MOL0     H70009   7.721   2.564   7.596  1.0572 -0.7320  1.7687
  519MOL0     H70010   7.686   2.322   7.576 -1.6461  3.2547  2.0537
  519MOL0     H70011   7.816   2.308   7.457 -0.0525  1.5514 -0.2514
  519MOL0     H70012   7.859   2.440   7.725 -1.1745 -0.2590 -0.4472
  519MOL0     H70013   7.990   2.372   7.619  0.4404 -1.2405 -0.4429
  519MOL0     H70014   7.778   2.178   7.710  0.0364 -2.4074  4.1357
  519MOL0     H70015   7.951   2.142   7.677 -0.4939 -1.5393  1.5391
  519MOL0     H70016   8.086   2.398   7.854 -0.9505  3.9843  2.8433
  519MOL0     H70017   8.185   2.409   8.110  0.5358  1.0177  1.0034
  519MOL0     H70018   8.042   2.508   8.140 -0.7694  0.3008 -1.3684
  519MOL0     H70019   8.136   2.416   8.345 -0.4989 -1.1004  0.4969
  519MOL0     H70020   7.976   2.346   8.323 -1.1130 -1.3323 -0.4843
  519MOL0     H70021   8.249   2.228   8.261 -0.1372 -1.6958  0.0184
  519MOL0     H70022   8.092   2.149   8.226 -3.6355  1.7601  0.8401
  519MOL0     H70023   8.159   2.055   8.431 -0.6050 -0.3751 -3.2424
  519MOL0     H70024   8.018   2.161   8.463 -0.6192 -2.1023 -1.7315
  519MOL0     H70025   8.354   2.352   8.667  3.5305  1.2706  1.5978
  519MOL0     H70026   8.600   2.296   8.723  1.5415  3.7831 -4.0635
  519MOL0     H70027   8.872   1.914   8.846  0.9472  0.7912  0.4254
  519MOL0     H70028   9.117   1.840   8.877  0.8429  0.3659  0.9935
  519MOL0     H70029   9.278   1.624   8.768  2.2986  0.7763 -0.2143
  519MOL0     H70030   9.237   1.642   8.594  1.7928 -0.9837 -1.6354
  519MOL0     H70031   9.511   1.706   8.698 -1.2210  1.9895 -1.5395
  519MOL0     H70032   9.474   1.540   8.626 -0.9217  0.1397 -1.8316
  519MOL0     H70033   9.422   1.641   8.411  1.7378  0.0195 -1.0267
  519MOL0     H70034   9.454   1.806   8.473 -1.2632 -0.5704 -2.4482
  519MOL0     H70035   9.664   1.589   8.441 -0.3160 -0.1051  2.9681
  519MOL0     H70036   9.689   1.731   8.534  0.1286 -1.2029  2.0650
  519MOL0     H70037   9.585   1.748   8.241  2.4262  0.8763 -3.4645
  519MOL0     H70038   9.756   1.714   8.284 -0.2056  0.0229  3.3223
  519MOL0     H70039   9.701   1.948   8.237  2.2565  1.8518  1.0819
  519MOL0     H70040   9.603   1.952   8.391 -1.7944  3.1185 -4.3169
  519MOL0     H70041   9.877   1.848   8.415  0.5022 -0.0673  0.7031
  519MOL0     H70042   9.777   1.940   8.531  0.3437 -4.4033  1.3567
  519MOL0     H70043   9.789   2.152   8.395  1.6677  0.8033  1.2046
  519MOL0     H70044   9.937   2.102   8.464 -2.1822  2.1159  0.8355
  519MOL0     H70045   9.165   1.854   8.448 -0.5870 -1.9275  0.2869
  519MOL0     H70046   8.934   1.947   8.423 -3.1003  0.4745  1.7435
  519MOL0     H70047   8.578   1.953   8.453 -1.5514 -1.5814  0.1377
  519MOL0     H70048   8.356   2.020   8.393 -1.9497  3.1024 -1.6566
  519MOL0     H70049   7.745   2.735   6.807 -1.0726 -1.5966  0.2554
  519MOL0     H70050   7.696   2.886   6.602  2.3522  0.9020  0.8449
  519MOL0     H70051   7.657   3.199   6.378  1.4573  3.0112  0.0512
  519MOL0     H70052   7.648   3.342   6.189  0.4438  0.6330  0.7215
  519MOL0     H70053   7.605   3.445   6.013  1.7573  1.5716 -2.2051
  519MOL0     H70054   7.550   3.611   6.034  0.1692 -0.3928  3.1433
  519MOL0     H70055   7.580   3.521   5.802  1.9226  2.1400  2.7797
  519MOL0     H70056   7.430   3.595   5.841 -0.8337 -0.2608  1.2522
  519MOL0     H70057   7.397   3.412   5.708  1.1088  0.2558 -0.0064
  519MOL0     H70058   7.313   3.383   5.858  0.1161 -2.2839 -0.0982
  519MOL0     H70059   7.514   3.239   5.941 -1.6460  0.5251  0.2569
  519MOL0     H70060   7.423   3.172   5.807  0.0036  0.1375  2.0085
  519MOL0     H70061   7.765   3.183   5.598 -0.4355  0.4608 -1.9292
  519MOL0     H70062   7.235   3.413   6.257  0.5773 -0.4629  1.3738
  519MOL0     H70063   7.142   3.210   6.450  1.4103 -1.4095  0.2412
  519MOL0     H70064   7.232   3.274   6.592 -1.6178  2.1024  1.0330
  519MOL0     H70065   7.144   3.379   6.483  2.2579  1.6082 -0.5785
  520MOL0     O70066   1.646   6.128   9.665 -0.7502  0.1576  0.1406
  520MOL0     C70067   1.753   6.087   9.712 -0.7294 -0.0314 -0.4990
  520MOL0     O70068   1.769   6.014   9.831  0.1851 -0.6546  0.0602
  520MOL0     C70069   1.663   5.985   9.907  0.0826 -0.0936  0.5017
  520MOL0     C70070   1.545   6.059   9.924 -0.3184  0.7432 -0.2703
  520MOL0     C70071   1.461   6.026  10.022 -0.4288 -0.1379 -0.1106
  520MOL0     C70072   1.481   5.924  10.122 -0.4632  0.5667  0.0120
  520MOL0     O70073   1.374   5.912  10.214 -0.3321 -0.1998 -0.2873
  520MOL0     C70074   1.378   5.787  10.282  0.5453 -0.6556 -0.7314
  520MOL0     C70075   1.243   5.770  10.366  0.1393  0.2642 -0.8549
  520MOL0     C70076   1.134   5.738  10.265  0.0629  0.1995  0.4894
  520MOL0     C70077   1.000   5.709  10.328 -0.4467 -0.7496 -0.4059
  520MOL0     C70078   0.891   5.678  10.213 -1.1127  0.0414 -0.3181
  520MOL0     C70079   0.746   5.665  10.271  0.0389 -0.4108 -0.7952
  520MOL0     C70080   0.630   5.641  10.167 -0.4499 -0.5403  0.1367
  520MOL0     C70081   0.650   5.499  10.109  1.1764  0.3555  1.4604
  520MOL0     N70082   0.552   5.462  10.002  0.1915 -0.0431 -0.6387
  520MOL0     C70083   0.560   5.488   9.869  0.6316  0.1179  0.1961
  520MOL0     C70084   0.443   5.440   9.813  0.0272 -0.6885  0.2262
  520MOL0     C70085   0.405   5.465   9.666 -0.0192  0.1570 -0.6517
  520MOL0     C70086   0.409   5.328   9.585  0.5065  0.1475  0.0097
  520MOL0     C70087   0.355   5.315   9.444  0.2553  0.2342  0.6465
  520MOL0     C70088   0.205   5.369   9.440  0.0420 -0.6192  0.4920
  520MOL0     O70089   0.167   5.365   9.300 -0.1373 -0.0198 -0.6498
  520MOL0     C70090   0.039   5.324   9.277  0.5790 -0.5926 -0.0707
  520MOL0     C70091  -0.067   5.406   9.321  0.8741 -1.2832  0.7624
  520MOL0     C70092  -0.198   5.369   9.321  0.0747  0.5621 -0.1354
  520MOL0     C70093  -0.230   5.238   9.280  0.3485 -0.1890 -1.0419
  520MOL0     C70094  -0.373   5.190   9.281  1.2430  0.7479 -0.7367
  520MOL0     O70095  -0.391   5.057   9.249  0.4381  0.0573  0.7304
  520MOL0     C70096  -0.517   5.003   9.273 -0.4187  0.6636 -0.4528
  520MOL0     C70097  -0.518   4.863   9.300 -0.8712  0.4317  0.1677
  520MOL0     C70098  -0.620   4.779   9.263 -0.1551  0.0784 -0.5332
  520MOL0     C70099  -0.744   4.842   9.232 -0.1271  0.2723  0.5167
  520MOL0     O70100  -0.840   4.764   9.182  0.2864 -0.3423  0.3504
  520MOL0     C70101  -0.896   4.678   9.279 -0.8538  0.6049 -1.1299
  520MOL0     C70102  -0.966   4.545   9.222 -0.1436 -0.1463 -0.5615
  520MOL0     C70103  -1.096   4.560   9.149 -0.8618  0.2992  0.3103
  520MOL0     C70104  -1.082   4.650   9.030 -0.8355  0.4570 -0.5576
  520MOL0     C70105  -1.014   4.562   8.918  0.3416 -0.3253 -0.7708
  520MOL0     C70106  -0.877   4.628   8.860 -0.6994  0.4799  0.5774
  520MOL0     C70107  -0.799   4.520   8.778  0.0880 -0.4574 -0.9967
  520MOL0     C70108  -0.666   4.575   8.711 -0.1174 -0.2144 -0.4278
  520MOL0    Cl70109  -0.555   4.451   8.656  0.2317  0.2258 -0.0417
  520MOL0     C70110  -0.749   4.982   9.217  0.9369 -0.1201 -0.4903
  520MOL0     C70111  -0.638   5.066   9.234 -0.4770 -0.8863  0.3337
  520MOL0     O70112  -0.456   5.264   9.322  0.5344 -1.2475  0.1315
  520MOL0     C70113  -0.128   5.155   9.244 -0.0346 -0.4496 -0.0115
  520MOL0     C70114   0.006   5.199   9.243 -0.3458  0.3636  0.3085
  520MOL0     N70115   0.378   5.367   9.913  1.0970  0.6547  0.4808
  520MOL0     N70116   0.441   5.386  10.028 -0.8226 -0.4243  0.7588
  520MOL0     C70117   1.602   5.850  10.106 -0.1081  0.4338 -0.1425
  520MOL0     C70118   1.687   5.879   9.997 -0.0172  0.1389  0.9579
  520MOL0     C70119   1.890   6.110   9.640  1.0450 -0.1166  0.5961
  520MOL0     C70120   1.936   6.240   9.624 -0.8022  1.2723  1.1415
  520MOL0     C70121   2.068   6.264   9.585 -0.2414 -0.2389 -0.1631
  520MOL0     C70122   2.155   6.159   9.561  0.0571 -1.1887 -0.2744
  520MOL0     O70123   2.284   6.200   9.530 -0.9182  0.0557 -0.1459
  520MOL0     C70124   2.366   6.110   9.445  0.3632 -0.2006 -0.0290
  520MOL0     C70125   2.499   6.184   9.408 -0.4339  0.0209 -0.4541
  520MOL0     C70126   2.613   6.100   9.344  0.1122 -0.3602  0.5068
  520MOL0     C70127   2.745   6.186   9.333  0.1850 -0.4102  0.1817
  520MOL0     C70128   2.734   6.297   9.239  0.0065  0.3192 -0.2401
  520MOL0     C70129   2.729   6.375   9.143 -0.4053 -0.0852 -0.4726
  520MOL0     C70130   2.119   6.030   9.594 -0.5158 -0.3402  0.4209
  520MOL0     C70131   1.986   6.007   9.629  0.8034  0.6404  0.0983
  520MOL0     C70132   1.958   5.863   9.659  0.2748  0.4232  0.2450
  520MOL0     H70133   1.523   6.139   9.854 -0.1675  0.3119 -0.8198
  520MOL0     H70134   1.369   6.085  10.028 -0.5972 -0.4615  0.6093
  520MOL0     H70135   1.390   5.699  10.218 -0.6733 -1.7412  0.4676
  520MOL0     H70136   1.462   5.785  10.353 -1.5145 -1.8333  1.8375
  520MOL0     H70137   1.209   5.858  10.422 -2.3981 -1.2536  0.1596
  520MOL0     H70138   1.245   5.681  10.428 -0.8032 -0.0585 -1.2717
  520MOL0     H70139   1.170   5.657  10.201  1.5967  1.0362  0.2420
  520MOL0     H70140   1.117   5.825  10.200 -2.1099 -1.0595 -0.7634
  520MOL0     H70141   1.012   5.617  10.386  0.8619 -0.2173  0.2155
  520MOL0     H70142   0.970   5.786  10.399 -0.5189 -0.9201 -0.2488
  520MOL0     H70143   0.898   5.762  10.143 -1.1600  0.6436  0.3857
  520MOL0     H70144   0.917   5.581  10.170 -2.5647 -1.1926  1.4388
  520MOL0     H70145   0.752   5.581  10.341 -1.2457 -0.7709 -1.0939
  520MOL0     H70146   0.713   5.754  10.325  0.7980  0.0759 -1.1135
  520MOL0     H70147   0.637   5.713  10.084  0.6718  0.9715  1.4617
  520MOL0     H70148   0.532   5.640  10.215 -0.3847  0.1848  0.2977
  520MOL0     H70149   0.752   5.482  10.074  0.8863  0.8550  0.3433
  520MOL0     H70150   0.618   5.440  10.196 -0.2935 -1.3300 -0.1526
  520MOL0     H70151   0.627   5.558   9.820 -0.3844  1.6449  0.9511
  520MOL0     H70152   0.310   5.518   9.662  1.1023  2.2137 -1.6854
  520MOL0     H70153   0.482   5.530   9.624  1.2995 -0.1130  1.1975
  520MOL0     H70154   0.513   5.294   9.578  0.1309 -0.6020 -2.6259
  520MOL0     H70155   0.349   5.260   9.646 -0.8366  1.3817  0.1208
  520MOL0     H70156   0.361   5.215   9.401  1.5443  1.1391 -1.4203
  520MOL0     H70157   0.412   5.373   9.370  1.7492 -3.9309 -1.7923
  520MOL0     H70158   0.190   5.472   9.475 -1.2911 -0.8500  0.6484
  520MOL0     H70159   0.152   5.289   9.492  2.1529 -1.1534  1.9216
  520MOL0     H70160  -0.048   5.510   9.348 -2.2851 -0.4313  0.2057
  520MOL0     H70161  -0.273   5.440   9.356  0.8866  1.6461 -0.5125
  520MOL0     H70162  -0.428   4.819   9.341 -0.1066 -1.8178 -3.4922
  520MOL0     H70163  -0.609   4.673   9.284 -1.8913  0.1272  0.8624
  520MOL0     H70164  -0.818   4.655   9.352 -2.8482 -0.2286  0.8597
  520MOL0     H70165  -0.973   4.732   9.336  0.0828 -0.6766  1.5474
  520MOL0     H70166  -0.893   4.514   9.147 -0.0607  1.5750 -1.2174
  520MOL0     H70167  -0.990   4.468   9.297 -3.0053  3.8637  3.1007
  520MOL0     H70168  -1.143   4.462   9.137 -2.4993  1.1406 -0.4956
  520MOL0     H70169  -1.173   4.605   9.213 -3.2153 -1.2587 -1.2852
  520MOL0     H70170  -1.023   4.740   9.050 -1.0515  0.9135 -1.8647
  520MOL0     H70171  -1.180   4.683   8.995 -1.3335 -1.5560 -1.1586
  520MOL0     H70172  -1.096   4.543   8.849  0.3073 -2.6111 -0.1942
  520MOL0     H70173  -0.985   4.464   8.958  1.3961  0.2234 -0.1595
  520MOL0     H70174  -0.889   4.719   8.801  2.2624  0.4782 -0.1863
  520MOL0     H70175  -0.824   4.655   8.952 -0.8261 -0.6800  1.0071
  520MOL0     H70176  -0.872   4.478   8.707 -0.5075 -0.5907 -0.3152
  520MOL0     H70177  -0.772   4.447   8.854  2.9945  1.7524  0.3034
  520MOL0     H70178  -0.698   4.634   8.624 -3.9283  0.5486  1.3139
  520MOL0     H70179  -0.618   4.634   8.789  1.8954 -1.8228 -0.3594
  520MOL0     H70180  -0.835   5.031   9.172 -0.6978 -0.8480  1.6119
  520MOL0     H70181  -0.660   5.169   9.210  0.0822 -0.9147 -0.3625
  520MOL0     H70182  -0.143   5.050   9.219 -0.0732 -0.7678  1.2706
  520MOL0     H70183   0.070   5.117   9.215 -5.4662 -3.1521 -2.6316
  520MOL0     H70184   1.640   5.782  10.182  2.3060  0.4717 -1.2133
  520MOL0     H70185   1.777   5.820   9.987  0.0632  0.5151 -0.7544
  520MOL0     H70186   1.878   6.331   9.632 -2.8533 -0.0838  2.6813
  520MOL0     H70187   2.109   6.360   9.558  1.3111 -0.8270  0.0111
  520MOL0     H70188   2.299   6.100   9.358  1.0262 -1.4245 -0.4218
  520MOL0     H70189   2.393   6.019   9.499  2.6478 -0.3960 -1.3509
  520MOL0     H70190   2.530   6.232   9.502  0.2717  3.4551 -2.2491
  520MOL0     H70191   2.475   6.258   9.331 -2.6373 -1.4033 -1.2149
  520MOL0     H70192   2.570   6.057   9.253  0.4496  0.8884 -0.2556
  520MOL0     H70193   2.631   6.022   9.418  0.6094  0.4680  1.2732
  520MOL0     H70194   2.789   6.225   9.425  4.4387 -3.2579 -0.3120
  520MOL0     H70195   2.823   6.121   9.292  1.6612  2.4183 -1.8134
  520MOL0     H70196   2.729   6.425   9.048 -2.2006 -1.1247 -1.0633
  520MOL0     H70197   2.187   5.945   9.590 -3.7583 -3.1460  0.3836
  520MOL0     H70198   1.974   5.844   9.766  1.3601 -1.5046 -0.2137
  520MOL0     H70199   1.858   5.843   9.621  0.3355  0.0334  0.2857
  520MOL0     H70200   2.022   5.791   9.606 -1.3242  0.0457 -1.2776
  521MOL0     O70201   8.508   8.796   4.672  0.9223 -0.8073 -0.2480
  521MOL0     C70202   8.409   8.740   4.720 -0.2059  0.6096  0.8755
  521MOL0     O70203   8.418   8.622   4.792  0.2835  0.4833 -0.6936
  521MOL0     C70204   8.541   8.571   4.829 -0.0290  0.9090  0.3840
  521MOL0     C70205   8.649   8.641   4.877  0.1223  1.4823  0.1812
  521MOL0     C70206   8.771   8.585   4.909 -0.1679  0.4003  0.0468
  521MOL0     C70207   8.793   8.449   4.903  1.1782  0.1969  0.0692
  521MOL0     O70208   8.920   8.404   4.940 -0.2984 -0.0808 -0.0587
  521MOL0     C70209   8.947   8.261   4.949  0.1795  0.0236  0.5780
  521MOL0     C70210   9.074   8.223   5.013 -0.1926  0.2040  0.3285
  521MOL0     C70211   9.074   8.277   5.163 -0.4341  0.4064  0.4221
  521MOL0     C70212   9.178   8.216   5.258 -0.0237 -0.6029 -0.1524
  521MOL0     C70213   9.316   8.246   5.200 -0.8485 -0.4885  0.3194
  521MOL0     C70214   9.429   8.236   5.307 -0.1936  0.1994  0.2713
  521MOL0     C70215   9.579   8.240   5.246 -0.4592 -0.3077 -0.0161
  521MOL0     C70216   9.682   8.254   5.358 -0.6098 -0.1504 -0.9262
  521MOL0     N70217   9.819   8.271   5.300 -0.4827  0.0556 -0.0342
  521MOL0     C70218   9.858   8.362   5.212  0.3496 -0.5326  0.4919
  521MOL0     C70219   9.989   8.343   5.183 -1.4659  0.6754  0.0173
  521MOL0     C70220  10.077   8.434   5.112  1.2539  0.0759 -0.0441
  521MOL0     C70221  10.190   8.477   5.196  0.2031 -0.7837 -0.1253
  521MOL0     C70222  10.290   8.554   5.109  0.2237  0.2946 -0.3277
  521MOL0     C70223  10.408   8.596   5.188 -0.1165 -1.0493 -0.2183
  521MOL0     O70224  10.375   8.692   5.289  0.0487 -0.3326  0.2133
  521MOL0     C70225  10.469   8.736   5.377 -0.3734  0.0824 -1.1736
  521MOL0     C70226  10.605   8.719   5.371  1.0239 -0.8529 -0.7111
  521MOL0     C70227  10.689   8.772   5.465  0.1065 -0.2350  1.0825
  521MOL0     C70228  10.632   8.852   5.568 -1.0195  0.5651 -0.2481
  521MOL0     C70229  10.719   8.903   5.665  0.3677  0.0084  0.0413
  521MOL0     O70230  10.856   8.869   5.653  0.8090  0.0066 -0.5267
  521MOL0     C70231  10.952   8.926   5.733  0.8960 -0.1039  0.2165
  521MOL0     C70232  10.975   8.861   5.855  0.6613  0.8524  0.1850
  521MOL0     C70233  11.073   8.916   5.945  1.4303  0.2493  0.3386
  521MOL0     C70234  11.143   9.028   5.910 -0.6851  0.1453 -0.6218
  521MOL0     O70235  11.223   9.092   5.997 -0.3130 -0.0088  0.3345
  521MOL0     C70236  11.344   9.168   5.957 -0.0382 -0.2136 -0.9142
  521MOL0     C70237  11.449   9.064   5.915  0.2417 -0.0198  1.0706
  521MOL0     C70238  11.504   8.983   6.036  0.2651  0.3657  0.4334
  521MOL0     C70239  11.611   8.882   5.991  0.7738 -0.6640 -0.0631
  521MOL0     C70240  11.689   8.830   6.111  0.8399  0.7192 -0.0832
  521MOL0     C70241  11.604   8.745   6.209 -0.1155 -1.0603 -0.4379
  521MOL0     C70242  11.688   8.706   6.326 -0.1402  0.2934  0.0054
  521MOL0     C70243  11.635   8.604   6.420 -0.5263 -0.1189  0.3476
  521MOL0    Cl70244  11.484   8.656   6.493 -0.2245 -0.1789  0.3217
  521MOL0     C70245  11.109   9.094   5.787  0.1176 -0.1883 -0.0700
  521MOL0     C70246  11.030   9.033   5.690  0.5645 -0.2195  0.1673
  521MOL0     O70247  10.669   8.961   5.756 -0.2043 -0.0081  0.2176
  521MOL0     C70248  10.492   8.864   5.582  0.0432 -0.7503  0.4742
  521MOL0     C70249  10.412   8.813   5.483  0.0120  0.4025  0.2261
  521MOL0     N70250  10.013   8.217   5.230 -0.3080 -0.3059 -0.0915
  521MOL0     N70251   9.910   8.172   5.300 -0.1722 -0.3667  0.2593
  521MOL0     C70252   8.683   8.366   4.855  0.5553  0.3368 -0.2399
  521MOL0     C70253   8.565   8.433   4.817 -0.0005  0.6255 -0.4314
  521MOL0     C70254   8.276   8.795   4.677 -0.1441  0.3451  0.6225
  521MOL0     C70255   8.259   8.936   4.659 -0.0345  0.7048  0.3959
  521MOL0     C70256   8.138   8.982   4.633 -0.6246 -0.7953 -1.0228
  521MOL0     C70257   8.029   8.903   4.623 -0.0700 -0.5453 -0.4144
  521MOL0     O70258   7.921   8.984   4.608  0.1525  0.9996  0.2062
  521MOL0     C70259   7.808   8.921   4.566 -0.5935 -0.1928 -0.4619
  521MOL0     C70260   7.741   9.035   4.479  0.2242  1.0079 -0.0025
  521MOL0     C70261   7.684   9.141   4.578 -0.0991 -0.6829  0.6266
  521MOL0     C70262   7.543   9.103   4.630  1.0454  0.5664  0.3031
  521MOL0     C70263   7.442   9.112   4.522 -0.2137 -0.0111  1.2266
  521MOL0     C70264   7.364   9.114   4.431  0.5273 -0.2476  0.7365
  521MOL0     C70265   8.041   8.770   4.649  0.1081  0.9165 -0.2046
  521MOL0     C70266   8.166   8.710   4.679  0.1057  0.5556  0.1851
  521MOL0     C70267   8.167   8.556   4.686 -0.6394 -0.5900 -0.4323
  521MOL0     H70268   8.631   8.747   4.891  0.1358  1.4006  0.8285
  521MOL0     H70269   8.854   8.651   4.933  2.8299 -2.9931 -0.1068
  521MOL0     H70270   8.874   8.205   5.009 -0.5031 -0.0095 -0.2641
  521MOL0     H70271   8.949   8.213   4.851 -1.2364  1.3125 -0.1198
  521MOL0     H70272   9.156   8.263   4.952 -0.5926 -0.1929 -0.4787
  521MOL0     H70273   9.084   8.115   5.002 -0.2628  0.2229  0.0815
  521MOL0     H70274   8.981   8.253   5.216 -0.8634 -1.2328 -1.0131
  521MOL0     H70275   9.089   8.386   5.164  1.4676  0.1843  1.0081
  521MOL0     H70276   9.163   8.255   5.359 -0.5892 -0.6674 -0.2120
  521MOL0     H70277   9.156   8.111   5.275  0.5961 -0.6328  0.5277
  521MOL0     H70278   9.332   8.167   5.126 -2.9297 -1.1724  0.5308
  521MOL0     H70279   9.316   8.343   5.151 -0.3513  0.6912  2.5214
  521MOL0     H70280   9.406   8.298   5.395  1.6794  2.9591 -1.0298
  521MOL0     H70281   9.417   8.133   5.341 -3.9859 -0.1934 -1.7631
  521MOL0     H70282   9.581   8.330   5.183 -3.0392 -0.1635 -0.0001
  521MOL0     H70283   9.610   8.151   5.190 -0.4207 -0.0880 -0.3522
  521MOL0     H70284   9.655   8.343   5.416 -2.8804 -1.6448  0.4952
  521MOL0     H70285   9.677   8.160   5.414 -2.5447 -0.5604 -1.6865
  521MOL0     H70286   9.808   8.448   5.168  0.7563 -0.4295  0.2348
  521MOL0     H70287  10.105   8.383   5.020 -1.1993  1.3631 -1.6171
  521MOL0     H70288  10.016   8.519   5.080 -0.4488 -0.5753  1.3293
  521MOL0     H70289  10.155   8.541   5.278  1.2494  1.1971 -1.1511
  521MOL0     H70290  10.231   8.385   5.239  1.8353  1.3437  3.3905
  521MOL0     H70291  10.221   8.634   5.080  1.8579  1.5986 -0.7460
  521MOL0     H70292  10.328   8.487   5.031  1.9181  0.0955  0.6365
  521MOL0     H70293  10.483   8.639   5.121 -0.6417  0.7997  0.3293
  521MOL0     H70294  10.445   8.506   5.238 -2.4154 -1.3489  1.0653
  521MOL0     H70295  10.654   8.659   5.295 -1.5017 -1.9759 -1.5629
  521MOL0     H70296  10.795   8.760   5.444 -0.1676 -0.7388 -0.0639
  521MOL0     H70297  10.911   8.778   5.882  0.0156  0.8993 -1.1002
  521MOL0     H70298  11.088   8.869   6.042  0.2873 -2.4823 -0.7316
  521MOL0     H70299  11.321   9.233   5.872  1.3603 -0.3156 -1.4018
  521MOL0     H70300  11.381   9.230   6.039 -0.2500 -2.2347  0.7743
  521MOL0     H70301  11.407   8.999   5.838  1.6526 -1.7092  1.6750
  521MOL0     H70302  11.539   9.117   5.882 -0.3422 -0.1543 -0.8314
  521MOL0     H70303  11.545   9.034   6.123 -1.4552 -0.8410  2.0219
  521MOL0     H70304  11.426   8.912   6.067  1.5806 -1.1116  0.4566
  521MOL0     H70305  11.681   8.944   5.933  1.0186 -2.5016 -1.8413
  521MOL0     H70306  11.567   8.803   5.930 -3.7493  0.3723  1.4721
  521MOL0     H70307  11.730   8.917   6.164 -1.8664  2.8393 -1.1826
  521MOL0     H70308  11.768   8.763   6.079 -2.7320 -3.0294 -1.9818
  521MOL0     H70309  11.518   8.801   6.248 -0.7162 -1.6080 -0.9449
  521MOL0     H70310  11.564   8.655   6.162  0.4425 -1.5268 -0.0303
  521MOL0     H70311  11.720   8.795   6.381 -0.6150 -0.6406  1.9045
  521MOL0     H70312  11.771   8.654   6.279 -0.5205  0.8850 -1.3918
  521MOL0     H70313  11.612   8.513   6.363  3.0407  0.4648 -2.4187
  521MOL0     H70314  11.712   8.579   6.494  0.5935  2.1165  0.0077
  521MOL0     H70315  11.149   9.189   5.753  1.1961 -0.9359 -1.0220
  521MOL0     H70316  10.998   9.075   5.595  0.2997  1.5950  1.0203
  521MOL0     H70317  10.439   8.911   5.664 -1.6221  0.8879 -1.4274
  521MOL0     H70318  10.305   8.825   5.500  0.4539  0.1515  3.9085
  521MOL0     H70319   8.697   8.260   4.833 -0.4457 -0.1188  1.1642
  521MOL0     H70320   8.490   8.363   4.781  3.5219 -2.3427 -2.7627
  521MOL0     H70321   8.337   9.006   4.687  0.0059  0.4362  0.9777
  521MOL0     H70322   8.121   9.089   4.634 -0.3510 -0.7285  0.8574
  521MOL0     H70323   7.754   8.879   4.650 -1.9615  1.5041 -0.4503
  521MOL0     H70324   7.820   8.850   4.483  3.7463 -0.6509  0.2927
  521MOL0     H70325   7.662   8.990   4.418  2.1639 -2.0246 -0.4823
  521MOL0     H70326   7.815   9.073   4.409 -1.4934 -0.1561 -2.6176
  521MOL0     H70327   7.689   9.241   4.536  2.5130 -0.6981  0.7311
  521MOL0     H70328   7.746   9.156   4.668 -0.5489 -0.4151  0.8958
  521MOL0     H70329   7.551   9.003   4.674  0.5211  0.4957  0.2341
  521MOL0     H70330   7.522   9.168   4.716  0.8704  0.9518 -0.0295
  521MOL0     H70331   7.305   9.109   4.341 -0.8219 -0.9187  1.6143
  521MOL0     H70332   7.948   8.715   4.647 -1.0203  2.7778 -1.8929
  521MOL0     H70333   8.066   8.518   4.671 -1.2187 -0.6687  2.8469
  521MOL0     H70334   8.226   8.512   4.605 -1.2410  3.1605 -3.1237
  521MOL0     H70335   8.202   8.536   4.788  4.5643  2.2558 -1.2987
  522MOL0     O70336  10.782   3.168  11.102  0.1020  0.1507  0.8951
  522MOL0     C70337  10.833   3.067  11.063  0.0828  0.1663  0.2986
  522MOL0     O70338  10.956   3.054  10.999 -0.4174  0.3333 -0.7434
  522MOL0     C70339  11.043   3.156  11.015  0.3345  0.3659  0.3426
  522MOL0     C70340  11.083   3.212  11.135  0.3059  0.3401  0.4064
  522MOL0     C70341  11.170   3.312  11.138 -0.5332  0.3604 -0.1423
  522MOL0     C70342  11.234   3.356  11.022  0.2838  0.1820  0.8750
  522MOL0     O70343  11.331   3.452  11.012  0.0419  0.2866 -0.4714
  522MOL0     C70344  11.401   3.490  11.136 -0.2052  0.3794 -0.7596
  522MOL0     C70345  11.536   3.555  11.090  0.6463 -0.4474  0.0545
  522MOL0     C70346  11.503   3.673  10.988  0.1056 -0.3139  0.1862
  522MOL0     C70347  11.642   3.713  10.923  0.7768 -0.2236 -0.2405
  522MOL0     C70348  11.624   3.843  10.845  1.1887  0.7846  0.0755
  522MOL0     C70349  11.610   3.807  10.696  0.0245 -0.4107  0.2976
  522MOL0     C70350  11.743   3.777  10.623 -0.4673  0.0540  0.3990
  522MOL0     C70351  11.741   3.817  10.470  0.4656  0.3401 -0.7383
  522MOL0     N70352  11.874   3.814  10.405  0.4778  0.1449 -0.1011
  522MOL0     C70353  11.973   3.905  10.419 -0.1164 -0.3994 -0.1646
  522MOL0     C70354  12.083   3.856  10.357  0.1641 -0.2718  0.1737
  522MOL0     C70355  12.211   3.933  10.348 -0.0245  0.1211  0.6970
  522MOL0     C70356  12.199   4.070  10.275 -0.6106  0.5813  0.4802
  522MOL0     C70357  12.336   4.150  10.297 -0.9066 -1.4056 -0.5450
  522MOL0     C70358  12.327   4.279  10.208 -0.7724 -0.4094  0.3482
  522MOL0     O70359  12.457   4.337  10.242  0.5298  0.4677 -0.2481
  522MOL0     C70360  12.498   4.442  10.165 -0.8106  0.0645 -0.5410
  522MOL0     C70361  12.414   4.528  10.093  0.6043  0.5700 -0.0262
  522MOL0     C70362  12.465   4.631  10.015  1.5654 -0.5777  0.7931
  522MOL0     C70363  12.596   4.668  10.025  0.9611 -0.5103  0.0110
  522MOL0     C70364  12.643   4.787   9.945 -0.4594 -1.4469  0.0812
  522MOL0     O70365  12.589   4.793   9.822  0.4970  0.5288 -0.1850
  522MOL0     C70366  12.610   4.901   9.741  0.9320 -0.5160  0.0273
  522MOL0     C70367  12.590   4.886   9.605  0.9581 -0.1227 -0.4096
  522MOL0     C70368  12.578   4.994   9.519  0.0550  0.6784 -0.3155
  522MOL0     C70369  12.599   5.121   9.567 -0.0079  0.7461  0.3285
  522MOL0     O70370  12.573   5.224   9.475 -0.2075 -0.3802 -0.1947
  522MOL0     C70371  12.540   5.356   9.529 -0.5319 -0.7594  0.1624
  522MOL0     C70372  12.537   5.457   9.420  0.6449 -0.1769  0.4432
  522MOL0     C70373  12.392   5.498   9.386  0.4789  0.0051  0.7225
  522MOL0     C70374  12.407   5.594   9.268 -0.1394 -0.3670 -0.2713
  522MOL0     C70375  12.270   5.656   9.232 -0.0104  0.2148  0.1820
  522MOL0     C70376  12.294   5.747   9.108  0.6526 -0.2677 -0.4417
  522MOL0     C70377  12.364   5.879   9.159  0.1090  0.5694  0.2945
  522MOL0     C70378  12.464   5.928   9.054  0.6365  0.3048 -0.8519
  522MOL0    Cl70379  12.402   6.024   8.909 -0.3398 -0.3114 -0.7694
  522MOL0     C70380  12.624   5.133   9.708  0.4004 -0.8495  0.2477
  522MOL0     C70381  12.622   5.028   9.789 -1.1338 -0.2942  0.2248
  522MOL0     O70382  12.738   4.862   9.984 -0.0201 -0.1179  0.2768
  522MOL0     C70383  12.682   4.599  10.105 -0.1149 -0.3962  0.0643
  522MOL0     C70384  12.639   4.481  10.172 -0.0440  0.2482 -0.1880
  522MOL0     N70385  12.048   3.731  10.318 -0.7621  0.0824  0.0227
  522MOL0     N70386  11.927   3.709  10.347  0.1397 -0.2702 -0.1384
  522MOL0     C70387  11.184   3.318  10.899 -0.4395  0.3887  0.2665
  522MOL0     C70388  11.080   3.214  10.903 -0.8685 -0.7913  0.2544
  522MOL0     C70389  10.747   2.944  11.075  0.3887  1.8653 -0.0300
  522MOL0     C70390  10.751   2.872  11.200 -0.9473  0.2821  0.2667
  522MOL0     C70391  10.672   2.761  11.230 -0.1158  0.0728  1.4489
  522MOL0     C70392  10.583   2.720  11.130 -0.3996 -0.1668  0.3318
  522MOL0     O70393  10.511   2.604  11.164 -0.3880  0.5521 -0.2952
  522MOL0     C70394  10.434   2.533  11.073 -0.1472  0.7623  0.7130
  522MOL0     C70395  10.308   2.607  11.039  0.3086  0.1835  0.5128
  522MOL0     C70396  10.202   2.588  11.156  0.1735 -1.1414  0.3539
  522MOL0     C70397  10.075   2.671  11.114 -0.4574  0.4810  0.0961
  522MOL0     C70398   9.987   2.689  11.226 -0.5160 -0.0716 -0.7239
  522MOL0     C70399   9.890   2.703  11.307 -0.2380  0.4322  0.4434
  522MOL0     C70400  10.589   2.785  10.999 -0.0685  0.4506 -0.0381
  522MOL0     C70401  10.667   2.898  10.971 -0.5788  1.4762  0.3770
  522MOL0     C70402  10.671   2.932  10.824  0.3613  0.7188  0.7420
  522MOL0     H70403  11.036   3.187  11.229 -0.4697 -0.2534 -0.1249
  522MOL0     H70404  11.193   3.359  11.234 -0.3034  3.0450 -1.4017
  522MOL0     H70405  11.343   3.561  11.195  1.1940 -0.7221  2.0955
  522MOL0     H70406  11.412   3.400  11.196  0.1361  0.3020 -0.9312
  522MOL0     H70407  11.600   3.474  11.056  1.8395  0.2337  0.6105
  522MOL0     H70408  11.581   3.612  11.172 -1.1956  2.8628 -1.0498
  522MOL0     H70409  11.458   3.757  11.042  1.3793  2.5273 -2.7637
  522MOL0     H70410  11.426   3.643  10.916 -0.4949 -3.0539  1.8426
  522MOL0     H70411  11.694   3.747  11.013 -1.5154 -0.7600  1.3656
  522MOL0     H70412  11.692   3.629  10.873  2.4737  1.6129 -1.8194
  522MOL0     H70413  11.539   3.904  10.879 -0.5698 -1.2319 -0.5089
  522MOL0     H70414  11.716   3.899  10.866  2.0011 -0.7510  0.7314
  522MOL0     H70415  11.538   3.727  10.675 -0.3300  0.7532 -3.9627
  522MOL0     H70416  11.564   3.895  10.650  1.6179  2.0742  3.0997
  522MOL0     H70417  11.761   3.670  10.635 -0.2974  0.0870  0.4312
  522MOL0     H70418  11.824   3.835  10.669 -1.2088  1.1560  0.3604
  522MOL0     H70419  11.680   3.744  10.416  0.8749 -0.8623  0.3760
  522MOL0     H70420  11.697   3.917  10.457 -0.9549  0.2753  2.5098
  522MOL0     H70421  11.962   4.002  10.467 -2.4711 -1.0070  0.6198
  522MOL0     H70422  12.238   3.956  10.451 -3.8905  0.7474  1.7295
  522MOL0     H70423  12.293   3.873  10.307 -0.2587 -1.3985  2.3200
  522MOL0     H70424  12.184   4.047  10.169 -3.6796 -1.4141  1.2321
  522MOL0     H70425  12.120   4.134  10.314 -0.9469  0.8019 -0.5324
  522MOL0     H70426  12.425   4.096  10.263  0.4820 -0.2078  1.0258
  522MOL0     H70427  12.344   4.182  10.401 -1.1420 -1.9201 -0.3672
  522MOL0     H70428  12.244   4.343  10.241 -0.8023 -0.7076  0.8652
  522MOL0     H70429  12.319   4.253  10.102 -0.4389  0.4684  0.0984
  522MOL0     H70430  12.306   4.519  10.093  0.5171 -2.8957 -4.9824
  522MOL0     H70431  12.388   4.690   9.966  0.8423 -0.5103  1.9741
  522MOL0     H70432  12.568   4.786   9.568 -0.0435  0.2767 -0.9584
  522MOL0     H70433  12.556   4.980   9.413 -1.4034 -0.4159  0.0967
  522MOL0     H70434  12.448   5.350   9.588  0.9831  2.4497  3.1863
  522MOL0     H70435  12.620   5.388   9.596  1.7499  1.3103 -3.2946
  522MOL0     H70436  12.599   5.545   9.441  0.1453  0.2600  0.1272
  522MOL0     H70437  12.597   5.429   9.333  2.4255  2.0134  0.8637
  522MOL0     H70438  12.330   5.409   9.369 -0.5292  0.3861  2.1620
  522MOL0     H70439  12.352   5.558   9.468 -2.3774  1.7273 -1.7277
  522MOL0     H70440  12.460   5.547   9.185 -2.6479 -0.9786 -1.6414
  522MOL0     H70441  12.483   5.669   9.292  0.5458 -0.6446 -1.5138
  522MOL0     H70442  12.226   5.714   9.314 -2.9402  1.3638 -2.0174
  522MOL0     H70443  12.193   5.583   9.205 -2.3962  2.0819  1.4987
  522MOL0     H70444  12.345   5.688   9.031 -0.6167 -1.4141 -0.4373
  522MOL0     H70445  12.199   5.771   9.059 -0.0868 -1.9086  0.1045
  522MOL0     H70446  12.411   5.858   9.256 -2.8867 -1.0472  1.5242
  522MOL0     H70447  12.297   5.961   9.187 -2.0451 -1.2909  0.8113
  522MOL0     H70448  12.540   5.990   9.102 -0.4590 -0.0960  1.5081
  522MOL0     H70449  12.518   5.842   9.013  0.8795  0.6309 -1.2216
  522MOL0     H70450  12.622   5.233   9.750  0.0214 -1.3524  1.4714
  522MOL0     H70451  12.628   5.058   9.893 -1.2973 -0.5856  0.3211
  522MOL0     H70452  12.789   4.615  10.114  0.0731 -1.4042 -0.2837
  522MOL0     H70453  12.713   4.432  10.235  1.3452  2.1538 -0.2551
  522MOL0     H70454  11.233   3.340  10.805  0.7795 -0.8759  0.5732
  522MOL0     H70455  11.037   3.164  10.816  2.0961 -2.6117 -0.3164
  522MOL0     H70456  10.824   2.923  11.261  0.8522  2.9619 -3.6718
  522MOL0     H70457  10.677   2.715  11.328 -2.7891 -0.7997  1.2665
  522MOL0     H70458  10.401   2.440  11.120 -2.8142  0.4188 -1.5775
  522MOL0     H70459  10.494   2.511  10.984 -2.2545 -0.8042 -0.4039
  522MOL0     H70460  10.267   2.569  10.945 -1.6274  1.2936  0.8349
  522MOL0     H70461  10.317   2.714  11.017 -3.8594  0.4286 -0.9289
  522MOL0     H70462  10.249   2.622  11.249 -0.9611 -0.7341  0.7984
  522MOL0     H70463  10.177   2.482  11.168  2.0440 -2.5058 -4.9696
  522MOL0     H70464  10.115   2.760  11.065  0.1129  0.4273  0.4618
  522MOL0     H70465  10.011   2.622  11.040  0.1716  0.6860 -0.5846
  522MOL0     H70466   9.798   2.714  11.360 -1.3196  0.7470 -1.4232
  522MOL0     H70467  10.523   2.751  10.920 -2.7873 -1.3509  2.7731
  522MOL0     H70468  10.643   2.849  10.758 -0.2973 -0.5927  2.6214
  522MOL0     H70469  10.603   3.017  10.817 -1.9122 -1.0745 -0.3055
  522MOL0     H70470  10.766   2.977  10.793  0.9242  1.2712  3.1021
  523MOL0     O70471   6.017   7.080   2.562 -0.5199 -0.5555  0.1777
  523MOL0     C70472   5.996   7.064   2.680  0.1390  0.2476  0.3347
  523MOL0     O70473   6.080   7.005   2.757 -0.1858 -0.0242 -1.0669
  523MOL0     C70474   6.215   6.990   2.736 -0.2167 -0.4190 -0.1483
  523MOL0     C70475   6.288   7.083   2.659  0.4530 -0.0570 -0.6105
  523MOL0     C70476   6.425   7.066   2.647 -1.2285 -0.0767 -0.6298
  523MOL0     C70477   6.494   6.961   2.704 -0.3394 -0.8618 -0.0646
  523MOL0     O70478   6.629   6.937   2.688 -0.0540  0.4536  0.6470
  523MOL0     C70479   6.718   7.046   2.671  0.2032  0.4139  0.1874
  523MOL0     C70480   6.859   6.990   2.678 -0.3429  0.0358 -0.2104
  523MOL0     C70481   6.975   7.087   2.695  0.5281 -0.0262  0.2432
  523MOL0     C70482   7.103   7.019   2.731 -0.2893 -0.6283 -0.6488
  523MOL0     C70483   7.213   7.106   2.780 -0.2078 -0.8432 -0.6799
  523MOL0     C70484   7.176   7.159   2.925 -0.5414  0.0419  0.3130
  523MOL0     C70485   7.291   7.225   2.994 -0.8539  0.7171 -0.4700
  523MOL0     C70486   7.378   7.312   2.904 -0.3437 -0.2948 -0.0775
  523MOL0     N70487   7.471   7.388   2.982  0.0369  0.1944  0.7511
  523MOL0     C70488   7.602   7.406   2.938  0.1238  0.4142  1.1080
  523MOL0     C70489   7.660   7.472   3.039 -0.0054  0.5578  0.2260
  523MOL0     C70490   7.791   7.535   3.041  0.0949 -1.1424 -1.3039
  523MOL0     C70491   7.884   7.430   3.097 -0.0988  0.2687  0.2375
  523MOL0     C70492   8.022   7.503   3.135 -0.0350 -1.0423 -0.3601
  523MOL0     C70493   8.002   7.618   3.234 -0.0857  1.0565 -0.5905
  523MOL0     O70494   8.127   7.670   3.264 -0.7612  0.9232 -0.2073
  523MOL0     C70495   8.154   7.785   3.322 -0.3446 -1.0152 -0.0877
  523MOL0     C70496   8.084   7.826   3.440 -0.1212  0.5867 -0.0362
  523MOL0     C70497   8.111   7.945   3.490  0.3184  0.5037 -0.8293
  523MOL0     C70498   8.204   8.034   3.443  0.3455  0.9140  0.0347
  523MOL0     C70499   8.225   8.159   3.507  0.1920  0.3128  0.2523
  523MOL0     O70500   8.294   8.255   3.435 -0.1352  0.4223  0.5127
  523MOL0     C70501   8.327   8.380   3.492 -0.3445  0.2404 -0.1830
  523MOL0     C70502   8.239   8.448   3.580 -0.8947 -0.4330  0.6030
  523MOL0     C70503   8.272   8.569   3.635 -0.5759 -0.3028 -0.0168
  523MOL0     C70504   8.404   8.631   3.617  0.1246 -0.5862  0.9015
  523MOL0     O70505   8.414   8.747   3.685  0.2599 -0.3595  0.4786
  523MOL0     C70506   8.533   8.798   3.749  0.5437  0.2017 -0.4833
  523MOL0     C70507   8.609   8.896   3.659  0.2004 -0.7628 -0.4074
  523MOL0     C70508   8.751   8.859   3.621  0.0516  0.0615  0.5106
  523MOL0     C70509   8.833   8.852   3.754  0.2911 -0.3142 -0.1161
  523MOL0     C70510   8.986   8.836   3.733  0.9082  0.5716  0.2199
  523MOL0     C70511   9.044   8.982   3.715 -0.3254 -0.0920 -0.4633
  523MOL0     C70512   9.194   8.972   3.687 -0.0942  0.1682  0.2721
  523MOL0     C70513   9.272   8.949   3.811  0.6123 -0.1779 -0.2495
  523MOL0    Cl70514   9.426   8.868   3.779 -0.3324 -0.3888  0.2598
  523MOL0     C70515   8.497   8.564   3.533 -0.4287  0.0062  0.6923
  523MOL0     C70516   8.455   8.438   3.471 -0.4848 -0.4615  0.2716
  523MOL0     O70517   8.205   8.173   3.626 -1.0262  0.1429 -0.0440
  523MOL0     C70518   8.284   7.986   3.342  0.4570 -0.7142 -0.8416
  523MOL0     C70519   8.257   7.865   3.280 -0.2961 -0.2080  0.3697
  523MOL0     N70520   7.572   7.491   3.135 -0.0616  0.1383 -0.0250
  523MOL0     N70521   7.459   7.431   3.105  0.6603 -0.2518 -0.8563
  523MOL0     C70522   6.422   6.868   2.775 -0.4095  0.5171  0.1257
  523MOL0     C70523   6.286   6.887   2.789  0.2504 -0.0704  0.1902
  523MOL0     C70524   5.863   7.099   2.734 -0.2590  0.3143 -0.2094
  523MOL0     C70525   5.795   6.991   2.803 -0.5985  0.6396 -0.0570
  523MOL0     C70526   5.668   7.008   2.846 -0.0845 -1.0573  0.9066
  523MOL0     C70527   5.610   7.134   2.833  0.3902 -0.4240 -0.5139
  523MOL0     O70528   5.484   7.166   2.880 -0.4413  0.0964  0.0655
  523MOL0     C70529   5.429   7.084   2.989  0.7128  0.0756 -0.2621
  523MOL0     C70530   5.344   6.978   2.919  0.0699 -0.0524  0.1895
  523MOL0     C70531   5.308   6.862   3.016 -0.1075 -0.4687  0.5782
  523MOL0     C70532   5.205   6.773   2.958  0.2068  0.4442 -0.5091
  523MOL0     C70533   5.149   6.659   3.050 -0.6299 -0.2062  0.3525
  523MOL0     C70534   5.091   6.579   3.117  0.6514  0.5693  0.3613
  523MOL0     C70535   5.663   7.238   2.758 -0.2974  0.7755 -0.6677
  523MOL0     C70536   5.795   7.226   2.711 -0.3330  0.2867  0.7082
  523MOL0     C70537   5.856   7.335   2.632  0.1520 -0.6995  0.6174
  523MOL0     H70538   6.235   7.173   2.628 -0.4572  0.8766  3.2190
  523MOL0     H70539   6.479   7.143   2.592 -5.6109  0.9873 -4.0911
  523MOL0     H70540   6.691   7.097   2.578 -3.4861 -0.3114  0.6673
  523MOL0     H70541   6.722   7.113   2.757  0.2146  2.4417 -1.3351
  523MOL0     H70542   6.864   6.918   2.596 -0.4409  0.3203 -0.4674
  523MOL0     H70543   6.861   6.929   2.769 -0.5859  0.6180  0.1983
  523MOL0     H70544   6.941   7.155   2.774  0.1693  0.9103 -0.6938
  523MOL0     H70545   6.982   7.132   2.596  1.4520  1.6140  1.0204
  523MOL0     H70546   7.073   6.945   2.806 -0.9026  1.2119  1.0088
  523MOL0     H70547   7.150   6.966   2.647  1.0880 -0.6707  0.1128
  523MOL0     H70548   7.303   7.045   2.793 -0.4435 -0.7133  2.2923
  523MOL0     H70549   7.225   7.182   2.703  0.2045  0.0307  0.2171
  523MOL0     H70550   7.107   7.243   2.920  0.7716  1.0961 -1.0751
  523MOL0     H70551   7.149   7.077   2.992  0.8996  0.0524  0.9473
  523MOL0     H70552   7.364   7.154   3.036 -1.5536 -1.0035 -2.0061
  523MOL0     H70553   7.251   7.275   3.083  1.0664 -0.4278  1.1369
  523MOL0     H70554   7.446   7.252   2.842 -0.0120  0.5190 -0.5176
  523MOL0     H70555   7.311   7.376   2.846 -1.0653  1.3389  2.4258
  523MOL0     H70556   7.640   7.382   2.840  0.6295 -1.3011  1.6886
  523MOL0     H70557   7.829   7.556   2.941  0.0462 -1.2923 -1.3530
  523MOL0     H70558   7.775   7.625   3.102 -0.4941 -3.3595  2.0990
  523MOL0     H70559   7.867   7.390   3.197  1.9119 -0.2486  0.4165
  523MOL0     H70560   7.900   7.349   3.025  2.9328  1.7293 -0.9025
  523MOL0     H70561   8.046   7.545   3.037  1.3341  1.3190  0.9004
  523MOL0     H70562   8.099   7.435   3.172  0.1160  0.7640  3.0284
  523MOL0     H70563   7.964   7.569   3.324  0.3880 -0.0015 -0.9528
  523MOL0     H70564   7.948   7.707   3.200 -1.3204  0.9448  0.9613
  523MOL0     H70565   8.002   7.765   3.475  0.6980  0.5270  1.9269
  523MOL0     H70566   8.050   7.968   3.577  1.9827 -0.9787  0.7977
  523MOL0     H70567   8.142   8.404   3.602 -0.0306 -1.1543  3.4571
  523MOL0     H70568   8.209   8.616   3.711 -1.4691 -1.5531  0.0417
  523MOL0     H70569   8.496   8.852   3.836  1.5612 -0.2786  0.2831
  523MOL0     H70570   8.596   8.716   3.786  1.6290  1.3050  0.1869
  523MOL0     H70571   8.558   8.905   3.562  2.4499  0.2364 -1.6013
  523MOL0     H70572   8.601   8.997   3.701 -3.8105 -1.3874  0.6386
  523MOL0     H70573   8.761   8.768   3.562  3.0726  1.1182 -0.8206
  523MOL0     H70574   8.787   8.941   3.559 -0.3028  0.9206  1.4204
  523MOL0     H70575   8.805   8.762   3.811  0.7091 -0.5587 -0.2928
  523MOL0     H70576   8.810   8.937   3.820 -0.2767 -2.2394  2.3465
  523MOL0     H70577   8.993   8.759   3.655  1.4303 -1.3045  2.0170
  523MOL0     H70578   9.036   8.794   3.821 -1.0937 -4.5154 -0.7309
  523MOL0     H70579   8.999   9.032   3.629 -1.6103 -1.3825 -0.5780
  523MOL0     H70580   9.037   9.050   3.800 -0.0416 -0.3550 -0.2249
  523MOL0     H70581   9.232   9.062   3.639 -2.8872 -0.2523 -3.2282
  523MOL0     H70582   9.225   8.888   3.624  1.5629  0.5009  0.6085
  523MOL0     H70583   9.286   9.049   3.853  1.9289 -1.5822  3.0052
  523MOL0     H70584   9.213   8.889   3.881  0.5600  0.0735 -0.0777
  523MOL0     H70585   8.593   8.606   3.507 -1.7577  2.3149 -0.8198
  523MOL0     H70586   8.517   8.386   3.400 -0.7245  2.0370 -1.9177
  523MOL0     H70587   8.377   8.040   3.324  0.1314  0.4479  0.7167
  523MOL0     H70588   8.318   7.838   3.194  3.2843  1.6294  2.1081
  523MOL0     H70589   6.476   6.788   2.823 -0.4939  2.3491  3.5857
  523MOL0     H70590   6.225   6.828   2.857 -2.1368 -1.4175 -2.8925
  523MOL0     H70591   5.844   6.895   2.790  1.2113  1.4640  0.4427
  523MOL0     H70592   5.620   6.920   2.888 -0.7182 -1.4448 -0.5699
  523MOL0     H70593   5.363   7.135   3.060  0.8062  2.0393 -1.4833
  523MOL0     H70594   5.507   7.040   3.051  0.1119 -1.1722 -0.3698
  523MOL0     H70595   5.405   6.932   2.840  2.6577 -0.0035  2.0287
  523MOL0     H70596   5.254   7.021   2.875  0.6505  0.7413 -0.2391
  523MOL0     H70597   5.267   6.898   3.111 -1.1425 -2.6101  1.0044
  523MOL0     H70598   5.393   6.795   3.031 -1.9894 -2.8289  1.4238
  523MOL0     H70599   5.119   6.836   2.936 -0.0742  1.8911  3.7279
  523MOL0     H70600   5.236   6.728   2.863 -2.4568 -1.8391 -0.4068
  523MOL0     H70601   5.027   6.522   3.181 -4.2607  5.4242  0.5336
  523MOL0     H70602   5.604   7.329   2.756 -0.4140  0.6945 -2.3828
  523MOL0     H70603   5.785   7.418   2.643 -2.3874 -2.3701 -1.7385
  523MOL0     H70604   5.952   7.366   2.673 -0.5404 -0.3499  2.0694
  523MOL0     H70605   5.851   7.315   2.525 -0.8150  2.6327 -0.0814
  524MOL0     O70606   0.348  11.281   3.635  0.5657  0.6877 -1.0496
  524MOL0     C70607   0.278  11.321   3.731 -0.2978 -0.1552 -0.4458
  524MOL0     O70608   0.308  11.415   3.825  0.7448 -0.4317 -0.3960
  524MOL0     C70609   0.427  11.492   3.825  0.0350  0.5113 -1.6926
  524MOL0     C70610   0.475  11.562   3.720 -0.3358 -0.6183  0.3420
  524MOL0     C70611   0.601  11.630   3.730 -0.0055  0.3219 -0.0453
  524MOL0     C70612   0.663  11.631   3.854 -0.2966  0.3640  1.4479
  524MOL0     O70613   0.784  11.699   3.867  0.4825  0.6357  0.2189
  524MOL0     C70614   0.832  11.740   3.997  0.0491  0.5851 -0.3135
  524MOL0     C70615   0.778  11.877   4.035 -0.4636 -0.0528 -0.1564
  524MOL0     C70616   0.883  11.950   4.120  0.0037  0.2345 -0.4195
  524MOL0     C70617   0.852  12.099   4.151 -0.2346 -0.4059 -0.4984
  524MOL0     C70618   0.978  12.175   4.187  0.7226  0.1167 -0.6058
  524MOL0     C70619   1.034  12.122   4.312  0.6453 -0.5428  0.1674
  524MOL0     C70620   1.161  12.197   4.349  0.2637 -0.2395 -0.2902
  524MOL0     C70621   1.143  12.331   4.394  0.2548 -0.0189  0.2242
  524MOL0     N70622   1.267  12.406   4.431  0.1092  0.4670  0.5637
  524MOL0     C70623   1.369  12.454   4.342  0.4653 -0.3745 -0.7512
  524MOL0     C70624   1.441  12.529   4.424 -0.1089  0.5075 -0.5060
  524MOL0     C70625   1.565  12.600   4.378  0.1470 -0.4571 -0.0870
  524MOL0     C70626   1.681  12.534   4.434 -0.6001  0.7220 -0.6324
  524MOL0     C70627   1.801  12.530   4.338 -0.2954 -0.8761 -0.0745
  524MOL0     C70628   1.918  12.469   4.411  0.0289  0.9256  0.9580
  524MOL0     O70629   1.963  12.549   4.521  0.2776 -0.7092  0.2587
  524MOL0     C70630   2.037  12.659   4.483  0.3381  0.9614  0.2859
  524MOL0     C70631   2.175  12.638   4.453  0.1328  0.2207  0.0840
  524MOL0     C70632   2.253  12.740   4.423 -0.4643  0.7089  0.1939
  524MOL0     C70633   2.205  12.873   4.439 -1.1379  0.4200 -0.2104
  524MOL0     C70634   2.296  12.978   4.402 -0.5932 -0.1837 -0.0013
  524MOL0     O70635   2.248  13.099   4.363  0.0651  0.1982  0.4423
  524MOL0     C70636   2.331  13.213   4.349  0.8327  0.2797  0.4834
  524MOL0     C70637   2.342  13.309   4.447 -0.3102 -1.3070  0.0241
  524MOL0     C70638   2.424  13.427   4.442  0.2719 -0.5941 -0.3711
  524MOL0     C70639   2.512  13.438   4.333 -0.3939 -0.3684  0.2744
  524MOL0     O70640   2.601  13.538   4.323 -0.1204 -0.0111  0.1993
  524MOL0     C70641   2.558  13.647   4.243  0.6145  0.3398  0.3397
  524MOL0     C70642   2.641  13.781   4.280  0.0465 -0.2297 -0.9049
  524MOL0     C70643   2.544  13.895   4.243  0.2855 -0.1068 -0.0309
  524MOL0     C70644   2.598  14.038   4.275  1.1891  0.4791 -0.3890
  524MOL0     C70645   2.488  14.144   4.277  0.2791 -0.0421  0.0513
  524MOL0     C70646   2.547  14.295   4.294 -0.4912 -0.8051 -0.5860
  524MOL0     C70647   2.444  14.401   4.265  0.2410 -0.6189 -0.5010
  524MOL0     C70648   2.491  14.528   4.332  0.3294 -0.5731 -0.2260
  524MOL0    Cl70649   2.359  14.658   4.300  0.0157  0.3923 -0.5017
  524MOL0     C70650   2.506  13.339   4.233  0.0632 -0.0241 -0.1291
  524MOL0     C70651   2.422  13.224   4.239  0.8024  0.3471 -1.3278
  524MOL0     O70652   2.419  12.954   4.416  0.5663  0.3590 -0.1844
  524MOL0     C70653   2.073  12.890   4.481  0.5355 -0.9570  0.4525
  524MOL0     C70654   1.991  12.786   4.508 -0.3088 -0.4925  0.0583
  524MOL0     N70655   1.396  12.522   4.561 -0.7286  0.9678  0.0658
  524MOL0     N70656   1.283  12.451   4.555 -0.6065 -0.7788  0.5665
  524MOL0     C70657   0.615  11.549   3.957 -0.4552  0.4880 -0.4259
  524MOL0     C70658   0.490  11.489   3.946  0.4966  0.8839 -0.7187
  524MOL0     C70659   0.145  11.259   3.732  0.5160  1.0112  0.1042
  524MOL0     C70660   0.094  11.201   3.844  0.3134 -0.0196  0.1643
  524MOL0     C70661  -0.036  11.157   3.856  0.5109 -0.1473  0.1718
  524MOL0     C70662  -0.116  11.146   3.747  0.0200  0.6726  0.5016
  524MOL0     O70663  -0.241  11.103   3.743  0.4677  0.3999 -0.5798
  524MOL0     C70664  -0.352  11.182   3.786  0.0593 -0.3308 -0.2308
  524MOL0     C70665  -0.414  11.120   3.914  0.4702 -0.6860 -0.4132
  524MOL0     C70666  -0.482  10.994   3.898 -0.7688  0.2802 -0.1633
  524MOL0     C70667  -0.504  10.926   4.034 -0.3089 -0.5343 -0.1355
  524MOL0     C70668  -0.598  10.814   4.043  1.1773  0.7771  0.6544
  524MOL0     C70669  -0.684  10.730   4.063  0.1076  0.0475 -0.0533
  524MOL0     C70670  -0.070  11.202   3.625  0.2328 -1.4972  0.2764
  524MOL0     C70671   0.053  11.272   3.621  0.4662 -0.5400 -0.1794
  524MOL0     C70672   0.081  11.340   3.488 -0.2847  0.7229 -0.2291
  524MOL0     H70673   0.403  11.571   3.638 -1.4874 -0.0962  1.3790
  524MOL0     H70674   0.638  11.687   3.645  1.1540 -0.8094 -0.3315
  524MOL0     H70675   0.814  11.674   4.082  1.1265  2.7142  1.6870
  524MOL0     H70676   0.941  11.735   3.989  0.1748 -3.0058  1.7518
  524MOL0     H70677   0.679  11.856   4.075 -0.1452 -0.7435  0.2921
  524MOL0     H70678   0.768  11.943   3.949  1.9397 -1.0169 -1.2654
  524MOL0     H70679   0.981  11.942   4.071 -0.3178  2.0740 -1.4572
  524MOL0     H70680   0.891  11.898   4.216 -0.1157  2.6337  0.9664
  524MOL0     H70681   0.788  12.132   4.069 -2.9022 -3.1254  0.2919
  524MOL0     H70682   0.784  12.112   4.236 -0.4971  0.0711 -0.7765
  524MOL0     H70683   1.060  12.188   4.115  0.8737  2.5205 -0.0567
  524MOL0     H70684   0.942  12.276   4.205 -0.3992 -0.4730  0.5734
  524MOL0     H70685   0.964  12.130   4.396  3.9310 -1.3108  3.2143
  524MOL0     H70686   1.050  12.014   4.305 -2.0731 -1.2126  2.3703
  524MOL0     H70687   1.230  12.186   4.265 -0.6268 -1.7207 -0.8669
  524MOL0     H70688   1.212  12.132   4.420  2.3304 -0.2091 -1.6517
  524MOL0     H70689   1.106  12.389   4.310  0.4051 -1.2961 -0.7596
  524MOL0     H70690   1.070  12.331   4.475  1.7343 -2.4213  1.6944
  524MOL0     H70691   1.379  12.436   4.235  0.9253 -0.9626 -0.6068
  524MOL0     H70692   1.565  12.614   4.270 -1.0952  2.2472  0.1767
  524MOL0     H70693   1.562  12.703   4.414  1.3785 -0.0495 -1.0986
  524MOL0     H70694   1.707  12.593   4.522  0.7031 -2.1534  1.0380
  524MOL0     H70695   1.656  12.433   4.466 -2.7243  0.9314 -1.4175
  524MOL0     H70696   1.832  12.629   4.302  0.4512 -0.5966  1.2594
  524MOL0     H70697   1.772  12.470   4.252 -0.9265 -1.1753  0.3371
  524MOL0     H70698   1.999  12.464   4.338 -1.4851  1.3674 -0.8214
  524MOL0     H70699   1.890  12.370   4.448  1.1873  1.8302  4.6709
  524MOL0     H70700   2.215  12.538   4.462 -3.9401 -1.5615  0.5150
  524MOL0     H70701   2.356  12.720   4.394 -0.6323  3.4984 -2.8938
  524MOL0     H70702   2.283  13.294   4.537 -0.6663 -0.8292 -0.1247
  524MOL0     H70703   2.437  13.488   4.531  2.0260 -2.0705  0.4659
  524MOL0     H70704   2.576  13.636   4.135 -0.7543 -3.2223  0.3515
  524MOL0     H70705   2.452  13.667   4.258 -0.3832 -2.8660 -1.3894
  524MOL0     H70706   2.669  13.800   4.384 -0.5917  1.5980 -1.0329
  524MOL0     H70707   2.731  13.792   4.219 -0.6791  0.0250 -1.9462
  524MOL0     H70708   2.525  13.891   4.136  1.3703 -1.0731 -0.2079
  524MOL0     H70709   2.454  13.879   4.302  0.6174 -1.7108  0.0764
  524MOL0     H70710   2.672  14.055   4.197 -0.9101  1.2590 -2.3307
  524MOL0     H70711   2.648  14.023   4.372 -0.7437 -2.3823  0.3068
  524MOL0     H70712   2.420  14.130   4.362  0.1650  4.2118  0.8581
  524MOL0     H70713   2.424  14.152   4.189  0.0504  3.9500  0.3958
  524MOL0     H70714   2.584  14.301   4.397  1.2146 -1.6582 -1.1140
  524MOL0     H70715   2.622  14.309   4.216 -0.8351  0.5717 -0.6890
  524MOL0     H70716   2.356  14.360   4.315  0.1416 -0.1241 -0.2719
  524MOL0     H70717   2.436  14.401   4.156  2.6509 -0.8722 -0.7287
  524MOL0     H70718   2.506  14.520   4.440 -0.3165 -0.7449 -0.1436
  524MOL0     H70719   2.588  14.549   4.288  0.9939  1.9824  2.1723
  524MOL0     H70720   2.586  13.329   4.160  1.4230 -2.7764  1.5596
  524MOL0     H70721   2.426  13.140   4.171  2.0500 -0.9854  0.3142
  524MOL0     H70722   2.041  12.992   4.500  0.9121 -1.1666  2.3600
  524MOL0     H70723   1.898  12.817   4.556  0.4767 -1.1436  2.0914
  524MOL0     H70724   0.668  11.544   4.051  0.2814 -0.3030 -0.8683
  524MOL0     H70725   0.458  11.424   4.026 -0.3638  0.8642 -1.0740
  524MOL0     H70726   0.157  11.202   3.933  1.3788  0.5146 -0.5736
  524MOL0     H70727  -0.073  11.123   3.952  3.0339  0.1628  1.3396
  524MOL0     H70728  -0.419  11.182   3.699  0.5797 -1.6085 -0.6502
  524MOL0     H70729  -0.334  11.290   3.795 -0.2353  0.1516 -3.8699
  524MOL0     H70730  -0.486  11.188   3.959  1.5577 -0.1456  0.5731
  524MOL0     H70731  -0.333  11.115   3.988  1.3773  1.9538 -1.1073
  524MOL0     H70732  -0.414  10.926   3.847  1.5031  0.0366  2.9327
  524MOL0     H70733  -0.577  11.010   3.847 -0.8776  4.3293  0.9810
  524MOL0     H70734  -0.412  10.884   4.074  0.4915  1.9095  0.7722
  524MOL0     H70735  -0.530  11.005   4.105 -0.9006 -0.4090 -0.4774
  524MOL0     H70736  -0.747  10.644   4.077 -2.0526  1.0437 -2.7536
  524MOL0     H70737  -0.127  11.216   3.534  1.0550 -2.5730 -0.4332
  524MOL0     H70738   0.131  11.435   3.507 -0.3734  0.0696  4.1102
  524MOL0     H70739   0.148  11.282   3.424 -1.6440 -0.7367 -0.4255
  524MOL0     H70740  -0.016  11.362   3.442 -0.4872  1.6863  0.6357
  525MOL0     O70741  10.257   3.388  10.092 -0.5625  0.0826 -0.3383
  525MOL0     C70742  10.275   3.298  10.174  0.1579 -0.5990 -0.1587
  525MOL0     O70743  10.398   3.247  10.223  0.3216 -0.4378 -0.2374
  525MOL0     C70744  10.517   3.292  10.180 -1.0277  0.2559 -0.4197
  525MOL0     C70745  10.552   3.336  10.051 -0.2184 -0.4471  0.4450
  525MOL0     C70746  10.686   3.368  10.015 -0.7381  0.1512 -0.6302
  525MOL0     C70747  10.788   3.352  10.113 -0.0098 -0.5069 -0.1450
  525MOL0     O70748  10.922   3.361  10.075  0.3347  0.4682 -0.6631
  525MOL0     C70749  10.956   3.422   9.941  0.2654  0.9811  0.1198
  525MOL0     C70750  11.093   3.465   9.931 -0.6208 -0.1650 -0.0989
  525MOL0     C70751  11.138   3.548  10.057  0.8154 -0.2222  0.6961
  525MOL0     C70752  11.273   3.606  10.054 -0.1036 -0.5352 -0.0016
  525MOL0     C70753  11.373   3.497  10.070 -0.0966 -0.4969  1.4115
  525MOL0     C70754  11.512   3.551  10.088 -0.7938 -0.4139  0.3957
  525MOL0     C70755  11.634   3.447  10.092  0.8304  0.1122  0.2458
  525MOL0     C70756  11.627   3.360  10.216 -0.3844  0.4870  0.1135
  525MOL0     N70757  11.763   3.297  10.212  0.1722  0.3600  0.2799
  525MOL0     C70758  11.886   3.336  10.267  0.5330 -0.7343  0.4426
  525MOL0     C70759  11.985   3.254  10.218  0.0398  0.4563 -1.0819
  525MOL0     C70760  12.130   3.260  10.248 -0.1247 -0.3692 -1.4187
  525MOL0     C70761  12.195   3.396  10.227 -0.2981  0.9279  0.4945
  525MOL0     C70762  12.173   3.444  10.075  0.1578 -0.3566 -0.9087
  525MOL0     C70763  12.276   3.564  10.039 -0.6546  0.2052  0.2036
  525MOL0     O70764  12.237   3.623   9.914  0.5210  0.3376  0.7908
  525MOL0     C70765  12.297   3.741   9.869 -0.0596 -1.0778  0.1093
  525MOL0     C70766  12.374   3.822   9.950  0.0463  0.0016  0.4311
  525MOL0     C70767  12.448   3.932   9.898  0.8296 -0.8392 -0.3536
  525MOL0     C70768  12.443   3.965   9.763  0.7089 -0.7809  0.6614
  525MOL0     C70769  12.521   4.073   9.709 -0.1182  0.1211  0.6439
  525MOL0     O70770  12.593   4.148   9.797 -0.5866 -0.4962 -0.8052
  525MOL0     C70771  12.661   4.260   9.762  0.1855  0.9910  1.0245
  525MOL0     C70772  12.797   4.238   9.744  0.7966 -0.9506 -0.1349
  525MOL0     C70773  12.878   4.335   9.683  0.9015  0.1680  0.0612
  525MOL0     C70774  12.834   4.462   9.652  0.3452 -0.4625 -0.0900
  525MOL0     O70775  12.906   4.559   9.585  0.2862 -0.3448 -0.0171
  525MOL0     C70776  12.902   4.696   9.630 -0.3018 -0.3790 -0.3541
  525MOL0     C70777  13.038   4.746   9.669 -0.3199 -0.1443  0.2573
  525MOL0     C70778  13.044   4.890   9.721  0.0399 -0.6816  0.1742
  525MOL0     C70779  13.045   4.997   9.611 -0.2271 -0.1021  0.4956
  525MOL0     C70780  13.013   5.139   9.666 -0.1628  0.3694 -0.9045
  525MOL0     C70781  13.011   5.268   9.574  0.1967  0.9509  0.4720
  525MOL0     C70782  12.949   5.385   9.652 -0.0175 -0.4084 -0.8031
  525MOL0     C70783  12.968   5.517   9.571  0.3841 -0.9103 -0.2727
  525MOL0    Cl70784  13.068   5.627   9.663  0.0406 -0.2925  0.7056
  525MOL0     C70785  12.689   4.478   9.675  0.0561  0.3696  0.0550
  525MOL0     C70786  12.603   4.383   9.728 -0.6923  0.5665  0.5427
  525MOL0     O70787  12.514   4.088   9.581  0.2377 -0.0750  0.4683
  525MOL0     C70788  12.361   3.887   9.683  0.6378 -0.3118 -1.1652
  525MOL0     C70789  12.296   3.776   9.738  0.2484 -0.2055  1.5163
  525MOL0     N70790  11.918   3.151  10.146  0.0156  0.1062  0.3277
  525MOL0     N70791  11.790   3.185  10.143 -0.1556 -0.0591  0.5200
  525MOL0     C70792  10.753   3.331  10.247 -0.2317  0.6128  0.2723
  525MOL0     C70793  10.619   3.287  10.271  0.5126 -0.7314 -0.1193
  525MOL0     C70794  10.152   3.240  10.231 -0.4887 -0.0854 -1.5047
  525MOL0     C70795  10.156   3.130  10.326 -0.2846 -0.2027 -0.3746
  525MOL0     C70796  10.043   3.075  10.389 -0.3827  0.2769  0.6770
  525MOL0     C70797   9.919   3.133  10.363 -1.0762 -0.7573 -0.0877
  525MOL0     O70798   9.808   3.076  10.423 -0.5312  0.9323  0.1582
  525MOL0     C70799   9.707   3.165  10.472  0.6019  0.3334  0.2577
  525MOL0     C70800   9.596   3.060  10.511 -0.0831  0.0870 -0.1081
  525MOL0     C70801   9.645   2.958  10.607  0.6805  0.0459 -0.0669
  525MOL0     C70802   9.529   2.911  10.705  0.5701  0.7313  0.6231
  525MOL0     C70803   9.518   3.010  10.818  0.0523  0.3190 -0.2920
  525MOL0     C70804   9.510   3.098  10.896 -0.3341  0.6098  0.1331
  525MOL0     C70805   9.923   3.249  10.281  0.6647 -0.8903  0.2557
  525MOL0     C70806  10.022   3.302  10.208  0.5036  0.3102 -0.4091
  525MOL0     C70807   9.979   3.414  10.111  0.7861 -0.1248  1.5779
  525MOL0     H70808  10.480   3.342   9.970  2.5374 -0.5937 -2.2079
  525MOL0     H70809  10.709   3.381   9.910 -0.9696  1.1011 -0.5798
  525MOL0     H70810  10.929   3.346   9.868 -2.6511  2.8220 -0.8771
  525MOL0     H70811  10.885   3.503   9.920 -2.3896 -0.9954  0.8945
  525MOL0     H70812  11.111   3.528   9.844 -0.7051 -0.5975 -0.4379
  525MOL0     H70813  11.151   3.372   9.938 -1.0594 -0.3174  2.4666
  525MOL0     H70814  11.126   3.491  10.150  0.1375 -1.8362 -0.3288
  525MOL0     H70815  11.069   3.632  10.063  1.6128  0.3325  2.6151
  525MOL0     H70816  11.276   3.660   9.959  0.2628  0.0376  0.3241
  525MOL0     H70817  11.270   3.684  10.132 -0.8364 -0.2799 -0.2806
  525MOL0     H70818  11.348   3.430  10.152 -2.0807 -0.0631  1.2087
  525MOL0     H70819  11.371   3.443   9.975 -0.7766  3.7655 -1.2797
  525MOL0     H70820  11.528   3.610   9.997 -0.6980 -0.2167  0.5417
  525MOL0     H70821  11.517   3.609  10.180 -0.4258  0.9214 -0.4406
  525MOL0     H70822  11.725   3.508  10.095  1.1932 -0.1675 -2.7554
  525MOL0     H70823  11.636   3.399   9.994 -2.9015  0.7559 -0.3229
  525MOL0     H70824  11.622   3.418  10.309 -1.9143  3.1661 -1.4899
  525MOL0     H70825  11.544   3.289  10.226  1.0142 -0.8574  3.5276
  525MOL0     H70826  11.897   3.429  10.322 -0.0632 -0.4682  0.1208
  525MOL0     H70827  12.159   3.237  10.351  1.1529  0.3856 -1.5886
  525MOL0     H70828  12.181   3.188  10.183 -0.9798  1.0942 -3.8405
  525MOL0     H70829  12.172   3.466  10.308 -1.1884  1.3626 -0.1214
  525MOL0     H70830  12.303   3.385  10.220  0.0507  2.2773  2.7596
  525MOL0     H70831  12.069   3.472  10.056 -0.2016 -1.5219 -0.7713
  525MOL0     H70832  12.198   3.368  10.000  3.3989  0.8681 -1.2114
  525MOL0     H70833  12.382   3.534  10.039 -0.1545  1.8483  1.1420
  525MOL0     H70834  12.263   3.642  10.115  0.3866 -1.9330  2.7060
  525MOL0     H70835  12.387   3.806  10.056 -5.1221 -1.7696  1.1236
  525MOL0     H70836  12.512   3.992   9.962  0.0651 -1.0707  0.6471
  525MOL0     H70837  12.838   4.138   9.757  0.6676 -0.9759  0.0891
  525MOL0     H70838  12.986   4.322   9.678  0.6510 -3.0212  0.6550
  525MOL0     H70839  12.850   4.756   9.555 -2.3148 -0.3550  0.9757
  525MOL0     H70840  12.835   4.697   9.717  0.0632  2.9631 -0.0104
  525MOL0     H70841  13.075   4.689   9.755  1.0647  1.7752  1.0219
  525MOL0     H70842  13.106   4.729   9.585  1.9363 -3.6766  2.4810
  525MOL0     H70843  12.951   4.904   9.777 -0.3113 -0.9805 -0.3252
  525MOL0     H70844  13.136   4.889   9.780  1.8320 -1.3886 -2.4915
  525MOL0     H70845  12.978   4.976   9.527 -0.0993  0.7506  0.1714
  525MOL0     H70846  13.147   4.990   9.573 -0.0206  1.3513  0.7521
  525MOL0     H70847  13.094   5.155   9.737 -0.7288 -1.5678  0.2663
  525MOL0     H70848  12.919   5.140   9.723 -0.3155 -0.6773 -1.1168
  525MOL0     H70849  13.112   5.302   9.550 -0.7775  2.2164 -2.2892
  525MOL0     H70850  12.956   5.255   9.480  1.2431  4.4093 -0.7615
  525MOL0     H70851  12.991   5.398   9.753  0.6927  2.0431 -1.3557
  525MOL0     H70852  12.843   5.360   9.662  0.0382  0.0134  1.4185
  525MOL0     H70853  13.005   5.481   9.474  0.5082 -5.1724  1.1546
  525MOL0     H70854  12.875   5.572   9.552  1.8116  1.5811 -0.4939
  525MOL0     H70855  12.633   4.566   9.644  1.6066  1.9486  1.4820
  525MOL0     H70856  12.496   4.392   9.741 -0.4055  1.0385  3.0468
  525MOL0     H70857  12.354   3.891   9.575  1.1561  0.4448 -1.1798
  525MOL0     H70858  12.234   3.726   9.664  0.8594  1.1297  0.0677
  525MOL0     H70859  10.819   3.322  10.332 -2.9754  2.4674  2.8337
  525MOL0     H70860  10.608   3.251  10.373 -0.6165 -1.7006 -0.5729
  525MOL0     H70861  10.248   3.078  10.350  0.3935  0.6125 -1.1938
  525MOL0     H70862  10.042   2.979  10.440 -0.7782  0.9180  1.9425
  525MOL0     H70863   9.669   3.220  10.386  0.9140 -2.7378 -1.9867
  525MOL0     H70864   9.724   3.229  10.560 -1.9386 -2.7460  3.2948
  525MOL0     H70865   9.571   3.018  10.413  2.7484  1.1176 -1.4022
  525MOL0     H70866   9.509   3.119  10.540  1.0545  2.1072 -0.6440
  525MOL0     H70867   9.738   2.981  10.660  0.0930  2.2084  0.1177
  525MOL0     H70868   9.659   2.869  10.545  0.0897  1.6466 -2.6413
  525MOL0     H70869   9.434   2.908  10.650  0.7804 -2.3204  0.2739
  525MOL0     H70870   9.541   2.810  10.745  1.1318  0.8120  0.6668
  525MOL0     H70871   9.492   3.183  10.959 -1.2702 -0.1973  0.9930
  525MOL0     H70872   9.832   3.306  10.291  0.8433 -0.5597  0.0095
  525MOL0     H70873   9.997   3.513  10.155  4.3826  0.8950 -1.6066
  525MOL0     H70874  10.034   3.406  10.017 -0.0897  1.6638  0.8645
  525MOL0     H70875   9.872   3.412  10.086  0.8885 -1.8036  1.1553
  526MOL0     O70876   4.938  10.108   9.864 -0.7327 -0.3904  0.7140
  526MOL0     C70877   4.907  10.221   9.827 -0.0347 -0.1336 -0.9702
  526MOL0     O70878   4.849  10.316   9.915  0.6311  0.1848  0.1367
  526MOL0     C70879   4.789  10.258  10.025 -0.6277  0.3535  0.4399
  526MOL0     C70880   4.868  10.231  10.138  0.6505 -0.0648 -0.3494
  526MOL0     C70881   4.802  10.175  10.249  0.6086  0.4669 -0.6180
  526MOL0     C70882   4.662  10.134  10.249  0.4756  0.6080  0.7160
  526MOL0     O70883   4.584  10.064  10.342 -0.1033  0.4946 -0.2050
  526MOL0     C70884   4.665  10.068  10.470  0.5968 -0.0191  0.2028
  526MOL0     C70885   4.606  10.001  10.591 -0.9246  0.7611 -0.3659
  526MOL0     C70886   4.701  10.026  10.709 -0.3817  0.1176  0.3136
  526MOL0     C70887   4.793   9.904  10.735  0.7167 -0.0343  0.4260
  526MOL0     C70888   4.898   9.930  10.844  0.8490  0.5677  0.1613
  526MOL0     C70889   4.983   9.805  10.863 -0.2531 -0.9974 -0.6979
  526MOL0     C70890   5.065   9.796  10.998  0.5910  0.0660 -0.9412
  526MOL0     C70891   5.161   9.690  10.995  0.0663  0.4691  0.5768
  526MOL0     N70892   5.235   9.685  11.123 -0.8914 -0.4800 -1.2817
  526MOL0     C70893   5.235   9.583  11.211 -0.2297  0.0268 -0.1156
  526MOL0     C70894   5.299   9.624  11.319 -0.3926  0.9771 -0.3861
  526MOL0     C70895   5.339   9.533  11.429  0.0207 -0.4398  0.1531
  526MOL0     C70896   5.331   9.608  11.569 -0.5950  0.6230 -0.3982
  526MOL0     C70897   5.354   9.496  11.671  1.1239 -0.0054 -0.8330
  526MOL0     C70898   5.498   9.464  11.692 -0.9090 -0.2292 -0.2208
  526MOL0     O70899   5.547   9.562  11.784 -0.1187 -0.2493 -0.6405
  526MOL0     C70900   5.670   9.533  11.832  0.0284 -0.3716 -0.1464
  526MOL0     C70901   5.699   9.600  11.948 -0.6362  0.2768 -0.4012
  526MOL0     C70902   5.805   9.571  12.035  0.2800  1.2090  0.5997
  526MOL0     C70903   5.897   9.472  11.990 -0.7243 -0.2260  0.3103
  526MOL0     C70904   6.008   9.427  12.070 -0.7578  0.4447 -0.3182
  526MOL0     O70905   6.057   9.514  12.168  0.3209 -0.6002 -0.4448
  526MOL0     C70906   6.152   9.464  12.251  0.1519  0.0971  0.0724
  526MOL0     C70907   6.281   9.512  12.222 -0.7543 -0.3819  0.8514
  526MOL0     C70908   6.395   9.475  12.294  0.0015  0.9352  0.8454
  526MOL0     C70909   6.385   9.397  12.411 -0.4328  0.2543  0.0484
  526MOL0     O70910   6.509   9.379  12.468  0.4291 -0.1621 -0.3606
  526MOL0     C70911   6.494   9.320  12.598 -0.5697 -0.0825 -0.1370
  526MOL0     C70912   6.625   9.335  12.673 -0.9048  0.2591  0.3017
  526MOL0     C70913   6.734   9.266  12.590  0.7451  0.1938 -0.2392
  526MOL0     C70914   6.872   9.287  12.640 -0.5899 -0.2327  0.5702
  526MOL0     C70915   6.916   9.433  12.644  0.2810  0.4694 -0.4515
  526MOL0     C70916   7.068   9.463  12.682 -0.3265 -0.2790 -0.5423
  526MOL0     C70917   7.111   9.605  12.634 -0.2817  0.9528  0.7070
  526MOL0     C70918   7.255   9.641  12.668 -1.1402 -0.0426  0.1136
  526MOL0    Cl70919   7.284   9.641  12.836  0.3690 -0.0761 -0.5461
  526MOL0     C70920   6.250   9.358  12.455 -0.3801  0.5644 -0.1237
  526MOL0     C70921   6.141   9.386  12.369  0.8558 -0.3660 -0.3973
  526MOL0     O70922   6.061   9.324  12.039 -0.5456  0.1379  0.5221
  526MOL0     C70923   5.865   9.414  11.864 -0.1206  0.0011  0.6876
  526MOL0     C70924   5.756   9.435  11.784  0.1126 -0.6662  0.1990
  526MOL0     N70925   5.341   9.755  11.301 -0.4548 -0.2545 -0.7879
  526MOL0     N70926   5.302   9.782  11.188  0.2526 -0.6453  0.0680
  526MOL0     C70927   4.589  10.178  10.142  0.5798  0.1862  0.1401
  526MOL0     C70928   4.653  10.226  10.028  0.7545 -1.0159 -0.7980
  526MOL0     C70929   4.927  10.265   9.684  0.1017  1.1173 -0.0012
  526MOL0     C70930   4.886  10.387   9.642  0.7336 -0.2682  0.4934
  526MOL0     C70931   4.908  10.436   9.513  0.0146  0.2047  0.3261
  526MOL0     C70932   4.952  10.353   9.411  0.2027 -0.4556 -0.0216
  526MOL0     O70933   4.961  10.378   9.274 -0.1260 -1.0928 -0.3222
  526MOL0     C70934   4.855  10.448   9.212  0.1333 -0.2677  0.1268
  526MOL0     C70935   4.867  10.420   9.058  0.4006 -0.2567 -0.6443
  526MOL0     C70936   4.992  10.478   8.992 -0.0315  0.3027  0.0659
  526MOL0     C70937   4.984  10.470   8.841  0.2572  0.2157  1.0739
  526MOL0     C70938   4.902  10.366   8.775 -0.4968 -0.8112 -0.4498
  526MOL0     C70939   4.829  10.279   8.728  0.9300 -0.5716 -0.1820
  526MOL0     C70940   5.001  10.229   9.452  0.1601 -0.2448 -0.4997
  526MOL0     C70941   4.988  10.185   9.584 -1.0130 -1.0393  0.2386
  526MOL0     C70942   5.052  10.050   9.621  0.5901 -0.5382  0.1128
  526MOL0     H70943   4.975  10.247  10.129  0.0590  3.2514 -3.8006
  526MOL0     H70944   4.871  10.158  10.331 -0.5311  4.0737  1.2930
  526MOL0     H70945   4.759  10.016  10.451  0.3091 -1.1626  1.7265
  526MOL0     H70946   4.680  10.174  10.491  1.0041 -0.2310  1.0136
  526MOL0     H70947   4.582   9.894  10.584  3.0517 -0.3102 -0.0642
  526MOL0     H70948   4.506  10.040  10.611 -0.5741  1.6773 -0.3564
  526MOL0     H70949   4.653  10.037  10.807  0.7096 -1.2384  1.0330
  526MOL0     H70950   4.767  10.108  10.681  0.8444 -1.0716 -0.4233
  526MOL0     H70951   4.726   9.820  10.754 -0.8116  1.3472  1.5021
  526MOL0     H70952   4.840   9.883  10.639 -0.8008 -0.6860 -0.2140
  526MOL0     H70953   4.957  10.021  10.829  0.6898  0.3414 -2.1028
  526MOL0     H70954   4.845   9.938  10.939  0.3526 -0.0927 -0.0548
  526MOL0     H70955   4.909   9.725  10.878 -1.0377  0.2977  3.6566
  526MOL0     H70956   5.039   9.798  10.769 -0.7979  3.1013 -1.5038
  526MOL0     H70957   4.994   9.780  11.080  2.6379 -2.2870  0.4946
  526MOL0     H70958   5.113   9.893  11.014  1.4664 -0.1704 -2.0448
  526MOL0     H70959   5.110   9.594  10.980 -1.8552  1.4559  0.5265
  526MOL0     H70960   5.238   9.713  10.920  1.5431  2.5460  2.5970
  526MOL0     H70961   5.188   9.489  11.187 -0.4249  0.1719 -0.3024
  526MOL0     H70962   5.262   9.457  11.434 -0.2235 -0.1780  0.3816
  526MOL0     H70963   5.440   9.493  11.414  0.9864  1.4053  1.3600
  526MOL0     H70964   5.402   9.689  11.589  1.0880 -1.4409  2.7329
  526MOL0     H70965   5.236   9.657  11.591  0.1380  1.7128  0.4359
  526MOL0     H70966   5.306   9.407  11.629 -1.1469  2.0198 -2.7956
  526MOL0     H70967   5.306   9.516  11.767 -0.9036  2.5106 -2.2633
  526MOL0     H70968   5.554   9.471  11.598  2.2075 -0.9982  1.4610
  526MOL0     H70969   5.513   9.366  11.737  0.7245  1.4875  3.3564
  526MOL0     H70970   5.630   9.671  11.993 -0.3668  0.5048 -0.3404
  526MOL0     H70971   5.825   9.617  12.132 -0.1575 -2.1509  2.4374
  526MOL0     H70972   6.293   9.572  12.132  0.2756 -1.7803  0.0131
  526MOL0     H70973   6.490   9.517  12.265  0.5631  0.3611  1.8015
  526MOL0     H70974   6.430   9.380  12.663 -0.7138  0.6525 -0.9326
  526MOL0     H70975   6.477   9.212  12.591  2.2079 -0.6641  0.7807
  526MOL0     H70976   6.653   9.441  12.676 -1.1539  0.3930 -1.1631
  526MOL0     H70977   6.632   9.285  12.770  1.8739 -0.8867 -0.3800
  526MOL0     H70978   6.720   9.157  12.586 -1.2405  0.4322 -1.5245
  526MOL0     H70979   6.739   9.303  12.487  1.2180 -0.0239 -0.2974
  526MOL0     H70980   6.947   9.244  12.574 -1.3341  0.1484 -0.5518
  526MOL0     H70981   6.885   9.255  12.744  0.3293  0.4526  0.6744
  526MOL0     H70982   6.848   9.481  12.716 -0.9070 -2.9187  0.9043
  526MOL0     H70983   6.913   9.468  12.540  1.1440 -1.8458 -1.3032
  526MOL0     H70984   7.080   9.444  12.789  1.7410 -2.4255 -1.0584
  526MOL0     H70985   7.125   9.389  12.625 -0.6834 -0.2300 -0.9695
  526MOL0     H70986   7.051   9.680  12.687  2.5306  2.3816  2.0877
  526MOL0     H70987   7.099   9.611  12.526  0.9379 -0.5420  0.4614
  526MOL0     H70988   7.321   9.572  12.615  0.6240  1.4649  0.2483
  526MOL0     H70989   7.286   9.738  12.628 -0.2639 -0.9200 -1.4196
  526MOL0     H70990   6.239   9.310  12.552 -0.0954 -1.5829 -1.1030
  526MOL0     H70991   6.045   9.345  12.397 -0.2960 -1.1860 -4.8005
  526MOL0     H70992   5.940   9.354  11.813 -1.6251 -0.4321 -1.1020
  526MOL0     H70993   5.750   9.394  11.684 -0.7146 -3.2607  1.2178
  526MOL0     H70994   4.484  10.152  10.134  0.3029  1.0075  0.9239
  526MOL0     H70995   4.584  10.226   9.944 -0.2690 -0.8608  0.0256
  526MOL0     H70996   4.828  10.452   9.707  1.3811 -0.0115  0.8199
  526MOL0     H70997   4.886  10.539   9.487  3.6032  1.1752  0.6844
  526MOL0     H70998   4.869  10.553   9.239 -0.8191 -0.0948 -0.0061
  526MOL0     H70999   4.760  10.419   9.257 -1.8550 -0.0525 -3.5168
  526MOL0     H71000   4.784  10.469   9.006  0.3681 -0.4607 -0.7862
  526MOL0     H71001   4.871  10.312   9.041 -1.1731 -0.0441 -2.7068
  526MOL0     H71002   5.079  10.422   9.029  1.0690  0.6694 -1.7829
  526MOL0     H71003   5.007  10.582   9.020 -0.5475  0.4561 -0.2079
  526MOL0     H71004   4.957  10.569   8.804 -0.9476  1.2262  4.2783
  526MOL0     H71005   5.081  10.451   8.795  0.6226 -0.3500  2.0307
  526MOL0     H71006   4.750  10.211   8.701 -0.1288 -0.1281  1.6098
  526MOL0     H71007   5.051  10.174   9.373  2.0551  1.2417 -0.4036
  526MOL0     H71008   5.125  10.057   9.703  1.8417  0.7853 -1.0455
  526MOL0     H71009   4.998   9.956   9.634  0.3423 -0.2838  0.9724
  526MOL0     H71010   5.124  10.032   9.540 -0.6405  1.0227 -1.3925
  527MOL0     O71011   4.890   0.688   2.861 -0.7102 -0.2080  0.3668
  527MOL0     C71012   4.868   0.813   2.867  0.2150  0.7747  0.5641
  527MOL0     O71013   4.964   0.915   2.863  0.4676  0.3395  0.1366
  527MOL0     C71014   5.076   0.905   2.935  0.5413  0.0657 -0.9371
  527MOL0     C71015   5.101   0.813   3.037 -0.3636  0.1942  0.6813
  527MOL0     C71016   5.216   0.813   3.111  0.8673  0.2057 -0.3397
  527MOL0     C71017   5.311   0.911   3.085 -0.4848  0.6074 -0.0510
  527MOL0     O71018   5.431   0.917   3.155  0.1867  0.2036  0.3950
  527MOL0     C71019   5.485   0.806   3.214  0.6543  0.2269 -0.0602
  527MOL0     C71020   5.614   0.844   3.277 -0.2474  0.7017 -0.5091
  527MOL0     C71021   5.699   0.716   3.321  0.2714  0.0774 -0.1480
  527MOL0     C71022   5.832   0.743   3.381 -0.1949  0.1233 -0.9423
  527MOL0     C71023   5.817   0.804   3.524  0.0441 -0.3848  0.0617
  527MOL0     C71024   5.941   0.883   3.565 -0.5426  0.5762 -0.3717
  527MOL0     C71025   6.066   0.795   3.595 -0.2723  0.4007 -0.4377
  527MOL0     C71026   6.188   0.861   3.651 -0.5909 -0.5929 -0.5110
  527MOL0     N71027   6.160   0.908   3.789 -0.5723 -0.1386  0.1368
  527MOL0     C71028   6.133   1.040   3.825  0.5123  0.7098  0.3578
  527MOL0     C71029   6.109   1.031   3.959  0.0997 -0.7758 -0.1935
  527MOL0     C71030   6.076   1.156   4.046  0.2568  0.4908 -0.0230
  527MOL0     C71031   6.189   1.255   4.056 -0.0881 -0.3099  0.6211
  527MOL0     C71032   6.136   1.393   4.103 -1.5660  1.3938 -0.5143
  527MOL0     C71033   6.251   1.501   4.108 -0.2417 -0.6134 -0.1874
  527MOL0     O71034   6.320   1.509   3.987 -0.5386 -0.4064  1.1210
  527MOL0     C71035   6.455   1.493   3.977 -0.4213  0.6331  0.1646
  527MOL0     C71036   6.526   1.574   3.881  0.5420  0.7327  0.5752
  527MOL0     C71037   6.656   1.566   3.858 -1.0062  0.1604  0.0243
  527MOL0     C71038   6.725   1.486   3.941  0.0388  0.3504 -0.1811
  527MOL0     C71039   6.874   1.487   3.941  0.6193  0.0953 -0.1787
  527MOL0     O71040   6.926   1.437   4.054 -0.7361 -0.5248  0.2894
  527MOL0     C71041   7.045   1.367   4.049  0.3949 -0.1798 -0.0291
  527MOL0     C71042   7.130   1.351   3.943  0.4949  0.6098 -0.3020
  527MOL0     C71043   7.262   1.288   3.956 -0.0659 -0.2112  0.1698
  527MOL0     C71044   7.310   1.245   4.083 -0.3415  0.3864  0.0843
  527MOL0     O71045   7.437   1.194   4.118  0.0651  0.0566 -0.4459
  527MOL0     C71046   7.509   1.135   4.002 -0.2139  0.0522  0.7861
  527MOL0     C71047   7.598   1.014   4.046  0.7490  0.6605  0.2909
  527MOL0     C71048   7.687   1.042   4.166 -0.2940 -0.6953  0.9734
  527MOL0     C71049   7.766   0.907   4.188 -0.0985 -0.3578 -0.5846
  527MOL0     C71050   7.871   0.927   4.298 -1.3516  0.4273  0.3744
  527MOL0     C71051   7.813   0.878   4.430  0.2747  0.7183  0.3862
  527MOL0     C71052   7.906   0.908   4.547  0.0971 -0.0939  0.3891
  527MOL0     C71053   8.047   0.860   4.525  0.5477 -0.1392  0.1478
  527MOL0    Cl71054   8.132   0.880   4.679  0.2361  0.4280  0.6055
  527MOL0     C71055   7.215   1.263   4.190 -0.6146  1.3559  0.7337
  527MOL0     C71056   7.087   1.319   4.173 -0.5644 -0.7927  0.2991
  527MOL0     O71057   6.925   1.522   3.832 -0.0493  0.2417  0.0821
  527MOL0     C71058   6.661   1.406   4.038 -0.1114 -0.0129 -0.6176
  527MOL0     C71059   6.528   1.409   4.058  0.9570  0.9273  0.3577
  527MOL0     N71060   6.138   0.902   4.001 -0.5795 -0.7308  0.6605
  527MOL0     N71061   6.161   0.826   3.895 -0.4992 -0.8279 -0.3320
  527MOL0     C71062   5.301   0.995   2.972 -0.2100 -0.2352 -0.0754
  527MOL0     C71063   5.181   0.990   2.903  0.5405  0.5514  0.4373
  527MOL0     C71064   4.720   0.844   2.867  0.4909  0.0772  0.0211
  527MOL0     C71065   4.623   0.742   2.834 -0.5209 -0.7880  0.8522
  527MOL0     C71066   4.490   0.765   2.825  0.0622  0.1867 -0.3604
  527MOL0     C71067   4.436   0.887   2.868  0.0653 -0.5028 -0.4212
  527MOL0     O71068   4.302   0.918   2.872  0.1606  0.1379 -0.2195
  527MOL0     C71069   4.196   0.822   2.846 -0.7135  0.2741  0.4003
  527MOL0     C71070   4.186   0.718   2.967  0.3291 -0.4809  1.0633
  527MOL0     C71071   4.081   0.606   2.932  0.1015 -0.2032 -0.4257
  527MOL0     C71072   4.005   0.553   3.058  0.3174  0.9472 -0.3176
  527MOL0     C71073   4.088   0.502   3.166 -0.2359 -0.9113  0.2617
  527MOL0     C71074   4.153   0.465   3.266  0.4370 -0.4408  0.2249
  527MOL0     C71075   4.526   0.978   2.920  0.1013 -0.1070  0.2446
  527MOL0     C71076   4.663   0.965   2.915 -0.2635  0.8243  0.5117
  527MOL0     C71077   4.745   1.076   2.981  0.0099 -0.4328 -0.1030
  527MOL0     H71078   5.033   0.739   3.078 -0.8209 -0.2427 -0.7939
  527MOL0     H71079   5.228   0.739   3.189  6.9014  0.6570 -0.3575
  527MOL0     H71080   5.420   0.763   3.291  0.2007  1.7792  0.4559
  527MOL0     H71081   5.500   0.727   3.140  1.1506  1.6576 -1.5215
  527MOL0     H71082   5.592   0.896   3.371 -0.4798 -0.3606  0.0431
  527MOL0     H71083   5.683   0.901   3.215 -0.2351  0.7598 -0.4428
  527MOL0     H71084   5.702   0.642   3.241 -1.7914 -1.2375  0.9083
  527MOL0     H71085   5.632   0.669   3.393 -0.8361  2.6046  0.5977
  527MOL0     H71086   5.888   0.650   3.392  1.2325  0.8324 -1.8230
  527MOL0     H71087   5.892   0.801   3.310 -0.3249  1.0983 -0.2726
  527MOL0     H71088   5.744   0.885   3.519  0.8166  0.2394 -3.6619
  527MOL0     H71089   5.786   0.726   3.596 -1.4879  0.9967  0.9623
  527MOL0     H71090   5.968   0.956   3.488  0.7537  0.8306  0.3045
  527MOL0     H71091   5.911   0.933   3.658  1.0288  2.9862 -1.0600
  527MOL0     H71092   6.096   0.749   3.501  3.2745 -2.1852  1.7117
  527MOL0     H71093   6.035   0.722   3.671 -0.4714  0.2849 -0.6307
  527MOL0     H71094   6.274   0.795   3.637  1.2425  1.0453  2.1910
  527MOL0     H71095   6.212   0.946   3.586 -2.0051  1.3663  1.3895
  527MOL0     H71096   6.130   1.117   3.749  2.0607 -0.3250 -0.8293
  527MOL0     H71097   5.984   1.203   4.011  1.7464  3.9884  0.2927
  527MOL0     H71098   6.061   1.124   4.149  1.3056  6.0660  2.2384
  527MOL0     H71099   6.272   1.225   4.120  0.3748 -2.2776 -0.8109
  527MOL0     H71100   6.225   1.269   3.953 -1.0265  2.7895  0.6056
  527MOL0     H71101   6.107   1.373   4.207  0.8143 -0.2324 -0.1025
  527MOL0     H71102   6.050   1.414   4.038 -2.2345 -0.6158 -0.3444
  527MOL0     H71103   6.314   1.484   4.196  4.8813  1.2733 -3.0298
  527MOL0     H71104   6.210   1.601   4.124 -0.2888 -0.4743 -1.1003
  527MOL0     H71105   6.469   1.649   3.827  2.1552  0.6233 -1.4178
  527MOL0     H71106   6.715   1.620   3.785  0.2911  0.3330  1.1554
  527MOL0     H71107   7.099   1.394   3.849 -0.3486  0.9945  0.1367
  527MOL0     H71108   7.321   1.276   3.865  0.8314  3.3197  0.1523
  527MOL0     H71109   7.435   1.094   3.934 -3.7951 -0.0010  4.3330
  527MOL0     H71110   7.562   1.216   3.950  0.1110 -0.4456  0.3345
  527MOL0     H71111   7.533   0.937   4.088  1.9749  1.1957  3.5001
  527MOL0     H71112   7.650   0.972   3.960 -1.6866  1.1860 -1.5315
  527MOL0     H71113   7.750   1.128   4.144 -1.1058 -0.6143 -1.2773
  527MOL0     H71114   7.618   1.066   4.248 -1.5418  2.3715 -0.8009
  527MOL0     H71115   7.812   0.897   4.089 -0.3417  2.1306 -1.0028
  527MOL0     H71116   7.701   0.824   4.217  0.9886 -1.0176  0.0539
  527MOL0     H71117   7.899   1.033   4.302 -3.7144  1.1454 -0.7319
  527MOL0     H71118   7.962   0.876   4.262 -1.5746  0.6394 -0.5168
  527MOL0     H71119   7.714   0.926   4.433 -1.2358 -2.0141 -1.5276
  527MOL0     H71120   7.797   0.770   4.428  3.4918  0.1095  1.5773
  527MOL0     H71121   7.870   0.858   4.638 -3.7496 -0.1749 -1.0049
  527MOL0     H71122   7.912   1.014   4.576  2.7657 -0.5235  1.7264
  527MOL0     H71123   8.052   0.756   4.492  2.0967  0.0997 -0.4556
  527MOL0     H71124   8.086   0.918   4.441  0.5304 -1.9046 -1.1304
  527MOL0     H71125   7.228   1.216   4.287 -3.7806 -1.5102 -0.0676
  527MOL0     H71126   7.025   1.328   4.262 -2.3723  2.5877 -1.1149
  527MOL0     H71127   6.713   1.344   4.110  0.9523  1.0750 -0.4090
  527MOL0     H71128   6.478   1.345   4.130 -1.5972  0.8547 -1.3378
  527MOL0     H71129   5.386   1.056   2.945 -0.9866  1.1521  0.4754
  527MOL0     H71130   5.173   1.046   2.811 -0.0388 -3.5710 -2.3156
  527MOL0     H71131   4.655   0.642   2.808 -1.6770 -0.7949 -0.6859
  527MOL0     H71132   4.432   0.683   2.783  2.7948 -1.5426 -1.0156
  527MOL0     H71133   4.223   0.768   2.755  2.0004  2.8440 -0.4644
  527MOL0     H71134   4.103   0.873   2.819  0.3584  0.8242 -2.5872
  527MOL0     H71135   4.163   0.776   3.057 -0.3385 -2.9934  2.5899
  527MOL0     H71136   4.282   0.670   2.985  0.9637 -1.4042 -3.4332
  527MOL0     H71137   4.115   0.516   2.879 -5.6715 -2.7081 -0.6497
  527MOL0     H71138   4.005   0.646   2.865  0.0808 -2.2308 -1.7113
  527MOL0     H71139   3.947   0.628   3.112 -1.6625 -0.4338 -0.3744
  527MOL0     H71140   3.933   0.473   3.035  1.6896 -0.5351  0.3729
  527MOL0     H71141   4.194   0.446   3.363  2.6288  1.2651 -0.3080
  527MOL0     H71142   4.478   1.066   2.963 -0.8927 -0.4228 -0.1708
  527MOL0     H71143   4.815   1.121   2.909  0.0018  1.6460  1.0900
  527MOL0     H71144   4.700   1.160   3.034  1.4186  0.7436 -0.6910
  527MOL0     H71145   4.812   1.031   3.055  0.9095 -1.1515 -1.3204
  528MOL0     O71146   8.540   7.283   1.969 -0.0165 -0.4230 -0.7606
  528MOL0     C71147   8.542   7.296   1.848  0.6412  0.7768  0.9891
  528MOL0     O71148   8.639   7.362   1.780 -0.0332 -0.8954  0.4964
  528MOL0     C71149   8.741   7.441   1.838  0.0367  0.0819 -0.2909
  528MOL0     C71150   8.868   7.418   1.800 -0.2338  0.1836 -0.0406
  528MOL0     C71151   8.975   7.482   1.868  0.0476  0.1142  0.8734
  528MOL0     C71152   8.940   7.577   1.969 -0.3815  0.5210  0.5139
  528MOL0     O71153   9.046   7.649   2.019  0.5794 -0.3534  0.8996
  528MOL0     C71154   9.035   7.719   2.150  0.1972 -0.4491  0.8310
  528MOL0     C71155   9.174   7.770   2.181 -0.3650 -0.1899 -0.0579
  528MOL0     C71156   9.178   7.855   2.303  0.2040 -0.1842  0.7122
  528MOL0     C71157   9.310   7.920   2.322 -1.4825  0.0714 -0.3599
  528MOL0     C71158   9.420   7.814   2.350 -0.1536  0.4930  0.7681
  528MOL0     C71159   9.524   7.880   2.441 -0.5109 -0.5758  1.6593
  528MOL0     C71160   9.652   7.806   2.464 -0.3534 -0.0463  1.2959
  528MOL0     C71161   9.748   7.816   2.345 -1.0116 -0.2565 -0.3323
  528MOL0     N71162   9.837   7.704   2.367  0.2618 -0.9177  0.9472
  528MOL0     C71163   9.799   7.582   2.319  0.1015 -0.1112 -0.5439
  528MOL0     C71164   9.872   7.496   2.398 -0.3001 -0.2340 -0.4383
  528MOL0     C71165   9.859   7.356   2.388  0.3072 -0.3258 -0.6014
  528MOL0     C71166   9.920   7.322   2.255 -0.3324  0.1105  0.9783
  528MOL0     C71167  10.002   7.188   2.258  1.2605 -0.1535  0.2571
  528MOL0     C71168   9.929   7.054   2.293 -0.7585 -0.0053  0.3407
  528MOL0     O71169   9.843   7.014   2.188 -0.1237  0.6477 -0.6037
  528MOL0     C71170   9.784   6.890   2.198 -0.1190  0.3746  0.1889
  528MOL0     C71171   9.672   6.862   2.117  0.3966 -0.1625 -0.4558
  528MOL0     C71172   9.602   6.739   2.127 -0.1749 -0.2471  0.2159
  528MOL0     C71173   9.640   6.649   2.228 -0.0465 -0.8246 -0.5275
  528MOL0     C71174   9.579   6.519   2.233  0.6336 -0.1414  0.4107
  528MOL0     O71175   9.509   6.485   2.116 -0.0727 -0.2781 -0.2561
  528MOL0     C71176   9.453   6.355   2.095 -1.0257  0.6363 -0.0422
  528MOL0     C71177   9.491   6.229   2.152 -0.2777  0.0555 -0.7025
  528MOL0     C71178   9.419   6.117   2.126  0.6489  0.1993 -0.4589
  528MOL0     C71179   9.310   6.112   2.042 -0.3516 -0.6028  0.0603
  528MOL0     O71180   9.244   5.995   2.014  0.3175 -0.2816 -0.8200
  528MOL0     C71181   9.205   5.907   2.128  0.4620 -0.1102 -0.3957
  528MOL0     C71182   9.118   5.970   2.243  0.4928  0.5588 -0.1317
  528MOL0     C71183   8.984   6.012   2.192  0.1458  0.8806  0.4214
  528MOL0     C71184   8.914   6.087   2.298  0.0348 -0.8595 -0.3066
  528MOL0     C71185   8.769   6.125   2.248 -0.2925  0.3533  0.5176
  528MOL0     C71186   8.712   6.232   2.339  0.5493  0.7607  0.4504
  528MOL0     C71187   8.567   6.229   2.303 -0.4788 -0.2545  0.8958
  528MOL0     C71188   8.485   6.336   2.376  0.1355  0.4181 -0.0350
  528MOL0    Cl71189   8.437   6.280   2.544 -0.5000 -0.1511  0.0038
  528MOL0     C71190   9.279   6.233   1.966  0.6012  0.2007  0.3978
  528MOL0     C71191   9.356   6.347   1.990  0.0214 -0.4921  1.0548
  528MOL0     O71192   9.594   6.433   2.322 -0.0495  0.3355  0.3300
  528MOL0     C71193   9.747   6.666   2.308  0.3751  0.9703  0.2760
  528MOL0     C71194   9.818   6.790   2.298  0.8247 -0.2988  0.1496
  528MOL0     N71195   9.947   7.566   2.493  0.1534 -1.2064  0.7413
  528MOL0     N71196   9.925   7.691   2.476  0.5028 -0.6254  0.4895
  528MOL0     C71197   8.812   7.598   2.007  0.4101  0.5707 -1.1730
  528MOL0     C71198   8.709   7.528   1.946  0.1906  0.0043  0.3180
  528MOL0     C71199   8.420   7.255   1.776  0.4289  0.2270 -0.0681
  528MOL0     C71200   8.307   7.216   1.860 -0.8435  0.1655 -0.7663
  528MOL0     C71201   8.188   7.184   1.799  0.2830  0.2181 -0.7921
  528MOL0     C71202   8.189   7.160   1.661 -0.4646 -0.0884  0.8005
  528MOL0     O71203   8.081   7.101   1.608 -0.2466 -0.3387  0.4698
  528MOL0     C71204   7.954   7.138   1.661 -0.0331  0.9850  0.0322
  528MOL0     C71205   7.836   7.067   1.582 -0.4231 -0.0943 -0.2338
  528MOL0     C71206   7.850   7.097   1.427 -0.3052  0.4678 -0.9986
  528MOL0     C71207   7.729   7.052   1.350 -0.9985  0.7083 -0.6033
  528MOL0     C71208   7.689   6.910   1.359 -0.6533  0.6069 -0.4114
  528MOL0     C71209   7.659   6.800   1.389  0.4782 -0.1755  1.7119
  528MOL0     C71210   8.297   7.188   1.576 -0.1712 -0.0229 -0.9123
  528MOL0     C71211   8.413   7.243   1.635  0.3432 -1.3683 -0.3272
  528MOL0     C71212   8.523   7.278   1.539  0.4274 -0.1648  0.3265
  528MOL0     H71213   8.886   7.338   1.729 -0.9939 -0.3186  0.3211
  528MOL0     H71214   9.076   7.449   1.842 -0.3169  0.3067 -0.9243
  528MOL0     H71215   8.965   7.803   2.145  0.6192 -0.0786  1.0851
  528MOL0     H71216   8.999   7.642   2.219 -2.0770 -2.0095 -1.8393
  528MOL0     H71217   9.219   7.832   2.103  1.5563  0.4851  1.5045
  528MOL0     H71218   9.242   7.685   2.186  1.0442  0.9712  1.6440
  528MOL0     H71219   9.161   7.794   2.393 -2.0286  1.4613  1.5147
  528MOL0     H71220   9.103   7.935   2.306 -0.1314 -0.5223  2.0833
  528MOL0     H71221   9.323   7.982   2.233 -0.0589 -0.5734 -0.6273
  528MOL0     H71222   9.312   7.994   2.403  0.8425 -1.9383  1.5841
  528MOL0     H71223   9.376   7.724   2.394  1.4399 -0.9153 -0.3875
  528MOL0     H71224   9.461   7.780   2.254 -4.1294 -0.1357 -0.9261
  528MOL0     H71225   9.538   7.982   2.406 -3.2402  0.9696  4.5783
  528MOL0     H71226   9.483   7.903   2.540 -1.3440  2.5434  0.6864
  528MOL0     H71227   9.633   7.702   2.492  0.0197 -0.2944  0.6339
  528MOL0     H71228   9.699   7.845   2.555  2.0419 -0.1744  0.1902
  528MOL0     H71229   9.700   7.800   2.248 -1.1907 -0.4327 -0.2158
  528MOL0     H71230   9.802   7.911   2.347 -1.7342  0.1491  0.5687
  528MOL0     H71231   9.717   7.563   2.251 -0.9734 -0.3764  0.7893
  528MOL0     H71232   9.910   7.317   2.477 -1.1115 -2.3041 -0.5945
  528MOL0     H71233   9.753   7.329   2.387  0.9310 -3.1314  0.4096
  528MOL0     H71234   9.842   7.306   2.179  1.9705 -1.3631 -1.2566
  528MOL0     H71235   9.982   7.397   2.205 -0.8860  1.0209  1.6384
  528MOL0     H71236  10.079   7.203   2.334 -0.3808 -2.9103  2.6609
  528MOL0     H71237  10.042   7.173   2.157 -0.8745 -1.9539 -0.3906
  528MOL0     H71238   9.876   7.074   2.387  1.8408  0.2510  1.8558
  528MOL0     H71239  10.006   6.977   2.308  0.1269  0.4878 -1.4433
  528MOL0     H71240   9.636   6.927   2.038  3.3802 -2.6427 -4.1658
  528MOL0     H71241   9.517   6.725   2.061  0.7747 -0.4170 -1.0134
  528MOL0     H71242   9.575   6.228   2.221 -0.0493  1.7610 -0.9140
  528MOL0     H71243   9.439   6.028   2.184 -3.5417  1.1595  2.9222
  528MOL0     H71244   9.151   5.819   2.091  0.5393  0.5429 -2.2013
  528MOL0     H71245   9.289   5.873   2.190  1.3120  0.1588 -1.3537
  528MOL0     H71246   9.100   5.900   2.325  1.4041 -2.7767 -2.5539
  528MOL0     H71247   9.170   6.061   2.273 -0.8406  1.9657 -1.8622
  528MOL0     H71248   8.983   6.074   2.102 -0.3678 -0.9208 -0.8703
  528MOL0     H71249   8.932   5.922   2.157 -0.6817  1.0590  1.1626
  528MOL0     H71250   8.979   6.172   2.320  0.6952 -1.0879 -1.2798
  528MOL0     H71251   8.893   6.032   2.390 -1.3506  2.6851  1.7010
  528MOL0     H71252   8.700   6.040   2.237 -0.8414  1.0127 -1.9756
  528MOL0     H71253   8.779   6.168   2.147  1.7697 -0.3100  0.4084
  528MOL0     H71254   8.714   6.205   2.445  3.6222 -1.1447  0.0178
  528MOL0     H71255   8.744   6.336   2.323  2.2122  0.3598  0.9691
  528MOL0     H71256   8.525   6.130   2.326 -1.6552  0.5585  2.4776
  528MOL0     H71257   8.547   6.233   2.196  1.0532 -1.1394  0.5591
  528MOL0     H71258   8.530   6.435   2.381  2.6173 -0.6653  0.7292
  528MOL0     H71259   8.391   6.341   2.320 -0.1838  0.9301  0.5377
  528MOL0     H71260   9.199   6.215   1.895  1.1148 -1.2984  0.1678
  528MOL0     H71261   9.321   6.442   1.950  1.2187 -0.1414  0.7971
  528MOL0     H71262   9.763   6.588   2.382 -2.9508 -0.9081 -0.7550
  528MOL0     H71263   9.911   6.798   2.354  1.7619 -1.2296 -1.1930
  528MOL0     H71264   8.777   7.667   2.083 -1.8366 -0.2171 -1.3924
  528MOL0     H71265   8.605   7.543   1.972 -0.7031 -1.0151 -2.2903
  528MOL0     H71266   8.312   7.226   1.968 -1.1614  2.8446 -0.9216
  528MOL0     H71267   8.100   7.168   1.861 -0.7261  1.2168 -1.9284
  528MOL0     H71268   7.942   7.247   1.662  0.5712  1.0529  0.5905
  528MOL0     H71269   7.942   7.112   1.766 -1.5521  0.7733 -0.1659
  528MOL0     H71270   7.741   7.102   1.625 -0.5275 -0.6659  0.0091
  528MOL0     H71271   7.843   6.960   1.602  1.9393  0.0247 -0.1753
  528MOL0     H71272   7.934   7.038   1.389 -2.4727 -3.1456 -0.6792
  528MOL0     H71273   7.861   7.205   1.424 -0.3774  0.5433  0.8210
  528MOL0     H71274   7.647   7.122   1.372 -0.4550  1.5153 -1.0694
  528MOL0     H71275   7.759   7.062   1.245  1.5163  0.6062  0.0405
  528MOL0     H71276   7.627   6.699   1.404 -2.1310 -0.2871 -2.7418
  528MOL0     H71277   8.278   7.183   1.469 -2.0568  1.2360 -0.6845
  528MOL0     H71278   8.494   7.245   1.439 -1.2229  0.0597  0.7064
  528MOL0     H71279   8.538   7.385   1.524 -2.2935  0.3007  0.4796
  528MOL0     H71280   8.619   7.231   1.564  1.6811  2.2156  0.2806
  529MOL0     O71281   3.679   3.864   5.494 -0.4622  0.5645 -0.2608
  529MOL0     C71282   3.653   3.978   5.457 -0.9908  0.5244  0.1168
  529MOL0     O71283   3.741   4.076   5.412 -0.5566 -0.4419  0.4558
  529MOL0     C71284   3.874   4.068   5.439 -0.9760 -0.1714 -0.1481
  529MOL0     C71285   3.934   4.182   5.497 -0.5765 -0.1385  0.1910
  529MOL0     C71286   4.063   4.175   5.558 -0.0707  0.4917  0.4773
  529MOL0     C71287   4.137   4.055   5.551  0.1985 -0.8018 -0.3288
  529MOL0     O71288   4.266   4.051   5.597 -0.0684 -0.1127 -0.0771
  529MOL0     C71289   4.359   4.139   5.523  0.2073  0.1870  0.2359
  529MOL0     C71290   4.453   4.191   5.631  1.2631  0.6790 -0.0426
  529MOL0     C71291   4.534   4.319   5.584  1.1463 -0.8274  0.5283
  529MOL0     C71292   4.654   4.343   5.665  0.8721 -0.3644 -0.1204
  529MOL0     C71293   4.758   4.433   5.595  0.1371  0.6917  0.5682
  529MOL0     C71294   4.844   4.498   5.699 -0.2017  0.0254 -0.4508
  529MOL0     C71295   4.943   4.599   5.630  0.2594 -0.5679  0.2707
  529MOL0     C71296   4.895   4.743   5.588  0.7959 -0.0502  0.6296
  529MOL0     N71297   4.993   4.823   5.511 -0.1592 -0.1411  0.6531
  529MOL0     C71298   5.071   4.928   5.569  0.4904  0.5161  0.0821
  529MOL0     C71299   5.148   4.972   5.464 -0.5936 -0.3406  0.7369
  529MOL0     C71300   5.249   5.089   5.476  0.4237 -0.8245 -0.0540
  529MOL0     C71301   5.398   5.045   5.488  0.1074  0.0100 -0.3340
  529MOL0     C71302   5.499   5.152   5.470  0.1375 -0.2046 -0.8882
  529MOL0     C71303   5.502   5.223   5.334 -0.2540 -1.3293  0.1050
  529MOL0     O71304   5.628   5.293   5.353  0.6539  0.1631  0.1797
  529MOL0     C71305   5.705   5.308   5.237 -0.1100  0.2844  0.2322
  529MOL0     C71306   5.847   5.331   5.248 -0.7405 -0.0396 -1.2142
  529MOL0     C71307   5.924   5.356   5.135 -0.5876  0.2925 -1.6168
  529MOL0     C71308   5.866   5.364   5.007 -0.3873 -0.4818 -0.2225
  529MOL0     C71309   5.949   5.406   4.894 -0.0100 -0.0187 -0.3484
  529MOL0     O71310   5.888   5.470   4.799  0.5734 -0.8802  0.4387
  529MOL0     C71311   5.952   5.506   4.683 -0.5073  0.0919  0.3590
  529MOL0     C71312   5.919   5.631   4.633 -0.3847  0.6659 -1.2689
  529MOL0     C71313   5.960   5.672   4.505 -0.9347 -0.0647  0.3149
  529MOL0     C71314   6.056   5.592   4.434  0.4085 -0.9101  0.1881
  529MOL0     O71315   6.118   5.632   4.318  0.0206 -0.8658  0.1920
  529MOL0     C71316   6.189   5.761   4.312  0.8876 -0.3417  0.1128
  529MOL0     C71317   6.308   5.745   4.212  0.0469  0.2537 -0.5926
  529MOL0     C71318   6.391   5.619   4.245 -0.1639 -0.2968 -0.4577
  529MOL0     C71319   6.515   5.611   4.149  0.2641  0.0137 -0.3208
  529MOL0     C71320   6.622   5.509   4.189  0.2138 -0.2892  0.4097
  529MOL0     C71321   6.727   5.497   4.077  0.4400  0.4867  0.4186
  529MOL0     C71322   6.849   5.423   4.107 -0.0249 -0.1368 -0.4024
  529MOL0     C71323   6.945   5.402   3.990 -0.5363 -0.2753 -0.5647
  529MOL0    Cl71324   6.927   5.521   3.850 -0.0513  0.2840 -0.3770
  529MOL0     C71325   6.087   5.462   4.485 -0.1134 -1.0570 -0.0352
  529MOL0     C71326   6.026   5.415   4.603  0.1986  0.3568  0.2102
  529MOL0     O71327   6.065   5.386   4.902 -0.1539 -0.3334 -0.1772
  529MOL0     C71328   5.723   5.346   4.993 -0.0149 -0.6575  0.2127
  529MOL0     C71329   5.651   5.317   5.105  0.5363  0.3340 -0.1272
  529MOL0     N71330   5.109   4.913   5.351  0.4589 -0.1131  0.7886
  529MOL0     N71331   5.015   4.818   5.375  0.2191  0.1264  0.7426
  529MOL0     C71332   4.077   3.939   5.509 -0.1713 -0.0143 -0.3578
  529MOL0     C71333   3.952   3.950   5.450 -0.1850  0.5554  0.6772
  529MOL0     C71334   3.505   4.007   5.448 -0.3259  0.1059  0.7866
  529MOL0     C71335   3.451   4.135   5.458 -0.6550 -1.0520  0.7354
  529MOL0     C71336   3.323   4.157   5.435  0.0983 -0.0351 -0.1449
  529MOL0     C71337   3.229   4.055   5.411 -0.8065  0.0278 -0.4123
  529MOL0     O71338   3.093   4.055   5.400 -0.2728  0.3022  0.3373
  529MOL0     C71339   3.039   4.179   5.448  0.1863 -0.0484 -0.3074
  529MOL0     C71340   2.886   4.198   5.438 -0.7707 -0.3344  0.0659
  529MOL0     C71341   2.805   4.089   5.504  0.2397 -0.5049 -0.2462
  529MOL0     C71342   2.665   4.077   5.445  0.4587 -0.0110 -0.2408
  529MOL0     C71343   2.569   4.015   5.543 -0.9834 -0.1979  0.3628
  529MOL0     C71344   2.493   3.982   5.627 -0.0486 -0.0950  0.0824
  529MOL0     C71345   3.274   3.925   5.387 -1.3676  0.1954  0.0194
  529MOL0     C71346   3.416   3.900   5.408  0.1034  0.5434 -0.5050
  529MOL0     C71347   3.453   3.753   5.379 -0.2695 -0.1644  0.4849
  529MOL0     H71348   3.879   4.274   5.513 -0.8633 -0.3737  0.5697
  529MOL0     H71349   4.103   4.252   5.624  1.6941  0.7104 -0.7655
  529MOL0     H71350   4.414   4.077   5.452 -2.2636 -0.8104 -0.9271
  529MOL0     H71351   4.300   4.216   5.470  1.0561  0.8206  0.1950
  529MOL0     H71352   4.525   4.110   5.642  0.8103 -0.2287 -3.0416
  529MOL0     H71353   4.392   4.222   5.717  0.5198  0.3142 -0.4264
  529MOL0     H71354   4.464   4.402   5.583  0.8501 -1.0828 -0.0640
  529MOL0     H71355   4.567   4.302   5.481 -0.5695  0.1763 -0.2281
  529MOL0     H71356   4.606   4.387   5.753 -1.5520 -2.1546 -0.4578
  529MOL0     H71357   4.701   4.256   5.712  1.1511  0.2726  0.8237
  529MOL0     H71358   4.813   4.372   5.524 -3.4148 -0.9753 -0.9774
  529MOL0     H71359   4.709   4.507   5.531  2.3356 -0.6945 -2.9866
  529MOL0     H71360   4.787   4.572   5.756  1.9184  2.8163 -1.6965
  529MOL0     H71361   4.885   4.429   5.773 -2.9728  0.5271  1.7282
  529MOL0     H71362   4.982   4.567   5.533 -0.6974  3.0830 -1.4777
  529MOL0     H71363   5.024   4.613   5.702  0.3545  1.7011 -0.1930
  529MOL0     H71364   4.800   4.731   5.534  0.7349  1.3861  0.3856
  529MOL0     H71365   4.872   4.810   5.671 -0.9171 -0.6926  0.7227
  529MOL0     H71366   5.074   4.971   5.668  0.5558  4.0899 -1.3271
  529MOL0     H71367   5.225   5.163   5.399 -0.6984 -0.4873  0.5916
  529MOL0     H71368   5.230   5.146   5.568 -0.7337  0.7562 -1.2198
  529MOL0     H71369   5.421   4.990   5.580 -0.3471 -2.3178 -1.5296
  529MOL0     H71370   5.424   4.970   5.412  0.0846 -0.7408  0.3866
  529MOL0     H71371   5.592   5.095   5.472  1.2568  1.5622 -0.0134
  529MOL0     H71372   5.504   5.223   5.553  0.1335  0.7260 -1.6652
  529MOL0     H71373   5.427   5.301   5.316  0.0348 -1.5489 -2.4494
  529MOL0     H71374   5.496   5.148   5.255 -0.6121 -0.1629 -1.0119
  529MOL0     H71375   5.900   5.327   5.342 -0.7038  1.1673 -1.1686
  529MOL0     H71376   6.030   5.363   5.154 -0.9158  3.9361 -0.3292
  529MOL0     H71377   5.855   5.690   4.698 -0.9641 -2.1767  0.9718
  529MOL0     H71378   5.935   5.768   4.461  1.0371 -1.0651 -3.4111
  529MOL0     H71379   6.112   5.828   4.273 -0.5467 -0.4761  2.5416
  529MOL0     H71380   6.218   5.793   4.412  1.0432  0.1023 -0.0737
  529MOL0     H71381   6.278   5.754   4.107  1.2553 -0.5939 -1.0243
  529MOL0     H71382   6.369   5.833   4.234 -2.5133  2.1587 -0.5754
  529MOL0     H71383   6.421   5.623   4.350 -1.5054 -0.0926 -0.0668
  529MOL0     H71384   6.316   5.542   4.229  0.7951 -1.3511 -0.0388
  529MOL0     H71385   6.565   5.708   4.149  0.6428 -0.1744  0.0483
  529MOL0     H71386   6.485   5.589   4.046 -1.5790  3.8072 -0.7422
  529MOL0     H71387   6.574   5.411   4.202 -0.4304  0.2424  2.4051
  529MOL0     H71388   6.675   5.540   4.280  0.7209 -1.5008  0.5454
  529MOL0     H71389   6.676   5.440   3.999 -0.7268  1.1987  0.6257
  529MOL0     H71390   6.762   5.595   4.045  2.5003  0.0010  1.0649
  529MOL0     H71391   6.843   5.331   4.166  1.0232  0.8357  1.2979
  529MOL0     H71392   6.899   5.498   4.168  0.9439 -2.2133  1.5128
  529MOL0     H71393   7.044   5.404   4.036 -1.8976 -0.3263  2.5621
  529MOL0     H71394   6.927   5.303   3.947 -1.7008 -0.0024 -0.7323
  529MOL0     H71395   6.156   5.395   4.434 -1.2568 -0.9761 -1.7457
  529MOL0     H71396   6.030   5.310   4.630 -0.7493 -0.5083 -2.6327
  529MOL0     H71397   5.683   5.343   4.892 -3.1921 -2.1724  1.3629
  529MOL0     H71398   5.544   5.298   5.105  0.6064 -0.0600 -0.1295
  529MOL0     H71399   4.137   3.848   5.515 -1.1260 -0.6323 -0.0620
  529MOL0     H71400   3.910   3.858   5.410 -0.1263  1.0526 -0.5681
  529MOL0     H71401   3.514   4.223   5.466 -1.9094 -0.2480  2.3112
  529MOL0     H71402   3.272   4.252   5.438 -0.8189 -0.4378 -1.6437
  529MOL0     H71403   3.073   4.271   5.400 -4.0455  0.6337 -2.4147
  529MOL0     H71404   3.070   4.199   5.551 -0.6886 -0.3002  0.0159
  529MOL0     H71405   2.869   4.202   5.329 -0.9600  0.4557  0.1163
  529MOL0     H71406   2.855   4.299   5.466 -1.3393 -0.3309 -0.5423
  529MOL0     H71407   2.808   4.118   5.610  0.3863 -1.8303  0.1246
  529MOL0     H71408   2.857   3.993   5.502 -3.1502 -2.5904  1.2118
  529MOL0     H71409   2.612   4.167   5.414  0.9175 -0.2457 -1.7567
  529MOL0     H71410   2.667   4.009   5.359  1.3119  1.2548 -1.2551
  529MOL0     H71411   2.428   3.952   5.707  0.3628 -0.4004  0.3051
  529MOL0     H71412   3.200   3.853   5.352 -0.2969 -0.9225 -0.0090
  529MOL0     H71413   3.370   3.703   5.328  0.8550 -0.6717 -0.9206
  529MOL0     H71414   3.546   3.732   5.325  1.2444 -1.6259  3.4518
  529MOL0     H71415   3.448   3.698   5.473 -0.5880 -0.3341  0.3726
  530MOL0     O71416  11.006   3.181   2.535 -0.1194 -0.4365  0.1119
  530MOL0     C71417  10.946   3.272   2.605 -0.6181  0.3161  0.3943
  530MOL0     O71418  10.906   3.399   2.555  0.3225  0.4264 -0.4241
  530MOL0     C71419  10.909   3.414   2.414 -1.5165  0.2499 -0.1933
  530MOL0     C71420  10.794   3.407   2.336  1.0982  0.0181 -0.6385
  530MOL0     C71421  10.795   3.431   2.205  0.8864  0.0942 -0.2596
  530MOL0     C71422  10.917   3.472   2.144  0.0438  0.3557  0.2192
  530MOL0     O71423  10.939   3.482   2.008 -0.1796 -1.4842  0.7986
  530MOL0     C71424  10.841   3.564   1.936  1.2609 -0.7114 -0.2363
  530MOL0     C71425  10.866   3.712   1.942 -0.4414 -0.0890  0.7895
  530MOL0     C71426  10.932   3.766   2.065 -1.1963  0.2777 -0.4411
  530MOL0     C71427  10.916   3.927   2.067  0.0767  1.0262 -0.1944
  530MOL0     C71428  11.020   3.997   1.979 -0.4124 -0.1314 -0.3798
  530MOL0     C71429  10.997   4.147   1.992  0.1921 -0.2239 -0.5056
  530MOL0     C71430  11.078   4.228   1.884  0.1230 -0.6699  0.0466
  530MOL0     C71431  11.051   4.376   1.888 -0.6263 -0.1120  0.6040
  530MOL0     N71432  11.123   4.448   1.778 -0.2757  0.3308 -0.1016
  530MOL0     C71433  11.260   4.455   1.768 -1.2197  0.6346 -0.0426
  530MOL0     C71434  11.274   4.528   1.655 -1.0343 -0.8611 -0.1466
  530MOL0     C71435  11.394   4.573   1.582  0.9337 -0.0855  0.1480
  530MOL0     C71436  11.456   4.693   1.656  0.8699  0.2971  0.4545
  530MOL0     C71437  11.551   4.764   1.563 -0.2298  0.0118 -1.5092
  530MOL0     C71438  11.674   4.690   1.505 -0.6493 -0.7076  0.0379
  530MOL0     O71439  11.739   4.628   1.620 -0.0815  0.0997 -0.9004
  530MOL0     C71440  11.858   4.682   1.665  0.1767  0.1942 -0.0060
  530MOL0     C71441  11.969   4.695   1.581  0.2134 -0.3473 -0.1580
  530MOL0     C71442  12.081   4.737   1.639  0.9129  0.0000 -1.0919
  530MOL0     C71443  12.090   4.773   1.773  1.4659  0.2151 -0.1421
  530MOL0     C71444  12.217   4.815   1.833  0.0264 -0.4784  0.6561
  530MOL0     O71445  12.217   4.905   1.936  0.7160  0.4404  0.1916
  530MOL0     C71446  12.334   4.949   1.996 -0.1831  0.4167 -0.0424
  530MOL0     C71447  12.452   4.982   1.934  0.0061  0.3016  0.3036
  530MOL0     C71448  12.558   5.030   2.003 -0.4673  0.0458  0.2876
  530MOL0     C71449  12.544   5.051   2.138  0.0393  0.1541 -0.6184
  530MOL0     O71450  12.651   5.120   2.199 -0.1817  0.9892  0.0432
  530MOL0     C71451  12.644   5.247   2.268  0.2145 -0.0883 -0.2255
  530MOL0     C71452  12.625   5.365   2.181 -0.1530 -0.8194  0.3725
  530MOL0     C71453  12.634   5.505   2.242 -0.0668 -0.9231 -0.0186
  530MOL0     C71454  12.566   5.621   2.162  0.9893  0.7031 -0.2613
  530MOL0     C71455  12.662   5.714   2.084 -0.5101  0.0194 -1.0281
  530MOL0     C71456  12.593   5.824   2.021  0.1304  0.7360  0.5767
  530MOL0     C71457  12.618   5.825   1.872 -0.8185  0.4990 -0.4762
  530MOL0     C71458  12.546   5.937   1.799 -0.5020  1.0184  0.1566
  530MOL0    Cl71459  12.374   5.915   1.812 -0.2047 -0.1693  0.3096
  530MOL0     C71460  12.425   5.031   2.196 -0.2698  0.6702 -0.5193
  530MOL0     C71461  12.321   4.974   2.130  0.6633 -0.0808 -0.3677
  530MOL0     O71462  12.318   4.759   1.782 -0.7025  0.4960 -0.1896
  530MOL0     C71463  11.985   4.731   1.862  0.2317  0.0597  0.6877
  530MOL0     C71464  11.869   4.699   1.795 -0.1434  0.4585 -0.0314
  530MOL0     N71465  11.148   4.569   1.604 -0.5815 -0.2101 -0.3335
  530MOL0     N71466  11.060   4.513   1.682 -0.9040 -0.5452  0.1708
  530MOL0     C71467  11.035   3.473   2.221 -0.2852  0.5755 -0.1566
  530MOL0     C71468  11.034   3.447   2.352  0.9513  0.3834 -0.1492
  530MOL0     C71469  10.917   3.256   2.753 -0.5076  0.4839 -0.1930
  530MOL0     C71470  10.893   3.375   2.822 -0.3873 -0.6323  0.1192
  530MOL0     C71471  10.858   3.389   2.964 -0.2234 -0.1561 -0.0980
  530MOL0     C71472  10.842   3.273   3.035 -0.0142  0.1408  0.3385
  530MOL0     O71473  10.805   3.275   3.167 -0.1456  0.8184 -0.1862
  530MOL0     C71474  10.803   3.390   3.260  0.3914  1.0371  0.3251
  530MOL0     C71475  10.934   3.424   3.336  0.0310 -0.0508 -0.2780
  530MOL0     C71476  11.012   3.305   3.391 -0.1548  0.4139  1.2848
  530MOL0     C71477  11.136   3.329   3.485 -0.1910 -1.0406  0.6129
  530MOL0     C71478  11.247   3.376   3.396  0.5941 -0.6899 -0.3719
  530MOL0     C71479  11.324   3.419   3.307  0.1667 -0.2028 -0.5511
  530MOL0     C71480  10.854   3.151   2.965 -0.5767 -0.2828 -0.6084
  530MOL0     C71481  10.901   3.143   2.824 -0.6658  0.4595  0.2482
  530MOL0     C71482  10.925   3.011   2.762 -0.0144 -0.6494 -0.4078
  530MOL0     H71483  10.704   3.369   2.384  0.8654 -1.6260 -2.2927
  530MOL0     H71484  10.706   3.408   2.148  1.0015  2.2917 -1.4195
  530MOL0     H71485  10.825   3.521   1.837 -0.9721  0.3156 -0.3632
  530MOL0     H71486  10.745   3.556   1.988  0.5284  0.4762 -1.3409
  530MOL0     H71487  10.772   3.766   1.927 -0.4686 -0.1349  0.7954
  530MOL0     H71488  10.932   3.741   1.860 -5.6629 -0.9399 -4.4024
  530MOL0     H71489  11.034   3.729   2.080 -2.3318 -2.3406  1.5825
  530MOL0     H71490  10.874   3.730   2.150 -1.6972  2.2568  0.1212
  530MOL0     H71491  10.815   3.955   2.037 -0.3357  0.0984  0.2920
  530MOL0     H71492  10.928   3.975   2.165  3.8634  0.9069 -0.4579
  530MOL0     H71493  11.122   3.964   2.002 -0.1852 -0.6614 -1.9953
  530MOL0     H71494  11.005   3.956   1.878 -1.3372 -0.7624 -0.0011
  530MOL0     H71495  10.889   4.164   1.986  0.1994 -0.3094 -0.9135
  530MOL0     H71496  11.032   4.184   2.088 -0.1451  0.6804 -0.7256
  530MOL0     H71497  11.069   4.188   1.783  0.5615 -0.6897  0.0128
  530MOL0     H71498  11.185   4.211   1.899  0.0872 -2.5811 -1.4854
  530MOL0     H71499  10.943   4.387   1.881 -0.9083 -0.6481  3.0605
  530MOL0     H71500  11.076   4.419   1.986 -1.2023 -1.2306  1.2574
  530MOL0     H71501  11.339   4.400   1.819 -0.9670 -0.4304 -1.5190
  530MOL0     H71502  11.470   4.495   1.592  1.8031  0.2932 -2.7264
  530MOL0     H71503  11.374   4.593   1.476 -1.5551 -2.1704  0.0989
  530MOL0     H71504  11.370   4.756   1.683  0.0624 -1.5189  2.4241
  530MOL0     H71505  11.507   4.669   1.750  3.2742 -2.8401 -1.4611
  530MOL0     H71506  11.594   4.857   1.603  1.6748 -1.3311 -0.2812
  530MOL0     H71507  11.504   4.797   1.470  2.8790  0.8741 -2.9112
  530MOL0     H71508  11.732   4.768   1.455 -2.8107  1.3306  0.5145
  530MOL0     H71509  11.636   4.616   1.434  0.6634 -0.7098 -0.6940
  530MOL0     H71510  11.975   4.649   1.483  3.2400 -1.0145  0.2422
  530MOL0     H71511  12.164   4.751   1.570  0.8004 -0.2762 -1.2846
  530MOL0     H71512  12.455   4.966   1.826  1.3375  0.1076  0.3497
  530MOL0     H71513  12.652   5.062   1.960 -0.6188  1.7711  1.1675
  530MOL0     H71514  12.569   5.236   2.347  0.1730 -0.3014 -0.2947
  530MOL0     H71515  12.736   5.267   2.325  0.0925  0.8152 -0.3416
  530MOL0     H71516  12.703   5.357   2.105 -1.1704  2.4640 -1.1892
  530MOL0     H71517  12.523   5.360   2.141  0.0140 -0.9841 -0.0316
  530MOL0     H71518  12.571   5.503   2.331 -0.3952  0.5922 -0.1856
  530MOL0     H71519  12.734   5.538   2.272  0.5755  0.2721 -3.0719
  530MOL0     H71520  12.511   5.681   2.235  0.8987  1.7793 -1.1909
  530MOL0     H71521  12.493   5.577   2.095 -1.7276  1.1167  2.2372
  530MOL0     H71522  12.723   5.661   2.010  0.5767  2.7233 -2.1713
  530MOL0     H71523  12.740   5.748   2.153 -2.6024  0.1848  1.4072
  530MOL0     H71524  12.486   5.822   2.043  0.3003 -0.8875  1.3917
  530MOL0     H71525  12.648   5.911   2.059 -0.3859  1.4654 -0.3053
  530MOL0     H71526  12.587   5.726   1.837  0.6381  0.0767 -0.6620
  530MOL0     H71527  12.726   5.837   1.858 -0.9707  1.7704 -0.6315
  530MOL0     H71528  12.581   6.035   1.830  2.3031  0.8793 -2.1235
  530MOL0     H71529  12.569   5.941   1.692 -2.2417  1.9144 -0.2197
  530MOL0     H71530  12.413   5.056   2.301 -1.8437 -0.3156 -0.4183
  530MOL0     H71531  12.229   4.960   2.185 -0.7306 -0.2405 -2.5857
  530MOL0     H71532  11.984   4.739   1.970 -0.2376 -1.9869  0.8899
  530MOL0     H71533  11.787   4.664   1.857 -0.4391  2.8994  1.0740
  530MOL0     H71534  11.118   3.500   2.156  0.1206 -0.9326 -0.3106
  530MOL0     H71535  11.124   3.471   2.408 -0.7738  3.0568  1.7097
  530MOL0     H71536  10.920   3.468   2.774 -0.7342  0.5768  2.1586
  530MOL0     H71537  10.845   3.486   3.010 -1.5695 -1.1230  1.7143
  530MOL0     H71538  10.719   3.396   3.330 -2.5209 -0.1571 -2.7886
  530MOL0     H71539  10.780   3.478   3.199 -2.0401  0.2513  0.0083
  530MOL0     H71540  10.905   3.483   3.424  0.1562 -0.4248  0.0138
  530MOL0     H71541  10.989   3.486   3.265  0.9210 -2.9622 -2.3037
  530MOL0     H71542  11.045   3.246   3.306  1.1175  1.4204  1.0580
  530MOL0     H71543  10.945   3.242   3.451  0.8472 -2.0262 -0.0398
  530MOL0     H71544  11.121   3.411   3.555 -0.2912  1.7039 -2.3930
  530MOL0     H71545  11.167   3.239   3.540  0.1626  0.0509  2.2572
  530MOL0     H71546  11.394   3.454   3.233 -1.6923  2.6369 -1.1168
  530MOL0     H71547  10.826   3.062   3.020  0.3054  1.0031  2.0877
  530MOL0     H71548  10.887   2.999   2.661  0.2458 -0.3096 -0.5493
  530MOL0     H71549  11.031   2.986   2.776  0.3711  0.4724 -1.1652
  530MOL0     H71550  10.865   2.943   2.823  1.4345 -0.0229  1.8691
  531MOL0     O71551   5.009   5.762   8.546 -0.1246  1.0440  0.5864
  531MOL0     C71552   4.979   5.692   8.450  0.3494  0.8330  0.2300
  531MOL0     O71553   5.070   5.612   8.373  0.5568  0.6567 -0.7239
  531MOL0     C71554   5.198   5.597   8.418  0.2529  0.5198  0.0416
  531MOL0     C71555   5.275   5.700   8.463 -0.3350 -0.5630 -0.9758
  531MOL0     C71556   5.404   5.687   8.527  0.1256 -0.2127 -0.0356
  531MOL0     C71557   5.463   5.547   8.530  0.3354 -0.7537 -0.2707
  531MOL0     O71558   5.580   5.503   8.587 -0.2849  0.8095  0.5587
  531MOL0     C71559   5.667   5.607   8.627 -0.6396 -0.3008  0.6351
  531MOL0     C71560   5.779   5.573   8.736  0.0863 -0.3744  0.5987
  531MOL0     C71561   5.860   5.691   8.785 -0.3925 -0.9639  0.9200
  531MOL0     C71562   5.921   5.772   8.667  0.1491  0.6652 -0.7114
  531MOL0     C71563   5.983   5.903   8.709  0.2741 -0.8130 -0.9672
  531MOL0     C71564   6.056   5.980   8.596 -0.1703  0.7051 -0.9222
  531MOL0     C71565   6.097   6.127   8.617  0.2958 -0.4224 -0.8010
  531MOL0     C71566   6.171   6.156   8.751  0.3613  0.9093 -0.8649
  531MOL0     N71567   6.310   6.123   8.763  0.4278 -1.6962 -0.8757
  531MOL0     C71568   6.407   6.204   8.713  0.5584 -0.3448 -0.0402
  531MOL0     C71569   6.521   6.147   8.757 -0.1486  0.5709  0.3247
  531MOL0     C71570   6.663   6.177   8.720 -0.3929 -0.2272 -0.0427
  531MOL0     C71571   6.729   6.274   8.821 -0.1452  0.5762 -0.2339
  531MOL0     C71572   6.790   6.218   8.949  0.4190 -0.9139  0.4828
  531MOL0     C71573   6.890   6.106   8.940  0.1696 -0.6397  1.2637
  531MOL0     O71574   6.983   6.155   8.843 -0.5836  0.5467  0.8957
  531MOL0     C71575   7.104   6.087   8.818  0.1232  0.5991  0.2033
  531MOL0     C71576   7.197   6.145   8.735  0.5064  0.3316  0.1534
  531MOL0     C71577   7.320   6.077   8.703  1.4267  0.1507  0.6995
  531MOL0     C71578   7.347   5.949   8.758 -0.3131  0.0814  0.5948
  531MOL0     C71579   7.477   5.867   8.738 -0.4058  0.1786 -0.5301
  531MOL0     O71580   7.520   5.791   8.844  0.2688 -0.6813 -0.1265
  531MOL0     C71581   7.639   5.728   8.833 -0.4722 -0.2656  0.8919
  531MOL0     C71582   7.752   5.787   8.889 -0.2811  1.3132 -0.1276
  531MOL0     C71583   7.872   5.719   8.874 -0.2140 -0.0601 -0.1277
  531MOL0     C71584   7.885   5.596   8.805 -0.5843 -0.4489  0.0081
  531MOL0     O71585   8.002   5.527   8.787  0.8399 -0.5463 -0.1248
  531MOL0     C71586   8.106   5.545   8.880  0.5044  0.1925 -0.6969
  531MOL0     C71587   8.232   5.452   8.834  0.1199  0.2970 -0.2343
  531MOL0     C71588   8.348   5.437   8.929 -0.3780  0.3690 -0.3018
  531MOL0     C71589   8.445   5.325   8.896  0.3749  0.6490 -0.1745
  531MOL0     C71590   8.561   5.343   8.991  0.2824  0.5337  0.8863
  531MOL0     C71591   8.648   5.217   8.982  0.0175 -0.0307  0.7785
  531MOL0     C71592   8.776   5.225   9.064  0.0497  0.0241 -0.2268
  531MOL0     C71593   8.751   5.211   9.210 -0.4220 -0.1734 -0.7034
  531MOL0    Cl71594   8.911   5.181   9.300  0.4090 -0.5748  0.2378
  531MOL0     C71595   7.770   5.535   8.752 -0.3786 -0.0345 -0.4978
  531MOL0     C71596   7.645   5.603   8.777 -0.5238  0.2691 -0.4188
  531MOL0     O71597   7.547   5.887   8.644  0.2414  0.0512  0.5942
  531MOL0     C71598   7.249   5.887   8.831  0.1101  0.3942 -0.3257
  531MOL0     C71599   7.133   5.959   8.862 -0.6679 -0.3979 -0.4347
  531MOL0     N71600   6.498   6.036   8.832  0.0850  0.2558 -0.7630
  531MOL0     N71601   6.366   6.025   8.840  0.1560  0.1113  0.3723
  531MOL0     C71602   5.389   5.451   8.460 -0.1849 -0.1842 -0.4551
  531MOL0     C71603   5.257   5.470   8.422  0.1666  0.8919  0.2731
  531MOL0     C71604   4.836   5.691   8.411  0.3583 -0.1799 -0.1991
  531MOL0     C71605   4.766   5.805   8.402  0.1273 -0.0863  0.0228
  531MOL0     C71606   4.639   5.819   8.365 -0.5392 -0.2072  0.1445
  531MOL0     C71607   4.571   5.699   8.337  0.0126  0.2286 -0.5965
  531MOL0     O71608   4.443   5.697   8.293  0.0666  0.4370 -0.0200
  531MOL0     C71609   4.373   5.814   8.285  0.6509 -0.0941 -0.4683
  531MOL0     C71610   4.226   5.785   8.263  0.4117 -0.6856 -0.3062
  531MOL0     C71611   4.133   5.757   8.387  0.3489 -0.3267 -0.6309
  531MOL0     C71612   4.199   5.758   8.526  0.0433 -1.4275  0.3226
  531MOL0     C71613   4.107   5.708   8.623 -0.5055  0.2676 -0.2680
  531MOL0     C71614   4.035   5.659   8.698  0.4158  0.9064  0.5696
  531MOL0     C71615   4.639   5.578   8.344  0.4873 -0.0726  0.3451
  531MOL0     C71616   4.770   5.574   8.382 -0.3641 -0.3159 -0.6096
  531MOL0     C71617   4.831   5.435   8.397 -0.3815  0.3383  0.3230
  531MOL0     H71618   5.219   5.793   8.461 -1.4638 -1.1758 -4.1901
  531MOL0     H71619   5.455   5.774   8.566 -0.8973  0.1757  0.4845
  531MOL0     H71620   5.720   5.637   8.536 -1.7906  2.7145  0.8239
  531MOL0     H71621   5.620   5.698   8.666 -0.0567  0.8649 -1.2503
  531MOL0     H71622   5.844   5.492   8.702  0.8174 -0.1760  1.4824
  531MOL0     H71623   5.729   5.543   8.828 -1.0498  2.4525  1.0069
  531MOL0     H71624   5.935   5.650   8.853  0.6110 -1.9241 -0.7202
  531MOL0     H71625   5.791   5.756   8.840 -1.6371 -2.4237  1.1251
  531MOL0     H71626   5.996   5.705   8.624  1.6696  0.3973  2.0808
  531MOL0     H71627   5.850   5.799   8.589  0.4111  1.2305 -0.7563
  531MOL0     H71628   5.890   5.956   8.730 -0.9149 -0.7604 -5.2731
  531MOL0     H71629   6.042   5.897   8.801 -1.6043  0.0169  0.3472
  531MOL0     H71630   6.150   5.933   8.565 -0.2772  2.0684 -3.5497
  531MOL0     H71631   5.988   5.979   8.510 -0.4374 -4.1855 -0.9645
  531MOL0     H71632   6.001   6.179   8.618 -1.1330 -2.8189  2.1547
  531MOL0     H71633   6.157   6.174   8.537 -0.5192  1.0598 -0.5809
  531MOL0     H71634   6.169   6.262   8.777  1.4422  0.6655  0.2944
  531MOL0     H71635   6.118   6.099   8.827 -2.3379 -0.8949 -3.8467
  531MOL0     H71636   6.390   6.277   8.635 -0.4224 -2.0446 -1.4952
  531MOL0     H71637   6.720   6.084   8.731  2.2756  1.3867  0.8569
  531MOL0     H71638   6.668   6.225   8.622 -0.7730  0.3853  0.2311
  531MOL0     H71639   6.817   6.313   8.768 -1.0059  0.5875 -1.7126
  531MOL0     H71640   6.665   6.358   8.848  1.9544  1.8756  0.9705
  531MOL0     H71641   6.714   6.177   9.017  1.8082 -2.0341  1.4278
  531MOL0     H71642   6.839   6.301   8.999 -0.3531 -1.2747  1.8994
  531MOL0     H71643   6.839   6.016   8.903  1.5465 -0.0625 -2.3256
  531MOL0     H71644   6.936   6.088   9.038 -1.0177 -1.3961  1.7150
  531MOL0     H71645   7.164   6.241   8.697 -1.9790 -0.8663 -0.8971
  531MOL0     H71646   7.378   6.122   8.623  1.6623 -1.9051 -0.3622
  531MOL0     H71647   7.762   5.884   8.937  1.7715  1.0195  0.1306
  531MOL0     H71648   7.953   5.758   8.935 -1.3010  1.8308  0.1531
  531MOL0     H71649   8.142   5.648   8.880 -0.8810  0.7544 -3.2923
  531MOL0     H71650   8.068   5.499   8.972  0.3291  0.4346 -0.6476
  531MOL0     H71651   8.195   5.349   8.827  0.4360  0.1130  0.7716
  531MOL0     H71652   8.269   5.489   8.738  2.7189 -1.0260  0.1815
  531MOL0     H71653   8.398   5.535   8.935  2.7363 -1.1621  0.9332
  531MOL0     H71654   8.318   5.425   9.034  3.1866 -1.2338  0.6929
  531MOL0     H71655   8.487   5.323   8.795  0.7299  0.2309 -0.0221
  531MOL0     H71656   8.384   5.236   8.917  0.1790  0.5931 -0.9448
  531MOL0     H71657   8.515   5.374   9.085  1.6904  1.0756  1.4296
  531MOL0     H71658   8.618   5.428   8.950  2.3824 -2.0390 -2.0637
  531MOL0     H71659   8.592   5.125   9.000 -1.5852  0.6317 -0.5383
  531MOL0     H71660   8.686   5.195   8.882 -0.3577 -0.6939  0.7763
  531MOL0     H71661   8.828   5.317   9.038 -3.5455  1.9245 -1.4210
  531MOL0     H71662   8.833   5.138   9.031  0.4418  0.9793 -2.2091
  531MOL0     H71663   8.695   5.294   9.253 -0.7494 -1.4510  1.5114
  531MOL0     H71664   8.678   5.131   9.224 -2.2382  1.4503 -0.4625
  531MOL0     H71665   7.780   5.439   8.702 -3.9139 -0.6067 -0.3266
  531MOL0     H71666   7.551   5.553   8.756 -1.0234 -0.1444  2.4561
  531MOL0     H71667   7.259   5.782   8.860 -1.3587 -0.0750 -1.4133
  531MOL0     H71668   7.068   5.889   8.912 -0.8999 -0.2815 -0.5725
  531MOL0     H71669   5.431   5.353   8.480 -0.8436 -0.0034  2.1671
  531MOL0     H71670   5.190   5.388   8.396 -1.2889  2.5931 -1.7208
  531MOL0     H71671   4.810   5.903   8.418  0.3469 -0.1246 -0.3379
  531MOL0     H71672   4.600   5.920   8.368 -0.6352 -0.2575  0.9540
  531MOL0     H71673   4.417   5.867   8.200  0.7068  1.7206  0.6490
  531MOL0     H71674   4.383   5.880   8.372  1.0830 -1.7265  0.7738
  531MOL0     H71675   4.211   5.699   8.197 -1.8472 -3.0958  2.9878
  531MOL0     H71676   4.185   5.871   8.209  0.0978  0.1142  1.1598
  531MOL0     H71677   4.102   5.652   8.376  2.2328 -0.9108 -0.7044
  531MOL0     H71678   4.043   5.819   8.388  0.9883  0.6532  1.3537
  531MOL0     H71679   4.291   5.700   8.529  1.0082  0.0583  0.3432
  531MOL0     H71680   4.224   5.864   8.534  0.9760 -1.3971 -2.1500
  531MOL0     H71681   3.959   5.609   8.755  0.6433  0.1783  0.2467
  531MOL0     H71682   4.600   5.493   8.289 -0.1998  1.6303 -1.9593
  531MOL0     H71683   4.897   5.430   8.484 -1.2393 -0.7563  0.9451
  531MOL0     H71684   4.754   5.357   8.404  2.0594 -2.1741  1.0654
  531MOL0     H71685   4.896   5.426   8.309  0.9492  2.4334  1.0281
  532MOL0     O71686   6.935   0.694   4.458 -0.2183 -0.2168  1.0117
  532MOL0     C71687   6.834   0.743   4.410 -0.0541 -0.3624  0.1785
  532MOL0     O71688   6.818   0.784   4.276 -0.0962 -0.3282  0.1670
  532MOL0     C71689   6.924   0.750   4.188  0.2347 -0.0210  0.4340
  532MOL0     C71690   7.050   0.801   4.207 -0.3299  0.7612  0.1206
  532MOL0     C71691   7.159   0.759   4.123  0.4926  0.4263 -0.8023
  532MOL0     C71692   7.133   0.666   4.020  0.4439 -0.1616 -0.2954
  532MOL0     O71693   7.233   0.619   3.945 -0.0808  0.4983 -0.3465
  532MOL0     C71694   7.311   0.522   4.015 -0.4342  0.0978 -0.0523
  532MOL0     C71695   7.408   0.449   3.914  0.6007 -0.1194  0.2823
  532MOL0     C71696   7.483   0.337   3.979  0.5996 -0.2293 -0.2674
  532MOL0     C71697   7.615   0.320   3.893  1.1331  0.1377  0.2196
  532MOL0     C71698   7.723   0.412   3.955 -0.1075  0.2349 -0.1805
  532MOL0     C71699   7.843   0.425   3.872 -0.7367 -0.8138  0.4340
  532MOL0     C71700   7.958   0.474   3.964  0.2704  0.1322 -0.4893
  532MOL0     C71701   7.936   0.604   4.040  0.3836  0.0680  0.7924
  532MOL0     N71702   8.053   0.634   4.123  0.1891 -0.1501 -0.4492
  532MOL0     C71703   8.174   0.687   4.091 -0.1292 -1.2444  0.3652
  532MOL0     C71704   8.247   0.702   4.202  0.5982 -0.2215 -0.5747
  532MOL0     C71705   8.378   0.781   4.234  0.6693  0.6254  0.7613
  532MOL0     C71706   8.481   0.708   4.309 -0.4068  0.1674  0.3001
  532MOL0     C71707   8.541   0.580   4.234 -0.3356 -0.4729 -0.2445
  532MOL0     C71708   8.688   0.609   4.212 -0.5775  0.5257  0.3779
  532MOL0     O71709   8.725   0.740   4.168  0.1356 -0.0229 -0.1786
  532MOL0     C71710   8.853   0.795   4.186 -0.6076  0.4571  0.0269
  532MOL0     C71711   8.931   0.776   4.305  0.9949  0.1358 -0.7239
  532MOL0     C71712   9.059   0.844   4.308  0.1381  0.4518  0.9955
  532MOL0     C71713   9.114   0.918   4.204 -0.5453  0.6577  0.8911
  532MOL0     C71714   9.250   0.981   4.211 -0.2838 -1.3016  0.5440
  532MOL0     O71715   9.325   0.953   4.316 -0.2581  1.1133 -0.2527
  532MOL0     C71716   9.458   1.000   4.303 -0.9398 -0.3713  0.4434
  532MOL0     C71717   9.495   1.119   4.364  0.1664  0.9804  0.7755
  532MOL0     C71718   9.622   1.168   4.353 -0.5555 -0.1865 -0.4324
  532MOL0     C71719   9.713   1.093   4.285 -0.4538 -1.8894 -0.2581
  532MOL0     O71720   9.831   1.156   4.252  0.6220 -0.2423  0.3221
  532MOL0     C71721   9.944   1.089   4.320 -0.3965 -0.1468  0.2610
  532MOL0     C71722   9.990   1.181   4.427  1.0459 -0.6950 -0.5417
  532MOL0     C71723  10.098   1.122   4.514 -0.4607 -0.2066  0.7224
  532MOL0     C71724  10.181   1.231   4.582  0.4024  0.9029 -0.6782
  532MOL0     C71725  10.311   1.169   4.646  0.4066 -0.4532  0.2812
  532MOL0     C71726  10.400   1.281   4.690  0.5123  0.1801 -0.4162
  532MOL0     C71727  10.507   1.239   4.795 -0.8010 -0.3368 -0.0079
  532MOL0     C71728  10.583   1.106   4.770  0.6808 -0.0156  0.3710
  532MOL0    Cl71729  10.648   1.111   4.603  0.0583 -0.2469  0.2660
  532MOL0     C71730   9.687   0.976   4.223 -0.9562 -0.1117 -0.5069
  532MOL0     C71731   9.559   0.930   4.228  1.0519 -1.6870 -0.7590
  532MOL0     O71732   9.287   1.044   4.110  0.1452 -0.2274  0.4429
  532MOL0     C71733   9.040   0.920   4.086  0.6994 -0.0179 -0.2257
  532MOL0     C71734   8.911   0.864   4.083  0.3764  0.2376  0.5114
  532MOL0     N71735   8.173   0.644   4.308  0.9089 -0.5724 -0.3341
  532MOL0     N71736   8.060   0.612   4.259  0.7409  0.0562  0.3517
  532MOL0     C71737   7.005   0.610   4.004 -0.3939 -0.2494  0.2647
  532MOL0     C71738   6.902   0.661   4.084 -0.1470  0.2456  0.5006
  532MOL0     C71739   6.714   0.762   4.489 -0.8509  0.4294  0.9135
  532MOL0     C71740   6.613   0.667   4.465 -0.5011 -0.5594  0.4080
  532MOL0     C71741   6.501   0.678   4.534 -0.3732  0.3326  0.0215
  532MOL0     C71742   6.489   0.775   4.635 -0.6895  0.8366  0.1392
  532MOL0     O71743   6.378   0.769   4.711  0.5798 -0.8643  0.6141
  532MOL0     C71744   6.355   0.869   4.807  0.3053 -0.0401 -0.3707
  532MOL0     C71745   6.207   0.829   4.842  0.3725  0.0751 -1.0705
  532MOL0     C71746   6.191   0.719   4.956  0.1949  0.0926  0.4462
  532MOL0     C71747   6.094   0.762   5.065  0.2124 -0.5961  0.0901
  532MOL0     C71748   6.133   0.884   5.138  0.5131 -0.8593 -0.3681
  532MOL0     C71749   6.152   0.988   5.203  0.1766  1.3016  0.3859
  532MOL0     C71750   6.586   0.877   4.653  0.1402  0.4005  0.2712
  532MOL0     C71751   6.698   0.868   4.577 -0.2305 -0.6133 -0.3527
  532MOL0     C71752   6.803   0.975   4.598  0.1186  0.8022  0.2898
  532MOL0     H71753   7.076   0.857   4.296 -0.8735 -2.6168  2.6451
  532MOL0     H71754   7.255   0.802   4.148  0.0496  0.2052  1.4341
  532MOL0     H71755   7.366   0.573   4.094  0.7243 -1.3094  0.0980
  532MOL0     H71756   7.244   0.455   4.069  1.2601  0.9529  3.3428
  532MOL0     H71757   7.482   0.526   3.886 -0.2811  1.2048  1.4484
  532MOL0     H71758   7.362   0.413   3.821  0.4638  3.3628 -1.1804
  532MOL0     H71759   7.432   0.241   3.995  3.5244 -1.4625  2.8077
  532MOL0     H71760   7.507   0.371   4.080  2.5856  2.0663 -1.4162
  532MOL0     H71761   7.637   0.212   3.888 -1.1250 -0.4198  1.3093
  532MOL0     H71762   7.599   0.342   3.787 -1.6786 -2.2541  0.0257
  532MOL0     H71763   7.679   0.510   3.974 -0.8926 -0.1851  0.2298
  532MOL0     H71764   7.755   0.368   4.050  1.8465  1.1080 -0.3921
  532MOL0     H71765   7.867   0.330   3.825 -3.4884 -0.8227 -1.1035
  532MOL0     H71766   7.833   0.503   3.796 -0.7648 -1.0440  0.2025
  532MOL0     H71767   8.054   0.481   3.911  0.5746  0.1555  0.0555
  532MOL0     H71768   7.976   0.394   4.037  1.7453 -1.2560 -2.2641
  532MOL0     H71769   7.915   0.683   3.967  1.6028 -0.8312 -0.5966
  532MOL0     H71770   7.849   0.591   4.104  1.1957  0.4424  2.0249
  532MOL0     H71771   8.194   0.729   3.993 -2.6043  2.4126  1.2145
  532MOL0     H71772   8.423   0.819   4.141 -2.5237  0.2894 -1.0724
  532MOL0     H71773   8.349   0.869   4.292 -3.7011  0.8869 -1.3945
  532MOL0     H71774   8.564   0.775   4.332 -0.1620 -0.0695  0.0964
  532MOL0     H71775   8.433   0.680   4.404  0.1483  2.5287  1.3780
  532MOL0     H71776   8.499   0.571   4.133 -0.6947 -2.7974  0.0643
  532MOL0     H71777   8.519   0.485   4.283 -1.4485 -0.3740 -0.5230
  532MOL0     H71778   8.733   0.537   4.142 -0.0441  2.4605 -1.3688
  532MOL0     H71779   8.734   0.592   4.309 -0.2049  1.6559  0.4096
  532MOL0     H71780   8.895   0.719   4.390  1.3745  1.7764  0.5954
  532MOL0     H71781   9.124   0.834   4.395 -0.3714  0.4315  1.3768
  532MOL0     H71782   9.421   1.167   4.428 -0.0248 -0.9376  2.0783
  532MOL0     H71783   9.642   1.262   4.404  0.2430 -0.6069  0.0628
  532MOL0     H71784   9.926   0.991   4.366 -2.9047  0.7331  1.2854
  532MOL0     H71785  10.018   1.087   4.239 -2.4845 -0.9154 -1.7115
  532MOL0     H71786  10.035   1.271   4.384  0.8313  1.5104  3.3923
  532MOL0     H71787   9.910   1.216   4.492  0.9821 -0.1488 -0.9100
  532MOL0     H71788  10.048   1.047   4.576 -0.1852 -3.2779 -2.5034
  532MOL0     H71789  10.166   1.063   4.452 -3.0419 -1.9215 -0.6488
  532MOL0     H71790  10.108   1.277   4.650 -0.2378  0.2424 -0.9101
  532MOL0     H71791  10.218   1.303   4.509  1.0168  2.7237  1.3050
  532MOL0     H71792  10.357   1.099   4.576 -0.7873  0.5485 -1.5593
  532MOL0     H71793  10.289   1.112   4.737 -2.2400 -1.7613 -1.0920
  532MOL0     H71794  10.454   1.318   4.602  0.6012 -1.6954 -1.1824
  532MOL0     H71795  10.332   1.357   4.732 -0.0827 -1.1520  1.1627
  532MOL0     H71796  10.454   1.237   4.891  0.3408  1.2042  0.6999
  532MOL0     H71797  10.581   1.319   4.805 -1.8119  0.5437  0.9017
  532MOL0     H71798  10.669   1.106   4.837  0.7106  5.2159  0.7838
  532MOL0     H71799  10.525   1.015   4.786 -0.4996  0.6493 -0.0023
  532MOL0     H71800   9.768   0.924   4.173 -0.2246 -0.5882  1.0966
  532MOL0     H71801   9.521   0.845   4.173 -0.4650 -1.3702 -0.2589
  532MOL0     H71802   9.088   0.961   3.998 -1.3503 -2.3121 -2.6088
  532MOL0     H71803   8.851   0.864   3.993  2.9299  1.6156 -1.3218
  532MOL0     H71804   6.974   0.544   3.923  1.3781  1.5856 -2.0506
  532MOL0     H71805   6.798   0.638   4.065 -0.3580  1.7400 -0.2987
  532MOL0     H71806   6.611   0.590   4.389 -1.4464  1.2841 -1.5587
  532MOL0     H71807   6.425   0.601   4.542 -1.8310  1.9295  3.6570
  532MOL0     H71808   6.360   0.971   4.770  0.9284  0.9660  2.2807
  532MOL0     H71809   6.427   0.862   4.889 -0.2280 -2.2097 -0.0063
  532MOL0     H71810   6.144   0.803   4.757 -2.6721 -2.0677  1.6123
  532MOL0     H71811   6.163   0.920   4.885 -0.6711 -0.8214 -0.1554
  532MOL0     H71812   6.289   0.700   5.001  1.3631  2.2047 -1.0175
  532MOL0     H71813   6.160   0.628   4.905  0.4354  0.6173 -0.6633
  532MOL0     H71814   5.992   0.777   5.027 -0.1208 -1.2062  0.7171
  532MOL0     H71815   6.078   0.691   5.147  0.4258  2.4426  2.9388
  532MOL0     H71816   6.178   1.067   5.271 -1.7559  0.8875  1.6649
  532MOL0     H71817   6.590   0.954   4.729  0.8998 -1.7599  2.5605
  532MOL0     H71818   6.883   0.943   4.667  0.0421  1.3259  0.6292
  532MOL0     H71819   6.852   0.996   4.503  2.2819 -0.9826  0.9054
  532MOL0     H71820   6.775   1.068   4.648 -1.7335  0.6789 -0.4727
  533MOL0     O71821   6.024   9.809   7.465 -0.4038  0.5954  0.6770
  533MOL0     C71822   6.124   9.825   7.396 -0.7238  0.7463 -0.6830
  533MOL0     O71823   6.153   9.944   7.325  1.0091 -0.2136 -0.0288
  533MOL0     C71824   6.045  10.025   7.306  0.2204 -0.8021 -1.4843
  533MOL0     C71825   6.063  10.161   7.353 -0.0353  0.7437 -0.3181
  533MOL0     C71826   5.959  10.253   7.331  0.5616 -0.5802  0.3600
  533MOL0     C71827   5.840  10.217   7.268 -0.2194 -0.1576 -0.6129
  533MOL0     O71828   5.736  10.303   7.254 -0.1883 -0.2526 -0.2671
  533MOL0     C71829   5.756  10.439   7.214 -0.0994 -0.3751 -0.3530
  533MOL0     C71830   5.843  10.456   7.083  0.4545 -0.6112 -0.0765
  533MOL0     C71831   5.791  10.553   6.972 -0.2503  0.5254 -1.1367
  533MOL0     C71832   5.780  10.698   7.013 -0.2927 -0.7093  0.9382
  533MOL0     C71833   5.677  10.783   6.938 -0.6696 -0.8243 -0.0580
  533MOL0     C71834   5.535  10.724   6.966 -0.1181  1.0272 -0.2644
  533MOL0     C71835   5.412  10.817   6.961  0.2848  0.5092  0.4467
  533MOL0     C71836   5.408  10.901   6.836  0.5628 -0.0172 -0.1280
  533MOL0     N71837   5.337  10.837   6.727  0.5648 -0.1551  0.3393
  533MOL0     C71838   5.201  10.833   6.713  0.0479  1.0019 -0.0267
  533MOL0     C71839   5.187  10.754   6.591 -0.1739 -0.1040  0.5968
  533MOL0     C71840   5.053  10.716   6.533 -0.2007 -0.3696 -0.0243
  533MOL0     C71841   5.040  10.769   6.395 -0.6776  1.0927  0.6071
  533MOL0     C71842   5.076  10.660   6.298 -0.2352  0.1621  0.4303
  533MOL0     C71843   5.079  10.716   6.157 -0.3947  0.1313 -0.4954
  533MOL0     O71844   5.086  10.613   6.053 -0.0800  0.5431 -0.0717
  533MOL0     C71845   5.200  10.541   6.036  0.3217 -0.3384  0.0766
  533MOL0     C71846   5.205  10.458   5.933  0.8819 -0.8668  0.3157
  533MOL0     C71847   5.319  10.384   5.897 -0.7852  0.0962 -0.2991
  533MOL0     C71848   5.438  10.405   5.967  0.9106 -0.5232 -0.0309
  533MOL0     C71849   5.580  10.352   5.921  1.1077 -0.2851  0.6616
  533MOL0     O71850   5.572  10.240   5.846 -0.7785  0.1853 -0.9001
  533MOL0     C71851   5.685  10.170   5.801 -0.3180  0.1478  0.7124
  533MOL0     C71852   5.807  10.168   5.853  0.2274 -0.1436  0.3075
  533MOL0     C71853   5.902  10.078   5.797 -0.4745 -0.6033 -0.9038
  533MOL0     C71854   5.886  10.002   5.676 -0.4883 -0.9503  0.7628
  533MOL0     O71855   5.994   9.928   5.635 -0.3644 -0.0244  0.7512
  533MOL0     C71856   6.028   9.919   5.491 -0.6285 -0.7400 -0.2985
  533MOL0     C71857   6.105   9.779   5.458  0.5754  0.3237  0.0628
  533MOL0     C71858   6.142   9.780   5.306  0.0736  0.1504  0.4204
  533MOL0     C71859   6.173   9.639   5.251  0.1915  0.5656 -0.2451
  533MOL0     C71860   6.279   9.633   5.139  1.1084  1.1125 -0.9174
  533MOL0     C71861   6.425   9.671   5.181 -0.4251 -0.4708  0.0032
  533MOL0     C71862   6.524   9.672   5.065 -0.3948 -0.3062  0.2001
  533MOL0     C71863   6.548   9.538   4.998 -0.1718  0.8094  0.0785
  533MOL0    Cl71864   6.611   9.402   5.106 -0.3042 -0.0162  0.6017
  533MOL0     C71865   5.759  10.019   5.620 -0.6614 -0.7550  0.2613
  533MOL0     C71866   5.662  10.093   5.687 -0.5083  0.3110  0.1934
  533MOL0     O71867   5.684  10.410   5.943  0.3487  0.1374 -0.6488
  533MOL0     C71868   5.435  10.501   6.068 -0.4387  0.2843  0.6934
  533MOL0     C71869   5.318  10.562   6.108 -0.6246  0.1721 -0.1729
  533MOL0     N71870   5.314  10.734   6.546 -0.4028 -0.0910 -0.8561
  533MOL0     N71871   5.401  10.761   6.642 -0.0438 -0.3436  0.5856
  533MOL0     C71872   5.819  10.080   7.242  0.0553 -0.1676  1.2884
  533MOL0     C71873   5.925   9.988   7.249  0.1642 -0.7058 -1.1895
  533MOL0     C71874   6.226   9.709   7.405  0.5513  0.3358  0.5767
  533MOL0     C71875   6.323   9.703   7.304  0.0966 -0.4292  0.9219
  533MOL0     C71876   6.414   9.597   7.289  0.1398  1.1531 -0.9922
  533MOL0     C71877   6.425   9.495   7.387  0.0310  0.0497  0.4358
  533MOL0     O71878   6.512   9.391   7.367 -0.3927 -0.0454  0.1946
  533MOL0     C71879   6.591   9.383   7.248 -0.0329  0.2228 -0.7673
  533MOL0     C71880   6.710   9.477   7.242  0.0276 -1.1764 -0.8493
  533MOL0     C71881   6.803   9.471   7.369 -0.4495  0.0271  0.3822
  533MOL0     C71882   6.930   9.554   7.329  0.5032  0.1657  0.2405
  533MOL0     C71883   7.007   9.483   7.220 -0.2371 -0.3487 -0.7111
  533MOL0     C71884   7.072   9.434   7.132 -0.8860 -0.1852  0.0329
  533MOL0     C71885   6.340   9.506   7.494  0.3497  0.4228  0.9031
  533MOL0     C71886   6.237   9.606   7.507 -0.4115  0.2844 -0.1203
  533MOL0     C71887   6.157   9.605   7.634 -0.1543 -0.1766  0.1087
  533MOL0     H71888   6.155  10.197   7.397 -0.3749 -0.2326  1.2564
  533MOL0     H71889   5.970  10.359   7.354  0.1547 -0.2300 -0.9790
  533MOL0     H71890   5.661  10.489   7.195  0.2727 -0.3043 -2.1840
  533MOL0     H71891   5.803  10.482   7.303 -0.3072 -0.4678 -0.1980
  533MOL0     H71892   5.847  10.351   7.052 -0.6049 -0.8914  0.6564
  533MOL0     H71893   5.947  10.477   7.110  1.1704 -2.4247 -1.2398
  533MOL0     H71894   5.686  10.522   6.964 -0.7402  0.9190  2.4267
  533MOL0     H71895   5.844  10.528   6.880 -1.1456 -0.8176 -1.3209
  533MOL0     H71896   5.772  10.716   7.120 -1.4569  3.5532  0.2994
  533MOL0     H71897   5.878  10.742   6.993 -0.8075  1.0588  2.1340
  533MOL0     H71898   5.677  10.885   6.977 -0.0345 -1.2420  1.0634
  533MOL0     H71899   5.705  10.788   6.833 -0.7846 -0.1815 -0.0659
  533MOL0     H71900   5.524  10.636   6.900  2.8799  1.7397 -1.9044
  533MOL0     H71901   5.537  10.683   7.067  0.1528 -0.0592 -0.6872
  533MOL0     H71902   5.427  10.887   7.044 -0.8259  0.1882  0.9390
  533MOL0     H71903   5.321  10.764   6.990 -0.1366  2.0581  2.1383
  533MOL0     H71904   5.345  10.986   6.864 -0.4194 -1.4315  2.2461
  533MOL0     H71905   5.510  10.934   6.813  0.4959 -0.8722 -1.7822
  533MOL0     H71906   5.120  10.876   6.771  0.1680  3.6306 -1.6598
  533MOL0     H71907   5.023  10.611   6.537  1.8027 -1.0596 -1.2016
  533MOL0     H71908   4.982  10.767   6.599 -0.7862 -0.8761 -0.2558
  533MOL0     H71909   4.936  10.796   6.372  0.0141  1.5251 -2.3507
  533MOL0     H71910   5.105  10.854   6.372  0.9296 -0.6866 -2.0275
  533MOL0     H71911   5.003  10.578   6.300 -0.2424  0.0949 -1.3253
  533MOL0     H71912   5.174  10.627   6.333 -0.9273 -2.3784  0.1184
  533MOL0     H71913   5.167  10.778   6.136 -0.7723  0.6618 -0.5500
  533MOL0     H71914   4.992  10.778   6.131 -0.9573 -1.1315 -1.7880
  533MOL0     H71915   5.114  10.447   5.875  0.7010  1.5936  0.0360
  533MOL0     H71916   5.324  10.311   5.817 -0.2644  0.5320 -0.6663
  533MOL0     H71917   5.830  10.227   5.941  1.0566 -2.3487  1.6558
  533MOL0     H71918   6.000  10.064   5.843 -0.7523  1.3326  0.3816
  533MOL0     H71919   5.936   9.920   5.431 -1.5594  0.4747  1.0604
  533MOL0     H71920   6.095  10.003   5.471 -0.0910 -1.0244  0.2623
  533MOL0     H71921   6.193   9.780   5.522  1.7732  0.4941 -1.5096
  533MOL0     H71922   6.041   9.693   5.478  0.4412  0.6847  1.2349
  533MOL0     H71923   6.062   9.829   5.250 -1.7757  1.5822  3.9404
  533MOL0     H71924   6.235   9.838   5.300  1.8799 -2.4546  1.3393
  533MOL0     H71925   6.081   9.593   5.215 -0.7973  2.7248 -0.6572
  533MOL0     H71926   6.209   9.577   5.333 -0.0435 -0.2951 -0.7851
  533MOL0     H71927   6.237   9.702   5.066 -1.0108 -1.6698 -2.4965
  533MOL0     H71928   6.279   9.535   5.092  0.5826  0.5823  0.1483
  533MOL0     H71929   6.425   9.774   5.218 -0.7727 -0.5134  0.1306
  533MOL0     H71930   6.454   9.604   5.262  1.4552 -0.3178 -0.4924
  533MOL0     H71931   6.619   9.718   5.094  0.6871 -0.8232 -2.2986
  533MOL0     H71932   6.481   9.742   4.993  2.1137 -0.2419 -1.3449
  533MOL0     H71933   6.453   9.508   4.952  0.3622  1.2808 -1.3752
  533MOL0     H71934   6.608   9.549   4.906 -0.6199  4.2160  0.0819
  533MOL0     H71935   5.752   9.952   5.535  2.0364 -0.0715 -0.5967
  533MOL0     H71936   5.562  10.077   5.647 -0.7309  0.3046  0.7426
  533MOL0     H71937   5.524  10.523   6.126  2.5511 -0.0955 -3.3156
  533MOL0     H71938   5.334  10.641   6.181  1.5522  2.5709 -3.0002
  533MOL0     H71939   5.728  10.049   7.192  2.0026  1.2248 -3.8101
  533MOL0     H71940   5.909   9.882   7.228  2.4027 -1.7080  1.5486
  533MOL0     H71941   6.311   9.787   7.235  0.4058  0.7500  2.2532
  533MOL0     H71942   6.463   9.594   7.192  1.8119  1.0313 -0.1766
  533MOL0     H71943   6.531   9.380   7.157 -1.4864 -3.3660  0.1623
  533MOL0     H71944   6.624   9.279   7.253 -3.3285 -0.8937  0.4332
  533MOL0     H71945   6.678   9.581   7.241 -0.4839 -1.3290 -0.7516
  533MOL0     H71946   6.763   9.474   7.147 -0.5966  0.8243 -1.3126
  533MOL0     H71947   6.829   9.367   7.390 -1.9314 -1.4620 -3.9871
  533MOL0     H71948   6.738   9.519   7.442 -1.8556  0.9272 -1.3807
  533MOL0     H71949   6.895   9.655   7.308 -1.8377 -0.7277 -0.5374
  533MOL0     H71950   7.000   9.566   7.412  0.5337  1.6230  0.0318
  533MOL0     H71951   7.132   9.419   7.044  0.7140  1.7709  0.7226
  533MOL0     H71952   6.355   9.431   7.571 -1.8861 -1.4179 -0.3666
  533MOL0     H71953   6.203   9.676   7.704 -0.0836  0.1880 -0.3015
  533MOL0     H71954   6.051   9.628   7.619  0.0408  0.4194 -0.3838
  533MOL0     H71955   6.169   9.506   7.680  0.4835 -0.2314 -0.1708
  534MOL0     O71956   7.791   3.645  10.725 -0.0623  0.1608 -0.2608
  534MOL0     C71957   7.845   3.754  10.738 -0.5506  0.2731 -0.1182
  534MOL0     O71958   7.795   3.872  10.693 -0.5681 -0.3000 -0.3239
  534MOL0     C71959   7.664   3.899  10.678  0.4108  0.6000 -0.0531
  534MOL0     C71960   7.563   3.800  10.675 -1.2770 -0.5014 -0.3927
  534MOL0     C71961   7.432   3.836  10.668 -0.4880  0.5578 -0.1122
  534MOL0     C71962   7.394   3.973  10.662  0.4847 -0.0723  0.4794
  534MOL0     O71963   7.265   4.011  10.677  0.5638 -0.4695  0.3129
  534MOL0     C71964   7.195   4.034  10.557 -0.2916 -1.4439 -0.6421
  534MOL0     C71965   7.115   3.911  10.517  0.3002 -0.1871  0.2394
  534MOL0     C71966   7.027   3.862  10.624  0.4066  0.2640  0.3995
  534MOL0     C71967   6.921   3.768  10.560  0.3601 -0.9502 -0.6199
  534MOL0     C71968   6.823   3.720  10.671 -0.4369  0.8261  0.5583
  534MOL0     C71969   6.710   3.619  10.624  0.8302 -0.8448 -0.4490
  534MOL0     C71970   6.598   3.577  10.736 -0.4791 -0.2706 -0.2056
  534MOL0     C71971   6.493   3.487  10.674  0.4425 -0.1291 -0.1274
  534MOL0     N71972   6.417   3.553  10.571 -0.2765 -0.6230 -0.2697
  534MOL0     C71973   6.313   3.643  10.603  0.9802  0.6216  0.3688
  534MOL0     C71974   6.281   3.707  10.482 -0.1467  0.1439 -0.6059
  534MOL0     C71975   6.180   3.826  10.463 -0.4713  0.6346 -0.4404
  534MOL0     C71976   6.218   3.962  10.516  0.3595 -0.3214  0.1059
  534MOL0     C71977   6.327   4.037  10.441  0.2594  0.1589 -0.1956
  534MOL0     C71978   6.468   3.961  10.447 -0.4927  0.1375 -0.9185
  534MOL0     O71979   6.569   4.034  10.377  0.1313 -0.6202  0.3319
  534MOL0     C71980   6.664   4.115  10.449  0.3494  0.8108  0.6498
  534MOL0     C71981   6.645   4.151  10.579 -0.8103 -0.7288 -0.0605
  534MOL0     C71982   6.747   4.227  10.639  1.1216 -0.4226 -0.1244
  534MOL0     C71983   6.863   4.261  10.571 -0.4126 -0.3787  0.6179
  534MOL0     C71984   6.979   4.332  10.638 -0.0046  0.5380 -0.9332
  534MOL0     O71985   7.081   4.377  10.560  0.7977 -0.0413  0.0591
  534MOL0     C71986   7.173   4.459  10.623  0.8421  0.7381  0.4301
  534MOL0     C71987   7.198   4.582  10.559 -0.6805  0.4646 -0.0001
  534MOL0     C71988   7.297   4.658  10.615  0.3848 -0.6317  0.1089
  534MOL0     C71989   7.381   4.625  10.725 -0.3676 -0.1704 -0.3441
  534MOL0     O71990   7.465   4.708  10.782  0.9957 -0.0617  0.5665
  534MOL0     C71991   7.411   4.829  10.826  0.1190 -0.4185  0.2601
  534MOL0     C71992   7.502   4.885  10.931  0.0699  0.3166  0.0335
  534MOL0     C71993   7.467   5.024  10.957  0.3326  0.7270 -0.2856
  534MOL0     C71994   7.492   5.085  11.092 -0.0507  0.2115 -0.1818
  534MOL0     C71995   7.470   5.243  11.083  0.4824  1.8503 -0.3414
  534MOL0     C71996   7.331   5.285  11.065 -0.8608  0.1070  0.1125
  534MOL0     C71997   7.299   5.440  11.054 -0.6402  0.4622 -0.5434
  534MOL0     C71998   7.179   5.467  10.967 -0.4739 -0.5549 -0.4942
  534MOL0    Cl71999   7.030   5.414  11.041  0.2365  0.0176  0.3981
  534MOL0     C72000   7.365   4.497  10.779  0.0341  0.6770 -0.0877
  534MOL0     C72001   7.258   4.412  10.730  0.6027  0.1518 -0.0535
  534MOL0     O72002   6.967   4.348  10.766 -0.0026  0.3810  0.5287
  534MOL0     C72003   6.878   4.232  10.428  0.2995 -0.3483 -0.4197
  534MOL0     C72004   6.769   4.174  10.372 -0.7340  0.1506 -0.1878
  534MOL0     N72005   6.369   3.650  10.386 -0.1356  0.4942 -0.7649
  534MOL0     N72006   6.444   3.552  10.439  0.6561  0.9011  0.5816
  534MOL0     C72007   7.492   4.072  10.667  0.6404 -0.7746 -0.1925
  534MOL0     C72008   7.624   4.030  10.664 -0.1228  0.9402 -0.4146
  534MOL0     C72009   7.978   3.747  10.809  0.0560 -0.4311  0.2202
  534MOL0     C72010   8.027   3.619  10.851  0.1840  0.6276  0.5235
  534MOL0     C72011   8.145   3.612  10.918 -0.7218 -0.2544 -0.0889
  534MOL0     C72012   8.214   3.727  10.959 -0.3644  0.7211  0.2010
  534MOL0     O72013   8.323   3.729  11.039  0.7098 -0.0378  0.8452
  534MOL0     C72014   8.393   3.606  11.059 -0.0413 -1.1623  0.6588
  534MOL0     C72015   8.507   3.639  11.161  0.3101 -0.0672  0.2011
  534MOL0     C72016   8.541   3.525  11.264  0.2817 -0.0505  0.0021
  534MOL0     C72017   8.605   3.407  11.194 -0.0143  0.1944 -0.3411
  534MOL0     C72018   8.524   3.329  11.098 -0.0585 -0.1951 -0.1600
  534MOL0     C72019   8.472   3.279  11.004  0.9395  0.0190 -0.3754
  534MOL0     C72020   8.165   3.850  10.913  0.0205  0.0614  0.8505
  534MOL0     C72021   8.049   3.865  10.844 -0.4714  0.4639 -0.0738
  534MOL0     C72022   8.011   4.008  10.815 -0.2505  0.0846 -0.0067
  534MOL0     H72023   7.585   3.694  10.680 -1.4440 -0.5579  4.8809
  534MOL0     H72024   7.351   3.763  10.660  1.2965 -1.2864 -2.5497
  534MOL0     H72025   7.132   4.123  10.562  3.5337  1.5481 -0.9285
  534MOL0     H72026   7.259   4.065  10.474 -0.1312  2.5794  0.7690
  534MOL0     H72027   7.172   3.825  10.477 -0.2735  0.3858 -1.9503
  534MOL0     H72028   7.052   3.928  10.430 -0.1213  1.9412  0.9236
  534MOL0     H72029   6.974   3.945  10.671  0.9443  0.6253  0.3767
  534MOL0     H72030   7.085   3.806  10.698  2.7943  1.8132 -0.2114
  534MOL0     H72031   6.870   3.826  10.482  0.3276  0.7020  0.5751
  534MOL0     H72032   6.964   3.680  10.512  0.1920 -0.8842 -0.8941
  534MOL0     H72033   6.882   3.692  10.759  0.5766  2.5560  0.4598
  534MOL0     H72034   6.770   3.805  10.714 -1.4763  0.4605  0.0350
  534MOL0     H72035   6.657   3.669  10.543 -3.8898 -2.2494  1.4381
  534MOL0     H72036   6.759   3.533  10.577 -0.6168 -0.7318 -2.2416
  534MOL0     H72037   6.553   3.666  10.781  2.0156  0.8801  0.1588
  534MOL0     H72038   6.649   3.530  10.820  2.1950  5.2886  1.7525
  534MOL0     H72039   6.531   3.397  10.625 -0.1755 -0.3832 -0.1426
  534MOL0     H72040   6.425   3.454  10.753 -1.6221  2.2782 -0.7661
  534MOL0     H72041   6.265   3.662  10.699  1.5591  2.1438  0.3892
  534MOL0     H72042   6.165   3.821  10.354 -1.9387 -2.1430 -0.2050
  534MOL0     H72043   6.092   3.799  10.521  0.5435  1.4695  1.5744
  534MOL0     H72044   6.128   4.024  10.525  0.4091 -0.1468 -0.5882
  534MOL0     H72045   6.242   3.947  10.622 -1.1847  3.4712  1.1719
  534MOL0     H72046   6.332   4.137  10.486  1.0060  0.7242 -1.4820
  534MOL0     H72047   6.290   4.051  10.339 -0.7017 -4.7016 -0.7580
  534MOL0     H72048   6.444   3.872  10.388 -0.1383  0.3400 -1.3695
  534MOL0     H72049   6.491   3.928  10.549 -2.2080 -1.6581 -1.0594
  534MOL0     H72050   6.565   4.120  10.645 -0.6277 -1.0024  0.0330
  534MOL0     H72051   6.737   4.233  10.747  2.4671 -1.5207  0.0868
  534MOL0     H72052   7.149   4.604  10.465 -0.5118  3.7623  0.5667
  534MOL0     H72053   7.302   4.757  10.572 -0.8993 -0.2314  0.8267
  534MOL0     H72054   7.398   4.905  10.749 -2.7876  1.2868  2.2133
  534MOL0     H72055   7.308   4.826  10.863 -0.1122  3.3703  0.3282
  534MOL0     H72056   7.486   4.818  11.017  0.5412 -2.8909 -2.2105
  534MOL0     H72057   7.605   4.875  10.895  0.3420 -2.5366  1.3445
  534MOL0     H72058   7.505   5.087  10.877  1.4773 -1.2345 -1.3562
  534MOL0     H72059   7.358   5.032  10.959  0.4493  2.6060  0.3421
  534MOL0     H72060   7.598   5.072  11.113 -0.6816 -1.6633  2.5183
  534MOL0     H72061   7.431   5.039  11.171 -0.0330  0.1095 -0.2282
  534MOL0     H72062   7.520   5.276  10.991  0.9576 -1.6824 -1.5060
  534MOL0     H72063   7.502   5.297  11.172 -1.9672  1.9487  0.5342
  534MOL0     H72064   7.283   5.233  10.981  0.2503 -0.9521  0.1072
  534MOL0     H72065   7.278   5.255  11.156  0.7057  0.7030  1.2680
  534MOL0     H72066   7.388   5.486  11.008 -0.9058 -1.7018 -3.4969
  534MOL0     H72067   7.278   5.474  11.156 -2.3585 -2.1572  0.0739
  534MOL0     H72068   7.165   5.575  10.963 -1.3736 -0.5908  0.8482
  534MOL0     H72069   7.184   5.436  10.862 -0.3171 -0.2108 -0.5909
  534MOL0     H72070   7.426   4.454  10.858  2.5535 -1.1603 -2.8213
  534MOL0     H72071   7.245   4.315  10.776  1.4342  0.9228  1.9564
  534MOL0     H72072   6.965   4.254  10.367  1.0253  1.7622  1.2796
  534MOL0     H72073   6.758   4.153  10.266 -0.2127 -0.5455 -0.1112
  534MOL0     H72074   7.476   4.179  10.676  2.4943 -0.4917  0.1599
  534MOL0     H72075   7.703   4.104  10.654 -0.0294  0.5359 -3.3220
  534MOL0     H72076   7.972   3.528  10.830 -1.7099  1.6190  0.9173
  534MOL0     H72077   8.190   3.515  10.940  0.1200 -0.2630 -1.7426
  534MOL0     H72078   8.428   3.584  10.958 -2.0430 -0.7963 -0.1525
  534MOL0     H72079   8.325   3.527  11.092  0.3419 -1.3564  0.9977
  534MOL0     H72080   8.479   3.725  11.224  1.9316  1.4387 -1.0209
  534MOL0     H72081   8.592   3.683  11.107  1.6741 -2.5697  0.1574
  534MOL0     H72082   8.443   3.502  11.309  0.2810  0.5273  0.3074
  534MOL0     H72083   8.605   3.569  11.341  0.1365 -2.2902  1.5081
  534MOL0     H72084   8.698   3.437  11.145  0.6731  2.0121  1.8787
  534MOL0     H72085   8.625   3.344  11.281 -0.9395  1.0151  0.4906
  534MOL0     H72086   8.425   3.246  10.913  1.1616 -0.4575 -0.3184
  534MOL0     H72087   8.224   3.935  10.945  2.1420 -0.4270 -1.4267
  534MOL0     H72088   8.068   4.080  10.875  2.8831 -0.8959 -1.5619
  534MOL0     H72089   8.032   4.033  10.710  0.7206  0.1194  0.1844
  534MOL0     H72090   7.907   4.038  10.827 -0.4282 -0.2536 -0.6445
  535MOL0     O72091  10.322   8.317   0.761 -0.4272 -0.2508 -0.3755
  535MOL0     C72092  10.251   8.412   0.794 -0.1188 -0.1203  0.9123
  535MOL0     O72093  10.299   8.541   0.801 -0.0264 -0.2029 -0.5878
  535MOL0     C72094  10.429   8.561   0.821  0.3879 -0.2862  0.4243
  535MOL0     C72095  10.517   8.590   0.715  0.0706 -0.8357  0.1264
  535MOL0     C72096  10.652   8.598   0.748  0.4715  1.0243  0.6818
  535MOL0     C72097  10.702   8.595   0.878  0.8411  1.1613 -0.3657
  535MOL0     O72098  10.833   8.636   0.890 -0.3512  0.7739 -0.3795
  535MOL0     C72099  10.868   8.693   1.020 -0.3491  0.3850  0.5736
  535MOL0     C72100  11.001   8.759   1.006 -0.3656 -0.2605  0.4139
  535MOL0     C72101  11.111   8.662   0.959  0.3948 -1.3317  0.2998
  535MOL0     C72102  11.247   8.723   0.967 -0.7358 -0.3661 -0.5421
  535MOL0     C72103  11.349   8.642   0.881  0.2863  0.0006  0.0418
  535MOL0     C72104  11.492   8.675   0.922  0.3047 -0.5534  0.3361
  535MOL0     C72105  11.600   8.653   0.817 -0.3494  0.0734 -0.3392
  535MOL0     C72106  11.630   8.503   0.792  0.3437 -0.6746  0.8087
  535MOL0     N72107  11.751   8.461   0.712 -0.0130 -0.7904  0.3502
  535MOL0     C72108  11.765   8.359   0.625  0.1391 -0.2417  0.3395
  535MOL0     C72109  11.886   8.383   0.570  0.5324  0.0532  0.4153
  535MOL0     C72110  11.961   8.300   0.462 -0.3354 -0.2118 -0.8775
  535MOL0     C72111  11.919   8.325   0.325 -0.1636  0.1409  0.0291
  535MOL0     C72112  11.954   8.202   0.237  0.7055  0.6936 -0.2116
  535MOL0     C72113  11.896   8.215   0.096  0.4683  0.0233 -0.5481
  535MOL0     O72114  11.778   8.132   0.095  0.5327 -0.5091  0.1592
  535MOL0     C72115  11.726   8.110  -0.028  0.4266  0.5227 -0.2996
  535MOL0     C72116  11.593   8.153  -0.053 -0.9956 -0.2724  0.3285
  535MOL0     C72117  11.521   8.118  -0.171 -0.4046  0.3787 -0.4534
  535MOL0     C72118  11.593   8.031  -0.262  0.4435 -0.4104 -0.8944
  535MOL0     C72119  11.518   7.993  -0.387 -0.0028 -0.2271  0.0494
  535MOL0     O72120  11.580   7.895  -0.460  0.0786  1.0588 -0.0777
  535MOL0     C72121  11.534   7.874  -0.589 -0.1548  0.8974 -0.5362
  535MOL0     C72122  11.563   7.970  -0.689  0.3569 -0.2728  0.6922
  535MOL0     C72123  11.518   7.958  -0.818  0.2945  0.3076 -0.1227
  535MOL0     C72124  11.445   7.847  -0.854 -0.5166  0.7608 -0.4378
  535MOL0     O72125  11.397   7.825  -0.981 -0.5378 -0.5490  0.0325
  535MOL0     C72126  11.395   7.935  -1.075  0.2808 -0.3669  0.0664
  535MOL0     C72127  11.488   7.918  -1.195 -0.3691  1.1505 -0.7289
  535MOL0     C72128  11.481   7.780  -1.258  0.4243  0.0870  0.1761
  535MOL0     C72129  11.593   7.760  -1.356  1.1132  0.3100 -1.0435
  535MOL0     C72130  11.578   7.631  -1.435  0.3065 -0.5624 -0.0631
  535MOL0     C72131  11.697   7.586  -1.521 -1.3417  0.5377  0.8210
  535MOL0     C72132  11.671   7.445  -1.579 -0.9901  0.4904 -0.5702
  535MOL0     C72133  11.552   7.413  -1.663 -0.4139 -0.6549 -0.0942
  535MOL0    Cl72134  11.566   7.242  -1.717  0.6939 -0.1716 -0.4395
  535MOL0     C72135  11.425   7.743  -0.765  0.8604  0.0029  0.1500
  535MOL0     C72136  11.477   7.752  -0.638 -0.2186  0.2415  0.5745
  535MOL0     O72137  11.403   8.036  -0.407  0.1667  0.1270 -0.2494
  535MOL0     C72138  11.718   7.975  -0.233  0.4502  0.3412 -0.1411
  535MOL0     C72139  11.787   8.012  -0.116  0.5047  0.1048  0.1670
  535MOL0     N72140  11.952   8.484   0.633  0.3935 -0.6339 -0.0631
  535MOL0     N72141  11.864   8.533   0.711 -0.3059 -0.3873 -0.7057
  535MOL0     C72142  10.614   8.579   0.987  0.4770  0.3338  0.4075
  535MOL0     C72143  10.476   8.555   0.957 -0.6392 -0.2102  0.1418
  535MOL0     C72144  10.108   8.393   0.843 -0.9084  0.6377 -0.1498
  535MOL0     C72145  10.063   8.506   0.917  0.0008  0.5156 -0.0552
  535MOL0     C72146   9.953   8.495   0.991  1.1291 -0.9814 -0.9993
  535MOL0     C72147   9.882   8.369   1.003 -0.6306  0.0518 -0.2040
  535MOL0     O72148   9.775   8.369   1.091 -0.0910  0.3356  0.1067
  535MOL0     C72149   9.668   8.272   1.076  0.1107  0.6849 -0.7892
  535MOL0     C72150   9.540   8.287   1.173 -0.8473 -0.6067 -0.0166
  535MOL0     C72151   9.579   8.277   1.328 -0.4703 -0.2082 -0.3123
  535MOL0     C72152   9.461   8.323   1.418 -0.2060 -0.0274 -0.6742
  535MOL0     C72153   9.340   8.230   1.404  0.0926 -1.1224  0.6004
  535MOL0     C72154   9.240   8.170   1.378 -0.2942 -1.0121  0.5492
  535MOL0     C72155   9.930   8.261   0.932  0.2846  0.5701  0.1256
  535MOL0     C72156  10.036   8.273   0.847  0.3309 -1.4552  0.4559
  535MOL0     C72157  10.089   8.150   0.785  0.3587  0.6205  0.5905
  535MOL0     H72158  10.489   8.580   0.610 -2.0771 -2.8099  0.7984
  535MOL0     H72159  10.720   8.608   0.665 -1.2758 -2.0328 -1.3187
  535MOL0     H72160  10.790   8.755   1.065  0.7448  0.9974  1.6784
  535MOL0     H72161  10.875   8.611   1.093  3.4742 -1.0069 -1.1003
  535MOL0     H72162  11.023   8.790   1.108  0.5911 -0.3359  0.2410
  535MOL0     H72163  10.993   8.851   0.947 -1.4324 -1.9155 -2.2407
  535MOL0     H72164  11.096   8.621   0.859 -1.5768 -2.2946  0.9334
  535MOL0     H72165  11.116   8.580   1.030 -0.4199 -1.9172 -0.3026
  535MOL0     H72166  11.239   8.822   0.921 -1.8615 -0.0608  0.2582
  535MOL0     H72167  11.279   8.740   1.070 -0.5101  0.4452 -0.7362
  535MOL0     H72168  11.332   8.535   0.900 -0.3813 -0.2397 -1.7462
  535MOL0     H72169  11.327   8.660   0.775  1.2411 -1.1701 -0.3862
  535MOL0     H72170  11.502   8.783   0.938 -0.0826 -0.5074  0.2833
  535MOL0     H72171  11.524   8.632   1.018  1.2110 -2.2159 -0.6646
  535MOL0     H72172  11.696   8.691   0.854  0.8563  2.0995 -4.7365
  535MOL0     H72173  11.584   8.711   0.725  1.2604  1.2749  0.0902
  535MOL0     H72174  11.633   8.457   0.891 -2.9219 -2.3137  0.2661
  535MOL0     H72175  11.545   8.458   0.740  1.8276 -1.4265 -1.0880
  535MOL0     H72176  11.687   8.293   0.588 -0.1902  0.6062 -0.5324
  535MOL0     H72177  12.065   8.331   0.462 -0.9693  2.2123  0.5773
  535MOL0     H72178  11.954   8.196   0.493 -0.6956  0.0535 -0.0340
  535MOL0     H72179  11.816   8.362   0.317  0.0932  1.0340  0.6758
  535MOL0     H72180  11.977   8.405   0.277 -0.2887 -0.5807 -1.3925
  535MOL0     H72181  11.925   8.102   0.270 -0.4355  0.4369 -1.8535
  535MOL0     H72182  12.062   8.208   0.229  0.7256 -0.8165 -1.5344
  535MOL0     H72183  11.968   8.180   0.021  0.1413 -2.4997  0.2207
  535MOL0     H72184  11.871   8.321   0.082 -1.1321 -0.6285 -3.4895
  535MOL0     H72185  11.553   8.224   0.019 -1.0387  0.0187  0.0230
  535MOL0     H72186  11.425   8.167  -0.182 -0.3940  0.2699 -1.0649
  535MOL0     H72187  11.599   8.068  -0.660 -0.6727  0.4059 -0.2263
  535MOL0     H72188  11.544   8.029  -0.896 -1.3166 -2.2819 -3.2661
  535MOL0     H72189  11.298   7.923  -1.125 -0.1317 -2.4087  1.2343
  535MOL0     H72190  11.395   8.036  -1.034  1.8454 -0.7626  1.1104
  535MOL0     H72191  11.465   7.994  -1.269 -0.4874  0.6769 -1.1835
  535MOL0     H72192  11.586   7.942  -1.152 -1.2889 -1.2308  3.2866
  535MOL0     H72193  11.479   7.698  -1.186 -2.0851  0.7079  0.9480
  535MOL0     H72194  11.386   7.792  -1.312  2.0442  3.1506 -2.3261
  535MOL0     H72195  11.681   7.745  -1.294 -0.6608 -3.6495  0.8487
  535MOL0     H72196  11.596   7.840  -1.431 -0.4049  0.1877 -1.2810
  535MOL0     H72197  11.487   7.628  -1.495 -1.2084  0.3029  2.0356
  535MOL0     H72198  11.550   7.566  -1.351 -2.5816  0.6921  0.0651
  535MOL0     H72199  11.725   7.661  -1.595  1.3440  1.6941  2.8400
  535MOL0     H72200  11.786   7.569  -1.459 -0.5278 -1.3135 -0.7664
  535MOL0     H72201  11.657   7.387  -1.487 -0.6544  1.5067  0.1424
  535MOL0     H72202  11.758   7.406  -1.632 -1.6615 -1.6907 -0.1403
  535MOL0     H72203  11.461   7.439  -1.608 -0.6224 -1.4919 -0.0152
  535MOL0     H72204  11.552   7.464  -1.760  1.9263 -0.4135 -0.0084
  535MOL0     H72205  11.383   7.648  -0.797  2.3504 -2.1524  3.9826
  535MOL0     H72206  11.477   7.675  -0.562  4.9328 -0.1191  0.5401
  535MOL0     H72207  11.776   7.918  -0.304 -0.0993 -1.0873  0.5169
  535MOL0     H72208  11.880   7.964  -0.088  0.8036  1.0154  0.7804
  535MOL0     H72209  10.645   8.591   1.091 -1.8048  1.9353  0.9762
  535MOL0     H72210  10.394   8.544   1.028 -0.1553  2.4773  1.2187
  535MOL0     H72211  10.113   8.602   0.916 -0.9390  1.2301 -4.8489
  535MOL0     H72212   9.907   8.582   1.038 -1.3188 -0.7030 -3.6128
  535MOL0     H72213   9.718   8.175   1.086 -1.5364 -0.1569 -0.3987
  535MOL0     H72214   9.622   8.276   0.977 -2.5811  0.1986  0.3808
  535MOL0     H72215   9.466   8.208   1.159  0.4287 -2.0371  1.0610
  535MOL0     H72216   9.503   8.390   1.162  2.1696  0.7481  1.3970
  535MOL0     H72217   9.671   8.335   1.344  0.1694 -0.1929 -3.4921
  535MOL0     H72218   9.608   8.172   1.328  1.7636  0.3140 -1.7221
  535MOL0     H72219   9.492   8.325   1.523 -1.1474  2.3175 -0.3939
  535MOL0     H72220   9.434   8.426   1.396  3.0334  1.3920  1.2418
  535MOL0     H72221   9.164   8.110   1.334  1.5377 -1.5458 -2.1484
  535MOL0     H72222   9.897   8.163   0.966 -1.6339  0.7094 -1.1757
  535MOL0     H72223  10.119   8.075   0.859 -1.7644 -1.2045 -0.2556
  535MOL0     H72224  10.011   8.121   0.713  1.8372  1.8098 -1.5943
  535MOL0     H72225  10.168   8.173   0.713  0.0716 -0.5555 -0.1469
  536MOL0     O72226   9.515   7.831   4.817  0.0938 -0.2616 -0.4039
  536MOL0     C72227   9.532   7.953   4.795 -0.6388 -0.2736 -0.2825
  536MOL0     O72228   9.645   8.015   4.831  0.8910  0.1293 -0.7745
  536MOL0     C72229   9.768   7.962   4.826 -0.4610  0.9110  0.1686
  536MOL0     C72230   9.870   8.024   4.899  1.4070 -1.0271 -0.0864
  536MOL0     C72231  10.006   7.988   4.874 -0.7143  0.3847 -0.9474
  536MOL0     C72232  10.048   7.890   4.780  0.4721 -0.3492 -0.0630
  536MOL0     O72233  10.171   7.836   4.754 -0.4203 -0.6700  0.2401
  536MOL0     C72234  10.281   7.937   4.771 -0.1765 -0.6983 -0.0889
  536MOL0     C72235  10.351   7.893   4.897 -0.3329  0.5325  0.5346
  536MOL0     C72236  10.420   7.754   4.881 -0.2314 -0.6824  0.8025
  536MOL0     C72237  10.485   7.706   5.010  0.1590  0.4883 -0.3101
  536MOL0     C72238  10.553   7.572   4.982 -0.1648  1.0313 -0.3379
  536MOL0     C72239  10.651   7.540   5.091 -0.2954  0.5790 -0.2160
  536MOL0     C72240  10.764   7.637   5.134  0.1734 -0.6008  0.7705
  536MOL0     C72241  10.748   7.727   5.257 -1.1382  0.1945  0.4434
  536MOL0     N72242  10.736   7.654   5.388  0.8075  0.2208 -0.4777
  536MOL0     C72243  10.814   7.558   5.424 -0.6497  0.3059 -0.0355
  536MOL0     C72244  10.791   7.532   5.554 -0.4420 -0.4429 -0.4171
  536MOL0     C72245  10.850   7.435   5.637 -0.4090  0.2239 -0.0257
  536MOL0     C72246  10.919   7.477   5.759  0.1642 -0.8984 -0.5708
  536MOL0     C72247  11.018   7.374   5.822 -0.6865 -0.4372  1.0424
  536MOL0     C72248  10.946   7.256   5.882 -0.6584  0.0702 -0.2403
  536MOL0     O72249  10.867   7.303   5.998 -0.2796 -0.0011 -0.3589
  536MOL0     C72250  10.921   7.301   6.125 -0.1998  0.5116 -0.0871
  536MOL0     C72251  11.037   7.237   6.177  0.0992 -0.0440 -0.4277
  536MOL0     C72252  11.069   7.245   6.310  0.5109 -0.2243  0.5078
  536MOL0     C72253  10.989   7.322   6.402 -0.2458 -0.7003  0.1417
  536MOL0     C72254  11.024   7.341   6.548 -0.0221 -0.3621  0.1356
  536MOL0     O72255  10.932   7.389   6.639 -0.2339  0.4150  0.8827
  536MOL0     C72256  10.976   7.391   6.772 -1.2335  0.2119  0.6679
  536MOL0     C72257  10.896   7.334   6.876  0.4554 -0.7646 -0.0506
  536MOL0     C72258  10.922   7.355   7.010  0.2975 -0.0435  0.3548
  536MOL0     C72259  11.020   7.445   7.053 -1.3037  1.5544 -1.1257
  536MOL0     O72260  11.048   7.475   7.182 -0.4073  0.4084  0.2482
  536MOL0     C72261  10.936   7.514   7.273 -0.0110  0.6804 -1.0644
  536MOL0     C72262  10.911   7.412   7.376 -1.3210  0.5702  0.4442
  536MOL0     C72263  11.021   7.402   7.491 -0.0695 -0.3534 -0.1248
  536MOL0     C72264  10.975   7.321   7.618 -0.3243 -0.0643 -0.0362
  536MOL0     C72265  11.099   7.335   7.714  0.8063  0.4642 -0.1976
  536MOL0     C72266  11.073   7.246   7.834  0.1027 -0.2650  0.5589
  536MOL0     C72267  11.180   7.239   7.931  0.2889 -0.5711 -0.4322
  536MOL0     C72268  11.163   7.126   8.037 -0.8532 -0.7853 -0.4215
  536MOL0    Cl72269  11.305   7.115   8.153  0.0470 -0.2786  0.0439
  536MOL0     C72270  11.105   7.491   6.951 -0.7882 -0.4613  0.8955
  536MOL0     C72271  11.087   7.470   6.815  0.0087  0.5769 -0.5123
  536MOL0     O72272  11.131   7.291   6.579 -0.3046 -0.3247  0.1265
  536MOL0     C72273  10.881   7.390   6.350  0.5084 -0.2645  0.2246
  536MOL0     C72274  10.848   7.381   6.214  0.0242 -0.4669  0.0019
  536MOL0     N72275  10.681   7.613   5.592  0.4100  0.0566 -0.4030
  536MOL0     N72276  10.654   7.689   5.490  0.1413  0.8327 -0.1508
  536MOL0     C72277   9.937   7.829   4.716  0.5088  0.3853  0.7798
  536MOL0     C72278   9.804   7.859   4.737 -0.1167  0.5136  0.0587
  536MOL0     C72279   9.410   8.030   4.754  0.1244 -0.1479  0.9800
  536MOL0     C72280   9.293   7.967   4.715 -0.0253 -0.4601 -0.6736
  536MOL0     C72281   9.177   8.026   4.671 -0.5428  0.6211  0.3668
  536MOL0     C72282   9.162   8.157   4.658  0.5602 -0.1628  0.6766
  536MOL0     O72283   9.054   8.204   4.590 -0.4891  0.4333  0.0210
  536MOL0     C72284   9.025   8.342   4.577  0.6229 -0.7390 -0.1919
  536MOL0     C72285   8.879   8.386   4.552  0.7057  0.4729 -0.8115
  536MOL0     C72286   8.855   8.519   4.494 -0.7555 -0.1202 -0.1162
  536MOL0     C72287   8.704   8.556   4.472 -0.4932  0.0770  0.0646
  536MOL0     C72288   8.639   8.455   4.386  0.6428  0.8817 -0.6998
  536MOL0     C72289   8.599   8.358   4.320  1.0713  0.4764  0.2254
  536MOL0     C72290   9.273   8.235   4.706 -0.3076 -0.0153  0.8322
  536MOL0     C72291   9.397   8.172   4.749  0.9090  0.5514  0.9194
  536MOL0     C72292   9.508   8.265   4.798  0.1117  0.0113 -0.0309
  536MOL0     H72293   9.842   8.098   4.973  0.7091  1.9374 -3.0829
  536MOL0     H72294  10.084   8.043   4.926  1.7682 -2.7138 -1.1081
  536MOL0     H72295  10.347   7.934   4.684  1.4777 -0.6509  1.1302
  536MOL0     H72296  10.248   8.041   4.779  2.6506  0.1620  1.4149
  536MOL0     H72297  10.280   7.895   4.980  0.3245  0.8592  1.0962
  536MOL0     H72298  10.425   7.972   4.911  3.2397 -1.6445 -3.5099
  536MOL0     H72299  10.500   7.762   4.807  1.6825  1.0136  2.9244
  536MOL0     H72300  10.345   7.682   4.847 -0.7629  0.3323 -0.2226
  536MOL0     H72301  10.552   7.786   5.043  1.0807 -0.4117  0.0375
  536MOL0     H72302  10.416   7.694   5.094  2.0730  3.0640  1.7809
  536MOL0     H72303  10.470   7.503   4.964  1.6632 -2.0299  2.0417
  536MOL0     H72304  10.597   7.585   4.882  0.4227  0.2010 -0.1953
  536MOL0     H72305  10.601   7.509   5.183  0.3623 -0.6302 -0.2537
  536MOL0     H72306  10.696   7.450   5.048 -0.1500  1.4150 -1.9318
  536MOL0     H72307  10.784   7.710   5.055 -2.6764  1.5179  1.8032
  536MOL0     H72308  10.854   7.578   5.152  0.9458  0.8508  1.8624
  536MOL0     H72309  10.839   7.789   5.259 -2.1314  1.6858  0.5947
  536MOL0     H72310  10.658   7.789   5.252 -0.6059  1.3985  3.5988
  536MOL0     H72311  10.871   7.493   5.358  0.3374  1.5132 -0.4147
  536MOL0     H72312  10.774   7.364   5.670  0.3542 -0.3270  0.5787
  536MOL0     H72313  10.923   7.380   5.576 -0.6465 -2.4742  1.9313
  536MOL0     H72314  10.976   7.566   5.732  1.3549 -2.2196 -2.6192
  536MOL0     H72315  10.846   7.501   5.837 -0.2378 -0.6769 -1.0043
  536MOL0     H72316  11.080   7.416   5.903  1.9939 -0.4656 -0.8738
  536MOL0     H72317  11.097   7.337   5.757 -0.4419  0.6715  0.6932
  536MOL0     H72318  11.024   7.184   5.908  0.7026  0.2430 -3.3616
  536MOL0     H72319  10.887   7.214   5.800 -1.4940  2.8970 -1.2070
  536MOL0     H72320  11.096   7.177   6.109  0.1962  0.3267 -0.6745
  536MOL0     H72321  11.156   7.197   6.354 -0.5044  0.1468  3.1110
  536MOL0     H72322  10.815   7.269   6.847  1.2800 -0.9694 -2.0650
  536MOL0     H72323  10.846   7.325   7.082  0.7988  0.2382  1.0139
  536MOL0     H72324  10.969   7.606   7.320  1.7746  1.9716 -4.4785
  536MOL0     H72325  10.843   7.533   7.217 -2.7838 -3.6245  1.5289
  536MOL0     H72326  10.815   7.430   7.425 -1.6355  1.3060 -0.4329
  536MOL0     H72327  10.894   7.316   7.326 -1.4431  0.3642  0.8730
  536MOL0     H72328  11.107   7.348   7.452  0.3335  1.0672 -1.2842
  536MOL0     H72329  11.045   7.503   7.524  1.4356 -0.6103 -0.3853
  536MOL0     H72330  10.943   7.218   7.599 -0.2058 -0.4844  1.8573
  536MOL0     H72331  10.892   7.374   7.664  0.8853  2.9057 -1.0742
  536MOL0     H72332  11.114   7.439   7.747 -1.1990  1.0543 -1.0209
  536MOL0     H72333  11.189   7.298   7.664  0.4342 -0.2841 -0.3211
  536MOL0     H72334  10.987   7.293   7.882  1.1340  1.8448  0.4575
  536MOL0     H72335  11.050   7.147   7.794 -0.4740 -0.2452  0.8386
  536MOL0     H72336  11.179   7.335   7.983 -1.9831 -1.0624  0.5450
  536MOL0     H72337  11.278   7.228   7.884 -0.6919 -1.1155 -2.4781
  536MOL0     H72338  11.074   7.143   8.098  0.4770  0.2032  1.3557
  536MOL0     H72339  11.151   7.036   7.976 -3.7668 -0.2232 -0.8282
  536MOL0     H72340  11.184   7.561   6.977 -0.9653  0.4237 -0.8334
  536MOL0     H72341  11.153   7.524   6.748 -0.8704  2.4235  0.0393
  536MOL0     H72342  10.826   7.453   6.420  1.2564  1.1120 -0.3789
  536MOL0     H72343  10.765   7.445   6.184 -0.4751 -1.0542  0.1275
  536MOL0     H72344   9.962   7.754   4.641  1.8448  2.0044 -0.4697
  536MOL0     H72345   9.738   7.798   4.675  2.8924 -1.4924 -1.3943
  536MOL0     H72346   9.294   7.860   4.732 -1.5467 -0.4848 -0.6492
  536MOL0     H72347   9.097   7.954   4.659  0.0172 -0.2246  1.5512
  536MOL0     H72348   9.078   8.380   4.489 -0.9249  2.9922  0.2870
  536MOL0     H72349   9.069   8.402   4.657  0.3785 -2.3673  1.2261
  536MOL0     H72350   8.826   8.377   4.648  2.6672  0.9276  0.3738
  536MOL0     H72351   8.834   8.317   4.480  0.9022  2.1458 -2.5977
  536MOL0     H72352   8.914   8.514   4.402  0.7800 -3.1465  0.9045
  536MOL0     H72353   8.888   8.604   4.555 -1.3011 -0.6786  0.9934
  536MOL0     H72354   8.662   8.570   4.572  0.1036 -4.7259  1.2677
  536MOL0     H72355   8.712   8.652   4.422  0.0836  1.0423  1.9110
  536MOL0     H72356   8.566   8.273   4.265  1.4449  1.0732 -0.9461
  536MOL0     H72357   9.271   8.343   4.709 -0.2812 -0.0285  1.3576
  536MOL0     H72358   9.597   8.266   4.734 -0.7580 -2.7677 -1.4336
  536MOL0     H72359   9.463   8.365   4.789  1.1902  0.4353 -1.1119
  536MOL0     H72360   9.535   8.237   4.900  0.8721  0.0158 -0.2221
  537MOL0     O72361   6.381   9.597   4.345 -0.1048 -0.5335  0.8446
  537MOL0     C72362   6.296   9.509   4.312  1.0433  0.0908 -0.6319
  537MOL0     O72363   6.270   9.395   4.369  0.3235  0.6328  0.2758
  537MOL0     C72364   6.328   9.353   4.480  0.0704  0.2764 -0.7325
  537MOL0     C72365   6.253   9.310   4.589 -1.6698 -0.1873  0.0815
  537MOL0     C72366   6.313   9.275   4.714 -0.2139 -0.0109  0.5173
  537MOL0     C72367   6.459   9.278   4.720 -0.0684  1.1111 -0.3869
  537MOL0     O72368   6.518   9.227   4.833  0.3229  0.5054 -0.2381
  537MOL0     C72369   6.645   9.172   4.822 -1.1952  0.2883  0.0090
  537MOL0     C72370   6.678   9.084   4.932  0.3224 -0.5308 -0.6082
  537MOL0     C72371   6.599   8.961   4.966 -0.0186  0.2415  0.3686
  537MOL0     C72372   6.626   8.843   4.881  0.6240  0.3945 -0.2082
  537MOL0     C72373   6.547   8.718   4.924 -0.7837 -0.3082  0.2899
  537MOL0     C72374   6.601   8.598   4.849  0.0532 -0.2994 -0.2700
  537MOL0     C72375   6.533   8.460   4.884  0.3310  0.6570  0.6850
  537MOL0     C72376   6.551   8.428   5.036 -0.4319  0.2229 -0.9224
  537MOL0     N72377   6.689   8.433   5.076 -0.2457  0.5976 -0.8229
  537MOL0     C72378   6.794   8.352   5.023  0.5874 -0.5440 -0.0767
  537MOL0     C72379   6.901   8.397   5.081  0.0797  1.1268 -0.3724
  537MOL0     C72380   7.037   8.327   5.072  0.0872 -0.8328 -0.0356
  537MOL0     C72381   7.087   8.381   4.939 -0.1895 -0.0921  0.3903
  537MOL0     C72382   7.075   8.294   4.819 -0.2533  0.2328  0.2704
  537MOL0     C72383   7.157   8.164   4.817  0.2717  0.6019 -0.1244
  537MOL0     O72384   7.299   8.185   4.810 -0.9059  0.1463 -0.0010
  537MOL0     C72385   7.384   8.109   4.743 -0.0653 -0.0300  0.5404
  537MOL0     C72386   7.507   8.172   4.720 -0.0550 -0.4962  1.2780
  537MOL0     C72387   7.602   8.096   4.667 -0.4336 -0.0699  0.2635
  537MOL0     C72388   7.586   7.964   4.628 -0.1684  0.0446  0.1782
  537MOL0     C72389   7.696   7.876   4.580 -0.5030  0.3027  0.7345
  537MOL0     O72390   7.823   7.924   4.604  0.7475 -0.6277  0.6138
  537MOL0     C72391   7.941   7.863   4.564 -0.6685 -0.8655  0.2266
  537MOL0     C72392   7.973   7.853   4.429 -0.0106 -0.1313  0.5025
  537MOL0     C72393   8.103   7.812   4.398 -0.4531 -0.5013  0.2904
  537MOL0     C72394   8.200   7.780   4.492  0.5096 -1.3694  0.6497
  537MOL0     O72395   8.319   7.740   4.442  0.2655  0.3352 -1.1968
  537MOL0     C72396   8.387   7.638   4.512 -0.4960  0.5436 -0.0559
  537MOL0     C72397   8.509   7.589   4.424  0.0813  0.2937 -0.0283
  537MOL0     C72398   8.586   7.484   4.497  0.4929  0.0547 -0.1428
  537MOL0     C72399   8.700   7.435   4.418  0.0961  0.4666 -0.2978
  537MOL0     C72400   8.795   7.345   4.501  0.3110 -0.5610  0.7243
  537MOL0     C72401   8.924   7.293   4.435  0.3219  0.3637 -0.3188
  537MOL0     C72402   8.909   7.228   4.292 -1.0692 -0.3012 -0.6575
  537MOL0     C72403   9.049   7.225   4.211 -0.7676  0.5832 -0.3304
  537MOL0    Cl72404   9.027   7.118   4.074 -0.3933 -0.0501  0.3532
  537MOL0     C72405   8.163   7.788   4.623  0.6698 -0.2436 -1.2359
  537MOL0     C72406   8.036   7.843   4.662  0.8026  0.8938  0.4034
  537MOL0     O72407   7.676   7.766   4.528  0.0346  0.5898  0.3155
  537MOL0     C72408   7.467   7.901   4.654 -0.1210  0.1565 -0.0642
  537MOL0     C72409   7.368   7.973   4.713  0.4368 -1.2018 -0.1899
  537MOL0     N72410   6.863   8.503   5.158  0.2273 -0.5157 -0.1340
  537MOL0     N72411   6.739   8.517   5.164  1.0905 -0.0320  0.2680
  537MOL0     C72412   6.535   9.316   4.602  0.7058  0.4165  0.5842
  537MOL0     C72413   6.464   9.358   4.494  1.2301 -0.3386 -0.2076
  537MOL0     C72414   6.202   9.566   4.213 -0.2079 -0.1484 -0.6795
  537MOL0     C72415   6.152   9.697   4.230 -0.2425  0.2807  1.2383
  537MOL0     C72416   6.073   9.752   4.122  0.7143  0.5890  0.0422
  537MOL0     C72417   6.027   9.665   4.023 -0.1422  0.7718 -0.5458
  537MOL0     O72418   5.932   9.694   3.928  0.1643 -0.0618 -0.1863
  537MOL0     C72419   5.846   9.817   3.928  0.2624 -0.5170 -0.0443
  537MOL0     C72420   5.923   9.936   3.867  0.2652 -0.5600  0.7610
  537MOL0     C72421   5.827  10.056   3.849  0.1980  0.1155 -0.0470
  537MOL0     C72422   5.903  10.193   3.820 -0.5871 -0.3433 -0.1466
  537MOL0     C72423   6.030  10.184   3.737  0.6122 -0.0887  0.0636
  537MOL0     C72424   6.119  10.174   3.652 -0.5682 -0.2083  0.5182
  537MOL0     C72425   6.086   9.542   4.008 -0.0660  0.9208  0.1466
  537MOL0     C72426   6.170   9.483   4.103  0.0809 -0.0997 -0.3112
  537MOL0     C72427   6.233   9.349   4.087  0.2173 -0.6185  0.5702
  537MOL0     H72428   6.145   9.303   4.577 -1.3855 -1.2872 -2.6662
  537MOL0     H72429   6.254   9.242   4.798 -1.2685  3.0782  1.1457
  537MOL0     H72430   6.646   9.122   4.725 -0.1178  2.8026 -1.3744
  537MOL0     H72431   6.717   9.255   4.823  0.3564 -1.0219  0.6558
  537MOL0     H72432   6.685   9.138   5.026 -0.2603 -0.9276 -0.3271
  537MOL0     H72433   6.782   9.058   4.911  0.0498  0.0410 -2.9367
  537MOL0     H72434   6.492   8.985   4.970 -0.2253 -0.6065  0.0812
  537MOL0     H72435   6.628   8.933   5.068 -0.8352  1.7787  1.0587
  537MOL0     H72436   6.602   8.868   4.777  0.2649 -0.7291 -0.4172
  537MOL0     H72437   6.733   8.819   4.885  0.5850  0.1253 -0.7068
  537MOL0     H72438   6.563   8.699   5.030 -0.3155 -1.2731  0.0579
  537MOL0     H72439   6.441   8.729   4.900 -0.0550  2.7223 -2.4274
  537MOL0     H72440   6.611   8.614   4.741 -0.4472 -0.0324 -0.2832
  537MOL0     H72441   6.708   8.583   4.862  0.0891  0.3097  0.1800
  537MOL0     H72442   6.569   8.381   4.817  1.4305 -1.6714  3.7707
  537MOL0     H72443   6.428   8.471   4.855  0.8294  3.7326 -0.3967
  537MOL0     H72444   6.502   8.491   5.110 -1.1712 -0.7621 -0.5444
  537MOL0     H72445   6.501   8.331   5.040 -2.5039  1.2715  1.3766
  537MOL0     H72446   6.792   8.260   4.965 -1.1303 -0.7531  0.2761
  537MOL0     H72447   7.112   8.347   5.149 -2.2339 -0.6475  2.3141
  537MOL0     H72448   7.020   8.219   5.063 -0.1341 -0.6375 -3.2687
  537MOL0     H72449   7.039   8.478   4.921 -1.1497 -0.8059 -1.1049
  537MOL0     H72450   7.194   8.406   4.940 -0.5172  1.7592 -1.7211
  537MOL0     H72451   7.103   8.351   4.730  2.6680 -0.2885  0.7511
  537MOL0     H72452   6.972   8.259   4.818 -0.3320  0.4753 -0.6471
  537MOL0     H72453   7.118   8.098   4.739 -0.3972 -1.0499  1.5297
  537MOL0     H72454   7.135   8.105   4.906  1.4948 -0.5738 -0.5670
  537MOL0     H72455   7.539   8.272   4.747  2.0523 -0.3627 -1.3340
  537MOL0     H72456   7.699   8.133   4.637 -0.1155 -2.2283 -1.6601
  537MOL0     H72457   7.893   7.876   4.359 -0.5467 -2.4739  0.2466
  537MOL0     H72458   8.139   7.797   4.297  1.7987 -1.3327  1.1443
  537MOL0     H72459   8.443   7.670   4.601  3.0697 -1.6699 -1.2584
  537MOL0     H72460   8.319   7.556   4.533 -0.9183  1.4616  2.5037
  537MOL0     H72461   8.479   7.561   4.322  0.1447 -1.3623  0.3777
  537MOL0     H72462   8.577   7.674   4.410  1.1122  0.1981  3.4432
  537MOL0     H72463   8.609   7.523   4.597 -1.5964 -1.2789  0.9206
  537MOL0     H72464   8.523   7.400   4.526 -0.3232  0.3465 -1.0148
  537MOL0     H72465   8.757   7.525   4.396 -0.3376  1.0238  0.7578
  537MOL0     H72466   8.667   7.373   4.334  2.1166 -2.2476  0.7550
  537MOL0     H72467   8.750   7.248   4.524  1.0416 -0.2392  4.0939
  537MOL0     H72468   8.814   7.395   4.596  1.3104  0.6841 -0.0859
  537MOL0     H72469   9.001   7.371   4.439 -0.2815  0.9326  1.9175
  537MOL0     H72470   8.965   7.217   4.503 -0.0228  0.8354  0.4361
  537MOL0     H72471   8.839   7.287   4.233 -1.3105 -0.0545 -0.1320
  537MOL0     H72472   8.870   7.126   4.295 -0.8209 -0.3909 -0.3662
  537MOL0     H72473   9.081   7.324   4.179  0.0291  2.4783  5.1527
  537MOL0     H72474   9.122   7.174   4.275 -0.7050  0.8794 -0.1677
  537MOL0     H72475   8.234   7.763   4.701 -2.4371 -1.1505  1.5139
  537MOL0     H72476   8.003   7.848   4.765  1.0826 -3.8724  0.9483
  537MOL0     H72477   7.460   7.797   4.624  1.6640 -0.3930  1.3168
  537MOL0     H72478   7.272   7.930   4.739 -0.3424  0.5391 -0.0184
  537MOL0     H72479   6.642   9.303   4.593  0.7475 -0.9064  2.2874
  537MOL0     H72480   6.514   9.388   4.403  1.1412  2.2142  0.5093
  537MOL0     H72481   6.178   9.763   4.312  2.1845  2.3669 -1.0461
  537MOL0     H72482   6.039   9.854   4.134 -1.5527 -0.3254  2.3662
  537MOL0     H72483   5.809   9.833   4.030 -5.1699 -3.7497 -1.0981
  537MOL0     H72484   5.751   9.800   3.877  0.1248 -0.8152  0.3102
  537MOL0     H72485   5.970   9.905   3.774 -0.4889  0.4207  0.0292
  537MOL0     H72486   6.000   9.969   3.938 -0.7240  2.1703  0.6803
  537MOL0     H72487   5.761  10.068   3.935  3.0328 -1.5886  2.5547
  537MOL0     H72488   5.756  10.038   3.767  0.1101 -1.9133  0.4422
  537MOL0     H72489   5.843  10.268   3.768 -0.5761 -0.1370  0.1334
  537MOL0     H72490   5.923  10.238   3.918 -2.1891  3.2664 -1.2952
  537MOL0     H72491   6.186  10.154   3.570 -0.9986 -0.9935  0.3496
  537MOL0     H72492   6.064   9.486   3.918 -3.4039  4.2077 -1.2981
  537MOL0     H72493   6.337   9.345   4.121  0.1092 -2.2449  0.8077
  537MOL0     H72494   6.180   9.270   4.140 -0.4369 -1.9772 -1.9088
  537MOL0     H72495   6.229   9.313   3.983 -1.7064 -3.9367  1.6608
  538MOL0     O72496   9.843  10.789  10.734  0.3055  0.3415 -0.0889
  538MOL0     C72497   9.762  10.708  10.696 -0.1287 -0.0707 -1.1982
  538MOL0     O72498   9.795  10.571  10.671  0.1772  0.3665  0.5936
  538MOL0     C72499   9.906  10.506  10.714  1.1010 -0.1280  0.5243
  538MOL0     C72500   9.964  10.410  10.628 -0.3549  0.2304 -0.2615
  538MOL0     C72501  10.089  10.347  10.669 -0.0444 -0.8050  0.4054
  538MOL0     C72502  10.148  10.385  10.798 -0.8840  0.6594  0.3103
  538MOL0     O72503  10.269  10.325  10.825 -0.0804 -0.0822 -0.1700
  538MOL0     C72504  10.323  10.306  10.966 -0.7204  0.0527  0.3192
  538MOL0     C72505  10.420  10.188  10.982  0.8467  0.5688  0.9945
  538MOL0     C72506  10.560  10.218  10.918  0.4825  0.2747 -0.4369
  538MOL0     C72507  10.647  10.305  11.003 -0.2630  0.3813 -0.8399
  538MOL0     C72508  10.790  10.308  10.945 -0.4806  0.1154 -0.6912
  538MOL0     C72509  10.799  10.334  10.787  0.0212  0.1818 -1.3196
  538MOL0     C72510  10.939  10.374  10.742 -1.1155 -0.4427  0.1638
  538MOL0     C72511  11.024  10.253  10.708  0.3270  0.7610 -0.1577
  538MOL0     N72512  11.168  10.282  10.689 -1.1373  0.2024 -0.6333
  538MOL0     C72513  11.256  10.313  10.788 -0.0337 -0.0624 -0.2452
  538MOL0     C72514  11.371  10.364  10.735  0.2570  0.7024  0.7353
  538MOL0     C72515  11.495  10.399  10.810  1.2831  0.4116  0.5383
  538MOL0     C72516  11.612  10.367  10.716 -0.5268  0.5251  0.1151
  538MOL0     C72517  11.667  10.224  10.718 -0.2996  0.1271 -0.0065
  538MOL0     C72518  11.765  10.191  10.602 -0.5720 -0.1145  0.5096
  538MOL0     O72519  11.878  10.287  10.607  0.0872  0.1407 -0.6096
  538MOL0     C72520  12.006  10.246  10.601  0.2735 -0.0526 -0.3810
  538MOL0     C72521  12.097  10.297  10.688 -0.2275 -0.2884  0.6274
  538MOL0     C72522  12.231  10.248  10.705  0.3978  0.0213 -0.2200
  538MOL0     C72523  12.273  10.142  10.624  0.5777 -0.1147  0.3438
  538MOL0     C72524  12.406  10.080  10.637 -0.5874  0.1010  0.0157
  538MOL0     O72525  12.509  10.162  10.680  0.1691 -0.1561  0.0598
  538MOL0     C72526  12.635  10.116  10.668  0.0174 -0.6911  0.3094
  538MOL0     C72527  12.692  10.063  10.555 -0.2518  0.4060  0.1793
  538MOL0     C72528  12.831  10.021  10.551  0.7148  0.1815  0.4067
  538MOL0     C72529  12.910  10.029  10.661  0.1514 -0.5665 -0.4154
  538MOL0     O72530  13.034   9.976  10.669 -0.0037 -0.7230 -0.6544
  538MOL0     C72531  13.142  10.057  10.730  0.0355  0.3735 -0.1851
  538MOL0     C72532  13.153  10.210  10.690 -0.4879 -0.4018  0.3045
  538MOL0     C72533  13.293  10.258  10.730 -0.9142 -0.1479  0.4913
  538MOL0     C72534  13.300  10.419  10.735  0.8422  0.7443 -0.0815
  538MOL0     C72535  13.420  10.478  10.808  0.1511  0.6540  0.9048
  538MOL0     C72536  13.390  10.473  10.957  0.8082  0.2060  0.2357
  538MOL0     C72537  13.320  10.599  10.997  0.1480 -0.2227 -0.1856
  538MOL0     C72538  13.296  10.597  11.153 -0.5454  0.2585  0.1253
  538MOL0    Cl72539  13.459  10.629  11.239 -0.2159 -0.1975  0.0357
  538MOL0     C72540  12.852  10.078  10.779 -0.5255  0.2845 -0.5398
  538MOL0     C72541  12.717  10.123  10.779 -0.3240  0.2139 -0.2398
  538MOL0     O72542  12.418   9.959  10.618 -1.3002  0.1438  0.3657
  538MOL0     C72543  12.176  10.086  10.536 -0.5794  0.2847 -0.0375
  538MOL0     C72544  12.046  10.138  10.528 -0.3233 -0.4020  1.0987
  538MOL0     N72545  11.340  10.377  10.600 -0.3294  0.1533 -0.4631
  538MOL0     N72546  11.222  10.329  10.575 -0.3034 -0.1147  0.3791
  538MOL0     C72547  10.079  10.466  10.883  0.5512  0.8926  0.3127
  538MOL0     C72548   9.966  10.538  10.839 -0.3504  0.0932 -0.3014
  538MOL0     C72549   9.631  10.765  10.654 -0.1025 -0.4252  0.5747
  538MOL0     C72550   9.541  10.661  10.618  0.9524 -0.0325  0.2033
  538MOL0     C72551   9.416  10.690  10.561 -0.7492 -0.6520 -0.5754
  538MOL0     C72552   9.372  10.815  10.578 -0.3280  0.1174  0.8088
  538MOL0     O72553   9.249  10.862  10.528 -0.9952  0.1368 -0.5390
  538MOL0     C72554   9.228  10.836  10.389 -0.6100  1.0545  1.1801
  538MOL0     C72555   9.130  10.930  10.325  0.0952 -0.8800 -0.2997
  538MOL0     C72556   9.191  11.068  10.294  0.1380  0.4401 -0.0768
  538MOL0     C72557   9.125  11.120  10.170  0.0779 -0.1779  1.0274
  538MOL0     C72558   9.194  11.250  10.144 -0.3149 -0.4101 -0.2478
  538MOL0     C72559   9.245  11.362  10.123  0.0538 -0.5758  0.3263
  538MOL0     C72560   9.454  10.915  10.628 -0.1062 -0.5586  0.0601
  538MOL0     C72561   9.587  10.899  10.676  0.3902 -0.3941  0.0574
  538MOL0     C72562   9.670  11.011  10.736  0.6705  0.0704 -0.6582
  538MOL0     H72563   9.902  10.370  10.549 -2.9582  1.2389  1.1403
  538MOL0     H72564  10.134  10.272  10.606 -0.5021  0.0779 -1.0202
  538MOL0     H72565  10.387  10.389  10.995  2.5167 -2.6816  1.7380
  538MOL0     H72566  10.240  10.294  11.036  0.0819 -0.5338  1.1950
  538MOL0     H72567  10.371  10.100  10.941  2.0449 -0.9423  2.6333
  538MOL0     H72568  10.435  10.157  11.086  0.4296 -2.4928  0.2395
  538MOL0     H72569  10.539  10.264  10.821 -1.7040 -0.0729 -0.1750
  538MOL0     H72570  10.610  10.121  10.904  0.6731  0.4415 -0.9322
  538MOL0     H72571  10.610  10.408  11.014  1.5596  0.9631  0.3689
  538MOL0     H72572  10.653  10.265  11.105 -0.6325  1.7458 -0.2490
  538MOL0     H72573  10.847  10.384  10.999  1.8828 -3.6390  2.6215
  538MOL0     H72574  10.838  10.213  10.969 -2.9193 -1.7696 -2.6458
  538MOL0     H72575  10.781  10.241  10.732  1.1038  1.5200 -4.0996
  538MOL0     H72576  10.724  10.408  10.760 -1.9810 -0.2314  2.3984
  538MOL0     H72577  10.982  10.423  10.830 -0.1804  0.2910 -0.6768
  538MOL0     H72578  10.939  10.443  10.657  0.1432  0.1613  0.6346
  538MOL0     H72579  11.019  10.181  10.790  2.2128  0.2218 -0.4626
  538MOL0     H72580  10.980  10.206  10.620 -2.4812  3.9687 -0.6599
  538MOL0     H72581  11.212  10.293  10.885  1.9124  1.4464  1.0250
  538MOL0     H72582  11.486  10.503  10.844 -0.5953  0.2106  0.7905
  538MOL0     H72583  11.493  10.336  10.899  2.6994  0.7828  0.8515
  538MOL0     H72584  11.595  10.402  10.614 -1.0144 -2.5849 -0.9980
  538MOL0     H72585  11.691  10.433  10.753 -1.3822  1.7259 -0.1821
  538MOL0     H72586  11.585  10.153  10.704  0.6269 -0.3708 -4.2912
  538MOL0     H72587  11.710  10.209  10.817 -1.5526 -0.7788  0.4235
  538MOL0     H72588  11.704  10.191  10.511 -3.6218  0.1376  2.4312
  538MOL0     H72589  11.802  10.090  10.622 -0.4847 -0.2698 -0.3758
  538MOL0     H72590  12.069  10.374  10.759 -0.1146 -0.8584  1.3023
  538MOL0     H72591  12.299  10.286  10.781 -0.4876 -0.6554  0.9484
  538MOL0     H72592  12.636  10.053  10.462 -1.3963 -0.9772  0.9850
  538MOL0     H72593  12.858   9.959  10.466  0.2384 -1.8674  1.6776
  538MOL0     H72594  13.145  10.035  10.837  0.6463  0.2674 -0.2219
  538MOL0     H72595  13.233  10.013  10.689 -0.4204 -0.1842 -0.6192
  538MOL0     H72596  13.133  10.234  10.585 -0.4004  1.2076  0.6327
  538MOL0     H72597  13.073  10.265  10.739  0.8135 -1.5667  4.0442
  538MOL0     H72598  13.319  10.222  10.830  1.6254  2.7225  0.9999
  538MOL0     H72599  13.362  10.212  10.657  0.4375 -1.4833  2.5066
  538MOL0     H72600  13.209  10.460  10.781  1.2249  0.4113  1.0051
  538MOL0     H72601  13.304  10.441  10.628  2.3633 -4.6716 -1.4483
  538MOL0     H72602  13.436  10.581  10.778  0.0171  0.3164 -0.3887
  538MOL0     H72603  13.501  10.410  10.780 -0.3454  0.2688  0.3769
  538MOL0     H72604  13.331  10.387  10.990 -1.3674  1.2785 -0.6893
  538MOL0     H72605  13.494  10.464  10.992  0.1819 -2.0299  1.7761
  538MOL0     H72606  13.224  10.619  10.949 -1.2563 -4.2506  0.5329
  538MOL0     H72607  13.387  10.684  10.981 -2.3616  2.4050  2.2257
  538MOL0     H72608  13.229  10.676  11.188  0.8135  2.1113 -1.2632
  538MOL0     H72609  13.243  10.504  11.177 -0.4751 -0.0694 -0.9288
  538MOL0     H72610  12.910  10.106  10.866  0.8656  2.2074 -1.9867
  538MOL0     H72611  12.681  10.155  10.877 -2.3188  0.0532 -0.8620
  538MOL0     H72612  12.194  10.001  10.471  1.6491  2.6969 -2.8729
  538MOL0     H72613  11.987  10.092  10.449  0.8034 -0.4662  0.2676
  538MOL0     H72614  10.126  10.483  10.980 -0.4812  0.4912  0.8930
  538MOL0     H72615   9.909  10.605  10.902  1.7580  2.6043 -0.9146
  538MOL0     H72616   9.563  10.554  10.618 -5.6867 -1.8105 -1.2398
  538MOL0     H72617   9.356  10.604  10.530 -2.2061  0.3345 -0.5885
  538MOL0     H72618   9.175  10.740  10.399  2.6491 -1.1968 -1.1124
  538MOL0     H72619   9.325  10.821  10.340 -0.0073  1.8587  2.1085
  538MOL0     H72620   9.046  10.943  10.393  0.1024 -0.9740 -0.2730
  538MOL0     H72621   9.086  10.883  10.236  3.1141 -2.7345 -0.9775
  538MOL0     H72622   9.299  11.060  10.282  0.0633 -1.0039  0.0127
  538MOL0     H72623   9.162  11.134  10.377 -1.1745  1.9636 -1.6609
  538MOL0     H72624   9.136  11.061  10.078  1.3791 -0.0689  1.0910
  538MOL0     H72625   9.018  11.131  10.189 -0.3438 -2.3501  0.1715
  538MOL0     H72626   9.282  11.461  10.104 -0.4313 -0.5406 -0.5012
  538MOL0     H72627   9.415  11.017  10.625 -3.3243 -1.4146  3.8922
  538MOL0     H72628   9.751  11.050  10.672  1.1588 -0.4324 -0.3469
  538MOL0     H72629   9.619  11.107  10.752 -0.1991 -0.4225 -0.4513
  538MOL0     H72630   9.706  10.989  10.836 -2.6749  0.1865  0.7030
  539MOL0     O72631   1.184   0.467   0.119  0.9807  0.3052  0.3423
  539MOL0     C72632   1.167   0.586   0.102  1.3632  0.0640  0.4368
  539MOL0     O72633   1.262   0.679   0.067 -1.3572  0.3407  0.3270
  539MOL0     C72634   1.397   0.628   0.060  0.6939 -0.3439  0.3138
  539MOL0     C72635   1.462   0.568   0.164  0.3822 -0.4994  0.2268
  539MOL0     C72636   1.596   0.525   0.157 -1.0600 -0.2235  0.0249
  539MOL0     C72637   1.665   0.543   0.033  0.1791  0.6454  0.2592
  539MOL0     O72638   1.795   0.495   0.011  0.0478  0.3880 -0.5868
  539MOL0     C72639   1.897   0.479   0.112 -0.0092 -0.5643 -0.4934
  539MOL0     C72640   2.020   0.506   0.025  0.3499  0.4677  0.2304
  539MOL0     C72641   2.145   0.540   0.118 -0.8722 -0.0960  0.1961
  539MOL0     C72642   2.279   0.521   0.045 -0.0352 -0.2342 -0.1019
  539MOL0     C72643   2.390   0.599   0.123 -0.2331 -0.2313 -0.1294
  539MOL0     C72644   2.398   0.543   0.273 -0.1979 -0.0985  0.4203
  539MOL0     C72645   2.482   0.631   0.367 -0.0015  0.5515  0.6820
  539MOL0     C72646   2.404   0.743   0.440 -0.4663  0.2727  0.0746
  539MOL0     N72647   2.500   0.798   0.542 -0.1732 -0.3682  0.0790
  539MOL0     C72648   2.614   0.867   0.509 -0.6642  0.0517  0.6483
  539MOL0     C72649   2.675   0.902   0.623  0.7234 -0.6345  0.6026
  539MOL0     C72650   2.794   0.992   0.636 -0.0215  0.6122  0.1408
  539MOL0     C72651   2.754   1.134   0.606 -0.2863 -0.6930  0.2798
  539MOL0     C72652   2.859   1.238   0.636 -0.7324  0.8502  0.0007
  539MOL0     C72653   2.818   1.388   0.659  0.1062 -0.1573  0.2410
  539MOL0     O72654   2.877   1.439   0.779 -0.4716  0.6701  0.9204
  539MOL0     C72655   3.005   1.500   0.764 -0.2277 -0.0551  0.1267
  539MOL0     C72656   3.079   1.517   0.649 -0.4570  0.1338 -0.6733
  539MOL0     C72657   3.198   1.589   0.656 -0.2789 -0.5604 -0.4341
  539MOL0     C72658   3.246   1.642   0.779  1.5788  0.3119 -0.2789
  539MOL0     C72659   3.374   1.716   0.781 -0.3189 -0.7637  0.2763
  539MOL0     O72660   3.415   1.760   0.901 -0.9051  0.0802  0.2685
  539MOL0     C72661   3.531   1.835   0.915  0.1233  0.1694 -0.7311
  539MOL0     C72662   3.593   1.915   0.819 -1.0011 -0.7541  0.1908
  539MOL0     C72663   3.712   1.983   0.837 -0.1912  0.7030 -0.9717
  539MOL0     C72664   3.782   1.971   0.953 -0.4107 -0.2617  0.2718
  539MOL0     O72665   3.905   2.029   0.974 -0.1138 -0.0751  0.6294
  539MOL0     C72666   3.990   2.074   0.860 -0.3234 -0.2752 -0.9285
  539MOL0     C72667   4.078   2.193   0.913  0.1287  0.3247 -0.7860
  539MOL0     C72668   4.204   2.135   0.979  0.5963  0.4824 -0.4282
  539MOL0     C72669   4.253   2.230   1.090  0.1029  0.1396  0.2272
  539MOL0     C72670   4.402   2.209   1.121  0.5642 -0.3618  0.5094
  539MOL0     C72671   4.437   2.313   1.223  0.3113  0.4750 -0.2216
  539MOL0     C72672   4.588   2.330   1.245 -0.3578  0.8504  0.3110
  539MOL0     C72673   4.609   2.441   1.347 -0.0683 -0.2593  0.0593
  539MOL0    Cl72674   4.793   2.467   1.359 -0.3775  0.7134  0.3208
  539MOL0     C72675   3.725   1.884   1.052  0.5399  0.0396 -0.2540
  539MOL0     C72676   3.592   1.825   1.038  0.1661 -0.1412  0.6447
  539MOL0     O72677   3.442   1.716   0.680  0.6851 -0.5174 -0.3379
  539MOL0     C72678   3.166   1.627   0.897 -0.4669  0.0913  0.0021
  539MOL0     C72679   3.050   1.545   0.884  0.5965 -0.6070 -0.5295
  539MOL0     N72680   2.587   0.868   0.720 -0.4700 -0.1163  0.2214
  539MOL0     N72681   2.480   0.809   0.678 -0.6151  0.7055 -0.3826
  539MOL0     C72682   1.599   0.602  -0.078  0.1385  0.1876  0.9599
  539MOL0     C72683   1.464   0.643  -0.062  0.2288 -0.2385 -0.3432
  539MOL0     C72684   1.029   0.637   0.121  0.0102  0.2271  0.5905
  539MOL0     C72685   0.955   0.565   0.217  0.6765 -0.0315  0.0286
  539MOL0     C72686   0.822   0.610   0.253  0.4918  0.2581 -0.0854
  539MOL0     C72687   0.761   0.728   0.191  0.4111 -0.3351 -1.0832
  539MOL0     O72688   0.647   0.780   0.242  0.0109 -0.0239  0.0365
  539MOL0     C72689   0.551   0.677   0.274 -0.0666  0.2494 -0.4139
  539MOL0     C72690   0.417   0.748   0.293  0.1110  0.2535 -0.6781
  539MOL0     C72691   0.409   0.834   0.416 -0.5228  0.0129 -0.7045
  539MOL0     C72692   0.341   0.759   0.540 -0.1406 -0.4224  0.4853
  539MOL0     C72693   0.330   0.857   0.654 -0.2969 -0.0334  0.3187
  539MOL0     C72694   0.306   0.934   0.741 -0.1497  0.0786 -0.2747
  539MOL0     C72695   0.838   0.789   0.090  0.5383 -0.1487 -0.3300
  539MOL0     C72696   0.966   0.744   0.055  0.4120  0.1285  0.3943
  539MOL0     C72697   1.028   0.853  -0.033 -0.0753  0.0872  0.6737
  539MOL0     H72698   1.410   0.570   0.259 -0.8234 -2.0698 -0.3504
  539MOL0     H72699   1.640   0.483   0.247 -1.4804  1.4994  1.0868
  539MOL0     H72700   1.892   0.566   0.178 -1.6153  0.6716 -2.1485
  539MOL0     H72701   1.898   0.386   0.171 -2.8727  0.9922  2.3197
  539MOL0     H72702   1.985   0.588  -0.038 -2.8052  1.4607  3.0043
  539MOL0     H72703   2.044   0.419  -0.036 -2.6217  0.8935 -1.7166
  539MOL0     H72704   2.129   0.472   0.203  0.8124 -0.6667  0.0944
  539MOL0     H72705   2.138   0.644   0.150  2.6728 -0.4581  2.7493
  539MOL0     H72706   2.293   0.412   0.046  0.4535 -0.1882 -0.9923
  539MOL0     H72707   2.267   0.560  -0.057 -2.0538  0.7139  0.4536
  539MOL0     H72708   2.482   0.571   0.069 -0.5432 -0.5926 -0.4762
  539MOL0     H72709   2.360   0.704   0.124  2.4309  0.6154  0.7422
  539MOL0     H72710   2.295   0.539   0.308 -0.3196  1.1480  0.2543
  539MOL0     H72711   2.440   0.442   0.274  2.6636  0.9873  0.1279
  539MOL0     H72712   2.554   0.671   0.295  0.4781 -2.2951 -0.5424
  539MOL0     H72713   2.542   0.564   0.429  1.0169 -1.3563 -2.1541
  539MOL0     H72714   2.370   0.821   0.371 -0.9272 -0.2347 -0.2878
  539MOL0     H72715   2.315   0.702   0.488  1.0195 -2.7450  0.4898
  539MOL0     H72716   2.644   0.884   0.406 -3.3830 -5.2735 -1.3783
  539MOL0     H72717   2.835   0.996   0.737 -0.7358  0.1989  0.4581
  539MOL0     H72718   2.876   0.952   0.576  2.0905 -0.7242  3.5792
  539MOL0     H72719   2.722   1.149   0.503  0.2579  0.8757  0.3057
  539MOL0     H72720   2.668   1.163   0.667  1.1019  3.1917  0.6477
  539MOL0     H72721   2.945   1.232   0.569  0.9035  0.5049  2.0427
  539MOL0     H72722   2.907   1.208   0.729  1.1792  2.0580 -0.5421
  539MOL0     H72723   2.711   1.393   0.679  0.5531  1.2413  2.6478
  539MOL0     H72724   2.834   1.443   0.566  1.0531  0.1494  0.5647
  539MOL0     H72725   3.054   1.463   0.558  0.0303  0.0737 -0.7697
  539MOL0     H72726   3.268   1.591   0.573  1.0403  2.2914  0.6137
  539MOL0     H72727   3.552   1.930   0.719  0.6537  6.3566  0.0719
  539MOL0     H72728   3.744   2.060   0.767 -0.4839  0.6104 -1.2094
  539MOL0     H72729   4.052   1.989   0.829  0.2406  0.1443 -0.9789
  539MOL0     H72730   3.933   2.109   0.773  1.1417  0.1809 -1.7465
  539MOL0     H72731   4.087   2.272   0.838  2.5759  1.7172  0.8653
  539MOL0     H72732   4.025   2.235   0.999 -4.2832 -2.6530 -1.6679
  539MOL0     H72733   4.185   2.043   1.034 -1.4468  2.3234  2.2129
  539MOL0     H72734   4.284   2.124   0.905  1.2228  2.6633 -0.1283
  539MOL0     H72735   4.202   2.206   1.184  1.5809 -3.9788  0.1966
  539MOL0     H72736   4.239   2.335   1.065  0.8901  0.5607  1.4561
  539MOL0     H72737   4.462   2.221   1.030 -0.5837 -2.3175 -0.5967
  539MOL0     H72738   4.416   2.104   1.150 -0.0993 -1.6787 -3.3059
  539MOL0     H72739   4.408   2.410   1.182 -0.4437 -0.4937 -2.0643
  539MOL0     H72740   4.391   2.307   1.322  2.4146  0.2303  0.8116
  539MOL0     H72741   4.641   2.356   1.153 -2.2585  0.2608 -1.0106
  539MOL0     H72742   4.627   2.235   1.283 -1.2252  0.0736 -0.6743
  539MOL0     H72743   4.560   2.531   1.311 -1.9929 -1.6749 -1.0020
  539MOL0     H72744   4.575   2.408   1.446  0.2771  0.9395  0.5888
  539MOL0     H72745   3.784   1.878   1.143 -0.9272  0.8552  0.7983
  539MOL0     H72746   3.547   1.777   1.124 -1.4283 -1.1979 -0.7215
  539MOL0     H72747   3.205   1.654   0.995 -0.3870  1.0865 -0.2904
  539MOL0     H72748   2.990   1.530   0.973 -0.6984  1.5622 -0.9516
  539MOL0     H72749   1.644   0.608  -0.177 -1.9229 -1.7384 -0.1685
  539MOL0     H72750   1.425   0.697  -0.148  1.3012 -1.2562 -1.5007
  539MOL0     H72751   0.991   0.477   0.270 -1.1953  0.8017  2.9671
  539MOL0     H72752   0.787   0.557   0.341 -0.6806 -1.4759 -1.5381
  539MOL0     H72753   0.575   0.632   0.371 -0.2991 -0.9221 -0.8883
  539MOL0     H72754   0.536   0.593   0.207 -0.3593 -0.1745  0.1786
  539MOL0     H72755   0.333   0.679   0.292 -0.7740  1.1527  2.2497
  539MOL0     H72756   0.400   0.824   0.216 -0.3212 -0.0110 -0.8472
  539MOL0     H72757   0.354   0.927   0.402 -1.4848 -0.4253  0.0529
  539MOL0     H72758   0.509   0.875   0.436  0.8144 -2.8370 -0.9767
  539MOL0     H72759   0.245   0.714   0.513  0.1808  1.1404 -4.1625
  539MOL0     H72760   0.410   0.677   0.559  4.9276  2.7722 -1.8143
  539MOL0     H72761   0.277   1.003   0.817 -3.4506  0.3508 -1.6296
  539MOL0     H72762   0.786   0.876   0.051  2.0403  0.7858 -0.3095
  539MOL0     H72763   0.964   0.915  -0.096  0.8227  0.8381  0.4830
  539MOL0     H72764   1.098   0.916   0.023  0.5516  2.6576 -2.6188
  539MOL0     H72765   1.093   0.810  -0.110 -1.2807 -0.7292  0.0800
  540MOL0     O72766   9.216  11.131   1.063  0.1313  0.7431 -0.1977
  540MOL0     C72767   9.231  11.216   0.971 -0.1450 -0.1673  0.1868
  540MOL0     O72768   9.350  11.232   0.904 -0.4105 -0.4819  0.3778
  540MOL0     C72769   9.478  11.177   0.930  0.2614  0.8436 -1.0287
  540MOL0     C72770   9.513  11.152   1.074  0.2621 -0.9072  0.5347
  540MOL0     C72771   9.638  11.105   1.108  0.7606 -0.6168 -0.3917
  540MOL0     C72772   9.728  11.086   1.006 -0.2920 -0.0718 -0.3251
  540MOL0     O72773   9.860  11.035   1.018  0.5127  0.9004  0.0296
  540MOL0     C72774   9.900  10.982   1.151 -0.5650 -0.8914  0.3124
  540MOL0     C72775  10.051  10.976   1.147  0.1316 -0.8397 -0.3087
  540MOL0     C72776  10.113  11.114   1.118  0.2390  0.2677 -0.3158
  540MOL0     C72777  10.261  11.110   1.120 -1.0465  0.9317  1.0898
  540MOL0     C72778  10.325  11.242   1.115 -1.3589 -1.3128 -0.2590
  540MOL0     C72779  10.460  11.230   1.035  0.9569 -0.0273  0.3161
  540MOL0     C72780  10.545  11.351   1.003 -0.5825 -0.5344 -0.1081
  540MOL0     C72781  10.579  11.422   1.131  0.5931 -0.3478 -0.1422
  540MOL0     N72782  10.694  11.357   1.203 -0.8413  0.6998  0.1297
  540MOL0     C72783  10.828  11.324   1.165 -0.1908 -0.1859  0.0025
  540MOL0     C72784  10.877  11.264   1.278 -0.3774 -1.1648 -0.5926
  540MOL0     C72785  11.015  11.205   1.267  0.5607  0.3003  0.5344
  540MOL0     C72786  11.057  11.155   1.414 -0.1446 -0.4446  0.6232
  540MOL0     C72787  11.176  11.073   1.411 -0.4257  0.0300 -0.2446
  540MOL0     C72788  11.308  11.157   1.441 -0.2163  0.3339  0.5622
  540MOL0     O72789  11.311  11.227   1.561 -0.6045  0.4323 -0.0814
  540MOL0     C72790  11.420  11.297   1.595 -0.8873 -1.4179 -0.5236
  540MOL0     C72791  11.416  11.356   1.716  0.3705  0.4796 -0.2722
  540MOL0     C72792  11.517  11.440   1.763  0.5007  0.2314 -0.7797
  540MOL0     C72793  11.627  11.465   1.687 -0.7724 -0.3346  0.3316
  540MOL0     C72794  11.728  11.569   1.723 -0.0962 -1.2763 -0.5673
  540MOL0     O72795  11.822  11.607   1.631  0.7191 -0.4865  0.3111
  540MOL0     C72796  11.896  11.718   1.636 -0.1024 -0.3740 -0.3854
  540MOL0     C72797  11.913  11.811   1.740  0.0542  0.9410  0.5575
  540MOL0     C72798  12.012  11.911   1.715  0.8064  0.0529  0.9723
  540MOL0     C72799  12.087  11.933   1.596  0.3310 -0.3761 -0.0149
  540MOL0     O72800  12.172  12.038   1.577  0.0527 -0.8533  0.0389
  540MOL0     C72801  12.286  12.033   1.661  1.2164 -0.2010  0.4780
  540MOL0     C72802  12.354  12.169   1.666 -0.9312  0.0589  1.0633
  540MOL0     C72803  12.422  12.213   1.536  0.5341 -0.8702 -0.9802
  540MOL0     C72804  12.527  12.321   1.544 -0.6023 -0.0881 -0.3361
  540MOL0     C72805  12.573  12.362   1.405 -0.7291  0.2435  1.0243
  540MOL0     C72806  12.678  12.473   1.410 -0.1591 -0.6254  0.3695
  540MOL0     C72807  12.793  12.445   1.496  1.0511  0.5236 -0.7903
  540MOL0     C72808  12.917  12.532   1.483  0.4772 -0.1346  0.4861
  540MOL0    Cl72809  12.873  12.703   1.509  0.1037 -0.2113  0.2886
  540MOL0     C72810  12.073  11.834   1.506  0.4170  0.4072  0.1499
  540MOL0     C72811  11.975  11.735   1.525  0.5636  0.0279  0.6772
  540MOL0     O72812  11.723  11.605   1.838  0.1483 -0.1144  0.7105
  540MOL0     C72813  11.632  11.410   1.559  0.4254  0.9916 -0.3399
  540MOL0     C72814  11.534  11.329   1.511  0.2750 -0.0229 -0.8161
  540MOL0     N72815  10.785  11.265   1.387 -0.1876  0.2418  0.5390
  540MOL0     N72816  10.680  11.325   1.337  0.2131  0.1331 -0.5519
  540MOL0     C72817   9.691  11.110   0.869  0.1082  1.0120  0.6371
  540MOL0     C72818   9.571  11.155   0.830 -1.6933  0.5585 -0.2900
  540MOL0     C72819   9.107  11.289   0.919 -0.3700  0.2005  0.4948
  540MOL0     C72820   9.140  11.378   0.814  0.8006 -0.8154  0.0898
  540MOL0     C72821   9.045  11.464   0.753 -0.4901 -0.2550  0.6677
  540MOL0     C72822   8.911  11.450   0.776 -0.3211 -0.1847 -0.9300
  540MOL0     O72823   8.819  11.556   0.740  0.0167 -0.5896 -0.3618
  540MOL0     C72824   8.679  11.543   0.760  0.8259  0.4399 -0.0551
  540MOL0     C72825   8.621  11.437   0.673  0.1973  1.0795 -0.4091
  540MOL0     C72826   8.625  11.483   0.528  0.0363 -0.5084  0.2638
  540MOL0     C72827   8.553  11.612   0.491  0.3010  0.1488  0.3024
  540MOL0     C72828   8.405  11.605   0.517  0.0780  0.2288  0.1198
  540MOL0     C72829   8.288  11.602   0.544 -0.3776  0.2182 -0.8308
  540MOL0     C72830   8.876  11.355   0.869 -0.3384 -0.2134  0.4486
  540MOL0     C72831   8.970  11.279   0.942  0.8230  0.0148  0.8693
  540MOL0     C72832   8.900  11.200   1.050 -0.1730 -1.3862 -0.3590
  540MOL0     H72833   9.440  11.163   1.153 -2.5639  0.9462 -2.1023
  540MOL0     H72834   9.647  11.083   1.214 -2.3220  1.4735  0.4350
  540MOL0     H72835   9.875  11.060   1.224  3.8901  1.3692 -0.2393
  540MOL0     H72836   9.863  10.882   1.175 -0.7564 -0.7135  0.7611
  540MOL0     H72837  10.083  10.913   1.064  2.4005  0.7916 -0.7690
  540MOL0     H72838  10.096  10.934   1.237 -0.4711 -2.2966 -0.6641
  540MOL0     H72839  10.085  11.188   1.194 -2.9301  0.6668 -1.7259
  540MOL0     H72840  10.091  11.155   1.019 -0.0070 -0.6782 -0.6612
  540MOL0     H72841  10.290  11.050   1.207 -1.0219  1.9800  1.8180
  540MOL0     H72842  10.276  11.053   1.028 -1.1823  0.8726  1.1039
  540MOL0     H72843  10.264  11.320   1.070  1.1954  1.3914  0.6452
  540MOL0     H72844  10.341  11.271   1.219  0.5864 -0.1711 -0.8316
  540MOL0     H72845  10.527  11.163   1.090  1.7470 -0.2268 -0.8649
  540MOL0     H72846  10.432  11.186   0.939  3.1741 -1.4191  0.2350
  540MOL0     H72847  10.493  11.418   0.934  0.8008  0.9748  0.2789
  540MOL0     H72848  10.638  11.331   0.950 -0.5502  2.7517 -1.4879
  540MOL0     H72849  10.617  11.521   1.103 -0.4716 -0.4826 -2.2533
  540MOL0     H72850  10.495  11.425   1.201  0.1100  0.0639 -0.7319
  540MOL0     H72851  10.885  11.338   1.074  1.1206 -1.9336  0.4934
  540MOL0     H72852  11.021  11.117   1.202  4.0017  0.6111  0.2264
  540MOL0     H72853  11.082  11.283   1.231  1.8129 -1.1123 -0.3499
  540MOL0     H72854  11.057  11.237   1.485 -1.4350  1.4721 -1.4497
  540MOL0     H72855  10.980  11.090   1.456  2.5099 -2.9899  1.9415
  540MOL0     H72856  11.191  11.012   1.322 -0.1914  1.8143 -1.4641
  540MOL0     H72857  11.170  10.997   1.490  0.3770 -3.9792 -3.6709
  540MOL0     H72858  11.312  11.235   1.364 -1.7355  4.0270  3.8880
  540MOL0     H72859  11.397  11.094   1.442  0.4513  1.2487  0.9635
  540MOL0     H72860  11.324  11.341   1.773 -0.5171  0.9421 -1.5283
  540MOL0     H72861  11.500  11.494   1.855 -1.1230 -3.1404  1.0952
  540MOL0     H72862  11.855  11.815   1.831 -0.8789  3.1666 -0.0713
  540MOL0     H72863  12.039  11.988   1.786  2.0511  0.6158 -0.0741
  540MOL0     H72864  12.249  12.017   1.763  1.0660  0.8010  0.5899
  540MOL0     H72865  12.348  11.948   1.631 -1.5544 -1.6344 -1.6294
  540MOL0     H72866  12.282  12.250   1.681 -0.7587  0.5401 -0.5252
  540MOL0     H72867  12.420  12.170   1.754 -0.6532 -3.0424  0.9950
  540MOL0     H72868  12.474  12.125   1.498 -0.5757 -1.8491 -0.3032
  540MOL0     H72869  12.352  12.245   1.457 -0.7881  1.8571  1.1290
  540MOL0     H72870  12.611  12.288   1.604 -0.5321  0.8625  0.1089
  540MOL0     H72871  12.488  12.415   1.585  1.4762  0.0271  1.5364
  540MOL0     H72872  12.488  12.400   1.347 -1.9508 -0.2935  2.4115
  540MOL0     H72873  12.612  12.277   1.348  3.3246  2.5994 -0.1000
  540MOL0     H72874  12.723  12.476   1.310 -0.0721  0.0813  0.4254
  540MOL0     H72875  12.631  12.566   1.443 -2.5971 -1.8380  0.5852
  540MOL0     H72876  12.820  12.340   1.481 -3.8685 -0.7588 -2.8121
  540MOL0     H72877  12.744  12.457   1.594 -2.7892 -2.9240 -1.9771
  540MOL0     H72878  12.981  12.515   1.570  1.8499 -1.2795 -0.6953
  540MOL0     H72879  12.955  12.507   1.384  1.0218 -2.1764  1.1667
  540MOL0     H72880  12.117  11.844   1.407  0.6826  1.3791  0.3592
  540MOL0     H72881  11.962  11.667   1.441 -0.4466  2.7597 -1.5364
  540MOL0     H72882  11.724  11.424   1.502  2.5215 -0.9379  2.3002
  540MOL0     H72883  11.538  11.305   1.405  3.1702 -0.8618 -0.5803
  540MOL0     H72884   9.764  11.082   0.793 -0.3849 -1.8486  1.1257
  540MOL0     H72885   9.536  11.171   0.729 -1.1022 -0.7556 -0.7199
  540MOL0     H72886   9.243  11.391   0.783  0.8576 -2.5206 -0.5426
  540MOL0     H72887   9.076  11.545   0.688  1.0767 -1.2031  0.1543
  540MOL0     H72888   8.623  11.636   0.747 -0.2620 -0.3615 -1.3230
  540MOL0     H72889   8.660  11.519   0.865 -0.0938  0.1792 -0.2778
  540MOL0     H72890   8.516  11.437   0.704 -0.1509  2.3955 -1.5041
  540MOL0     H72891   8.667  11.338   0.684 -3.3229 -0.8233 -1.2802
  540MOL0     H72892   8.582  11.402   0.468 -0.3584  0.3326 -0.6128
  540MOL0     H72893   8.731  11.490   0.502  0.2748 -0.1848  1.3054
  540MOL0     H72894   8.600  11.699   0.538 -0.2622 -0.8669  2.9318
  540MOL0     H72895   8.560  11.621   0.382 -0.3003 -4.2071 -0.2607
  540MOL0     H72896   8.183  11.613   0.564 -0.2105 -0.8104  0.8520
  540MOL0     H72897   8.775  11.351   0.910 -1.4811 -1.5697 -2.1887
  540MOL0     H72898   8.968  11.187   1.135  2.4860 -0.4634 -2.1967
  540MOL0     H72899   8.814  11.257   1.087  0.0182  0.3553 -2.3882
  540MOL0     H72900   8.873  11.110   0.996  0.6812 -0.8896 -1.6590
  541MOL0     O72901   7.229   5.626   9.299  0.6477 -0.9370  0.0766
  541MOL0     C72902   7.260   5.685   9.402  0.9828 -0.8007  0.2499
  541MOL0     O72903   7.216   5.805   9.430 -0.0013  0.0265  0.0745
  541MOL0     C72904   7.097   5.852   9.374 -0.4263  0.4622 -0.7185
  541MOL0     C72905   6.982   5.772   9.352 -0.0399 -0.9606  0.6643
  541MOL0     C72906   6.867   5.830   9.302  1.0788  0.4170  0.2760
  541MOL0     C72907   6.855   5.964   9.272 -0.7635  0.6506  0.7467
  541MOL0     O72908   6.743   6.033   9.240  0.0139  0.0289 -1.3892
  541MOL0     C72909   6.616   5.948   9.230  0.6757 -0.0035  0.4438
  541MOL0     C72910   6.493   6.041   9.199 -0.2187  0.1006 -0.3206
  541MOL0     C72911   6.358   5.965   9.170 -0.2326 -0.2445  0.0931
  541MOL0     C72912   6.245   6.076   9.189 -0.9081  0.4340  0.7329
  541MOL0     C72913   6.122   6.009   9.141  0.2306  0.0852  0.5048
  541MOL0     C72914   5.999   6.110   9.158 -0.2456 -0.6392 -0.3808
  541MOL0     C72915   5.862   6.050   9.097 -0.9264  0.3601 -0.6368
  541MOL0     C72916   5.752   6.143   9.096  0.1691 -0.9001  0.4284
  541MOL0     N72917   5.642   6.081   9.012 -0.7276  0.2220  0.0391
  541MOL0     C72918   5.514   6.047   9.045  0.2952 -0.1334  0.5715
  541MOL0     C72919   5.467   5.980   8.934  0.9171 -0.0592 -0.3245
  541MOL0     C72920   5.352   5.893   8.921  0.2712 -0.6095  0.0366
  541MOL0     C72921   5.249   5.962   8.838 -0.5466 -0.3534  0.6569
  541MOL0     C72922   5.106   5.899   8.849  0.7431  0.7767 -0.3494
  541MOL0     C72923   4.996   5.988   8.798  0.5173 -0.2264  0.7175
  541MOL0     O72924   4.876   5.944   8.854  0.2168 -0.2032 -0.5930
  541MOL0     C72925   4.753   5.999   8.812 -0.3410  0.0217 -0.5871
  541MOL0     C72926   4.738   6.080   8.704 -0.1260  0.7875  0.3571
  541MOL0     C72927   4.609   6.138   8.687  0.1322 -0.3490  0.5463
  541MOL0     C72928   4.488   6.099   8.759  0.4868 -1.1884  0.2327
  541MOL0     C72929   4.351   6.140   8.723  0.3922 -0.9393  0.4345
  541MOL0     O72930   4.241   6.064   8.772 -0.2166  0.6706 -0.0348
  541MOL0     C72931   4.122   6.122   8.796 -0.2660 -0.7897 -0.0980
  541MOL0     C72932   4.004   6.076   8.747 -0.1067  0.4498  0.7598
  541MOL0     C72933   3.871   6.127   8.775 -0.4146  0.5224 -1.0301
  541MOL0     C72934   3.866   6.246   8.857 -0.2594  0.0230 -0.6096
  541MOL0     O72935   3.748   6.312   8.881  0.1661 -0.4705 -0.1582
  541MOL0     C72936   3.743   6.397   8.992  0.4991 -0.1691 -0.0934
  541MOL0     C72937   3.593   6.448   9.004 -0.1040  0.3550 -0.6007
  541MOL0     C72938   3.538   6.502   8.868  1.0243 -0.1273 -0.4249
  541MOL0     C72939   3.385   6.526   8.872 -0.3637 -0.3001  1.3961
  541MOL0     C72940   3.286   6.407   8.899 -0.1021  0.7928 -0.6817
  541MOL0     C72941   3.260   6.401   9.051  0.2581 -0.9515 -0.7055
  541MOL0     C72942   3.237   6.266   9.109  0.0003  0.4030 -0.2478
  541MOL0     C72943   3.102   6.251   9.176 -0.1314 -0.2285  0.5299
  541MOL0    Cl72944   3.085   6.081   9.248 -0.1177 -0.4207  0.4001
  541MOL0     C72945   3.991   6.287   8.917  0.3516 -0.8355  0.7647
  541MOL0     C72946   4.108   6.228   8.888 -0.4731 -0.6795 -1.0824
  541MOL0     O72947   4.339   6.242   8.653 -0.0451  0.6555 -0.6176
  541MOL0     C72948   4.507   6.001   8.854  0.0246  0.6948  0.3691
  541MOL0     C72949   4.637   5.954   8.878 -0.0646 -0.1269 -0.2485
  541MOL0     N72950   5.562   5.980   8.837  0.2195  0.2314  0.0833
  541MOL0     N72951   5.666   6.039   8.884  0.7581 -0.0494  0.1236
  541MOL0     C72952   6.972   6.047   9.296 -0.3354 -0.2301 -0.0477
  541MOL0     C72953   7.088   5.986   9.340  0.3205 -0.1042  0.8527
  541MOL0     C72954   7.352   5.621   9.495 -0.2133  0.0393 -0.3272
  541MOL0     C72955   7.433   5.712   9.572  0.5004 -0.1767  0.3950
  541MOL0     C72956   7.541   5.667   9.640 -0.7698 -0.1524  0.0858
  541MOL0     C72957   7.576   5.536   9.650  0.0742  0.5578  1.2750
  541MOL0     O72958   7.684   5.485   9.715 -0.1823 -0.0755  0.4976
  541MOL0     C72959   7.746   5.570   9.816  0.3724  0.4096 -0.5800
  541MOL0     C72960   7.864   5.497   9.882  0.1227 -0.1390 -0.2105
  541MOL0     C72961   7.883   5.557  10.028 -0.4066 -0.0293 -0.3438
  541MOL0     C72962   7.950   5.693  10.037 -0.7775  0.2939  0.1119
  541MOL0     C72963   8.081   5.675   9.989 -0.1286 -0.4608 -0.3369
  541MOL0     C72964   8.191   5.664   9.960 -0.2171 -0.2556 -0.3173
  541MOL0     C72965   7.491   5.449   9.578 -1.2323  0.8746  0.5770
  541MOL0     C72966   7.380   5.485   9.508 -0.0922  0.3467  0.0402
  541MOL0     C72967   7.318   5.373   9.427 -1.2657 -0.6703  0.1498
  541MOL0     H72968   6.980   5.664   9.369 -0.0180 -1.3520 -1.5525
  541MOL0     H72969   6.781   5.764   9.295  1.0119  0.2986  1.8804
  541MOL0     H72970   6.624   5.881   9.144  0.7763 -2.7109  2.4072
  541MOL0     H72971   6.600   5.882   9.316 -0.4827  0.1860  0.3897
  541MOL0     H72972   6.522   6.112   9.121 -0.4748  1.1456  0.5158
  541MOL0     H72973   6.476   6.102   9.289 -3.7016  0.9909 -1.4285
  541MOL0     H72974   6.337   5.887   9.244 -0.0732  2.5943  3.3498
  541MOL0     H72975   6.367   5.921   9.070 -0.9182  0.0218 -0.0884
  541MOL0     H72976   6.232   6.111   9.292  1.3626  0.3468  1.1105
  541MOL0     H72977   6.275   6.165   9.132 -1.0971 -1.1252 -1.9565
  541MOL0     H72978   6.137   5.993   9.033 -1.6318 -0.6740  0.3146
  541MOL0     H72979   6.103   5.911   9.186  0.9067 -1.1406 -1.7017
  541MOL0     H72980   5.973   6.144   9.258 -2.4235 -3.9385  0.3374
  541MOL0     H72981   6.024   6.201   9.102  1.1455 -0.6909  0.1338
  541MOL0     H72982   5.831   5.964   9.157 -0.4495  0.2902 -0.4901
  541MOL0     H72983   5.899   6.017   8.999  2.6475  0.9801  0.3487
  541MOL0     H72984   5.713   6.174   9.193  2.4697 -0.1472  1.1874
  541MOL0     H72985   5.777   6.235   9.042 -0.6288 -0.5811  0.5901
  541MOL0     H72986   5.478   6.048   9.148  0.7469  1.2826  0.7389
  541MOL0     H72987   5.379   5.793   8.886  0.4554 -0.6589  0.3188
  541MOL0     H72988   5.311   5.875   9.020 -1.2431 -0.6826 -0.5868
  541MOL0     H72989   5.245   6.065   8.875  1.9761  0.3230 -0.7156
  541MOL0     H72990   5.276   5.975   8.733  2.3694  4.6606  1.6716
  541MOL0     H72991   5.101   5.871   8.954  3.2117 -0.1054 -0.4256
  541MOL0     H72992   5.100   5.807   8.791  0.7888 -0.6529  1.8327
  541MOL0     H72993   4.982   5.989   8.690 -0.4114  0.0265  0.8316
  541MOL0     H72994   5.014   6.090   8.834  1.1412 -1.1592  3.2100
  541MOL0     H72995   4.821   6.111   8.642 -0.4107 -0.4818 -0.7106
  541MOL0     H72996   4.611   6.223   8.620  1.4211  0.9908  2.2102
  541MOL0     H72997   4.016   5.986   8.688  0.7286  0.0283  1.5483
  541MOL0     H72998   3.787   6.083   8.723  0.0434  1.4394 -2.6334
  541MOL0     H72999   3.767   6.348   9.087 -1.1808 -1.1861 -0.1514
  541MOL0     H73000   3.793   6.491   8.967 -1.7105  0.4436 -2.8024
  541MOL0     H73001   3.533   6.360   9.033 -4.8073  3.3910 -0.0298
  541MOL0     H73002   3.575   6.527   9.078  0.1262  0.5993 -0.8035
  541MOL0     H73003   3.587   6.598   8.851 -1.4297  1.4745  1.0291
  541MOL0     H73004   3.556   6.429   8.789 -1.9197  0.2427 -1.5622
  541MOL0     H73005   3.348   6.573   8.781 -0.8890 -1.0182  1.2322
  541MOL0     H73006   3.370   6.593   8.957 -0.7234  0.3192  0.8480
  541MOL0     H73007   3.351   6.324   8.868 -0.4545  0.7602 -1.3552
  541MOL0     H73008   3.197   6.420   8.836 -0.9391  1.9659  0.6761
  541MOL0     H73009   3.339   6.447   9.110  0.3076 -0.4893 -1.1221
  541MOL0     H73010   3.175   6.469   9.066  1.2312  0.1087  0.2592
  541MOL0     H73011   3.321   6.247   9.176  0.4265  1.5526 -0.4316
  541MOL0     H73012   3.247   6.189   9.031  1.5417  1.4710 -1.1582
  541MOL0     H73013   3.077   6.321   9.257 -3.7820  1.1734 -1.5991
  541MOL0     H73014   3.023   6.258   9.101  0.5639 -2.1906 -0.4417
  541MOL0     H73015   3.985   6.370   8.988 -2.6653  0.3704 -0.7001
  541MOL0     H73016   4.202   6.260   8.933 -0.2114 -1.1815 -1.2668
  541MOL0     H73017   4.420   5.971   8.912  0.0380 -0.9835 -0.4144
  541MOL0     H73018   4.668   5.884   8.956  2.9191  1.7644  0.4248
  541MOL0     H73019   6.956   6.153   9.281 -1.7785 -0.3936  0.2070
  541MOL0     H73020   7.161   6.052   9.385 -0.2540 -0.1407  1.8721
  541MOL0     H73021   7.406   5.817   9.571  0.3724 -0.2073 -0.4179
  541MOL0     H73022   7.591   5.749   9.691 -0.2882 -2.4199  3.6327
  541MOL0     H73023   7.664   5.577   9.888  0.9416 -2.6793  0.5262
  541MOL0     H73024   7.786   5.665   9.780  0.7283  1.2175  1.8303
  541MOL0     H73025   7.949   5.513   9.815 -1.4378  2.9868 -1.6955
  541MOL0     H73026   7.834   5.394   9.899 -0.7291  0.1349 -0.0077
  541MOL0     H73027   7.949   5.485  10.078  2.1288  3.2391  1.4332
  541MOL0     H73028   7.785   5.551  10.077 -0.2486  3.5202  0.7025
  541MOL0     H73029   7.895   5.767   9.979 -4.4110 -1.9814  0.3403
  541MOL0     H73030   7.950   5.721  10.143  0.2371 -1.4300  0.6189
  541MOL0     H73031   8.288   5.653   9.916  0.7686  2.8506  0.8048
  541MOL0     H73032   7.524   5.347   9.596  0.2276  1.4374  1.2393
  541MOL0     H73033   7.342   5.274   9.467  3.6430 -0.0390 -0.6269
  541MOL0     H73034   7.210   5.387   9.425 -0.8982  3.6714  1.3916
  541MOL0     H73035   7.356   5.375   9.324 -1.5815  2.0550  0.0271
  542MOL0     O73036   3.992  10.854   0.485 -0.3591  0.3106  0.7131
  542MOL0     C73037   3.874  10.866   0.463  0.6027 -0.5615  0.0086
  542MOL0     O73038   3.819  10.980   0.402 -0.1629  0.1786 -0.0160
  542MOL0     C73039   3.908  11.074   0.367  0.0261  0.7982  0.1591
  542MOL0     C73040   3.981  11.062   0.249  0.5999 -0.6788  0.1266
  542MOL0     C73041   4.060  11.174   0.198  1.4245 -0.2169  0.0466
  542MOL0     C73042   4.077  11.283   0.278 -0.5176 -0.2249  0.0429
  542MOL0     O73043   4.154  11.386   0.226  0.4219 -0.0881  0.0397
  542MOL0     C73044   4.166  11.513   0.298  0.2573  0.8656 -0.5997
  542MOL0     C73045   4.252  11.615   0.226 -0.2447 -0.3635  0.4041
  542MOL0     C73046   4.373  11.536   0.159 -0.3271  0.7812 -0.8374
  542MOL0     C73047   4.487  11.634   0.124  0.4531  0.4158 -0.4180
  542MOL0     C73048   4.594  11.555   0.060 -0.8128 -0.4880 -0.2312
  542MOL0     C73049   4.716  11.649   0.020  0.7241  1.7053  0.5979
  542MOL0     C73050   4.811  11.573  -0.067  0.2939 -0.0382  0.8459
  542MOL0     C73051   4.955  11.588  -0.019  0.3936 -0.1552 -0.4078
  542MOL0     N73052   5.017  11.715  -0.068  0.1375  1.0638 -0.1692
  542MOL0     C73053   4.974  11.842  -0.025 -0.6926 -0.1148  0.2029
  542MOL0     C73054   5.002  11.923  -0.130  0.8366  0.2318 -1.1745
  542MOL0     C73055   4.953  12.064  -0.136  0.7307 -0.3907 -0.4019
  542MOL0     C73056   5.033  12.171  -0.057  0.1528  0.4642  0.2679
  542MOL0     C73057   4.998  12.314  -0.122 -0.3672  0.8182 -0.4995
  542MOL0     C73058   5.078  12.429  -0.050 -0.1787 -0.1108  0.9402
  542MOL0     O73059   5.109  12.532  -0.150  0.5106  0.1187  0.1672
  542MOL0     C73060   5.223  12.605  -0.133 -0.1277  0.5473 -0.1035
  542MOL0     C73061   5.221  12.739  -0.105  0.5285 -0.4129  0.0153
  542MOL0     C73062   5.344  12.813  -0.104 -0.6306  0.2121 -0.1315
  542MOL0     C73063   5.466  12.748  -0.104 -0.2294  0.0329  0.6013
  542MOL0     C73064   5.590  12.828  -0.119 -0.4384 -1.0954  0.2204
  542MOL0     O73065   5.579  12.960  -0.123 -0.4190 -0.6152  0.3030
  542MOL0     C73066   5.696  13.028  -0.087 -0.0777  0.3331  0.9944
  542MOL0     C73067   5.704  13.105   0.032  0.3519 -0.8968  0.0290
  542MOL0     C73068   5.823  13.174   0.052  0.3588 -0.0234 -0.2713
  542MOL0     C73069   5.923  13.183  -0.038  0.8802 -0.3780 -0.2841
  542MOL0     O73070   6.041  13.258  -0.033  0.4076  0.2326 -0.0527
  542MOL0     C73071   6.089  13.310   0.097 -0.5023 -0.0966 -0.2169
  542MOL0     C73072   6.217  13.399   0.078 -0.4479  0.1588 -0.6415
  542MOL0     C73073   6.183  13.534   0.003  0.5070  0.6948 -1.0725
  542MOL0     C73074   6.286  13.642   0.053  1.0068 -0.3083 -0.0301
  542MOL0     C73075   6.252  13.796   0.043  0.8060  0.3257 -0.6256
  542MOL0     C73076   6.096  13.820   0.096 -0.0095  0.0612  0.8072
  542MOL0     C73077   6.057  13.967   0.102 -0.1774 -0.0606 -0.3997
  542MOL0     C73078   5.918  13.992   0.153  0.2092  0.4538  0.1483
  542MOL0    Cl73079   5.900  13.957   0.329 -0.5140  0.0149  0.4154
  542MOL0     C73080   5.909  13.111  -0.160 -0.1496  0.7054 -0.3975
  542MOL0     C73081   5.796  13.032  -0.185  0.7757 -0.5335  0.7014
  542MOL0     O73082   5.694  12.772  -0.128 -0.5244 -0.1403  0.4540
  542MOL0     C73083   5.469  12.612  -0.131  0.3468 -0.5707 -0.4257
  542MOL0     C73084   5.346  12.546  -0.155  0.6032  0.5411 -0.5810
  542MOL0     N73085   5.085  11.853  -0.214 -0.4407 -0.8404 -0.2113
  542MOL0     N73086   5.099  11.732  -0.178 -0.6321 -0.1159 -0.9451
  542MOL0     C73087   4.011  11.295   0.404 -0.0123  0.0672 -0.1639
  542MOL0     C73088   3.922  11.188   0.444 -0.1785  0.0648 -0.2921
  542MOL0     C73089   3.784  10.758   0.506  0.1162  1.3539  0.2310
  542MOL0     C73090   3.651  10.793   0.523 -0.3954 -0.2041 -0.1061
  542MOL0     C73091   3.558  10.692   0.548  0.0383 -0.4290 -0.3379
  542MOL0     C73092   3.598  10.557   0.565 -0.6736  0.3334  0.7564
  542MOL0     O73093   3.489  10.476   0.588  1.0040  0.7666  0.2002
  542MOL0     C73094   3.490  10.330   0.625 -0.6852 -0.0012  1.2204
  542MOL0     C73095   3.349  10.271   0.617  0.0842 -0.8240  0.1737
  542MOL0     C73096   3.269  10.338   0.736  0.4222 -0.2449 -0.2892
  542MOL0     C73097   3.115  10.294   0.719  0.7470  1.1556  0.1032
  542MOL0     C73098   3.027  10.312   0.831 -0.5945 -1.5650  0.3645
  542MOL0     C73099   2.941  10.316   0.916  0.1121  0.5787 -0.3942
  542MOL0     C73100   3.739  10.524   0.556  0.4266  0.5753  0.3487
  542MOL0     C73101   3.834  10.624   0.525  1.2629  0.2518  0.3921
  542MOL0     C73102   3.982  10.576   0.503  0.3815  0.2747  0.3839
  542MOL0     H73103   3.965  10.983   0.176  1.1286  1.4485 -2.4816
  542MOL0     H73104   4.103  11.171   0.098  1.9939  2.0050  0.1870
  542MOL0     H73105   4.070  11.560   0.324  1.9861  2.8656  2.8591
  542MOL0     H73106   4.220  11.503   0.392 -0.6891  0.5653 -0.0726
  542MOL0     H73107   4.298  11.667   0.311 -0.4747 -0.1251  0.3835
  542MOL0     H73108   4.204  11.671   0.145 -0.4501  0.5466  1.1397
  542MOL0     H73109   4.341  11.496   0.063 -0.2832  5.6404 -3.1611
  542MOL0     H73110   4.406  11.455   0.225 -0.2213  0.1604 -1.6415
  542MOL0     H73111   4.439  11.706   0.058 -2.7378  0.0400  1.2871
  542MOL0     H73112   4.520  11.693   0.210 -1.9771  0.5295  0.5235
  542MOL0     H73113   4.622  11.473   0.127 -1.9060  0.0663  0.9557
  542MOL0     H73114   4.554  11.498  -0.024  0.7021 -1.4513 -0.3320
  542MOL0     H73115   4.667  11.735  -0.026 -2.7935 -0.3970 -0.0107
  542MOL0     H73116   4.762  11.684   0.113 -1.9882  1.8878  1.9784
  542MOL0     H73117   4.810  11.590  -0.176  1.5256  0.5157  0.9062
  542MOL0     H73118   4.799  11.466  -0.049 -2.4679  0.3163  1.5723
  542MOL0     H73119   4.974  11.580   0.088  1.0251  0.5139 -0.4606
  542MOL0     H73120   5.017  11.508  -0.059  0.1748 -0.3305 -0.3981
  542MOL0     H73121   4.915  11.879   0.058  0.6609  0.1121  1.0958
  542MOL0     H73122   4.956  12.100  -0.240  1.1765  2.0060  0.3840
  542MOL0     H73123   4.846  12.067  -0.111  0.8299  0.4357 -0.0574
  542MOL0     H73124   5.012  12.160   0.050  0.3210  0.6876  0.3259
  542MOL0     H73125   5.142  12.158  -0.062  0.2665  1.7209 -1.4745
  542MOL0     H73126   4.891  12.338  -0.112 -0.3396  0.8064 -0.1472
  542MOL0     H73127   5.015  12.304  -0.229 -0.6027  1.6211 -0.6187
  542MOL0     H73128   5.168  12.397   0.002 -1.0953  0.4599  2.9700
  542MOL0     H73129   5.026  12.483   0.030 -1.8167 -0.3931  0.1094
  542MOL0     H73130   5.132  12.793  -0.072  1.5126 -0.0840  2.3191
  542MOL0     H73131   5.343  12.921  -0.094  4.0044  0.3941  0.3055
  542MOL0     H73132   5.621  13.102   0.101  0.0402 -0.5312 -0.3261
  542MOL0     H73133   5.821  13.231   0.144 -2.1451  0.4108 -0.5303
  542MOL0     H73134   6.011  13.366   0.149 -0.2273  1.4098 -1.3492
  542MOL0     H73135   6.133  13.234   0.162  3.0034  0.8350 -1.2501
  542MOL0     H73136   6.262  13.421   0.176 -1.3534  0.5876 -0.3131
  542MOL0     H73137   6.285  13.337   0.018  1.3335  1.6273 -0.2466
  542MOL0     H73138   6.199  13.516  -0.104  3.9025  0.1697 -0.5974
  542MOL0     H73139   6.082  13.567   0.031  0.1031  0.1867 -1.8984
  542MOL0     H73140   6.380  13.622   0.001  1.3837  1.4961 -0.0818
  542MOL0     H73141   6.308  13.617   0.157  0.0413  0.5160  0.3894
  542MOL0     H73142   6.263  13.843  -0.055  0.8946  3.5011  0.7985
  542MOL0     H73143   6.311  13.853   0.115  0.1032  0.4345 -0.1324
  542MOL0     H73144   6.024  13.774   0.028  0.1021  1.1093 -0.0442
  542MOL0     H73145   6.088  13.785   0.199 -0.9207  1.5378  1.2781
  542MOL0     H73146   6.050  14.008   0.001  2.1197 -1.8728 -1.3937
  542MOL0     H73147   6.134  14.019   0.159  2.1342 -2.9324 -0.6269
  542MOL0     H73148   5.903  14.099   0.137  1.1553  0.5852  0.0687
  542MOL0     H73149   5.842  13.932   0.102  0.1988  1.8445 -1.5598
  542MOL0     H73150   5.995  13.106  -0.227  0.1062  0.0467 -0.0293
  542MOL0     H73151   5.784  12.979  -0.279  0.4076  1.9257 -0.7489
  542MOL0     H73152   5.549  12.542  -0.155 -0.9860 -2.4378  0.3021
  542MOL0     H73153   5.345  12.446  -0.197  2.4841  0.9343 -1.6688
  542MOL0     H73154   4.019  11.380   0.471  0.6375  0.9880 -1.3477
  542MOL0     H73155   3.862  11.197   0.533 -0.9464  0.4172 -0.8330
  542MOL0     H73156   3.609  10.892   0.513  0.3073  0.0798 -0.3161
  542MOL0     H73157   3.453  10.719   0.556 -0.0722 -1.0705  0.5108
  542MOL0     H73158   3.541  10.317   0.721  2.3266  1.7745  0.0013
  542MOL0     H73159   3.555  10.275   0.556 -0.1026 -0.5620  2.1844
  542MOL0     H73160   3.357  10.162   0.629  3.8126 -0.5337  1.4648
  542MOL0     H73161   3.303  10.299   0.521  0.8271  1.3479  0.4042
  542MOL0     H73162   3.272  10.448   0.736 -2.0850 -0.1099 -1.5042
  542MOL0     H73163   3.310  10.301   0.831 -0.5059  2.3298  1.2523
  542MOL0     H73164   3.079  10.349   0.632 -0.5905 -0.5528 -0.4789
  542MOL0     H73165   3.105  10.193   0.679  0.7855  1.5462 -0.9113
  542MOL0     H73166   2.859  10.310   0.985 -1.5003  0.4629 -2.2457
  542MOL0     H73167   3.778  10.423   0.567 -1.8955 -0.3166  0.8306
  542MOL0     H73168   4.055  10.631   0.562  1.1525  1.7071 -1.7789
  542MOL0     H73169   3.998  10.475   0.539  1.5270  0.5417  0.6440
  542MOL0     H73170   3.997  10.582   0.394  0.5181  2.2504  0.4690
  543MOL0     O73171   8.778   2.316   5.512 -0.2399 -0.2969  0.1053
  543MOL0     C73172   8.896   2.286   5.523 -0.0509  0.4813  0.2776
  543MOL0     O73173   9.003   2.364   5.515 -0.0080  0.6404 -0.0246
  543MOL0     C73174   8.985   2.480   5.447 -0.6015  0.7403  0.3942
  543MOL0     C73175   8.928   2.593   5.492  0.6916 -0.3365 -0.8696
  543MOL0     C73176   8.919   2.704   5.406  0.1484 -0.1387 -0.5694
  543MOL0     C73177   8.962   2.696   5.276 -0.5344 -0.7505 -0.6407
  543MOL0     O73178   8.939   2.817   5.211  0.0721 -0.1543 -0.4306
  543MOL0     C73179   8.941   2.815   5.068  0.1699  0.3446 -0.1504
  543MOL0     C73180   8.970   2.959   5.034  0.7615 -0.5926 -0.0240
  543MOL0     C73181   8.869   3.053   5.099  0.1147  0.1441 -0.7291
  543MOL0     C73182   8.884   3.199   5.049 -0.5245 -0.0540 -0.3978
  543MOL0     C73183   8.775   3.310   5.089 -0.2851  0.2691 -0.1334
  543MOL0     C73184   8.623   3.271   5.078 -0.7751 -0.6813 -0.5942
  543MOL0     C73185   8.568   3.237   5.210 -0.8446  0.7403 -1.2562
  543MOL0     C73186   8.423   3.210   5.205 -0.2249  0.6914 -0.7142
  543MOL0     N73187   8.391   3.067   5.185 -0.7400  0.0410  0.3359
  543MOL0     C73188   8.268   3.025   5.155  0.3096  0.1159 -0.7207
  543MOL0     C73189   8.276   2.892   5.135  0.3093  0.0108 -0.2315
  543MOL0     C73190   8.155   2.801   5.092  0.3769 -0.4618  1.0129
  543MOL0     C73191   8.041   2.784   5.195 -0.1304  0.1270 -0.4409
  543MOL0     C73192   7.934   2.686   5.135 -0.4792 -0.6110  0.9415
  543MOL0     C73193   7.844   2.616   5.234  0.4218  0.4177 -0.7921
  543MOL0     O73194   7.914   2.532   5.328  0.3288  0.4451 -0.2012
  543MOL0     C73195   7.837   2.452   5.410  0.3147 -0.7754  0.8341
  543MOL0     C73196   7.905   2.363   5.492  0.5353 -0.3949 -0.9981
  543MOL0     C73197   7.841   2.274   5.578  0.3008 -0.7972  1.5446
  543MOL0     C73198   7.702   2.262   5.566  0.7264 -0.1321 -0.4905
  543MOL0     C73199   7.630   2.168   5.638  0.5483  0.0548  0.4959
  543MOL0     O73200   7.498   2.148   5.606 -0.5565  0.1864  0.3305
  543MOL0     C73201   7.433   2.038   5.662  0.7663  0.3125 -0.1507
  543MOL0     C73202   7.436   1.915   5.593 -0.2274 -0.1674  0.0159
  543MOL0     C73203   7.381   1.805   5.649 -0.2823 -0.3816  0.1183
  543MOL0     C73204   7.305   1.805   5.769 -1.0016  0.6833 -0.3158
  543MOL0     O73205   7.245   1.693   5.822  0.0599  0.6546 -0.2619
  543MOL0     C73206   7.133   1.632   5.754 -0.9400 -0.2007  0.3132
  543MOL0     C73207   7.073   1.521   5.846  0.4617 -0.4922 -0.2698
  543MOL0     C73208   7.023   1.578   5.981 -0.6213 -0.7436  0.3223
  543MOL0     C73209   6.959   1.462   6.059  0.8370  0.3390 -0.5084
  543MOL0     C73210   7.063   1.369   6.138 -0.2224  0.1133  0.9389
  543MOL0     C73211   7.117   1.439   6.261  0.3337 -0.4642  0.0765
  543MOL0     C73212   7.236   1.370   6.321  0.1618  0.5116  0.1156
  543MOL0     C73213   7.256   1.430   6.456 -0.1611  0.2489  0.0633
  543MOL0    Cl73214   7.392   1.356   6.535 -0.3962  0.0358 -0.6682
  543MOL0     C73215   7.305   1.925   5.845  0.1827  0.4435 -0.5492
  543MOL0     C73216   7.367   2.040   5.787 -0.3902  0.1668  0.4110
  543MOL0     O73217   7.692   2.095   5.720 -0.5424  0.1284 -0.3902
  543MOL0     C73218   7.634   2.359   5.486 -0.2506 -0.2935 -0.5063
  543MOL0     C73219   7.697   2.451   5.407 -0.1150 -0.3730 -0.4028
  543MOL0     N73220   8.400   2.852   5.159 -0.4004 -0.2267 -0.5624
  543MOL0     N73221   8.472   2.957   5.189 -0.8889 -0.1405  0.3715
  543MOL0     C73222   9.027   2.582   5.231  0.5503  0.2545  1.0043
  543MOL0     C73223   9.034   2.476   5.312 -0.3160 -0.3903 -0.5562
  543MOL0     C73224   8.921   2.139   5.564  0.0878 -0.1205  0.7132
  543MOL0     C73225   9.016   2.120   5.663 -0.0991  0.7120  0.3791
  543MOL0     C73226   9.045   1.987   5.696  0.0989  0.1484 -1.2714
  543MOL0     C73227   8.969   1.875   5.653 -0.2646 -0.7303 -0.5980
  543MOL0     O73228   8.974   1.747   5.698 -0.3064  0.2315 -0.4719
  543MOL0     C73229   9.055   1.704   5.808 -0.0507  0.8657 -0.7236
  543MOL0     C73230   8.957   1.692   5.928 -0.4289  0.2440 -0.5890
  543MOL0     C73231   8.856   1.572   5.901  0.4727 -0.8884 -0.8159
  543MOL0     C73232   8.739   1.571   5.996 -1.1945 -0.0141  0.6200
  543MOL0     C73233   8.667   1.698   6.023  0.6305  0.3479 -0.1443
  543MOL0     C73234   8.622   1.801   6.060 -0.7858 -0.4513 -0.6579
  543MOL0     C73235   8.874   1.892   5.558  0.8376 -0.5949 -0.7805
  543MOL0     C73236   8.844   2.027   5.506 -0.0223  0.9602 -0.6142
  543MOL0     C73237   8.732   2.043   5.409  0.6260 -0.2190 -0.1402
  543MOL0     H73238   8.891   2.589   5.594 -0.2593  2.8612 -0.9904
  543MOL0     H73239   8.878   2.801   5.432  2.5393  0.5754  0.7878
  543MOL0     H73240   9.007   2.743   5.018 -0.0888 -1.2489  1.6978
  543MOL0     H73241   8.837   2.799   5.037 -0.8232  2.6364  1.7165
  543MOL0     H73242   8.980   2.975   4.926 -0.2235  1.9675  0.1810
  543MOL0     H73243   9.071   2.977   5.072  0.8899 -1.3012 -0.0162
  543MOL0     H73244   8.872   3.055   5.209 -0.9816  3.8739 -0.6162
  543MOL0     H73245   8.769   3.027   5.065 -0.6652  1.0485  0.7489
  543MOL0     H73246   8.982   3.237   5.080 -1.0858  0.9556  0.1993
  543MOL0     H73247   8.892   3.202   4.940  1.5460 -3.0391 -0.4553
  543MOL0     H73248   8.796   3.332   5.194 -1.0804 -0.4668  0.1881
  543MOL0     H73249   8.789   3.404   5.035 -5.1580  0.9782 -0.6174
  543MOL0     H73250   8.575   3.356   5.027  3.3647  0.6687 -2.7947
  543MOL0     H73251   8.613   3.178   5.021  0.9073 -1.0554 -0.3508
  543MOL0     H73252   8.577   3.319   5.282 -0.2446 -0.3396 -0.0717
  543MOL0     H73253   8.630   3.155   5.246 -1.4224  0.3430 -1.1532
  543MOL0     H73254   8.368   3.254   5.288 -1.2288  2.0122 -2.0142
  543MOL0     H73255   8.383   3.274   5.126  0.0574 -0.9098 -2.2222
  543MOL0     H73256   8.183   3.089   5.132 -1.1951 -1.4483  0.2567
  543MOL0     H73257   8.117   2.839   4.996  1.8068  0.8008  0.8966
  543MOL0     H73258   8.206   2.706   5.074 -0.6056 -0.5158 -2.2708
  543MOL0     H73259   8.087   2.744   5.285 -4.5914 -1.4061  1.4332
  543MOL0     H73260   7.994   2.879   5.220  1.8272  0.6311  1.5930
  543MOL0     H73261   7.990   2.606   5.085 -2.8343 -1.2173 -0.9414
  543MOL0     H73262   7.880   2.749   5.064  0.7373  1.5369  1.8308
  543MOL0     H73263   7.776   2.553   5.176 -0.4372 -0.7733  1.4187
  543MOL0     H73264   7.793   2.695   5.291  0.2456 -0.1043 -0.2184
  543MOL0     H73265   8.012   2.379   5.502  0.0614  2.8374  0.1311
  543MOL0     H73266   7.900   2.200   5.632  0.7350 -1.8556 -0.2825
  543MOL0     H73267   7.502   1.915   5.507  1.3722 -3.4479  1.0615
  543MOL0     H73268   7.401   1.718   5.587  1.8239  0.0670  0.0950
  543MOL0     H73269   7.064   1.709   5.717  2.6243  2.5192 -1.3407
  543MOL0     H73270   7.165   1.574   5.667 -0.5182 -1.1531  1.0902
  543MOL0     H73271   6.986   1.473   5.801  0.2062 -0.4865  0.2173
  543MOL0     H73272   7.156   1.451   5.864 -0.5054 -1.8303 -0.8560
  543MOL0     H73273   7.107   1.615   6.041 -1.3930 -0.6098  1.3568
  543MOL0     H73274   6.950   1.658   5.963 -0.9560 -1.4116 -1.4343
  543MOL0     H73275   6.904   1.399   5.989  0.8985 -0.6567  0.3073
  543MOL0     H73276   6.896   1.504   6.138  0.5341  0.8728 -1.0261
  543MOL0     H73277   7.141   1.329   6.072 -0.5412  2.0935 -0.7452
  543MOL0     H73278   7.009   1.281   6.174 -0.7300 -1.3136 -2.8002
  543MOL0     H73279   7.145   1.541   6.234 -0.1310 -0.6557 -1.2017
  543MOL0     H73280   7.038   1.441   6.337  0.9164  0.5894  0.6714
  543MOL0     H73281   7.322   1.378   6.253 -0.5548 -3.9179 -1.6498
  543MOL0     H73282   7.213   1.264   6.337 -0.5992  0.7178  0.4268
  543MOL0     H73283   7.273   1.537   6.445  0.8177  0.0954  0.0536
  543MOL0     H73284   7.164   1.414   6.514 -3.1704 -1.9422 -4.6627
  543MOL0     H73285   7.260   1.915   5.943  2.2326  0.6509  0.4693
  543MOL0     H73286   7.387   2.132   5.842 -1.6570  1.2016 -0.7917
  543MOL0     H73287   7.527   2.354   5.500 -0.2106 -1.0029 -0.4302
  543MOL0     H73288   7.641   2.524   5.349  1.8454  2.5142  1.0677
  543MOL0     H73289   9.072   2.583   5.132 -1.8147  1.9333 -0.1447
  543MOL0     H73290   9.095   2.392   5.281 -1.2817 -1.2322 -0.2399
  543MOL0     H73291   9.062   2.207   5.710  1.5230 -0.3724  0.8987
  543MOL0     H73292   9.119   1.970   5.773 -0.2103  1.2585 -0.6984
  543MOL0     H73293   9.144   1.763   5.833  1.1945 -1.3171  0.2922
  543MOL0     H73294   9.091   1.605   5.779 -2.2900 -0.6739  1.3893
  543MOL0     H73295   8.909   1.788   5.944  0.0444  0.7611 -2.0997
  543MOL0     H73296   9.015   1.660   6.015 -1.8670 -1.1262 -0.0874
  543MOL0     H73297   8.900   1.472   5.910 -1.6335 -1.7473  0.7101
  543MOL0     H73298   8.809   1.580   5.803 -0.3208 -0.4786 -0.4120
  543MOL0     H73299   8.664   1.501   5.955  1.1434 -1.7680 -0.9190
  543MOL0     H73300   8.778   1.523   6.086  0.5177 -1.5274 -0.8387
  543MOL0     H73301   8.578   1.885   6.110 -1.5227 -1.7112  0.8871
  543MOL0     H73302   8.825   1.804   5.517  2.1895 -2.0873  0.6304
  543MOL0     H73303   8.712   2.148   5.386 -1.1898 -0.4611  0.1720
  543MOL0     H73304   8.732   1.976   5.323 -2.8341 -1.1422  0.4128
  543MOL0     H73305   8.644   2.004   5.460  0.5930  0.2239  0.1486
  544MOL0     O73306   0.129   4.830   3.976 -0.0941 -0.8402 -0.2363
  544MOL0     C73307   0.117   4.764   4.080 -0.2387 -0.4875  0.5274
  544MOL0     O73308   0.219   4.711   4.150 -0.1392  0.2219  0.2284
  544MOL0     C73309   0.346   4.754   4.108 -0.4068 -0.9105  0.3190
  544MOL0     C73310   0.408   4.696   4.001  0.3086  0.0646  0.3680
  544MOL0     C73311   0.540   4.751   3.960  0.1754 -0.1646 -0.4289
  544MOL0     C73312   0.610   4.849   4.027 -1.1993  0.2639 -0.0386
  544MOL0     O73313   0.739   4.878   3.980  0.0044 -0.4402 -0.0690
  544MOL0     C73314   0.764   5.009   3.969  0.2874  0.8898  0.1100
  544MOL0     C73315   0.876   5.045   3.858  0.2440 -0.1980 -0.3167
  544MOL0     C73316   0.819   4.980   3.729 -0.6149 -0.2554  1.3861
  544MOL0     C73317   0.896   5.011   3.604 -0.4829  0.3486  0.7871
  544MOL0     C73318   0.821   5.006   3.471  0.2168 -0.0751 -0.2028
  544MOL0     C73319   0.728   5.130   3.455  1.1342  0.1489 -0.7534
  544MOL0     C73320   0.648   5.138   3.322 -0.2858  0.3559 -1.5372
  544MOL0     C73321   0.549   5.248   3.326 -0.0678  1.0334 -0.4512
  544MOL0     N73322   0.585   5.386   3.286  0.7755  0.1954 -0.1183
  544MOL0     C73323   0.689   5.434   3.215  0.6685  0.2540 -0.3983
  544MOL0     C73324   0.670   5.567   3.209  0.5350  0.1430  0.4765
  544MOL0     C73325   0.747   5.670   3.125  0.6636  1.1049  0.0434
  544MOL0     C73326   0.849   5.614   3.020 -1.1879  0.4924  0.6991
  544MOL0     C73327   0.794   5.558   2.892  0.5853  0.0867 -0.4125
  544MOL0     C73328   0.903   5.510   2.797 -0.1227  0.1562  0.1438
  544MOL0     O73329   0.965   5.621   2.731 -0.3417 -0.5095  0.4804
  544MOL0     C73330   1.096   5.620   2.681 -1.2080  0.9762  0.2372
  544MOL0     C73331   1.154   5.503   2.618 -0.8296  0.4154 -0.5053
  544MOL0     C73332   1.283   5.514   2.566 -0.2206  0.4916  0.2800
  544MOL0     C73333   1.365   5.631   2.590  0.3329  0.1114  0.0874
  544MOL0     C73334   1.514   5.642   2.557  0.9531  0.0295 -1.3582
  544MOL0     O73335   1.560   5.587   2.436 -0.5238 -0.3862 -1.0479
  544MOL0     C73336   1.699   5.584   2.405 -0.2303  0.1316 -0.0587
  544MOL0     C73337   1.741   5.596   2.273 -0.2888 -0.4192  0.8514
  544MOL0     C73338   1.880   5.610   2.238  0.4080  0.2509 -0.3177
  544MOL0     C73339   1.973   5.617   2.335 -0.5883 -0.2610 -0.0670
  544MOL0     O73340   2.107   5.624   2.301  0.8821 -0.0616  0.1297
  544MOL0     C73341   2.203   5.668   2.398 -0.1226  0.4030 -0.3945
  544MOL0     C73342   2.335   5.673   2.326  1.1285 -0.9068  0.5987
  544MOL0     C73343   2.428   5.754   2.411 -0.7024 -0.3338  0.3890
  544MOL0     C73344   2.568   5.784   2.343 -0.8922  0.3375  0.1777
  544MOL0     C73345   2.638   5.880   2.440 -0.1722  1.0750  0.1527
  544MOL0     C73346   2.690   5.814   2.569  0.7128 -0.3272  0.2009
  544MOL0     C73347   2.801   5.709   2.540  0.9194  0.3220 -0.2262
  544MOL0     C73348   2.817   5.596   2.638 -0.1404  0.9475 -0.3781
  544MOL0    Cl73349   2.987   5.534   2.634 -0.6617  0.1121 -0.0331
  544MOL0     C73350   1.933   5.596   2.468  0.7771 -0.6188  0.0288
  544MOL0     C73351   1.801   5.579   2.502 -0.4268  0.0635 -0.9269
  544MOL0     O73352   1.578   5.689   2.656 -0.0963 -0.2704 -0.4273
  544MOL0     C73353   1.303   5.741   2.652  0.8381 -1.3026 -0.1657
  544MOL0     C73354   1.170   5.737   2.681  0.2262 -0.5019 -0.8921
  544MOL0     N73355   0.544   5.594   3.257  0.2821  0.3061 -0.6370
  544MOL0     N73356   0.500   5.484   3.312 -0.1974 -0.4145 -1.0634
  544MOL0     C73357   0.538   4.902   4.131  0.4216 -0.7468 -0.8193
  544MOL0     C73358   0.408   4.861   4.171 -0.7020 -0.3405  0.7134
  544MOL0     C73359  -0.018   4.739   4.119  0.2177  0.3676 -0.6370
  544MOL0     C73360  -0.064   4.608   4.096 -0.8205 -0.0467  0.9785
  544MOL0     C73361  -0.185   4.572   4.149  0.2091  0.3083 -0.3104
  544MOL0     C73362  -0.268   4.661   4.225  0.0668 -0.0717 -0.7712
  544MOL0     O73363  -0.384   4.609   4.269 -0.2556 -0.8548 -0.8369
  544MOL0     C73364  -0.490   4.686   4.308  0.1392 -0.0461 -1.2324
  544MOL0     C73365  -0.591   4.604   4.395 -0.2461 -0.0602  0.7949
  544MOL0     C73366  -0.633   4.462   4.335  0.2321 -0.9614  0.9205
  544MOL0     C73367  -0.760   4.493   4.247  0.0418  0.7355 -0.0609
  544MOL0     C73368  -0.880   4.511   4.327 -0.0262  0.4253  0.5937
  544MOL0     C73369  -0.973   4.529   4.399 -0.4977  0.6322  0.4116
  544MOL0     C73370  -0.223   4.791   4.250  0.9290  0.3933 -0.3805
  544MOL0     C73371  -0.104   4.836   4.190  0.9251  0.0483  0.5938
  544MOL0     C73372  -0.074   4.974   4.196  0.1385  0.2603 -0.1883
  544MOL0     H73373   0.367   4.612   3.946  0.0703 -1.7336  3.1314
  544MOL0     H73374   0.582   4.696   3.877  1.6310 -2.0503  1.4467
  544MOL0     H73375   0.670   5.059   3.941 -1.0822 -0.9915  1.0967
  544MOL0     H73376   0.787   5.059   4.064 -0.1838 -0.0610  0.7314
  544MOL0     H73377   0.969   4.991   3.873  0.9798  0.5513 -1.9093
  544MOL0     H73378   0.907   5.149   3.843 -1.1075  0.5211  1.4825
  544MOL0     H73379   0.715   5.007   3.707 -0.1250 -0.6464 -1.8461
  544MOL0     H73380   0.819   4.871   3.734  3.6660 -0.6917 -2.3335
  544MOL0     H73381   0.943   5.110   3.610  1.6574 -0.3833 -1.9108
  544MOL0     H73382   0.979   4.942   3.589  1.2496  2.1506  1.6732
  544MOL0     H73383   0.891   4.987   3.389  0.0728  1.0251 -0.5862
  544MOL0     H73384   0.765   4.912   3.460 -0.1804 -0.0648  1.4978
  544MOL0     H73385   0.655   5.140   3.535  2.4961 -0.6638  0.6573
  544MOL0     H73386   0.787   5.221   3.466 -0.8498  1.4791 -0.7549
  544MOL0     H73387   0.592   5.045   3.313  0.3950 -0.4010  1.1604
  544MOL0     H73388   0.713   5.150   3.234 -2.5894  3.5710 -3.0339
  544MOL0     H73389   0.470   5.218   3.256  0.2108  1.0563 -0.7803
  544MOL0     H73390   0.498   5.250   3.422 -0.2018  0.8560 -0.5184
  544MOL0     H73391   0.772   5.375   3.176  1.2552 -0.2348  1.5181
  544MOL0     H73392   0.674   5.725   3.066 -3.3212 -1.4526  2.1632
  544MOL0     H73393   0.798   5.728   3.202 -1.0562  1.2488  1.1241
  544MOL0     H73394   0.917   5.697   2.997 -1.8981 -0.0604 -4.4509
  544MOL0     H73395   0.911   5.537   3.068 -0.1998 -0.2689 -1.6678
  544MOL0     H73396   0.751   5.646   2.844  0.7476  0.3162 -0.1368
  544MOL0     H73397   0.708   5.491   2.905 -0.3442  0.8965 -2.0686
  544MOL0     H73398   0.858   5.457   2.713 -0.3208  0.1526  0.2520
  544MOL0     H73399   0.981   5.452   2.848 -1.8235 -1.0367  1.5151
  544MOL0     H73400   1.105   5.407   2.605  0.8261 -0.7252  1.1231
  544MOL0     H73401   1.328   5.423   2.527 -2.6429 -1.6548  2.0918
  544MOL0     H73402   1.667   5.604   2.194  0.5972 -4.2304 -0.5904
  544MOL0     H73403   1.905   5.609   2.132  0.4287 -1.1571 -0.3125
  544MOL0     H73404   2.195   5.766   2.446  3.2342  0.8182 -0.4230
  544MOL0     H73405   2.210   5.596   2.480  1.4819 -2.0823 -2.5739
  544MOL0     H73406   2.377   5.572   2.326  1.0016 -0.9993 -1.6240
  544MOL0     H73407   2.324   5.717   2.227 -0.0421 -1.0073  0.6757
  544MOL0     H73408   2.382   5.851   2.432 -1.2772 -0.2822 -1.0002
  544MOL0     H73409   2.443   5.701   2.506 -2.4553  0.4749  1.1461
  544MOL0     H73410   2.548   5.830   2.246  2.9799  0.1672 -0.8813
  544MOL0     H73411   2.622   5.689   2.333 -1.6041 -0.0757  0.1985
  544MOL0     H73412   2.573   5.966   2.458 -3.3319 -1.0544 -0.4350
  544MOL0     H73413   2.717   5.933   2.386 -0.2772  3.0101  1.7778
  544MOL0     H73414   2.727   5.888   2.640 -1.8702  1.2448  0.0301
  544MOL0     H73415   2.606   5.768   2.623  0.5208  1.1456  1.1933
  544MOL0     H73416   2.892   5.769   2.549  0.3781  1.0907  0.2583
  544MOL0     H73417   2.802   5.660   2.442  0.2517 -3.2285  1.3915
  544MOL0     H73418   2.793   5.634   2.738 -1.7835 -0.2785 -0.2689
  544MOL0     H73419   2.746   5.522   2.601 -0.3897 -0.4964  2.6784
  544MOL0     H73420   2.004   5.583   2.548  0.0564 -0.4445  0.7072
  544MOL0     H73421   1.768   5.553   2.602  0.2471  0.6339 -0.5494
  544MOL0     H73422   1.353   5.834   2.674 -1.3691 -0.1698  0.3150
  544MOL0     H73423   1.113   5.822   2.717  0.2335 -0.5525 -0.7620
  544MOL0     H73424   0.580   4.980   4.195  0.1580 -2.3884  1.4655
  544MOL0     H73425   0.353   4.921   4.244 -0.1177  1.6000 -0.3783
  544MOL0     H73426  -0.016   4.524   4.047 -2.0432 -1.7574  2.5959
  544MOL0     H73427  -0.226   4.471   4.146 -0.9087  0.6632  1.4784
  544MOL0     H73428  -0.545   4.729   4.224 -1.9998  2.2625  1.1603
  544MOL0     H73429  -0.460   4.772   4.368  0.4908 -0.7053 -0.4369
  544MOL0     H73430  -0.676   4.669   4.416 -0.1460  0.9166 -1.4716
  544MOL0     H73431  -0.545   4.570   4.488 -0.6712  1.1662  1.4783
  544MOL0     H73432  -0.645   4.377   4.402  2.2275 -4.1717 -2.3748
  544MOL0     H73433  -0.550   4.425   4.273  1.4772  0.8304  1.4469
  544MOL0     H73434  -0.752   4.585   4.188 -0.4354  0.1973 -0.9907
  544MOL0     H73435  -0.781   4.412   4.176 -0.3358  0.9262 -0.1658
  544MOL0     H73436  -1.068   4.564   4.435  0.9210  3.1613  1.9542
  544MOL0     H73437  -0.281   4.869   4.297  3.2263  1.4278  0.8503
  544MOL0     H73438  -0.148   5.042   4.152  1.0890  1.3669 -0.1429
  544MOL0     H73439  -0.075   5.005   4.301 -0.3596 -0.3520 -0.0091
  544MOL0     H73440   0.019   4.998   4.143 -1.1737 -1.1597 -3.3583
  545MOL0     O73441   1.411  10.131  11.113 -0.6026  0.3506 -0.5610
  545MOL0     C73442   1.405  10.192  11.216 -0.5830  0.0534 -0.3785
  545MOL0     O73443   1.290  10.243  11.275 -0.4279  0.4084  0.2159
  545MOL0     C73444   1.185  10.282  11.207 -0.3937  0.2338 -0.6541
  545MOL0     C73445   1.108  10.204  11.117  0.6721 -0.3771 -0.5546
  545MOL0     C73446   1.006  10.260  11.049  1.0388 -0.7562 -0.6944
  545MOL0     C73447   0.965  10.392  11.071  0.2331  0.5152 -1.2780
  545MOL0     O73448   0.876  10.445  10.986  0.4012  0.2218 -0.4058
  545MOL0     C73449   0.888  10.584  10.955  0.6497  0.3658  0.0484
  545MOL0     C73450   0.787  10.626  10.851  0.0092  0.4209  0.1903
  545MOL0     C73451   0.808  10.771  10.798  0.5236 -0.3703 -0.3300
  545MOL0     C73452   0.711  10.816  10.685  0.4265  0.1602 -0.6021
  545MOL0     C73453   0.558  10.816  10.738  0.7089  0.0932 -0.7860
  545MOL0     C73454   0.464  10.848  10.622  0.3599  0.3442  0.4809
  545MOL0     C73455   0.323  10.801  10.654 -0.5434 -0.2723  0.4083
  545MOL0     C73456   0.225  10.852  10.555  0.4097 -0.5097 -0.0618
  545MOL0     N73457   0.184  10.999  10.580 -0.5235  0.6010  0.9444
  545MOL0     C73458   0.086  11.033  10.672 -1.2550 -0.3172 -0.3836
  545MOL0     C73459   0.073  11.173  10.662 -0.0806  0.3889 -0.2155
  545MOL0     C73460  -0.009  11.254  10.756 -0.1256  0.1746 -0.3520
  545MOL0     C73461   0.057  11.396  10.794  0.1506  0.3551 -1.1613
  545MOL0     C73462   0.182  11.385  10.887 -0.5758  0.7531  0.2069
  545MOL0     C73463   0.296  11.301  10.833  0.3251 -0.0616  0.9418
  545MOL0     O73464   0.398  11.290  10.929  0.3844  0.1536 -0.4733
  545MOL0     C73465   0.524  11.244  10.894  0.0789 -0.9483  0.3672
  545MOL0     C73466   0.607  11.216  11.000 -0.0927 -0.2208  1.0163
  545MOL0     C73467   0.739  11.180  10.975  0.4446 -0.0115  0.0595
  545MOL0     C73468   0.794  11.172  10.844 -0.3442  0.3130 -0.0809
  545MOL0     C73469   0.942  11.144  10.826 -0.0064  0.4618  0.3699
  545MOL0     O73470   0.980  11.136  10.703 -1.0510  0.9667  0.4453
  545MOL0     C73471   1.112  11.102  10.680  0.2885  0.0800  0.8365
  545MOL0     C73472   1.205  11.205  10.706 -0.1245 -0.2861 -1.1746
  545MOL0     C73473   1.344  11.169  10.711  0.4878  0.0201 -0.3948
  545MOL0     C73474   1.386  11.035  10.688  0.7843  0.0739  0.5471
  545MOL0     O73475   1.524  11.008  10.686  1.0449  0.5217  0.2231
  545MOL0     C73476   1.577  10.899  10.615 -0.0559  0.2138 -0.0775
  545MOL0     C73477   1.704  10.942  10.547 -0.8146  0.4649  0.6951
  545MOL0     C73478   1.812  10.924  10.656  0.4533  0.6210  0.5847
  545MOL0     C73479   1.952  10.962  10.596  0.3203 -0.6538 -0.4199
  545MOL0     C73480   2.054  10.966  10.710  0.1583 -0.2511 -0.4020
  545MOL0     C73481   2.045  11.100  10.779 -0.1602 -0.1815  1.0661
  545MOL0     C73482   2.177  11.157  10.836  0.2713 -0.5143 -0.3891
  545MOL0     C73483   2.148  11.274  10.935  1.0530 -1.2266  0.5604
  545MOL0    Cl73484   2.070  11.213  11.076  0.0224  0.0970  0.4922
  545MOL0     C73485   1.294  10.943  10.650  0.1756  0.3343 -0.4348
  545MOL0     C73486   1.156  10.973  10.648 -0.9997  0.0292  0.3248
  545MOL0     O73487   1.012  11.131  10.923 -0.0208  0.2300 -0.1575
  545MOL0     C73488   0.708  11.191  10.742  0.3545 -0.2615  0.2941
  545MOL0     C73489   0.574  11.223  10.762  0.4194  0.1428 -0.3264
  545MOL0     N73490   0.162  11.223  10.568 -0.4199  0.4445 -0.6945
  545MOL0     N73491   0.228  11.116  10.521 -0.2957  0.0141 -0.7689
  545MOL0     C73492   1.044  10.471  11.155 -0.3687  0.1106 -0.2118
  545MOL0     C73493   1.153  10.410  11.226  0.1341 -0.3726  0.3090
  545MOL0     C73494   1.532  10.209  11.295  0.6831 -0.4856  0.9013
  545MOL0     C73495   1.526  10.197  11.428  0.7772  0.2134 -0.2588
  545MOL0     C73496   1.635  10.211  11.510 -0.3642 -0.3348 -0.1560
  545MOL0     C73497   1.766  10.226  11.462  0.5674 -0.1698 -0.4090
  545MOL0     O73498   1.882  10.237  11.530  0.2203 -0.5478  0.2294
  545MOL0     C73499   1.896  10.172  11.660  0.4147  0.5927 -0.0992
  545MOL0     C73500   2.031  10.197  11.723  0.1564  0.4933 -0.4529
  545MOL0     C73501   2.140  10.109  11.653  0.4210  0.4769 -0.4090
  545MOL0     C73502   2.271  10.139  11.721  0.3020 -0.3466  0.3426
  545MOL0     C73503   2.365  10.239  11.660  0.5273  0.1346 -0.5049
  545MOL0     C73504   2.447  10.308  11.603 -0.4494  0.1674 -0.6283
  545MOL0     C73505   1.769  10.239  11.318  0.3811 -0.3630 -0.5263
  545MOL0     C73506   1.656  10.222  11.233 -0.3245 -0.9207 -0.8185
  545MOL0     C73507   1.688  10.218  11.085  0.7765 -0.5428  0.4837
  545MOL0     H73508   1.131  10.101  11.092  2.9202  0.6207 -3.0256
  545MOL0     H73509   0.944  10.199  10.983 -3.4459  2.2989  0.2540
  545MOL0     H73510   0.873  10.646  11.044 -0.8723  1.7980 -1.1472
  545MOL0     H73511   0.990  10.598  10.918 -0.1620 -1.1904 -3.1144
  545MOL0     H73512   0.688  10.608  10.896 -1.0908  1.9234 -1.4775
  545MOL0     H73513   0.807  10.567  10.761  1.0131  1.0438 -0.0072
  545MOL0     H73514   0.914  10.786  10.773  0.5991  0.8111  0.5786
  545MOL0     H73515   0.794  10.829  10.890  2.1958  0.2373 -0.4124
  545MOL0     H73516   0.734  10.920  10.659  2.8127 -1.0368 -3.9921
  545MOL0     H73517   0.719  10.758  10.593 -2.2703 -2.2686  0.5335
  545MOL0     H73518   0.524  10.723  10.784 -1.8413  1.8210  1.0854
  545MOL0     H73519   0.546  10.889  10.818  1.9458  0.0692 -0.5587
  545MOL0     H73520   0.465  10.953  10.594 -0.9908  0.6850  1.6080
  545MOL0     H73521   0.492  10.786  10.536 -6.4318 -0.6188 -1.6253
  545MOL0     H73522   0.292  10.837  10.753  4.4303  0.8516  1.8373
  545MOL0     H73523   0.312  10.693  10.671 -0.4930 -0.4587 -0.6875
  545MOL0     H73524   0.270  10.847  10.455  2.0357  1.6252  0.4965
  545MOL0     H73525   0.133  10.795  10.568 -0.2156  0.8173  1.6671
  545MOL0     H73526   0.028  10.964  10.733 -0.4155 -1.1873 -0.5481
  545MOL0     H73527  -0.103  11.285  10.711 -0.0186  1.3677  0.1765
  545MOL0     H73528  -0.039  11.207  10.850 -1.3640 -2.2921 -1.8877
  545MOL0     H73529   0.094  11.446  10.704 -0.3119  2.1674 -0.4051
  545MOL0     H73530  -0.018  11.462  10.838  0.5267 -2.4172  4.6203
  545MOL0     H73531   0.145  11.351  10.984 -2.3766 -2.2266 -1.3898
  545MOL0     H73532   0.232  11.482  10.892 -0.5491  0.8017 -0.8318
  545MOL0     H73533   0.335  11.336  10.737  2.9643 -2.2530  1.0994
  545MOL0     H73534   0.255  11.202  10.812  0.4227  0.3293 -1.3913
  545MOL0     H73535   0.576  11.228  11.103  1.4049 -0.1605  1.4733
  545MOL0     H73536   0.798  11.159  11.064 -3.5792 -0.2983  2.9657
  545MOL0     H73537   1.181  11.304  10.743 -2.5348 -1.4069  0.4845
  545MOL0     H73538   1.408  11.249  10.746 -2.9889  3.0790 -0.4381
  545MOL0     H73539   1.593  10.810  10.676  1.4372  0.4215 -0.1225
  545MOL0     H73540   1.513  10.869  10.532  0.9840  0.8743 -1.1466
  545MOL0     H73541   1.718  10.872  10.464 -3.5720 -1.3179  1.5823
  545MOL0     H73542   1.697  11.048  10.525 -1.7802  0.4686  0.9631
  545MOL0     H73543   1.784  10.990  10.738 -0.1835  1.3686 -0.2147
  545MOL0     H73544   1.817  10.820  10.690  4.5121  0.2923 -0.4775
  545MOL0     H73545   1.948  11.064  10.556 -0.4482 -0.0130  1.1902
  545MOL0     H73546   1.989  10.895  10.518 -0.6336 -1.6975 -0.0185
  545MOL0     H73547   2.158  10.951  10.678  1.4170  0.5304  2.9603
  545MOL0     H73548   2.039  10.885  10.782  1.6911  0.7162  1.0913
  545MOL0     H73549   1.999  11.177  10.715  1.0488 -0.0292  0.3608
  545MOL0     H73550   1.979  11.079  10.864 -1.6953 -0.3130 -0.1102
  545MOL0     H73551   2.245  11.194  10.759 -0.4692 -0.8573 -1.2262
  545MOL0     H73552   2.233  11.077  10.884 -0.0757 -1.2492 -1.1873
  545MOL0     H73553   2.240  11.324  10.967 -0.3451  2.8203 -1.1305
  545MOL0     H73554   2.085  11.350  10.887  0.1811 -1.2276  1.6780
  545MOL0     H73555   1.333  10.843  10.633 -0.1301  0.1853 -0.2781
  545MOL0     H73556   1.081  10.897  10.632  0.4784 -1.5822  0.7351
  545MOL0     H73557   0.740  11.184  10.638  1.7257  0.2597  0.6570
  545MOL0     H73558   0.514  11.237  10.672  1.0414  1.2303 -0.5934
  545MOL0     H73559   1.010  10.567  11.192 -0.3037  1.3521 -3.1321
  545MOL0     H73560   1.201  10.465  11.305 -1.7548  0.9790  0.5831
  545MOL0     H73561   1.434  10.166  11.477 -1.2772 -0.2191 -4.0268
  545MOL0     H73562   1.625  10.190  11.616 -0.1094 -2.8865 -0.5759
  545MOL0     H73563   1.883  10.064  11.650 -0.9021  0.5251  1.8442
  545MOL0     H73564   1.826  10.219  11.729 -0.5083  1.3941 -1.5265
  545MOL0     H73565   2.032  10.161  11.827  1.5237 -1.4457 -1.0670
  545MOL0     H73566   2.046  10.305  11.721 -1.7501  0.8009 -0.4274
  545MOL0     H73567   2.145  10.122  11.545 -0.2367 -2.0183 -0.7930
  545MOL0     H73568   2.125  10.001  11.661  0.9717  0.1997 -2.5223
  545MOL0     H73569   2.253  10.170  11.825 -0.6030 -1.6697  0.6046
  545MOL0     H73570   2.336  10.050  11.720  2.4394  1.0439 -2.9965
  545MOL0     H73571   2.532  10.351  11.555 -1.5737  1.6664 -1.3516
  545MOL0     H73572   1.866  10.244  11.269 -0.1898 -1.0251 -1.7695
  545MOL0     H73573   1.668  10.314  11.039  2.5664 -0.5559 -0.3764
  545MOL0     H73574   1.794  10.195  11.072  0.6282 -2.1926  1.7301
  545MOL0     H73575   1.639  10.130  11.043  4.1385 -1.8489 -1.0554
  546MOL0     O73576  10.988  10.799   1.976  0.4946 -0.0756 -0.1244
  546MOL0     C73577  10.998  10.796   1.854 -1.5313 -0.6045 -0.9103
  546MOL0     O73578  11.090  10.876   1.788 -0.3843  0.4826  0.2891
  546MOL0     C73579  11.159  10.983   1.857  0.2096  0.6873  0.0378
  546MOL0     C73580  11.296  10.989   1.840  0.2539  0.2261  0.0982
  546MOL0     C73581  11.368  11.084   1.911 -0.1443 -0.0026 -0.6944
  546MOL0     C73582  11.309  11.169   2.004 -0.2466  0.4130  1.1233
  546MOL0     O73583  11.387  11.255   2.081  0.1310  0.6542  0.1267
  546MOL0     C73584  11.344  11.307   2.207  0.4530 -0.3934  0.3991
  546MOL0     C73585  11.405  11.439   2.237 -0.0413  0.5217 -0.1674
  546MOL0     C73586  11.340  11.520   2.346  0.9006  0.6185 -0.4357
  546MOL0     C73587  11.339  11.450   2.485 -0.4971  0.0632  0.0844
  546MOL0     C73588  11.470  11.380   2.538 -0.5695  0.7741  0.5932
  546MOL0     C73589  11.584  11.476   2.580  0.3849  0.7697  0.4144
  546MOL0     C73590  11.709  11.394   2.627 -0.2639  0.4530 -0.9566
  546MOL0     C73591  11.811  11.500   2.683 -0.3423 -0.1863  0.4816
  546MOL0     N73592  11.945  11.436   2.721 -0.1526 -0.1028 -0.2579
  546MOL0     C73593  12.043  11.389   2.635 -0.1792  0.7932  0.1760
  546MOL0     C73594  12.156  11.375   2.717  0.8940 -0.2771  0.1795
  546MOL0     C73595  12.292  11.353   2.666 -0.8151 -0.3730 -0.0922
  546MOL0     C73596  12.328  11.212   2.719  0.4292  0.2503 -0.3260
  546MOL0     C73597  12.471  11.169   2.695 -1.0858  0.0142 -0.3525
  546MOL0     C73598  12.498  11.068   2.810  0.0323 -0.4426  0.9449
  546MOL0     O73599  12.417  10.946   2.797 -0.3459  0.7172 -0.5641
  546MOL0     C73600  12.413  10.875   2.918  0.1643  0.1288  0.7897
  546MOL0     C73601  12.296  10.798   2.931 -0.1346 -0.6608  0.6920
  546MOL0     C73602  12.264  10.727   3.044 -0.3107  1.2284  1.4109
  546MOL0     C73603  12.365  10.717   3.147  0.0028 -0.4548  0.0052
  546MOL0     C73604  12.348  10.625   3.263 -0.6834  0.6953  0.2633
  546MOL0     O73605  12.235  10.556   3.269  0.4817  0.6356  0.2612
  546MOL0     C73606  12.208  10.465   3.368  0.0135  0.0208 -0.1245
  546MOL0     C73607  12.128  10.355   3.343  0.1177  0.3917  0.2492
  546MOL0     C73608  12.109  10.253   3.434  0.1601 -0.2902 -0.8130
  546MOL0     C73609  12.166  10.260   3.564  0.7240 -0.1749 -0.1794
  546MOL0     O73610  12.142  10.171   3.667 -0.3486  0.5014  0.5831
  546MOL0     C73611  12.006  10.118   3.677  1.0522  0.7462  0.1686
  546MOL0     C73612  11.956  10.076   3.813 -0.8793 -0.3114 -0.0468
  546MOL0     C73613  12.054   9.978   3.870 -0.5480  0.1000  0.0764
  546MOL0     C73614  12.067   9.990   4.025  0.4585  0.8112  0.3432
  546MOL0     C73615  12.186   9.915   4.084 -0.4861 -0.2237  0.1667
  546MOL0     C73616  12.186   9.769   4.052 -0.1109  0.0321  0.1520
  546MOL0     C73617  12.303   9.698   4.115  0.9278 -0.8635 -0.3746
  546MOL0     C73618  12.431   9.742   4.052 -0.1771 -0.0101 -1.2335
  546MOL0    Cl73619  12.563   9.682   4.170  0.1487 -0.0501 -0.1372
  546MOL0     C73620  12.226  10.382   3.602  0.6033  0.7167 -0.0494
  546MOL0     C73621  12.242  10.482   3.503  0.5600 -0.1639  0.1051
  546MOL0     O73622  12.449  10.599   3.330  0.1987 -0.0947  0.0442
  546MOL0     C73623  12.482  10.784   3.127 -0.6297  0.0592 -0.9587
  546MOL0     C73624  12.509  10.857   3.018  0.1453 -0.9265  0.3577
  546MOL0     N73625  12.116  11.401   2.851  0.2197 -0.7340  0.0124
  546MOL0     N73626  11.993  11.446   2.851 -0.6519  0.4113  0.9708
  546MOL0     C73627  11.170  11.157   2.019  0.4716 -0.5070  0.3668
  546MOL0     C73628  11.099  11.073   1.946 -0.1802 -0.0337 -0.3420
  546MOL0     C73629  10.914  10.696   1.791 -0.1909 -0.1167  0.5319
  546MOL0     C73630  10.854  10.589   1.870  0.2620 -0.0255 -0.6034
  546MOL0     C73631  10.778  10.478   1.803 -0.4517  0.2130 -1.1018
  546MOL0     C73632  10.761  10.481   1.673 -0.5028  0.5479 -0.2799
  546MOL0     O73633  10.678  10.385   1.614  0.1321 -0.0609 -0.6480
  546MOL0     C73634  10.630  10.405   1.474 -0.7720  0.4486  0.8635
  546MOL0     C73635  10.494  10.337   1.454  1.0061 -0.2245  0.4499
  546MOL0     C73636  10.446  10.351   1.313 -0.3706  0.1687 -0.3255
  546MOL0     C73637  10.416  10.492   1.267  0.5008 -0.7735  1.0458
  546MOL0     C73638  10.362  10.488   1.125  0.1451 -0.3198  0.0215
  546MOL0     C73639  10.326  10.468   1.012 -0.0243  0.2875  0.8799
  546MOL0     C73640  10.824  10.579   1.598  0.4988 -0.1823  0.1378
  546MOL0     C73641  10.901  10.683   1.649  0.6012 -0.4474  0.6016
  546MOL0     C73642  10.969  10.767   1.547  0.4998 -1.2649 -0.2385
  546MOL0     H73643  11.349  10.920   1.774 -2.4021 -0.5152 -1.4357
  546MOL0     H73644  11.473  11.089   1.885 -0.3451  2.9948 -1.2056
  546MOL0     H73645  11.235  11.311   2.206  0.2388 -3.4999  1.6312
  546MOL0     H73646  11.365  11.223   2.273 -1.0039 -1.6760 -0.7045
  546MOL0     H73647  11.409  11.498   2.145  3.4819 -0.1914 -0.6109
  546MOL0     H73648  11.513  11.423   2.251  0.5696 -0.3590 -4.6053
  546MOL0     H73649  11.238  11.541   2.312 -0.1534 -0.5685  1.7430
  546MOL0     H73650  11.389  11.617   2.344 -1.1287  1.6921 -1.4409
  546MOL0     H73651  11.316  11.532   2.553 -0.5262  0.6365 -0.6045
  546MOL0     H73652  11.250  11.387   2.488 -3.3153  3.7592  1.9449
  546MOL0     H73653  11.441  11.317   2.623 -0.1798 -0.6020 -0.2550
  546MOL0     H73654  11.521  11.314   2.468  2.9233  1.3383  2.3953
  546MOL0     H73655  11.608  11.532   2.490 -1.2004 -0.0996 -0.5821
  546MOL0     H73656  11.543  11.541   2.658 -0.0835  1.1283 -0.1331
  546MOL0     H73657  11.747  11.341   2.539 -0.6603  0.6250 -1.2340
  546MOL0     H73658  11.681  11.320   2.703  1.8191  0.9828  0.4200
  546MOL0     H73659  11.823  11.557   2.590 -2.1556 -3.2198 -1.8305
  546MOL0     H73660  11.776  11.565   2.763  2.0184  2.4574 -0.4652
  546MOL0     H73661  12.043  11.369   2.529  1.9921 -0.9373  0.4169
  546MOL0     H73662  12.298  11.360   2.557 -6.7379 -3.1195 -0.9621
  546MOL0     H73663  12.362  11.422   2.715 -0.9138  0.5593 -1.2141
  546MOL0     H73664  12.310  11.204   2.826  0.0646  0.5670 -0.3623
  546MOL0     H73665  12.268  11.138   2.667 -0.0952 -1.7906  2.9278
  546MOL0     H73666  12.547  11.247   2.707  3.2304 -4.0549  2.1701
  546MOL0     H73667  12.479  11.119   2.598 -3.0631 -0.3155 -0.3967
  546MOL0     H73668  12.488  11.127   2.901  0.5239  1.2652 -0.0617
  546MOL0     H73669  12.605  11.050   2.799  1.1003  3.7617  2.6720
  546MOL0     H73670  12.226  10.809   2.849 -0.1969 -2.0534  0.5347
  546MOL0     H73671  12.171  10.671   3.042  0.5355 -0.1858  1.0146
  546MOL0     H73672  12.096  10.337   3.241 -2.2416  1.2010  0.7951
  546MOL0     H73673  12.050  10.167   3.403  0.7740 -0.3230 -1.9275
  546MOL0     H73674  11.932  10.184   3.632 -0.8445 -0.5619  1.2259
  546MOL0     H73675  12.012  10.025   3.620  3.3139  1.5543 -1.0472
  546MOL0     H73676  11.936  10.167   3.872  0.1331 -0.2728  0.2530
  546MOL0     H73677  11.859  10.028   3.800 -0.9618 -0.9664  2.4230
  546MOL0     H73678  12.013   9.878   3.857 -0.6136  0.1040  0.2484
  546MOL0     H73679  12.155   9.967   3.828  0.2469  1.8164  1.4070
  546MOL0     H73680  11.982   9.947   4.079  3.4953 -3.6134  2.2204
  546MOL0     H73681  12.074  10.094   4.059 -1.3012  0.6513  1.3122
  546MOL0     H73682  12.174   9.926   4.192 -0.1436 -1.0309  0.2947
  546MOL0     H73683  12.281   9.962   4.057 -0.3986 -0.2157  0.4767
  546MOL0     H73684  12.098   9.729   4.104  0.0200  1.3022  1.4158
  546MOL0     H73685  12.175   9.748   3.946 -4.7653  0.1890  0.3848
  546MOL0     H73686  12.303   9.590   4.098  1.9792 -0.6999 -1.5256
  546MOL0     H73687  12.313   9.724   4.221 -0.2845  2.6091 -0.9806
  546MOL0     H73688  12.451   9.696   3.955  1.3693  3.5806 -2.7977
  546MOL0     H73689  12.439   9.851   4.046  0.6944  0.0729  0.6965
  546MOL0     H73690  12.253  10.399   3.706 -0.3687 -0.7114  0.4671
  546MOL0     H73691  12.305  10.569   3.519 -3.0200  3.1226 -1.9546
  546MOL0     H73692  12.566  10.777   3.196  0.6422 -2.1105 -2.6095
  546MOL0     H73693  12.606  10.906   3.016 -0.4261  0.2097 -1.0768
  546MOL0     H73694  11.106  11.215   2.084  2.9226  1.0891  1.5097
  546MOL0     H73695  10.993  11.070   1.969  0.2573  0.0170  1.8411
  546MOL0     H73696  10.876  10.582   1.976 -0.3135  3.4523 -0.1443
  546MOL0     H73697  10.732  10.400   1.862  1.7629  1.6714  2.9355
  546MOL0     H73698  10.706  10.366   1.406 -3.3630 -0.5169 -1.7136
  546MOL0     H73699  10.616  10.512   1.461  0.9514  0.5036 -1.0405
  546MOL0     H73700  10.420  10.384   1.520 -0.6819 -1.2581 -0.6266
  546MOL0     H73701  10.513  10.236   1.491  1.5988 -0.2905 -0.0296
  546MOL0     H73702  10.351  10.297   1.308 -1.3498  1.5241  2.0731
  546MOL0     H73703  10.518  10.301   1.247  1.1386 -0.5667  1.7816
  546MOL0     H73704  10.333  10.525   1.331 -2.1317 -1.4919 -1.7284
  546MOL0     H73705  10.496  10.565   1.253 -0.5647  0.1610 -0.5026
  546MOL0     H73706  10.288  10.454   0.913  0.5674 -1.2205  0.8345
  546MOL0     H73707  10.813  10.575   1.490 -0.9073  1.5704  0.1642
  546MOL0     H73708  10.906  10.854   1.528  1.0464 -1.0329 -1.0039
  546MOL0     H73709  11.070  10.799   1.572 -0.0725  0.0956  0.4585
  546MOL0     H73710  10.979  10.704   1.458  0.2732  1.8443 -2.6480
  547MOL0     O73711   6.241   9.532   2.921  1.2381 -0.6215  0.2237
  547MOL0     C73712   6.333   9.563   2.845  0.3110  0.1917  0.0140
  547MOL0     O73713   6.309   9.625   2.731 -0.3905  0.1356 -0.2551
  547MOL0     C73714   6.180   9.666   2.694 -0.6814 -0.6128 -0.5566
  547MOL0     C73715   6.074   9.584   2.671 -0.1083  0.4842  0.7395
  547MOL0     C73716   5.951   9.640   2.635  0.5519 -0.3981  0.1936
  547MOL0     C73717   5.945   9.778   2.611  0.6096 -0.2694 -0.2646
  547MOL0     O73718   5.821   9.833   2.568 -0.2860 -0.6054 -0.1630
  547MOL0     C73719   5.772   9.778   2.443 -0.7222  0.0500 -0.2653
  547MOL0     C73720   5.716   9.882   2.354 -0.3144  0.2229 -0.5290
  547MOL0     C73721   5.637   9.828   2.234  0.2249  0.5262 -0.2293
  547MOL0     C73722   5.571   9.935   2.153 -0.0208 -0.4018  0.0395
  547MOL0     C73723   5.413   9.921   2.146  1.0386 -0.5318  0.2791
  547MOL0     C73724   5.354  10.017   2.038 -0.2830  1.0076 -0.0785
  547MOL0     C73725   5.202  10.044   2.053 -0.2445 -0.6244  0.2137
  547MOL0     C73726   5.150  10.117   1.920  0.3959 -0.6091 -0.1368
  547MOL0     N73727   5.007  10.124   1.923  0.0106  0.4278  0.4786
  547MOL0     C73728   4.926  10.025   1.895  0.6436 -0.0221 -0.1501
  547MOL0     C73729   4.805  10.071   1.926 -0.1967  0.3269 -0.4750
  547MOL0     C73730   4.677   9.993   1.905  0.5821  0.9563 -0.3342
  547MOL0     C73731   4.638   9.941   2.041 -0.0617  0.1236 -0.0773
  547MOL0     C73732   4.495   9.877   2.038  0.6295 -0.5107  0.4712
  547MOL0     C73733   4.461   9.791   2.165 -0.4106  0.0648 -0.6976
  547MOL0     O73734   4.473   9.867   2.286 -0.4811  0.0456  0.4933
  547MOL0     C73735   4.369   9.891   2.369 -1.1519  0.1947  0.0910
  547MOL0     C73736   4.366  10.014   2.436 -0.5932 -0.1001 -0.2842
  547MOL0     C73737   4.266  10.044   2.529 -0.4660  0.4298 -0.5147
  547MOL0     C73738   4.166   9.955   2.557 -0.6209  0.2616 -0.7744
  547MOL0     C73739   4.068   9.983   2.663 -0.0178 -0.4951  0.4169
  547MOL0     O73740   3.970   9.887   2.683  0.6314  0.3127 -0.1054
  547MOL0     C73741   3.874   9.889   2.787  0.2149  0.1089 -0.3613
  547MOL0     C73742   3.825  10.000   2.855  0.0573  0.2267 -0.4501
  547MOL0     C73743   3.732   9.972   2.957  0.1595 -0.2508 -0.1788
  547MOL0     C73744   3.695   9.843   2.996 -0.2187  0.5952  0.2350
  547MOL0     O73745   3.614   9.821   3.108  0.1268 -0.3848  0.1550
  547MOL0     C73746   3.551   9.700   3.119  0.8369 -0.6554 -0.0557
  547MOL0     C73747   3.452   9.716   3.231  0.2810 -0.2504 -0.0779
  547MOL0     C73748   3.528   9.768   3.358 -0.2199  0.2594  0.4138
  547MOL0     C73749   3.590   9.635   3.429  0.0157 -0.0598  0.2675
  547MOL0     C73750   3.654   9.676   3.556 -0.2055  0.5859  0.0364
  547MOL0     C73751   3.764   9.572   3.592  0.7195 -0.2008  0.0077
  547MOL0     C73752   3.860   9.620   3.693 -1.2181 -0.0081 -0.3220
  547MOL0     C73753   3.978   9.519   3.696  0.5093 -0.6628 -0.4654
  547MOL0    Cl73754   4.097   9.524   3.565  0.1099  0.3062 -0.4209
  547MOL0     C73755   3.757   9.740   2.927  0.5160  0.5078  0.1529
  547MOL0     C73756   3.844   9.759   2.821  0.2417  0.4009  0.2803
  547MOL0     O73757   4.087  10.080   2.739  0.2642  0.6276  0.4781
  547MOL0     C73758   4.172   9.830   2.487  0.0635  0.1336  0.5553
  547MOL0     C73759   4.266   9.801   2.395 -0.5865 -0.4005  0.0956
  547MOL0     N73760   4.817  10.177   2.008 -0.1448  0.0298 -0.1063
  547MOL0     N73761   4.940  10.216   2.002  0.1167  0.9816 -0.2925
  547MOL0     C73762   6.061   9.857   2.617  0.7653  0.4234 -0.6842
  547MOL0     C73763   6.177   9.799   2.670  0.3222 -0.2845 -0.5813
  547MOL0     C73764   6.470   9.520   2.886  0.9641  0.7588  0.9666
  547MOL0     C73765   6.577   9.548   2.793  0.1132 -0.2181 -0.2707
  547MOL0     C73766   6.708   9.511   2.821  0.3177  0.0398 -0.0307
  547MOL0     C73767   6.740   9.435   2.939 -0.0499  0.2494 -0.3706
  547MOL0     O73768   6.862   9.381   2.973 -0.4880  0.7000 -0.1796
  547MOL0     C73769   6.945   9.353   2.859 -0.5096 -0.5156  0.1481
  547MOL0     C73770   7.030   9.482   2.844 -0.1247 -0.1717 -0.1406
  547MOL0     C73771   7.145   9.473   2.962  0.4704 -0.9442  0.1216
  547MOL0     C73772   7.277   9.413   2.895 -0.4223 -0.0040 -0.3983
  547MOL0     C73773   7.378   9.390   3.004 -0.7094  0.2012 -0.5477
  547MOL0     C73774   7.465   9.366   3.089 -1.0983  0.2731  0.6373
  547MOL0     C73775   6.636   9.416   3.033 -0.9256  0.0380  0.4125
  547MOL0     C73776   6.509   9.453   3.006  0.1015  0.2938  0.5616
  547MOL0     C73777   6.409   9.389   3.086  0.5423  0.1736  0.2560
  547MOL0     H73778   6.085   9.477   2.687  4.1363  0.9210  1.8944
  547MOL0     H73779   5.869   9.571   2.616 -1.4537  1.5928  1.2481
  547MOL0     H73780   5.846   9.714   2.395 -1.1342 -0.2562 -0.4971
  547MOL0     H73781   5.687   9.719   2.478  0.3673 -1.2812  0.2379
  547MOL0     H73782   5.790   9.955   2.318  0.8426  0.6305  2.4302
  547MOL0     H73783   5.646   9.935   2.419  0.0172 -0.3857  0.3406
  547MOL0     H73784   5.564   9.753   2.265  1.2615 -0.2212  0.4599
  547MOL0     H73785   5.706   9.767   2.175 -0.4838 -0.5772  0.0627
  547MOL0     H73786   5.587  10.034   2.195 -2.3453 -0.9179  2.4576
  547MOL0     H73787   5.616   9.926   2.054 -0.6045 -1.4360 -0.1574
  547MOL0     H73788   5.384   9.816   2.135  1.1022 -0.7662  2.0472
  547MOL0     H73789   5.366   9.956   2.238  1.9460 -0.4868  0.7347
  547MOL0     H73790   5.410  10.111   2.046 -0.8056  1.2776  0.4903
  547MOL0     H73791   5.367   9.967   1.942 -0.0203 -0.1666  0.5580
  547MOL0     H73792   5.192  10.105   2.143  1.4578 -0.1361  0.1055
  547MOL0     H73793   5.147   9.949   2.057  1.2985 -1.8082 -3.1691
  547MOL0     H73794   5.188  10.218   1.902  1.2290 -0.6827  1.0871
  547MOL0     H73795   5.184  10.050   1.841 -0.4623 -0.1932 -0.8745
  547MOL0     H73796   4.952   9.924   1.867  0.5283 -0.2106  0.4134
  547MOL0     H73797   4.597  10.053   1.862 -1.0566 -1.5403 -0.9644
  547MOL0     H73798   4.695   9.914   1.832  1.1070 -0.0641  0.8557
  547MOL0     H73799   4.709   9.861   2.063  0.0935  0.5413  1.0051
  547MOL0     H73800   4.641  10.021   2.115  0.7913 -0.8810  0.9979
  547MOL0     H73801   4.484   9.817   1.948 -3.9902  3.3744 -1.9847
  547MOL0     H73802   4.424   9.960   2.040 -0.9538 -1.8398  1.2212
  547MOL0     H73803   4.534   9.709   2.170  0.7618  1.1093  0.0912
  547MOL0     H73804   4.361   9.752   2.147  0.3775 -1.2230 -2.6735
  547MOL0     H73805   4.439  10.085   2.398  2.2062 -2.4135  0.4803
  547MOL0     H73806   4.274  10.138   2.582  2.2252  0.1950 -0.3679
  547MOL0     H73807   3.839  10.103   2.824 -1.8602  0.1123 -1.8934
  547MOL0     H73808   3.702  10.055   3.022  2.6124  0.7784 -0.2507
  547MOL0     H73809   3.503   9.671   3.025 -1.5339  1.2261  0.4617
  547MOL0     H73810   3.625   9.622   3.139 -0.6216 -1.9341  0.5570
  547MOL0     H73811   3.391   9.805   3.211 -0.6090 -0.5926  0.9893
  547MOL0     H73812   3.393   9.625   3.247 -0.1107  0.1248  0.7008
  547MOL0     H73813   3.608   9.838   3.331 -0.6518  1.7434  2.7176
  547MOL0     H73814   3.473   9.838   3.422  2.9051  2.4733  0.9233
  547MOL0     H73815   3.659   9.590   3.358 -0.0688  0.3075 -0.0479
  547MOL0     H73816   3.506   9.568   3.453 -1.5193  2.2853  1.9458
  547MOL0     H73817   3.579   9.683   3.636  0.7706  3.9344  0.8068
  547MOL0     H73818   3.707   9.770   3.546  0.2944  0.7548  3.1367
  547MOL0     H73819   3.719   9.483   3.637 -2.9065  0.7819 -1.2796
  547MOL0     H73820   3.825   9.536   3.509  0.2265  1.0178 -0.9168
  547MOL0     H73821   3.810   9.624   3.790  2.5044  3.7747  1.7378
  547MOL0     H73822   3.898   9.720   3.673  1.7463 -0.9130  0.2884
  547MOL0     H73823   4.022   9.547   3.793 -2.8966  2.7673  0.3592
  547MOL0     H73824   3.935   9.423   3.726  0.4565 -0.4884  0.0421
  547MOL0     H73825   3.728   9.638   2.952 -0.2631  1.0926  1.7686
  547MOL0     H73826   3.885   9.678   2.762  4.7327  0.9188  2.2736
  547MOL0     H73827   4.088   9.762   2.503 -0.9566  1.1817 -0.1493
  547MOL0     H73828   4.258   9.704   2.347  1.4598 -1.1908  1.2328
  547MOL0     H73829   6.049   9.962   2.593 -0.2277  0.3749 -0.4669
  547MOL0     H73830   6.269   9.854   2.690  1.1410 -0.9032 -2.4472
  547MOL0     H73831   6.562   9.602   2.700 -1.4510 -1.3436 -0.7147
  547MOL0     H73832   6.789   9.533   2.752  2.1416 -1.2478  1.5823
  547MOL0     H73833   6.888   9.336   2.767  1.2907 -1.3963 -0.8330
  547MOL0     H73834   7.004   9.264   2.879  1.9913  1.4147  2.0069
  547MOL0     H73835   6.972   9.568   2.878  2.8935  2.8091 -1.9145
  547MOL0     H73836   7.074   9.503   2.746 -0.6146 -0.7849 -0.5041
  547MOL0     H73837   7.105   9.414   3.045  0.1922 -0.8966  0.0200
  547MOL0     H73838   7.167   9.571   3.004 -0.6939 -0.7849  0.3916
  547MOL0     H73839   7.244   9.314   2.864  0.0198  0.5011 -2.6844
  547MOL0     H73840   7.311   9.473   2.810  1.1629 -1.0156 -0.5221
  547MOL0     H73841   7.546   9.348   3.157 -0.1438 -0.8100 -0.7367
  547MOL0     H73842   6.666   9.367   3.126  1.3626  0.8867  0.2035
  547MOL0     H73843   6.450   9.319   3.160  1.2410 -1.1820 -1.3451
  547MOL0     H73844   6.337   9.459   3.128 -2.3364 -1.7973 -1.0907
  547MOL0     H73845   6.357   9.321   3.018  3.0440 -0.9876 -0.6495
  548MOL0     O73846   0.210  10.830   1.923  0.2506 -0.7197  0.5448
  548MOL0     C73847   0.235  10.731   1.994  0.4326 -0.4941 -0.6502
  548MOL0     O73848   0.361  10.699   2.041 -0.1489  0.4885  0.1856
  548MOL0     C73849   0.475  10.770   2.005  0.5115  0.5380  0.0008
  548MOL0     C73850   0.509  10.815   1.874 -1.5583 -0.3521 -0.4465
  548MOL0     C73851   0.627  10.883   1.857 -0.0955 -1.4738 -0.9457
  548MOL0     C73852   0.715  10.906   1.958 -0.2926 -0.1511  0.1239
  548MOL0     O73853   0.838  10.968   1.931  0.3825  0.1839  0.2530
  548MOL0     C73854   0.904  10.953   1.806 -0.3110 -0.5874  0.3262
  548MOL0     C73855   1.052  10.970   1.812 -0.6824  0.3160  0.4552
  548MOL0     C73856   1.121  10.973   1.674  0.0567  0.8632  0.0170
  548MOL0     C73857   1.266  10.919   1.687 -0.0354 -0.1213  0.1554
  548MOL0     C73858   1.344  10.948   1.549 -0.0855 -0.6022 -0.0062
  548MOL0     C73859   1.429  11.072   1.562  0.4261  0.2174  0.7000
  548MOL0     C73860   1.517  11.121   1.439 -0.1443 -0.7652 -0.0326
  548MOL0     C73861   1.442  11.136   1.312  0.2201  0.0201 -0.5002
  548MOL0     N73862   1.338  11.234   1.316 -0.2178 -0.4013  0.3023
  548MOL0     C73863   1.360  11.356   1.254  1.0923  0.1829  0.4751
  548MOL0     C73864   1.229  11.397   1.237 -0.8019  1.0864 -0.4580
  548MOL0     C73865   1.194  11.519   1.154 -0.2942 -1.1683 -1.1279
  548MOL0     C73866   1.285  11.641   1.188 -0.1336 -0.2958  0.5153
  548MOL0     C73867   1.270  11.772   1.108 -0.6494  1.3346 -0.2850
  548MOL0     C73868   1.234  11.756   0.963  0.1113  0.1363  0.2275
  548MOL0     O73869   1.211  11.874   0.876 -0.1901 -1.0288 -0.4648
  548MOL0     C73870   1.315  11.951   0.835  0.7565  0.2659  0.4428
  548MOL0     C73871   1.443  11.905   0.828 -0.8288 -0.0111 -0.4838
  548MOL0     C73872   1.542  11.994   0.786  0.7433 -0.2969  0.6661
  548MOL0     C73873   1.516  12.129   0.755  0.5529  0.0860 -0.5261
  548MOL0     C73874   1.630  12.221   0.725  1.3616 -0.1805  0.2153
  548MOL0     O73875   1.743  12.159   0.735 -0.1294 -1.9229  0.4701
  548MOL0     C73876   1.863  12.228   0.771 -0.8331 -0.0543  0.8156
  548MOL0     C73877   1.986  12.166   0.735 -0.3147 -0.7049  0.4548
  548MOL0     C73878   2.113  12.225   0.771  0.5648  0.1720  0.3691
  548MOL0     C73879   2.113  12.345   0.848 -0.1118  0.0325  0.3512
  548MOL0     O73880   2.239  12.403   0.862 -0.1295 -0.0381 -0.2953
  548MOL0     C73881   2.259  12.514   0.939  0.0198 -0.6017 -0.0904
  548MOL0     C73882   2.408  12.538   0.931  0.2893  0.2148 -0.9330
  548MOL0     C73883   2.444  12.682   0.984 -0.8801 -0.5500  0.5474
  548MOL0     C73884   2.587  12.672   1.044  1.0503 -0.1383 -0.3416
  548MOL0     C73885   2.633  12.797   1.112 -0.6200  0.0287 -0.0906
  548MOL0     C73886   2.767  12.768   1.167  0.0667  0.4161 -0.6662
  548MOL0     C73887   2.787  12.859   1.295 -0.6566 -0.7201 -0.1173
  548MOL0     C73888   2.923  12.837   1.350 -0.3838  0.3105 -0.4058
  548MOL0    Cl73889   3.037  12.927   1.246  0.1220  0.1786 -0.6127
  548MOL0     C73890   1.990  12.404   0.876 -0.1933 -0.0202 -0.4264
  548MOL0     C73891   1.870  12.348   0.840  0.7805 -0.7570 -0.6780
  548MOL0     O73892   1.613  12.342   0.696  0.3577 -0.2413 -0.1513
  548MOL0     C73893   1.382  12.176   0.757 -0.0528 -0.0857 -0.3125
  548MOL0     C73894   1.293  12.084   0.799 -0.2559 -0.0905 -0.6470
  548MOL0     N73895   1.140  11.311   1.307 -0.2645  0.9089 -0.1095
  548MOL0     N73896   1.205  11.214   1.354 -1.0208  0.4427 -0.3664
  548MOL0     C73897   0.691  10.849   2.088  0.4228  0.1438 -0.4607
  548MOL0     C73898   0.563  10.790   2.110 -0.0478 -0.0800  0.0635
  548MOL0     C73899   0.128  10.646   2.046  0.1568  0.5844 -0.4379
  548MOL0     C73900  -0.010  10.683   2.057 -0.0815 -0.2643  0.0912
  548MOL0     C73901  -0.109  10.593   2.100  0.5737  0.8979  0.9031
  548MOL0     C73902  -0.075  10.464   2.139  1.5972  0.1840 -0.5648
  548MOL0     O73903  -0.163  10.376   2.198 -0.2800 -0.2869 -0.4089
  548MOL0     C73904  -0.305  10.398   2.217 -0.2939 -0.2019 -0.0368
  548MOL0     C73905  -0.336  10.342   2.356 -0.4038  1.0267  0.1146
  548MOL0     C73906  -0.472  10.268   2.357 -0.7364 -0.5610 -0.0758
  548MOL0     C73907  -0.544  10.272   2.496 -0.6135 -0.6364  0.1813
  548MOL0     C73908  -0.657  10.185   2.505 -0.2127 -0.7446 -0.5933
  548MOL0     C73909  -0.763  10.118   2.511 -0.7057 -0.5258 -0.1324
  548MOL0     C73910   0.058  10.429   2.128  0.1413  0.7792  0.0566
  548MOL0     C73911   0.163  10.509   2.080  0.8585  0.0758  0.0604
  548MOL0     C73912   0.291  10.429   2.045 -0.4968 -1.0117  0.3041
  548MOL0     H73913   0.443  10.789   1.791 -0.4726 -1.2481 -1.0644
  548MOL0     H73914   0.643  10.929   1.760  1.1718  0.0041 -0.0791
  548MOL0     H73915   0.886  10.863   1.747  1.6817 -0.5034 -0.4683
  548MOL0     H73916   0.864  11.031   1.740  2.3038  0.3753 -0.2203
  548MOL0     H73917   1.093  10.894   1.879 -0.9124 -1.7592 -1.6248
  548MOL0     H73918   1.073  11.066   1.859 -0.2911  0.1569  0.6114
  548MOL0     H73919   1.115  11.069   1.623 -1.7955  0.8298  0.1217
  548MOL0     H73920   1.072  10.910   1.599  1.5268  0.0181 -0.2715
  548MOL0     H73921   1.323  10.978   1.759 -2.3506  0.0478  1.9625
  548MOL0     H73922   1.277  10.815   1.719 -1.4740 -0.4609 -0.3670
  548MOL0     H73923   1.416  10.868   1.530  1.2586  0.8742 -1.3849
  548MOL0     H73924   1.279  10.949   1.461  0.3778  1.4354 -0.3856
  548MOL0     H73925   1.349  11.144   1.581  0.6042  1.3978 -2.3884
  548MOL0     H73926   1.492  11.058   1.650  1.3231 -4.2705 -0.4291
  548MOL0     H73927   1.594  11.044   1.427 -1.1126 -1.5249 -1.8949
  548MOL0     H73928   1.571  11.214   1.455 -2.3224  0.1715  2.6228
  548MOL0     H73929   1.517  11.174   1.243  1.6549 -1.1651  0.3568
  548MOL0     H73930   1.410  11.034   1.287  0.9758 -0.0848 -1.0776
  548MOL0     H73931   1.445  11.397   1.200 -0.5109 -0.9069 -3.2091
  548MOL0     H73932   1.218  11.477   1.056 -1.3548 -3.7652 -0.3552
  548MOL0     H73933   1.089  11.549   1.157 -0.2056 -0.9228 -0.4468
  548MOL0     H73934   1.253  11.670   1.288  0.3229  1.6186  0.1419
  548MOL0     H73935   1.389  11.608   1.188 -0.3779 -1.7978 -3.7485
  548MOL0     H73936   1.350  11.846   1.117 -2.4172  3.1226  3.0714
  548MOL0     H73937   1.188  11.834   1.145 -1.6307  0.5450 -1.0657
  548MOL0     H73938   1.141  11.699   0.969  1.1152 -1.7235 -0.9413
  548MOL0     H73939   1.311  11.697   0.914 -0.1272  2.2743 -3.1212
  548MOL0     H73940   1.479  11.811   0.869 -0.4371 -0.0853 -0.9782
  548MOL0     H73941   1.642  11.952   0.794  0.9200  0.1097  0.6004
  548MOL0     H73942   1.976  12.068   0.689  0.3575 -1.2831  1.4726
  548MOL0     H73943   2.208  12.175   0.752  0.7977  1.6070 -3.2082
  548MOL0     H73944   2.206  12.597   0.891  0.0102 -0.8637 -0.5461
  548MOL0     H73945   2.214  12.508   1.038 -0.7693  1.6521 -0.2458
  548MOL0     H73946   2.472  12.463   0.979  0.2359  0.1585 -0.9500
  548MOL0     H73947   2.443  12.527   0.828 -0.3018  0.1291 -1.1289
  548MOL0     H73948   2.450  12.763   0.911 -1.5018  0.6173  1.7424
  548MOL0     H73949   2.370  12.722   1.053  0.5864  1.3157  1.1384
  548MOL0     H73950   2.660  12.634   0.972 -0.1389 -2.4069 -0.4314
  548MOL0     H73951   2.569  12.590   1.114 -0.3329  0.9888  0.6771
  548MOL0     H73952   2.565  12.823   1.193  0.7741  0.4251  0.9841
  548MOL0     H73953   2.640  12.885   1.047  0.1557 -1.5288 -2.2394
  548MOL0     H73954   2.768  12.665   1.202 -1.4154  0.3582 -0.7670
  548MOL0     H73955   2.847  12.781   1.093  3.3741  0.0672  2.5633
  548MOL0     H73956   2.710  12.831   1.369  0.5635 -4.3788 -0.0257
  548MOL0     H73957   2.785  12.967   1.276  1.0415 -0.5149  0.6825
  548MOL0     H73958   2.922  12.880   1.451 -1.6079  2.5010 -1.3006
  548MOL0     H73959   2.956  12.732   1.348 -0.3273  0.2222  1.8945
  548MOL0     H73960   1.985  12.497   0.931 -3.1232  0.7570 -1.8034
  548MOL0     H73961   1.780  12.397   0.877  1.2440 -0.0316 -0.5092
  548MOL0     H73962   1.347  12.270   0.717 -0.7225  0.1238  0.7291
  548MOL0     H73963   1.188  12.105   0.778 -0.5725 -0.3492  0.5717
  548MOL0     H73964   0.761  10.870   2.168  1.4362 -0.8948 -1.0442
  548MOL0     H73965   0.535  10.762   2.211  1.1246 -1.1960  0.0997
  548MOL0     H73966  -0.034  10.786   2.036 -0.7644  0.2387  2.9455
  548MOL0     H73967  -0.212  10.628   2.106 -0.5211 -1.2543 -2.4569
  548MOL0     H73968  -0.371  10.338   2.154 -0.7732 -1.0552  1.2433
  548MOL0     H73969  -0.323  10.505   2.202 -0.9036 -0.1075  1.2512
  548MOL0     H73970  -0.331  10.431   2.420  3.5758  0.7520  0.4383
  548MOL0     H73971  -0.257  10.269   2.377 -0.3160  0.5875 -1.6187
  548MOL0     H73972  -0.456  10.161   2.341  0.7475 -0.2187 -1.0943
  548MOL0     H73973  -0.523  10.306   2.268  1.8235  3.0673 -0.2184
  548MOL0     H73974  -0.475  10.242   2.575 -1.3232  1.6262  1.7691
  548MOL0     H73975  -0.585  10.367   2.532  2.0401  0.7998 -0.3234
  548MOL0     H73976  -0.844  10.047   2.513  0.5094 -1.9584  2.0145
  548MOL0     H73977   0.083  10.324   2.139 -0.0035  0.9081  1.8741
  548MOL0     H73978   0.344  10.463   1.956  2.3178 -1.2045  1.7825
  548MOL0     H73979   0.367  10.448   2.122 -1.5196 -2.2127  1.6715
  548MOL0     H73980   0.272  10.322   2.031 -1.4863 -0.6251 -1.5994
  549MOL0     O73981   7.623   1.671  10.954  0.0874 -0.1684  0.0329
  549MOL0     C73982   7.585   1.631  11.066 -0.3039 -0.5961 -0.0336
  549MOL0     O73983   7.605   1.690  11.188 -0.0695 -0.9594  0.4227
  549MOL0     C73984   7.674   1.809  11.179  0.2217  0.6518 -0.9926
  549MOL0     C73985   7.607   1.924  11.236 -0.4536  0.6497  0.6708
  549MOL0     C73986   7.674   2.048  11.241  0.7981 -0.4282 -0.6819
  549MOL0     C73987   7.807   2.060  11.206  0.0968  0.4045 -0.4085
  549MOL0     O73988   7.893   2.168  11.222  0.1808 -0.0382  0.8626
  549MOL0     C73989   7.835   2.292  11.180  0.8571  0.7221 -0.8213
  549MOL0     C73990   7.946   2.381  11.120 -0.2939  0.1464  0.5003
  549MOL0     C73991   8.014   2.318  11.002 -0.4928 -0.4704  0.6793
  549MOL0     C73992   8.161   2.388  10.985 -0.3526 -0.4926  0.3445
  549MOL0     C73993   8.252   2.313  10.869  0.3804  0.2530 -0.4803
  549MOL0     C73994   8.188   2.323  10.727 -0.7770  0.6707 -0.5083
  549MOL0     C73995   8.287   2.249  10.627  0.2346  0.0847  0.1624
  549MOL0     C73996   8.202   2.215  10.499  0.0295  0.4110  0.0986
  549MOL0     N73997   8.122   2.332  10.451  0.2849  0.0169  0.4350
  549MOL0     C73998   7.991   2.323  10.399  0.1150 -0.3828  0.5928
  549MOL0     C73999   7.972   2.445  10.339 -0.2057  0.1385 -0.1998
  549MOL0     C74000   7.868   2.496  10.254 -0.1091 -0.8200  0.7668
  549MOL0     C74001   7.772   2.584  10.332  0.4438 -0.0877 -0.7173
  549MOL0     C74002   7.676   2.650  10.231 -0.2454 -0.2685  0.5166
  549MOL0     C74003   7.626   2.566  10.122 -0.0948 -0.3803  1.0392
  549MOL0     O74004   7.503   2.622  10.069 -0.4645 -0.0137 -0.2058
  549MOL0     C74005   7.380   2.587  10.110 -0.5562 -0.3644  0.7376
  549MOL0     C74006   7.281   2.593  10.010  0.2883  0.5229  0.5797
  549MOL0     C74007   7.151   2.548  10.048  0.3970 -0.0514 -0.8106
  549MOL0     C74008   7.120   2.507  10.182  0.2482 -0.0141  0.5300
  549MOL0     C74009   6.990   2.450  10.221 -0.3656 -0.0315 -0.5114
  549MOL0     O74010   6.973   2.380  10.344 -0.5301 -0.7263  0.9250
  549MOL0     C74011   6.848   2.385  10.399  0.7180  0.3826 -0.1098
  549MOL0     C74012   6.737   2.468  10.378 -0.9448 -0.0152 -0.1045
  549MOL0     C74013   6.620   2.450  10.461  0.2587  0.3052  0.4380
  549MOL0     C74014   6.616   2.356  10.569  0.4013  0.0382 -0.2910
  549MOL0     O74015   6.503   2.343  10.644 -0.0491 -0.7858 -0.0476
  549MOL0     C74016   6.390   2.293  10.577 -0.6463  0.1016  1.0487
  549MOL0     C74017   6.279   2.265  10.684 -0.1451 -1.3057 -0.0664
  549MOL0     C74018   6.322   2.202  10.820 -0.0488 -0.3945 -0.5335
  549MOL0     C74019   6.193   2.136  10.882 -0.3267 -0.2551 -0.4569
  549MOL0     C74020   6.216   2.001  10.943  0.6486 -0.1724  0.6243
  549MOL0     C74021   6.355   1.983  11.019  0.0380  0.1992 -1.0659
  549MOL0     C74022   6.334   1.865  11.132 -0.0864 -0.3963  0.0369
  549MOL0     C74023   6.470   1.849  11.198 -0.3428 -0.1779 -0.9258
  549MOL0    Cl74024   6.603   1.781  11.088  0.4886 -0.0162  0.0464
  549MOL0     C74025   6.727   2.274  10.576  0.0745 -0.4626 -0.3046
  549MOL0     C74026   6.838   2.285  10.496  0.2763 -0.7045  0.3280
  549MOL0     O74027   6.901   2.463  10.135 -0.5479 -0.1789 -0.0119
  549MOL0     C74028   7.220   2.512  10.282 -0.2279 -0.3086  0.0793
  549MOL0     C74029   7.344   2.550  10.235  0.7575  0.4332 -0.3531
  549MOL0     N74030   8.079   2.528  10.365 -0.5842  0.1396  0.1726
  549MOL0     N74031   8.174   2.457  10.416  0.9252 -1.1970  0.5775
  549MOL0     C74032   7.873   1.939  11.161  1.6000 -0.2856  0.9189
  549MOL0     C74033   7.813   1.821  11.151 -0.0151 -0.2364  0.1587
  549MOL0     C74034   7.528   1.497  11.073 -0.1384  0.3544 -0.2766
  549MOL0     C74035   7.538   1.427  11.195  0.0814  0.0448  0.1374
  549MOL0     C74036   7.475   1.307  11.227  0.1733 -0.1586  0.0468
  549MOL0     C74037   7.407   1.239  11.129 -0.4543 -0.3329  0.7983
  549MOL0     O74038   7.369   1.108  11.159 -0.3356 -1.0526 -0.2682
  549MOL0     C74039   7.285   1.028  11.072  0.7085 -0.1095  0.7359
  549MOL0     C74040   7.255   0.889  11.130  0.4045  0.3114  0.4692
  549MOL0     C74041   7.143   0.806  11.062 -0.2955 -0.5868  0.6489
  549MOL0     C74042   7.104   0.669  11.121  0.6379  0.6084  0.4708
  549MOL0     C74043   7.224   0.598  11.151  0.5000 -0.1495  0.7911
  549MOL0     C74044   7.308   0.535  11.204  0.6080  0.1087 -0.0777
  549MOL0     C74045   7.391   1.312  11.005 -0.4442  0.7607  0.2642
  549MOL0     C74046   7.456   1.427  10.972 -0.9623  0.8896 -0.5528
  549MOL0     C74047   7.432   1.480  10.834  0.7476  0.2414  0.3491
  549MOL0     H74048   7.499   1.911  11.241 -0.2593 -0.5532  2.1356
  549MOL0     H74049   7.618   2.137  11.267  0.9042 -0.4917 -0.2237
  549MOL0     H74050   7.749   2.282  11.113 -0.0604 -1.5632  0.6041
  549MOL0     H74051   7.799   2.337  11.272  0.9636 -3.9275  1.8020
  549MOL0     H74052   8.024   2.383  11.197 -1.1449 -0.0951  1.3995
  549MOL0     H74053   7.900   2.478  11.099  1.0112  0.4576 -1.1046
  549MOL0     H74054   7.964   2.315  10.904  2.6917 -0.1306 -1.1162
  549MOL0     H74055   8.033   2.212  11.021  1.0444 -0.1631  0.9690
  549MOL0     H74056   8.154   2.488  10.940  1.8094 -0.8949 -1.1002
  549MOL0     H74057   8.217   2.383  11.079 -1.3995 -5.4236  0.9611
  549MOL0     H74058   8.355   2.351  10.865 -0.4479  2.5627 -4.1234
  549MOL0     H74059   8.254   2.207  10.893 -1.2017  0.6811  1.9304
  549MOL0     H74060   8.091   2.272  10.734  0.3660 -1.3585  3.3443
  549MOL0     H74061   8.184   2.429  10.700  1.9236  1.0567  0.3543
  549MOL0     H74062   8.330   2.157  10.666  1.3983  0.7103  0.3877
  549MOL0     H74063   8.363   2.323  10.601  0.1155  0.2737  0.3476
  549MOL0     H74064   8.276   2.203  10.419 -0.8187  7.2050 -2.3835
  549MOL0     H74065   8.143   2.124  10.514  0.8657 -0.2871 -0.6985
  549MOL0     H74066   7.931   2.233  10.400  0.6722 -0.7624  1.2919
  549MOL0     H74067   7.912   2.550  10.169  0.8261 -3.3801 -0.4668
  549MOL0     H74068   7.815   2.403  10.232 -1.2675 -0.6971  2.8111
  549MOL0     H74069   7.726   2.519  10.407  0.8284  2.7502  2.2203
  549MOL0     H74070   7.828   2.660  10.386  3.5306 -0.5058 -3.0553
  549MOL0     H74071   7.731   2.733  10.185  0.5289 -1.4208 -0.6708
  549MOL0     H74072   7.597   2.714  10.272  2.6100  3.0343  1.4080
  549MOL0     H74073   7.594   2.473  10.169 -1.6585 -0.3162  0.1703
  549MOL0     H74074   7.696   2.545  10.040  0.0207  2.1351  0.3936
  549MOL0     H74075   7.307   2.615   9.907 -2.2025 -1.8502 -0.6801
  549MOL0     H74076   7.070   2.544   9.976 -1.4748 -0.4729  1.2051
  549MOL0     H74077   6.753   2.542  10.300 -1.6862  0.2822  0.0161
  549MOL0     H74078   6.535   2.517  10.452 -0.7920 -0.4406  3.5635
  549MOL0     H74079   6.349   2.379  10.524  0.9778  2.0274  2.7161
  549MOL0     H74080   6.398   2.210  10.507 -2.9996  1.4625 -0.9878
  549MOL0     H74081   6.228   2.359  10.709  3.7477  0.9457  0.1892
  549MOL0     H74082   6.202   2.209  10.630 -0.5598  0.6484 -1.6461
  549MOL0     H74083   6.398   2.124  10.808  1.3693  0.6214  1.2950
  549MOL0     H74084   6.363   2.275  10.889  0.0200 -2.3303  1.6042
  549MOL0     H74085   6.113   2.128  10.808  1.2769 -0.6757 -2.2303
  549MOL0     H74086   6.148   2.190  10.966  1.8009 -0.8150  1.1293
  549MOL0     H74087   6.205   1.942  10.852 -3.2264  0.1458  0.7200
  549MOL0     H74088   6.140   1.983  11.020 -0.3134 -1.1667 -0.5224
  549MOL0     H74089   6.435   1.956  10.950 -1.5244  0.6759 -3.1548
  549MOL0     H74090   6.378   2.075  11.074 -0.7301  0.9374 -1.9579
  549MOL0     H74091   6.309   1.773  11.079  0.5401 -1.7853  2.0561
  549MOL0     H74092   6.255   1.895  11.201 -2.2972  4.1137 -3.8240
  549MOL0     H74093   6.499   1.944  11.243 -0.7359 -1.0635  1.3200
  549MOL0     H74094   6.462   1.780  11.283 -1.4772  0.6638 -0.3258
  549MOL0     H74095   6.733   2.198  10.653  2.6166  0.4092  0.4771
  549MOL0     H74096   6.916   2.209  10.497 -0.3811 -1.5193 -2.2983
  549MOL0     H74097   7.207   2.481  10.385  3.8743  1.1822  1.2761
  549MOL0     H74098   7.416   2.571  10.313 -0.2075 -1.5517  1.1703
  549MOL0     H74099   7.978   1.946  11.133  0.9219  1.1738 -1.6246
  549MOL0     H74100   7.877   1.737  11.126  3.4915  2.6280 -1.3670
  549MOL0     H74101   7.600   1.468  11.274  0.1471  0.9227 -0.3612
  549MOL0     H74102   7.481   1.263  11.326  0.9524 -3.7013 -1.4241
  549MOL0     H74103   7.336   1.035  10.975  0.8690 -0.2577  0.8093
  549MOL0     H74104   7.189   1.081  11.078 -0.1448 -1.3902 -0.7712
  549MOL0     H74105   7.216   0.902  11.231  1.6961 -0.6575  1.1214
  549MOL0     H74106   7.353   0.843  11.149  0.1529 -0.4840 -0.1557
  549MOL0     H74107   7.170   0.785  10.958  0.1056  0.0936  0.6122
  549MOL0     H74108   7.053   0.869  11.065  0.1230 -0.0137  3.1639
  549MOL0     H74109   7.049   0.684  11.215 -2.1042  1.3291 -1.1273
  549MOL0     H74110   7.038   0.611  11.056  0.4255 -1.3439  2.2976
  549MOL0     H74111   7.385   0.469  11.237  2.5816  2.5988  0.6199
  549MOL0     H74112   7.341   1.256  10.927  0.1556  0.3680  0.1544
  549MOL0     H74113   7.332   1.451  10.802  1.2930  0.3696 -1.6464
  549MOL0     H74114   7.414   1.587  10.841 -4.3315 -0.4596  2.4031
  549MOL0     H74115   7.508   1.445  10.763  0.4235 -2.3922  1.1745
  550MOL0     O74116   1.181   2.964   1.864 -0.2428 -0.3869  0.2867
  550MOL0     C74117   1.261   2.910   1.943  0.7138  0.0647  0.1453
  550MOL0     O74118   1.388   2.958   1.963 -0.1734  0.5754 -0.0502
  550MOL0     C74119   1.456   3.020   1.862 -0.3351 -0.4952 -0.1324
  550MOL0     C74120   1.423   3.140   1.806  0.3252  0.6126  0.7296
  550MOL0     C74121   1.495   3.213   1.701 -0.6283  0.4576 -0.5133
  550MOL0     C74122   1.607   3.142   1.659  0.0734  0.6171 -0.2495
  550MOL0     O74123   1.694   3.192   1.574  0.0909 -0.5868  0.5092
  550MOL0     C74124   1.652   3.259   1.457 -0.4896 -0.7093  0.3693
  550MOL0     C74125   1.766   3.263   1.349 -0.9060  0.1665  0.2565
  550MOL0     C74126   1.806   3.131   1.283  0.2698 -0.3838  0.2315
  550MOL0     C74127   1.938   3.155   1.208 -0.9051  0.2429  0.0190
  550MOL0     C74128   1.997   3.012   1.180  0.1005  0.4806  0.5386
  550MOL0     C74129   2.104   3.006   1.079 -0.1809  0.5347  0.3101
  550MOL0     C74130   2.229   3.089   1.119 -0.6675  0.2359 -0.5143
  550MOL0     C74131   2.356   3.065   1.020  0.0175 -0.5327 -0.4763
  550MOL0     N74132   2.459   3.148   1.065  0.0353  0.1422  0.5348
  550MOL0     C74133   2.576   3.104   1.120  0.2344  0.0264 -0.7473
  550MOL0     C74134   2.647   3.220   1.150  0.0504 -0.5018  0.0416
  550MOL0     C74135   2.783   3.221   1.219 -0.3743 -0.1183  0.8637
  550MOL0     C74136   2.880   3.320   1.144 -0.6446 -0.2322 -0.3235
  550MOL0     C74137   3.021   3.329   1.207  0.3038  0.6007 -0.8426
  550MOL0     C74138   3.132   3.387   1.117  0.1202  0.0474 -1.2938
  550MOL0     O74139   3.261   3.372   1.181 -0.1294  1.2138 -0.2108
  550MOL0     C74140   3.332   3.493   1.206 -0.1576  0.6155  0.5944
  550MOL0     C74141   3.349   3.592   1.106 -0.7149  0.2393 -0.0521
  550MOL0     C74142   3.421   3.706   1.127 -0.6729 -0.6519 -0.4121
  550MOL0     C74143   3.478   3.725   1.252 -0.1938 -0.1490 -0.4498
  550MOL0     C74144   3.551   3.846   1.285  0.2331  0.5682 -0.1055
  550MOL0     O74145   3.643   3.828   1.385 -0.2489 -0.5001  0.9347
  550MOL0     C74146   3.753   3.920   1.402  0.4453 -0.0005 -0.8376
  550MOL0     C74147   3.728   4.050   1.448  0.0437  0.3321 -0.1482
  550MOL0     C74148   3.843   4.138   1.470 -0.0509  1.4745 -0.2623
  550MOL0     C74149   3.977   4.089   1.439  0.5447  0.7791 -1.4636
  550MOL0     O74150   4.067   4.179   1.467 -0.5622 -0.1162 -0.0945
  550MOL0     C74151   4.210   4.160   1.450 -0.1821 -0.5205  0.2532
  550MOL0     C74152   4.272   4.298   1.449  0.2412  0.2278  0.0703
  550MOL0     C74153   4.430   4.289   1.458  0.3829  0.2061  0.1908
  550MOL0     C74154   4.500   4.429   1.494 -0.9816  0.3849 -0.3921
  550MOL0     C74155   4.648   4.424   1.442  0.0442 -0.4783  0.3196
  550MOL0     C74156   4.728   4.520   1.526 -0.3428 -0.8616 -0.3729
  550MOL0     C74157   4.863   4.537   1.477  0.0821  0.1252 -0.5255
  550MOL0     C74158   4.953   4.602   1.580 -0.5848  0.1285 -0.3312
  550MOL0    Cl74159   5.122   4.629   1.522 -0.0146  0.5434 -0.0482
  550MOL0     C74160   3.995   3.962   1.385 -0.1058 -0.2276 -0.1567
  550MOL0     C74161   3.882   3.876   1.373 -0.1869 -0.4483 -0.2997
  550MOL0     O74162   3.544   3.940   1.205  0.2364  0.7144  0.0133
  550MOL0     C74163   3.456   3.631   1.355  0.1797 -0.3694  0.1197
  550MOL0     C74164   3.385   3.514   1.334  0.0918  0.0688  0.0014
  550MOL0     N74165   2.575   3.331   1.096 -0.0312 -0.1516 -0.9405
  550MOL0     N74166   2.470   3.289   1.039  0.9027  0.0529  0.0228
  550MOL0     C74167   1.641   3.009   1.705  0.2918  0.0252 -0.2306
  550MOL0     C74168   1.569   2.956   1.818  0.0849  0.8066  0.3772
  550MOL0     C74169   1.220   2.775   2.004  0.2666  0.6226 -0.5382
  550MOL0     C74170   1.318   2.716   2.085 -0.5821  1.0696  0.5505
  550MOL0     C74171   1.298   2.589   2.129  0.7223  0.0333 -0.7508
  550MOL0     C74172   1.173   2.523   2.117  0.2537 -0.3911  0.1792
  550MOL0     O74173   1.149   2.391   2.158 -0.8982 -0.8640  0.0613
  550MOL0     C74174   1.250   2.330   2.243  0.4117  0.2830  0.0507
  550MOL0     C74175   1.193   2.211   2.320 -0.4645 -0.4551 -0.1421
  550MOL0     C74176   1.113   2.101   2.241 -0.0174  0.1295 -0.5219
  550MOL0     C74177   1.058   1.996   2.341  0.0409 -0.2713  0.0300
  550MOL0     C74178   0.990   1.895   2.252  0.2521 -0.4485  0.7829
  550MOL0     C74179   0.925   1.812   2.187 -0.6484 -0.9165  0.0603
  550MOL0     C74180   1.069   2.589   2.047 -0.0377 -0.1391 -0.3912
  550MOL0     C74181   1.090   2.711   1.989  0.4316 -0.3138 -0.7059
  550MOL0     C74182   0.965   2.770   1.922  0.0460 -0.2747 -0.3105
  550MOL0     H74183   1.331   3.188   1.838 -0.1809  0.2656 -0.1466
  550MOL0     H74184   1.478   3.314   1.666  0.1318  0.8512  0.2186
  550MOL0     H74185   1.562   3.210   1.418 -0.6741  0.5917 -0.9019
  550MOL0     H74186   1.618   3.360   1.478 -2.1541 -0.7735 -1.6904
  550MOL0     H74187   1.856   3.285   1.407  1.1783 -2.8566 -1.5664
  550MOL0     H74188   1.754   3.333   1.266 -0.2986 -0.5464 -0.4446
  550MOL0     H74189   1.737   3.090   1.209  0.4268 -2.0887  0.9714
  550MOL0     H74190   1.820   3.051   1.358  2.5034 -1.1337 -0.8804
  550MOL0     H74191   1.928   3.206   1.112  1.2130  0.9196  0.1157
  550MOL0     H74192   2.006   3.213   1.271  0.4359 -0.0214 -1.1345
  550MOL0     H74193   2.018   2.965   1.277  1.6647 -1.6774 -0.7479
  550MOL0     H74194   1.911   2.958   1.139  0.0007  1.3162 -0.3678
  550MOL0     H74195   2.130   2.902   1.059 -3.4438 -0.1344 -1.0375
  550MOL0     H74196   2.068   3.046   0.984 -0.2547 -5.4044 -2.6243
  550MOL0     H74197   2.274   3.056   1.214  1.0888 -1.6931 -1.9282
  550MOL0     H74198   2.204   3.193   1.140 -0.2113 -0.0827  1.9690
  550MOL0     H74199   2.378   2.958   1.028 -0.8399 -0.5989  3.1905
  550MOL0     H74200   2.342   3.090   0.915  1.1152 -1.5855 -0.8944
  550MOL0     H74201   2.603   3.001   1.142 -1.6161 -0.4671 -0.6823
  550MOL0     H74202   2.770   3.247   1.324  2.4759 -1.3291  1.6008
  550MOL0     H74203   2.831   3.123   1.216 -0.4254 -0.1233 -0.4515
  550MOL0     H74204   2.885   3.269   1.047 -0.8982  1.1516 -1.0789
  550MOL0     H74205   2.835   3.419   1.141 -0.3367 -0.1077 -1.1992
  550MOL0     H74206   3.053   3.232   1.246  1.1730  1.7513  1.4350
  550MOL0     H74207   3.009   3.384   1.300  3.0082 -1.8484  1.1337
  550MOL0     H74208   3.112   3.495   1.110 -1.8063  0.0061  1.7979
  550MOL0     H74209   3.123   3.349   1.015 -3.1585 -1.4004 -0.5843
  550MOL0     H74210   3.294   3.575   1.014  0.3704  2.9165 -1.3183
  550MOL0     H74211   3.422   3.778   1.046 -1.5526 -2.2964 -1.9522
  550MOL0     H74212   3.628   4.086   1.471 -0.1654  0.6769 -1.5136
  550MOL0     H74213   3.834   4.238   1.510  0.2325  0.1293  3.6109
  550MOL0     H74214   4.249   4.097   1.531 -0.9829 -0.8540  0.3968
  550MOL0     H74215   4.230   4.137   1.345 -0.7423  1.4071 -0.3095
  550MOL0     H74216   4.224   4.341   1.361  0.1295 -1.3990 -0.7061
  550MOL0     H74217   4.236   4.348   1.539  1.4434 -0.4679  0.9691
  550MOL0     H74218   4.458   4.223   1.540 -0.3640  1.3717  1.4324
  550MOL0     H74219   4.476   4.256   1.364  1.5316  0.7641  0.5336
  550MOL0     H74220   4.497   4.434   1.604 -4.7091  0.9452 -0.3687
  550MOL0     H74221   4.442   4.508   1.446 -2.6689 -1.9254 -2.4281
  550MOL0     H74222   4.658   4.443   1.335  0.0392  0.6366  0.5043
  550MOL0     H74223   4.685   4.324   1.466  0.5293  0.1848  2.6271
  550MOL0     H74224   4.681   4.618   1.521  0.6685 -0.3466 -0.1281
  550MOL0     H74225   4.723   4.489   1.631 -0.4907  3.8371  1.2531
  550MOL0     H74226   4.858   4.593   1.383  2.5397  0.1743 -0.7004
  550MOL0     H74227   4.902   4.440   1.444  1.7601  1.1519 -1.7295
  550MOL0     H74228   4.910   4.695   1.617  0.5867 -0.7649  3.8708
  550MOL0     H74229   4.959   4.529   1.661 -2.0288 -0.2393 -0.5334
  550MOL0     H74230   4.095   3.929   1.361  0.0274 -3.2376  3.5879
  550MOL0     H74231   3.883   3.786   1.313  0.0292  1.4496 -3.3733
  550MOL0     H74232   3.504   3.648   1.451 -0.0782  0.5056  0.0971
  550MOL0     H74233   3.361   3.449   1.417 -1.0302 -0.1809 -0.4946
  550MOL0     H74234   1.732   2.962   1.670  0.7493  0.7292  0.0021
  550MOL0     H74235   1.605   2.860   1.855 -0.1406  0.7571  0.4685
  550MOL0     H74236   1.414   2.766   2.094  2.5796 -4.3424  1.4678
  550MOL0     H74237   1.387   2.541   2.170  0.7067 -0.6754 -1.5117
  550MOL0     H74238   1.274   2.396   2.327 -0.0830 -1.3841  1.5777
  550MOL0     H74239   1.340   2.297   2.191 -1.7089 -5.3315 -0.6902
  550MOL0     H74240   1.119   2.252   2.389  0.0769  1.6186 -0.7283
  550MOL0     H74241   1.279   2.170   2.375 -0.1637  0.0596 -0.2227
  550MOL0     H74242   1.191   2.045   2.187  1.1312 -1.0530  2.1748
  550MOL0     H74243   1.031   2.151   2.189  0.0082  0.8675  0.1366
  550MOL0     H74244   1.141   1.959   2.401  1.3248 -0.7511 -1.9356
  550MOL0     H74245   0.987   2.046   2.408 -0.7664 -1.1084 -0.1871
  550MOL0     H74246   0.876   1.737   2.128 -0.3897 -0.7722 -0.3430
  550MOL0     H74247   0.967   2.552   2.045  0.4025 -1.3722 -0.9958
  550MOL0     H74248   0.874   2.727   1.964  2.9935 -4.3742  2.5818
  550MOL0     H74249   0.946   2.878   1.929 -1.3576 -0.5747  0.9492
  550MOL0     H74250   0.975   2.750   1.815 -1.3278 -0.5921 -0.3870
  551MOL0     O74251   1.603   0.302   7.692  0.7045 -0.4070 -0.1418
  551MOL0     C74252   1.650   0.392   7.759 -0.8292  0.4472 -0.3389
  551MOL0     O74253   1.783   0.421   7.782 -0.3521  1.0535  0.9471
  551MOL0     C74254   1.883   0.345   7.723 -0.2812 -1.2785 -0.4621
  551MOL0     C74255   1.963   0.398   7.627  0.1079  0.4582 -0.3908
  551MOL0     C74256   2.063   0.319   7.569  0.0381  0.3463  0.9762
  551MOL0     C74257   2.080   0.181   7.597 -0.1141 -0.1987 -0.3284
  551MOL0     O74258   2.170   0.106   7.529  0.3757  0.9718  0.8493
  551MOL0     C74259   2.152  -0.030   7.497 -0.0261 -0.1715 -0.2310
  551MOL0     C74260   2.261  -0.081   7.405 -0.0072  0.1535 -0.0264
  551MOL0     C74261   2.391  -0.114   7.480 -0.4505  0.2499 -0.2402
  551MOL0     C74262   2.487  -0.204   7.394 -0.0265  0.5245  0.6439
  551MOL0     C74263   2.598  -0.288   7.464  0.2626  0.7189 -1.0071
  551MOL0     C74264   2.649  -0.415   7.379 -0.5592 -0.1864  0.5766
  551MOL0     C74265   2.542  -0.522   7.364  0.4745 -0.3971  0.2732
  551MOL0     C74266   2.471  -0.568   7.498 -0.2726 -0.3195 -0.1414
  551MOL0     N74267   2.394  -0.697   7.481 -0.2035 -0.3589  0.1890
  551MOL0     C74268   2.424  -0.814   7.425 -0.3469  0.2937 -0.2104
  551MOL0     C74269   2.311  -0.886   7.410 -1.1665  0.2582 -0.7361
  551MOL0     C74270   2.306  -1.023   7.343 -0.8293 -0.0483 -0.5400
  551MOL0     C74271   2.243  -1.128   7.429  0.5147  0.9083 -0.9244
  551MOL0     C74272   2.094  -1.112   7.443 -0.8375  0.0778 -0.0284
  551MOL0     C74273   2.010  -1.232   7.500  0.1765  0.1780 -0.2088
  551MOL0     O74274   2.012  -1.351   7.407 -0.6236  0.3729  0.4013
  551MOL0     C74275   2.115  -1.438   7.402 -0.3473 -0.2534  0.8889
  551MOL0     C74276   2.193  -1.463   7.508  0.2524 -0.3023 -0.4717
  551MOL0     C74277   2.300  -1.554   7.495  0.0225 -0.1314  0.1203
  551MOL0     C74278   2.317  -1.632   7.380 -0.3105  0.1076  0.2417
  551MOL0     C74279   2.451  -1.720   7.381 -0.5864 -0.6753 -0.3296
  551MOL0     O74280   2.460  -1.809   7.276 -0.6518  0.0927 -0.7368
  551MOL0     C74281   2.591  -1.823   7.230  0.4283 -0.0086 -0.3380
  551MOL0     C74282   2.605  -1.940   7.159  0.4391  0.3271  0.3419
  551MOL0     C74283   2.725  -1.973   7.108 -0.1090  0.6610 -0.2749
  551MOL0     C74284   2.838  -1.887   7.121 -0.4029 -0.6481  0.6856
  551MOL0     O74285   2.962  -1.921   7.056  0.8655 -0.1388  0.5348
  551MOL0     C74286   3.070  -1.838   7.111  0.2234 -0.1769  0.1082
  551MOL0     C74287   3.210  -1.882   7.071  0.0149 -0.3607  0.6164
  551MOL0     C74288   3.245  -2.024   7.110 -0.0720 -0.0397 -0.3955
  551MOL0     C74289   3.372  -2.074   7.046 -0.9117 -0.7148  0.6002
  551MOL0     C74290   3.385  -2.227   7.068  0.3224 -0.9491  0.0467
  551MOL0     C74291   3.471  -2.297   6.961  0.4322 -0.7688 -0.3669
  551MOL0     C74292   3.486  -2.448   7.007 -0.5824  0.4661  0.5168
  551MOL0     C74293   3.585  -2.484   7.117 -0.8834  0.1017  0.2393
  551MOL0    Cl74294   3.752  -2.436   7.062  0.1658  0.3147  0.4237
  551MOL0     C74295   2.815  -1.764   7.192  0.0231  0.2019 -0.0318
  551MOL0     C74296   2.696  -1.726   7.232  0.4589  0.2387 -0.2676
  551MOL0     O74297   2.530  -1.706   7.468  0.2164  0.5866 -0.7433
  551MOL0     C74298   2.247  -1.605   7.272  0.7908  0.3782 -0.1196
  551MOL0     C74299   2.151  -1.501   7.283  0.9312 -0.3972  0.6633
  551MOL0     N74300   2.207  -0.812   7.465  0.2591 -0.1374  0.0712
  551MOL0     N74301   2.257  -0.708   7.499  0.3835 -0.6474 -0.4478
  551MOL0     C74302   2.007   0.124   7.707 -0.6886  0.4637  0.2571
  551MOL0     C74303   1.912   0.211   7.762  0.5815 -0.1207 -0.2262
  551MOL0     C74304   1.551   0.445   7.854  0.3903  1.0135  0.9496
  551MOL0     C74305   1.605   0.471   7.978 -0.8240  0.1472  0.5693
  551MOL0     C74306   1.523   0.532   8.075  0.0720 -0.5535 -0.7888
  551MOL0     C74307   1.390   0.573   8.047 -0.9291  0.1825  0.4184
  551MOL0     O74308   1.302   0.643   8.125  0.5321 -0.7536  0.7693
  551MOL0     C74309   1.339   0.693   8.252  0.6683  0.3142  0.1113
  551MOL0     C74310   1.424   0.823   8.250 -0.3316  0.3417 -0.2014
  551MOL0     C74311   1.342   0.948   8.235  0.2507 -0.8804 -1.0884
  551MOL0     C74312   1.262   0.990   8.359 -0.3518  0.1179 -0.5667
  551MOL0     C74313   1.345   1.039   8.460 -0.2765 -0.3214 -0.8384
  551MOL0     C74314   1.419   1.095   8.533 -0.4837  1.0804 -0.7515
  551MOL0     C74315   1.342   0.539   7.931  0.1717 -0.1139  1.0272
  551MOL0     C74316   1.409   0.466   7.832 -0.0304  0.4835  0.0421
  551MOL0     C74317   1.336   0.433   7.701  0.2979 -0.6608  0.0882
  551MOL0     H74318   1.953   0.505   7.611 -0.2883  0.3076 -1.2007
  551MOL0     H74319   2.122   0.354   7.484 -2.3341  0.0378 -0.8971
  551MOL0     H74320   2.139  -0.085   7.590 -1.2732  0.5305  0.0322
  551MOL0     H74321   2.059  -0.041   7.440 -0.2774 -2.0830  0.4780
  551MOL0     H74322   2.286   0.003   7.338  0.6749 -2.2971 -3.0942
  551MOL0     H74323   2.211  -0.153   7.340 -0.8288  1.6669 -1.1605
  551MOL0     H74324   2.369  -0.151   7.581  0.4764  3.5105  1.2785
  551MOL0     H74325   2.438  -0.016   7.493 -0.3477  0.4555 -1.9142
  551MOL0     H74326   2.433  -0.268   7.323  0.3718  2.4818 -1.5795
  551MOL0     H74327   2.542  -0.141   7.324  3.3999 -1.1605  1.6192
  551MOL0     H74328   2.682  -0.220   7.481 -1.7677  2.7398  1.9592
  551MOL0     H74329   2.568  -0.326   7.561  0.8980 -0.6432 -1.3269
  551MOL0     H74330   2.675  -0.365   7.286  3.7622 -0.2455  1.5536
  551MOL0     H74331   2.746  -0.457   7.407  0.6063  2.0593  0.1009
  551MOL0     H74332   2.593  -0.615   7.338  2.4509  0.2981  1.4751
  551MOL0     H74333   2.464  -0.497   7.292  1.0482  0.0191 -0.2043
  551MOL0     H74334   2.549  -0.585   7.573 -0.4325 -0.4901 -0.0121
  551MOL0     H74335   2.399  -0.498   7.540  0.6097  1.5365 -1.6036
  551MOL0     H74336   2.523  -0.834   7.386 -0.5815 -0.1766 -0.5674
  551MOL0     H74337   2.247  -1.011   7.251  1.5534 -0.4804 -2.2001
  551MOL0     H74338   2.407  -1.045   7.310 -0.8242  0.4717 -0.8891
  551MOL0     H74339   2.273  -1.222   7.382 -2.8110 -0.8654  0.2222
  551MOL0     H74340   2.291  -1.134   7.527 -0.9401 -1.3660 -0.2792
  551MOL0     H74341   2.045  -1.086   7.349 -0.3348 -2.7190 -1.1652
  551MOL0     H74342   2.081  -1.029   7.513  3.4751 -1.3073  2.7836
  551MOL0     H74343   1.906  -1.200   7.513  0.7097  2.0485 -0.2672
  551MOL0     H74344   2.040  -1.271   7.598 -1.3336 -1.9104 -0.5034
  551MOL0     H74345   2.180  -1.406   7.600 -2.7588  2.6500 -2.5086
  551MOL0     H74346   2.352  -1.565   7.589  0.1731  2.3711  0.4043
  551MOL0     H74347   2.525  -2.011   7.142 -0.0757  1.0173 -0.1788
  551MOL0     H74348   2.754  -2.056   7.045  1.4270  2.1762 -1.6704
  551MOL0     H74349   3.063  -1.735   7.074 -0.5594 -1.1830 -2.7580
  551MOL0     H74350   3.059  -1.841   7.220 -0.9631 -0.6623 -0.0139
  551MOL0     H74351   3.221  -1.868   6.963  1.8010 -2.1170  0.5124
  551MOL0     H74352   3.281  -1.810   7.113 -1.8075  4.0586 -2.9615
  551MOL0     H74353   3.251  -2.035   7.219  0.0312 -1.1396 -0.5093
  551MOL0     H74354   3.160  -2.086   7.081  1.1016 -3.0126  2.0567
  551MOL0     H74355   3.460  -2.022   7.087 -0.3646 -0.5451 -0.7478
  551MOL0     H74356   3.374  -2.051   6.939  0.8171  2.4491  1.1895
  551MOL0     H74357   3.285  -2.262   7.042  0.8094 -1.0840 -1.8062
  551MOL0     H74358   3.406  -2.255   7.172 -2.0531  2.8254  1.7421
  551MOL0     H74359   3.415  -2.288   6.867 -0.4253  0.8542  0.2562
  551MOL0     H74360   3.575  -2.267   6.947  0.8725 -2.6895 -1.5020
  551MOL0     H74361   3.507  -2.499   6.913  0.7152  1.4741  0.2270
  551MOL0     H74362   3.386  -2.477   7.039 -1.4396  0.5585 -1.8599
  551MOL0     H74363   3.553  -2.429   7.206 -0.0508 -0.5587  0.9584
  551MOL0     H74364   3.575  -2.590   7.143 -0.1278  0.2444  1.1520
  551MOL0     H74365   2.887  -1.683   7.198 -0.0109  0.2599 -0.3874
  551MOL0     H74366   2.691  -1.635   7.291  0.6611 -1.5063  2.6646
  551MOL0     H74367   2.278  -1.663   7.186 -0.2751  1.1155 -1.0290
  551MOL0     H74368   2.089  -1.468   7.200  0.6915  1.7541  1.6377
  551MOL0     H74369   2.039   0.028   7.744  0.2367 -0.2969 -2.2779
  551MOL0     H74370   1.865   0.165   7.849  1.6067 -0.9117 -0.0780
  551MOL0     H74371   1.710   0.462   8.005 -0.3512  3.9107  0.6194
  551MOL0     H74372   1.566   0.557   8.172 -1.6841 -1.7393  0.3790
  551MOL0     H74373   1.392   0.612   8.304  0.0705 -0.5258 -0.5596
  551MOL0     H74374   1.245   0.707   8.306  0.1956  3.2222 -1.3212
  551MOL0     H74375   1.488   0.813   8.163  0.1516  1.0058  0.0740
  551MOL0     H74376   1.480   0.830   8.344  1.3632 -0.8453 -1.0880
  551MOL0     H74377   1.283   0.943   8.143  0.4273  0.4268 -1.3003
  551MOL0     H74378   1.407   1.031   8.205  2.7248 -2.9307 -1.6762
  551MOL0     H74379   1.204   1.074   8.321  3.3762  2.1019 -2.3814
  551MOL0     H74380   1.227   0.895   8.401  3.3188  1.0117  5.8547
  551MOL0     H74381   1.497   1.138   8.593 -1.0191 -1.6882  2.2705
  551MOL0     H74382   1.245   0.581   7.909  2.2469  3.9290 -1.3783
  551MOL0     H74383   1.270   0.520   7.689  2.1200  0.7243 -0.4516
  551MOL0     H74384   1.399   0.428   7.612 -0.9043 -1.0895 -0.7555
  551MOL0     H74385   1.275   0.343   7.713  0.9800 -1.1915 -0.3248
  552MOL0     O74386   8.669   4.658   4.689 -0.1404 -0.4369  0.3363
  552MOL0     C74387   8.761   4.710   4.760  0.5578  0.1476 -0.5727
  552MOL0     O74388   8.868   4.765   4.708 -0.9091  0.4823 -0.3955
  552MOL0     C74389   8.927   4.713   4.598 -0.3713 -0.2137 -0.2575
  552MOL0     C74390   8.949   4.575   4.578 -0.6210 -0.1503 -0.9705
  552MOL0     C74391   9.008   4.532   4.458  0.1401  0.1108 -0.3017
  552MOL0     C74392   9.059   4.635   4.373  0.4794 -1.0139  0.0875
  552MOL0     O74393   9.117   4.602   4.255 -0.1857  0.4546 -0.1458
  552MOL0     C74394   9.116   4.471   4.185  0.5459 -0.5384 -0.2746
  552MOL0     C74395   9.223   4.487   4.076  0.1635 -0.1938 -0.2803
  552MOL0     C74396   9.212   4.370   3.976  0.3068  0.6889  0.3009
  552MOL0     C74397   9.281   4.410   3.844 -0.4664  0.1143 -0.5748
  552MOL0     C74398   9.426   4.465   3.854  0.3218  0.6441 -0.0827
  552MOL0     C74399   9.516   4.351   3.901 -0.5850  0.7095  0.9917
  552MOL0     C74400   9.590   4.281   3.795 -0.1447  0.0764  0.1610
  552MOL0     C74401   9.728   4.341   3.759  0.8550 -0.0675  0.3346
  552MOL0     N74402   9.811   4.254   3.672  0.0026  0.2128 -0.3546
  552MOL0     C74403   9.777   4.192   3.559 -0.2422  0.0971 -0.3700
  552MOL0     C74404   9.896   4.130   3.514  0.3781  1.0576 -1.2725
  552MOL0     C74405   9.904   4.037   3.397 -0.7075 -0.3201  0.0403
  552MOL0     C74406   9.932   3.891   3.446 -0.7421 -0.0893  0.2380
  552MOL0     C74407   9.946   3.809   3.314  0.1414  0.2856  0.2513
  552MOL0     C74408   9.947   3.662   3.364 -0.1316  0.0684  1.4161
  552MOL0     O74409   9.977   3.596   3.247  0.2351  0.3866  0.6375
  552MOL0     C74410   9.884   3.506   3.201 -0.8254  0.1907  0.7700
  552MOL0     C74411   9.871   3.377   3.250 -0.4786 -0.8285 -0.3367
  552MOL0     C74412   9.793   3.283   3.193 -0.6181  0.0045  0.5080
  552MOL0     C74413   9.712   3.318   3.078  0.1152 -0.6132  0.0867
  552MOL0     C74414   9.644   3.214   3.005 -0.1060  0.1861  0.0955
  552MOL0     O74415   9.579   3.242   2.891  0.0978 -0.1922  0.0806
  552MOL0     C74416   9.541   3.128   2.820 -0.3898 -0.0070  0.3114
  552MOL0     C74417   9.450   3.031   2.860 -0.4214 -0.1972 -0.6183
  552MOL0     C74418   9.413   2.935   2.769  0.5729  0.0206  0.0429
  552MOL0     C74419   9.468   2.930   2.636  0.3496  0.3663  0.1108
  552MOL0     O74420   9.429   2.851   2.533  0.4501 -0.3988  0.6625
  552MOL0     C74421   9.363   2.733   2.556  0.8167  0.3547  0.2959
  552MOL0     C74422   9.298   2.682   2.422  0.2392  0.9029  0.0789
  552MOL0     C74423   9.197   2.566   2.443 -0.3455  0.4215  0.0981
  552MOL0     C74424   9.173   2.487   2.311  0.6798 -0.5728  0.7100
  552MOL0     C74425   9.088   2.361   2.337 -0.4830  0.8778  0.0698
  552MOL0     C74426   9.042   2.309   2.206  0.1967 -0.1838 -0.3185
  552MOL0     C74427   8.939   2.183   2.224 -0.2046  0.5308  0.7463
  552MOL0     C74428   8.931   2.097   2.096  0.0746 -0.7484 -0.1158
  552MOL0    Cl74429   8.865   1.935   2.123 -0.0719 -0.0925 -0.0877
  552MOL0     C74430   9.564   3.019   2.596 -0.4423 -0.7209  0.7190
  552MOL0     C74431   9.605   3.112   2.684 -0.7628 -0.6238  0.4110
  552MOL0     O74432   9.656   3.099   3.047  0.2353  0.7117  0.6509
  552MOL0     C74433   9.707   3.456   3.036 -0.0314  0.1691 -0.8421
  552MOL0     C74434   9.807   3.544   3.087  0.1033  0.8100 -1.0019
  552MOL0     N74435   9.994   4.171   3.600 -0.4783  0.4545  0.1432
  552MOL0     N74436   9.943   4.245   3.693 -0.0644 -0.4890  0.3445
  552MOL0     C74437   9.033   4.773   4.388  0.0694 -0.4144 -0.5105
  552MOL0     C74438   8.967   4.810   4.504 -0.1664  0.4368  1.2422
  552MOL0     C74439   8.737   4.726   4.907 -0.7596  0.1742 -0.8788
  552MOL0     C74440   8.831   4.807   4.974 -0.9814  0.6036 -0.4490
  552MOL0     C74441   8.823   4.821   5.106 -0.2226  0.3474 -0.7818
  552MOL0     C74442   8.728   4.754   5.186  0.4540  0.0091  0.4093
  552MOL0     O74443   8.720   4.778   5.325  0.0849  0.0350  1.1741
  552MOL0     C74444   8.657   4.674   5.397  0.4354  0.1550  0.5722
  552MOL0     C74445   8.714   4.692   5.536  0.1246 -0.1364  0.6486
  552MOL0     C74446   8.670   4.585   5.634 -0.6892 -0.2774  0.7723
  552MOL0     C74447   8.518   4.593   5.675 -0.0450  0.2582 -0.0105
  552MOL0     C74448   8.465   4.476   5.750  0.4853  0.4251  0.8194
  552MOL0     C74449   8.419   4.368   5.791  0.3629 -0.9688 -0.7386
  552MOL0     C74450   8.634   4.675   5.123  0.3518 -0.4636  0.9543
  552MOL0     C74451   8.639   4.651   4.983 -0.6237 -0.2197 -0.4003
  552MOL0     C74452   8.552   4.542   4.922 -0.3035  0.1516  0.1396
  552MOL0     H74453   8.917   4.503   4.653 -2.1813 -0.5591 -1.9628
  552MOL0     H74454   9.024   4.427   4.434 -0.7878 -1.2019  4.0137
  552MOL0     H74455   9.156   4.397   4.256  0.2852 -0.3572  0.0664
  552MOL0     H74456   9.019   4.441   4.146  0.7877  0.1870 -1.4672
  552MOL0     H74457   9.324   4.493   4.119  0.7403 -2.2995 -1.2103
  552MOL0     H74458   9.213   4.575   4.012 -1.5951 -0.2044 -0.0655
  552MOL0     H74459   9.107   4.348   3.955  0.1234  0.7545  1.1109
  552MOL0     H74460   9.257   4.277   4.013 -0.5853 -0.1168 -0.5647
  552MOL0     H74461   9.275   4.318   3.785 -1.2886 -1.1993  1.4245
  552MOL0     H74462   9.211   4.485   3.806 -1.7423 -0.5757  0.3098
  552MOL0     H74463   9.463   4.514   3.764  1.9400 -0.4354 -0.0584
  552MOL0     H74464   9.413   4.537   3.935 -1.2546 -1.7156  1.9238
  552MOL0     H74465   9.578   4.393   3.981  2.9481  2.2670 -2.2845
  552MOL0     H74466   9.457   4.275   3.953 -1.3105  1.0206  0.6512
  552MOL0     H74467   9.526   4.278   3.706  0.9776  0.6281 -0.6946
  552MOL0     H74468   9.604   4.176   3.822 -1.6609  0.3595  2.3011
  552MOL0     H74469   9.716   4.441   3.715 -0.2364 -1.4737 -2.9309
  552MOL0     H74470   9.782   4.353   3.853  2.6184 -1.7511 -0.4019
  552MOL0     H74471   9.679   4.175   3.516 -1.2803  0.5167  1.7174
  552MOL0     H74472   9.808   4.038   3.346 -1.7715 -3.2522  1.7710
  552MOL0     H74473   9.983   4.074   3.330 -2.2199  2.0542 -0.5643
  552MOL0     H74474  10.030   3.876   3.493 -0.7483 -3.7198 -0.6153
  552MOL0     H74475   9.871   3.839   3.520  0.5340 -0.7198  0.8925
  552MOL0     H74476  10.035   3.834   3.256  0.0935  0.3898  0.2220
  552MOL0     H74477   9.856   3.816   3.253 -1.6831  3.1122  2.9155
  552MOL0     H74478   9.849   3.635   3.405 -1.0283  1.2654  0.1121
  552MOL0     H74479  10.025   3.657   3.442  3.1429  1.4069 -1.5221
  552MOL0     H74480   9.920   3.356   3.345  0.5429  2.0119 -0.1166
  552MOL0     H74481   9.798   3.177   3.218  0.2657 -0.6793 -2.2492
  552MOL0     H74482   9.407   3.042   2.958  1.2818 -0.3685  0.1872
  552MOL0     H74483   9.338   2.863   2.802 -1.1800  1.3674 -0.7921
  552MOL0     H74484   9.429   2.654   2.595  1.7050  1.0766  0.2834
  552MOL0     H74485   9.281   2.738   2.628  0.7211  0.8535  0.1488
  552MOL0     H74486   9.244   2.752   2.359  0.9351 -0.2835 -1.9079
  552MOL0     H74487   9.376   2.650   2.352  0.0411  1.3844 -0.3673
  552MOL0     H74488   9.235   2.503   2.524  1.0268  2.5866  1.2411
  552MOL0     H74489   9.099   2.608   2.466 -0.4877  1.3177 -1.8983
  552MOL0     H74490   9.266   2.467   2.258  0.0151  0.5040 -0.9155
  552MOL0     H74491   9.116   2.553   2.246 -0.7168  0.1893  2.6014
  552MOL0     H74492   8.997   2.380   2.394 -0.9134  1.6328 -0.8342
  552MOL0     H74493   9.146   2.278   2.378 -0.7301 -0.7883 -2.6760
  552MOL0     H74494   8.989   2.386   2.150  0.9165  0.6487  0.1344
  552MOL0     H74495   9.124   2.285   2.139 -0.2380 -0.2337 -0.8375
  552MOL0     H74496   8.834   2.205   2.244  0.4127  1.1591  3.7511
  552MOL0     H74497   8.976   2.124   2.309  0.4956  0.4338  0.3885
  552MOL0     H74498   8.878   2.153   2.018  2.8444  0.4486 -1.2575
  552MOL0     H74499   9.031   2.098   2.052  0.4182  1.4952  0.5959
  552MOL0     H74500   9.592   3.024   2.491  2.8848 -0.5699  1.5184
  552MOL0     H74501   9.668   3.198   2.660 -0.1859 -0.7255  1.4760
  552MOL0     H74502   9.632   3.478   2.961 -0.1164 -1.3518 -1.2354
  552MOL0     H74503   9.811   3.649   3.058  1.9125  0.6949 -1.2583
  552MOL0     H74504   9.065   4.830   4.301 -0.4818 -1.6933 -1.5984
  552MOL0     H74505   8.945   4.915   4.525  4.5312  1.4360  2.3368
  552MOL0     H74506   8.905   4.864   4.919  1.0544  2.4930  3.7852
  552MOL0     H74507   8.877   4.899   5.158 -0.6963 -1.0279  1.9073
  552MOL0     H74508   8.692   4.574   5.373  0.2563 -0.7905  3.7339
  552MOL0     H74509   8.549   4.684   5.383  0.2378 -1.1320  1.0800
  552MOL0     H74510   8.675   4.788   5.572 -2.8528  0.1435 -2.7627
  552MOL0     H74511   8.823   4.687   5.541  0.1812 -0.9314 -0.7642
  552MOL0     H74512   8.737   4.595   5.720  3.1453  0.7716 -2.0341
  552MOL0     H74513   8.693   4.492   5.581 -0.4271  0.6052 -0.7353
  552MOL0     H74514   8.498   4.683   5.733  1.6478  0.8492 -0.2734
  552MOL0     H74515   8.454   4.598   5.586  2.4529 -0.2898 -1.9705
  552MOL0     H74516   8.414   4.269   5.832 -0.0876  0.1145  2.0663
  552MOL0     H74517   8.563   4.619   5.183  0.3855 -1.1508  0.3658
  552MOL0     H74518   8.477   4.493   4.985 -0.4271 -0.5850 -0.5641
  552MOL0     H74519   8.486   4.591   4.849 -0.8231  1.3378  1.3598
  552MOL0     H74520   8.611   4.472   4.862  0.3769  0.1862  0.7534
  553MOL0     O74521   0.433   0.447   0.487 -0.9224  0.5522 -0.3736
  553MOL0     C74522   0.415   0.342   0.433  1.2155  1.0470  0.1359
  553MOL0     O74523   0.508   0.251   0.410 -0.0219 -0.3848 -0.0484
  553MOL0     C74524   0.641   0.273   0.438  0.9659 -0.3821 -0.6665
  553MOL0     C74525   0.737   0.222   0.354  0.0174 -0.0999  0.2514
  553MOL0     C74526   0.869   0.228   0.380  0.5109 -0.1413  0.1321
  553MOL0     C74527   0.916   0.302   0.482 -0.6342 -0.1502 -0.7911
  553MOL0     O74528   1.047   0.311   0.475 -0.0572 -0.7184  0.0833
  553MOL0     C74529   1.128   0.376   0.572  0.4504  0.1180  0.9659
  553MOL0     C74530   1.271   0.375   0.529 -0.0197  0.2773  0.4475
  553MOL0     C74531   1.332   0.244   0.549  0.0336  0.0601 -0.0921
  553MOL0     C74532   1.445   0.226   0.453  0.4329  0.6161 -0.7616
  553MOL0     C74533   1.564   0.304   0.503 -0.1893  0.6672  0.6590
  553MOL0     C74534   1.699   0.267   0.437  0.2142 -0.4619 -0.5432
  553MOL0     C74535   1.809   0.341   0.502 -0.1550  0.0071 -0.0180
  553MOL0     C74536   1.950   0.291   0.453  0.7570  0.6108 -0.4101
  553MOL0     N74537   2.047   0.352   0.536  0.7274  0.1036  0.5612
  553MOL0     C74538   2.117   0.293   0.644  0.0901 -0.3444  0.0958
  553MOL0     C74539   2.186   0.395   0.703  0.8244 -1.6476  0.3150
  553MOL0     C74540   2.289   0.371   0.807  1.3417  0.0110  0.4517
  553MOL0     C74541   2.379   0.491   0.838  0.6968  0.6055  0.5970
  553MOL0     C74542   2.494   0.453   0.935 -0.4599  0.7033 -0.2364
  553MOL0     C74543   2.545   0.594   0.964 -0.0781 -0.4003 -0.3061
  553MOL0     O74544   2.597   0.578   1.097 -0.0529 -0.3049  0.2079
  553MOL0     C74545   2.680   0.668   1.150  0.3017  0.1774 -0.5257
  553MOL0     C74546   2.731   0.778   1.076 -0.4490 -0.1833 -0.7040
  553MOL0     C74547   2.828   0.863   1.134  0.3826 -0.3377 -0.7780
  553MOL0     C74548   2.880   0.835   1.261  0.1075 -0.1588 -0.5309
  553MOL0     C74549   2.995   0.914   1.307 -0.2632 -0.7166  0.2323
  553MOL0     O74550   3.062   0.874   1.421  0.0225  0.0349 -0.3238
  553MOL0     C74551   3.180   0.927   1.469  0.3358 -0.3421  0.4945
  553MOL0     C74552   3.279   0.994   1.393 -0.7626  0.1597 -0.0003
  553MOL0     C74553   3.399   1.027   1.454 -0.5641  0.9977 -0.6473
  553MOL0     C74554   3.436   0.976   1.577 -0.1276  0.0167  0.9820
  553MOL0     O74555   3.569   0.996   1.609  0.6375  1.1921 -0.3102
  553MOL0     C74556   3.591   1.081   1.734  0.4225  0.1087 -0.5795
  553MOL0     C74557   3.735   1.130   1.717 -0.3747  0.6722 -0.0377
  553MOL0     C74558   3.769   1.227   1.837  0.6670 -1.0006  0.7371
  553MOL0     C74559   3.875   1.327   1.794 -0.0615 -0.8852 -1.1237
  553MOL0     C74560   4.011   1.270   1.760  0.2813  0.2080 -0.0200
  553MOL0     C74561   4.111   1.370   1.813  0.3226 -0.1094 -1.2500
  553MOL0     C74562   4.246   1.329   1.771  0.1382 -0.5437  0.0699
  553MOL0     C74563   4.351   1.443   1.754  0.1148 -0.0285  0.8876
  553MOL0    Cl74564   4.300   1.568   1.645  0.6436 -0.4617 -0.0415
  553MOL0     C74565   3.340   0.902   1.651  0.2471  0.2503  0.3590
  553MOL0     C74566   3.216   0.891   1.602 -0.2444 -0.8480  0.3818
  553MOL0     O74567   3.032   1.007   1.236  0.6768 -0.9245  0.4272
  553MOL0     C74568   2.829   0.724   1.327  0.3288  0.0671  0.0402
  553MOL0     C74569   2.727   0.646   1.276 -0.6846  0.6155 -0.7296
  553MOL0     N74570   2.164   0.505   0.618  0.3031 -0.7752 -0.0615
  553MOL0     N74571   2.086   0.485   0.519 -0.2526  0.2119  0.4762
  553MOL0     C74572   0.830   0.357   0.571 -0.0735 -0.3709 -0.7144
  553MOL0     C74573   0.694   0.331   0.555  0.7596 -0.5468 -0.7305
  553MOL0     C74574   0.269   0.309   0.392  0.2071  0.5660 -0.3910
  553MOL0     C74575   0.181   0.413   0.429  0.5128 -0.6005 -1.1165
  553MOL0     C74576   0.043   0.403   0.390  0.4047 -0.2468  0.3077
  553MOL0     C74577  -0.008   0.293   0.329  0.1915  0.2249 -0.6516
  553MOL0     O74578  -0.142   0.305   0.296  0.6296 -0.3634 -0.1043
  553MOL0     C74579  -0.198   0.212   0.205 -0.2970 -0.4792  0.8782
  553MOL0     C74580  -0.333   0.258   0.149  0.1920  0.2502  0.3644
  553MOL0     C74581  -0.368   0.212   0.004 -0.4819  0.1937 -1.6337
  553MOL0     C74582  -0.445   0.325  -0.062 -0.9582  0.2223 -1.3652
  553MOL0     C74583  -0.525   0.278  -0.174  0.8598 -0.5485 -0.1351
  553MOL0     C74584  -0.601   0.244  -0.262 -0.7300 -0.2392  0.7386
  553MOL0     C74585   0.078   0.199   0.289 -0.3024  0.4490  0.0554
  553MOL0     C74586   0.218   0.195   0.319  0.1373  0.1841 -0.1769
  553MOL0     C74587   0.285   0.063   0.274 -0.2199  0.2408  0.2249
  553MOL0     H74588   0.706   0.167   0.266 -0.2648 -2.9804  2.0278
  553MOL0     H74589   0.938   0.176   0.315 -0.7143 -2.6990  0.7358
  553MOL0     H74590   1.089   0.476   0.592  1.2614  0.8138 -0.7626
  553MOL0     H74591   1.115   0.323   0.667 -0.4350 -0.5613  0.4865
  553MOL0     H74592   1.338   0.439   0.586 -0.2582 -0.8030  1.9889
  553MOL0     H74593   1.278   0.396   0.422 -0.4351  1.2517  0.6011
  553MOL0     H74594   1.252   0.170   0.533  1.0962 -1.3101  0.6604
  553MOL0     H74595   1.363   0.223   0.652 -2.3953  0.0648  0.7146
  553MOL0     H74596   1.472   0.121   0.446  0.2509  0.5260 -0.1857
  553MOL0     H74597   1.428   0.257   0.350  0.5949 -2.3114 -1.7404
  553MOL0     H74598   1.554   0.412   0.489 -1.1151  0.6476  1.0863
  553MOL0     H74599   1.584   0.262   0.602  0.0734  1.2880  0.8751
  553MOL0     H74600   1.712   0.159   0.444  1.8381 -0.2906 -0.6010
  553MOL0     H74601   1.699   0.280   0.329  1.0572  1.7263 -0.3311
  553MOL0     H74602   1.806   0.322   0.610 -0.1778 -0.3990 -0.0866
  553MOL0     H74603   1.794   0.448   0.490  0.9015  0.1503 -0.1436
  553MOL0     H74604   1.954   0.182   0.455 -0.7040  0.5428 -0.2718
  553MOL0     H74605   1.967   0.334   0.354  0.8607  0.6730 -0.3665
  553MOL0     H74606   2.109   0.188   0.672 -0.5207 -0.8408 -1.7631
  553MOL0     H74607   2.259   0.314   0.896  2.3310 -1.8034 -0.3183
  553MOL0     H74608   2.350   0.300   0.750 -0.1176  0.3074 -1.5602
  553MOL0     H74609   2.426   0.530   0.747  0.6232  0.2221  0.3890
  553MOL0     H74610   2.322   0.573   0.881  3.0088  0.7084  3.8017
  553MOL0     H74611   2.563   0.378   0.896 -1.5606 -0.0335 -0.8189
  553MOL0     H74612   2.456   0.414   1.030  2.5478  0.4753  1.0148
  553MOL0     H74613   2.474   0.677   0.954 -2.1552 -2.0802 -0.2313
  553MOL0     H74614   2.622   0.619   0.891 -0.3158  2.1474  0.2035
  553MOL0     H74615   2.705   0.800   0.973 -1.3923  1.8803 -0.0812
  553MOL0     H74616   2.861   0.944   1.070 -1.4066  0.0729 -1.2260
  553MOL0     H74617   3.254   1.031   1.294 -2.9997  2.5769  1.3667
  553MOL0     H74618   3.476   1.075   1.395 -2.3406  0.5771 -3.4869
  553MOL0     H74619   3.527   1.170   1.736 -0.6929 -0.5795 -2.5143
  553MOL0     H74620   3.578   1.026   1.827  5.6956  0.6430  0.7964
  553MOL0     H74621   3.801   1.044   1.705 -0.6377  0.1465  2.0406
  553MOL0     H74622   3.731   1.193   1.627 -1.4147  0.4581 -0.1534
  553MOL0     H74623   3.681   1.283   1.868  0.3851  0.5806 -2.5176
  553MOL0     H74624   3.798   1.170   1.926  1.2783  1.6430  2.3520
  553MOL0     H74625   3.884   1.395   1.879  1.3010  0.3822 -2.2259
  553MOL0     H74626   3.843   1.384   1.707 -1.4567  3.0499  1.6892
  553MOL0     H74627   4.025   1.267   1.652 -0.8445 -1.4659 -0.1549
  553MOL0     H74628   4.025   1.171   1.803 -0.5306 -0.6271 -1.5954
  553MOL0     H74629   4.084   1.468   1.772 -2.9112 -0.6778 -0.7630
  553MOL0     H74630   4.094   1.387   1.920  2.5518 -0.1145 -0.8505
  553MOL0     H74631   4.248   1.279   1.673  0.4345  1.1357 -0.8285
  553MOL0     H74632   4.279   1.256   1.846  2.5455  1.5001  1.1466
  553MOL0     H74633   4.378   1.494   1.847  1.7305  1.5850 -0.4057
  553MOL0     H74634   4.442   1.402   1.709 -0.8321 -1.3548  0.0863
  553MOL0     H74635   3.365   0.858   1.747  2.4854  2.0926  0.7236
  553MOL0     H74636   3.139   0.836   1.656 -2.1564  0.9580 -0.3357
  553MOL0     H74637   2.888   0.700   1.415 -0.9626 -2.6491  0.2459
  553MOL0     H74638   2.687   0.571   1.344 -1.1341  0.7996 -0.7871
  553MOL0     H74639   0.870   0.421   0.648 -1.5512  2.7274 -2.3419
  553MOL0     H74640   0.640   0.371   0.640  4.6468 -0.8002  2.0992
  553MOL0     H74641   0.214   0.504   0.479  1.4286 -0.3507 -2.1401
  553MOL0     H74642  -0.027   0.482   0.416  1.1125  0.1747  0.9768
  553MOL0     H74643  -0.193   0.112   0.249  1.1497 -0.6476  0.3854
  553MOL0     H74644  -0.125   0.216   0.124  0.2909  0.2822  1.4359
  553MOL0     H74645  -0.321   0.367   0.146  2.9972  0.0232  0.3433
  553MOL0     H74646  -0.418   0.243   0.215  2.1452 -0.8300  2.7980
  553MOL0     H74647  -0.437   0.126   0.005 -1.3519  0.8139  1.0458
  553MOL0     H74648  -0.277   0.191  -0.052  1.1720  0.8861  0.6433
  553MOL0     H74649  -0.509   0.372   0.014  1.1963 -0.5150  1.0668
  553MOL0     H74650  -0.374   0.402  -0.091 -1.0871  1.7268  1.8544
  553MOL0     H74651  -0.648   0.201  -0.348 -1.5517 -0.5573  1.3331
  553MOL0     H74652   0.044   0.124   0.218 -0.2158 -0.4768  0.9682
  553MOL0     H74653   0.227   0.002   0.205  2.8698 -3.2924  0.4432
  553MOL0     H74654   0.384   0.086   0.234  0.1569 -1.1062  0.3396
  553MOL0     H74655   0.294   0.001   0.364  2.4685  0.7731  0.4116
  554MOL0     O74656  11.427  10.095   8.717 -0.0776  0.5551 -0.3097
  554MOL0     C74657  11.475  10.001   8.784 -0.2268  0.6921 -0.1644
  554MOL0     O74658  11.484   9.990   8.922  0.3036  0.5323 -0.4244
  554MOL0     C74659  11.429  10.084   8.997  0.0712 -0.7022  0.3598
  554MOL0     C74660  11.291  10.092   9.002  0.0899  0.2114 -0.1103
  554MOL0     C74661  11.227  10.187   9.078 -0.0254  0.0907  0.3971
  554MOL0     C74662  11.303  10.276   9.160 -0.4605  0.8512  0.5639
  554MOL0     O74663  11.233  10.360   9.234 -0.0217 -0.6569  0.2259
  554MOL0     C74664  11.292  10.484   9.290 -0.0677 -0.7426 -0.1365
  554MOL0     C74665  11.175  10.548   9.367  0.9654  0.7675  0.7058
  554MOL0     C74666  11.222  10.670   9.450  0.4107  0.3030 -0.3322
  554MOL0     C74667  11.107  10.727   9.537  0.3447  0.2086 -0.8190
  554MOL0     C74668  11.137  10.845   9.628 -0.4747 -0.2823 -0.9148
  554MOL0     C74669  11.135  10.811   9.782  0.1898 -0.3965  0.2844
  554MOL0     C74670  10.985  10.821   9.829 -1.2519  0.7550 -0.1979
  554MOL0     C74671  10.978  10.810   9.981  1.0269 -0.1436 -0.8936
  554MOL0     N74672  10.990  10.668  10.007  0.5187 -0.7849 -0.3898
  554MOL0     C74673  11.087  10.609  10.072 -0.0320  0.5486 -0.4980
  554MOL0     C74674  11.056  10.474  10.085  1.0302  0.0923  0.8397
  554MOL0     C74675  11.144  10.370  10.145  0.0115  0.7635 -0.6697
  554MOL0     C74676  11.062  10.242  10.202 -0.8564 -0.9949  0.3927
  554MOL0     C74677  11.162  10.143  10.267  0.6710 -0.0750 -0.1525
  554MOL0     C74678  11.286  10.098  10.186 -0.3729  0.3137  0.9365
  554MOL0     O74679  11.248  10.038  10.065 -0.5372 -0.5507 -0.0891
  554MOL0     C74680  11.340  10.017   9.968 -0.2578  0.0779 -0.2935
  554MOL0     C74681  11.474   9.985   9.986  0.4506 -0.9688  0.4847
  554MOL0     C74682  11.559   9.970   9.875  0.2256  0.2435 -0.1673
  554MOL0     C74683  11.501   9.949   9.742 -0.5302  0.0854 -0.8611
  554MOL0     C74684  11.587   9.938   9.627 -0.2459  0.0558  0.2490
  554MOL0     O74685  11.525   9.920   9.504  0.3467 -0.1242  0.3596
  554MOL0     C74686  11.604   9.876   9.400 -0.8431 -0.4129 -0.6985
  554MOL0     C74687  11.603   9.746   9.363 -0.6529 -0.0273 -0.7187
  554MOL0     C74688  11.686   9.704   9.255 -0.1050  0.4459 -0.6814
  554MOL0     C74689  11.763   9.797   9.181 -0.1920  0.2309 -0.3502
  554MOL0     O74690  11.833   9.738   9.076  0.2950 -0.7021  0.5561
  554MOL0     C74691  11.924   9.814   8.992 -0.1614 -0.6047 -0.5807
  554MOL0     C74692  12.038   9.729   8.939  0.5204 -0.3078 -0.1556
  554MOL0     C74693  12.120   9.642   9.036 -0.2280 -0.1110  0.8075
  554MOL0     C74694  12.050   9.533   9.105  0.1210 -0.1648 -0.0137
  554MOL0     C74695  12.150   9.467   9.196  0.0052 -0.1763 -0.0999
  554MOL0     C74696  12.161   9.540   9.332 -0.5924 -0.1425 -0.1224
  554MOL0     C74697  12.277   9.478   9.419  1.1206  0.2866  0.3329
  554MOL0     C74698  12.285   9.529   9.567 -0.0468 -0.7043  0.6530
  554MOL0    Cl74699  12.443   9.472   9.635 -0.2659  0.2372  0.2928
  554MOL0     C74700  11.765   9.929   9.223 -1.3491 -0.5524 -0.9068
  554MOL0     C74701  11.680   9.977   9.327 -0.0592  0.5372  0.4808
  554MOL0     O74702  11.699   9.901   9.654 -0.5932 -1.0440 -0.6669
  554MOL0     C74703  11.364   9.962   9.727 -0.5809 -0.5694 -0.1923
  554MOL0     C74704  11.292   9.996   9.839  1.3185 -0.3982 -0.1992
  554MOL0     N74705  10.929  10.459  10.022  0.2188 -0.2155  0.2551
  554MOL0     N74706  10.893  10.583   9.987 -0.2459  0.5426  0.4023
  554MOL0     C74707  11.441  10.257   9.164 -0.9646  0.5934  0.3008
  554MOL0     C74708  11.500  10.169   9.078 -0.3930 -0.2429  0.1862
  554MOL0     C74709  11.529   9.878   8.714  0.1484  0.0012  0.2689
  554MOL0     C74710  11.607   9.790   8.784 -0.0429 -0.0407 -0.1639
  554MOL0     C74711  11.686   9.691   8.726 -0.1744 -0.0454  0.3954
  554MOL0     C74712  11.678   9.656   8.594  0.4880  0.1975 -0.8533
  554MOL0     O74713  11.754   9.551   8.548  0.2161  0.9460 -0.6109
  554MOL0     C74714  11.720   9.509   8.414  0.1612  0.3392 -0.1032
  554MOL0     C74715  11.816   9.390   8.368  0.4991 -0.6659 -0.3120
  554MOL0     C74716  11.964   9.424   8.350  0.0010  0.4916  0.2846
  554MOL0     C74717  12.042   9.297   8.331 -0.4299 -0.5412  0.5280
  554MOL0     C74718  12.060   9.260   8.190 -0.1879 -0.0918 -1.1639
  554MOL0     C74719  12.080   9.211   8.077  0.6194 -0.4473 -0.4387
  554MOL0     C74720  11.596   9.751   8.516  1.1545 -0.3104 -0.6547
  554MOL0     C74721  11.531   9.859   8.573  0.6944 -0.4478 -0.0453
  554MOL0     C74722  11.445   9.939   8.477  0.8216 -0.4861 -0.7604
  554MOL0     H74723  11.229  10.025   8.943 -2.6268  2.8178 -0.4847
  554MOL0     H74724  11.122  10.175   9.104  0.3536 -2.3314  0.9796
  554MOL0     H74725  11.379  10.464   9.352 -1.9982  0.1773  3.1303
  554MOL0     H74726  11.316  10.553   9.209 -0.3820  1.2269  1.3505
  554MOL0     H74727  11.124  10.470   9.424  2.4241 -2.7997 -2.4266
  554MOL0     H74728  11.099  10.572   9.292  1.0164 -1.3114 -0.0722
  554MOL0     H74729  11.253  10.747   9.379 -0.0338  1.4055  0.6408
  554MOL0     H74730  11.309  10.646   9.512  3.0018  3.5991 -2.3689
  554MOL0     H74731  11.031  10.771   9.472  0.7072  0.0478 -1.3588
  554MOL0     H74732  11.057  10.646   9.591 -0.5469  1.7547  0.7715
  554MOL0     H74733  11.245  10.863   9.623 -0.3987 -1.0924 -3.3888
  554MOL0     H74734  11.092  10.941   9.603  2.8433  0.9996 -2.5505
  554MOL0     H74735  11.168  10.707   9.784  4.0666  0.6342 -1.1604
  554MOL0     H74736  11.207  10.865   9.843 -0.0186  0.0957  0.1009
  554MOL0     H74737  10.927  10.737   9.789 -0.9277 -0.1998  1.2925
  554MOL0     H74738  10.936  10.915   9.799  0.6482  1.5217 -1.0647
  554MOL0     H74739  11.053  10.870  10.033 -0.5771  1.8441 -0.7480
  554MOL0     H74740  10.877  10.842  10.008  1.1832 -1.6542  1.8840
  554MOL0     H74741  11.184  10.644  10.104  0.9371 -2.7741  0.6859
  554MOL0     H74742  11.207  10.337  10.062 -1.4803 -0.7822 -1.2414
  554MOL0     H74743  11.214  10.415  10.217  1.5605 -1.8263 -0.4435
  554MOL0     H74744  10.988  10.289  10.268  0.1188  0.6655  0.3689
  554MOL0     H74745  11.002  10.181  10.134 -3.2733 -0.6278  2.0634
  554MOL0     H74746  11.112  10.049  10.291  0.6328  0.4122  1.9333
  554MOL0     H74747  11.194  10.195  10.358  0.0521  1.7853 -0.9392
  554MOL0     H74748  11.346  10.024  10.240 -0.6850 -0.1091  0.7061
  554MOL0     H74749  11.353  10.182  10.169  0.5739  0.0115  2.9366
  554MOL0     H74750  11.503   9.992  10.090 -2.2447  1.1620  1.2086
  554MOL0     H74751  11.666   9.962   9.891  0.5332 -0.0743 -2.1282
  554MOL0     H74752  11.536   9.684   9.422 -1.5800  3.3185  2.1144
  554MOL0     H74753  11.694   9.602   9.219 -2.4191 -0.7148  1.7046
  554MOL0     H74754  11.861   9.862   8.916 -1.7679  2.0209  2.1685
  554MOL0     H74755  11.975   9.891   9.050 -2.9831  1.3459 -0.5061
  554MOL0     H74756  12.000   9.665   8.859 -1.0496 -0.2229  0.4860
  554MOL0     H74757  12.099   9.803   8.886 -0.8525  0.4596 -0.7204
  554MOL0     H74758  12.201   9.608   8.971  0.1062 -1.0640  1.7017
  554MOL0     H74759  12.164   9.710   9.109 -0.5080  0.4798  0.4361
  554MOL0     H74760  11.991   9.468   9.040 -1.0105  2.3910 -1.6837
  554MOL0     H74761  11.978   9.579   9.174 -1.4249 -0.1671 -1.5544
  554MOL0     H74762  12.243   9.450   9.142  1.6316  1.5468  1.9418
  554MOL0     H74763  12.108   9.373   9.231  0.6091  0.6217  3.1132
  554MOL0     H74764  12.184   9.647   9.327  3.5135 -0.8279 -0.0277
  554MOL0     H74765  12.069   9.520   9.386 -0.9690  0.4416 -0.5397
  554MOL0     H74766  12.368   9.493   9.361  0.6842  1.1834 -0.1418
  554MOL0     H74767  12.259   9.372   9.437  1.1035  0.0917 -0.7470
  554MOL0     H74768  12.263   9.636   9.568 -1.1862 -0.9245  0.3176
  554MOL0     H74769  12.210   9.479   9.627  1.9250 -0.2025  3.7439
  554MOL0     H74770  11.837   9.992   9.173  3.2008 -3.2695  1.5540
  554MOL0     H74771  11.690  10.079   9.365  1.6343  0.3741  0.5732
  554MOL0     H74772  11.317   9.924   9.636  2.1021 -1.0209 -1.4800
  554MOL0     H74773  11.190  10.014   9.808  1.7344  1.4499 -0.5797
  554MOL0     H74774  11.499  10.309   9.240 -2.2884 -0.0827  1.8329
  554MOL0     H74775  11.608  10.160   9.072 -0.3254  0.7167 -0.2515
  554MOL0     H74776  11.624   9.802   8.891  0.2838 -0.2741 -0.1882
  554MOL0     H74777  11.746   9.624   8.788 -0.3658 -0.2231  0.3921
  554MOL0     H74778  11.729   9.587   8.338 -2.6265  0.2133 -0.6802
  554MOL0     H74779  11.613   9.485   8.408  0.7859 -2.5066 -1.3781
  554MOL0     H74780  11.773   9.346   8.278 -0.2402  0.8781 -0.7601
  554MOL0     H74781  11.803   9.311   8.442 -1.8962 -1.7840 -1.7988
  554MOL0     H74782  11.985   9.482   8.440 -3.7036  2.4289  0.0798
  554MOL0     H74783  11.971   9.488   8.262 -0.6719  0.9718  0.5814
  554MOL0     H74784  12.137   9.323   8.378 -0.3283  0.8557 -0.3642
  554MOL0     H74785  12.000   9.209   8.379 -0.5998 -0.5949  0.2840
  554MOL0     H74786  12.100   9.170   7.980  1.9577 -2.5184  0.6454
  554MOL0     H74787  11.592   9.743   8.407 -1.4913  0.3619 -0.6710
  554MOL0     H74788  11.398   9.875   8.402  0.8758  1.0513 -2.1507
  554MOL0     H74789  11.353   9.987   8.509  0.2346 -1.6905 -0.5753
  554MOL0     H74790  11.505  10.016   8.428  1.0752  0.3391  0.7939
  555MOL0     O74791   6.811  10.960   3.672  0.2202 -0.1201  0.6762
  555MOL0     C74792   6.810  11.041   3.583 -0.4016  0.0376 -0.4786
  555MOL0     O74793   6.906  11.136   3.563  0.5233  0.8604 -0.3199
  555MOL0     C74794   7.023  11.138   3.645 -0.1476  0.1250  0.7186
  555MOL0     C74795   7.057  11.264   3.697 -0.1968 -0.5549 -0.7054
  555MOL0     C74796   7.188  11.288   3.744  0.9640  0.1920 -0.0072
  555MOL0     C74797   7.279  11.188   3.755 -0.2710  0.4284 -0.4906
  555MOL0     O74798   7.407  11.197   3.793 -0.0521  0.0504 -0.0804
  555MOL0     C74799   7.458  11.330   3.810 -0.4553  0.5104  0.0580
  555MOL0     C74800   7.614  11.335   3.806 -0.0377 -0.4850 -0.2264
  555MOL0     C74801   7.686  11.283   3.934 -0.0072  0.3225  0.3871
  555MOL0     C74802   7.830  11.298   3.938 -0.5393  0.4305  0.7739
  555MOL0     C74803   7.903  11.294   4.074 -0.0606 -0.1185 -0.0591
  555MOL0     C74804   8.056  11.288   4.063  0.6741  0.4302 -0.3015
  555MOL0     C74805   8.104  11.428   4.011  0.5733 -0.4506  0.5662
  555MOL0     C74806   8.252  11.444   4.034  0.3483 -0.1034 -0.2259
  555MOL0     N74807   8.287  11.584   3.999 -0.0186 -0.1294 -0.2146
  555MOL0     C74808   8.340  11.636   3.885  0.0914  0.1684  0.0486
  555MOL0     C74809   8.344  11.767   3.904  0.4479 -0.0768  0.7408
  555MOL0     C74810   8.411  11.862   3.801  0.1426 -0.0031  0.2743
  555MOL0     C74811   8.365  12.005   3.812 -0.3969  0.3694 -0.3003
  555MOL0     C74812   8.437  12.073   3.697  0.5453  0.8779 -1.0777
  555MOL0     C74813   8.404  12.220   3.698 -0.2518  0.1042 -0.3902
  555MOL0     O74814   8.457  12.267   3.825 -0.2220  0.2503 -0.0990
  555MOL0     C74815   8.474  12.403   3.836 -0.5663  0.1804  0.0508
  555MOL0     C74816   8.563  12.453   3.932 -0.3345 -0.0022  0.8374
  555MOL0     C74817   8.594  12.587   3.933 -0.4971  1.3016  0.2083
  555MOL0     C74818   8.555  12.681   3.836  0.1314  0.7553 -0.4247
  555MOL0     C74819   8.584  12.819   3.855  0.1446  0.1726  0.1117
  555MOL0     O74820   8.556  12.902   3.748  0.2558  0.0188 -0.1069
  555MOL0     C74821   8.582  13.040   3.761 -0.4922  0.2377 -0.1606
  555MOL0     C74822   8.479  13.127   3.721  0.2973  0.0201 -0.6293
  555MOL0     C74823   8.498  13.269   3.719 -0.6757  0.6933  0.4387
  555MOL0     C74824   8.624  13.316   3.751 -0.0497 -0.7436 -0.2582
  555MOL0     O74825   8.658  13.457   3.747  0.0203  0.4119  0.1918
  555MOL0     C74826   8.550  13.553   3.759 -0.3077 -0.4798 -0.1964
  555MOL0     C74827   8.613  13.684   3.809  0.3252  0.2645  0.1448
  555MOL0     C74828   8.684  13.655   3.942  0.7881  0.1312  0.0174
  555MOL0     C74829   8.733  13.787   3.991 -0.1517  0.2154 -0.4497
  555MOL0     C74830   8.828  13.758   4.112 -0.0164  0.3951 -0.0064
  555MOL0     C74831   8.967  13.726   4.071 -0.5680 -0.3183 -0.1739
  555MOL0     C74832   9.043  13.852   4.023 -0.6769 -0.0314 -0.8818
  555MOL0     C74833   9.188  13.815   3.981  0.0537  0.4133 -0.3672
  555MOL0    Cl74834   9.283  13.795   4.131 -0.1203 -0.4018  0.2899
  555MOL0     C74835   8.725  13.228   3.784  0.8819 -0.7054  0.9410
  555MOL0     C74836   8.705  13.097   3.794  0.6302 -0.5077 -0.0572
  555MOL0     O74837   8.620  12.857   3.963 -0.1643 -0.1427 -0.3772
  555MOL0     C74838   8.463  12.632   3.740  0.4509 -0.4825 -0.5899
  555MOL0     C74839   8.420  12.497   3.744  0.1415  0.3324 -0.1708
  555MOL0     N74840   8.294  11.796   4.025  0.5917 -0.0198 -0.7243
  555MOL0     N74841   8.252  11.688   4.082  0.0503 -0.2903  0.6125
  555MOL0     C74842   7.239  11.053   3.730 -0.1791 -0.1056  0.0343
  555MOL0     C74843   7.109  11.026   3.680 -1.2596  0.5310 -0.3113
  555MOL0     C74844   6.698  11.023   3.499  0.0630 -0.3385 -0.2780
  555MOL0     C74845   6.719  11.063   3.363 -0.4755 -0.4509 -0.0912
  555MOL0     C74846   6.608  11.057   3.267 -0.2744 -0.3237 -0.2178
  555MOL0     C74847   6.479  11.022   3.306  0.2047  1.0241  1.0760
  555MOL0     O74848   6.377  11.023   3.208 -0.4080  0.6785 -0.8111
  555MOL0     C74849   6.262  11.106   3.251  0.7975  0.3824 -0.1907
  555MOL0     C74850   6.124  11.034   3.223  0.5152 -0.3386 -0.4195
  555MOL0     C74851   6.101  10.924   3.329  0.0910  0.5824  0.5198
  555MOL0     C74852   5.952  10.892   3.360  0.0295 -0.2957  0.2805
  555MOL0     C74853   5.938  10.795   3.470  0.4519 -0.8326  0.0868
  555MOL0     C74854   5.933  10.712   3.555  0.0414  0.2251  0.5397
  555MOL0     C74855   6.459  10.981   3.435 -0.1114  0.7376 -1.1564
  555MOL0     C74856   6.564  10.984   3.532  1.0084 -0.2257 -0.3077
  555MOL0     C74857   6.527  10.927   3.667 -0.6186 -0.5711  0.4517
  555MOL0     H74858   6.978  11.338   3.687 -0.4249 -1.0994 -4.3519
  555MOL0     H74859   7.222  11.388   3.767 -0.7385  1.0489 -0.9957
  555MOL0     H74860   7.428  11.389   3.723 -0.8774 -2.1485 -1.7398
  555MOL0     H74861   7.433  11.371   3.908  1.8653 -0.5534  1.1744
  555MOL0     H74862   7.649  11.437   3.787 -0.2380  0.1894  2.5019
  555MOL0     H74863   7.641  11.284   3.714 -2.6001 -1.6500 -0.4135
  555MOL0     H74864   7.659  11.177   3.937 -1.6416  0.7365  1.3499
  555MOL0     H74865   7.655  11.346   4.018  2.8693  1.5749  0.6217
  555MOL0     H74866   7.884  11.233   3.868 -0.2645  0.2044  1.1953
  555MOL0     H74867   7.841  11.396   3.890  0.8987 -0.5578 -1.0625
  555MOL0     H74868   7.883  11.385   4.131  2.9570 -1.0968  2.9351
  555MOL0     H74869   7.878  11.205   4.133 -0.3204  1.1283  1.7935
  555MOL0     H74870   8.098  11.269   4.163  0.4606  0.2945 -0.2355
  555MOL0     H74871   8.077  11.196   4.007 -1.4764 -0.7360  0.6889
  555MOL0     H74872   8.051  11.517   4.048  2.5605  0.8887  0.3382
  555MOL0     H74873   8.084  11.435   3.903  1.1456 -1.5546  0.3777
  555MOL0     H74874   8.259  11.426   4.142 -0.1904 -4.4376 -0.7509
  555MOL0     H74875   8.310  11.370   3.978  1.0234  0.3585 -0.1437
  555MOL0     H74876   8.388  11.584   3.803  2.6400  3.1937 -0.5907
  555MOL0     H74877   8.519  11.867   3.817  0.7507  0.3744 -3.2041
  555MOL0     H74878   8.403  11.826   3.698 -1.1988  0.2823  0.2634
  555MOL0     H74879   8.256  12.009   3.815 -0.3907  0.1518  0.8332
  555MOL0     H74880   8.398  12.049   3.907  1.8190  0.7629 -1.1839
  555MOL0     H74881   8.396  12.039   3.602  0.9627  0.9737 -1.2945
  555MOL0     H74882   8.546  12.066   3.703  0.3674 -2.3872  0.4821
  555MOL0     H74883   8.297  12.241   3.693 -0.4519 -0.7140  0.2665
  555MOL0     H74884   8.449  12.264   3.609  1.3193 -0.4384  0.1036
  555MOL0     H74885   8.608  12.379   3.998  2.5436 -1.7074 -2.6787
  555MOL0     H74886   8.663  12.622   4.009  2.4309 -0.0964 -1.6234
  555MOL0     H74887   8.382  13.086   3.696  0.6166  0.1258 -2.1465
  555MOL0     H74888   8.411  13.331   3.700 -0.1324  1.6908  1.1647
  555MOL0     H74889   8.503  13.575   3.663  3.1914 -0.7208 -2.1403
  555MOL0     H74890   8.488  13.525   3.845  2.5952  1.3367  2.7065
  555MOL0     H74891   8.688  13.734   3.746 -0.7033 -0.9834 -2.2018
  555MOL0     H74892   8.532  13.756   3.824 -0.6795  0.2947 -4.0474
  555MOL0     H74893   8.617  13.607   4.014  0.9514  1.4353  1.0632
  555MOL0     H74894   8.766  13.582   3.936 -1.5123 -2.5766 -0.4033
  555MOL0     H74895   8.656  13.854   4.030 -1.6543  1.0917 -4.4870
  555MOL0     H74896   8.794  13.849   3.925  1.5831  0.6772  1.4803
  555MOL0     H74897   8.791  13.673   4.170 -2.3482 -1.0005 -3.2015
  555MOL0     H74898   8.829  13.839   4.185 -2.5785 -0.7187  1.3968
  555MOL0     H74899   9.028  13.699   4.158  2.3185  1.3829 -1.5023
  555MOL0     H74900   8.972  13.645   3.997 -0.3560 -1.8763  1.4829
  555MOL0     H74901   9.040  13.922   4.107 -2.7108  0.0177 -0.9333
  555MOL0     H74902   8.992  13.909   3.944 -2.3621 -0.9038 -0.4792
  555MOL0     H74903   9.190  13.727   3.916 -0.1309  1.5758 -1.9890
  555MOL0     H74904   9.232  13.901   3.930  0.3163  0.2299 -0.4518
  555MOL0     H74905   8.821  13.276   3.798  0.5085 -0.0901  1.4550
  555MOL0     H74906   8.773  13.019   3.825 -1.4011 -3.4259 -2.3836
  555MOL0     H74907   8.420  12.686   3.656  2.0224  0.2035 -0.9966
  555MOL0     H74908   8.344  12.480   3.668 -1.0709  0.0947  1.0397
  555MOL0     H74909   7.315  10.976   3.736  0.5040  0.5517 -0.0885
  555MOL0     H74910   7.091  10.929   3.635  2.3555  1.1285 -3.6090
  555MOL0     H74911   6.809  11.112   3.326 -0.7934 -1.7016 -2.7032
  555MOL0     H74912   6.618  11.090   3.164 -1.8681  0.9167 -0.0179
  555MOL0     H74913   6.263  11.201   3.197 -0.1698  0.3009 -0.3774
  555MOL0     H74914   6.270  11.141   3.354 -0.8276  1.2059 -0.3015
  555MOL0     H74915   6.131  10.973   3.133  0.1542 -1.6066  0.3875
  555MOL0     H74916   6.039  11.103   3.222  0.9178  0.3932  2.9911
  555MOL0     H74917   6.148  10.962   3.421  2.2990  0.8991 -0.6736
  555MOL0     H74918   6.150  10.832   3.299 -1.9601 -0.7221  0.9981
  555MOL0     H74919   5.895  10.983   3.377  1.7768  0.7532  0.7765
  555MOL0     H74920   5.910  10.839   3.274  0.5539  0.9693 -0.7872
  555MOL0     H74921   5.926  10.624   3.616 -1.7220 -0.5959 -0.7502
  555MOL0     H74922   6.364  10.943   3.472  0.2599 -0.9496 -1.8457
  555MOL0     H74923   6.579  10.986   3.744  0.1134 -0.8252  0.1651
  555MOL0     H74924   6.418  10.923   3.674 -0.9126 -4.1277 -2.9350
  555MOL0     H74925   6.570  10.827   3.679 -0.8379 -0.5667  1.3950
  556MOL0     O74926   6.137   4.993  10.636  0.4095 -0.3767 -0.1031
  556MOL0     C74927   6.053   5.050  10.702  0.1023 -0.3158  0.5402
  556MOL0     O74928   6.078   5.159  10.780  0.1333 -0.6206  0.0125
  556MOL0     C74929   6.196   5.226  10.759 -0.2878  0.1073  0.3180
  556MOL0     C74930   6.275   5.245  10.883  0.1481  0.1173 -0.2343
  556MOL0     C74931   6.401   5.311  10.877  0.4074  0.0477  0.6225
  556MOL0     C74932   6.453   5.345  10.757  0.4495 -1.4164 -0.1856
  556MOL0     O74933   6.582   5.386  10.722  1.1344 -0.6876 -0.5640
  556MOL0     C74934   6.669   5.405  10.841  0.4783 -0.6287  0.6361
  556MOL0     C74935   6.809   5.448  10.783  0.0824  0.3325  0.5417
  556MOL0     C74936   6.826   5.576  10.694  0.0915 -0.3203 -0.6950
  556MOL0     C74937   6.977   5.605  10.686  0.4200  0.5883  0.6003
  556MOL0     C74938   6.985   5.747  10.627 -0.7261 -0.3423 -0.2222
  556MOL0     C74939   7.127   5.786  10.607  0.3172  0.6340  0.7989
  556MOL0     C74940   7.137   5.919  10.543 -0.5285 -0.9324  0.0199
  556MOL0     C74941   7.287   5.952  10.504  0.1956  0.0405  0.2459
  556MOL0     N74942   7.298   6.081  10.435 -0.0718  0.3294 -0.5766
  556MOL0     C74943   7.285   6.102  10.302 -0.6456  0.1212  1.1728
  556MOL0     C74944   7.308   6.235  10.290 -0.4268  0.4862 -0.1159
  556MOL0     C74945   7.318   6.302  10.156  0.0834  0.2627  1.0536
  556MOL0     C74946   7.461   6.363  10.136 -0.5597  0.6845 -0.8001
  556MOL0     C74947   7.452   6.507  10.080 -0.6596 -0.2331  0.9769
  556MOL0     C74948   7.582   6.579  10.054  0.5972 -0.1385 -1.4230
  556MOL0     O74949   7.686   6.549  10.151  0.1929 -0.2649  0.3506
  556MOL0     C74950   7.798   6.620  10.132  0.2626  0.6729  0.7483
  556MOL0     C74951   7.819   6.697  10.017 -0.2339 -0.3186 -0.0494
  556MOL0     C74952   7.916   6.790  10.007 -0.6431  0.9358 -0.9412
  556MOL0     C74953   8.023   6.795  10.094  0.1284  0.4117 -0.5401
  556MOL0     C74954   8.133   6.895  10.076 -1.0944 -0.2297 -0.4192
  556MOL0     O74955   8.226   6.905  10.179 -0.9703 -0.4933 -0.4464
  556MOL0     C74956   8.336   6.993  10.164 -0.6024 -0.8346  1.1839
  556MOL0     C74957   8.342   7.118  10.237  0.1342  0.3889  0.7935
  556MOL0     C74958   8.458   7.196  10.226 -0.5924 -0.0438 -0.0968
  556MOL0     C74959   8.556   7.163  10.139 -0.5946  0.6813 -0.2007
  556MOL0     O74960   8.666   7.241  10.141 -0.8176  0.5453 -0.5168
  556MOL0     C74961   8.710   7.295  10.012 -0.8871 -0.0734  0.3957
  556MOL0     C74962   8.864   7.287   9.999 -0.1074 -0.5178  0.2890
  556MOL0     C74963   8.926   7.390  10.099  0.0274 -0.2148  0.4268
  556MOL0     C74964   9.080   7.373  10.101  0.1202 -0.2683  0.2031
  556MOL0     C74965   9.140   7.473  10.190  0.1035 -0.5515  0.0332
  556MOL0     C74966   9.155   7.613  10.115  0.4726 -0.6979 -0.0855
  556MOL0     C74967   9.188   7.733  10.207  0.4629  0.0988 -0.0862
  556MOL0     C74968   9.340   7.715  10.254 -0.8143 -0.1985  0.5117
  556MOL0    Cl74969   9.459   7.697  10.105  0.5789 -0.3354  0.3277
  556MOL0     C74970   8.553   7.046  10.066 -0.5717  0.4963  0.1664
  556MOL0     C74971   8.442   6.968  10.072 -0.8958 -0.1279  0.2527
  556MOL0     O74972   8.126   6.959   9.974 -0.2919 -0.1937  0.4065
  556MOL0     C74973   8.009   6.711  10.209 -0.3659  0.7596  0.3396
  556MOL0     C74974   7.899   6.617  10.224 -1.0536 -0.1040 -0.9362
  556MOL0     N74975   7.331   6.301  10.414  0.3445  0.9698  0.5311
  556MOL0     N74976   7.331   6.203  10.496 -0.0413 -0.5133 -0.6817
  556MOL0     C74977   6.375   5.326  10.651  0.5273  0.3268  0.4932
  556MOL0     C74978   6.254   5.264  10.644 -0.3216  0.1812  0.4145
  556MOL0     C74979   5.916   4.989  10.697 -0.6382 -0.6023 -1.3637
  556MOL0     C74980   5.892   4.886  10.610 -1.0647  0.5370  0.9955
  556MOL0     C74981   5.763   4.828  10.608 -0.4951 -0.6303 -0.2989
  556MOL0     C74982   5.668   4.848  10.704  0.1137 -0.3038 -0.5585
  556MOL0     O74983   5.546   4.781  10.693 -0.2742 -0.3387  0.0327
  556MOL0     C74984   5.440   4.779  10.785  0.2158 -0.3729 -0.4150
  556MOL0     C74985   5.324   4.697  10.736 -0.8413 -0.7325  0.0921
  556MOL0     C74986   5.329   4.554  10.789 -0.0728 -0.9727 -0.4804
  556MOL0     C74987   5.230   4.459  10.742 -0.2673  0.1929 -0.6363
  556MOL0     C74988   5.135   4.430  10.853  0.7190  0.2200  0.3240
  556MOL0     C74989   5.055   4.388  10.933  0.0178 -0.3330 -0.1201
  556MOL0     C74990   5.695   4.943  10.799  0.0143 -0.3426  0.7187
  556MOL0     C74991   5.818   5.008  10.799 -0.7971  0.4674  0.1913
  556MOL0     C74992   5.828   5.117  10.902  0.4445 -0.2584 -0.0290
  556MOL0     H74993   6.235   5.219  10.980 -0.2240 -2.6068 -1.0477
  556MOL0     H74994   6.452   5.334  10.970  0.3474 -0.5519  0.8081
  556MOL0     H74995   6.627   5.484  10.905 -0.0927  0.3740 -0.9356
  556MOL0     H74996   6.690   5.313  10.896 -4.4937 -2.9467 -0.8057
  556MOL0     H74997   6.833   5.365  10.715  0.7279  0.2744  0.8325
  556MOL0     H74998   6.881   5.450  10.866  1.3328 -3.1426 -0.2731
  556MOL0     H74999   6.790   5.666  10.745  0.6887  0.7275 -2.0614
  556MOL0     H75000   6.783   5.561  10.595 -0.7528  2.2220 -0.7844
  556MOL0     H75001   7.039   5.595  10.776  2.5447 -3.9061 -1.0777
  556MOL0     H75002   7.013   5.534  10.611  0.1255  2.2216 -1.1393
  556MOL0     H75003   6.937   5.745  10.529  0.1289 -0.8458 -0.6418
  556MOL0     H75004   6.931   5.808  10.700  0.2275 -0.4438  0.6004
  556MOL0     H75005   7.185   5.786  10.700  2.1174  0.8274 -0.2757
  556MOL0     H75006   7.149   5.706  10.536 -4.0236 -2.1389  2.1819
  556MOL0     H75007   7.101   5.991  10.617  1.3781 -1.4021  1.4718
  556MOL0     H75008   7.089   5.909  10.446  0.9202 -0.7869 -0.7436
  556MOL0     H75009   7.339   5.951  10.600 -2.0153 -4.4247  1.6570
  556MOL0     H75010   7.322   5.872  10.439  0.2171  1.8029 -2.0349
  556MOL0     H75011   7.294   6.017  10.235 -1.0854  0.0094  1.2507
  556MOL0     H75012   7.298   6.235  10.072  0.9219  1.8778 -0.4894
  556MOL0     H75013   7.233   6.369  10.144  0.5098  0.4907 -1.2625
  556MOL0     H75014   7.522   6.364  10.226  0.4456 -4.2682 -1.1659
  556MOL0     H75015   7.525   6.303  10.071 -1.1036 -1.0987  0.2302
  556MOL0     H75016   7.391   6.575  10.140  0.7946  2.7905 -0.7357
  556MOL0     H75017   7.401   6.502   9.983  3.6862  2.0876 -1.7601
  556MOL0     H75018   7.557   6.685  10.066 -0.8711 -0.5326 -0.7975
  556MOL0     H75019   7.600   6.566   9.947 -0.4156 -0.8141 -1.5274
  556MOL0     H75020   7.757   6.701   9.927  0.7262  0.2175 -0.7055
  556MOL0     H75021   7.911   6.843   9.913 -1.8951 -1.6145 -2.4157
  556MOL0     H75022   8.261   7.165  10.293  0.1671  0.9758  0.3588
  556MOL0     H75023   8.467   7.276  10.298  0.1129  0.9083 -1.2130
  556MOL0     H75024   8.668   7.223   9.941  1.7472 -0.5578 -0.7775
  556MOL0     H75025   8.673   7.396   9.992 -1.2824 -0.1081  0.9189
  556MOL0     H75026   8.894   7.184  10.017  1.3196 -0.1222  0.3020
  556MOL0     H75027   8.895   7.315   9.898  1.7110 -1.2799  0.6121
  556MOL0     H75028   8.906   7.493  10.069 -2.1427 -0.4350  0.9564
  556MOL0     H75029   8.892   7.386  10.203  0.0533 -0.1652  0.4379
  556MOL0     H75030   9.112   7.398   9.999  0.3372  2.0682  0.7842
  556MOL0     H75031   9.100   7.271  10.136 -1.8131 -0.1846  1.7132
  556MOL0     H75032   9.238   7.442  10.226 -0.1998  0.3761  1.7593
  556MOL0     H75033   9.063   7.489  10.266 -1.4133  1.1988 -1.7330
  556MOL0     H75034   9.234   7.611  10.038  1.0016 -0.8317  0.4521
  556MOL0     H75035   9.067   7.651  10.063 -0.2769 -3.9429 -1.4579
  556MOL0     H75036   9.111   7.733  10.284  1.9041 -0.8854  1.4329
  556MOL0     H75037   9.189   7.823  10.144  1.3108 -2.3169 -3.8888
  556MOL0     H75038   9.378   7.807  10.300 -1.3718  1.0923 -1.4983
  556MOL0     H75039   9.350   7.624  10.314 -1.4727  0.4940  1.7072
  556MOL0     H75040   8.634   7.005  10.006 -1.2242 -2.8182  1.3397
  556MOL0     H75041   8.435   6.879  10.010 -3.3405  1.5505 -2.1019
  556MOL0     H75042   8.088   6.718  10.283  1.0907 -1.8237 -0.8399
  556MOL0     H75043   7.880   6.560  10.314 -0.8565 -0.6175 -1.2142
  556MOL0     H75044   6.401   5.373  10.556 -3.7624 -1.0963 -1.6081
  556MOL0     H75045   6.208   5.249  10.547  1.3138  2.5853 -0.8382
  556MOL0     H75046   5.967   4.851  10.540 -2.2785  1.5407 -0.9011
  556MOL0     H75047   5.746   4.775  10.514 -1.4204 -2.9582  1.0844
  556MOL0     H75048   5.399   4.879  10.800  0.3132 -0.5003  0.7822
  556MOL0     H75049   5.470   4.757  10.888 -1.4281 -0.8273 -0.0036
  556MOL0     H75050   5.328   4.699  10.627  1.0825  0.9829  0.1532
  556MOL0     H75051   5.234   4.755  10.762  1.5513  2.0488  3.0043
  556MOL0     H75052   5.328   4.556  10.898 -0.5780 -1.8545 -0.4635
  556MOL0     H75053   5.427   4.518  10.755  0.3363 -0.2950 -0.0367
  556MOL0     H75054   5.169   4.498  10.661  1.4847  1.8737 -1.2341
  556MOL0     H75055   5.261   4.361  10.704 -1.9978  0.0317 -1.6795
  556MOL0     H75056   4.993   4.325  10.993 -0.1555  0.0848  0.1413
  556MOL0     H75057   5.616   4.966  10.871 -0.2373  0.7670  0.1129
  556MOL0     H75058   5.889   5.093  10.990 -0.1871  0.3560  0.5847
  556MOL0     H75059   5.851   5.210  10.850 -1.0857  1.9433  2.9370
  556MOL0     H75060   5.727   5.129  10.942  0.0372 -2.0125 -0.4416
  557MOL0     O75061   6.925   0.142   2.379 -0.3676  0.9665 -0.5829
  557MOL0     C75062   6.853   0.227   2.327  0.0648 -0.0141  0.0045
  557MOL0     O75063   6.892   0.320   2.236 -0.9703 -0.3396 -0.1431
  557MOL0     C75064   7.022   0.324   2.191 -1.0034  0.3486  0.3150
  557MOL0     C75065   7.138   0.265   2.243 -0.0387 -0.6026  0.0984
  557MOL0     C75066   7.259   0.272   2.175 -0.8221  0.7968 -0.6820
  557MOL0     C75067   7.274   0.335   2.048 -0.4586  0.2543  0.2870
  557MOL0     O75068   7.390   0.337   1.963  0.5333 -0.1411 -0.3878
  557MOL0     C75069   7.516   0.312   2.030 -0.2067 -0.1028  0.3415
  557MOL0     C75070   7.625   0.342   1.922 -0.4174 -0.3054  0.2694
  557MOL0     C75071   7.774   0.287   1.952  0.2422 -0.0999 -0.5250
  557MOL0     C75072   7.802   0.252   2.100 -0.1206 -0.1996  0.3043
  557MOL0     C75073   7.946   0.194   2.111  0.1744  0.6210  0.3055
  557MOL0     C75074   7.964   0.128   2.251 -0.4762  0.0188 -0.3703
  557MOL0     C75075   8.089   0.045   2.248 -0.7226  0.4401  0.1386
  557MOL0     C75076   8.093  -0.058   2.366  0.3713  0.7588 -0.0859
  557MOL0     N75077   8.216  -0.146   2.363  0.5095 -0.1064 -0.2581
  557MOL0     C75078   8.250  -0.227   2.256  0.2294  0.2508  0.0262
  557MOL0     C75079   8.375  -0.282   2.300  0.4146 -0.8033  0.8118
  557MOL0     C75080   8.451  -0.393   2.236 -0.8678  0.3883  0.4442
  557MOL0     C75081   8.587  -0.355   2.174  0.3751 -0.0322 -0.4756
  557MOL0     C75082   8.580  -0.242   2.076  0.3190 -0.7463  0.0976
  557MOL0     C75083   8.569  -0.285   1.926 -0.4379 -0.0161 -1.0490
  557MOL0     O75084   8.454  -0.363   1.893 -0.1255 -0.7716  0.3045
  557MOL0     C75085   8.336  -0.298   1.889  1.3516  0.8516  0.2189
  557MOL0     C75086   8.311  -0.164   1.868  0.2492 -0.0576 -0.7237
  557MOL0     C75087   8.176  -0.110   1.870 -0.7739 -0.3719 -0.2916
  557MOL0     C75088   8.071  -0.191   1.903  0.7712 -0.0469  0.5411
  557MOL0     C75089   7.937  -0.139   1.891  0.2624 -0.1323  0.6087
  557MOL0     O75090   7.832  -0.221   1.932  0.1930  0.0107  0.1211
  557MOL0     C75091   7.701  -0.195   1.901 -0.4743  0.3719 -0.2051
  557MOL0     C75092   7.626  -0.086   1.965 -0.8425  0.1069 -0.0992
  557MOL0     C75093   7.495  -0.049   1.925  0.5951  0.4555 -0.1431
  557MOL0     C75094   7.442  -0.130   1.827  0.0410 -0.2080  0.0007
  557MOL0     O75095   7.320  -0.107   1.775 -0.0812  0.6916 -0.5514
  557MOL0     C75096   7.236  -0.017   1.838  0.8455 -0.5733  0.0720
  557MOL0     C75097   7.116   0.003   1.736 -0.3894 -0.0937 -0.7103
  557MOL0     C75098   7.004   0.083   1.806  0.9563 -0.9581  0.0686
  557MOL0     C75099   6.900   0.124   1.704  0.6491  0.1723  0.4622
  557MOL0     C75100   6.800   0.217   1.776  0.1471 -1.0570 -0.2791
  557MOL0     C75101   6.686   0.273   1.687 -0.7815 -0.1557 -0.3305
  557MOL0     C75102   6.616   0.396   1.748  0.1688  0.2836  0.6979
  557MOL0     C75103   6.489   0.441   1.673  0.6694 -0.5437 -0.1259
  557MOL0    Cl75104   6.433   0.592   1.753  0.1145 -0.5145  0.1360
  557MOL0     C75105   7.514  -0.222   1.760  0.8932  0.2480  0.7917
  557MOL0     C75106   7.642  -0.265   1.800 -0.0688 -0.1070  0.4594
  557MOL0     O75107   7.918  -0.030   1.829  0.1087 -0.3540  0.1226
  557MOL0     C75108   8.093  -0.329   1.922 -0.0311  0.4892 -0.1497
  557MOL0     C75109   8.224  -0.380   1.910 -0.1021 -0.6510  0.4349
  557MOL0     N75110   8.400  -0.243   2.429  0.6462  0.3178 -0.0822
  557MOL0     N75111   8.309  -0.162   2.465  0.7552  0.2594 -0.0954
  557MOL0     C75112   7.154   0.391   1.996 -1.2410 -0.0673 -0.3108
  557MOL0     C75113   7.038   0.381   2.066 -0.0969 -1.0645  1.0896
  557MOL0     C75114   6.704   0.215   2.361 -0.0785  0.2382 -0.2454
  557MOL0     C75115   6.660   0.110   2.449  0.8030 -0.4623  0.5447
  557MOL0     C75116   6.529   0.094   2.494 -0.1955  0.1707  0.4685
  557MOL0     C75117   6.433   0.178   2.430 -0.2233  0.2612  0.0640
  557MOL0     O75118   6.293   0.170   2.443 -0.1183 -0.1063 -0.1632
  557MOL0     C75119   6.221   0.085   2.533  0.2520 -0.1001 -0.3100
  557MOL0     C75120   6.076   0.137   2.533  0.5924 -0.6394  0.8913
  557MOL0     C75121   6.022   0.141   2.389 -0.8438  0.2581 -0.1490
  557MOL0     C75122   5.865   0.143   2.389 -0.4350 -0.1753 -0.0054
  557MOL0     C75123   5.828   0.154   2.249 -0.1943 -0.7360 -0.1860
  557MOL0     C75124   5.785   0.183   2.143  0.5631 -0.1046 -0.7506
  557MOL0     C75125   6.477   0.270   2.338 -1.2066  0.1855  0.1099
  557MOL0     C75126   6.610   0.299   2.306 -0.0135  0.1116 -0.1024
  557MOL0     C75127   6.620   0.408   2.195  0.4636 -0.1407  0.1877
  557MOL0     H75128   7.141   0.228   2.344 -0.8498 -3.5402 -0.8620
  557MOL0     H75129   7.345   0.220   2.216 -1.8277 -2.6181 -2.5084
  557MOL0     H75130   7.517   0.373   2.121  0.0568  0.2428  0.1113
  557MOL0     H75131   7.515   0.206   2.057  1.2707 -0.6774 -1.5714
  557MOL0     H75132   7.626   0.450   1.909 -1.4041 -0.2677  0.4028
  557MOL0     H75133   7.597   0.291   1.829  2.5008 -0.3918 -0.6490
  557MOL0     H75134   7.844   0.369   1.935  0.0001  0.7886  2.3444
  557MOL0     H75135   7.800   0.201   1.888 -1.6968 -1.9125  0.9777
  557MOL0     H75136   7.785   0.342   2.161 -0.2715 -0.0157 -0.0047
  557MOL0     H75137   7.732   0.177   2.139 -1.9316  0.0088 -2.2662
  557MOL0     H75138   7.964   0.115   2.038  1.9066  1.4453 -0.2214
  557MOL0     H75139   8.018   0.272   2.085 -0.6812  1.3959  0.2111
  557MOL0     H75140   7.990   0.202   2.327  2.9513 -2.6604  1.3612
  557MOL0     H75141   7.882   0.058   2.272 -1.7743  1.5914  0.0066
  557MOL0     H75142   8.172   0.117   2.253 -1.0952  0.9274 -0.6397
  557MOL0     H75143   8.110  -0.004   2.152  2.1251  5.1321 -2.0110
  557MOL0     H75144   8.089  -0.014   2.466 -0.0328 -2.3039  1.3406
  557MOL0     H75145   7.997  -0.110   2.361 -0.1527  1.1036  3.5550
  557MOL0     H75146   8.193  -0.256   2.168  2.6069 -1.8984 -0.9160
  557MOL0     H75147   8.484  -0.461   2.315  0.5121 -2.1513 -2.1224
  557MOL0     H75148   8.393  -0.447   2.161 -1.1499  1.4544 -0.1219
  557MOL0     H75149   8.664  -0.335   2.249  2.0450  0.0314 -2.1355
  557MOL0     H75150   8.624  -0.440   2.116  0.4099 -0.6054  0.3738
  557MOL0     H75151   8.679  -0.196   2.086  0.2254 -0.8930  2.0792
  557MOL0     H75152   8.512  -0.164   2.111  1.6862 -0.1710  1.6238
  557MOL0     H75153   8.657  -0.346   1.902  1.2765  2.2570 -0.8754
  557MOL0     H75154   8.579  -0.192   1.870  0.9647  1.2961  1.2227
  557MOL0     H75155   8.396  -0.104   1.836 -0.4252  0.4176 -1.6664
  557MOL0     H75156   8.166  -0.006   1.840 -2.3464 -0.5581 -0.5295
  557MOL0     H75157   7.691  -0.029   2.032  0.6178 -1.6090  0.0283
  557MOL0     H75158   7.447   0.032   1.979  1.5574  2.3235 -1.9655
  557MOL0     H75159   7.194  -0.048   1.935 -0.5098  0.4143 -0.1702
  557MOL0     H75160   7.280   0.082   1.853  0.0037 -0.3112  0.9119
  557MOL0     H75161   7.151   0.055   1.647 -0.5612  2.6097  0.7032
  557MOL0     H75162   7.089  -0.102   1.718  0.7319 -0.4094 -0.6147
  557MOL0     H75163   6.957   0.031   1.891  0.8218 -0.1238  0.5165
  557MOL0     H75164   7.044   0.179   1.840 -0.7047  0.1377 -0.9196
  557MOL0     H75165   6.848   0.039   1.659  2.9095  0.0969 -2.2636
  557MOL0     H75166   6.943   0.180   1.620 -0.2556  0.8592  0.4410
  557MOL0     H75167   6.850   0.300   1.827 -2.8259  0.9765 -0.4546
  557MOL0     H75168   6.747   0.161   1.853 -3.8279  0.8031 -1.4371
  557MOL0     H75169   6.731   0.313   1.595 -1.9612  1.0906 -0.3840
  557MOL0     H75170   6.619   0.190   1.662  0.7696 -1.0763 -1.7146
  557MOL0     H75171   6.681   0.484   1.755 -0.1141  0.5404  0.1493
  557MOL0     H75172   6.587   0.367   1.850 -0.7057 -0.0911  0.3432
  557MOL0     H75173   6.520   0.462   1.570 -0.0342 -0.3424 -0.3048
  557MOL0     H75174   6.410   0.366   1.665  0.2557 -0.1741  0.4306
  557MOL0     H75175   7.470  -0.260   1.668  2.6107  0.6575 -0.2391
  557MOL0     H75176   7.696  -0.336   1.737 -1.3700  0.2903 -1.1576
  557MOL0     H75177   8.021  -0.410   1.929  0.3221  0.2151  0.3854
  557MOL0     H75178   8.231  -0.488   1.916 -3.0449 -0.8430  1.6413
  557MOL0     H75179   7.157   0.436   1.897  0.7957 -0.4886 -0.4860
  557MOL0     H75180   6.940   0.415   2.033 -0.5197 -2.4978  0.8066
  557MOL0     H75181   6.726   0.051   2.512 -0.3581  0.9057  3.1837
  557MOL0     H75182   6.494   0.028   2.573  0.5344  0.5765  1.1382
  557MOL0     H75183   6.255   0.080   2.637 -0.8193  0.7484  0.1054
  557MOL0     H75184   6.231  -0.020   2.504  2.6725 -0.1669  0.6006
  557MOL0     H75185   6.061   0.236   2.578  0.7740 -0.5428  0.7433
  557MOL0     H75186   6.021   0.078   2.606 -0.6795 -2.5442 -1.4806
  557MOL0     H75187   6.057   0.063   2.321 -1.1643  2.4379 -2.9739
  557MOL0     H75188   6.056   0.238   2.351  3.7260 -2.0174 -2.7733
  557MOL0     H75189   5.825   0.048   2.424  1.4322 -0.5406  1.3162
  557MOL0     H75190   5.826   0.221   2.454  1.5904 -0.0872  1.1957
  557MOL0     H75191   5.740   0.219   2.053 -0.3237 -1.3876 -0.8444
  557MOL0     H75192   6.399   0.327   2.288  1.0581  2.8894 -0.5930
  557MOL0     H75193   6.708   0.469   2.218 -1.2912  2.2096  1.2003
  557MOL0     H75194   6.642   0.354   2.103  1.1784 -1.8361  1.3179
  557MOL0     H75195   6.530   0.467   2.174  1.7470  1.2870 -1.6054
  558MOL0     O75196   7.194   7.594   4.500  0.0849  0.6230 -0.0274
  558MOL0     C75197   7.122   7.592   4.602  0.5722 -0.1808  0.2428
  558MOL0     O75198   6.985   7.581   4.597  0.2552  0.5291 -0.2367
  558MOL0     C75199   6.927   7.513   4.494 -0.9660 -0.6214  0.6115
  558MOL0     C75200   6.979   7.389   4.455  0.0261  0.0874 -0.2522
  558MOL0     C75201   6.925   7.321   4.346 -0.7002 -0.6253 -0.7846
  558MOL0     C75202   6.801   7.364   4.300 -0.4381 -0.2311 -0.4645
  558MOL0     O75203   6.739   7.289   4.206 -0.6637 -0.7182  1.0183
  558MOL0     C75204   6.678   7.368   4.093 -0.3025  0.3045  0.4685
  558MOL0     C75205   6.709   7.297   3.961 -0.0271 -0.2851  0.2587
  558MOL0     C75206   6.842   7.361   3.902  0.5719 -0.6442 -0.2375
  558MOL0     C75207   6.971   7.328   3.981  0.7107 -0.8535  0.0737
  558MOL0     C75208   7.101   7.343   3.902 -0.1057  0.2119  0.2990
  558MOL0     C75209   7.215   7.283   3.998  0.2455 -0.5584  0.5346
  558MOL0     C75210   7.269   7.379   4.096 -0.3561 -0.2335  0.8131
  558MOL0     C75211   7.373   7.322   4.189  0.2182  0.3348  0.3587
  558MOL0     N75212   7.496   7.266   4.125  0.2755  0.5752  0.6220
  558MOL0     C75213   7.585   7.184   4.178  0.1286 -0.4133 -0.4688
  558MOL0     C75214   7.694   7.199   4.096  0.8469  0.7149  0.8266
  558MOL0     C75215   7.823   7.137   4.141  0.4533  0.4296 -0.2248
  558MOL0     C75216   7.938   7.135   4.034  0.7838 -1.4857 -0.8589
  558MOL0     C75217   8.063   7.055   4.079  0.3660 -0.8500  0.0659
  558MOL0     C75218   8.157   7.032   3.958  0.4819 -0.0264 -0.3878
  558MOL0     O75219   8.206   6.897   3.942 -0.1548  0.1796  0.6554
  558MOL0     C75220   8.130   6.781   3.909  0.3549  0.1204 -0.1016
  558MOL0     C75221   8.189   6.656   3.915 -0.5571  0.7987 -0.2234
  558MOL0     C75222   8.118   6.533   3.900 -0.2990 -0.3487 -0.5146
  558MOL0     C75223   7.982   6.531   3.892  0.0355 -1.5682  0.0993
  558MOL0     C75224   7.902   6.408   3.911 -1.0120  0.3624  0.5947
  558MOL0     O75225   7.944   6.315   4.006 -0.1285 -0.3023 -0.1104
  558MOL0     C75226   7.864   6.218   4.035  0.1703  0.0017 -0.8372
  558MOL0     C75227   7.916   6.085   4.043  0.1600  0.1798 -0.4910
  558MOL0     C75228   7.828   5.980   4.080  0.3105  0.7997 -0.3059
  558MOL0     C75229   7.689   6.002   4.113 -0.4247 -0.0948  0.6826
  558MOL0     O75230   7.601   5.910   4.154 -0.4635  0.6086 -0.0950
  558MOL0     C75231   7.639   5.788   4.220  0.1350  1.4924  0.2447
  558MOL0     C75232   7.532   5.687   4.169 -0.0068  0.9183 -0.3745
  558MOL0     C75233   7.393   5.722   4.221 -0.4981 -0.4665  0.0814
  558MOL0     C75234   7.287   5.626   4.188  0.7804  0.4005 -0.9310
  558MOL0     C75235   7.148   5.673   4.249  0.1439 -0.7041  0.3160
  558MOL0     C75236   7.084   5.808   4.190  0.5570  0.2790  0.2561
  558MOL0     C75237   6.945   5.836   4.268 -0.4933 -0.9791  0.5936
  558MOL0     C75238   6.913   5.982   4.277 -0.1029 -0.1444 -0.6582
  558MOL0    Cl75239   6.750   6.011   4.362  0.1026 -0.3196  0.0066
  558MOL0     C75240   7.641   6.133   4.106 -0.5638 -0.7625 -0.2894
  558MOL0     C75241   7.725   6.243   4.067  0.1400  0.2216 -0.9002
  558MOL0     O75242   7.806   6.405   3.836 -0.0011  0.2161  0.3069
  558MOL0     C75243   7.924   6.657   3.867  1.3549 -0.3638  0.3167
  558MOL0     C75244   7.992   6.778   3.873 -1.1101 -1.0072  0.3836
  558MOL0     N75245   7.665   7.276   3.982  0.0255 -0.2186 -0.7390
  558MOL0     N75246   7.549   7.322   4.017  0.0139  0.3168 -0.0523
  558MOL0     C75247   6.740   7.475   4.362  0.6501  0.2808  0.7077
  558MOL0     C75248   6.806   7.562   4.443  0.1916  0.5446 -0.0199
  558MOL0     C75249   7.205   7.593   4.727  0.5152  0.1030 -0.0193
  558MOL0     C75250   7.334   7.542   4.734  0.1440  0.1638  0.9785
  558MOL0     C75251   7.410   7.535   4.846  0.2678 -0.5087 -0.6966
  558MOL0     C75252   7.368   7.593   4.963  0.9486  0.0168  0.5629
  558MOL0     O75253   7.438   7.602   5.081 -0.2699 -0.5324 -0.1778
  558MOL0     C75254   7.552   7.530   5.099  0.8927  0.2399 -0.3550
  558MOL0     C75255   7.598   7.556   5.243 -0.5991 -0.4704 -0.5267
  558MOL0     C75256   7.609   7.704   5.268 -0.1587 -0.2473 -0.1477
  558MOL0     C75257   7.625   7.724   5.423 -0.3712 -0.6223 -0.3300
  558MOL0     C75258   7.742   7.652   5.483  0.7014  0.0838  0.6384
  558MOL0     C75259   7.828   7.602   5.552 -0.7506 -0.1163 -0.2452
  558MOL0     C75260   7.241   7.649   4.962 -0.9243  0.3354  0.7651
  558MOL0     C75261   7.159   7.643   4.846  0.3966  0.1481 -0.1797
  558MOL0     C75262   7.019   7.700   4.874  0.5227  0.1849 -1.1196
  558MOL0     H75263   7.067   7.348   4.503 -0.3200 -2.4933 -1.6492
  558MOL0     H75264   6.960   7.225   4.309 -2.8026 -2.0882  0.7585
  558MOL0     H75265   6.573   7.345   4.111 -0.8592  1.0602 -1.5099
  558MOL0     H75266   6.686   7.477   4.092 -2.2228  0.5252 -2.2100
  558MOL0     H75267   6.624   7.306   3.894  0.6620  1.0169 -0.5064
  558MOL0     H75268   6.722   7.190   3.974  0.5435 -0.2515  0.0078
  558MOL0     H75269   6.836   7.469   3.885  1.6375 -0.3708  0.9949
  558MOL0     H75270   6.849   7.312   3.804 -0.8735  1.4437 -1.4723
  558MOL0     H75271   6.973   7.401   4.063  0.6024 -1.6036  0.7534
  558MOL0     H75272   6.965   7.234   4.036  1.9755 -1.4130 -0.7189
  558MOL0     H75273   7.105   7.288   3.808  1.8405  0.8866 -0.0525
  558MOL0     H75274   7.133   7.447   3.893  1.7350 -0.2573  0.9629
  558MOL0     H75275   7.169   7.201   4.055 -0.6416 -0.3129  0.1906
  558MOL0     H75276   7.293   7.233   3.941 -3.2645 -3.0422 -2.6191
  558MOL0     H75277   7.185   7.425   4.148  0.8599 -1.2061  3.9197
  558MOL0     H75278   7.321   7.459   4.042 -2.2857  0.7012  0.2734
  558MOL0     H75279   7.407   7.396   4.262 -2.5899  1.2585  0.8172
  558MOL0     H75280   7.331   7.238   4.245 -4.3322  0.5851 -2.1813
  558MOL0     H75281   7.580   7.122   4.267  1.3831  2.4128  1.7518
  558MOL0     H75282   7.859   7.183   4.233 -1.2949 -1.6305  1.5914
  558MOL0     H75283   7.808   7.031   4.165  0.7283  0.3756 -0.2850
  558MOL0     H75284   7.890   7.084   3.949  1.8221 -2.8911 -0.6380
  558MOL0     H75285   7.953   7.240   4.008 -2.3109 -0.3436  1.4507
  558MOL0     H75286   8.036   6.958   4.123  2.8511 -1.3057  0.7383
  558MOL0     H75287   8.111   7.114   4.157 -3.4384  2.5929  0.1208
  558MOL0     H75288   8.240   7.103   3.968 -0.3100  0.5709  4.2887
  558MOL0     H75289   8.103   7.052   3.865 -0.0292 -2.1857 -0.6016
  558MOL0     H75290   8.288   6.640   3.957 -1.8790 -4.6370  1.6488
  558MOL0     H75291   8.173   6.439   3.907  1.8790  0.9764  2.8745
  558MOL0     H75292   8.019   6.059   4.022  0.5940  1.3366  0.1496
  558MOL0     H75293   7.864   5.879   4.092 -0.0843  0.9085  2.9183
  558MOL0     H75294   7.741   5.756   4.193  0.4742  3.0510 -0.4530
  558MOL0     H75295   7.628   5.805   4.327 -3.0347  0.9554  0.0985
  558MOL0     H75296   7.520   5.699   4.061 -1.1606  2.4391 -0.1133
  558MOL0     H75297   7.553   5.585   4.201  0.0576  1.3390  0.9912
  558MOL0     H75298   7.405   5.732   4.329  0.5388  1.5595 -0.1702
  558MOL0     H75299   7.366   5.822   4.188  0.8951  0.3198  1.1851
  558MOL0     H75300   7.311   5.525   4.223 -0.9521  0.8918  2.1054
  558MOL0     H75301   7.274   5.624   4.080 -5.6699  1.3446 -0.6258
  558MOL0     H75302   7.163   5.692   4.355 -1.6179 -0.7452  0.6037
  558MOL0     H75303   7.072   5.595   4.247  1.7406 -2.3294 -1.7196
  558MOL0     H75304   7.159   5.886   4.205  3.6876 -2.1735 -1.5551
  558MOL0     H75305   7.059   5.802   4.084 -0.3797  0.3589  0.4569
  558MOL0     H75306   6.955   5.809   4.374  0.9746  2.6982  1.5255
  558MOL0     H75307   6.864   5.784   4.216 -1.9167  2.3778 -0.7776
  558MOL0     H75308   6.986   6.037   4.337 -1.6622  0.5316  0.6835
  558MOL0     H75309   6.922   6.023   4.176 -0.3784 -1.2105 -1.1281
  558MOL0     H75310   7.536   6.140   4.133 -0.7971 -2.1153 -0.7466
  558MOL0     H75311   7.688   6.344   4.059 -2.0171 -0.4120  0.1306
  558MOL0     H75312   7.817   6.672   3.856  1.4359 -1.4709 -2.6625
  558MOL0     H75313   7.930   6.868   3.880 -1.9237 -1.4749 -0.4829
  558MOL0     H75314   6.644   7.505   4.321  0.3161 -3.6638 -2.0210
  558MOL0     H75315   6.748   7.643   4.486  2.2954  1.9390  0.3390
  558MOL0     H75316   7.375   7.498   4.643  0.4057  2.0772  0.1322
  558MOL0     H75317   7.495   7.470   4.828 -1.5668 -2.5232 -2.7269
  558MOL0     H75318   7.617   7.555   5.015 -1.4266 -1.3687 -2.7871
  558MOL0     H75319   7.523   7.425   5.087  0.3984 -0.3902  4.2862
  558MOL0     H75320   7.692   7.505   5.263 -1.2323 -1.1841  0.7453
  558MOL0     H75321   7.515   7.522   5.306 -0.5370 -1.8022 -1.1511
  558MOL0     H75322   7.515   7.755   5.243 -0.3724  0.0620  1.2219
  558MOL0     H75323   7.691   7.739   5.205 -1.3708 -1.8892 -2.8147
  558MOL0     H75324   7.626   7.831   5.444 -1.4081 -0.8662  1.0690
  558MOL0     H75325   7.539   7.688   5.478  0.8231 -3.6622 -0.2775
  558MOL0     H75326   7.901   7.550   5.611 -0.5553 -1.3916 -1.5673
  558MOL0     H75327   7.206   7.668   5.063 -0.5112 -2.8031  1.6160
  558MOL0     H75328   6.973   7.726   4.779  1.0260  0.5782 -1.2581
  558MOL0     H75329   6.951   7.637   4.932  2.5769  0.0711  1.3454
  558MOL0     H75330   7.037   7.790   4.933  0.7434  0.3387 -1.4194
  559MOL0     O75331   6.141  10.181   2.679  0.1179  1.3030  0.4607
  559MOL0     C75332   6.171  10.294   2.645  0.9447  0.0729  0.3885
  559MOL0     O75333   6.306  10.334   2.636  0.5004  0.9474  0.3344
  559MOL0     C75334   6.397  10.261   2.696 -0.0689  0.6398 -0.2357
  559MOL0     C75335   6.466  10.301   2.805  0.0723  0.6552 -0.8279
  559MOL0     C75336   6.565  10.222   2.867 -0.2223 -0.0008  0.0143
  559MOL0     C75337   6.609  10.102   2.796 -0.6030 -0.0683  0.5795
  559MOL0     O75338   6.702  10.026   2.852  0.0852  0.1000  0.2177
  559MOL0     C75339   6.753   9.911   2.796 -0.3613  0.3314  0.5478
  559MOL0     C75340   6.875   9.862   2.868  0.6926 -1.4085  0.2554
  559MOL0     C75341   6.855   9.811   3.012  0.8196  0.2364  0.2586
  559MOL0     C75342   6.963   9.840   3.104  0.4729  0.7711  0.7287
  559MOL0     C75343   6.954   9.768   3.232 -0.2425 -1.1214  0.0973
  559MOL0     C75344   7.073   9.785   3.329 -0.6070 -0.1360  0.2662
  559MOL0     C75345   7.053   9.693   3.446  0.2473  0.5120 -0.9189
  559MOL0     C75346   7.095   9.551   3.431  0.3826  0.6245  0.3088
  559MOL0     N75347   7.235   9.525   3.460 -0.5193  0.9602  0.0455
  559MOL0     C75348   7.307   9.546   3.571  0.5223 -0.3707 -0.0157
  559MOL0     C75349   7.426   9.484   3.565  1.0308  0.3078  0.2426
  559MOL0     C75350   7.538   9.476   3.665 -0.2820 -0.8295  0.7684
  559MOL0     C75351   7.663   9.423   3.589 -0.1098  0.3656 -0.4775
  559MOL0     C75352   7.773   9.391   3.698 -1.0548 -1.6718  0.2925
  559MOL0     C75353   7.845   9.512   3.770 -0.6305 -0.2406  0.1432
  559MOL0     O75354   7.942   9.456   3.865  0.5331  0.3728 -0.3995
  559MOL0     C75355   8.062   9.524   3.895  0.6494 -0.1848  0.0199
  559MOL0     C75356   8.096   9.653   3.852  0.4097  0.2578  0.1788
  559MOL0     C75357   8.208   9.711   3.896 -0.3920 -0.8441 -0.1668
  559MOL0     C75358   8.291   9.646   3.994  0.3825  0.2214  0.6422
  559MOL0     C75359   8.407   9.712   4.041 -0.0047  0.3080 -0.5649
  559MOL0     O75360   8.407   9.846   4.043 -0.2618 -0.6887  0.1094
  559MOL0     C75361   8.529   9.898   4.083 -0.0912 -0.1107 -0.9421
  559MOL0     C75362   8.564   9.898   4.224  0.2640 -0.4347 -0.0837
  559MOL0     C75363   8.691   9.953   4.249  0.2248 -0.4729 -1.1459
  559MOL0     C75364   8.782  10.001   4.158  0.6558 -0.7172 -0.4242
  559MOL0     O75365   8.904  10.040   4.206 -0.4520  0.7522 -0.1420
  559MOL0     C75366   9.010  10.053   4.117  0.5568 -0.1222 -0.2858
  559MOL0     C75367   9.138  10.039   4.198 -0.3352  0.3157  0.5168
  559MOL0     C75368   9.149  10.146   4.314 -0.6026  0.9422 -0.4051
  559MOL0     C75369   9.290  10.122   4.389  0.9089 -0.8476  0.2221
  559MOL0     C75370   9.346  10.247   4.461 -0.9134  0.3727 -0.4107
  559MOL0     C75371   9.486  10.222   4.516  1.6512 -0.7556 -0.8929
  559MOL0     C75372   9.490  10.121   4.635  0.4342 -0.5329 -0.0987
  559MOL0     C75373   9.545   9.979   4.601 -0.0367  0.3703 -0.0436
  559MOL0    Cl75374   9.718   9.979   4.549 -0.0012 -0.1889 -0.1811
  559MOL0     C75375   8.745   9.999   4.029 -0.2384  0.2817  0.7116
  559MOL0     C75376   8.618   9.948   3.983  0.0254 -0.5592  0.1813
  559MOL0     O75377   8.497   9.642   4.091 -1.1706  0.5930 -0.3699
  559MOL0     C75378   8.268   9.515   4.022 -0.0623  0.3965  0.2042
  559MOL0     C75379   8.151   9.450   3.975  0.7396 -0.4180 -1.0893
  559MOL0     N75380   7.421   9.408   3.444  0.1228 -0.2250 -0.3529
  559MOL0     N75381   7.306   9.429   3.390  0.4045 -0.2928  1.1479
  559MOL0     C75382   6.547  10.071   2.669  0.4022  0.3644 -0.0384
  559MOL0     C75383   6.438  10.148   2.616 -0.0675  0.2259 -0.3068
  559MOL0     C75384   6.064  10.388   2.614  0.7840  0.2149  0.1821
  559MOL0     C75385   6.102  10.523   2.589  0.3122 -0.0439  0.1566
  559MOL0     C75386   6.013  10.621   2.549 -0.5758 -0.5138  0.2495
  559MOL0     C75387   5.879  10.586   2.543 -0.5241  0.1426 -0.4695
  559MOL0     O75388   5.794  10.689   2.517  0.6955 -0.0390  0.0106
  559MOL0     C75389   5.649  10.666   2.494 -0.2129 -0.2347  1.2005
  559MOL0     C75390   5.611  10.594   2.369  0.3231  0.5675  0.5608
  559MOL0     C75391   5.467  10.618   2.334  0.7151  0.2561 -0.1981
  559MOL0     C75392   5.398  10.524   2.230  0.3855  0.4741 -0.4597
  559MOL0     C75393   5.452  10.557   2.099  0.3872 -0.1304 -0.9900
  559MOL0     C75394   5.500  10.605   1.996 -0.0442 -0.9652 -0.6831
  559MOL0     C75395   5.837  10.454   2.582  0.1311 -1.4082  0.3582
  559MOL0     C75396   5.923  10.354   2.600 -0.8009 -0.3145  0.3511
  559MOL0     C75397   5.876  10.221   2.586  0.2706 -0.4785  0.5543
  559MOL0     H75398   6.438  10.383   2.869 -1.1804  0.1962 -0.7615
  559MOL0     H75399   6.610  10.251   2.961  0.2314  0.0412 -0.2144
  559MOL0     H75400   6.676   9.834   2.804 -1.1075  1.1812  1.9190
  559MOL0     H75401   6.772   9.922   2.689 -0.2681 -1.2002  0.3794
  559MOL0     H75402   6.944   9.947   2.874 -1.1665  0.3381 -1.6664
  559MOL0     H75403   6.925   9.787   2.806 -1.3999 -0.7773 -2.3855
  559MOL0     H75404   6.842   9.703   3.020 -0.9219  0.4985  1.7989
  559MOL0     H75405   6.764   9.858   3.051  0.1347 -1.6469  1.0137
  559MOL0     H75406   7.048   9.807   3.043  0.7630  0.0635  1.4903
  559MOL0     H75407   6.967   9.948   3.117 -3.9769  1.1534  0.3797
  559MOL0     H75408   6.879   9.817   3.294  1.4970  1.2464  0.4968
  559MOL0     H75409   6.935   9.662   3.211  0.6010 -0.8236 -2.4726
  559MOL0     H75410   7.168   9.759   3.282 -1.3471 -1.0550 -0.7762
  559MOL0     H75411   7.081   9.890   3.359 -1.8273 -0.3643  1.4843
  559MOL0     H75412   6.948   9.708   3.475  0.0710  4.4351 -3.0276
  559MOL0     H75413   7.110   9.731   3.531  0.8849 -1.7779 -0.2370
  559MOL0     H75414   7.027   9.487   3.487 -1.7370  2.4069 -0.1135
  559MOL0     H75415   7.080   9.524   3.326 -1.5413  0.3940  0.6071
  559MOL0     H75416   7.275   9.613   3.650 -1.3029  1.4444 -2.1528
  559MOL0     H75417   7.560   9.579   3.697  0.7061 -0.1587 -1.8519
  559MOL0     H75418   7.499   9.404   3.738 -0.7144 -1.7895 -0.3885
  559MOL0     H75419   7.638   9.330   3.537  1.4389  0.5542 -1.6132
  559MOL0     H75420   7.701   9.503   3.525 -0.6605  1.8496  0.9664
  559MOL0     H75421   7.856   9.335   3.653 -0.4259 -0.8781  0.4457
  559MOL0     H75422   7.727   9.330   3.776  2.1519  1.4776  5.1551
  559MOL0     H75423   7.770   9.579   3.815 -0.8597 -0.2443 -0.2254
  559MOL0     H75424   7.885   9.575   3.690  1.3511 -3.0094 -1.1970
  559MOL0     H75425   8.033   9.711   3.786  1.0977  1.4742  0.5675
  559MOL0     H75426   8.240   9.807   3.858 -2.1135 -1.4501 -3.5698
  559MOL0     H75427   8.486   9.871   4.294  2.2821 -0.5903  2.2446
  559MOL0     H75428   8.712   9.983   4.352  2.3687  1.3355 -2.0285
  559MOL0     H75429   9.013   9.989   4.028  1.3321 -1.0490  0.3843
  559MOL0     H75430   9.002  10.153   4.073  0.2421 -0.4112 -0.9041
  559MOL0     H75431   9.149   9.941   4.245  0.4970 -0.0189 -0.3313
  559MOL0     H75432   9.212  10.057   4.119  1.0904 -1.7241  1.2742
  559MOL0     H75433   9.141  10.250   4.281 -2.0495  1.3132  0.9956
  559MOL0     H75434   9.066  10.137   4.384  0.2647  0.2456  0.5536
  559MOL0     H75435   9.364  10.079   4.321  1.4456 -1.1461  0.9798
  559MOL0     H75436   9.273  10.048   4.468  0.0396 -0.0640  0.8002
  559MOL0     H75437   9.279  10.273   4.544  2.3980  0.4831  2.4827
  559MOL0     H75438   9.346  10.331   4.391  0.6036  0.7056 -0.0537
  559MOL0     H75439   9.541  10.173   4.435  1.7179 -2.0171 -0.1037
  559MOL0     H75440   9.527  10.318   4.550  2.9822 -1.2654 -0.9723
  559MOL0     H75441   9.397  10.106   4.689  1.5422 -2.3493  1.4165
  559MOL0     H75442   9.566  10.141   4.710  3.0562 -1.6434 -2.2599
  559MOL0     H75443   9.524   9.915   4.687 -1.8628  1.8007  0.6497
  559MOL0     H75444   9.474   9.940   4.527  0.3311 -1.1687  0.3822
  559MOL0     H75445   8.813  10.059   3.969 -1.2514  1.4617  0.7099
  559MOL0     H75446   8.599   9.958   3.876  1.7018  0.9533 -0.0415
  559MOL0     H75447   8.332   9.454   4.085  1.3623  1.9090  0.2840
  559MOL0     H75448   8.131   9.349   4.009 -0.3223 -1.4628 -4.3924
  559MOL0     H75449   6.580   9.989   2.606 -1.5324 -1.6103  1.3488
  559MOL0     H75450   6.383  10.131   2.524 -5.5086  1.4059  2.2673
  559MOL0     H75451   6.205  10.550   2.612  0.3560  0.4778 -0.6241
  559MOL0     H75452   6.044  10.724   2.537 -1.5577 -0.1160  1.0226
  559MOL0     H75453   5.590  10.758   2.498  1.6150  0.9761  1.8634
  559MOL0     H75454   5.603  10.608   2.574 -3.9865  0.2113 -0.4529
  559MOL0     H75455   5.643  10.489   2.370 -2.7530 -0.6408 -2.7967
  559MOL0     H75456   5.668  10.645   2.292 -0.2241 -1.1585 -1.0625
  559MOL0     H75457   5.454  10.714   2.283 -1.9176 -0.7978 -1.6729
  559MOL0     H75458   5.401  10.630   2.420  1.2513  3.7056 -0.1178
  559MOL0     H75459   5.408  10.417   2.252  1.5919  0.8241  0.8640
  559MOL0     H75460   5.293  10.552   2.243  1.2722  2.9637  2.6699
  559MOL0     H75461   5.547  10.658   1.917  1.6704  0.0969  0.9674
  559MOL0     H75462   5.731  10.430   2.584 -0.3164  0.4346  1.8329
  559MOL0     H75463   5.843  10.167   2.675 -0.9335 -0.9472 -0.1546
  559MOL0     H75464   5.787  10.237   2.525  0.5610  3.8080  0.9764
  559MOL0     H75465   5.947  10.158   2.532  0.5127  0.9326 -0.8456
  560MOL0     O75466   4.408   5.841   6.833  0.7057  0.0448 -0.4384
  560MOL0     C75467   4.301   5.904   6.812 -0.0751  0.3867  0.8257
  560MOL0     O75468   4.300   6.046   6.801 -0.2289 -0.0971  0.4668
  560MOL0     C75469   4.404   6.111   6.855 -0.0969  0.3241  0.0486
  560MOL0     C75470   4.438   6.078   6.986  0.3814 -0.6584 -0.1988
  560MOL0     C75471   4.547   6.136   7.046 -0.2537  1.1362  0.0201
  560MOL0     C75472   4.617   6.238   6.976  0.0068 -0.3397 -0.4176
  560MOL0     O75473   4.720   6.309   7.033 -0.0052  1.0497 -0.1560
  560MOL0     C75474   4.798   6.244   7.141 -0.3580 -0.8071  0.5114
  560MOL0     C75475   4.870   6.354   7.214  0.8484 -0.5399  0.6397
  560MOL0     C75476   4.783   6.444   7.305  1.0388 -0.9308 -0.2542
  560MOL0     C75477   4.841   6.586   7.284 -0.7451 -0.8645 -0.8279
  560MOL0     C75478   4.757   6.681   7.368  0.2393 -0.7400 -0.6927
  560MOL0     C75479   4.613   6.692   7.310 -0.3148 -0.1251 -0.2777
  560MOL0     C75480   4.534   6.801   7.373 -0.9485 -0.4534 -0.4015
  560MOL0     C75481   4.393   6.817   7.330 -0.2977 -0.3506  0.0325
  560MOL0     N75482   4.319   6.928   7.386  0.5719  0.2265 -0.3050
  560MOL0     C75483   4.282   6.949   7.511 -1.1080  0.8985  0.6778
  560MOL0     C75484   4.205   7.054   7.522 -0.0171 -0.3000  0.5886
  560MOL0     C75485   4.157   7.112   7.656 -0.4629 -0.5015  0.2701
  560MOL0     C75486   4.008   7.087   7.676  0.3571  0.5078 -0.0285
  560MOL0     C75487   3.911   7.196   7.611  1.0275  0.9821  0.2836
  560MOL0     C75488   3.761   7.177   7.642  0.7977  0.0698  1.3116
  560MOL0     O75489   3.689   7.242   7.538  0.4589 -0.0681  0.0113
  560MOL0     C75490   3.558   7.271   7.555 -0.0760 -0.1455 -1.4674
  560MOL0     C75491   3.508   7.395   7.501 -0.6151  0.0024  0.1099
  560MOL0     C75492   3.374   7.433   7.516 -0.6749 -0.6009 -0.4364
  560MOL0     C75493   3.283   7.364   7.590  0.3008 -0.1416 -0.2698
  560MOL0     C75494   3.144   7.407   7.602 -0.3237  1.0287 -0.6487
  560MOL0     O75495   3.126   7.543   7.598 -0.0984  0.0574 -0.0395
  560MOL0     C75496   2.998   7.593   7.581  0.6374  0.0494 -0.4705
  560MOL0     C75497   2.984   7.726   7.620  0.4097  0.2710  0.1610
  560MOL0     C75498   2.854   7.789   7.632  0.3651  0.1951  0.0114
  560MOL0     C75499   2.738   7.722   7.600 -0.2969 -0.5484 -0.0422
  560MOL0     O75500   2.616   7.775   7.629  0.1943  1.2316  0.2659
  560MOL0     C75501   2.578   7.903   7.576  0.0687  0.5216 -0.6056
  560MOL0     C75502   2.498   7.884   7.441 -0.2375  0.0953  0.1182
  560MOL0     C75503   2.455   8.019   7.385 -0.0120  0.3408  0.5409
  560MOL0     C75504   2.316   8.059   7.429  0.5563  0.0570 -0.3973
  560MOL0     C75505   2.285   8.208   7.435  0.6336 -0.2165 -0.3440
  560MOL0     C75506   2.341   8.281   7.561 -0.8637 -0.1742 -1.2843
  560MOL0     C75507   2.311   8.429   7.568  0.1128  0.1061  0.0211
  560MOL0     C75508   2.182   8.480   7.632  0.1366 -0.1375 -0.1402
  560MOL0    Cl75509   2.042   8.456   7.527  0.2316  0.0710  0.1119
  560MOL0     C75510   2.752   7.590   7.563 -0.3655 -0.2747  0.1863
  560MOL0     C75511   2.881   7.523   7.545  0.1622  0.1887 -0.6052
  560MOL0     O75512   3.056   7.330   7.651  0.8010 -0.4964 -0.2428
  560MOL0     C75513   3.330   7.253   7.655 -0.6302 -0.4359  1.2166
  560MOL0     C75514   3.468   7.203   7.643 -0.1127  0.0419 -0.3442
  560MOL0     N75515   4.180   7.088   7.392  0.2171  0.4382 -0.1234
  560MOL0     N75516   4.249   7.015   7.310 -0.3046  0.7656  0.1103
  560MOL0     C75517   4.574   6.277   6.848 -0.0300 -0.1307 -0.4990
  560MOL0     C75518   4.468   6.214   6.786 -0.3004 -0.5402 -0.8794
  560MOL0     C75519   4.169   5.832   6.792  0.0101  0.0252 -0.0970
  560MOL0     C75520   4.066   5.898   6.714 -0.3288 -0.8546  0.3374
  560MOL0     C75521   3.942   5.835   6.687 -0.4889  0.0982  0.2695
  560MOL0     C75522   3.928   5.706   6.748  0.4169  0.4107  0.0154
  560MOL0     O75523   3.812   5.636   6.736  0.9609  0.4842  0.8621
  560MOL0     C75524   3.700   5.699   6.661 -0.4136 -0.9780 -0.7613
  560MOL0     C75525   3.595   5.600   6.615  0.6051  0.3204 -0.1264
  560MOL0     C75526   3.531   5.544   6.738 -0.0389 -0.3457 -0.5943
  560MOL0     C75527   3.423   5.443   6.720 -0.1584  0.2266 -0.2668
  560MOL0     C75528   3.455   5.323   6.642 -0.0254  0.0942 -0.3719
  560MOL0     C75529   3.489   5.222   6.589 -0.2499 -0.0013  0.7370
  560MOL0     C75530   4.029   5.651   6.831  0.3072 -0.5961 -0.5460
  560MOL0     C75531   4.151   5.710   6.850 -0.4933  0.6599  1.1427
  560MOL0     C75532   4.251   5.630   6.941 -0.6160  0.1584  0.2233
  560MOL0     H75533   4.371   6.006   7.032  0.1292 -0.2549  0.0739
  560MOL0     H75534   4.570   6.110   7.149  0.0872  3.0836  0.4724
  560MOL0     H75535   4.747   6.189   7.220  1.4281 -2.3605  0.6645
  560MOL0     H75536   4.870   6.179   7.090 -1.5698  1.4064 -4.6696
  560MOL0     H75537   4.924   6.409   7.136 -0.3656  0.9402  0.8134
  560MOL0     H75538   4.954   6.313   7.271  2.6338  0.9954 -0.7648
  560MOL0     H75539   4.789   6.414   7.410  2.2672 -0.6505 -0.2236
  560MOL0     H75540   4.680   6.455   7.271  0.6022  1.2865  1.5364
  560MOL0     H75541   4.945   6.580   7.317 -1.6560 -2.2383  2.0798
  560MOL0     H75542   4.829   6.621   7.181 -0.3511 -0.9916 -0.9173
  560MOL0     H75543   4.762   6.652   7.473  1.7969 -1.7804 -1.0170
  560MOL0     H75544   4.802   6.780   7.350 -1.1147  0.4283  1.7751
  560MOL0     H75545   4.624   6.720   7.204  3.1034 -0.0388  0.0001
  560MOL0     H75546   4.557   6.600   7.328 -1.0684  0.6418  1.5272
  560MOL0     H75547   4.581   6.896   7.346  0.5373 -1.5461 -1.8552
  560MOL0     H75548   4.540   6.789   7.482 -0.1614  0.0794 -0.3768
  560MOL0     H75549   4.384   6.822   7.222 -2.0580  0.3443  0.1731
  560MOL0     H75550   4.345   6.720   7.349 -0.7273 -0.3935 -1.1848
  560MOL0     H75551   4.325   6.887   7.590  1.3622 -1.4296 -2.2542
  560MOL0     H75552   4.212   7.061   7.735 -0.2110 -3.2133 -1.5153
  560MOL0     H75553   4.179   7.218   7.673  3.2869 -1.6526  4.5253
  560MOL0     H75554   3.979   6.991   7.633 -2.2159  2.3601 -2.9345
  560MOL0     H75555   3.988   7.085   7.783  0.3908 -0.9365 -0.0376
  560MOL0     H75556   3.905   7.196   7.502 -3.8688  1.6842  0.3265
  560MOL0     H75557   3.944   7.297   7.636  0.3040  1.0507  1.0445
  560MOL0     H75558   3.736   7.200   7.746 -1.9478 -3.7158  1.6988
  560MOL0     H75559   3.722   7.075   7.638  0.4882  0.2110  0.7266
  560MOL0     H75560   3.566   7.465   7.441 -0.1832 -0.7628 -0.3915
  560MOL0     H75561   3.339   7.524   7.468 -1.4739 -0.6086  0.1134
  560MOL0     H75562   3.069   7.785   7.653  0.2508 -0.4347  1.9345
  560MOL0     H75563   2.847   7.886   7.679 -1.3491  0.7849 -1.3651
  560MOL0     H75564   2.504   7.938   7.649  0.2625 -0.8853  0.2908
  560MOL0     H75565   2.656   7.979   7.568 -2.5122  3.3524 -0.9782
  560MOL0     H75566   2.568   7.836   7.371 -0.0268  1.1998 -0.4440
  560MOL0     H75567   2.415   7.814   7.456  2.4503 -3.1488  1.0799
  560MOL0     H75568   2.521   8.102   7.413 -0.2243 -0.1271  2.5768
  560MOL0     H75569   2.457   7.999   7.278 -1.7868 -2.8298  0.9925
  560MOL0     H75570   2.301   8.014   7.528  2.0197 -3.0563 -1.4514
  560MOL0     H75571   2.243   8.011   7.363  0.1739 -1.3914  1.0078
  560MOL0     H75572   2.176   8.220   7.438  0.6943  3.2991 -3.8768
  560MOL0     H75573   2.320   8.263   7.347 -1.7285  0.0585 -1.1904
  560MOL0     H75574   2.300   8.232   7.650 -1.6727 -0.0407 -1.5696
  560MOL0     H75575   2.450   8.273   7.561 -0.8967 -2.2912  1.5968
  560MOL0     H75576   2.322   8.471   7.467  2.3335  1.1667  0.6476
  560MOL0     H75577   2.398   8.462   7.625 -0.1467 -0.9745  1.0610
  560MOL0     H75578   2.170   8.428   7.727  1.5861 -1.9087 -0.8662
  560MOL0     H75579   2.201   8.587   7.643 -0.3152  0.2830 -2.7784
  560MOL0     H75580   2.656   7.541   7.549 -0.8033  1.1694 -2.7251
  560MOL0     H75581   2.879   7.419   7.514  2.0652 -0.0802  0.0631
  560MOL0     H75582   3.254   7.200   7.712 -4.1028 -2.0082 -4.1948
  560MOL0     H75583   3.519   7.131   7.706  4.1259  1.0684 -2.2528
  560MOL0     H75584   4.636   6.351   6.799  2.4273 -0.6680  1.5499
  560MOL0     H75585   4.433   6.230   6.685 -0.7450 -1.8344 -0.9504
  560MOL0     H75586   4.073   5.995   6.666 -2.0070 -0.2305  1.2690
  560MOL0     H75587   3.872   5.891   6.627  0.0976  0.8046  0.2287
  560MOL0     H75588   3.744   5.732   6.566  0.5666 -1.9903 -0.6809
  560MOL0     H75589   3.664   5.785   6.718  0.0086  0.0794 -2.0363
  560MOL0     H75590   3.638   5.518   6.557  3.5058  1.2143  0.5967
  560MOL0     H75591   3.514   5.651   6.561 -0.7856 -0.7417  0.8709
  560MOL0     H75592   3.485   5.625   6.795 -0.0383 -0.1657 -0.8472
  560MOL0     H75593   3.601   5.493   6.805  1.4019 -0.8904 -2.4189
  560MOL0     H75594   3.376   5.408   6.813 -0.0050 -0.6442 -0.5106
  560MOL0     H75595   3.340   5.494   6.670 -0.8195 -0.8246 -0.2653
  560MOL0     H75596   3.502   5.126   6.544 -0.9723 -1.5293  3.4962
  560MOL0     H75597   3.997   5.559   6.880  0.0488 -1.4854 -2.3019
  560MOL0     H75598   4.341   5.613   6.882 -1.5450 -2.0098 -0.7233
  560MOL0     H75599   4.280   5.698   7.021  0.2084 -0.3985  0.4137
  560MOL0     H75600   4.204   5.544   6.989  0.0345  0.8438  2.1510
  561MOL0     O75601   9.931  11.135   8.680 -0.3144  0.0855 -0.3316
  561MOL0     C75602   9.984  11.070   8.771 -0.3833  0.8875  0.6468
  561MOL0     O75603   9.932  10.958   8.825  0.3869 -0.5023  0.4437
  561MOL0     C75604   9.841  10.896   8.739 -0.2693  0.7846  0.1381
  561MOL0     C75605   9.888  10.828   8.625 -0.4364  0.6117 -0.5804
  561MOL0     C75606   9.813  10.742   8.550  1.5668 -1.1741 -0.3576
  561MOL0     C75607   9.687  10.717   8.602  0.0761 -0.3678  0.6813
  561MOL0     O75608   9.618  10.626   8.534 -0.0032  0.0228  0.0670
  561MOL0     C75609   9.488  10.591   8.559 -0.2267 -0.3974 -0.1187
  561MOL0     C75610   9.397  10.695   8.493  0.8935  0.3491  0.4837
  561MOL0     C75611   9.259  10.638   8.460  1.2478 -0.6708  0.1805
  561MOL0     C75612   9.178  10.734   8.368  0.5328  1.4361 -0.0300
  561MOL0     C75613   9.056  10.664   8.308  0.2030 -0.1085  0.0078
  561MOL0     C75614   8.980  10.773   8.223  0.3244 -0.3979 -0.3769
  561MOL0     C75615   8.848  10.727   8.162 -0.3943 -0.5207 -0.3753
  561MOL0     C75616   8.788  10.851   8.086 -0.3495  0.5471  0.0633
  561MOL0     N75617   8.677  10.816   7.993  0.3788 -0.4058 -0.4021
  561MOL0     C75618   8.658  10.866   7.871  0.4129 -0.1917  0.5899
  561MOL0     C75619   8.536  10.831   7.834 -0.4181 -0.2452 -0.4598
  561MOL0     C75620   8.469  10.873   7.710 -0.5026 -0.0370  0.5280
  561MOL0     C75621   8.514  11.000   7.645  0.1921 -0.0298 -0.9409
  561MOL0     C75622   8.428  11.021   7.519 -0.6086 -0.2837  0.2114
  561MOL0     C75623   8.398  10.919   7.413  0.1086 -1.5181 -0.2213
  561MOL0     O75624   8.498  10.817   7.388  0.1419  0.3880  0.1170
  561MOL0     C75625   8.603  10.850   7.302  0.8281  0.3330  0.3337
  561MOL0     C75626   8.724  10.792   7.337  0.2386 -0.4437 -0.4407
  561MOL0     C75627   8.838  10.818   7.258  0.2542  0.4129 -0.1140
  561MOL0     C75628   8.828  10.909   7.143 -0.4523 -0.4913 -0.4687
  561MOL0     C75629   8.943  10.956   7.065 -0.0922 -0.0179  0.3698
  561MOL0     O75630   8.936  11.062   6.978 -0.9452 -0.7348 -0.6063
  561MOL0     C75631   9.040  11.094   6.895 -0.4937  0.6687 -0.1695
  561MOL0     C75632   9.082  11.223   6.876 -0.2533 -0.3965  0.4558
  561MOL0     C75633   9.174  11.258   6.780  0.5831  0.4366  1.3020
  561MOL0     C75634   9.232  11.162   6.697 -0.1085  0.8745 -0.7308
  561MOL0     O75635   9.317  11.210   6.604 -0.8519 -0.1969  0.4987
  561MOL0     C75636   9.423  11.121   6.562 -0.2055  0.4673  0.7917
  561MOL0     C75637   9.544  11.194   6.504  0.4240  0.3444 -0.9953
  561MOL0     C75638   9.608  11.271   6.612  0.9565 -0.1086  0.4139
  561MOL0     C75639   9.735  11.345   6.555 -0.6017  0.2702 -1.3491
  561MOL0     C75640   9.811  11.427   6.659 -0.4403  0.5978 -0.6743
  561MOL0     C75641   9.892  11.537   6.610 -0.6083 -0.8288 -0.2556
  561MOL0     C75642   9.981  11.584   6.737  0.5981 -0.7848  0.5021
  561MOL0     C75643  10.042  11.729   6.707 -0.0338  0.8802 -0.1162
  561MOL0    Cl75644  10.136  11.783   6.857 -0.3330 -0.5400 -0.0332
  561MOL0     C75645   9.202  11.024   6.725 -0.0590 -0.5224  0.2445
  561MOL0     C75646   9.103  10.989   6.823 -0.5809  0.3220 -0.4495
  561MOL0     O75647   9.049  10.915   7.102 -0.2323  0.1439 -0.2462
  561MOL0     C75648   8.710  10.983   7.123  0.6392 -0.8992 -0.9612
  561MOL0     C75649   8.596  10.949   7.200 -0.5105  0.8724  0.2008
  561MOL0     N75650   8.492  10.742   7.932 -0.7092 -0.4281  0.8741
  561MOL0     N75651   8.570  10.742   8.029  0.5693 -0.4996 -0.0593
  561MOL0     C75652   9.634  10.783   8.719 -0.5190 -0.0632 -0.3645
  561MOL0     C75653   9.711  10.873   8.780  0.8100  0.6688  0.2679
  561MOL0     C75654  10.105  11.120   8.848  0.8670 -0.7087  0.3030
  561MOL0     C75655  10.177  11.029   8.928 -0.4195 -0.2800 -0.2442
  561MOL0     C75656  10.287  11.069   9.003  0.1369 -1.0937 -0.4751
  561MOL0     C75657  10.334  11.202   9.008 -0.2739 -0.5551  0.3326
  561MOL0     O75658  10.462  11.217   9.070 -0.7134 -0.3976 -0.0467
  561MOL0     C75659  10.512  11.339   9.117 -0.4109 -0.3360 -0.8617
  561MOL0     C75660  10.662  11.334   9.115  0.2232  0.0092  0.2855
  561MOL0     C75661  10.735  11.389   8.987 -0.1727  0.3674 -0.1721
  561MOL0     C75662  10.678  11.343   8.854  0.0495  0.3782 -0.1316
  561MOL0     C75663  10.777  11.373   8.753  0.4722 -0.1790 -0.4950
  561MOL0     C75664  10.836  11.419   8.652  0.2883  0.0631 -0.1792
  561MOL0     C75665  10.268  11.296   8.920 -0.4755  0.2518  0.1437
  561MOL0     C75666  10.144  11.261   8.851  0.1051  0.2754  0.0315
  561MOL0     C75667  10.078  11.367   8.769 -0.2527  0.0758 -0.3552
  561MOL0     H75668   9.991  10.851   8.600 -0.6257  2.9650  0.4882
  561MOL0     H75669   9.842  10.703   8.453  1.7481  0.4556 -0.9940
  561MOL0     H75670   9.473  10.497   8.506  2.2981 -0.5719 -0.6677
  561MOL0     H75671   9.473  10.574   8.666  2.1539 -0.0202  0.3376
  561MOL0     H75672   9.452  10.720   8.402  3.2909 -1.3502  1.3467
  561MOL0     H75673   9.394  10.782   8.560  0.1269 -0.0046  0.9173
  561MOL0     H75674   9.202  10.615   8.550 -1.9695  2.2013 -0.9065
  561MOL0     H75675   9.270  10.541   8.410 -1.2047 -2.7500  3.3004
  561MOL0     H75676   9.146  10.819   8.429  0.0425  1.5436 -0.4304
  561MOL0     H75677   9.242  10.771   8.288 -1.8368 -1.3981 -3.5644
  561MOL0     H75678   9.097  10.583   8.247 -2.4769 -2.2114  0.7891
  561MOL0     H75679   8.987  10.625   8.383 -3.0013  0.7096 -2.3327
  561MOL0     H75680   8.952  10.861   8.282 -2.1901 -0.0822 -1.8762
  561MOL0     H75681   9.062  10.799   8.155  3.4225 -1.6720  2.5523
  561MOL0     H75682   8.787  10.680   8.241 -1.4859  0.7061 -0.4557
  561MOL0     H75683   8.873  10.658   8.081  1.3308 -1.1977  0.6850
  561MOL0     H75684   8.757  10.924   8.161  1.6362 -0.1618  1.6473
  561MOL0     H75685   8.870  10.888   8.024 -0.8061  1.8179  0.1944
  561MOL0     H75686   8.727  10.936   7.826 -1.5119  1.1675 -0.3910
  561MOL0     H75687   8.499  10.797   7.637  2.0111 -1.3123  2.7375
  561MOL0     H75688   8.362  10.880   7.730 -0.5786 -2.2951  1.1578
  561MOL0     H75689   8.502  11.079   7.719  0.8857  0.3720 -1.2476
  561MOL0     H75690   8.621  10.988   7.625 -0.1067 -3.6896 -1.1423
  561MOL0     H75691   8.471  11.107   7.468 -2.0996  0.4375  0.0958
  561MOL0     H75692   8.330  11.051   7.558  0.1521  1.1956  1.0851
  561MOL0     H75693   8.363  10.979   7.328  1.0150  2.0547  1.7563
  561MOL0     H75694   8.315  10.856   7.445 -0.0293 -0.4029  1.7350
  561MOL0     H75695   8.720  10.711   7.409 -3.4053 -0.5535 -0.5577
  561MOL0     H75696   8.934  10.773   7.281 -0.6459 -0.5173  2.1122
  561MOL0     H75697   9.028  11.308   6.918 -0.4078  0.7691 -1.9121
  561MOL0     H75698   9.207  11.361   6.769  0.8593  0.4458  2.1387
  561MOL0     H75699   9.452  11.052   6.642 -2.7846 -4.2216 -1.8593
  561MOL0     H75700   9.370  11.063   6.486 -0.7612 -0.3722  1.7989
  561MOL0     H75701   9.611  11.113   6.472 -2.6904 -3.0826  0.4156
  561MOL0     H75702   9.515  11.264   6.426  3.8715 -0.0813 -2.8757
  561MOL0     H75703   9.538  11.345   6.651  2.1620  2.4589 -1.9693
  561MOL0     H75704   9.638  11.213   6.700 -0.4537  0.8527  1.5806
  561MOL0     H75705   9.699  11.422   6.485 -1.1922  0.6289 -0.6634
  561MOL0     H75706   9.802  11.270   6.511 -0.0492 -0.0906  0.0669
  561MOL0     H75707   9.880  11.359   6.710 -1.9988  1.0171  2.1828
  561MOL0     H75708   9.740  11.464   6.733 -0.7314 -2.0878  0.4787
  561MOL0     H75709   9.936  11.514   6.513 -0.1540  0.1058 -0.2771
  561MOL0     H75710   9.828  11.621   6.582 -1.3580 -0.6387  1.8372
  561MOL0     H75711  10.067  11.522   6.765  0.8003  0.5465  3.0654
  561MOL0     H75712   9.915  11.586   6.824 -2.8729  0.1101 -1.9630
  561MOL0     H75713  10.118  11.729   6.629  0.7352  1.2471  0.6083
  561MOL0     H75714   9.956  11.794   6.686 -1.1778 -1.4639 -3.3782
  561MOL0     H75715   9.246  10.943   6.667  0.4432 -2.2517  2.8320
  561MOL0     H75716   9.083  10.883   6.835 -0.5936  0.5680  2.2255
  561MOL0     H75717   8.696  11.054   7.042  0.8858  1.7115  1.1411
  561MOL0     H75718   8.499  10.991   7.176 -0.8227  0.0427  0.0013
  561MOL0     H75719   9.538  10.752   8.759  0.5747 -3.4600  0.0049
  561MOL0     H75720   9.679  10.928   8.867 -1.1902 -0.1232  0.0857
  561MOL0     H75721  10.148  10.925   8.937 -0.5434 -0.1336  1.4881
  561MOL0     H75722  10.341  11.006   9.074 -0.5859 -2.0431 -0.7412
  561MOL0     H75723  10.473  11.366   9.215  0.3916  0.9445 -0.8710
  561MOL0     H75724  10.482  11.425   9.057 -1.0936 -1.2033 -1.8074
  561MOL0     H75725  10.693  11.233   9.145  0.8378 -0.6538 -2.3711
  561MOL0     H75726  10.707  11.389   9.198  1.9171 -1.0090  0.1025
  561MOL0     H75727  10.838  11.359   9.007  0.6338  2.9498 -0.0249
  561MOL0     H75728  10.726  11.498   8.978 -0.4870  0.1477 -3.6766
  561MOL0     H75729  10.647  11.240   8.834 -0.8627  0.9595 -1.9893
  561MOL0     H75730  10.589  11.406   8.846 -0.8996 -0.4162  2.9226
  561MOL0     H75731  10.897  11.463   8.576  0.8573  0.3067  0.4046
  561MOL0     H75732  10.318  11.392   8.913 -0.4079  0.3135  1.2722
  561MOL0     H75733  10.107  11.467   8.801  0.8739  0.5717 -2.7256
  561MOL0     H75734  10.120  11.356   8.669  1.8902  2.4196  0.1772
  561MOL0     H75735   9.969  11.361   8.758 -0.3677  1.2818  0.0181
  562MOL0     O75736   7.796   9.397   8.230 -0.0078  0.1736  1.1093
  562MOL0     C75737   7.749   9.404   8.339 -0.6828  0.2658  0.1187
  562MOL0     O75738   7.816   9.437   8.451 -0.1929 -0.8527  0.0051
  562MOL0     C75739   7.948   9.485   8.441 -0.4258  0.3630  0.9010
  562MOL0     C75740   8.047   9.384   8.435  1.6915  1.1899  0.0514
  562MOL0     C75741   8.175   9.421   8.435  0.7309  0.0859  0.4236
  562MOL0     C75742   8.211   9.556   8.434  0.8784  0.1635  0.5771
  562MOL0     O75743   8.338   9.615   8.420 -0.8026 -0.2614 -1.0826
  562MOL0     C75744   8.449   9.523   8.426 -1.3244 -0.1981 -0.6072
  562MOL0     C75745   8.574   9.581   8.356  0.2957  0.8244 -0.8299
  562MOL0     C75746   8.629   9.704   8.428  0.6829  0.4796  0.1132
  562MOL0     C75747   8.761   9.738   8.385 -1.1022  0.6837  0.1635
  562MOL0     C75748   8.812   9.867   8.466  0.6489  0.2786 -0.1066
  562MOL0     C75749   8.969   9.872   8.439  0.4465  0.1636 -0.2606
  562MOL0     C75750   9.056   9.965   8.529  0.7285  0.1502  0.6229
  562MOL0     C75751   9.190  10.002   8.465  0.4782  0.0490 -0.8660
  562MOL0     N75752   9.267  10.090   8.549  0.2566  0.1597 -0.5980
  562MOL0     C75753   9.387  10.057   8.609 -0.2776 -1.5596  0.8952
  562MOL0     C75754   9.437  10.176   8.642  0.0711 -0.8972 -0.0042
  562MOL0     C75755   9.556  10.184   8.732 -1.0127  0.0069 -0.0631
  562MOL0     C75756   9.596  10.328   8.774  0.6020  0.1301  0.3480
  562MOL0     C75757   9.711  10.318   8.878  0.5720 -0.5253  0.9907
  562MOL0     C75758   9.802  10.436   8.889 -0.1058 -0.6489  0.4964
  562MOL0     O75759   9.923  10.410   8.969  0.0638  0.1173 -0.0109
  562MOL0     C75760   9.987  10.513   9.038  0.5484  0.5181  0.7824
  562MOL0     C75761   9.953  10.651   9.021  0.0919  0.3205 -0.0430
  562MOL0     C75762  10.019  10.739   9.110  1.0751 -0.1334  0.6258
  562MOL0     C75763  10.119  10.694   9.197 -0.3514  0.6563  0.1130
  562MOL0     C75764  10.190  10.792   9.296 -0.8547  1.0364 -0.0497
  562MOL0     O75765  10.121  10.901   9.327 -0.5043 -0.0329 -0.3844
  562MOL0     C75766  10.183  11.003   9.400  0.7006  0.5665  0.1698
  562MOL0     C75767  10.304  11.055   9.357 -0.2321  0.1669 -0.2715
  562MOL0     C75768  10.371  11.152   9.433  0.0036 -0.6414  0.0880
  562MOL0     C75769  10.315  11.193   9.553  0.1692  0.7585  0.4651
  562MOL0     O75770  10.382  11.298   9.608  0.3142 -0.5276  0.2953
  562MOL0     C75771  10.307  11.374   9.713 -0.2740  0.3402 -0.8409
  562MOL0     C75772  10.365  11.515   9.737 -0.5063  0.0641  0.3722
  562MOL0     C75773  10.516  11.534   9.751  0.8295 -0.4558 -0.1629
  562MOL0     C75774  10.544  11.635   9.864  0.2901  0.6665  0.3986
  562MOL0     C75775  10.693  11.681   9.868 -0.2289 -0.2556 -0.8611
  562MOL0     C75776  10.717  11.785   9.978  0.2048 -0.7986 -0.2726
  562MOL0     C75777  10.724  11.717  10.115  0.3040  0.2148 -0.3223
  562MOL0     C75778  10.686  11.808  10.224  0.9890 -1.0092  0.2510
  562MOL0    Cl75779  10.823  11.924  10.278 -0.5107  0.3819  0.6731
  562MOL0     C75780  10.204  11.127   9.605  0.0867  0.2556 -0.6436
  562MOL0     C75781  10.120  11.043   9.518 -0.2653 -0.1930  0.4123
  562MOL0     O75782  10.302  10.761   9.336 -0.0378  0.2619  0.4181
  562MOL0     C75783  10.155  10.560   9.195  0.5777 -0.2572  0.2715
  562MOL0     C75784  10.084  10.464   9.118  0.6871 -0.5940 -0.3590
  562MOL0     N75785   9.335  10.272   8.624  0.2122  0.5113  0.3306
  562MOL0     N75786   9.227  10.217   8.576 -0.7046 -0.1996  1.2837
  562MOL0     C75787   8.113   9.648   8.444  0.5551  0.1997 -0.1191
  562MOL0     C75788   7.973   9.621   8.448  0.7649  0.5596 -1.3154
  562MOL0     C75789   7.602   9.406   8.349  0.0864 -0.2062 -0.2844
  562MOL0     C75790   7.543   9.295   8.294  0.8874 -0.5216  0.3947
  562MOL0     C75791   7.406   9.284   8.275  0.7897  0.6140  0.4308
  562MOL0     C75792   7.328   9.376   8.345  0.4763  0.1409 -0.0816
  562MOL0     O75793   7.192   9.366   8.349 -0.4285  1.0795 -0.1124
  562MOL0     C75794   7.138   9.233   8.356  0.1429  0.3376  0.0330
  562MOL0     C75795   6.999   9.234   8.414  0.0740  0.0387 -0.7641
  562MOL0     C75796   6.940   9.087   8.434  0.7725  1.0120  0.6036
  562MOL0     C75797   6.793   9.080   8.491 -0.2885 -0.4926  0.2354
  562MOL0     C75798   6.691   9.128   8.401  0.1796 -0.1955 -0.6272
  562MOL0     C75799   6.590   9.158   8.336 -0.1517  0.1556  0.2783
  562MOL0     C75800   7.383   9.484   8.398  0.7251 -0.5930 -0.5158
  562MOL0     C75801   7.516   9.510   8.397  0.7632 -0.0507  0.0559
  562MOL0     C75802   7.566   9.645   8.446 -0.0382  0.3185  0.0337
  562MOL0     H75803   8.011   9.284   8.414 -0.5906  1.9843 -0.0976
  562MOL0     H75804   8.252   9.344   8.435 -0.4206 -1.0924 -0.0560
  562MOL0     H75805   8.474   9.502   8.531 -1.8151 -1.4140 -0.7137
  562MOL0     H75806   8.422   9.434   8.368 -2.7431 -0.5046  0.4410
  562MOL0     H75807   8.542   9.604   8.254 -1.4557  0.7542 -0.3411
  562MOL0     H75808   8.649   9.502   8.365 -3.0769 -2.3803  2.4337
  562MOL0     H75809   8.630   9.672   8.533  3.0766 -0.0864 -0.0273
  562MOL0     H75810   8.552   9.779   8.410 -2.6735 -3.4377 -4.1969
  562MOL0     H75811   8.820   9.652   8.417 -2.4739 -0.2199  0.3350
  562MOL0     H75812   8.757   9.761   8.278  1.4462 -0.4429 -0.2730
  562MOL0     H75813   8.771   9.955   8.415 -0.9171 -0.1405  0.3892
  562MOL0     H75814   8.769   9.853   8.566 -0.7625 -5.5699 -1.1483
  562MOL0     H75815   8.994   9.767   8.459 -1.8631 -0.1913  1.1953
  562MOL0     H75816   8.976   9.890   8.332 -0.7321  1.7171 -0.1106
  562MOL0     H75817   9.078   9.910   8.621  1.7932 -0.8828 -0.2136
  562MOL0     H75818   9.003  10.057   8.555  1.3785  0.4064  1.0866
  562MOL0     H75819   9.240   9.907   8.443 -0.1775 -0.0366 -2.0893
  562MOL0     H75820   9.181  10.062   8.373  0.8726  1.1292 -0.2198
  562MOL0     H75821   9.444   9.965   8.618 -1.5027 -2.4101  0.3491
  562MOL0     H75822   9.543  10.117   8.817 -0.3957  0.4512  0.3913
  562MOL0     H75823   9.645  10.148   8.678 -1.7176  1.0397 -2.0113
  562MOL0     H75824   9.624  10.391   8.689 -2.0006  3.9679  2.0358
  562MOL0     H75825   9.507  10.374   8.819 -1.3938 -2.1647 -0.9726
  562MOL0     H75826   9.773  10.231   8.853  0.0567 -0.0695 -2.2095
  562MOL0     H75827   9.661  10.312   8.975 -2.0226  0.2043 -0.2234
  562MOL0     H75828   9.745  10.525   8.917  1.3298  0.9251 -1.3429
  562MOL0     H75829   9.832  10.457   8.786  0.1416  0.0218  0.6998
  562MOL0     H75830   9.896  10.693   8.938  0.8736 -1.2235 -1.4229
  562MOL0     H75831   9.989  10.843   9.106 -0.7594 -0.6625 -0.6514
  562MOL0     H75832  10.350  11.020   9.265 -0.1405  0.9220 -0.5212
  562MOL0     H75833  10.457  11.206   9.396 -2.1643  2.6157 -0.5542
  562MOL0     H75834  10.203  11.386   9.683 -1.5801 -3.5151  1.4849
  562MOL0     H75835  10.315  11.328   9.812 -1.6302  1.9650  0.0958
  562MOL0     H75836  10.342  11.570   9.646 -0.1756  0.1460  0.3388
  562MOL0     H75837  10.310  11.573   9.812  1.1721  2.0352  0.1603
  562MOL0     H75838  10.566  11.439   9.776 -0.3584 -0.7044  1.4214
  562MOL0     H75839  10.570  11.569   9.663  3.9479 -1.1390  1.3114
  562MOL0     H75840  10.509  11.598   9.961 -0.1253  1.0826  0.4076
  562MOL0     H75841  10.488  11.727   9.847 -0.7713 -0.1712 -0.8464
  562MOL0     H75842  10.715  11.727   9.772 -2.4005  4.1449  0.4674
  562MOL0     H75843  10.756  11.594   9.885  0.7834  0.5970 -0.0975
  562MOL0     H75844  10.812  11.838   9.961  0.4894 -1.5036 -0.8924
  562MOL0     H75845  10.638  11.860   9.975  3.5414  3.1428  0.3643
  562MOL0     H75846  10.824  11.679  10.138  1.0403  0.5600 -2.6422
  562MOL0     H75847  10.660  11.629  10.115  2.5126 -1.5586  2.4479
  562MOL0     H75848  10.595  11.858  10.190  0.7137 -0.9510  1.0687
  562MOL0     H75849  10.653  11.744  10.306  1.2833 -0.8497  0.4959
  562MOL0     H75850  10.159  11.145   9.702  4.8291 -0.7808  2.0573
  562MOL0     H75851  10.035  10.994   9.565 -1.4572  0.1023 -1.3563
  562MOL0     H75852  10.232  10.544   9.270 -2.3855  2.2445  4.2876
  562MOL0     H75853  10.084  10.358   9.142  4.3505 -0.3204  1.8156
  562MOL0     H75854   8.139   9.753   8.441 -0.7712  0.6001 -4.5038
  562MOL0     H75855   7.889   9.689   8.446  1.2431  1.1530 -1.4361
  562MOL0     H75856   7.609   9.215   8.262 -0.0871 -1.1069 -0.2191
  562MOL0     H75857   7.355   9.201   8.228 -0.2927  0.0805  2.4567
  562MOL0     H75858   7.194   9.163   8.419 -0.3398 -1.3760 -1.3596
  562MOL0     H75859   7.122   9.180   8.262  0.6741  0.6423 -0.2336
  562MOL0     H75860   6.929   9.278   8.343 -2.8764 -1.8502  0.7623
  562MOL0     H75861   6.995   9.291   8.508 -0.8174 -1.3782  0.1037
  562MOL0     H75862   7.003   9.048   8.514  1.7167 -0.9150 -0.9992
  562MOL0     H75863   6.942   9.034   8.339  3.4791 -0.3389  1.3322
  562MOL0     H75864   6.774   8.976   8.518  0.8206 -0.0886  2.8810
  562MOL0     H75865   6.795   9.125   8.591 -0.6277 -1.4665  0.6925
  562MOL0     H75866   6.498   9.194   8.295  1.1842  2.8204 -0.6489
  562MOL0     H75867   7.320   9.545   8.462 -0.1902 -3.7980  1.8979
  562MOL0     H75868   7.486   9.704   8.491  0.5080  0.2253  1.1549
  562MOL0     H75869   7.621   9.619   8.537 -0.4342  1.9517  0.7587
  562MOL0     H75870   7.615   9.710   8.373 -2.1221 -0.1158 -1.8496
  563MOL0     O75871   1.631   9.403   1.196 -0.4731  0.0322  0.4210
  563MOL0     C75872   1.616   9.318   1.281 -0.1563  0.1660 -0.9306
  563MOL0     O75873   1.669   9.319   1.404 -0.2398  0.0503 -0.2940
  563MOL0     C75874   1.732   9.428   1.455 -0.1111  0.2990 -0.1709
  563MOL0     C75875   1.852   9.483   1.405 -0.4804 -0.6664 -0.2883
  563MOL0     C75876   1.921   9.570   1.488 -0.6953  0.3248 -1.1327
  563MOL0     C75877   1.880   9.614   1.613 -0.4984 -0.0936 -0.6459
  563MOL0     O75878   1.953   9.689   1.697 -0.2698  0.9763  0.1264
  563MOL0     C75879   2.061   9.768   1.642 -0.1334 -0.6407  0.4455
  563MOL0     C75880   2.099   9.887   1.725 -0.2237  0.4903 -0.6113
  563MOL0     C75881   2.194   9.974   1.656 -0.5268 -1.1556 -0.1064
  563MOL0     C75882   2.263  10.072   1.748  0.1635 -0.2728 -0.1283
  563MOL0     C75883   2.365  10.153   1.670 -0.8811 -0.2817  0.3822
  563MOL0     C75884   2.315  10.249   1.564 -0.1820 -0.2820 -0.2012
  563MOL0     C75885   2.431  10.296   1.487 -0.9615  0.6156 -0.4048
  563MOL0     C75886   2.393  10.407   1.387  0.2738 -0.4182  0.2199
  563MOL0     N75887   2.515  10.438   1.306 -0.1404 -0.3218  0.2430
  563MOL0     C75888   2.622  10.522   1.331 -0.1239 -0.1647  0.3206
  563MOL0     C75889   2.694  10.536   1.216 -0.0571 -0.9354  0.5909
  563MOL0     C75890   2.790  10.645   1.182 -0.7744 -0.5051 -0.1732
  563MOL0     C75891   2.933  10.619   1.231  0.0947 -0.4820  0.6114
  563MOL0     C75892   3.037  10.714   1.156  0.2630  0.8592  0.4914
  563MOL0     C75893   3.185  10.699   1.213  0.2811 -0.3312 -0.5482
  563MOL0     O75894   3.168  10.736   1.354  0.2018 -0.2843  0.1128
  563MOL0     C75895   3.249  10.831   1.416 -0.6626  0.3647 -0.2643
  563MOL0     C75896   3.377  10.853   1.366 -0.1579  0.0828  0.3266
  563MOL0     C75897   3.469  10.923   1.445  0.4204 -0.5424  0.1148
  563MOL0     C75898   3.432  10.969   1.575  0.7510 -0.1320 -0.8183
  563MOL0     C75899   3.525  11.045   1.660 -0.1220 -0.3050 -0.8979
  563MOL0     O75900   3.653  11.039   1.612 -0.5567  0.4037  0.6354
  563MOL0     C75901   3.748  11.112   1.675  0.2002 -0.1737  0.2899
  563MOL0     C75902   3.772  11.099   1.811  0.5263  0.0053 -0.2287
  563MOL0     C75903   3.870  11.180   1.873  0.2195 -0.7952  0.0336
  563MOL0     C75904   3.948  11.275   1.797  0.0725  0.8000  0.1804
  563MOL0     O75905   4.037  11.359   1.852  0.5610 -0.1778 -0.8600
  563MOL0     C75906   4.143  11.396   1.772  0.6094  0.2407  0.2539
  563MOL0     C75907   4.266  11.407   1.855  0.4682  0.0040 -0.3874
  563MOL0     C75908   4.384  11.396   1.771 -0.2944  0.0713  0.2105
  563MOL0     C75909   4.402  11.499   1.657 -0.0205  0.0023  0.4317
  563MOL0     C75910   4.482  11.448   1.538 -0.1072  1.2847  0.6565
  563MOL0     C75911   4.633  11.415   1.551 -1.2684  0.7833  0.2306
  563MOL0     C75912   4.699  11.523   1.633 -0.0485  0.2180 -0.0810
  563MOL0     C75913   4.851  11.505   1.637  0.0962  0.5690 -0.4357
  563MOL0    Cl75914   4.894  11.359   1.715 -0.1368  0.0227 -0.4714
  563MOL0     C75915   3.911  11.287   1.660 -0.0575  0.4528  0.5488
  563MOL0     C75916   3.816  11.200   1.594  0.7179  0.2449 -0.5883
  563MOL0     O75917   3.479  11.115   1.755  0.2826 -0.1146 -0.6310
  563MOL0     C75918   3.301  10.938   1.627  0.0435 -0.7361 -0.2081
  563MOL0     C75919   3.211  10.870   1.550  0.0077 -0.1188  0.5742
  563MOL0     N75920   2.639  10.458   1.125 -0.1324 -0.3381  0.9462
  563MOL0     N75921   2.537  10.397   1.180  0.5632  0.3241  1.0412
  563MOL0     C75922   1.752   9.561   1.648 -0.1403 -0.1274 -0.2126
  563MOL0     C75923   1.691   9.471   1.577 -0.0273  0.8199  0.4373
  563MOL0     C75924   1.525   9.212   1.227 -0.0227 -0.5935 -0.2609
  563MOL0     C75925   1.487   9.212   1.086  0.8953 -0.2829 -0.6088
  563MOL0     C75926   1.406   9.110   1.030 -1.1646 -0.0615  0.1330
  563MOL0     C75927   1.368   9.001   1.103 -0.2744 -0.2191 -0.8828
  563MOL0     O75928   1.317   8.882   1.064  0.6583 -0.6828  0.5354
  563MOL0     C75929   1.336   8.850   0.925 -1.4526  0.3804  0.2928
  563MOL0     C75930   1.291   8.702   0.895 -0.2266  0.1176  0.2056
  563MOL0     C75931   1.157   8.666   0.958 -0.6660 -0.0019  0.1782
  563MOL0     C75932   1.056   8.731   0.880 -0.6931 -0.5999  0.2241
  563MOL0     C75933   0.920   8.668   0.897 -0.6956  0.1804 -0.1081
  563MOL0     C75934   0.804   8.622   0.889  0.2272 -0.1412 -0.4156
  563MOL0     C75935   1.391   9.007   1.242 -0.3331  0.1848  0.1204
  563MOL0     C75936   1.470   9.102   1.308 -0.6167 -0.1743  0.2960
  563MOL0     C75937   1.521   9.069   1.450  0.3627 -0.7729 -0.6821
  563MOL0     H75938   1.897   9.437   1.317  1.0582 -0.1616  0.1896
  563MOL0     H75939   2.019   9.596   1.449 -0.7462  1.4111 -0.5697
  563MOL0     H75940   2.145   9.710   1.602 -0.4200  0.3859 -1.8346
  563MOL0     H75941   2.013   9.810   1.553 -0.5804  1.4303  1.5872
  563MOL0     H75942   2.134   9.848   1.822  0.8319 -2.5361 -2.0760
  563MOL0     H75943   2.008   9.944   1.741 -0.0691  0.5879 -0.0323
  563MOL0     H75944   2.149  10.038   1.579  1.1091  2.0928  1.4278
  563MOL0     H75945   2.277   9.916   1.613  1.2863 -0.2387  1.9394
  563MOL0     H75946   2.191  10.135   1.801 -0.9652 -0.7372 -1.0510
  563MOL0     H75947   2.328  10.019   1.819  2.1262  0.2055 -1.4886
  563MOL0     H75948   2.424  10.207   1.744  0.1759 -2.6884  1.3964
  563MOL0     H75949   2.440  10.084   1.628 -0.6820 -2.1152  3.4450
  563MOL0     H75950   2.251  10.207   1.486  2.1090 -2.1121 -1.2150
  563MOL0     H75951   2.257  10.318   1.626 -0.3519 -1.5766  1.1290
  563MOL0     H75952   2.465  10.212   1.426 -0.6310 -0.3309  1.0579
  563MOL0     H75953   2.506  10.331   1.559  0.1240  1.4322 -1.8648
  563MOL0     H75954   2.324  10.371   1.310 -0.3664  1.4867 -0.1651
  563MOL0     H75955   2.365  10.498   1.441 -1.4506  0.3125 -1.7396
  563MOL0     H75956   2.636  10.596   1.409 -3.5422 -0.1730  1.1165
  563MOL0     H75957   2.798  10.647   1.073 -0.4149  3.0195 -0.2032
  563MOL0     H75958   2.739  10.740   1.198 -0.0192 -0.4098  1.9579
  563MOL0     H75959   2.937  10.632   1.340 -1.2601 -3.3077  1.0924
  563MOL0     H75960   2.966  10.519   1.202  2.1195  0.4456 -0.4405
  563MOL0     H75961   3.001  10.817   1.153 -1.4834  0.2721 -2.2288
  563MOL0     H75962   3.045  10.667   1.057  0.5772 -2.7706  2.0694
  563MOL0     H75963   3.234  10.790   1.178  0.1758  2.1959  4.8341
  563MOL0     H75964   3.237  10.605   1.194 -0.0081 -0.2828 -1.6844
  563MOL0     H75965   3.413  10.817   1.270  2.1141  4.1373 -0.5550
  563MOL0     H75966   3.560  10.947   1.392 -0.2099  0.7772 -0.4280
  563MOL0     H75967   3.729  11.020   1.872 -0.3179  1.9271  1.8129
  563MOL0     H75968   3.896  11.160   1.976  0.4078 -1.3033 -0.1074
  563MOL0     H75969   4.160  11.334   1.683  0.0653 -0.0827  0.3676
  563MOL0     H75970   4.128  11.496   1.731  2.6148  0.7211  0.5987
  563MOL0     H75971   4.273  11.506   1.901 -0.2219 -0.5330  0.9288
  563MOL0     H75972   4.267  11.332   1.936  0.6512  0.3006 -0.1134
  563MOL0     H75973   4.479  11.404   1.825  0.2678 -1.0598 -0.5622
  563MOL0     H75974   4.383  11.298   1.721 -0.8980  2.0598 -4.2021
  563MOL0     H75975   4.440  11.590   1.705 -2.0602  0.9653  0.3026
  563MOL0     H75976   4.308  11.528   1.610 -1.1921  2.4892  3.8707
  563MOL0     H75977   4.475  11.514   1.451  1.1429  0.2015 -0.3100
  563MOL0     H75978   4.425  11.358   1.514 -1.9911  2.8555 -1.1411
  563MOL0     H75979   4.654  11.315   1.591 -1.1816  1.7352  2.7190
  563MOL0     H75980   4.669  11.417   1.447  0.4501 -1.3491  0.6943
  563MOL0     H75981   4.667  11.503   1.736 -2.2368  0.1754 -0.7261
  563MOL0     H75982   4.663  11.623   1.606 -1.5999  0.0891  1.3103
  563MOL0     H75983   4.895  11.484   1.539  2.4581 -0.4897  0.7687
  563MOL0     H75984   4.904  11.581   1.695 -0.0594 -1.9583  3.4255
  563MOL0     H75985   3.971  11.350   1.595  1.2097 -1.8953 -0.7339
  563MOL0     H75986   3.800  11.203   1.487  0.2396 -2.3240 -0.6454
  563MOL0     H75987   3.265  10.959   1.727  1.9653 -1.2020  0.6183
  563MOL0     H75988   3.109  10.844   1.579  1.0385  0.0528  4.9054
  563MOL0     H75989   1.700   9.602   1.733 -0.9138 -0.6461 -0.4221
  563MOL0     H75990   1.602   9.416   1.605 -0.4055  0.2816 -1.6253
  563MOL0     H75991   1.516   9.298   1.027 -0.8517  1.6195  1.1177
  563MOL0     H75992   1.397   9.121   0.922 -1.1638 -0.4700  0.0895
  563MOL0     H75993   1.440   8.856   0.891 -0.8585 -1.9267  1.4851
  563MOL0     H75994   1.274   8.924   0.873 -0.2215  0.3771 -1.2703
  563MOL0     H75995   1.362   8.625   0.929  0.0948 -0.3885 -1.5121
  563MOL0     H75996   1.282   8.692   0.787  0.5965 -0.8855  0.2086
  563MOL0     H75997   1.142   8.703   1.059 -2.6340  0.7279 -0.3381
  563MOL0     H75998   1.154   8.557   0.951 -3.2888 -0.1700  2.4303
  563MOL0     H75999   1.048   8.838   0.904  1.8106 -0.8120  2.5935
  563MOL0     H76000   1.071   8.729   0.772 -1.8597 -2.3026  0.0532
  563MOL0     H76001   0.706   8.587   0.863  2.2213 -6.6213 -1.0854
  563MOL0     H76002   1.361   8.920   1.300 -0.8944 -0.3084 -0.8959
  563MOL0     H76003   1.630   9.070   1.454  0.3623  1.5483  1.1940
  563MOL0     H76004   1.479   9.150   1.511 -0.9854  0.4821 -3.1369
  563MOL0     H76005   1.489   8.970   1.484  0.2341  0.0951  1.9358
  564MOL0     O76006   7.614   6.375   2.903  0.8550 -0.6852  0.2904
  564MOL0     C76007   7.596   6.445   2.802 -0.2557 -0.2317 -1.0427
  564MOL0     O76008   7.694   6.502   2.717  0.3238 -0.1846 -0.5666
  564MOL0     C76009   7.819   6.460   2.749 -0.7911 -0.4254 -0.2432
  564MOL0     C76010   7.876   6.334   2.710 -0.3515  0.4591  0.5761
  564MOL0     C76011   8.014   6.332   2.712  0.0170 -0.3384 -0.6766
  564MOL0     C76012   8.096   6.436   2.757 -0.4770  0.2557  0.5301
  564MOL0     O76013   8.233   6.416   2.760 -0.5140  0.3040  0.1841
  564MOL0     C76014   8.309   6.522   2.815  0.2566  0.8999  0.5815
  564MOL0     C76015   8.455   6.497   2.799 -1.0282  0.4419  0.0468
  564MOL0     C76016   8.489   6.368   2.877 -0.4105 -0.4206  0.0999
  564MOL0     C76017   8.643   6.347   2.873 -0.5296 -0.4855 -0.3917
  564MOL0     C76018   8.671   6.199   2.916  0.2422 -0.1922  0.0789
  564MOL0     C76019   8.817   6.146   2.902 -0.5875  0.0630  0.0395
  564MOL0     C76020   8.902   6.205   3.019 -0.0663 -0.3210  0.2534
  564MOL0     C76021   9.044   6.153   3.030  0.4833 -0.5044 -0.4740
  564MOL0     N76022   9.112   6.142   2.902  0.1325 -0.0441 -0.0445
  564MOL0     C76023   9.163   6.254   2.830 -0.2307  0.2757 -0.2221
  564MOL0     C76024   9.214   6.195   2.719 -0.2338 -0.0028 -0.7736
  564MOL0     C76025   9.312   6.259   2.619 -0.5202  0.3014 -0.5104
  564MOL0     C76026   9.250   6.375   2.541  0.1487  1.2312 -0.4494
  564MOL0     C76027   9.267   6.507   2.621 -0.2452  0.4343  0.0085
  564MOL0     C76028   9.407   6.572   2.620  0.7590 -0.2354 -0.0683
  564MOL0     O76029   9.382   6.710   2.654 -0.3234  0.0574 -0.1390
  564MOL0     C76030   9.487   6.795   2.660 -0.1748  0.5014  0.3046
  564MOL0     C76031   9.465   6.930   2.696  0.0843 -0.1514 -0.6839
  564MOL0     C76032   9.566   7.026   2.711  1.0710 -0.3698  1.0171
  564MOL0     C76033   9.699   6.984   2.694  1.1058  0.3529  0.5419
  564MOL0     C76034   9.802   7.081   2.719 -0.1879  0.8501 -0.5349
  564MOL0     O76035   9.764   7.191   2.786 -0.1935 -0.1586 -0.5493
  564MOL0     C76036   9.861   7.284   2.825 -0.0594 -0.6859 -0.3372
  564MOL0     C76037   9.889   7.404   2.760 -0.2495  0.2105  0.0520
  564MOL0     C76038   9.993   7.492   2.807  0.5605 -1.3560  0.2555
  564MOL0     C76039  10.033   7.480   2.940 -0.4769 -0.2456  0.3954
  564MOL0     O76040  10.113   7.576   2.994 -0.3291  0.4130 -1.0342
  564MOL0     C76041  10.049   7.692   3.036 -0.6966 -0.2575 -0.4652
  564MOL0     C76042   9.958   7.674   3.154 -0.1959  0.2067 -0.1160
  564MOL0     C76043   9.817   7.687   3.111  0.7258  0.2844  0.3714
  564MOL0     C76044   9.732   7.699   3.236 -0.2346 -0.2370  0.1742
  564MOL0     C76045   9.578   7.722   3.213 -0.0592  0.1178 -0.0488
  564MOL0     C76046   9.503   7.695   3.348 -0.6249  0.5560 -0.0545
  564MOL0     C76047   9.364   7.739   3.336  0.0177  0.1134  0.3549
  564MOL0     C76048   9.274   7.679   3.452 -0.0368  0.2684  0.8785
  564MOL0    Cl76049   9.109   7.735   3.440  0.5215 -0.1921  0.2414
  564MOL0     C76050  10.009   7.361   3.011 -0.3958  0.6352  0.1215
  564MOL0     C76051   9.928   7.265   2.949 -0.6815 -0.7519 -0.7703
  564MOL0     O76052   9.910   7.056   2.665 -0.3057 -0.3407  0.1189
  564MOL0     C76053   9.728   6.849   2.648 -0.7030 -0.0280 -0.5793
  564MOL0     C76054   9.627   6.763   2.634  0.5505  0.5120 -1.1506
  564MOL0     N76055   9.188   6.055   2.716  0.7449  0.5933 -0.1814
  564MOL0     N76056   9.130   6.025   2.827  0.7908 -0.4998  0.1847
  564MOL0     C76057   8.036   6.556   2.789  0.2104 -0.5238 -0.8469
  564MOL0     C76058   7.898   6.566   2.794  0.0873 -0.2011 -0.1110
  564MOL0     C76059   7.452   6.468   2.761 -0.1773  0.3601  0.0426
  564MOL0     C76060   7.439   6.570   2.662 -0.1650 -0.4833  0.6903
  564MOL0     C76061   7.309   6.615   2.618 -0.2061 -0.4330  0.0682
  564MOL0     C76062   7.200   6.560   2.664  0.0063  0.7194 -0.4198
  564MOL0     O76063   7.087   6.611   2.617  0.1304 -0.4913  0.0072
  564MOL0     C76064   6.972   6.529   2.622 -0.1615  0.2676 -0.7709
  564MOL0     C76065   6.854   6.609   2.559 -0.1257  0.1639 -0.2283
  564MOL0     C76066   6.875   6.641   2.408 -0.4661 -0.3602  1.1195
  564MOL0     C76067   6.837   6.528   2.319  0.9343  0.8525 -0.1183
  564MOL0     C76068   6.923   6.416   2.323  0.2981 -0.0295  0.3137
  564MOL0     C76069   6.996   6.327   2.331 -0.7632 -0.0926 -0.8795
  564MOL0     C76070   7.213   6.446   2.741 -0.3737  0.4450 -1.1167
  564MOL0     C76071   7.331   6.395   2.795 -0.5109 -1.3639 -0.2638
  564MOL0     C76072   7.335   6.285   2.893  0.0932 -0.2197 -0.5066
  564MOL0     H76073   7.811   6.255   2.674  1.5567 -1.3926  0.9543
  564MOL0     H76074   8.074   6.246   2.683 -1.4677 -2.0924  1.1699
  564MOL0     H76075   8.281   6.610   2.757 -1.2442  0.3669  0.4448
  564MOL0     H76076   8.291   6.531   2.923 -2.1126 -1.7538  0.5495
  564MOL0     H76077   8.501   6.580   2.854 -1.9747 -1.4939  4.1766
  564MOL0     H76078   8.496   6.483   2.699  2.8344 -2.1227  1.7424
  564MOL0     H76079   8.442   6.280   2.834 -1.8702  0.5674 -0.4169
  564MOL0     H76080   8.447   6.393   2.975 -2.1833  0.9705 -0.9322
  564MOL0     H76081   8.680   6.365   2.772 -1.1157  1.0923 -0.3500
  564MOL0     H76082   8.688   6.425   2.935  1.3396  0.3523 -2.6690
  564MOL0     H76083   8.645   6.179   3.020 -0.1560  1.5008  0.3319
  564MOL0     H76084   8.607   6.142   2.848  0.2234 -1.3158  1.0058
  564MOL0     H76085   8.815   6.038   2.884 -0.8801  0.4543 -2.7545
  564MOL0     H76086   8.849   6.185   2.805 -0.2032  0.3507  0.2825
  564MOL0     H76087   8.858   6.196   3.118  1.0015  1.7055  0.9584
  564MOL0     H76088   8.916   6.312   3.001 -1.2955 -0.0243  0.9683
  564MOL0     H76089   9.104   6.232   3.076  4.0354 -3.8821  1.3392
  564MOL0     H76090   9.052   6.064   3.093 -1.1026 -1.2231 -1.2248
  564MOL0     H76091   9.164   6.357   2.864 -2.4297  0.7418 -1.3818
  564MOL0     H76092   9.404   6.291   2.669  0.4378 -2.3843 -0.3894
  564MOL0     H76093   9.345   6.188   2.542 -1.4764 -1.2527  0.4720
  564MOL0     H76094   9.305   6.376   2.446 -2.1171 -0.7287 -1.8979
  564MOL0     H76095   9.147   6.344   2.520 -0.7484 -0.0078  4.4661
  564MOL0     H76096   9.236   6.498   2.725  0.8572  2.0238  0.5096
  564MOL0     H76097   9.200   6.576   2.570  1.3186 -0.4582 -3.5697
  564MOL0     H76098   9.458   6.569   2.524  0.0131 -0.3600 -0.4702
  564MOL0     H76099   9.476   6.524   2.690 -2.1279 -2.6531  1.3451
  564MOL0     H76100   9.360   6.950   2.716 -0.6609 -1.7645 -2.6387
  564MOL0     H76101   9.552   7.133   2.725  0.2597 -0.0081 -1.8437
  564MOL0     H76102   9.832   7.447   2.678  0.8825  3.0180  0.6213
  564MOL0     H76103  10.024   7.577   2.747  0.9510 -2.3077 -0.9280
  564MOL0     H76104  10.119   7.774   3.053  0.6672 -0.7582 -3.1705
  564MOL0     H76105   9.992   7.731   2.951 -0.0578  0.8275 -0.4114
  564MOL0     H76106   9.989   7.574   3.185  0.7690  0.8488  1.0692
  564MOL0     H76107   9.986   7.753   3.224 -1.6560  0.8761 -0.2502
  564MOL0     H76108   9.800   7.771   3.044  0.8292 -2.0600 -2.8331
  564MOL0     H76109   9.810   7.600   3.046  0.8174  1.3801 -1.1513
  564MOL0     H76110   9.766   7.779   3.302 -4.1554  1.5301  0.2991
  564MOL0     H76111   9.748   7.608   3.295  4.2729  0.0017 -0.3140
  564MOL0     H76112   9.551   7.655   3.132  0.8837  2.4324 -2.4227
  564MOL0     H76113   9.554   7.823   3.178 -1.2155 -1.1453 -3.1804
  564MOL0     H76114   9.511   7.589   3.372  1.5299 -0.1060 -3.0669
  564MOL0     H76115   9.560   7.754   3.421 -0.2193  1.2869 -0.9393
  564MOL0     H76116   9.324   7.695   3.244 -0.5160  0.2184  0.5343
  564MOL0     H76117   9.364   7.848   3.325 -1.2029 -0.1048 -2.9309
  564MOL0     H76118   9.268   7.569   3.452  1.7854  0.1411  0.1827
  564MOL0     H76119   9.310   7.710   3.551  1.2474  0.7162  0.2904
  564MOL0     H76120  10.056   7.362   3.109  1.7566 -0.0279 -0.8269
  564MOL0     H76121   9.908   7.173   3.003 -0.9356 -0.1242  0.2265
  564MOL0     H76122   9.835   6.829   2.640  0.1491  3.0891  1.1947
  564MOL0     H76123   9.653   6.661   2.608 -2.1171 -0.8495  1.0329
  564MOL0     H76124   8.084   6.644   2.832 -0.2263 -0.9317  0.5546
  564MOL0     H76125   7.852   6.658   2.829  1.1995  1.0053 -1.6885
  564MOL0     H76126   7.517   6.630   2.617 -2.9344  1.3039 -2.0629
  564MOL0     H76127   7.300   6.701   2.552 -0.5200  2.0406  3.0826
  564MOL0     H76128   6.950   6.508   2.727  0.6954 -0.3857 -0.7132
  564MOL0     H76129   6.983   6.433   2.571 -0.4360  0.6085 -1.4970
  564MOL0     H76130   6.846   6.704   2.613  2.4051  1.0523 -1.2396
  564MOL0     H76131   6.760   6.555   2.567  0.0276 -0.1260 -0.3516
  564MOL0     H76132   6.980   6.664   2.387 -0.8558 -0.6959 -1.5484
  564MOL0     H76133   6.820   6.735   2.396  3.5483  1.9829 -1.1017
  564MOL0     H76134   6.736   6.499   2.348  0.5230  0.4099 -1.8689
  564MOL0     H76135   6.836   6.563   2.215  2.4868 -0.3101 -0.5596
  564MOL0     H76136   7.060   6.241   2.337 -1.5862 -0.6688 -0.0727
  564MOL0     H76137   7.119   6.402   2.775  0.0422  0.1541 -0.3191
  564MOL0     H76138   7.234   6.256   2.925 -0.2418  1.8257  0.4606
  564MOL0     H76139   7.398   6.201   2.864 -1.6541 -2.1347  0.9125
  564MOL0     H76140   7.382   6.322   2.984  0.1842 -2.3799  0.3821
  565MOL0     O76141   6.335   5.225   7.093 -0.0967 -0.8891  0.1015
  565MOL0     C76142   6.236   5.243   7.156  0.0518 -0.2954  0.3994
  565MOL0     O76143   6.235   5.282   7.287  0.6270 -0.0835 -0.3961
  565MOL0     C76144   6.345   5.311   7.371  0.0125  0.3827  0.1390
  565MOL0     C76145   6.477   5.272   7.347 -0.2626  0.4159 -0.3534
  565MOL0     C76146   6.577   5.315   7.431  0.1712  0.5080  0.0991
  565MOL0     C76147   6.546   5.387   7.548  0.8676  0.4871  0.3365
  565MOL0     O76148   6.644   5.420   7.630 -0.1253  0.8612 -0.3847
  565MOL0     C76149   6.623   5.395   7.769 -0.0392 -0.6195  0.5715
  565MOL0     C76150   6.745   5.403   7.853 -0.4276 -0.2934 -0.2981
  565MOL0     C76151   6.825   5.538   7.874  0.7882  0.6781  0.8631
  565MOL0     C76152   6.745   5.640   7.951 -0.4103 -0.7875 -0.6146
  565MOL0     C76153   6.842   5.728   8.033 -0.1922  0.4119  0.4973
  565MOL0     C76154   6.920   5.813   7.935  0.0916 -0.4310  0.4999
  565MOL0     C76155   6.986   5.925   8.021 -0.0367  1.4560 -0.5140
  565MOL0     C76156   7.073   6.015   7.940  0.7408 -0.2951  0.4927
  565MOL0     N76157   7.178   6.088   8.017  0.6391  0.1106 -1.4524
  565MOL0     C76158   7.316   6.069   8.000 -0.1247 -0.4149  0.1434
  565MOL0     C76159   7.376   6.149   8.084  0.2891  0.3718  0.1979
  565MOL0     C76160   7.521   6.144   8.128 -0.0636  0.2061  0.5799
  565MOL0     C76161   7.589   6.259   8.061 -0.3274  0.7292  0.0844
  565MOL0     C76162   7.734   6.283   8.109 -0.4263  0.0400 -0.2211
  565MOL0     C76163   7.743   6.335   8.252  0.0226  0.9164 -0.1823
  565MOL0     O76164   7.730   6.229   8.351 -0.0588  0.4150 -0.4650
  565MOL0     C76165   7.833   6.136   8.379 -0.1140  0.2613  0.3681
  565MOL0     C76166   7.806   6.022   8.460 -0.3745 -0.5177  1.2717
  565MOL0     C76167   7.907   5.916   8.471 -0.0938 -0.6215 -0.0797
  565MOL0     C76168   8.033   5.926   8.404  0.1236 -0.0639 -0.0635
  565MOL0     C76169   8.143   5.833   8.426  0.2032 -0.4499  0.2123
  565MOL0     O76170   8.259   5.852   8.358 -0.0963  0.2224  0.6645
  565MOL0     C76171   8.367   5.776   8.406 -0.4345 -1.1240  0.0581
  565MOL0     C76172   8.407   5.750   8.537  0.3419 -0.9088  0.1697
  565MOL0     C76173   8.523   5.674   8.564  0.2465 -0.0668 -0.0360
  565MOL0     C76174   8.590   5.603   8.458  1.2615  0.3258 -0.1432
  565MOL0     O76175   8.691   5.517   8.493 -0.3099 -0.0872  0.1001
  565MOL0     C76176   8.781   5.454   8.392  1.4275 -0.4789 -0.2723
  565MOL0     C76177   8.901   5.396   8.460 -0.0894 -0.2595  0.5415
  565MOL0     C76178   8.883   5.277   8.559  0.1159  0.4164  1.1222
  565MOL0     C76179   9.022   5.225   8.591  0.4891 -0.1939  0.0585
  565MOL0     C76180   9.022   5.166   8.732  0.5398  0.1745 -0.1204
  565MOL0     C76181   9.158   5.088   8.759 -0.5340  0.0408  0.3233
  565MOL0     C76182   9.182   4.948   8.692  0.2669 -0.3329 -0.2286
  565MOL0     C76183   9.072   4.844   8.713  0.5452 -0.4482 -0.3984
  565MOL0    Cl76184   8.985   4.836   8.873 -0.2196 -0.1019  0.5056
  565MOL0     C76185   8.551   5.638   8.329  0.4818 -0.1903 -0.3741
  565MOL0     C76186   8.450   5.725   8.307 -1.2899  0.4420  0.1086
  565MOL0     O76187   8.121   5.739   8.501  0.0333 -0.2728 -0.7750
  565MOL0     C76188   8.057   6.039   8.322 -0.5083 -0.2775  0.6256
  565MOL0     C76189   7.963   6.148   8.316  1.1084 -0.8002  0.3773
  565MOL0     N76190   7.268   6.222   8.137 -0.0956  0.5701 -0.4221
  565MOL0     N76191   7.146   6.188   8.101  0.3534 -0.4041 -0.6239
  565MOL0     C76192   6.409   5.417   7.577 -0.8962 -0.7025  0.2209
  565MOL0     C76193   6.310   5.391   7.487 -0.0834  0.5470  0.3686
  565MOL0     C76194   6.107   5.239   7.074 -0.0007  0.7368 -0.0884
  565MOL0     C76195   6.002   5.323   7.111  0.4072 -0.6081 -0.0581
  565MOL0     C76196   5.893   5.348   7.034  0.2463  0.2148  0.1588
  565MOL0     C76197   5.864   5.278   6.919  0.0194 -0.2540  0.3114
  565MOL0     O76198   5.746   5.277   6.859 -0.3478 -0.5199  0.0103
  565MOL0     C76199   5.690   5.407   6.822  0.4443  0.5038  0.0250
  565MOL0     C76200   5.560   5.375   6.742  0.7650 -0.4846  0.1875
  565MOL0     C76201   5.450   5.324   6.834 -1.2210 -0.3226  0.1746
  565MOL0     C76202   5.377   5.446   6.898 -1.0420 -0.6183  0.3854
  565MOL0     C76203   5.279   5.391   6.985 -0.1896  0.4552  0.0689
  565MOL0     C76204   5.199   5.328   7.055  0.0916  0.4571  0.4647
  565MOL0     C76205   5.968   5.188   6.881  1.0800 -0.3992 -0.4990
  565MOL0     C76206   6.080   5.169   6.957  0.2838 -1.0348  0.4857
  565MOL0     C76207   6.175   5.071   6.906  0.7404  0.5653 -0.5680
  565MOL0     H76208   6.519   5.218   7.263 -0.0584  0.2936 -0.1746
  565MOL0     H76209   6.681   5.289   7.419 -0.2199 -1.7928  1.0977
  565MOL0     H76210   6.544   5.463   7.799  1.0011  0.7827  0.2259
  565MOL0     H76211   6.582   5.294   7.775 -0.0692 -0.5651  1.4306
  565MOL0     H76212   6.815   5.327   7.816  2.0412  1.0933  1.2582
  565MOL0     H76213   6.720   5.382   7.957 -1.0175  5.5840  1.0899
  565MOL0     H76214   6.859   5.579   7.778  1.5844 -0.9964  0.4054
  565MOL0     H76215   6.920   5.513   7.922  0.8125  0.1493  0.5497
  565MOL0     H76216   6.688   5.697   7.877 -2.2300  0.6517  1.7533
  565MOL0     H76217   6.676   5.595   8.023  1.6709 -3.0239  0.1460
  565MOL0     H76218   6.781   5.790   8.100  1.1580 -0.6492  2.8224
  565MOL0     H76219   6.911   5.662   8.087  0.5451  0.1258 -0.7529
  565MOL0     H76220   7.001   5.766   7.878 -1.2674 -2.0687 -0.1812
  565MOL0     H76221   6.861   5.862   7.857 -0.5081 -0.7363  0.7596
  565MOL0     H76222   7.059   5.875   8.085  1.4950  0.9202 -2.6027
  565MOL0     H76223   6.908   5.973   8.082 -0.9939 -2.3870  1.6374
  565MOL0     H76224   7.115   5.954   7.860 -0.6359 -0.3246 -0.2374
  565MOL0     H76225   7.012   6.091   7.889  0.1376 -1.9974 -1.4707
  565MOL0     H76226   7.369   6.001   7.933  2.7392 -0.1165  1.9303
  565MOL0     H76227   7.516   6.168   8.235 -2.6228 -2.4399  1.2104
  565MOL0     H76228   7.572   6.053   8.096  0.6547  1.6654 -2.8759
  565MOL0     H76229   7.593   6.236   7.954  3.1748 -0.3259  0.3402
  565MOL0     H76230   7.533   6.349   8.089 -1.4473 -0.2452  1.0998
  565MOL0     H76231   7.787   6.353   8.044 -1.4486 -1.0948 -2.3901
  565MOL0     H76232   7.798   6.200   8.079  3.4828  2.5239  0.5582
  565MOL0     H76233   7.652   6.395   8.266  0.3926  1.3754  0.2791
  565MOL0     H76234   7.830   6.401   8.251  0.9261 -0.1889  1.3286
  565MOL0     H76235   7.708   6.017   8.507 -1.7078  0.3301 -1.2511
  565MOL0     H76236   7.883   5.820   8.515 -0.3100 -0.8125 -0.5985
  565MOL0     H76237   8.347   5.796   8.616  0.4189 -1.0530  0.3124
  565MOL0     H76238   8.554   5.663   8.668  0.1549  0.4678  0.0473
  565MOL0     H76239   8.732   5.366   8.349  0.0756 -1.5980  3.1986
  565MOL0     H76240   8.808   5.533   8.322 -1.9198  1.2421  0.2173
  565MOL0     H76241   8.973   5.366   8.383  0.2808  0.7161  0.4991
  565MOL0     H76242   8.948   5.474   8.520  1.4317 -1.4406  0.9637
  565MOL0     H76243   8.828   5.312   8.648  0.3006 -0.3223  1.5331
  565MOL0     H76244   8.837   5.191   8.510  1.4728  0.1368  0.3055
  565MOL0     H76245   9.090   5.311   8.590  1.4032 -0.8075 -3.4848
  565MOL0     H76246   9.063   5.159   8.515  0.0876 -0.1875 -0.1673
  565MOL0     H76247   8.939   5.097   8.749  0.2048 -0.4186 -3.3864
  565MOL0     H76248   9.013   5.252   8.798  0.1945 -1.0435  1.4702
  565MOL0     H76249   9.229   5.158   8.713 -0.6996  1.3948  2.0029
  565MOL0     H76250   9.171   5.078   8.867  1.3898 -2.2476 -0.0441
  565MOL0     H76251   9.273   4.905   8.735  1.4023 -0.1860 -2.3746
  565MOL0     H76252   9.206   4.957   8.586  1.3061  0.3278  0.0463
  565MOL0     H76253   8.994   4.879   8.645 -0.6563  0.1841  1.2162
  565MOL0     H76254   9.119   4.746   8.705 -0.7507 -1.1327 -0.0548
  565MOL0     H76255   8.612   5.616   8.242 -2.1280  0.1673 -2.4164
  565MOL0     H76256   8.425   5.761   8.208  0.7983  2.4634  0.2425
  565MOL0     H76257   8.152   6.033   8.270  0.8249  1.2894  2.7399
  565MOL0     H76258   7.991   6.234   8.256 -1.8855 -1.9678 -3.1019
  565MOL0     H76259   6.391   5.491   7.655 -1.2360  0.1389 -0.6244
  565MOL0     H76260   6.205   5.419   7.494  0.0779  1.0969  0.6572
  565MOL0     H76261   6.012   5.376   7.205 -1.4552  1.0210 -0.6964
  565MOL0     H76262   5.823   5.424   7.068 -0.7706 -0.4341 -0.4197
  565MOL0     H76263   5.766   5.461   6.764 -0.3065  0.5893 -0.8977
  565MOL0     H76264   5.659   5.473   6.903 -1.0403  0.7382 -0.7132
  565MOL0     H76265   5.577   5.314   6.653 -0.7468 -0.0543 -0.4238
  565MOL0     H76266   5.523   5.471   6.704 -0.8232 -0.2858  2.0160
  565MOL0     H76267   5.478   5.245   6.904  0.6363  0.0596 -0.0822
  565MOL0     H76268   5.383   5.269   6.768  1.0847 -1.7712 -1.0714
  565MOL0     H76269   5.450   5.502   6.958 -1.6249  0.0524  0.4836
  565MOL0     H76270   5.321   5.513   6.833 -2.0819  0.3404  2.1850
  565MOL0     H76271   5.119   5.278   7.105 -2.1774  3.8640  0.5721
  565MOL0     H76272   5.951   5.142   6.784 -0.3883 -0.0221 -0.4501
  565MOL0     H76273   6.123   4.989   6.855 -1.1174  0.8111  0.8359
  565MOL0     H76274   6.226   5.116   6.820 -2.9761 -1.4487 -4.2173
  565MOL0     H76275   6.248   5.027   6.975 -1.6405 -0.3774  1.4697
  566MOL0     O76276  10.890   9.515   8.115  0.3392 -0.1904  0.6721
  566MOL0     C76277  10.978   9.584   8.155 -0.2545  0.4107 -0.7032
  566MOL0     O76278  10.952   9.709   8.194 -0.3851  0.1869 -0.2150
  566MOL0     C76279  10.831   9.776   8.190  0.3480  0.9113 -0.0368
  566MOL0     C76280  10.802   9.867   8.295  0.3182 -0.6372  0.1340
  566MOL0     C76281  10.690   9.947   8.283 -0.4604  0.3727 -0.8205
  566MOL0     C76282  10.599   9.924   8.181 -0.1351  0.2971 -0.0595
  566MOL0     O76283  10.477   9.988   8.168 -0.1661  0.5102  0.5508
  566MOL0     C76284  10.452  10.101   8.252 -0.7007  0.2413 -0.5141
  566MOL0     C76285  10.394  10.044   8.384  0.3454  0.1278  0.1749
  566MOL0     C76286  10.273  10.116   8.431  1.1196 -0.8806 -0.5796
  566MOL0     C76287  10.293  10.247   8.513 -0.3250  0.2174  0.8749
  566MOL0     C76288  10.342  10.232   8.661 -0.7359 -0.4991 -0.1740
  566MOL0     C76289  10.230  10.191   8.749  0.6872  0.3608 -0.6919
  566MOL0     C76290  10.275  10.167   8.895 -0.0589  0.6195  0.4413
  566MOL0     C76291  10.412  10.206   8.946 -0.3598  0.1011  0.0876
  566MOL0     N76292  10.406  10.193   9.096  0.0884 -0.7181  1.0010
  566MOL0     C76293  10.454  10.095   9.175  0.2924 -0.3718  0.6163
  566MOL0     C76294  10.445  10.148   9.303  0.2774  0.8447 -0.1330
  566MOL0     C76295  10.482  10.066   9.420 -1.2541  0.2429 -0.3079
  566MOL0     C76296  10.605  10.129   9.482 -0.3541  0.4023 -0.0112
  566MOL0     C76297  10.661  10.059   9.609 -0.6870  0.6965  0.1670
  566MOL0     C76298  10.770  10.136   9.669 -0.6080  0.2038 -0.8194
  566MOL0     O76299  10.878  10.140   9.566  0.0167 -0.6850 -0.6194
  566MOL0     C76300  11.000  10.197   9.602  0.0996 -0.2294  0.5439
  566MOL0     C76301  11.120  10.175   9.529  0.2709 -0.1608 -0.5113
  566MOL0     C76302  11.233  10.244   9.559 -0.5411 -0.8526  1.1148
  566MOL0     C76303  11.237  10.349   9.653  0.7117 -0.3442 -0.0046
  566MOL0     C76304  11.368  10.419   9.692  0.3938 -1.1359 -0.3246
  566MOL0     O76305  11.482  10.359   9.654  0.9096 -0.0766 -0.0009
  566MOL0     C76306  11.603  10.426   9.634 -0.4277 -0.3377 -0.0957
  566MOL0     C76307  11.713  10.351   9.668  0.8096  0.3740  0.1977
  566MOL0     C76308  11.839  10.411   9.642  0.8841 -0.5800  0.1714
  566MOL0     C76309  11.853  10.546   9.604 -0.3225 -0.2026 -1.1961
  566MOL0     O76310  11.965  10.623   9.619 -0.5616 -0.2233  0.1154
  566MOL0     C76311  12.094  10.558   9.599  0.7121  0.4283  0.0326
  566MOL0     C76312  12.180  10.639   9.502  0.1154  0.0794 -0.2520
  566MOL0     C76313  12.328  10.612   9.520 -0.0197  0.7049  0.4142
  566MOL0     C76314  12.413  10.656   9.390  0.0010  0.3805  0.2785
  566MOL0     C76315  12.408  10.800   9.352  0.0780 -0.4412 -0.0144
  566MOL0     C76316  12.416  10.908   9.464  0.1533  0.1000 -1.0616
  566MOL0     C76317  12.539  10.890   9.560 -1.3800 -0.1142 -0.1190
  566MOL0     C76318  12.522  10.979   9.689  0.6533 -0.3159 -0.1937
  566MOL0    Cl76319  12.377  10.922   9.785  0.0065 -0.1246  0.5015
  566MOL0     C76320  11.740  10.618   9.567  0.0025  0.1426  0.5763
  566MOL0     C76321  11.613  10.558   9.578  0.0213 -0.8838 -0.3560
  566MOL0     O76322  11.364  10.536   9.739  0.6503 -0.3430 -0.6843
  566MOL0     C76323  11.120  10.381   9.727 -0.6084  0.1781 -0.2375
  566MOL0     C76324  11.004  10.301   9.696  0.0155 -1.4797  0.0297
  566MOL0     N76325  10.405  10.281   9.298  0.3031 -0.4922  0.1122
  566MOL0     N76326  10.379  10.304   9.174 -0.7624 -0.0129  0.1427
  566MOL0     C76327  10.622   9.824   8.089  0.3195  0.0822  0.3736
  566MOL0     C76328  10.735   9.750   8.090 -0.5216 -1.0854  0.1532
  566MOL0     C76329  11.118   9.531   8.139 -0.1903  0.3540  0.1112
  566MOL0     C76330  11.219   9.624   8.147 -0.5822 -0.8318 -0.5919
  566MOL0     C76331  11.351   9.596   8.140 -0.1610  0.3383  0.1748
  566MOL0     C76332  11.388   9.460   8.131 -0.4403  1.2670  0.5959
  566MOL0     O76333  11.521   9.412   8.129  0.4437 -0.1037  0.4924
  566MOL0     C76334  11.611   9.484   8.038 -0.3712 -0.8430  0.1858
  566MOL0     C76335  11.664   9.383   7.928 -0.2876 -0.5304  0.5843
  566MOL0     C76336  11.777   9.441   7.836 -0.6150  0.6217  0.3725
  566MOL0     C76337  11.822   9.339   7.734  0.3127  0.5898  0.2756
  566MOL0     C76338  11.712   9.305   7.632  0.0673  0.3466  0.4908
  566MOL0     C76339  11.641   9.283   7.538  0.0310  0.1102 -0.5664
  566MOL0     C76340  11.293   9.366   8.128  0.5096 -0.4923  1.0566
  566MOL0     C76341  11.155   9.401   8.122 -0.7222 -0.3545 -0.2997
  566MOL0     C76342  11.053   9.286   8.126  0.4572 -0.1890 -0.5224
  566MOL0     H76343  10.865   9.886   8.382 -0.4719  1.9119  0.2254
  566MOL0     H76344  10.672  10.023   8.358  2.2170 -1.3364  1.7813
  566MOL0     H76345  10.542  10.161   8.271 -1.0531  0.8007 -0.5723
  566MOL0     H76346  10.382  10.177   8.215  0.3335  2.5809  2.0168
  566MOL0     H76347  10.478  10.056   8.454  1.1932 -1.3012 -0.5391
  566MOL0     H76348  10.370   9.938   8.381  0.2328  0.1236  0.9467
  566MOL0     H76349  10.207  10.054   8.492 -3.0497  2.3322 -1.3231
  566MOL0     H76350  10.204  10.137   8.349 -0.9112 -1.5421  0.8731
  566MOL0     H76351  10.371  10.295   8.454 -1.2439  1.1008  0.3445
  566MOL0     H76352  10.211  10.320   8.508  1.9296  2.7981 -1.3746
  566MOL0     H76353  10.429  10.167   8.677  1.2214  1.4629 -2.1353
  566MOL0     H76354  10.368  10.333   8.692  0.6558 -0.1124 -2.3746
  566MOL0     H76355  10.156  10.271   8.738  0.2253  0.1426  0.7419
  566MOL0     H76356  10.195  10.093   8.716 -0.6316  0.2363  0.9701
  566MOL0     H76357  10.282  10.059   8.908  2.6239  0.6718 -0.1269
  566MOL0     H76358  10.198  10.214   8.958  0.3283 -0.0118  1.3880
  566MOL0     H76359  10.492  10.141   8.910 -0.7092 -1.2608  1.6696
  566MOL0     H76360  10.431  10.306   8.906  0.4961 -0.5819 -1.2828
  566MOL0     H76361  10.497  10.002   9.138  1.8096  0.6835 -0.3614
  566MOL0     H76362  10.406  10.060   9.499  1.1646 -0.0417  2.1338
  566MOL0     H76363  10.509   9.965   9.389 -0.4129 -0.2576  1.8677
  566MOL0     H76364  10.680  10.134   9.403 -1.4127  2.4223 -0.9667
  566MOL0     H76365  10.583  10.230   9.517 -1.8701  0.1263 -0.0958
  566MOL0     H76366  10.686   9.956   9.581  0.6618  0.8037  0.8941
  566MOL0     H76367  10.588  10.052   9.691  0.0737  1.3200  0.9154
  566MOL0     H76368  10.791  10.081   9.762 -0.9661 -0.1681 -0.9570
  566MOL0     H76369  10.734  10.238   9.687  0.0511  0.4924 -1.1028
  566MOL0     H76370  11.123  10.100   9.450 -0.9711 -1.8190  0.9307
  566MOL0     H76371  11.319  10.219   9.497 -1.4647 -0.1935 -0.4835
  566MOL0     H76372  11.718  10.250   9.708  1.2412 -0.2240 -1.2620
  566MOL0     H76373  11.930  10.360   9.672  1.7271  0.9429  0.2734
  566MOL0     H76374  12.146  10.550   9.695 -2.3959 -2.4795  1.6915
  566MOL0     H76375  12.084  10.452   9.573  4.2909 -0.7780  2.6567
  566MOL0     H76376  12.147  10.624   9.399  4.5899 -2.0483 -1.6751
  566MOL0     H76377  12.169  10.746   9.519 -1.5580 -0.0708 -0.2071
  566MOL0     H76378  12.353  10.673   9.607 -2.0432 -0.3748  1.8511
  566MOL0     H76379  12.347  10.505   9.537 -2.5077  0.4746  2.5661
  566MOL0     H76380  12.371  10.603   9.304  1.2390  4.1463 -2.9753
  566MOL0     H76381  12.517  10.626   9.406 -0.9887 -4.1786 -0.3774
  566MOL0     H76382  12.309  10.823   9.310  0.4128  3.9127  1.0629
  566MOL0     H76383  12.483  10.814   9.274 -1.4634 -1.0505 -1.6783
  566MOL0     H76384  12.432  10.998   9.404  2.4510  1.6644  1.6566
  566MOL0     H76385  12.324  10.908   9.522  0.8568 -3.1871  0.3270
  566MOL0     H76386  12.632  10.922   9.513 -0.5972 -2.9449 -0.7085
  566MOL0     H76387  12.543  10.785   9.593 -1.5655  0.5144  2.0453
  566MOL0     H76388  12.619  10.976   9.739  1.3317  3.0420 -1.0085
  566MOL0     H76389  12.504  11.087   9.680 -1.8944 -0.5931  0.6990
  566MOL0     H76390  11.747  10.719   9.527 -1.2234 -0.8360 -2.3981
  566MOL0     H76391  11.525  10.617   9.555  1.1169  2.2857  2.5412
  566MOL0     H76392  11.123  10.464   9.796  2.4727  2.0648 -2.3495
  566MOL0     H76393  10.911  10.322   9.748 -0.9629 -2.5212 -1.2102
  566MOL0     H76394  10.554   9.814   8.005  1.7979 -1.0088 -0.7420
  566MOL0     H76395  10.755   9.673   8.015  0.1146 -0.4178 -0.3737
  566MOL0     H76396  11.205   9.732   8.153  0.9777 -0.5923 -0.9101
  566MOL0     H76397  11.421   9.678   8.142  0.0335  0.2459 -1.2647
  566MOL0     H76398  11.695   9.527   8.095 -0.2548 -0.0893 -0.5355
  566MOL0     H76399  11.562   9.569   7.990  0.8473  0.7639  1.6385
  566MOL0     H76400  11.577   9.348   7.871  2.0653 -1.6716 -2.5828
  566MOL0     H76401  11.708   9.301   7.986 -0.8477  0.1040  1.9543
  566MOL0     H76402  11.863   9.469   7.898 -3.2020  2.9584  3.2146
  566MOL0     H76403  11.731   9.532   7.796 -0.0509  1.5158  1.6511
  566MOL0     H76404  11.914   9.372   7.686 -1.0237  1.5892 -1.7662
  566MOL0     H76405  11.845   9.246   7.786  3.9155  2.4244  2.2860
  566MOL0     H76406  11.567   9.270   7.462 -0.2838  1.8152 -0.5844
  566MOL0     H76407  11.313   9.261   8.113 -0.9615 -0.7334  0.5899
  566MOL0     H76408  10.977   9.290   8.048 -0.0882  0.7584  0.0361
  566MOL0     H76409  11.101   9.188   8.124  0.4683 -0.1752 -2.4488
  566MOL0     H76410  11.004   9.306   8.222  0.5984 -2.0842 -0.0265
  567MOL0     O76411   4.295   3.575   8.486  0.1436  0.1809  0.2220
  567MOL0     C76412   4.279   3.503   8.584  0.2649 -0.1474  0.6268
  567MOL0     O76413   4.335   3.371   8.591  0.0074 -0.0782  0.7763
  567MOL0     C76414   4.432   3.344   8.505  0.1003 -0.1987  1.0217
  567MOL0     C76415   4.546   3.329   8.577 -0.7937  0.2628 -1.0385
  567MOL0     C76416   4.669   3.307   8.514 -0.0766 -1.0767  0.2071
  567MOL0     C76417   4.675   3.301   8.366 -0.7195 -0.3688  0.2010
  567MOL0     O76418   4.794   3.293   8.288 -0.6270  0.3148 -0.2624
  567MOL0     C76419   4.916   3.333   8.348  0.7855  0.4268 -0.4054
  567MOL0     C76420   5.010   3.393   8.250 -0.5532 -0.3500  0.1159
  567MOL0     C76421   5.143   3.443   8.314 -0.5109  1.3159 -0.2913
  567MOL0     C76422   5.227   3.495   8.199 -0.5402  0.3830  0.0446
  567MOL0     C76423   5.353   3.574   8.244  0.8955 -0.2461  0.3932
  567MOL0     C76424   5.439   3.498   8.351  0.5130 -0.8294  0.0464
  567MOL0     C76425   5.496   3.360   8.314 -0.2369  0.1171 -0.2584
  567MOL0     C76426   5.573   3.306   8.438 -0.5880 -0.3382 -0.7323
  567MOL0     N76427   5.691   3.384   8.474  0.1418  0.5988  0.2996
  567MOL0     C76428   5.715   3.445   8.592  0.6418 -0.5820 -0.2324
  567MOL0     C76429   5.830   3.515   8.577 -0.1620 -0.3216  0.4427
  567MOL0     C76430   5.916   3.585   8.676  0.7090 -0.3383 -0.5464
  567MOL0     C76431   5.871   3.734   8.704 -0.2628 -0.5943  0.0731
  567MOL0     C76432   5.725   3.744   8.756 -1.2217 -0.7487  0.3203
  567MOL0     C76433   5.712   3.887   8.817  0.1838 -0.1321 -0.0859
  567MOL0     O76434   5.579   3.905   8.882 -0.5715 -0.5434  0.2650
  567MOL0     C76435   5.460   3.873   8.816 -0.0633 -0.4658 -0.2842
  567MOL0     C76436   5.445   3.900   8.681  0.0926 -0.9449 -0.0834
  567MOL0     C76437   5.328   3.864   8.608  0.2677  0.4345  0.6747
  567MOL0     C76438   5.228   3.787   8.684 -0.8251 -0.2990  0.5680
  567MOL0     C76439   5.105   3.743   8.622  0.1308  0.5240  0.0966
  567MOL0     O76440   5.059   3.818   8.517  0.6943 -0.4887  0.0385
  567MOL0     C76441   4.952   3.784   8.432 -0.1922  0.1868  0.2940
  567MOL0     C76442   4.858   3.686   8.448 -1.1729  0.3393  0.2040
  567MOL0     C76443   4.757   3.672   8.357 -0.8541  0.0987  0.2346
  567MOL0     C76444   4.752   3.749   8.243  0.0056 -0.7530  0.1461
  567MOL0     O76445   4.658   3.727   8.151  0.8231  0.5050  0.0792
  567MOL0     C76446   4.605   3.598   8.132 -0.7700 -0.3158 -0.2433
  567MOL0     C76447   4.515   3.605   8.014 -0.2383 -0.0626  0.4365
  567MOL0     C76448   4.397   3.701   8.030  0.3296  0.4442 -0.3655
  567MOL0     C76449   4.289   3.662   8.131  0.4579  0.1928  0.3555
  567MOL0     C76450   4.187   3.777   8.147  0.4131 -0.1211 -0.0729
  567MOL0     C76451   4.225   3.914   8.184 -0.0800  0.1403 -1.2716
  567MOL0     C76452   4.281   3.905   8.334  0.3773  0.4554  0.1127
  567MOL0     C76453   4.440   3.912   8.333  0.3242 -0.1776 -0.0324
  567MOL0    Cl76454   4.515   4.070   8.287 -0.4496 -0.7103 -0.2416
  567MOL0     C76455   4.844   3.851   8.227 -0.0135  0.5904 -0.1668
  567MOL0     C76456   4.950   3.866   8.315  0.3823  0.4994 -0.3470
  567MOL0     O76457   5.063   3.634   8.661  0.2351 -0.0128  0.0826
  567MOL0     C76458   5.244   3.760   8.820  0.5666  0.0378  0.7871
  567MOL0     C76459   5.359   3.800   8.886  0.2468  0.2037 -0.2691
  567MOL0     N76460   5.874   3.502   8.441  0.3098  0.6612 -0.0917
  567MOL0     N76461   5.783   3.434   8.387 -0.0668  0.0665  0.1670
  567MOL0     C76462   4.553   3.317   8.303  0.8587 -0.1236 -0.4343
  567MOL0     C76463   4.427   3.339   8.363 -0.9943 -0.6424 -0.6144
  567MOL0     C76464   4.183   3.545   8.689 -0.1607 -0.4148 -0.9167
  567MOL0     C76465   4.087   3.634   8.649  0.5742  0.2337 -0.1306
  567MOL0     C76466   3.989   3.686   8.724 -0.9647 -0.0434 -0.8595
  567MOL0     C76467   4.001   3.659   8.855 -0.6828  1.1853 -0.7725
  567MOL0     O76468   3.925   3.730   8.944 -0.5413  0.1641 -0.8415
  567MOL0     C76469   3.786   3.701   8.931 -0.7174 -0.2333  0.2209
  567MOL0     C76470   3.727   3.726   9.065  0.1189  0.2084  0.3768
  567MOL0     C76471   3.572   3.769   9.053  0.4225  0.6284  0.1021
  567MOL0     C76472   3.494   3.774   9.181  1.3313 -1.1679 -1.1940
  567MOL0     C76473   3.368   3.848   9.156 -0.2468 -1.0229 -0.1292
  567MOL0     C76474   3.262   3.909   9.129  0.3241  0.4697  0.2532
  567MOL0     C76475   4.093   3.566   8.910  0.1896 -0.4650 -0.4953
  567MOL0     C76476   4.180   3.505   8.821 -0.5582  0.9678 -0.8099
  567MOL0     C76477   4.286   3.406   8.879 -0.8097  0.5045 -0.0546
  567MOL0     H76478   4.545   3.336   8.685  1.7829 -0.6155 -0.9107
  567MOL0     H76479   4.752   3.293   8.582 -1.5427 -0.9139  2.1109
  567MOL0     H76480   4.897   3.400   8.432 -3.0176 -1.5999  0.5687
  567MOL0     H76481   4.964   3.245   8.390 -1.9447 -1.2327 -0.5375
  567MOL0     H76482   4.958   3.475   8.200 -2.2322 -2.0750 -1.1312
  567MOL0     H76483   5.031   3.319   8.172 -1.2727 -0.5020  0.0553
  567MOL0     H76484   5.185   3.353   8.361 -0.1903  2.3989  1.5843
  567MOL0     H76485   5.139   3.519   8.392  0.7281 -0.2874  1.4016
  567MOL0     H76486   5.255   3.404   8.145 -0.1834  0.1015  0.6918
  567MOL0     H76487   5.165   3.563   8.139 -0.1414  0.7182  0.0149
  567MOL0     H76488   5.410   3.606   8.157 -2.2153  2.9246 -0.7189
  567MOL0     H76489   5.316   3.668   8.286  0.5743 -0.6798  1.0995
  567MOL0     H76490   5.522   3.563   8.382 -1.1760  1.7687 -0.5459
  567MOL0     H76491   5.368   3.478   8.431  0.0793 -1.3945 -0.4684
  567MOL0     H76492   5.565   3.370   8.230 -1.1850 -2.2530 -1.4146
  567MOL0     H76493   5.419   3.295   8.273  1.2670 -1.6423 -0.4357
  567MOL0     H76494   5.509   3.295   8.526  0.6255 -0.3016  0.1836
  567MOL0     H76495   5.606   3.205   8.415 -3.1653 -1.4711  0.1712
  567MOL0     H76496   5.663   3.439   8.687  0.8900 -5.4065 -0.1542
  567MOL0     H76497   5.905   3.530   8.769 -2.3161  0.6334 -0.2230
  567MOL0     H76498   6.018   3.584   8.635 -0.0815 -1.5829 -2.6067
  567MOL0     H76499   5.940   3.766   8.783 -0.8330  0.3339  0.2001
  567MOL0     H76500   5.887   3.793   8.614  1.8908 -0.8401  0.2314
  567MOL0     H76501   5.691   3.658   8.815  1.0180 -1.2919  0.9117
  567MOL0     H76502   5.666   3.751   8.664  0.9706  1.2825 -1.0650
  567MOL0     H76503   5.720   3.954   8.731  2.0085 -1.1479 -0.7624
  567MOL0     H76504   5.801   3.910   8.876  2.1082  2.5833 -3.6167
  567MOL0     H76505   5.533   3.944   8.635  1.7423  0.4585  3.9571
  567MOL0     H76506   5.329   3.863   8.500  0.9952  0.1853  0.6782
  567MOL0     H76507   4.864   3.623   8.536  1.4988  3.0203  2.1552
  567MOL0     H76508   4.683   3.596   8.381 -0.3819  0.1365  2.0129
  567MOL0     H76509   4.684   3.523   8.120 -1.5532 -1.1693 -0.2135
  567MOL0     H76510   4.534   3.579   8.213 -0.3703  2.1594  0.7740
  567MOL0     H76511   4.579   3.631   7.929 -2.2231 -1.9946 -1.7920
  567MOL0     H76512   4.475   3.504   8.015  0.1224 -0.3231  4.3507
  567MOL0     H76513   4.435   3.801   8.054  2.1489 -0.3839  0.3771
  567MOL0     H76514   4.343   3.712   7.935  0.5271  0.0062 -0.5277
  567MOL0     H76515   4.341   3.643   8.226  0.4613  1.1165  0.5514
  567MOL0     H76516   4.231   3.575   8.100 -3.0869  1.9171  1.6059
  567MOL0     H76517   4.104   3.743   8.209 -1.2898  0.6303 -1.8260
  567MOL0     H76518   4.148   3.788   8.045 -2.7852 -0.7068  0.9566
  567MOL0     H76519   4.304   3.948   8.116  0.2884  0.6886 -0.5938
  567MOL0     H76520   4.146   3.990   8.181 -0.1220  0.4032  2.2545
  567MOL0     H76521   4.265   3.811   8.387  1.2045 -0.8150 -1.8048
  567MOL0     H76522   4.235   3.979   8.401  1.0681  1.1401 -0.1567
  567MOL0     H76523   4.473   3.883   8.434 -1.2471 -1.2149  0.2147
  567MOL0     H76524   4.479   3.836   8.265  0.7260  0.6849 -0.7894
  567MOL0     H76525   4.842   3.920   8.143  2.0610 -0.7225 -1.4162
  567MOL0     H76526   5.018   3.951   8.307 -0.8788  1.7961  1.7331
  567MOL0     H76527   5.157   3.722   8.873 -1.7858  0.6331 -2.3273
  567MOL0     H76528   5.351   3.767   8.989  2.9015  2.4231  0.7945
  567MOL0     H76529   4.549   3.302   8.196  4.2239 -1.7636 -0.4589
  567MOL0     H76530   4.329   3.329   8.317  0.4586 -2.4754 -3.6121
  567MOL0     H76531   4.071   3.656   8.544 -1.6548 -1.4239 -0.2229
  567MOL0     H76532   3.911   3.753   8.689 -0.8709  1.2407  1.2325
  567MOL0     H76533   3.773   3.596   8.903  0.7177 -0.6756  1.1132
  567MOL0     H76534   3.749   3.758   8.845  1.7277 -0.8206 -1.3343
  567MOL0     H76535   3.773   3.809   9.119  0.0343 -0.9109  2.2723
  567MOL0     H76536   3.741   3.641   9.133  0.4194  0.2819  0.4053
  567MOL0     H76537   3.526   3.696   8.986 -1.0310  1.9875 -0.4113
  567MOL0     H76538   3.571   3.864   8.999  2.6741  1.5020  1.4512
  567MOL0     H76539   3.478   3.673   9.218 -0.8972  0.3784  2.6575
  567MOL0     H76540   3.546   3.837   9.253 -1.2363 -1.5871  1.1716
  567MOL0     H76541   3.167   3.957   9.114  0.3878  0.0137 -1.8468
  567MOL0     H76542   4.094   3.534   9.014  0.6994 -0.9605 -0.6470
  567MOL0     H76543   4.383   3.452   8.901  0.0298 -1.2012  0.0207
  567MOL0     H76544   4.258   3.356   8.973  0.6969 -3.2473 -1.3976
  567MOL0     H76545   4.316   3.325   8.812  3.0396  1.6520  0.0375
  568MOL0     O76546   9.972   8.775  11.115 -0.2836 -0.2891 -0.1306
  568MOL0     C76547   9.955   8.848  11.016 -0.3586 -0.3739  0.1344
  568MOL0     O76548  10.057   8.924  10.956 -0.5096  0.4479 -0.4777
  568MOL0     C76549  10.180   8.922  11.022 -0.3213  0.0758  0.7361
  568MOL0     C76550  10.205   9.034  11.108 -0.1324 -0.0137 -0.4903
  568MOL0     C76551  10.329   9.038  11.171 -0.6251  0.1295 -0.3545
  568MOL0     C76552  10.427   8.941  11.155 -0.4490  0.2450 -0.3037
  568MOL0     O76553  10.533   8.950  11.237 -0.0623 -0.1422 -0.6920
  568MOL0     C76554  10.527   8.904  11.368  0.1950  0.5861  0.1236
  568MOL0     C76555  10.585   9.003  11.460  0.2703  0.7630 -0.1166
  568MOL0     C76556  10.737   8.975  11.490  0.6124 -0.6944  0.6799
  568MOL0     C76557  10.824   8.955  11.368  1.0611 -0.0671 -0.6675
  568MOL0     C76558  10.970   8.989  11.394 -0.4050 -0.5829  0.0124
  568MOL0     C76559  11.057   8.971  11.265  1.1654  0.1428 -0.2532
  568MOL0     C76560  11.201   8.971  11.301 -0.7322  0.1291 -0.5351
  568MOL0     C76561  11.304   8.981  11.184 -0.5413 -0.0763  0.3126
  568MOL0     N76562  11.449   8.962  11.219  0.7140  0.8340  0.0036
  568MOL0     C76563  11.529   9.022  11.316  0.3207 -0.6538  1.1295
  568MOL0     C76564  11.650   8.965  11.294  0.1618 -0.1453 -0.8147
  568MOL0     C76565  11.786   9.019  11.352 -0.5195  0.2794  0.8095
  568MOL0     C76566  11.777   9.068  11.494 -0.7101  0.3305  0.1948
  568MOL0     C76567  11.879   9.177  11.526  0.2301  0.8426 -0.2414
  568MOL0     C76568  11.872   9.205  11.676  0.5773  0.2734 -0.1169
  568MOL0     O76569  11.751   9.278  11.696 -0.0711 -0.8092 -0.1168
  568MOL0     C76570  11.728   9.336  11.816 -0.3420  0.5313 -0.4182
  568MOL0     C76571  11.806   9.314  11.931 -0.5207 -0.0218  0.2333
  568MOL0     C76572  11.788   9.391  12.044 -0.5692  0.4352 -0.2871
  568MOL0     C76573  11.684   9.483  12.049  0.8522 -0.8952 -0.5083
  568MOL0     C76574  11.670   9.569  12.173 -0.2914  0.7167  0.7976
  568MOL0     O76575  11.772   9.552  12.270  0.6864  0.0925  0.0669
  568MOL0     C76576  11.760   9.637  12.378  0.8653  0.1279 -0.6519
  568MOL0     C76577  11.775   9.771  12.369  0.1029  0.8681  0.8464
  568MOL0     C76578  11.762   9.859  12.476 -0.2611 -0.7935  0.1148
  568MOL0     C76579  11.756   9.808  12.601  0.2169  0.2181  0.1402
  568MOL0     O76580  11.760   9.895  12.706 -0.2444 -0.0417  0.4478
  568MOL0     C76581  11.637   9.939  12.761 -0.4654 -0.4266 -0.1150
  568MOL0     C76582  11.566  10.023  12.663  0.7471 -0.2563  1.0564
  568MOL0     C76583  11.481  10.129  12.729 -0.3688  0.0830  0.0661
  568MOL0     C76584  11.357  10.072  12.798  0.8689  0.1877 -0.3273
  568MOL0     C76585  11.260   9.987  12.718 -0.4518  0.0357  0.0754
  568MOL0     C76586  11.195  10.043  12.595  0.3269  0.0331  0.3063
  568MOL0     C76587  11.079  10.146  12.620  0.2799 -0.0701 -0.4305
  568MOL0     C76588  11.060  10.237  12.511  0.8408  0.2559  0.2582
  568MOL0    Cl76589  11.210  10.338  12.497 -0.0434  0.3442  0.2738
  568MOL0     C76590  11.752   9.669  12.621  0.5585 -0.2900  0.2423
  568MOL0     C76591  11.756   9.582  12.511 -0.4221  0.1092  0.3556
  568MOL0     O76592  11.579   9.647  12.179  0.2292 -0.7329  0.1919
  568MOL0     C76593  11.603   9.502  11.936  0.3144 -0.5547 -0.0182
  568MOL0     C76594  11.628   9.426  11.825  0.2291 -0.2638 -0.0713
  568MOL0     N76595  11.647   8.870  11.189 -0.3931  0.5114 -0.9237
  568MOL0     N76596  11.529   8.879  11.140 -0.6156  0.0014 -0.2376
  568MOL0     C76597  10.400   8.831  11.073 -0.0418 -0.5077  0.3599
  568MOL0     C76598  10.273   8.816  11.011 -0.5204 -0.5252  0.9020
  568MOL0     C76599   9.826   8.856  10.953 -0.6064 -0.2126  0.3257
  568MOL0     C76600   9.762   8.980  10.946 -0.2168 -0.8844 -0.0656
  568MOL0     C76601   9.631   8.999  10.893 -0.7779  0.0005  0.3305
  568MOL0     C76602   9.562   8.894  10.817 -0.4300 -0.7556 -0.0568
  568MOL0     O76603   9.440   8.907  10.763 -0.5120 -0.6562  0.3667
  568MOL0     C76604   9.388   9.039  10.719 -0.2116  0.1654 -0.7981
  568MOL0     C76605   9.257   9.072  10.791  0.4158  0.0801  0.3320
  568MOL0     C76606   9.157   8.955  10.788 -0.0407  0.0595 -0.3422
  568MOL0     C76607   9.022   8.991  10.859  1.4197  0.4752  0.3842
  568MOL0     C76608   8.967   9.101  10.782  0.5593 -0.4898  0.8344
  568MOL0     C76609   8.924   9.195  10.723  1.1188  0.9566  0.0689
  568MOL0     C76610   9.624   8.768  10.834  0.5617  0.8040  0.3118
  568MOL0     C76611   9.755   8.752  10.897 -0.7601  0.5464  0.3100
  568MOL0     C76612   9.818   8.615  10.886 -0.0500 -1.4225 -1.0576
  568MOL0     H76613  10.132   9.110  11.136  0.2096  0.5824 -1.1677
  568MOL0     H76614  10.346   9.115  11.245 -0.0349 -1.5660  1.3497
  568MOL0     H76615  10.423   8.888  11.396  0.8889 -1.5614  1.7970
  568MOL0     H76616  10.583   8.810  11.375  1.6567  1.1573 -2.5506
  568MOL0     H76617  10.527   8.990  11.552 -1.2288 -4.0140 -1.4360
  568MOL0     H76618  10.584   9.102  11.414  2.4276  1.5518  1.3793
  568MOL0     H76619  10.751   8.895  11.563  1.8643 -2.3615 -1.3195
  568MOL0     H76620  10.778   9.068  11.532  2.6916 -1.3601  0.2493
  568MOL0     H76621  10.814   8.852  11.333  1.0956 -0.5560  0.6910
  568MOL0     H76622  10.805   9.023  11.285  0.8607  1.3897  0.5350
  568MOL0     H76623  10.980   9.093  11.427  0.7404 -1.2059  1.8207
  568MOL0     H76624  11.018   8.926  11.470 -1.0008 -2.2785 -0.9585
  568MOL0     H76625  11.043   8.878  11.209  1.0501  0.3031 -0.4936
  568MOL0     H76626  11.035   9.064  11.211 -3.0075 -1.4310 -1.6096
  568MOL0     H76627  11.220   8.881  11.361 -0.1917  0.9853  0.6313
  568MOL0     H76628  11.230   9.058  11.360  2.3927  0.0615 -1.8099
  568MOL0     H76629  11.286   8.898  11.115  0.2195  2.6674 -3.5470
  568MOL0     H76630  11.285   9.073  11.129  2.3453  0.3920 -0.0477
  568MOL0     H76631  11.509   9.109  11.377  0.6498  1.4040 -1.5050
  568MOL0     H76632  11.861   8.942  11.333 -1.6845 -0.3460 -1.6824
  568MOL0     H76633  11.830   9.099  11.291  2.5452 -2.9375 -1.6146
  568MOL0     H76634  11.681   9.118  11.508 -0.5929 -0.0770  3.2079
  568MOL0     H76635  11.776   8.991  11.572  2.9994  1.3244  1.4629
  568MOL0     H76636  11.862   9.250  11.446  0.7987  0.3645 -0.8097
  568MOL0     H76637  11.969   9.116  11.513 -1.0266 -1.0729 -0.4345
  568MOL0     H76638  11.956   9.274  11.687  0.9705 -0.2179 -0.0014
  568MOL0     H76639  11.889   9.110  11.729  0.6008 -0.3733 -1.2456
  568MOL0     H76640  11.880   9.235  11.927 -0.6931 -0.4226  2.8568
  568MOL0     H76641  11.860   9.378  12.124 -1.5951  0.8318  0.7465
  568MOL0     H76642  11.796   9.806  12.269 -2.5114  0.4716  0.0696
  568MOL0     H76643  11.773   9.966  12.465  1.7294 -1.0652 -0.7847
  568MOL0     H76644  11.572   9.857  12.790 -3.2791  0.4322 -3.2828
  568MOL0     H76645  11.653  10.006  12.846 -0.1918 -0.5347 -0.0801
  568MOL0     H76646  11.641  10.073  12.601  1.1516 -0.0026  1.7494
  568MOL0     H76647  11.511   9.956  12.596  3.1182 -0.9962 -0.2756
  568MOL0     H76648  11.545  10.194  12.790  0.0935 -0.4564  0.1650
  568MOL0     H76649  11.442  10.192  12.649 -2.3155 -3.0344 -1.6242
  568MOL0     H76650  11.289  10.148  12.837 -4.1817 -3.7701 -0.4540
  568MOL0     H76651  11.389  10.021  12.890  0.6673  1.9083  0.7462
  568MOL0     H76652  11.185   9.950  12.789  1.3044  0.7746  2.4510
  568MOL0     H76653  11.309   9.895  12.686  0.4396 -0.0128  1.4797
  568MOL0     H76654  11.270  10.097  12.537 -2.2671  1.2710 -2.1493
  568MOL0     H76655  11.152   9.962  12.535 -0.3811  0.1558  0.6454
  568MOL0     H76656  11.105  10.195  12.714  3.8828 -0.6806 -0.9650
  568MOL0     H76657  10.981  10.102  12.638  0.0053  1.4081  2.1861
  568MOL0     H76658  11.063  10.170  12.424  1.8870 -0.4496  0.8142
  568MOL0     H76659  10.972  10.299  12.530  1.8892  1.0202  3.1364
  568MOL0     H76660  11.763   9.632  12.722 -0.1304  0.0529  0.4468
  568MOL0     H76661  11.756   9.474  12.516  1.1390 -0.2411 -3.5468
  568MOL0     H76662  11.532   9.584  11.929  1.9366  1.0615  1.4289
  568MOL0     H76663  11.581   9.466  11.736 -0.4734  1.9177  1.2239
  568MOL0     H76664  10.477   8.755  11.069  2.5874  1.8241  2.2437
  568MOL0     H76665  10.247   8.730  10.950  1.4332 -0.9086  0.5704
  568MOL0     H76666   9.814   9.063  10.992  0.9362 -0.7852 -1.4712
  568MOL0     H76667   9.587   9.097  10.892 -0.1278  0.2980 -0.0638
  568MOL0     H76668   9.355   9.031  10.615 -0.9594 -0.3889 -0.5284
  568MOL0     H76669   9.459   9.122  10.727 -2.0433  1.6465  3.6144
  568MOL0     H76670   9.214   9.167  10.757  0.5430  0.3390  0.8867
  568MOL0     H76671   9.289   9.089  10.894 -1.0182 -2.5757  1.3040
  568MOL0     H76672   9.194   8.863  10.833  0.4623  0.6887  0.5561
  568MOL0     H76673   9.145   8.926  10.683 -0.4664 -1.0713  0.0084
  568MOL0     H76674   8.956   8.904  10.853 -2.2424  3.1338 -1.6510
  568MOL0     H76675   9.044   9.014  10.964 -0.1696 -0.8306  1.0498
  568MOL0     H76676   8.895   9.288  10.678  0.4929 -0.9050 -3.8370
  568MOL0     H76677   9.586   8.676  10.792  1.8222  1.0556 -1.5313
  568MOL0     H76678   9.849   8.573  10.982 -2.3598 -0.0211  0.3937
  568MOL0     H76679   9.741   8.547  10.851 -1.8185 -0.5201  0.8359
  568MOL0     H76680   9.898   8.616  10.811  0.9624 -1.1636 -0.0020
  569MOL0     O76681   5.887   3.135   9.839 -0.4160  0.1959  0.7746
  569MOL0     C76682   6.007   3.122   9.851 -0.3568  0.1150  0.7885
  569MOL0     O76683   6.102   3.212   9.815  0.6937  0.1544  0.2502
  569MOL0     C76684   6.057   3.333   9.774 -0.1574  0.3995 -0.0888
  569MOL0     C76685   6.131   3.442   9.814 -0.4254  1.2848 -0.3548
  569MOL0     C76686   6.100   3.574   9.785  0.3569 -0.8659  0.2029
  569MOL0     C76687   5.987   3.612   9.712 -0.3544  0.9213 -0.7188
  569MOL0     O76688   5.961   3.746   9.682 -0.4960  0.7240  0.2435
  569MOL0     C76689   5.964   3.768   9.539  0.3351 -0.0318  0.0314
  569MOL0     C76690   6.012   3.908   9.518  1.1495  0.1830  0.9209
  569MOL0     C76691   5.887   4.001   9.551 -0.9655 -0.2196  0.4534
  569MOL0     C76692   5.929   4.143   9.502  0.1898 -0.0094 -0.2081
  569MOL0     C76693   6.075   4.199   9.525  0.3566  0.3324  0.3971
  569MOL0     C76694   6.096   4.337   9.464 -0.2747 -1.2524 -0.3126
  569MOL0     C76695   6.244   4.382   9.436 -1.0413 -0.9924 -0.4734
  569MOL0     C76696   6.310   4.298   9.331 -0.2672  0.5940  0.6010
  569MOL0     N76697   6.443   4.358   9.300 -0.6451  0.3489 -0.0356
  569MOL0     C76698   6.472   4.486   9.234 -0.0600  0.4034  0.3202
  569MOL0     C76699   6.600   4.521   9.263  0.1335  0.5783  0.9613
  569MOL0     C76700   6.677   4.641   9.199  0.4099  0.1766  0.3204
  569MOL0     C76701   6.725   4.604   9.058 -0.0712 -0.3611  0.2896
  569MOL0     C76702   6.781   4.726   8.985  0.2235  0.0945 -0.4149
  569MOL0     C76703   6.826   4.687   8.852 -0.5581  0.2368 -0.4825
  569MOL0     O76704   6.929   4.776   8.815  0.1102 -0.1087 -0.3716
  569MOL0     C76705   7.057   4.767   8.872  0.5052 -0.0370 -0.1470
  569MOL0     C76706   7.148   4.871   8.841 -0.0594  0.5218  0.7117
  569MOL0     C76707   7.284   4.856   8.866  0.2400 -0.3741 -0.0594
  569MOL0     C76708   7.334   4.751   8.933  0.0829  0.2268  0.0494
  569MOL0     C76709   7.471   4.763   8.990 -0.0318 -0.1047  0.7329
  569MOL0     O76710   7.535   4.652   9.034  0.2153  0.0698  0.3406
  569MOL0     C76711   7.622   4.662   9.134  0.0443 -0.0440 -0.8576
  569MOL0     C76712   7.602   4.581   9.250 -0.4246 -0.0399  0.2108
  569MOL0     C76713   7.697   4.579   9.350  0.5211 -0.7867 -0.3369
  569MOL0     C76714   7.807   4.661   9.338 -0.5811  0.7653 -0.0299
  569MOL0     O76715   7.899   4.656   9.437  0.4778 -0.0254 -0.8459
  569MOL0     C76716   8.042   4.680   9.411  0.0714 -0.1458  0.0324
  569MOL0     C76717   8.119   4.649   9.534  0.5102  0.4420 -0.0696
  569MOL0     C76718   8.267   4.617   9.505 -0.1242 -0.5956 -0.9788
  569MOL0     C76719   8.348   4.577   9.635  0.3166  0.4856  0.8245
  569MOL0     C76720   8.360   4.668   9.751  0.3051  0.1909 -0.9509
  569MOL0     C76721   8.418   4.583   9.859  0.0227  0.3371 -0.6491
  569MOL0     C76722   8.446   4.665   9.988 -0.1806  0.3957  0.0251
  569MOL0     C76723   8.498   4.570  10.095  0.1243  0.3188  0.3716
  569MOL0    Cl76724   8.624   4.450  10.049  0.0446  0.3403  0.3890
  569MOL0     C76725   7.822   4.749   9.227 -0.7859  0.4387  0.2282
  569MOL0     C76726   7.731   4.747   9.127 -0.4874 -0.2833 -0.1335
  569MOL0     O76727   7.509   4.881   9.003  0.7972  0.3220 -0.4076
  569MOL0     C76728   7.244   4.647   8.970 -0.6894 -0.6319 -0.5214
  569MOL0     C76729   7.102   4.655   8.942  0.1054  0.9732 -0.4079
  569MOL0     N76730   6.656   4.419   9.340 -0.2912 -0.3951 -0.3636
  569MOL0     N76731   6.569   4.332   9.358  1.0407 -0.5398 -0.2869
  569MOL0     C76732   5.894   3.503   9.682 -0.4037 -0.8475 -0.3925
  569MOL0     C76733   5.936   3.368   9.704  0.1773  0.7572 -0.8471
  569MOL0     C76734   6.062   2.994   9.907 -0.4115 -0.2651 -0.3404
  569MOL0     C76735   6.202   2.968   9.883 -0.6995 -0.5064 -0.1218
  569MOL0     C76736   6.270   2.862   9.947 -0.6882 -0.0705  0.6681
  569MOL0     C76737   6.197   2.772  10.018 -0.0993  0.0794  0.4126
  569MOL0     O76738   6.272   2.660  10.069  0.6653 -0.3194  0.5942
  569MOL0     C76739   6.206   2.542  10.108  0.6086 -0.4162  0.0437
  569MOL0     C76740   6.280   2.439  10.025 -0.0050  0.0920  0.6792
  569MOL0     C76741   6.211   2.300  10.055 -0.0322 -0.0155  0.2391
  569MOL0     C76742   6.294   2.176  10.027  0.7902  0.5408 -0.1614
  569MOL0     C76743   6.311   2.159   9.881  0.3945 -1.1759  1.0759
  569MOL0     C76744   6.332   2.157   9.759 -0.2986  0.7606 -0.4867
  569MOL0     C76745   6.061   2.795  10.035 -0.2854  0.0878  0.3661
  569MOL0     C76746   5.991   2.903   9.981 -0.9791  0.1135 -0.7740
  569MOL0     C76747   5.843   2.903  10.015 -0.5134 -0.7545  0.2353
  569MOL0     H76748   6.230   3.427   9.858  0.5488 -0.1595 -2.8193
  569MOL0     H76749   6.173   3.649   9.815 -0.1428  1.3297 -3.4445
  569MOL0     H76750   6.038   3.704   9.490  3.0548  2.5875  0.4777
  569MOL0     H76751   5.864   3.749   9.497  1.4292 -0.1949 -2.7014
  569MOL0     H76752   6.046   3.922   9.415 -0.2848 -1.6792  0.1296
  569MOL0     H76753   6.103   3.927   9.575  0.8710 -1.2239  1.8705
  569MOL0     H76754   5.878   4.012   9.659 -0.0919  0.9718  0.4229
  569MOL0     H76755   5.796   3.964   9.503 -1.9660  3.4879 -0.8585
  569MOL0     H76756   5.909   4.151   9.394  2.5854 -1.6803 -0.8466
  569MOL0     H76757   5.858   4.208   9.554  1.1468  0.3206  0.7143
  569MOL0     H76758   6.099   4.198   9.632 -2.9639  0.0566  1.2401
  569MOL0     H76759   6.140   4.131   9.469 -0.8899 -0.7615  0.2237
  569MOL0     H76760   6.033   4.371   9.381 -0.2070  1.4032  0.6478
  569MOL0     H76761   6.065   4.407   9.542 -2.0345 -2.4207  0.1088
  569MOL0     H76762   6.303   4.370   9.527 -0.5101 -1.3166 -0.8541
  569MOL0     H76763   6.247   4.487   9.404  0.7352 -0.1590  2.1167
  569MOL0     H76764   6.310   4.196   9.368 -0.0735  1.0364  1.8748
  569MOL0     H76765   6.247   4.304   9.242 -0.9359  2.8656  1.1277
  569MOL0     H76766   6.399   4.541   9.176 -0.5099  2.3868  2.6043
  569MOL0     H76767   6.607   4.724   9.187  0.2008 -0.1046 -0.4656
  569MOL0     H76768   6.771   4.665   9.250 -0.4018  2.7353  0.7934
  569MOL0     H76769   6.806   4.532   9.050  2.8600  2.8988 -2.8775
  569MOL0     H76770   6.645   4.565   8.995  0.7942 -0.7891 -0.5591
  569MOL0     H76771   6.862   4.763   9.048 -0.7360  1.3109  0.1563
  569MOL0     H76772   6.697   4.797   8.981 -1.1690 -1.5569 -2.5316
  569MOL0     H76773   6.750   4.690   8.773  0.4880  0.8155 -1.5018
  569MOL0     H76774   6.872   4.588   8.854  1.6172  1.1894  2.3646
  569MOL0     H76775   7.107   4.959   8.792  0.5172  0.3432 -0.1077
  569MOL0     H76776   7.347   4.923   8.809 -0.1831 -2.5721 -3.3615
  569MOL0     H76777   7.517   4.514   9.260  0.8153 -1.4121  3.0292
  569MOL0     H76778   7.671   4.513   9.432 -0.5769  0.6582  0.5384
  569MOL0     H76779   8.077   4.616   9.330  1.8844  0.8391 -0.0096
  569MOL0     H76780   8.060   4.781   9.374 -2.1159 -0.3801 -1.8586
  569MOL0     H76781   8.110   4.741   9.591 -1.3532 -0.4043  1.1000
  569MOL0     H76782   8.072   4.563   9.582 -1.3826  1.3402 -0.2358
  569MOL0     H76783   8.289   4.540   9.430 -2.0765 -1.2857 -0.8839
  569MOL0     H76784   8.317   4.707   9.467  0.2036 -0.2107  0.3283
  569MOL0     H76785   8.443   4.531   9.606 -0.1233 -1.2067  1.9117
  569MOL0     H76786   8.307   4.484   9.677  3.5351 -2.8171 -2.5017
  569MOL0     H76787   8.259   4.703   9.776 -1.0656 -1.0542 -4.2096
  569MOL0     H76788   8.428   4.754   9.743  1.3098 -0.5083 -0.1667
  569MOL0     H76789   8.353   4.503   9.894 -0.1039  1.3349  1.5804
  569MOL0     H76790   8.513   4.539   9.826  0.3235 -1.6366  2.4341
  569MOL0     H76791   8.349   4.711  10.012  1.1078  2.7069  1.0947
  569MOL0     H76792   8.522   4.739   9.962  0.2765 -0.1575 -0.2346
  569MOL0     H76793   8.536   4.636  10.174 -2.2555  0.6814  1.2985
  569MOL0     H76794   8.409   4.515  10.127 -0.2082 -0.4517 -1.7238
  569MOL0     H76795   7.906   4.817   9.225  0.4245 -0.9637  1.2214
  569MOL0     H76796   7.747   4.797   9.032  0.0216  0.9410  0.5874
  569MOL0     H76797   7.285   4.587   9.050  1.4606  2.9536  1.3672
  569MOL0     H76798   7.030   4.580   8.975  1.1468  0.4045  0.6465
  569MOL0     H76799   5.799   3.520   9.631 -1.1813 -2.3280  0.4779
  569MOL0     H76800   5.862   3.296   9.672 -0.5730  0.9383  0.3836
  569MOL0     H76801   6.257   3.033   9.816  0.0629 -1.5076 -0.5016
  569MOL0     H76802   6.375   2.840   9.932 -1.3252 -2.8449 -0.3186
  569MOL0     H76803   6.101   2.542  10.080  0.3780 -0.6616  0.8560
  569MOL0     H76804   6.212   2.539  10.218  0.8829 -1.7326  0.0152
  569MOL0     H76805   6.388   2.433  10.045  0.1011  0.3943  0.2103
  569MOL0     H76806   6.260   2.466   9.921  0.0305  2.3152  1.2186
  569MOL0     H76807   6.113   2.294  10.006  0.1606 -0.1607 -0.1381
  569MOL0     H76808   6.187   2.295  10.161 -2.1651 -1.5019 -0.2575
  569MOL0     H76809   6.395   2.169  10.070  0.0899  1.8827  1.8446
  569MOL0     H76810   6.230   2.099  10.072  0.8079  0.4618 -0.2719
  569MOL0     H76811   6.359   2.155   9.655  1.3714  2.2564 -0.1263
  569MOL0     H76812   5.994   2.721  10.076 -1.1251 -0.3246 -1.6337
  569MOL0     H76813   5.824   2.896  10.122  0.4319  2.3217  0.6897
  569MOL0     H76814   5.791   2.993   9.982  0.5257 -0.1711  0.1410
  569MOL0     H76815   5.788   2.820   9.969 -5.5755  1.0769  2.1992
  570MOL0     O76816   8.582   1.625   6.772  0.7829 -0.1939  0.6873
  570MOL0     C76817   8.505   1.572   6.690 -0.3240 -0.0226  0.8307
  570MOL0     O76818   8.541   1.551   6.560 -0.1205 -0.1032 -0.6603
  570MOL0     C76819   8.667   1.597   6.517  1.1931  0.3614  0.4238
  570MOL0     C76820   8.778   1.543   6.575 -0.1315  0.3245 -0.2003
  570MOL0     C76821   8.909   1.583   6.537  0.5123  1.0530 -0.6660
  570MOL0     C76822   8.920   1.669   6.429 -0.1070  0.9600 -0.4859
  570MOL0     O76823   9.046   1.718   6.398  0.7697 -1.1576  0.3182
  570MOL0     C76824   9.065   1.801   6.281  0.1028  1.0654 -0.3531
  570MOL0     C76825   9.018   1.940   6.316  0.3917 -0.4877 -0.7974
  570MOL0     C76826   9.033   2.023   6.190  0.4306 -0.0939 -0.8792
  570MOL0     C76827   8.942   2.142   6.202 -0.6998 -0.6319  0.0329
  570MOL0     C76828   8.904   2.188   6.063  0.2644 -1.0459  0.8293
  570MOL0     C76829   8.823   2.318   6.066 -0.6361  1.2738 -0.0849
  570MOL0     C76830   8.810   2.386   5.925  0.2004 -0.5129 -0.2610
  570MOL0     C76831   8.727   2.512   5.939  0.7542  0.1987  1.2311
  570MOL0     N76832   8.704   2.580   5.811  0.8083  0.4603 -0.0528
  570MOL0     C76833   8.609   2.565   5.727  0.2439 -0.8896 -0.6183
  570MOL0     C76834   8.615   2.670   5.644  0.5088 -0.2377  0.7560
  570MOL0     C76835   8.539   2.683   5.509 -0.1131  0.0208 -0.6502
  570MOL0     C76836   8.482   2.558   5.443 -0.4682 -0.5394  0.0538
  570MOL0     C76837   8.342   2.586   5.378 -0.0644  1.0845 -0.3984
  570MOL0     C76838   8.275   2.464   5.313  0.1061 -0.1605 -0.7546
  570MOL0     O76839   8.266   2.337   5.391 -0.3643  0.4049 -0.1047
  570MOL0     C76840   8.228   2.217   5.332 -0.2035 -0.1889 -0.7569
  570MOL0     C76841   8.234   2.107   5.418  0.8950  0.0494 -0.3850
  570MOL0     C76842   8.197   1.978   5.380  0.1519 -0.5449  0.0254
  570MOL0     C76843   8.149   1.959   5.243  0.0984  0.0958 -0.2787
  570MOL0     C76844   8.112   1.820   5.191  0.5006 -0.7969  0.1108
  570MOL0     O76845   8.100   1.717   5.284 -0.1316 -0.5996  0.6514
  570MOL0     C76846   8.051   1.590   5.260  0.0501 -1.1178  0.1754
  570MOL0     C76847   8.078   1.505   5.362 -0.0169 -0.0040  0.7250
  570MOL0     C76848   8.027   1.377   5.363 -0.6175  0.2228  0.3537
  570MOL0     C76849   7.951   1.330   5.253 -0.8594  0.7411 -0.2292
  570MOL0     O76850   7.903   1.197   5.252 -0.4181 -0.1228  0.8214
  570MOL0     C76851   7.828   1.129   5.139  0.2943 -1.2024 -0.1068
  570MOL0     C76852   7.825   0.977   5.159  0.0361  0.4837  0.4057
  570MOL0     C76853   7.767   0.905   5.041 -0.0186  0.6941  0.2292
  570MOL0     C76854   7.687   0.783   5.073 -0.9315  0.1334 -0.3828
  570MOL0     C76855   7.612   0.716   4.955 -0.8095 -0.4432  0.1888
  570MOL0     C76856   7.559   0.580   4.992  0.6809 -0.6053 -0.4834
  570MOL0     C76857   7.435   0.549   4.903 -0.3486 -0.0064 -0.8816
  570MOL0     C76858   7.380   0.417   4.929  0.3943  0.2292 -0.2131
  570MOL0    Cl76859   7.234   0.401   4.826 -0.1943  0.1548 -0.1131
  570MOL0     C76860   7.936   1.418   5.142  0.1436  0.4837 -0.3461
  570MOL0     C76861   7.982   1.549   5.147  0.9001 -1.0267 -0.3619
  570MOL0     O76862   8.097   1.811   5.070  0.7750 -0.1847  0.4666
  570MOL0     C76863   8.149   2.068   5.158  0.6450  0.0120 -0.2646
  570MOL0     C76864   8.187   2.196   5.209 -0.5976  0.5733  1.0358
  570MOL0     N76865   8.703   2.761   5.685 -1.3855  0.6032  0.4496
  570MOL0     N76866   8.751   2.705   5.790 -0.1423 -0.7114  0.2462
  570MOL0     C76867   8.808   1.698   6.356  0.3525  0.3890  0.0215
  570MOL0     C76868   8.678   1.659   6.396  0.2343 -0.8210 -0.2079
  570MOL0     C76869   8.367   1.528   6.730  0.0680  0.8214  0.2954
  570MOL0     C76870   8.318   1.417   6.654 -0.5579  0.1672 -1.0411
  570MOL0     C76871   8.201   1.351   6.690  0.1406  0.3193 -0.2307
  570MOL0     C76872   8.132   1.383   6.806  0.0073  0.4127  0.0986
  570MOL0     O76873   8.033   1.305   6.837 -1.0117  0.1526  0.6056
  570MOL0     C76874   7.945   1.334   6.951 -0.4123  0.3743 -0.1867
  570MOL0     C76875   7.859   1.457   6.938  0.8595 -0.0712  0.2385
  570MOL0     C76876   7.765   1.461   6.816 -1.2027  0.3711  0.8936
  570MOL0     C76877   7.720   1.604   6.781 -0.4811 -0.0245  0.2142
  570MOL0     C76878   7.658   1.682   6.887  0.2277 -0.3445  0.0002
  570MOL0     C76879   7.594   1.750   6.966 -0.4158 -0.0802  0.6125
  570MOL0     C76880   8.184   1.493   6.874  0.4379 -0.7680 -0.8904
  570MOL0     C76881   8.296   1.576   6.836  1.5920 -0.2458 -0.0363
  570MOL0     C76882   8.336   1.693   6.920  0.1252  0.5834 -0.1241
  570MOL0     H76883   8.779   1.466   6.651 -0.1964 -1.3630 -1.8376
  570MOL0     H76884   8.999   1.544   6.583 -0.0357 -1.9236 -1.8503
  570MOL0     H76885   9.171   1.789   6.258  0.2678  0.3009  0.7582
  570MOL0     H76886   9.012   1.764   6.193 -1.2551  0.2027  0.7965
  570MOL0     H76887   9.068   1.990   6.399 -1.4027  0.0410  0.0142
  570MOL0     H76888   8.913   1.937   6.346 -0.2191 -3.0258 -2.8675
  570MOL0     H76889   9.011   1.963   6.100  1.7483 -2.8180  0.4995
  570MOL0     H76890   9.133   2.064   6.178  0.1099  1.0487  0.1648
  570MOL0     H76891   8.851   2.128   6.261 -1.7958  0.5357 -1.3077
  570MOL0     H76892   8.989   2.218   6.265 -3.4647 -0.7544  2.4883
  570MOL0     H76893   9.000   2.210   6.015 -0.4742 -1.4327 -0.8802
  570MOL0     H76894   8.856   2.115   5.998 -0.0243  1.2051 -1.6471
  570MOL0     H76895   8.726   2.287   6.105  0.4373 -1.0326  0.9191
  570MOL0     H76896   8.865   2.391   6.137 -1.6656  1.7421  0.0665
  570MOL0     H76897   8.758   2.313   5.863 -0.7218 -0.6518  0.6396
  570MOL0     H76898   8.905   2.410   5.877  0.5018  0.8891  0.9451
  570MOL0     H76899   8.628   2.487   5.978  0.4762 -0.4470  0.1715
  570MOL0     H76900   8.774   2.585   6.004  0.7670  0.0975  1.3350
  570MOL0     H76901   8.542   2.480   5.716  1.2202 -1.6144 -0.9999
  570MOL0     H76902   8.452   2.747   5.529 -0.5088 -0.6714 -0.1249
  570MOL0     H76903   8.601   2.743   5.441  1.5323  0.8059  1.4268
  570MOL0     H76904   8.551   2.511   5.371 -2.1471 -3.4367  0.1414
  570MOL0     H76905   8.459   2.487   5.523  0.8830 -0.8158  0.2249
  570MOL0     H76906   8.362   2.659   5.300  1.3987  0.4365 -0.6774
  570MOL0     H76907   8.274   2.621   5.455 -0.3432 -0.6856  0.2195
  570MOL0     H76908   8.328   2.437   5.221  1.7003  0.4867 -0.0561
  570MOL0     H76909   8.173   2.490   5.281  0.4575  0.3181 -1.5056
  570MOL0     H76910   8.257   2.139   5.519  1.5950  2.5207 -1.2525
  570MOL0     H76911   8.203   1.890   5.443  2.7240 -2.2880 -2.4070
  570MOL0     H76912   8.145   1.540   5.439 -0.6183 -0.6993  1.5747
  570MOL0     H76913   8.064   1.309   5.439  3.8195 -0.7925 -2.3622
  570MOL0     H76914   7.727   1.157   5.111  0.9548 -0.5383 -1.9432
  570MOL0     H76915   7.886   1.153   5.049 -1.5286  0.0872 -0.9803
  570MOL0     H76916   7.928   0.941   5.151 -0.9805 -2.5430 -0.1874
  570MOL0     H76917   7.772   0.956   5.252 -1.7844 -1.3935 -0.9452
  570MOL0     H76918   7.706   0.973   4.980  1.1885  2.7586  1.2213
  570MOL0     H76919   7.850   0.864   4.983  0.5841 -1.1939  2.3132
  570MOL0     H76920   7.613   0.791   5.153 -0.8907 -2.9200  0.1058
  570MOL0     H76921   7.762   0.713   5.112  0.6037  0.4397 -2.6008
  570MOL0     H76922   7.693   0.705   4.883  0.0739 -2.1087  1.3815
  570MOL0     H76923   7.534   0.779   4.910 -0.3290 -1.0250 -1.5435
  570MOL0     H76924   7.632   0.505   4.962 -0.1647 -1.3008 -0.8460
  570MOL0     H76925   7.541   0.578   5.100 -0.6783  3.1601 -0.4891
  570MOL0     H76926   7.470   0.552   4.800  0.3134 -1.0501 -0.6980
  570MOL0     H76927   7.366   0.634   4.912  1.3827  1.2637  2.4135
  570MOL0     H76928   7.454   0.345   4.892  0.1316 -0.9310  1.3817
  570MOL0     H76929   7.355   0.407   5.035 -0.7665  0.5484 -0.4410
  570MOL0     H76930   7.884   1.386   5.053 -0.4154 -2.1611  0.8459
  570MOL0     H76931   7.965   1.612   5.061 -0.1386  1.4361  1.5225
  570MOL0     H76932   8.128   2.059   5.052 -4.5333 -2.0827  0.6379
  570MOL0     H76933   8.199   2.266   5.127 -0.1931 -1.5725 -0.8617
  570MOL0     H76934   8.810   1.751   6.261  1.9708  0.8146  0.2583
  570MOL0     H76935   8.593   1.704   6.344 -1.0048 -1.3664  1.2651
  570MOL0     H76936   8.382   1.374   6.577  1.3440  0.5128  0.2839
  570MOL0     H76937   8.165   1.268   6.631 -2.1484  0.9655  0.1734
  570MOL0     H76938   8.004   1.329   7.043  0.2979 -0.2342 -0.6572
  570MOL0     H76939   7.878   1.251   6.975  0.6845  0.0508  2.0179
  570MOL0     H76940   7.930   1.541   6.933 -2.4810  2.9694  0.0329
  570MOL0     H76941   7.800   1.469   7.029  1.2674  1.7603  0.3068
  570MOL0     H76942   7.679   1.393   6.824 -0.7912 -0.1395  1.0506
  570MOL0     H76943   7.827   1.425   6.733  0.2539 -1.1754  2.5556
  570MOL0     H76944   7.799   1.669   6.742 -1.6204  0.9725 -0.5092
  570MOL0     H76945   7.646   1.595   6.700  1.3736 -1.1350 -1.4362
  570MOL0     H76946   7.535   1.810   7.032  1.1811  1.0399  1.0857
  570MOL0     H76947   8.147   1.530   6.970  2.6233  1.1126 -0.6736
  570MOL0     H76948   8.258   1.719   6.992 -3.0351 -1.6019 -2.5194
  570MOL0     H76949   8.425   1.673   6.981 -0.7334 -1.7824  0.4261
  570MOL0     H76950   8.355   1.776   6.851  0.1785  1.5492  1.0194
  571MOL0     O76951   9.659  10.591   2.315 -0.6321 -0.7878 -0.1998
  571MOL0     C76952   9.618  10.486   2.270 -0.0111 -0.2276 -0.1370
  571MOL0     O76953   9.652  10.424   2.149  0.6640 -0.7231 -0.4491
  571MOL0     C76954   9.751  10.473   2.071  1.0269  0.0336 -0.9856
  571MOL0     C76955   9.735  10.480   1.931  0.1057 -0.2416  0.1197
  571MOL0     C76956   9.839  10.503   1.845 -0.0971  1.0212 -0.2808
  571MOL0     C76957   9.964  10.523   1.894  0.5882 -0.1521  0.7228
  571MOL0     O76958  10.063  10.549   1.805 -0.0363 -0.8750 -0.1736
  571MOL0     C76959  10.192  10.618   1.846 -0.3180  0.0880  0.2804
  571MOL0     C76960  10.270  10.664   1.727  0.1001  0.2129 -0.4539
  571MOL0     C76961  10.392  10.746   1.765  0.0708  0.1175  0.1897
  571MOL0     C76962  10.495  10.749   1.646  0.0185 -0.1935  0.4193
  571MOL0     C76963  10.460  10.842   1.530  0.7151  0.0837  0.1778
  571MOL0     C76964  10.567  10.840   1.433 -0.4333 -0.1594  0.5068
  571MOL0     C76965  10.541  10.914   1.303  0.1494 -0.2734 -0.3212
  571MOL0     C76966  10.653  10.910   1.213 -0.0893  0.3364  1.3737
  571MOL0     N76967  10.698  10.772   1.160  0.2565  0.2373 -0.2278
  571MOL0     C76968  10.630  10.691   1.079  0.4179  0.6532  0.5371
  571MOL0     C76969  10.711  10.580   1.076 -0.1152  0.3485  0.8129
  571MOL0     C76970  10.687  10.449   0.999 -0.5686 -0.8758  0.5338
  571MOL0     C76971  10.638  10.494   0.849  0.3935 -0.2939  0.0584
  571MOL0     C76972  10.734  10.592   0.777 -0.0666 -0.1690  0.5444
  571MOL0     C76973  10.888  10.564   0.788  0.4557  0.2898 -0.1960
  571MOL0     O76974  10.927  10.427   0.746  0.4824 -0.7400  1.0117
  571MOL0     C76975  11.057  10.406   0.704  0.0952  0.3857 -0.3976
  571MOL0     C76976  11.094  10.275   0.671  0.2762  1.1076 -0.4327
  571MOL0     C76977  11.226  10.240   0.628 -0.4309  0.2067  0.3860
  571MOL0     C76978  11.333  10.330   0.643  0.7855  0.0229 -0.2988
  571MOL0     C76979  11.471  10.309   0.602 -0.3371 -0.7875 -0.8812
  571MOL0     O76980  11.550  10.417   0.606 -0.1466  0.0148 -0.3853
  571MOL0     C76981  11.667  10.417   0.535 -0.6587 -0.0133  0.0518
  571MOL0     C76982  11.756  10.512   0.575 -0.1857 -0.3441  0.3384
  571MOL0     C76983  11.875  10.524   0.506 -0.8165 -0.2070 -0.0536
  571MOL0     C76984  11.902  10.457   0.388 -0.1632  0.7684 -0.5192
  571MOL0     O76985  12.021  10.453   0.327  0.4349 -0.1656  0.3340
  571MOL0     C76986  12.091  10.572   0.297 -0.5397  0.6845  0.6913
  571MOL0     C76987  12.215  10.533   0.224 -0.9202  0.1251  0.3804
  571MOL0     C76988  12.193  10.461   0.093 -0.2559  0.6106  0.8932
  571MOL0     C76989  12.086  10.521   0.005  0.7149 -0.5626 -0.7308
  571MOL0     C76990  12.056  10.435  -0.128  0.0937 -0.7597  0.6392
  571MOL0     C76991  11.934  10.501  -0.205  0.4549  0.4669 -0.2183
  571MOL0     C76992  11.848  10.392  -0.262  0.7272  0.0505  0.7701
  571MOL0     C76993  11.742  10.454  -0.363 -0.0362  0.4905 -0.2804
  571MOL0    Cl76994  11.622  10.550  -0.262 -0.3001  0.4522  0.2962
  571MOL0     C76995  11.804  10.365   0.333  0.1077  0.2579  0.5821
  571MOL0     C76996  11.692  10.344   0.412 -0.3814 -0.5217 -0.1206
  571MOL0     O76997  11.504  10.194   0.572  0.2738 -0.3924 -0.5825
  571MOL0     C76998  11.296  10.461   0.685 -0.0043 -0.2000  0.0032
  571MOL0     C76999  11.163  10.492   0.710  0.3547  0.5793 -0.2171
  571MOL0     N77000  10.810  10.597   1.167  0.0437 -0.0301  0.0132
  571MOL0     N77001  10.810  10.719   1.211  0.6895 -0.5940  0.2278
  571MOL0     C77002   9.990  10.514   2.037  0.1625  1.0613  0.0719
  571MOL0     C77003   9.877  10.480   2.120 -0.6397 -0.6384  0.5459
  571MOL0     C77004   9.516  10.417   2.345 -0.1704  0.5295  0.3174
  571MOL0     C77005   9.422  10.341   2.277 -0.1924  0.6059  0.4859
  571MOL0     C77006   9.330  10.264   2.345 -0.9400 -0.1133 -0.0942
  571MOL0     C77007   9.322  10.246   2.479 -0.4140 -0.9065  1.2172
  571MOL0     O77008   9.246  10.141   2.521  0.1947  1.0995  0.0059
  571MOL0     C77009   9.166  10.165   2.637  0.4194 -0.3085  0.2794
  571MOL0     C77010   9.017  10.180   2.599 -0.7242 -0.4631 -0.1850
  571MOL0     C77011   8.932  10.187   2.725  0.3040  0.6364 -0.2103
  571MOL0     C77012   8.970  10.300   2.824  0.1212  0.7267 -0.1650
  571MOL0     C77013   8.873  10.318   2.938 -0.1294  0.2451  0.4967
  571MOL0     C77014   8.791  10.321   3.023  0.0075 -0.9213  0.0737
  571MOL0     C77015   9.426  10.310   2.551 -0.0759  0.9346  0.3197
  571MOL0     C77016   9.525  10.393   2.482  0.0183 -0.6163 -0.2688
  571MOL0     C77017   9.621  10.450   2.587  0.4670 -0.2465 -0.2686
  571MOL0     H77018   9.643  10.437   1.893 -1.8956  0.9883  3.1534
  571MOL0     H77019   9.833  10.495   1.737  1.2457 -1.5996 -0.2475
  571MOL0     H77020  10.185  10.703   1.915 -0.3757  2.6213 -2.6183
  571MOL0     H77021  10.247  10.544   1.905  0.3249  0.9060  0.7205
  571MOL0     H77022  10.197  10.721   1.668 -3.1550 -0.3549  2.6461
  571MOL0     H77023  10.310  10.576   1.678  0.8747  0.3857 -0.1547
  571MOL0     H77024  10.433  10.701   1.856 -0.3066 -1.3467 -0.3312
  571MOL0     H77025  10.350  10.844   1.790  2.1111  0.6167  1.8828
  571MOL0     H77026  10.596  10.770   1.679 -0.0418  2.8702 -1.0108
  571MOL0     H77027  10.507  10.646   1.613  2.3546 -0.0490  0.7090
  571MOL0     H77028  10.368  10.799   1.488 -0.3502  2.2720  0.1064
  571MOL0     H77029  10.442  10.942   1.572 -0.1752 -1.0641  2.7745
  571MOL0     H77030  10.654  10.882   1.484 -0.6747  4.2567 -2.2665
  571MOL0     H77031  10.585  10.733   1.418 -3.1645 -1.2498  3.7255
  571MOL0     H77032  10.538  11.017   1.341 -1.4618 -0.3490 -0.1788
  571MOL0     H77033  10.450  10.880   1.254  0.5066 -2.2668  0.3117
  571MOL0     H77034  10.618  10.962   1.123 -0.1772  0.8054  1.6762
  571MOL0     H77035  10.735  10.967   1.257  0.9421  0.5093 -0.6809
  571MOL0     H77036  10.535  10.708   1.029 -0.0797 -0.7688  0.9523
  571MOL0     H77037  10.779  10.390   0.998 -0.2655 -0.4697 -2.0561
  571MOL0     H77038  10.610  10.393   1.054 -3.6726  1.4743 -1.1265
  571MOL0     H77039  10.622  10.407   0.784  1.4211 -1.2578  1.0380
  571MOL0     H77040  10.539  10.540   0.847  1.1857  1.6348  1.5439
  571MOL0     H77041  10.725  10.694   0.815 -2.0806  0.3434 -1.1143
  571MOL0     H77042  10.701  10.608   0.674  0.5079 -3.5799 -0.2868
  571MOL0     H77043  10.922  10.582   0.891 -2.2982 -0.0129  0.8566
  571MOL0     H77044  10.947  10.628   0.722 -1.8337  2.4599 -0.2793
  571MOL0     H77045  11.013  10.209   0.642 -0.1620  0.5918  1.7985
  571MOL0     H77046  11.240  10.141   0.587 -0.8963  0.4905 -0.4888
  571MOL0     H77047  11.736  10.573   0.662  0.2755 -1.6750  1.4115
  571MOL0     H77048  11.948  10.598   0.537 -0.1951  0.2248 -2.3554
  571MOL0     H77049  12.043  10.650   0.237  1.2383 -2.3192 -5.6052
  571MOL0     H77050  12.132  10.612   0.390 -0.3037 -0.0811  0.9246
  571MOL0     H77051  12.291  10.611   0.216  4.5535 -4.6722 -0.8120
  571MOL0     H77052  12.270  10.467   0.292  1.1574  0.8165 -0.5501
  571MOL0     H77053  12.280  10.439   0.030 -1.8285  1.8024 -1.9102
  571MOL0     H77054  12.146  10.363   0.108 -1.3696  0.8130 -0.9426
  571MOL0     H77055  12.114  10.621  -0.030 -0.2014  0.5232  1.4693
  571MOL0     H77056  11.995  10.537   0.063  0.8357 -0.9743 -0.4168
  571MOL0     H77057  12.038  10.330  -0.105 -1.0716 -1.1127 -1.6133
  571MOL0     H77058  12.148  10.443  -0.187  1.7482  0.0577  3.1732
  571MOL0     H77059  11.870  10.560  -0.139  1.1133  1.5492 -0.5305
  571MOL0     H77060  11.965  10.575  -0.278  0.8895  1.2393  0.7247
  571MOL0     H77061  11.789  10.354  -0.178 -0.7434  0.4416 -0.0593
  571MOL0     H77062  11.908  10.310  -0.303 -1.0640 -0.5981 -0.7155
  571MOL0     H77063  11.794  10.517  -0.436  2.2121 -2.0863 -1.0539
  571MOL0     H77064  11.695  10.374  -0.421 -1.2915  1.0455 -0.0701
  571MOL0     H77065  11.823  10.302   0.246 -1.5817  0.6479 -0.1051
  571MOL0     H77066  11.612  10.281   0.374 -0.8343  0.0513 -0.1277
  571MOL0     H77067  11.363  10.542   0.709 -1.0456  0.7299 -0.1580
  571MOL0     H77068  11.153  10.600   0.721 -0.5052  0.4805  0.0502
  571MOL0     H77069  10.089  10.515   2.082 -0.4513  1.2185  1.4383
  571MOL0     H77070   9.897  10.435   2.216 -3.5966  0.2096  1.6979
  571MOL0     H77071   9.395  10.350   2.172 -1.7187 -0.4536  0.7619
  571MOL0     H77072   9.251  10.209   2.294 -0.9979  1.2960 -1.6308
  571MOL0     H77073   9.197  10.256   2.690 -2.8871  1.1106  0.0073
  571MOL0     H77074   9.174  10.079   2.704  2.2397  1.4387  2.4864
  571MOL0     H77075   8.975  10.107   2.529  0.1173 -0.2401 -0.9377
  571MOL0     H77076   9.008  10.278   2.552 -1.7096  0.1502  1.2062
  571MOL0     H77077   8.944  10.093   2.780  1.3299  0.6369 -0.4208
  571MOL0     H77078   8.827  10.191   2.695  0.2875 -0.1361 -0.2757
  571MOL0     H77079   9.064  10.277   2.875  0.7756  1.4791 -1.0246
  571MOL0     H77080   8.989  10.394   2.773  1.6658  0.0715 -0.8521
  571MOL0     H77081   8.718  10.315   3.101 -0.0779  0.5874  0.1344
  571MOL0     H77082   9.418  10.293   2.658 -0.2410  1.0954  0.3345
  571MOL0     H77083   9.583  10.535   2.645 -0.5860 -1.2901  0.6212
  571MOL0     H77084   9.649  10.373   2.660 -3.1346 -1.2043  0.2909
  571MOL0     H77085   9.712  10.488   2.540  1.0079 -1.7221 -0.4775
  572MOL0     O77086   9.456  10.689   9.995  0.0734 -0.3191  0.5333
  572MOL0     C77087   9.369  10.637  10.057 -0.1040 -0.4048  0.1693
  572MOL0     O77088   9.392  10.529  10.142  0.0490 -0.0618  0.5033
  572MOL0     C77089   9.524  10.489  10.163  0.6871  0.1148 -0.7561
  572MOL0     C77090   9.596  10.397  10.083  2.0549  1.1226  0.2061
  572MOL0     C77091   9.727  10.357  10.107 -0.9463  0.3343  0.9352
  572MOL0     C77092   9.799  10.403  10.216 -0.6925  0.4731 -0.1663
  572MOL0     O77093   9.935  10.382  10.248 -0.0272 -0.0926 -0.0945
  572MOL0     C77094  10.034  10.367  10.134 -0.0125 -0.6421 -0.4043
  572MOL0     C77095  10.165  10.331  10.194 -0.3829 -0.3971 -0.2856
  572MOL0     C77096  10.239  10.452  10.250  0.0234 -0.2859  0.0926
  572MOL0     C77097  10.176  10.520  10.374  0.2512  0.1012  0.0550
  572MOL0     C77098  10.271  10.630  10.429  0.3421  0.1885 -0.1703
  572MOL0     C77099  10.202  10.704  10.542 -0.2122 -1.3405 -0.7704
  572MOL0     C77100  10.066  10.777  10.503 -0.7131  0.0290 -0.7028
  572MOL0     C77101  10.069  10.868  10.388 -0.7900  0.2056  0.1082
  572MOL0     N77102   9.940  10.876  10.321 -0.0813 -0.7273  0.3321
  572MOL0     C77103   9.832  10.941  10.371 -0.1743  0.4451 -0.8105
  572MOL0     C77104   9.741  10.923  10.273  0.4101 -0.3340  0.2908
  572MOL0     C77105   9.595  10.956  10.283  0.0573 -0.3883 -0.4434
  572MOL0     C77106   9.581  11.098  10.217  1.1234 -0.0261  0.6080
  572MOL0     C77107   9.630  11.203  10.319  0.3266 -0.0801  0.2803
  572MOL0     C77108   9.604  11.338  10.246  0.4073 -0.7647  0.3103
  572MOL0     O77109   9.649  11.455  10.317  0.4188 -0.2780  0.3429
  572MOL0     C77110   9.637  11.571  10.249  0.0337  0.2004 -0.6554
  572MOL0     C77111   9.702  11.591  10.127  0.1499 -0.4671  0.1536
  572MOL0     C77112   9.700  11.709  10.055 -0.0457 -0.5206  0.2504
  572MOL0     C77113   9.621  11.819  10.110  0.1334  0.3720 -0.6779
  572MOL0     C77114   9.626  11.941  10.033  0.0742  0.4991  0.4534
  572MOL0     O77115   9.664  11.939   9.900  0.5907 -0.3719  0.4505
  572MOL0     C77116   9.713  12.056   9.846  0.5881  0.7262 -0.1154
  572MOL0     C77117   9.814  12.130   9.905 -0.4063 -0.3847  0.0054
  572MOL0     C77118   9.863  12.243   9.836 -0.2484 -0.2461 -0.4780
  572MOL0     C77119   9.826  12.274   9.705  0.1599 -0.5342 -0.4819
  572MOL0     O77120   9.886  12.389   9.655 -0.0593  0.0183  0.0302
  572MOL0     C77121   9.829  12.458   9.542  0.0566  0.5311  0.1748
  572MOL0     C77122   9.883  12.394   9.418  0.2249 -0.2643 -0.2978
  572MOL0     C77123   9.846  12.460   9.280  0.3034  0.0990 -0.1251
  572MOL0     C77124   9.939  12.423   9.157 -0.8136  0.1830  0.2180
  572MOL0     C77125   9.882  12.448   9.023 -0.1892  0.4112 -0.8401
  572MOL0     C77126   9.991  12.415   8.920  0.1271  0.5537 -0.0424
  572MOL0     C77127   9.953  12.462   8.780  0.2375  0.1752  0.0686
  572MOL0     C77128  10.074  12.464   8.685  0.0692  0.2301  0.0858
  572MOL0    Cl77129  10.132  12.293   8.658 -0.1360 -0.2938 -0.3754
  572MOL0     C77130   9.732  12.196   9.643  0.9873  0.0376  0.2889
  572MOL0     C77131   9.675  12.085   9.718 -0.8750 -0.6152  0.5264
  572MOL0     O77132   9.571  12.038  10.082 -0.0652 -0.1637 -0.2647
  572MOL0     C77133   9.563  11.807  10.242  0.0563  0.3526 -0.1598
  572MOL0     C77134   9.564  11.677  10.308  0.3421 -0.1946  0.5046
  572MOL0     N77135   9.808  10.859  10.166  0.2739  0.1440 -0.1384
  572MOL0     N77136   9.923  10.828  10.202  0.1942  0.2169  0.5374
  572MOL0     C77137   9.734  10.490  10.301 -0.5765  0.7486  0.0268
  572MOL0     C77138   9.603  10.526  10.268  0.7579 -0.6822 -0.0058
  572MOL0     C77139   9.233  10.692  10.020  0.0214  0.3716 -0.2966
  572MOL0     C77140   9.124  10.615  10.052  0.5806  0.0851 -0.6089
  572MOL0     C77141   8.997  10.666  10.033  0.5218 -0.1188  0.3619
  572MOL0     C77142   8.970  10.784   9.971 -0.5285 -0.3269  0.3704
  572MOL0     O77143   8.842  10.803   9.944  0.0492 -0.3527  0.8277
  572MOL0     C77144   8.795  10.938   9.950  0.5220  0.0246 -0.1583
  572MOL0     C77145   8.657  10.922   9.894  0.2920 -0.4454  0.5120
  572MOL0     C77146   8.577  10.838   9.991  0.0658  0.3329 -0.2971
  572MOL0     C77147   8.435  10.811   9.938  0.6263  1.0935  0.2515
  572MOL0     C77148   8.350  10.933   9.960 -0.2860  0.1134 -0.2429
  572MOL0     C77149   8.292  11.038   9.953  0.0612 -0.4164  0.4565
  572MOL0     C77150   9.083  10.858   9.930  0.1964  0.2519 -1.0226
  572MOL0     C77151   9.215  10.815   9.957 -0.2050 -0.2217  0.5215
  572MOL0     C77152   9.314  10.902   9.889 -0.8231 -0.3920  0.0831
  572MOL0     H77153   9.549  10.349   9.998 -0.8069  0.4534  2.0367
  572MOL0     H77154   9.779  10.294  10.036  0.7742  0.6478  1.8528
  572MOL0     H77155   9.998  10.284  10.071  1.0863 -0.9251 -0.6757
  572MOL0     H77156  10.046  10.455  10.070  2.9425 -1.9943 -1.9409
  572MOL0     H77157  10.221  10.274  10.120  0.0325 -2.3235  1.4523
  572MOL0     H77158  10.148  10.253  10.269 -0.2222 -3.3886 -3.1644
  572MOL0     H77159  10.247  10.522  10.166 -2.9023 -1.3977 -1.2542
  572MOL0     H77160  10.338  10.418  10.281  0.2936  0.3921 -0.0080
  572MOL0     H77161  10.082  10.568  10.346  1.6000  2.4923 -0.6747
  572MOL0     H77162  10.162  10.447  10.454 -2.1320 -1.7169 -1.8539
  572MOL0     H77163  10.360  10.585  10.474  1.4677  1.2327 -1.2648
  572MOL0     H77164  10.303  10.693  10.345  0.7326  0.3420  0.0920
  572MOL0     H77165  10.182  10.633  10.622 -2.7945  0.5199  0.3554
  572MOL0     H77166  10.270  10.777  10.588  1.0354 -0.7905 -3.2979
  572MOL0     H77167  10.021  10.822  10.591 -0.3701  1.6132 -1.3070
  572MOL0     H77168   9.993  10.701  10.474  0.0989 -0.6686 -0.9924
  572MOL0     H77169  10.075  10.965  10.439  0.0977 -0.5211  1.4315
  572MOL0     H77170  10.163  10.865  10.332  2.0480  0.5752  4.4151
  572MOL0     H77171   9.818  10.976  10.473 -0.9874 -0.2199 -0.6790
  572MOL0     H77172   9.529  10.892  10.225 -1.0740  0.2174  0.1468
  572MOL0     H77173   9.558  10.960  10.386  0.4267  0.4505 -0.3328
  572MOL0     H77174   9.642  11.107  10.127  2.6819  0.5213  1.6846
  572MOL0     H77175   9.475  11.113  10.197  0.6140 -0.6935  2.5447
  572MOL0     H77176   9.736  11.207  10.347  0.2821  2.4027  0.2986
  572MOL0     H77177   9.572  11.202  10.412  0.7560 -2.2126  0.5906
  572MOL0     H77178   9.497  11.350  10.227  0.6094  2.1968  0.6368
  572MOL0     H77179   9.648  11.336  10.146  1.3593  1.8617  0.6154
  572MOL0     H77180   9.760  11.511  10.082 -0.2030 -1.4528  1.4079
  572MOL0     H77181   9.765  11.727   9.970  1.1422 -1.1012  1.0062
  572MOL0     H77182   9.856  12.116  10.005  0.5998  1.5515 -0.0843
  572MOL0     H77183   9.937  12.307   9.883 -0.5662 -1.0344  1.1842
  572MOL0     H77184   9.720  12.450   9.547 -0.0458  1.5090 -0.3662
  572MOL0     H77185   9.843  12.565   9.560 -0.3366  0.0679  3.9865
  572MOL0     H77186   9.991  12.401   9.431  0.0434 -0.0015  1.2866
  572MOL0     H77187   9.858  12.288   9.418  2.3257 -0.8237 -1.1307
  572MOL0     H77188   9.742  12.429   9.264 -0.9205  2.9764  1.4321
  572MOL0     H77189   9.824  12.566   9.296 -0.9516 -0.6307  4.2818
  572MOL0     H77190   9.945  12.314   9.156  1.9678  0.2265 -3.1398
  572MOL0     H77191  10.042  12.457   9.171 -0.9091  2.6339 -3.7858
  572MOL0     H77192   9.860  12.555   9.030  0.1740  0.3784  4.2669
  572MOL0     H77193   9.794  12.383   9.012  0.1797 -0.6411  1.7722
  572MOL0     H77194  10.081  12.465   8.956  0.5729  0.2305 -0.6910
  572MOL0     H77195  10.015  12.309   8.907 -2.0680  0.0716 -0.6670
  572MOL0     H77196   9.907  12.561   8.772 -0.8881 -0.4532 -1.6115
  572MOL0     H77197   9.879  12.394   8.739  0.4887 -1.5635  2.2804
  572MOL0     H77198  10.048  12.497   8.583  1.1089  1.9175  0.3287
  572MOL0     H77199  10.147  12.525   8.739  1.9934 -1.8275 -0.0516
  572MOL0     H77200   9.692  12.212   9.543  3.3232 -2.0232 -1.0959
  572MOL0     H77201   9.606  12.019   9.667 -1.7022 -0.6558  1.6512
  572MOL0     H77202   9.519  11.897  10.282 -0.0434 -0.0432  0.6356
  572MOL0     H77203   9.511  11.671  10.402  1.8427  4.6447  1.9219
  572MOL0     H77204   9.789  10.531  10.385 -0.9734 -0.2927  0.8078
  572MOL0     H77205   9.548  10.598  10.328 -0.0305  0.1800 -1.7020
  572MOL0     H77206   9.151  10.520  10.095  2.9058  0.2498 -1.5820
  572MOL0     H77207   8.919  10.600  10.070  2.4507 -3.6477 -1.3982
  572MOL0     H77208   8.855  11.013   9.897 -0.4384  0.4938 -0.6228
  572MOL0     H77209   8.781  10.969  10.054  0.1369 -0.9661  0.0934
  572MOL0     H77210   8.657  10.866   9.800  3.0580  0.1544  0.0664
  572MOL0     H77211   8.611  11.021   9.884  0.0139 -0.6425 -0.2397
  572MOL0     H77212   8.569  10.879  10.092 -0.4538 -1.3106  0.3525
  572MOL0     H77213   8.615  10.736   9.991 -0.7369  0.0297 -0.5835
  572MOL0     H77214   8.426  10.783   9.833 -2.0166 -1.8812  1.0947
  572MOL0     H77215   8.396  10.729  10.000 -0.3343  0.7538 -0.7587
  572MOL0     H77216   8.230  11.125   9.951 -1.3828 -1.3766  1.0557
  572MOL0     H77217   9.059  10.949   9.877 -0.3814  0.0954 -1.0386
  572MOL0     H77218   9.369  10.841   9.816 -0.9427  1.4899 -1.6844
  572MOL0     H77219   9.281  10.998   9.849  0.4637 -1.0660 -2.9550
  572MOL0     H77220   9.389  10.910   9.969 -1.3215 -3.4846  1.0069
  573MOL0     O77221   4.259   4.670   3.639  0.6359  0.3935 -0.3510
  573MOL0     C77222   4.352   4.729   3.699  0.1526  0.1109 -0.2249
  573MOL0     O77223   4.338   4.854   3.750 -0.8981 -0.3420  0.1333
  573MOL0     C77224   4.238   4.935   3.712 -0.0926 -0.9663 -0.0179
  573MOL0     C77225   4.213   4.977   3.577  0.6268 -0.7867  0.7248
  573MOL0     C77226   4.102   5.057   3.558  0.1085  0.5784 -0.0578
  573MOL0     C77227   4.010   5.084   3.661  0.0205 -0.4941 -0.3086
  573MOL0     O77228   3.912   5.176   3.630  0.2680 -0.0514  0.1701
  573MOL0     C77229   3.803   5.131   3.545 -0.6817 -0.2433  0.0440
  573MOL0     C77230   3.678   5.085   3.615  0.1433 -1.0211 -0.6661
  573MOL0     C77231   3.575   5.196   3.632  0.9896 -1.0757 -0.7928
  573MOL0     C77232   3.475   5.145   3.739  0.6820  0.4740  0.7149
  573MOL0     C77233   3.357   5.236   3.784  0.1785 -0.2438 -0.5889
  573MOL0     C77234   3.258   5.176   3.888  0.9736  0.0214  0.3939
  573MOL0     C77235   3.173   5.286   3.956  1.1417  0.8936 -0.0969
  573MOL0     C77236   3.061   5.227   4.037 -0.0395 -0.0195 -0.3219
  573MOL0     N77237   3.004   5.333   4.125  0.5803 -0.4252 -0.6179
  573MOL0     C77238   3.060   5.386   4.237 -0.0334  0.1138 -0.1818
  573MOL0     C77239   2.996   5.506   4.247  0.0015 -0.4973  0.7487
  573MOL0     C77240   3.046   5.610   4.343 -0.7060 -0.0832 -0.2899
  573MOL0     C77241   3.171   5.668   4.279 -0.2136 -0.3209 -0.7807
  573MOL0     C77242   3.189   5.802   4.333  1.0569  1.2195 -0.4712
  573MOL0     C77243   3.337   5.847   4.340 -0.1098  0.8092 -1.0206
  573MOL0     O77244   3.377   5.888   4.204 -0.3665  0.1109 -0.1450
  573MOL0     C77245   3.494   5.844   4.160  0.1676 -0.1479  1.4565
  573MOL0     C77246   3.499   5.826   4.021 -0.0492 -0.8085 -0.3462
  573MOL0     C77247   3.622   5.809   3.962  1.1194  0.0613  0.6262
  573MOL0     C77248   3.736   5.774   4.039  0.4923 -0.8109  0.2368
  573MOL0     C77249   3.861   5.755   3.967  0.2020  0.7938 -0.8176
  573MOL0     O77250   3.850   5.715   3.836 -0.8613 -1.0373 -0.1584
  573MOL0     C77251   3.965   5.663   3.774  0.0874 -0.3355  0.2790
  573MOL0     C77252   3.977   5.524   3.761 -1.8089 -0.1671 -1.1577
  573MOL0     C77253   4.099   5.474   3.712 -0.4352  0.2185  0.8951
  573MOL0     C77254   4.205   5.553   3.668  0.4654 -0.0329  0.6975
  573MOL0     O77255   4.332   5.499   3.648  0.0883  0.5201 -0.1027
  573MOL0     C77256   4.349   5.363   3.610 -0.6649 -0.1772  0.3887
  573MOL0     C77257   4.497   5.328   3.587  0.4741  0.2106  0.4220
  573MOL0     C77258   4.522   5.179   3.557  0.8095  0.1598 -0.2625
  573MOL0     C77259   4.536   5.085   3.680 -0.1413 -1.5303  0.5398
  573MOL0     C77260   4.671   5.085   3.751  0.3837  0.4671 -0.7168
  573MOL0     C77261   4.778   5.046   3.657  0.7435  0.6097  0.0833
  573MOL0     C77262   4.925   5.023   3.734  0.5476 -1.2376  0.3793
  573MOL0     C77263   5.037   5.012   3.629 -0.0492 -0.1142 -0.1852
  573MOL0    Cl77264   5.194   4.976   3.712 -0.4019  0.1181 -0.0451
  573MOL0     C77265   4.189   5.689   3.671  0.2044  0.2514 -1.0606
  573MOL0     C77266   4.071   5.748   3.725  1.9129  0.3231  0.6471
  573MOL0     O77267   3.963   5.747   4.034 -0.0892  0.0404  0.7740
  573MOL0     C77268   3.732   5.796   4.177 -0.3847  1.0803 -0.1331
  573MOL0     C77269   3.609   5.832   4.236  0.1750  0.0057 -0.1834
  573MOL0     N77270   2.894   5.517   4.153  0.1462  0.1328 -1.1139
  573MOL0     N77271   2.898   5.411   4.084 -0.5352 -0.3659 -0.0053
  573MOL0     C77272   4.042   5.053   3.792  0.3774 -0.6106 -0.2520
  573MOL0     C77273   4.149   4.971   3.822 -0.7443  0.0761  0.0815
  573MOL0     C77274   4.485   4.656   3.726 -0.0920 -0.7011  0.6599
  573MOL0     C77275   4.587   4.727   3.801  1.1247 -0.4888 -0.6961
  573MOL0     C77276   4.712   4.677   3.825 -0.3456  0.5831  0.6022
  573MOL0     C77277   4.751   4.550   3.774  0.1693  0.3045  0.0073
  573MOL0     O77278   4.874   4.497   3.792  0.0198  0.5191 -0.3103
  573MOL0     C77279   4.971   4.592   3.805  0.4067 -0.7056 -0.4449
  573MOL0     C77280   5.098   4.515   3.819  0.2167  0.4350  0.8506
  573MOL0     C77281   5.229   4.603   3.795  0.9163 -0.0429 -0.4069
  573MOL0     C77282   5.341   4.505   3.790 -0.9736  0.4443  0.3637
  573MOL0     C77283   5.469   4.572   3.777 -1.2717 -0.2422  0.3120
  573MOL0     C77284   5.587   4.613   3.774  0.0613  1.7377 -0.2241
  573MOL0     C77285   4.659   4.482   3.695 -0.0139  0.2886  0.7010
  573MOL0     C77286   4.528   4.530   3.674 -0.8001  0.4947 -0.1903
  573MOL0     C77287   4.436   4.442   3.589 -0.3964 -0.2547 -0.4742
  573MOL0     H77288   4.289   4.971   3.500 -0.2217 -0.5102 -0.1427
  573MOL0     H77289   4.085   5.101   3.460 -1.3620  0.2752  0.0425
  573MOL0     H77290   3.787   5.224   3.490 -0.8942  0.3626  1.0906
  573MOL0     H77291   3.825   5.054   3.471 -1.1538  1.3180 -1.8161
  573MOL0     H77292   3.708   5.043   3.712 -1.1223 -1.1489 -0.3086
  573MOL0     H77293   3.632   5.004   3.558 -2.1414 -0.4067  0.1778
  573MOL0     H77294   3.532   5.224   3.536 -3.4526 -1.2160  0.8950
  573MOL0     H77295   3.624   5.280   3.682 -0.3520  0.4853 -1.9924
  573MOL0     H77296   3.420   5.064   3.692  1.6105  0.5288 -0.5075
  573MOL0     H77297   3.532   5.117   3.828 -0.9957  0.0161  1.6918
  573MOL0     H77298   3.398   5.324   3.835 -0.6344 -0.4014  0.3742
  573MOL0     H77299   3.302   5.273   3.697 -0.9528 -0.6438 -0.0632
  573MOL0     H77300   3.194   5.103   3.838  2.4636 -1.1152  0.0699
  573MOL0     H77301   3.319   5.113   3.954  4.0488 -0.7319 -2.8958
  573MOL0     H77302   3.123   5.338   3.873 -0.9298 -0.8624 -0.0163
  573MOL0     H77303   3.226   5.359   4.018  1.2107  0.2027  0.6621
  573MOL0     H77304   2.995   5.183   3.962 -1.4286 -2.1460  1.9976
  573MOL0     H77305   3.096   5.149   4.104 -2.2967 -0.5038  0.3922
  573MOL0     H77306   3.149   5.350   4.287  0.9271  2.3001 -0.2185
  573MOL0     H77307   2.973   5.691   4.354  0.0574  0.7186 -0.8967
  573MOL0     H77308   3.064   5.564   4.440 -0.5668  1.7047  0.5707
  573MOL0     H77309   3.260   5.606   4.293 -0.8325 -1.4866 -1.8072
  573MOL0     H77310   3.160   5.671   4.170 -3.1961 -1.4624 -0.5873
  573MOL0     H77311   3.138   5.812   4.429 -2.3679  1.8500 -2.2262
  573MOL0     H77312   3.131   5.875   4.276 -1.6533  1.6502  2.5876
  573MOL0     H77313   3.390   5.766   4.389  2.0433  1.9901 -1.2932
  573MOL0     H77314   3.348   5.929   4.412  0.0639  0.8744 -1.1208
  573MOL0     H77315   3.419   5.847   3.952  0.7039  0.3469 -0.9016
  573MOL0     H77316   3.626   5.843   3.859 -1.4957 -1.0287  0.0776
  573MOL0     H77317   3.912   5.441   3.786 -0.9712 -0.5393 -0.1431
  573MOL0     H77318   4.113   5.367   3.701  1.3640  0.5320 -0.3214
  573MOL0     H77319   4.309   5.286   3.677 -0.1187 -1.1542 -0.3798
  573MOL0     H77320   4.294   5.346   3.517 -1.5799 -2.3765  1.2402
  573MOL0     H77321   4.528   5.395   3.506  0.0146  2.2037  1.8079
  573MOL0     H77322   4.552   5.358   3.677  0.2495 -0.6957  0.8701
  573MOL0     H77323   4.437   5.138   3.503  0.0954  0.1413  0.8328
  573MOL0     H77324   4.615   5.174   3.499  0.7062  0.4150 -0.4519
  573MOL0     H77325   4.527   4.986   3.634  2.7540 -1.3896 -0.5304
  573MOL0     H77326   4.459   5.111   3.753 -1.0556 -0.3138 -0.7834
  573MOL0     H77327   4.673   5.015   3.834 -3.0093 -1.4326 -2.0138
  573MOL0     H77328   4.689   5.186   3.789  0.6791  0.1128  0.1130
  573MOL0     H77329   4.747   4.963   3.592  0.7975  0.5851  0.0898
  573MOL0     H77330   4.803   5.130   3.591  0.8301  1.0540  0.6757
  573MOL0     H77331   4.913   4.934   3.797 -1.7092 -1.9243 -0.8914
  573MOL0     H77332   4.948   5.107   3.800 -0.3093 -0.8394  0.1916
  573MOL0     H77333   5.010   4.921   3.576 -1.3998 -1.7630  3.0559
  573MOL0     H77334   5.047   5.100   3.565  1.2884 -0.4571 -0.4909
  573MOL0     H77335   4.277   5.742   3.636  2.1324 -1.1885  1.2355
  573MOL0     H77336   4.056   5.855   3.738  0.8259  0.4590 -1.3931
  573MOL0     H77337   3.820   5.796   4.241  0.3517 -2.3173 -0.9761
  573MOL0     H77338   3.597   5.839   4.344  2.3806 -3.9745  0.4947
  573MOL0     H77339   3.971   5.085   3.867  3.3906  3.9441  1.1239
  573MOL0     H77340   4.177   4.942   3.923  0.4625 -0.4148 -0.3699
  573MOL0     H77341   4.568   4.820   3.853  1.9721 -2.4298  3.5350
  573MOL0     H77342   4.778   4.728   3.894  0.3397 -0.8763  1.0815
  573MOL0     H77343   4.949   4.664   3.884 -1.2856  1.8243 -3.0012
  573MOL0     H77344   4.969   4.659   3.719 -0.4073  2.1218  1.6435
  573MOL0     H77345   5.090   4.419   3.767 -0.7274  1.1385 -0.3662
  573MOL0     H77346   5.099   4.488   3.925  0.3198  0.7547  0.9330
  573MOL0     H77347   5.244   4.679   3.872 -0.5121 -1.2009  1.0804
  573MOL0     H77348   5.217   4.655   3.699 -1.7259 -0.9758 -0.6599
  573MOL0     H77349   5.344   4.449   3.884 -2.1891 -0.1207  0.0908
  573MOL0     H77350   5.338   4.432   3.708 -0.5550  0.7723  0.0520
  573MOL0     H77351   5.692   4.634   3.774  0.5760 -0.5205 -0.3857
  573MOL0     H77352   4.682   4.385   3.653 -0.2387  0.5724 -0.0962
  573MOL0     H77353   4.409   4.499   3.500  0.1828 -1.4520 -1.4496
  573MOL0     H77354   4.486   4.346   3.570  0.1637 -0.1596  0.4316
  573MOL0     H77355   4.350   4.426   3.655  1.1833  2.6041  2.5934
  574MOL0     O77356   1.310  11.184   9.606 -0.0195 -0.3462  0.5937
  574MOL0     C77357   1.389  11.231   9.532 -0.7662  0.3517  0.0671
  574MOL0     O77358   1.361  11.285   9.411  0.2263 -0.3436  0.2358
  574MOL0     C77359   1.238  11.291   9.355  0.7191  0.2352 -0.7392
  574MOL0     C77360   1.233  11.303   9.216  0.0457  0.2536 -0.1859
  574MOL0     C77361   1.111  11.328   9.149 -0.3502  0.1121 -0.5895
  574MOL0     C77362   0.989  11.331   9.229  0.6424 -1.3706 -0.1122
  574MOL0     O77363   0.859  11.350   9.175  0.3960  0.8778  0.3055
  574MOL0     C77364   0.839  11.425   9.052  0.6836  0.2093  0.2600
  574MOL0     C77365   0.688  11.407   9.016 -0.2732  0.2338  0.3768
  574MOL0     C77366   0.593  11.460   9.127 -0.0009 -0.4685 -0.6197
  574MOL0     C77367   0.454  11.440   9.078 -0.0424  0.5892  0.6017
  574MOL0     C77368   0.352  11.535   9.136 -0.1505 -0.2371  1.2129
  574MOL0     C77369   0.214  11.462   9.128  0.1126 -0.9506  0.1456
  574MOL0     C77370   0.103  11.549   9.185 -0.3045 -0.2708 -0.0534
  574MOL0     C77371   0.066  11.672   9.089 -0.5452  0.0580 -0.1786
  574MOL0     N77372  -0.074  11.710   9.113 -0.1808  0.0776  0.1338
  574MOL0     C77373  -0.191  11.657   9.055 -0.2701  0.6924 -0.4149
  574MOL0     C77374  -0.287  11.709   9.135 -0.2156  0.1663  0.3394
  574MOL0     C77375  -0.437  11.676   9.135  0.0439  0.1331  0.3481
  574MOL0     C77376  -0.505  11.809   9.099 -0.1504 -0.4796  0.1281
  574MOL0     C77377  -0.465  11.860   8.957 -0.6209 -0.1586 -0.2898
  574MOL0     C77378  -0.559  11.978   8.913  0.3385 -0.3861 -0.8490
  574MOL0     O77379  -0.692  11.940   8.907  0.5080  0.7456  0.0354
  574MOL0     C77380  -0.735  11.832   8.823 -0.2857  0.3294  0.4502
  574MOL0     C77381  -0.855  11.764   8.853  0.6546 -0.3924 -0.3620
  574MOL0     C77382  -0.910  11.662   8.770  0.1910 -0.8713 -1.1659
  574MOL0     C77383  -0.846  11.627   8.652  0.1452  0.0630  0.0153
  574MOL0     C77384  -0.901  11.529   8.554  0.7659  0.8303  0.0241
  574MOL0     O77385  -1.004  11.448   8.592 -0.2242 -0.2279 -0.6614
  574MOL0     C77386  -1.045  11.340   8.515 -0.3822 -0.3773  0.5544
  574MOL0     C77387  -1.109  11.345   8.394 -0.5289 -0.0836 -0.0136
  574MOL0     C77388  -1.170  11.240   8.334 -0.0743  0.0943  0.4516
  574MOL0     C77389  -1.181  11.119   8.403 -0.2099 -0.0839  0.2480
  574MOL0     O77390  -1.247  11.002   8.367  0.1702  0.7613  0.0681
  574MOL0     C77391  -1.374  11.019   8.301 -0.6049 -0.1809  0.2472
  574MOL0     C77392  -1.431  10.887   8.255  0.1254 -0.0791  0.2510
  574MOL0     C77393  -1.584  10.893   8.213 -0.0198 -0.1759  0.1011
  574MOL0     C77394  -1.628  10.770   8.139 -0.5350 -0.7389  0.2847
  574MOL0     C77395  -1.777  10.778   8.101 -1.0021 -0.0217 -0.1824
  574MOL0     C77396  -1.829  10.657   8.038  0.4893  0.3185 -0.7455
  574MOL0     C77397  -1.984  10.635   8.045  0.1578 -0.8369  0.2439
  574MOL0     C77398  -2.068  10.724   7.954  0.9597 -0.4387  0.4630
  574MOL0    Cl77399  -2.080  10.904   7.992  0.0090  0.2414  0.3955
  574MOL0     C77400  -1.116  11.105   8.526  0.2729  0.4080 -0.3759
  574MOL0     C77401  -1.053  11.217   8.582  0.7938 -0.4484 -0.7450
  574MOL0     O77402  -0.840  11.512   8.448  0.6349  0.0138  0.0793
  574MOL0     C77403  -0.724  11.687   8.626 -0.7689  0.1387  0.8477
  574MOL0     C77404  -0.672  11.788   8.704  0.6694  0.9724  1.2827
  574MOL0     N77405  -0.237  11.794   9.234 -0.6052  0.2501  0.2975
  574MOL0     N77406  -0.109  11.790   9.220 -0.3595 -0.2099  0.3353
  574MOL0     C77407   0.994  11.322   9.371  0.2648  0.6678 -0.2408
  574MOL0     C77408   1.119  11.302   9.433  0.1509 -0.9090 -0.4975
  574MOL0     C77409   1.536  11.202   9.561  0.6660  0.2210 -0.2971
  574MOL0     C77410   1.631  11.279   9.485  1.1374  0.1603 -1.1227
  574MOL0     C77411   1.764  11.272   9.511 -0.3461 -0.6588  0.0592
  574MOL0     C77412   1.813  11.214   9.629 -0.2570 -1.1629  0.5171
  574MOL0     O77413   1.949  11.220   9.650 -0.2558  0.1611  0.5183
  574MOL0     C77414   2.019  11.098   9.694 -0.3362  0.4340 -0.0010
  574MOL0     C77415   2.017  11.005   9.569  0.0993 -1.1355  0.1953
  574MOL0     C77416   2.132  10.916   9.582  0.7251 -0.7186  0.3816
  574MOL0     C77417   2.121  10.829   9.706  0.6155 -0.2274 -0.0137
  574MOL0     C77418   2.217  10.724   9.696  1.2912  0.6196 -0.9927
  574MOL0     C77419   2.292  10.623   9.690  0.7128 -0.1146 -0.4421
  574MOL0     C77420   1.720  11.136   9.700  0.3042  0.4332 -0.0752
  574MOL0     C77421   1.582  11.134   9.676  0.0977  0.9325  0.5035
  574MOL0     C77422   1.494  11.050   9.769 -0.4349  0.1593  0.8119
  574MOL0     H77423   1.322  11.281   9.158  0.1294  0.1946 -0.0342
  574MOL0     H77424   1.109  11.322   9.040 -3.9237  0.5243 -0.6756
  574MOL0     H77425   0.877  11.527   9.054  3.9756 -0.8027 -2.2836
  574MOL0     H77426   0.895  11.373   8.974 -2.3489 -0.0281 -1.9080
  574MOL0     H77427   0.670  11.301   8.995  1.8713 -0.5596  2.0848
  574MOL0     H77428   0.662  11.462   8.925 -3.0881 -0.5041  0.6504
  574MOL0     H77429   0.616  11.567   9.129 -0.8772 -0.2471 -1.6863
  574MOL0     H77430   0.604  11.410   9.224 -1.1723 -1.0666 -0.7703
  574MOL0     H77431   0.457  11.459   8.970 -2.7183  0.2784  0.3976
  574MOL0     H77432   0.427  11.335   9.095 -2.5610  0.9440 -0.6844
  574MOL0     H77433   0.370  11.566   9.239 -3.4195  2.2371  1.2219
  574MOL0     H77434   0.348  11.625   9.073 -0.3207  0.8303  2.6981
  574MOL0     H77435   0.189  11.443   9.023 -0.9858  0.6732  0.0749
  574MOL0     H77436   0.221  11.367   9.182  0.0880 -1.3385 -0.5165
  574MOL0     H77437   0.138  11.576   9.285 -1.3820 -2.5422  1.0244
  574MOL0     H77438   0.018  11.481   9.200 -0.2663 -0.5590 -1.0646
  574MOL0     H77439   0.137  11.754   9.100  0.1709 -0.6720  0.7412
  574MOL0     H77440   0.066  11.648   8.982 -0.3236 -0.0297 -0.1614
  574MOL0     H77441  -0.217  11.574   8.991 -3.1721 -1.1380  2.8008
  574MOL0     H77442  -0.464  11.604   9.057 -1.0648  1.0162 -0.1186
  574MOL0     H77443  -0.480  11.636   9.227  0.7939  1.8725  1.5046
  574MOL0     H77444  -0.612  11.785   9.100  0.1649 -1.9438  0.9499
  574MOL0     H77445  -0.486  11.890   9.171 -1.3503 -0.2888  0.2543
  574MOL0     H77446  -0.474  11.776   8.888 -2.1396 -0.7862  0.6166
  574MOL0     H77447  -0.360  11.890   8.959 -0.3446 -1.0513 -1.0350
  574MOL0     H77448  -0.535  12.019   8.815 -2.3718 -0.8795 -1.7966
  574MOL0     H77449  -0.553  12.049   8.997  1.8460 -3.2512  1.6683
  574MOL0     H77450  -0.916  11.784   8.941 -0.6844  0.5676 -1.4749
  574MOL0     H77451  -1.014  11.638   8.787  0.1380  0.7305  1.1822
  574MOL0     H77452  -1.107  11.444   8.349  0.3008  1.1522  2.5130
  574MOL0     H77453  -1.207  11.251   8.233 -1.3621 -0.0633  0.8917
  574MOL0     H77454  -1.437  11.074   8.372 -0.9326  2.5927 -2.0248
  574MOL0     H77455  -1.372  11.087   8.216 -2.3577  0.2009  0.4614
  574MOL0     H77456  -1.370  10.857   8.169  2.8470  1.3270  1.5888
  574MOL0     H77457  -1.418  10.813   8.334 -1.1208 -1.1767 -0.5253
  574MOL0     H77458  -1.648  10.907   8.300  1.8620 -0.0068  1.5276
  574MOL0     H77459  -1.607  10.981   8.152 -0.9179 -0.8922 -0.6207
  574MOL0     H77460  -1.617  10.681   8.202 -1.4810 -0.0543  1.4427
  574MOL0     H77461  -1.562  10.750   8.054  2.8683 -0.5378  2.6829
  574MOL0     H77462  -1.789  10.855   8.025  1.0498 -1.2014 -1.8173
  574MOL0     H77463  -1.835  10.814   8.187  0.6882  0.4564  0.8165
  574MOL0     H77464  -1.791  10.653   7.935 -0.8028 -4.9197 -1.2898
  574MOL0     H77465  -1.796  10.570   8.095  0.8718 -0.8908 -2.7363
  574MOL0     H77466  -2.016  10.665   8.145 -0.9754  2.3830 -0.9552
  574MOL0     H77467  -2.010  10.531   8.025  0.3968 -1.3145  2.2119
  574MOL0     H77468  -2.034  10.704   7.852 -0.5569 -0.4551 -0.0595
  574MOL0     H77469  -2.173  10.694   7.944  1.1765 -0.5290 -2.6596
  574MOL0     H77470  -1.130  11.008   8.573  3.6538 -1.5622 -2.9636
  574MOL0     H77471  -0.996  11.219   8.675  1.8859 -0.8852 -1.3903
  574MOL0     H77472  -0.677  11.665   8.531 -2.1709 -1.3471  0.4535
  574MOL0     H77473  -0.579  11.825   8.661  1.8751 -1.0677  1.9716
  574MOL0     H77474   0.899  11.329   9.425  1.0643 -1.5426  1.6028
  574MOL0     H77475   1.124  11.301   9.541 -0.6177  0.9344 -0.4141
  574MOL0     H77476   1.592  11.336   9.402 -0.4393  0.8501  0.0412
  574MOL0     H77477   1.826  11.319   9.436 -0.0899  0.0614  0.7113
  574MOL0     H77478   1.969  11.048   9.777 -2.9033  0.5563 -1.3721
  574MOL0     H77479   2.125  11.122   9.710  0.6719 -2.9165 -0.9073
  574MOL0     H77480   2.016  11.062   9.476 -2.7676 -2.4980 -0.7403
  574MOL0     H77481   1.919  10.955   9.563 -0.2894 -0.2531 -1.2991
  574MOL0     H77482   2.226  10.974   9.580  0.9480 -1.0949 -1.7958
  574MOL0     H77483   2.141  10.850   9.496  2.1221 -2.7550  1.9954
  574MOL0     H77484   2.139  10.883   9.799  0.0626  1.9665 -1.1339
  574MOL0     H77485   2.018  10.792   9.704 -0.3064  2.1964 -2.5626
  574MOL0     H77486   2.328  10.526   9.665 -2.8076 -0.8923 -3.3607
  574MOL0     H77487   1.757  11.096   9.793  0.1762 -1.2131 -0.7070
  574MOL0     H77488   1.556  10.999   9.843  0.0979 -0.4832 -0.0689
  574MOL0     H77489   1.441  11.127   9.826  0.3142  0.3825  1.2300
  574MOL0     H77490   1.426  10.981   9.719 -1.2784  2.3050 -1.1728
  575MOL0     O77491   5.987   5.701   0.642 -0.6544 -0.5818  0.7421
  575MOL0     C77492   5.877   5.723   0.676 -0.6005  0.3612 -0.5112
  575MOL0     O77493   5.834   5.845   0.700 -0.3906  0.4503  0.5891
  575MOL0     C77494   5.914   5.953   0.680 -0.2708  0.3174  0.8365
  575MOL0     C77495   5.882   6.030   0.573 -0.1902 -0.7974  0.9380
  575MOL0     C77496   5.945   6.152   0.541  0.2508 -0.0247  0.7376
  575MOL0     C77497   6.061   6.186   0.615 -0.0375  0.0773  0.7713
  575MOL0     O77498   6.125   6.310   0.581  0.1577 -0.5011  0.4329
  575MOL0     C77499   6.219   6.373   0.668 -0.0049 -0.6837 -0.3588
  575MOL0     C77500   6.260   6.505   0.592 -0.5403 -0.4361  0.0330
  575MOL0     C77501   6.399   6.578   0.644  0.4243 -0.1692 -1.1725
  575MOL0     C77502   6.435   6.658   0.524  0.7862  0.2303  0.7836
  575MOL0     C77503   6.521   6.775   0.566 -0.3482 -0.7666  0.0680
  575MOL0     C77504   6.593   6.834   0.449  0.3998  0.2123 -0.4845
  575MOL0     C77505   6.690   6.943   0.491  0.4116  1.1256 -1.1092
  575MOL0     C77506   6.627   7.072   0.539 -0.1792  0.6627 -0.2012
  575MOL0     N77507   6.579   7.169   0.435  0.0372  1.0518 -0.3504
  575MOL0     C77508   6.450   7.199   0.411  0.0704  0.5194 -0.6604
  575MOL0     C77509   6.454   7.319   0.343  0.6900  0.4274  0.2984
  575MOL0     C77510   6.338   7.386   0.286  0.7460  0.1905 -0.2929
  575MOL0     C77511   6.334   7.361   0.138  0.2304  0.0358  0.0486
  575MOL0     C77512   6.282   7.232   0.083 -1.0419  0.2311 -0.4669
  575MOL0     C77513   6.394   7.133   0.060  0.2004 -0.0934 -0.3938
  575MOL0     O77514   6.341   7.035  -0.028 -0.3582 -0.0776  0.4037
  575MOL0     C77515   6.303   6.910   0.019  0.2508  0.2018  0.7207
  575MOL0     C77516   6.287   6.807  -0.067 -0.0373 -0.1790 -0.8010
  575MOL0     C77517   6.241   6.682  -0.029  0.2549  0.7534  0.6280
  575MOL0     C77518   6.202   6.651   0.103 -0.3405  0.1296 -0.4364
  575MOL0     C77519   6.167   6.510   0.141 -1.2800 -0.3822  1.1041
  575MOL0     O77520   6.134   6.425   0.040 -0.6405 -0.4683 -0.5942
  575MOL0     C77521   6.102   6.298   0.072 -0.7952 -0.3008 -0.3819
  575MOL0     C77522   5.997   6.270   0.162  0.3570 -0.1242  0.2207
  575MOL0     C77523   5.984   6.143   0.204 -0.1734 -0.2929 -0.7786
  575MOL0     C77524   6.075   6.035   0.168 -0.3060  0.8398  0.0699
  575MOL0     O77525   6.074   5.904   0.216  0.1702  0.7220 -0.4561
  575MOL0     C77526   5.966   5.847   0.292  0.3126 -0.1620 -0.9336
  575MOL0     C77527   5.907   5.740   0.212  0.1256  0.4271 -1.0250
  575MOL0     C77528   5.784   5.676   0.287  0.2865 -0.6444 -0.2366
  575MOL0     C77529   5.719   5.572   0.189 -0.9358 -0.1412  0.7610
  575MOL0     C77530   5.587   5.529   0.230  0.1110  0.6038 -0.0171
  575MOL0     C77531   5.506   5.492   0.115  0.5578 -0.3608  0.3980
  575MOL0     C77532   5.363   5.446   0.166 -0.6297  0.4434 -0.2373
  575MOL0     C77533   5.277   5.396   0.051 -0.4824 -1.1683  1.2209
  575MOL0    Cl77534   5.178   5.539   0.018  0.6624 -0.2315  0.0247
  575MOL0     C77535   6.184   6.070   0.082  0.6309  0.3289 -0.4908
  575MOL0     C77536   6.200   6.203   0.036 -0.2194  0.0219 -1.2818
  575MOL0     O77537   6.178   6.491   0.262 -0.1048 -0.2746 -0.2277
  575MOL0     C77538   6.218   6.759   0.199 -0.4621  0.6785  0.2142
  575MOL0     C77539   6.261   6.889   0.154 -0.5837  0.1576  0.1359
  575MOL0     N77540   6.583   7.366   0.335 -1.3390  0.4708 -0.2025
  575MOL0     N77541   6.655   7.271   0.391 -0.5102  1.4756 -0.7141
  575MOL0     C77542   6.098   6.105   0.713  0.1538  0.3333 -1.5977
  575MOL0     C77543   6.024   5.988   0.753  0.5561 -0.2034  0.1743
  575MOL0     C77544   5.782   5.612   0.713  0.4186  0.1086 -1.1877
  575MOL0     C77545   5.783   5.505   0.621  0.1254  0.1586  0.1935
  575MOL0     C77546   5.691   5.401   0.625  0.4294 -0.0310 -0.2314
  575MOL0     C77547   5.576   5.409   0.718 -0.0664  0.0942  0.9221
  575MOL0     O77548   5.473   5.321   0.718 -0.4209 -1.2741  0.3200
  575MOL0     C77549   5.470   5.213   0.621 -0.4722 -0.6679  0.5524
  575MOL0     C77550   5.317   5.177   0.600  0.2289 -0.2002 -0.5985
  575MOL0     C77551   5.252   5.290   0.505 -0.3139  0.2823 -0.4909
  575MOL0     C77552   5.120   5.343   0.548  0.3665  0.4164  0.2295
  575MOL0     C77553   5.026   5.226   0.567 -1.1856 -0.5486 -0.1401
  575MOL0     C77554   4.953   5.138   0.585  0.0064  0.3199  0.0411
  575MOL0     C77555   5.589   5.513   0.809  0.3849  0.6388  0.3139
  575MOL0     C77556   5.691   5.608   0.816  0.8041 -0.5767 -0.1605
  575MOL0     C77557   5.678   5.718   0.924  0.3360 -0.0628  0.1318
  575MOL0     H77558   5.784   6.013   0.530 -0.7601  1.0103  1.4531
  575MOL0     H77559   5.923   6.212   0.454  2.2695 -0.5314 -0.2004
  575MOL0     H77560   6.181   6.393   0.768 -0.9315 -1.2564 -0.5777
  575MOL0     H77561   6.309   6.312   0.679  0.9324  0.9039  1.2774
  575MOL0     H77562   6.185   6.582   0.611  0.5374  0.3502  1.3214
  575MOL0     H77563   6.273   6.483   0.486  3.5394  3.3577 -0.5401
  575MOL0     H77564   6.489   6.522   0.670  0.2272  1.7650  5.7067
  575MOL0     H77565   6.374   6.634   0.735  0.2100 -1.4079 -0.4486
  575MOL0     H77566   6.471   6.604   0.435  0.3618  0.8284  0.2406
  575MOL0     H77567   6.345   6.706   0.486  0.2724 -0.2794  1.3411
  575MOL0     H77568   6.457   6.850   0.613  1.5525 -0.9541  3.2757
  575MOL0     H77569   6.595   6.751   0.642  0.2442 -1.8324 -0.8038
  575MOL0     H77570   6.648   6.755   0.395  1.2140  1.0085 -0.8543
  575MOL0     H77571   6.519   6.877   0.382 -0.3813  1.0558  0.8730
  575MOL0     H77572   6.747   6.973   0.403  1.6340 -3.4985 -2.1942
  575MOL0     H77573   6.755   6.897   0.566 -2.0835  0.8292  1.0188
  575MOL0     H77574   6.546   7.052   0.610  0.5736  0.6690  0.6895
  575MOL0     H77575   6.693   7.142   0.592  0.6160  3.0603 -4.0163
  575MOL0     H77576   6.366   7.140   0.446 -1.1498 -0.0586 -4.1074
  575MOL0     H77577   6.247   7.366   0.343 -0.3345  0.1879 -1.9376
  575MOL0     H77578   6.353   7.491   0.312 -0.3110 -0.0600  1.4566
  575MOL0     H77579   6.261   7.435   0.103  0.2406 -0.1423 -0.3571
  575MOL0     H77580   6.428   7.388   0.089  1.2154  0.6464  2.1785
  575MOL0     H77581   6.249   7.252  -0.019  1.8860  0.9664 -1.3901
  575MOL0     H77582   6.206   7.183   0.144 -0.2675  1.6758  1.8055
  575MOL0     H77583   6.437   7.094   0.153  0.8427  1.4879  0.0120
  575MOL0     H77584   6.477   7.181   0.006  0.3518  1.6290  1.2700
  575MOL0     H77585   6.326   6.829  -0.166 -0.1097 -1.1081 -1.0406
  575MOL0     H77586   6.234   6.599  -0.098 -0.7070 -0.1189  1.7255
  575MOL0     H77587   5.927   6.347   0.194  1.5720  1.0501  0.1468
  575MOL0     H77588   5.900   6.121   0.269  0.5602  1.2406  0.7590
  575MOL0     H77589   6.003   5.808   0.387 -0.3198  2.0017  0.2623
  575MOL0     H77590   5.890   5.923   0.311 -0.1163 -0.9449  0.5990
  575MOL0     H77591   5.873   5.798   0.125  0.7942  1.9803 -0.2962
  575MOL0     H77592   5.981   5.667   0.179  0.7662 -0.1453  1.4757
  575MOL0     H77593   5.834   5.619   0.366 -1.3220 -3.7619 -1.3180
  575MOL0     H77594   5.720   5.756   0.326 -0.8848 -2.0624  0.8585
  575MOL0     H77595   5.779   5.482   0.173 -1.7370 -0.2488 -2.4706
  575MOL0     H77596   5.715   5.618   0.090  2.3865 -1.2369 -0.0305
  575MOL0     H77597   5.542   5.605   0.295  2.8984 -0.9865  4.2162
  575MOL0     H77598   5.598   5.443   0.297  0.3327 -1.3469 -2.4535
  575MOL0     H77599   5.492   5.580   0.052  0.6919 -1.1516 -0.7776
  575MOL0     H77600   5.563   5.418   0.059  1.2920  2.1462 -2.4011
  575MOL0     H77601   5.309   5.524   0.221 -1.7495 -0.1088 -0.5225
  575MOL0     H77602   5.389   5.369   0.240  0.6578  0.1642 -0.9505
  575MOL0     H77603   5.343   5.360  -0.030  4.5673 -2.2418  5.2800
  575MOL0     H77604   5.222   5.308   0.082  0.9496 -3.3199 -1.7834
  575MOL0     H77605   6.243   5.981   0.061  0.1188  0.3660 -2.2421
  575MOL0     H77606   6.288   6.225  -0.025 -1.3342 -0.4703 -3.1438
  575MOL0     H77607   6.188   6.752   0.303 -1.2697  3.3981  0.2418
  575MOL0     H77608   6.246   6.965   0.230 -2.8976 -1.4452  1.4323
  575MOL0     H77609   6.170   6.135   0.789 -1.8093  0.3860  0.3507
  575MOL0     H77610   6.061   5.925   0.833  0.6091 -2.6943 -1.7200
  575MOL0     H77611   5.860   5.502   0.544  0.2069 -0.2459  0.2891
  575MOL0     H77612   5.700   5.322   0.551  2.5639  0.0014 -0.0723
  575MOL0     H77613   5.520   5.124   0.661  3.3663  0.0593 -2.1024
  575MOL0     H77614   5.519   5.231   0.525  0.5627  2.6193  1.5589
  575MOL0     H77615   5.268   5.170   0.698  2.6422 -1.8906  0.6111
  575MOL0     H77616   5.291   5.081   0.556 -2.1248 -0.2494  0.7113
  575MOL0     H77617   5.264   5.264   0.399 -1.0632  0.5917 -0.6597
  575MOL0     H77618   5.320   5.374   0.521 -0.6391  0.3417  0.6374
  575MOL0     H77619   5.135   5.397   0.642  2.1525 -1.3924  1.0538
  575MOL0     H77620   5.075   5.409   0.473  0.7716 -1.0786 -1.3778
  575MOL0     H77621   4.888   5.053   0.576  2.9346 -1.8649 -2.2403
  575MOL0     H77622   5.518   5.522   0.890 -1.2746  2.6787 -1.2644
  575MOL0     H77623   5.631   5.809   0.888  0.2516 -0.3568 -0.5151
  575MOL0     H77624   5.625   5.682   1.013  0.1651  0.0743  0.0850
  575MOL0     H77625   5.777   5.740   0.965  0.1634  2.2680 -0.5513
  576MOL0     O77626   2.387  11.281  10.537 -0.2426 -0.8446  0.0054
  576MOL0     C77627   2.405  11.401  10.570 -0.9693 -0.1668  0.1633
  576MOL0     O77628   2.327  11.500  10.525 -0.4022 -0.2504 -0.4660
  576MOL0     C77629   2.244  11.471  10.425  0.1218  0.9058  0.6831
  576MOL0     C77630   2.115  11.419  10.463 -0.3760 -0.9039  1.2601
  576MOL0     C77631   2.018  11.405  10.366  0.3930  0.3057  0.0324
  576MOL0     C77632   2.045  11.419  10.232  0.1320  0.3253 -0.2794
  576MOL0     O77633   1.956  11.378  10.138 -0.0413 -0.1140  0.8094
  576MOL0     C77634   1.954  11.444  10.008  0.4461  0.0720  0.3533
  576MOL0     C77635   1.836  11.394   9.920  0.0920 -0.0264 -0.4885
  576MOL0     C77636   1.702  11.455   9.989  0.5190 -0.4609  0.1252
  576MOL0     C77637   1.586  11.391   9.927 -0.1551 -0.2659 -0.7560
  576MOL0     C77638   1.460  11.470   9.960 -0.7017 -0.0259 -0.4987
  576MOL0     C77639   1.336  11.403   9.891  0.2113 -0.0850  0.6128
  576MOL0     C77640   1.208  11.483   9.925  0.1937  0.7286  1.3981
  576MOL0     C77641   1.084  11.393   9.874  0.2632 -0.4805 -1.2032
  576MOL0     N77642   0.948  11.452   9.920 -0.6037 -0.1932 -0.1836
  576MOL0     C77643   0.836  11.380   9.963 -0.7324  0.3177 -0.5751
  576MOL0     C77644   0.733  11.463   9.950  0.0801 -0.7194  0.4009
  576MOL0     C77645   0.592  11.417   9.989  0.0929 -0.2056 -0.7134
  576MOL0     C77646   0.489  11.530  10.018  0.0778  0.4947 -0.0797
  576MOL0     C77647   0.453  11.630   9.906  0.7261  0.2357  0.5417
  576MOL0     C77648   0.411  11.564   9.765  0.0041 -0.8226  0.1637
  576MOL0     O77649   0.289  11.500   9.793 -0.1931  0.4408  0.6490
  576MOL0     C77650   0.261  11.393   9.710  0.8203 -0.8380 -0.2440
  576MOL0     C77651   0.302  11.383   9.573  0.1049 -0.1485  0.3381
  576MOL0     C77652   0.256  11.282   9.496 -0.5648 -0.2714  0.2923
  576MOL0     C77653   0.164  11.180   9.537 -0.1560 -0.2726  0.1671
  576MOL0     C77654   0.132  11.067   9.442 -1.4202 -0.3901 -0.3604
  576MOL0     O77655   0.176  11.068   9.315  0.2338  0.4205 -0.1692
  576MOL0     C77656   0.144  10.958   9.238 -0.5084 -0.0343 -0.3847
  576MOL0     C77657   0.174  10.828   9.257  0.7806 -0.8647 -0.5119
  576MOL0     C77658   0.125  10.728   9.169  1.3740  0.4880 -0.1271
  576MOL0     C77659   0.042  10.765   9.061  0.9558 -0.2991  0.3858
  576MOL0     O77660  -0.007  10.666   8.971  0.0546  0.3890  0.1345
  576MOL0     C77661  -0.127  10.693   8.899  0.5107 -0.3883 -0.0777
  576MOL0     C77662  -0.187  10.558   8.850 -0.6508  0.4496  0.1443
  576MOL0     C77663  -0.309  10.589   8.758  0.0386  0.5656  0.1907
  576MOL0     C77664  -0.436  10.566   8.839 -0.4650 -0.1869 -1.3152
  576MOL0     C77665  -0.569  10.587   8.780 -0.4786 -0.9807 -0.4835
  576MOL0     C77666  -0.584  10.489   8.654  0.6059  0.6454 -0.3605
  576MOL0     C77667  -0.729  10.511   8.596 -0.3972  0.0276 -0.6113
  576MOL0     C77668  -0.751  10.464   8.459 -0.1172  1.2830 -0.3745
  576MOL0    Cl77669  -0.700  10.292   8.442 -0.0551  0.3074  0.1573
  576MOL0     C77670   0.008  10.899   9.044  0.2052 -0.0202  0.6049
  576MOL0     C77671   0.058  10.990   9.136 -0.2179 -0.7690  0.1280
  576MOL0     O77672   0.063  10.983   9.498  0.1851  0.2991  0.2753
  576MOL0     C77673   0.121  11.189   9.668  0.2628 -0.3447 -0.3820
  576MOL0     C77674   0.166  11.296   9.751 -0.1681  0.2486 -0.0327
  576MOL0     N77675   0.775  11.586   9.933  0.1618 -0.0388  0.7161
  576MOL0     N77676   0.899  11.579   9.896 -0.1267 -0.4252 -0.0590
  576MOL0     C77677   2.171  11.469  10.197 -0.4950 -0.1169  0.5793
  576MOL0     C77678   2.266  11.506  10.292  0.2920  0.0897  1.0375
  576MOL0     C77679   2.507  11.442  10.679 -0.3218 -0.8558  0.3801
  576MOL0     C77680   2.499  11.578  10.732 -0.7556  0.0576  0.1980
  576MOL0     C77681   2.595  11.621  10.835  0.7806  0.5769  0.8606
  576MOL0     C77682   2.691  11.528  10.880  0.2454 -0.0068  0.4368
  576MOL0     O77683   2.757  11.572  10.989 -0.4309  0.0561 -0.3667
  576MOL0     C77684   2.822  11.468  11.080  0.2562 -0.5760 -0.2511
  576MOL0     C77685   2.873  11.541  11.206  0.2646  1.7499  0.4044
  576MOL0     C77686   3.005  11.605  11.175  0.2574 -0.4334  0.6404
  576MOL0     C77687   3.070  11.678  11.300 -0.8752 -0.3327  0.5350
  576MOL0     C77688   3.189  11.749  11.241  0.2739 -0.2292  0.2285
  576MOL0     C77689   3.303  11.790  11.205  0.8056 -0.0179  0.3629
  576MOL0     C77690   2.704  11.399  10.820  0.1335  0.0050 -0.2730
  576MOL0     C77691   2.614  11.354  10.719  0.6293 -0.7364  0.5030
  576MOL0     C77692   2.644  11.216  10.657  0.1650 -0.9159 -0.7450
  576MOL0     H77693   2.086  11.397  10.565 -1.3362  0.3992  1.3035
  576MOL0     H77694   1.920  11.365  10.389  0.9878 -0.0989  2.0947
  576MOL0     H77695   1.933  11.549  10.031 -1.0116 -0.3976  1.3188
  576MOL0     H77696   2.037  11.423   9.940  0.4286  1.5752 -0.1594
  576MOL0     H77697   1.836  11.288   9.895  2.2310  0.3146 -2.3233
  576MOL0     H77698   1.855  11.446   9.825 -0.4531  1.2925  0.0930
  576MOL0     H77699   1.699  11.564   9.985 -0.1896 -0.4593  0.5616
  576MOL0     H77700   1.699  11.428  10.094  4.5805 -1.0510  0.2556
  576MOL0     H77701   1.594  11.378   9.818 -0.1062 -3.0142 -0.5008
  576MOL0     H77702   1.576  11.288   9.963  1.7443  0.0999  0.9647
  576MOL0     H77703   1.452  11.484  10.068  0.1430  0.7754 -0.5261
  576MOL0     H77704   1.475  11.572   9.926 -1.3719  0.0186 -0.6633
  576MOL0     H77705   1.365  11.403   9.785  1.1051  1.6752  0.8054
  576MOL0     H77706   1.320  11.302   9.930  0.2497  0.3928  1.9046
  576MOL0     H77707   1.205  11.581   9.876  1.9987  0.1605  0.0287
  576MOL0     H77708   1.204  11.488  10.034  0.1078 -1.3379  1.5282
  576MOL0     H77709   1.078  11.384   9.765 -1.5566 -0.9202 -1.0998
  576MOL0     H77710   1.106  11.293   9.911 -1.8657 -1.2448 -1.8537
  576MOL0     H77711   0.825  11.274   9.984 -0.8112  0.0289 -2.0070
  576MOL0     H77712   0.561  11.353   9.907  0.4070  1.4598 -2.1883
  576MOL0     H77713   0.603  11.364  10.084 -0.9083  1.1807  0.2110
  576MOL0     H77714   0.400  11.471  10.043 -1.0202  0.7806 -2.9544
  576MOL0     H77715   0.508  11.597  10.103  0.1829 -0.4451  0.6542
  576MOL0     H77716   0.546  11.685   9.889  0.0355  1.7450  1.4112
  576MOL0     H77717   0.375  11.705   9.923 -1.2244 -1.2220 -1.4083
  576MOL0     H77718   0.486  11.503   9.714 -0.5072  0.3553 -2.1508
  576MOL0     H77719   0.397  11.647   9.695  0.1052 -2.8515 -2.3922
  576MOL0     H77720   0.354  11.462   9.520 -0.1911  1.7335  2.6957
  576MOL0     H77721   0.274  11.284   9.389  0.6061 -0.7051  0.4584
  576MOL0     H77722   0.231  10.787   9.340  0.7554 -1.9115 -0.9927
  576MOL0     H77723   0.146  10.624   9.194  1.0089  0.3329 -0.4515
  576MOL0     H77724  -0.203  10.731   8.968  1.7001  2.4148 -0.1448
  576MOL0     H77725  -0.103  10.772   8.827  2.4954 -0.1132  0.8368
  576MOL0     H77726  -0.113  10.504   8.790  2.6938  2.8304  1.7813
  576MOL0     H77727  -0.214  10.492   8.932  4.7749 -0.4213  1.5789
  576MOL0     H77728  -0.287  10.692   8.729  3.5611  0.6501  2.4545
  576MOL0     H77729  -0.310  10.531   8.666  0.5471  1.7070 -0.5460
  576MOL0     H77730  -0.421  10.629   8.927  1.6138  0.6496 -2.1935
  576MOL0     H77731  -0.426  10.465   8.880 -0.0970  0.9578  1.6645
  576MOL0     H77732  -0.565  10.689   8.741  0.5157 -0.2896  1.3145
  576MOL0     H77733  -0.649  10.577   8.854  1.9825 -1.5733  2.2998
  576MOL0     H77734  -0.508  10.510   8.578 -0.2194  1.8014 -0.9037
  576MOL0     H77735  -0.565  10.384   8.676 -1.6130  0.2193 -0.2617
  576MOL0     H77736  -0.759  10.616   8.604 -0.1152  0.1956 -1.6393
  576MOL0     H77737  -0.787  10.455   8.671 -1.0137  1.8249  0.3101
  576MOL0     H77738  -0.857  10.479   8.437 -1.2762 -1.5177  2.4651
  576MOL0     H77739  -0.688  10.515   8.386  2.0178  0.7516  1.0172
  576MOL0     H77740  -0.067  10.935   8.975 -0.6352  1.2461  2.1184
  576MOL0     H77741   0.029  11.095   9.132  0.4374 -0.6241 -1.8456
  576MOL0     H77742   0.056  11.113   9.710  1.6419  0.0181  2.7579
  576MOL0     H77743   0.129  11.290   9.854  0.1530 -1.8976  0.0161
  576MOL0     H77744   2.186  11.492  10.092 -0.5348 -2.5652 -0.0212
  576MOL0     H77745   2.356  11.563  10.271  0.0812  0.6670  1.6625
  576MOL0     H77746   2.421  11.646  10.698  0.2138  1.7480  1.1780
  576MOL0     H77747   2.592  11.728  10.854 -2.2950  0.7556 -0.0030
  576MOL0     H77748   2.898  11.419  11.019 -1.2579 -1.0592 -1.8295
  576MOL0     H77749   2.744  11.403  11.119 -1.3793  1.2240 -0.3381
  576MOL0     H77750   2.892  11.468  11.286  0.0016  0.0554 -1.0112
  576MOL0     H77751   2.799  11.612  11.243 -0.7628  0.2775  1.2867
  576MOL0     H77752   2.999  11.672  11.089 -0.7129 -0.3874  0.7399
  576MOL0     H77753   3.067  11.520  11.147 -0.2982 -1.4876  2.4335
  576MOL0     H77754   3.005  11.756  11.340  0.1772  0.9751 -0.2113
  576MOL0     H77755   3.110  11.608  11.374 -0.1925 -0.5493 -0.0184
  576MOL0     H77756   3.406  11.818  11.194  0.4106  1.3199 -0.1152
  576MOL0     H77757   2.784  11.334  10.854 -1.2160 -2.1483 -1.0085
  576MOL0     H77758   2.592  11.149  10.726  0.4246 -1.0471 -0.6770
  576MOL0     H77759   2.618  11.190  10.554 -3.4193 -0.4494 -0.0899
  576MOL0     H77760   2.751  11.207  10.675  0.5409  4.1512  1.2426
  577MOL0     O77761  11.079  10.661  11.160 -0.0065  0.2964 -0.0213
  577MOL0     C77762  11.017  10.722  11.074  0.8696 -0.5654 -0.8931
  577MOL0     O77763  11.076  10.801  10.985 -0.0628 -0.2142 -0.1523
  577MOL0     C77764  11.212  10.823  11.000 -0.6448  0.6109 -0.0530
  577MOL0     C77765  11.262  10.907  11.107 -0.3286 -0.2439  0.1411
  577MOL0     C77766  11.398  10.923  11.120 -0.5455 -0.8261  0.4381
  577MOL0     C77767  11.490  10.856  11.035  0.2381 -0.1370 -0.8728
  577MOL0     O77768  11.630  10.861  11.052  0.7070 -0.3285 -0.0889
  577MOL0     C77769  11.691  10.918  11.162 -0.2521 -0.5836 -0.5077
  577MOL0     C77770  11.836  10.874  11.175 -0.0535  0.3145 -0.0103
  577MOL0     C77771  11.916  10.887  11.303 -0.2718 -0.7202 -0.3425
  577MOL0     C77772  12.067  10.901  11.277  0.1909  0.6611 -0.7063
  577MOL0     C77773  12.153  10.931  11.407 -0.2057 -0.5475  0.0582
  577MOL0     C77774  12.296  10.989  11.367  0.0634 -0.5656  0.4096
  577MOL0     C77775  12.394  10.984  11.485  0.1267 -0.9943 -0.4352
  577MOL0     C77776  12.530  11.016  11.428 -0.4277  0.0220  0.9470
  577MOL0     N77777  12.578  10.919  11.326  0.0065 -0.8092  0.0447
  577MOL0     C77778  12.592  10.930  11.192  0.4553 -0.4541 -0.4373
  577MOL0     C77779  12.649  10.814  11.151  0.9782 -0.0965  0.9813
  577MOL0     C77780  12.655  10.774  11.011 -0.0034 -0.4309 -0.1132
  577MOL0     C77781  12.809  10.780  10.979  0.1188  0.0139  0.1914
  577MOL0     C77782  12.914  10.687  11.047 -0.5718 -0.1835 -0.2232
  577MOL0     C77783  12.901  10.540  11.030  0.4133 -0.0530 -0.6737
  577MOL0     O77784  12.938  10.507  10.896 -0.6493  0.1240  0.7815
  577MOL0     C77785  12.833  10.495  10.802  0.4567 -0.6155 -0.3589
  577MOL0     C77786  12.841  10.548  10.676 -1.1407  0.1248 -0.0955
  577MOL0     C77787  12.737  10.565  10.587 -0.1991  0.2597 -0.1459
  577MOL0     C77788  12.613  10.522  10.630  0.4182 -0.4011  0.2509
  577MOL0     C77789  12.496  10.540  10.539 -1.1220 -0.0096 -0.7298
  577MOL0     O77790  12.501  10.646  10.448 -0.3025 -0.0196  0.5328
  577MOL0     C77791  12.385  10.672  10.370  0.7129 -0.3018  0.0061
  577MOL0     C77792  12.268  10.603  10.349  0.3141 -0.2398  0.6774
  577MOL0     C77793  12.162  10.643  10.267 -0.6044 -0.2145  0.0627
  577MOL0     C77794  12.162  10.771  10.205  0.2535  0.4426  0.3553
  577MOL0     O77795  12.046  10.823  10.152  0.1909 -0.5229 -0.2458
  577MOL0     C77796  11.974  10.750  10.054 -0.3705  0.6905  0.1867
  577MOL0     C77797  11.877  10.822   9.969 -0.0747 -0.1559 -0.1578
  577MOL0     C77798  11.954  10.878   9.849 -0.0781 -0.2770  0.7178
  577MOL0     C77799  11.853  10.947   9.758 -0.1755 -0.7714  0.2742
  577MOL0     C77800  11.912  10.995   9.629 -0.0011 -0.1322  1.0024
  577MOL0     C77801  11.993  11.127   9.635 -0.1119 -0.8539 -0.3309
  577MOL0     C77802  12.090  11.143   9.519 -0.1696  0.0568  0.6056
  577MOL0     C77803  12.033  11.175   9.374 -0.5272 -0.5789 -0.5050
  577MOL0    Cl77804  11.971  11.025   9.288 -0.4148 -0.2708  0.0693
  577MOL0     C77805  12.281  10.841  10.220 -1.8797  0.4692  0.1090
  577MOL0     C77806  12.392  10.794  10.295 -0.3475 -0.9236  0.5656
  577MOL0     O77807  12.397  10.467  10.548 -0.3447 -0.2155 -0.2671
  577MOL0     C77808  12.596  10.459  10.753 -0.1996 -0.4671 -0.9717
  577MOL0     C77809  12.705  10.446  10.840 -0.2677 -0.2307 -0.0052
  577MOL0     N77810  12.678  10.745  11.269  0.4644  0.4552  0.2540
  577MOL0     N77811  12.639  10.805  11.377  0.2625 -0.0349  0.7159
  577MOL0     C77812  11.442  10.778  10.930  0.1315 -0.0397 -0.7662
  577MOL0     C77813  11.307  10.763  10.916 -0.3529 -0.1830 -0.5047
  577MOL0     C77814  10.870  10.715  11.065  0.6266  0.7021 -0.2166
  577MOL0     C77815  10.810  10.722  10.939  0.2238 -0.0105  0.1176
  577MOL0     C77816  10.679  10.709  10.911  1.0116 -0.0335  0.1595
  577MOL0     C77817  10.585  10.702  11.009 -0.1558 -0.1567 -0.9227
  577MOL0     O77818  10.447  10.704  11.007 -0.0533 -0.9438  0.0471
  577MOL0     C77819  10.390  10.727  10.882 -0.4722  0.4241  0.1496
  577MOL0     C77820  10.242  10.774  10.898  0.1765 -0.2496  0.3678
  577MOL0     C77821  10.245  10.928  10.904  0.3760 -0.8912 -0.0197
  577MOL0     C77822  10.112  10.992  10.866  0.1402 -0.2774 -0.4966
  577MOL0     C77823  10.009  10.997  10.975 -0.6343  1.0476  0.0850
  577MOL0     C77824   9.930  10.988  11.066 -0.7244  0.4986 -0.6384
  577MOL0     C77825  10.638  10.687  11.139  0.3929 -1.1884 -0.3134
  577MOL0     C77826  10.776  10.699  11.170  0.0349  0.1153 -0.0349
  577MOL0     C77827  10.811  10.691  11.318  0.0504  0.4919 -0.6075
  577MOL0     H77828  11.181  10.955  11.161 -1.3296 -1.6071 -0.0991
  577MOL0     H77829  11.429  10.981  11.206 -0.4529 -1.4272  0.8167
  577MOL0     H77830  11.679  11.026  11.151 -1.3590  0.0903  4.7441
  577MOL0     H77831  11.636  10.899  11.254  0.0448  3.1021  0.5746
  577MOL0     H77832  11.895  10.934  11.106 -2.7145  3.2521  0.0656
  577MOL0     H77833  11.842  10.771  11.137  2.0088  0.8161 -1.1677
  577MOL0     H77834  11.897  10.799  11.365  0.0888 -0.2461  0.4612
  577MOL0     H77835  11.880  10.968  11.367  3.9585 -1.2008  3.0661
  577MOL0     H77836  12.093  10.812  11.218 -1.2103 -0.7030  0.6434
  577MOL0     H77837  12.073  10.987  11.210 -0.7583  3.4658  2.5119
  577MOL0     H77838  12.112  11.013  11.466  2.0616  0.0567  0.9239
  577MOL0     H77839  12.155  10.837  11.463  0.9111  0.9634  2.7805
  577MOL0     H77840  12.338  10.920  11.293  0.2162  2.8393 -3.0089
  577MOL0     H77841  12.281  11.086  11.318  1.5587 -0.2000  0.6074
  577MOL0     H77842  12.395  10.885  11.531 -0.2511 -0.4078  0.9037
  577MOL0     H77843  12.368  11.046  11.572  1.7979 -0.9741  0.0831
  577MOL0     H77844  12.531  11.116  11.384  1.0594 -0.5549 -0.4754
  577MOL0     H77845  12.608  11.006  11.504  2.1895 -0.7095 -1.6131
  577MOL0     H77846  12.544  11.002  11.127  1.2113  0.0055 -0.5084
  577MOL0     H77847  12.628  10.669  10.998 -0.0559 -0.2076 -2.0787
  577MOL0     H77848  12.592  10.837  10.949 -0.2595 -2.1402 -1.6775
  577MOL0     H77849  12.821  10.762  10.872  0.3253  2.2125 -0.1853
  577MOL0     H77850  12.829  10.885  11.000 -0.2694  0.4226 -1.3873
  577MOL0     H77851  12.912  10.708  11.154 -0.6602  0.6827 -0.3852
  577MOL0     H77852  13.015  10.716  11.017  0.1065 -1.0966  1.0696
  577MOL0     H77853  12.797  10.524  11.059  0.6291 -1.1427 -0.4836
  577MOL0     H77854  12.964  10.495  11.108 -1.6638 -1.2684  0.3932
  577MOL0     H77855  12.936  10.599  10.662 -2.2733  1.7635 -2.4925
  577MOL0     H77856  12.758  10.620  10.496 -1.3661  0.4274 -0.3339
  577MOL0     H77857  12.247  10.508  10.396 -0.2070 -0.3710  0.1968
  577MOL0     H77858  12.077  10.575  10.260  0.3150 -1.5052  1.1074
  577MOL0     H77859  12.040  10.684   9.996 -1.7998 -0.9503  0.3583
  577MOL0     H77860  11.907  10.681  10.106  1.7350 -0.4596  1.5423
  577MOL0     H77861  11.801  10.752   9.934  0.2730  0.0507 -1.3653
  577MOL0     H77862  11.820  10.903  10.015  0.0578  1.0974 -2.0925
  577MOL0     H77863  12.017  10.965   9.871 -0.4264  0.3292 -0.5971
  577MOL0     H77864  12.011  10.801   9.796 -0.9552 -0.3116 -0.1901
  577MOL0     H77865  11.804  11.033   9.805  0.0317  2.0882 -4.1610
  577MOL0     H77866  11.771  10.881   9.728 -0.5009 -0.6401  0.8652
  577MOL0     H77867  11.832  11.008   9.556  0.7676 -0.9944 -0.0210
  577MOL0     H77868  11.971  10.912   9.589 -1.0150  0.7858 -2.8551
  577MOL0     H77869  11.920  11.207   9.624  1.8540  1.0280 -0.3749
  577MOL0     H77870  12.056  11.133   9.724 -2.4633 -2.6657  1.5654
  577MOL0     H77871  12.152  11.053   9.517 -2.1723 -1.4060 -2.0549
  577MOL0     H77872  12.136  11.239   9.544 -1.5400  1.7169 -2.5887
  577MOL0     H77873  11.957  11.254   9.380 -1.5127 -1.3191 -2.3817
  577MOL0     H77874  12.116  11.213   9.314 -0.7801 -1.4882 -1.4623
  577MOL0     H77875  12.304  10.938  10.178  5.0991  0.6879  3.0894
  577MOL0     H77876  12.482  10.855  10.303 -0.7678 -0.3635  1.2247
  577MOL0     H77877  12.495  10.424  10.774 -0.9244  2.7275  1.8216
  577MOL0     H77878  12.686  10.402  10.937 -1.6748  1.1505  0.3838
  577MOL0     H77879  11.509  10.721  10.866  0.4487 -0.0380 -0.4342
  577MOL0     H77880  11.276  10.705  10.830  0.2811 -1.2070 -0.0573
  577MOL0     H77881  10.874  10.713  10.851 -0.6069  1.1257 -0.6263
  577MOL0     H77882  10.647  10.703  10.807  0.9084 -0.0747  0.1944
  577MOL0     H77883  10.394  10.631  10.830 -0.6107  0.9009 -0.7696
  577MOL0     H77884  10.461  10.792  10.829  0.4827  0.2585  1.1872
  577MOL0     H77885  10.193  10.713  10.974  0.3152 -2.7548 -1.4156
  577MOL0     H77886  10.182  10.738  10.814  1.5838 -0.9177 -0.3942
  577MOL0     H77887  10.310  10.965  10.824 -1.1335  0.7284 -0.5839
  577MOL0     H77888  10.283  10.971  10.997  0.1399  2.6533 -1.3722
  577MOL0     H77889  10.122  11.098  10.839 -2.4732  0.7408  1.9341
  577MOL0     H77890  10.066  10.936  10.785 -0.1526 -1.1369  0.2568
  577MOL0     H77891   9.862  10.984  11.148 -0.1119 -0.0847 -0.1472
  577MOL0     H77892  10.570  10.665  11.220 -0.2234 -1.1427 -0.8063
  577MOL0     H77893  10.847  10.785  11.360 -1.6028  0.5812  0.6884
  577MOL0     H77894  10.716  10.668  11.368  2.8755 -0.7625  4.9653
  577MOL0     H77895  10.876  10.607  11.344  0.0005  0.0113 -1.9505
  578MOL0     O77896   8.657   8.591  10.308  0.1331  0.0897  0.5969
  578MOL0     C77897   8.696   8.490  10.368  0.2822 -0.0891  1.1344
  578MOL0     O77898   8.660   8.362  10.328 -0.3882 -0.5972 -0.2640
  578MOL0     C77899   8.563   8.338  10.230  0.1884 -0.3577 -0.2783
  578MOL0     C77900   8.422   8.334  10.258  0.2905  0.2530  0.7718
  578MOL0     C77901   8.337   8.302  10.152 -0.1635  0.3996 -0.0048
  578MOL0     C77902   8.386   8.265  10.023 -0.2735  0.8415  0.1693
  578MOL0     O77903   8.302   8.200   9.939 -0.3743  0.5145  0.3234
  578MOL0     C77904   8.340   8.185   9.792 -0.1090  0.0425 -0.1610
  578MOL0     C77905   8.221   8.121   9.730 -0.2955 -0.0576  0.8824
  578MOL0     C77906   8.228   8.061   9.589 -0.4930 -1.6619  0.5410
  578MOL0     C77907   8.098   8.009   9.545 -0.4747 -0.8340 -0.2128
  578MOL0     C77908   8.083   7.976   9.393 -0.0498 -0.8701 -1.0280
  578MOL0     C77909   7.940   7.938   9.370 -0.3047 -0.2516  0.9683
  578MOL0     C77910   7.934   7.845   9.249  0.2657  0.9678 -0.4705
  578MOL0     C77911   7.792   7.786   9.224  0.9416 -1.1202  0.1983
  578MOL0     N77912   7.710   7.885   9.156  0.4726  0.7096  0.4137
  578MOL0     C77913   7.715   7.915   9.024  0.2476 -0.0853  0.5161
  578MOL0     C77914   7.631   8.029   9.011 -0.5923  1.1282  0.2567
  578MOL0     C77915   7.593   8.104   8.881 -0.0262 -0.4478 -0.4151
  578MOL0     C77916   7.709   8.154   8.792 -0.8675  0.9465  0.0705
  578MOL0     C77917   7.793   8.259   8.870  0.3182  0.2530 -0.2389
  578MOL0     C77918   7.919   8.288   8.787  1.0070 -0.5803 -0.3702
  578MOL0     O77919   7.995   8.387   8.858  0.0361 -0.0573  0.1478
  578MOL0     C77920   8.094   8.355   8.951  0.1817 -0.0824 -0.2723
  578MOL0     C77921   8.149   8.459   9.038  0.4499  0.7966  0.9648
  578MOL0     C77922   8.258   8.437   9.116 -0.7469  0.3201  0.8605
  578MOL0     C77923   8.306   8.302   9.117 -0.5971 -1.1263 -0.2430
  578MOL0     C77924   8.429   8.268   9.198 -0.0102  0.0636  0.9794
  578MOL0     O77925   8.434   8.139   9.244 -0.4940  0.2123 -0.7783
  578MOL0     C77926   8.546   8.070   9.262  0.4796  0.0244 -0.2812
  578MOL0     C77927   8.662   8.095   9.187 -0.7059  0.1959 -0.3216
  578MOL0     C77928   8.779   8.016   9.205  0.3477  0.8069 -0.5446
  578MOL0     C77929   8.768   7.903   9.292  0.2275  0.1436  0.0143
  578MOL0     O77930   8.876   7.814   9.318  0.4262 -0.5301 -0.3654
  578MOL0     C77931   9.014   7.829   9.279  0.4791  0.6834  0.6274
  578MOL0     C77932   9.077   7.695   9.304 -0.1282  0.0638 -0.6670
  578MOL0     C77933   9.230   7.701   9.293  0.1096 -0.6613 -0.3095
  578MOL0     C77934   9.294   7.568   9.302 -0.3785  0.0214  0.0110
  578MOL0     C77935   9.439   7.566   9.238  0.5890 -0.6287 -0.3265
  578MOL0     C77936   9.548   7.590   9.342  0.1348 -0.5063  0.8859
  578MOL0     C77937   9.678   7.568   9.269  0.6571  0.1237 -0.7987
  578MOL0     C77938   9.797   7.597   9.361  0.7054  0.0436  0.3623
  578MOL0    Cl77939   9.804   7.484   9.497  0.1397  0.0958  0.0196
  578MOL0     C77940   8.641   7.873   9.352  0.3520  0.5820  0.1917
  578MOL0     C77941   8.535   7.960   9.343  0.7406 -0.8339 -0.1511
  578MOL0     O77942   8.513   8.355   9.215  1.1333  0.1697 -0.3980
  578MOL0     C77943   8.247   8.201   9.050 -0.1058  0.6216  0.1516
  578MOL0     C77944   8.142   8.219   8.969  0.8494 -0.9704  0.4701
  578MOL0     N77945   7.578   8.055   9.128  0.2787 -0.4880  0.8054
  578MOL0     N77946   7.620   7.974   9.222 -0.3253  0.9015 -0.1734
  578MOL0     C77947   8.523   8.275  10.000  0.0714  0.1538  0.9834
  578MOL0     C77948   8.611   8.310  10.097  0.0166  0.0218 -0.9848
  578MOL0     C77949   8.803   8.508  10.464  0.9051 -0.6586 -1.0805
  578MOL0     C77950   8.917   8.433  10.437 -0.3520 -0.2417  0.7742
  578MOL0     C77951   9.021   8.438  10.520  0.0653 -1.1573  0.0880
  578MOL0     C77952   9.013   8.507  10.642 -0.6503 -0.2922 -1.1207
  578MOL0     O77953   9.124   8.504  10.730  0.5691 -0.0013  0.3072
  578MOL0     C77954   9.096   8.539  10.868  0.9057  0.3298 -1.2910
  578MOL0     C77955   9.202   8.500  10.966  0.3401 -0.9441  1.5503
  578MOL0     C77956   9.235   8.352  10.949 -0.2724 -0.3456  0.1114
  578MOL0     C77957   9.348   8.313  11.050  0.1229  0.2281 -0.0170
  578MOL0     C77958   9.416   8.192  11.009 -0.5545 -0.1052 -0.3524
  578MOL0     C77959   9.467   8.100  10.950 -0.4248  0.0077 -0.0134
  578MOL0     C77960   8.893   8.584  10.673 -0.5387  0.8623  0.4811
  578MOL0     C77961   8.783   8.583  10.583  0.2278  0.2177 -0.0687
  578MOL0     C77962   8.661   8.653  10.617  0.0229 -0.4245 -0.0842
  578MOL0     H77963   8.376   8.357  10.353 -0.9366 -1.8748  0.7696
  578MOL0     H77964   8.229   8.301  10.164 -0.1791  0.1783 -0.1520
  578MOL0     H77965   8.373   8.280   9.749  0.0191 -1.0688 -2.6445
  578MOL0     H77966   8.417   8.108   9.786 -2.6713 -2.5879 -2.3976
  578MOL0     H77967   8.138   8.192   9.731 -1.5370 -1.3960 -0.2490
  578MOL0     H77968   8.186   8.045   9.800 -2.1971  3.3466  3.9647
  578MOL0     H77969   8.305   7.985   9.573  1.2530  0.4983 -2.1949
  578MOL0     H77970   8.261   8.145   9.527  2.7042 -1.2125  2.6531
  578MOL0     H77971   8.085   7.915   9.599 -2.5386  0.5155  1.7915
  578MOL0     H77972   8.014   8.077   9.563 -1.0018 -1.4790 -0.2132
  578MOL0     H77973   8.128   8.057   9.335  0.4580  0.0570  0.5940
  578MOL0     H77974   8.145   7.887   9.378  2.4292  0.0580  2.2809
  578MOL0     H77975   7.880   7.885   9.445 -1.4902 -0.4192 -0.0568
  578MOL0     H77976   7.898   8.033   9.335  1.9312  0.0061 -1.3271
  578MOL0     H77977   7.994   7.757   9.273  1.4206  0.7172 -3.7767
  578MOL0     H77978   7.969   7.891   9.157 -2.1746  2.1178 -0.8994
  578MOL0     H77979   7.809   7.701   9.158 -0.3874 -1.6361  0.4890
  578MOL0     H77980   7.756   7.760   9.324  4.5497 -2.0672  1.4159
  578MOL0     H77981   7.778   7.871   8.948  1.5494  2.2883  0.1413
  578MOL0     H77982   7.528   8.037   8.825  1.1614 -0.6866 -1.5510
  578MOL0     H77983   7.536   8.194   8.904 -3.5946 -2.5888 -0.0961
  578MOL0     H77984   7.772   8.077   8.747  1.4947  3.1466 -0.6772
  578MOL0     H77985   7.658   8.197   8.705 -0.0983 -1.2543 -1.5479
  578MOL0     H77986   7.825   8.211   8.963 -2.2744 -3.2559 -0.9674
  578MOL0     H77987   7.730   8.345   8.896  1.5029  1.6829 -1.8635
  578MOL0     H77988   7.885   8.333   8.693  0.2198  2.6678  1.3369
  578MOL0     H77989   7.976   8.199   8.759  1.9340 -0.7040  1.7570
  578MOL0     H77990   8.101   8.556   9.042  2.0174  1.6421  0.0162
  578MOL0     H77991   8.305   8.514   9.175 -0.7612  1.0717 -0.0828
  578MOL0     H77992   8.676   8.184   9.127  0.2058  0.3555  0.1110
  578MOL0     H77993   8.872   8.015   9.150  1.5298  0.8936  1.3888
  578MOL0     H77994   9.038   7.834   9.172  0.9581  1.9162  0.7834
  578MOL0     H77995   9.064   7.916   9.323 -0.7158  1.9426 -0.4050
  578MOL0     H77996   9.032   7.645   9.390 -1.1838  0.4390 -0.9786
  578MOL0     H77997   9.052   7.627   9.222  1.9018 -0.2361 -1.0750
  578MOL0     H77998   9.261   7.744   9.198  2.3928 -2.8280 -0.6178
  578MOL0     H77999   9.277   7.767   9.367 -1.1040  0.1728 -0.2315
  578MOL0     H78000   9.227   7.503   9.245 -0.4684 -0.6204  0.8256
  578MOL0     H78001   9.296   7.537   9.407 -0.1479 -1.8261 -0.5024
  578MOL0     H78002   9.444   7.628   9.148  2.4315 -0.0666  0.1347
  578MOL0     H78003   9.438   7.463   9.200 -1.7202 -2.3014  3.5895
  578MOL0     H78004   9.524   7.693   9.372 -1.1085  0.1335 -1.9283
  578MOL0     H78005   9.532   7.512   9.416 -1.1453 -0.6741  0.4579
  578MOL0     H78006   9.690   7.623   9.175 -1.1619  0.7686 -0.6817
  578MOL0     H78007   9.690   7.463   9.240 -0.3024  0.0313 -0.8907
  578MOL0     H78008   9.882   7.574   9.296 -0.7184  0.8043 -1.8901
  578MOL0     H78009   9.796   7.706   9.375 -0.2795  0.4651 -2.3509
  578MOL0     H78010   8.631   7.792   9.424 -0.2092  0.6035  0.1418
  578MOL0     H78011   8.441   7.935   9.391 -0.1805 -0.5017 -1.7121
  578MOL0     H78012   8.290   8.103   9.064  0.4805  0.7475 -0.6648
  578MOL0     H78013   8.095   8.145   8.905 -0.1995  0.2875 -0.2663
  578MOL0     H78014   8.567   8.248   9.904 -1.5583  1.2867 -0.1405
  578MOL0     H78015   8.717   8.332  10.088  0.1698  0.4197  1.1587
  578MOL0     H78016   8.929   8.388  10.339  0.0278 -1.1827  1.2400
  578MOL0     H78017   9.107   8.388  10.476  0.0564  0.0946 -1.4256
  578MOL0     H78018   9.008   8.481  10.897  1.1243  1.6498  2.7009
  578MOL0     H78019   9.065   8.640  10.899 -0.3368 -0.3091 -0.3459
  578MOL0     H78020   9.162   8.522  11.065 -0.6660  0.4187  0.8721
  578MOL0     H78021   9.289   8.554  10.928 -0.3327 -2.4837 -2.7235
  578MOL0     H78022   9.273   8.343  10.847  0.8108  1.1705  0.3315
  578MOL0     H78023   9.150   8.286  10.967 -1.1882  1.5009  3.6002
  578MOL0     H78024   9.407   8.401  11.076  0.3164  0.5606 -1.5162
  578MOL0     H78025   9.308   8.282  11.147  2.0674 -1.7864  0.2414
  578MOL0     H78026   9.523   8.039  10.881  0.4826  1.9429 -1.0824
  578MOL0     H78027   8.875   8.653  10.755  2.4237  0.5743  1.4780
  578MOL0     H78028   8.659   8.700  10.716  2.4830  1.1448 -0.6816
  578MOL0     H78029   8.634   8.721  10.535  2.3150  0.3886 -0.2268
  578MOL0     H78030   8.582   8.579  10.629  0.5559 -0.8746  0.6915
  579MOL0     O78031   6.920   2.025   7.092 -0.2160  0.3901 -0.3963
  579MOL0     C78032   6.950   2.052   7.207 -0.6137 -0.7168  0.1545
  579MOL0     O78033   7.022   1.977   7.297  0.3311  0.3791 -0.0825
  579MOL0     C78034   7.069   1.866   7.238 -0.5984 -0.0063 -0.1043
  579MOL0     C78035   6.994   1.764   7.193 -0.5981  0.6832 -0.3769
  579MOL0     C78036   7.047   1.648   7.133  0.5279 -0.2964  0.3307
  579MOL0     C78037   7.187   1.641   7.122  0.4919 -0.4720  0.0545
  579MOL0     O78038   7.249   1.529   7.077  0.6631  0.5319 -0.3845
  579MOL0     C78039   7.288   1.525   6.942  0.2546 -0.0186 -0.6818
  579MOL0     C78040   7.411   1.435   6.913 -0.4199 -0.5129 -0.6307
  579MOL0     C78041   7.364   1.288   6.926 -0.7129 -0.2830  0.3648
  579MOL0     C78042   7.479   1.199   6.881 -0.5300 -0.2884 -0.1746
  579MOL0     C78043   7.452   1.052   6.887 -0.8510 -1.4605 -0.8938
  579MOL0     C78044   7.557   0.965   6.808  0.6943 -0.5376 -0.3834
  579MOL0     C78045   7.508   0.933   6.666  0.3558  0.5638 -0.1684
  579MOL0     C78046   7.454   1.053   6.589  0.0105  0.1238  0.0265
  579MOL0     N78047   7.402   1.010   6.458  0.6041  0.1941  0.4363
  579MOL0     C78048   7.491   1.004   6.348 -0.5342 -0.4175 -1.1596
  579MOL0     C78049   7.420   0.973   6.237  0.6985  0.0622 -0.5951
  579MOL0     C78050   7.472   0.974   6.098 -0.5716  0.5320 -0.7785
  579MOL0     C78051   7.494   0.830   6.044 -0.2241  0.6672 -0.0964
  579MOL0     C78052   7.597   0.821   5.928 -0.3222  0.1248  0.3709
  579MOL0     C78053   7.595   0.686   5.866 -0.3756 -0.7857 -0.3330
  579MOL0     O78054   7.620   0.584   5.967 -0.7006  0.6643  0.6060
  579MOL0     C78055   7.617   0.448   5.924 -0.0197  0.2228 -0.3412
  579MOL0     C78056   7.595   0.397   5.798  0.5661 -0.2726  0.0679
  579MOL0     C78057   7.599   0.260   5.770 -0.3494  0.3360 -0.7009
  579MOL0     C78058   7.606   0.164   5.881  0.4082  0.1252 -0.6974
  579MOL0     C78059   7.596   0.013   5.861 -0.2624 -0.9881 -0.8177
  579MOL0     O78060   7.528  -0.029   5.754  0.1320 -0.9323 -0.2601
  579MOL0     C78061   7.524  -0.162   5.722 -0.0585  0.2603 -0.6841
  579MOL0     C78062   7.404  -0.233   5.711  0.6520  0.8350 -0.3849
  579MOL0     C78063   7.405  -0.346   5.636  0.5979  0.2966  0.9711
  579MOL0     C78064   7.521  -0.403   5.588 -0.2672  0.2441 -0.8864
  579MOL0     O78065   7.505  -0.528   5.529  0.0970  0.5635 -0.6603
  579MOL0     C78066   7.622  -0.606   5.492 -0.1735 -0.2911 -0.2931
  579MOL0     C78067   7.679  -0.680   5.612  0.2064 -0.6150 -0.6026
  579MOL0     C78068   7.609  -0.812   5.631 -0.5219  0.1092  0.2188
  579MOL0     C78069   7.715  -0.919   5.680  0.5817  0.7536  1.0754
  579MOL0     C78070   7.641  -1.049   5.697 -0.5303  0.3247  0.6193
  579MOL0     C78071   7.740  -1.171   5.699 -0.0526 -0.3582 -0.6309
  579MOL0     C78072   7.667  -1.299   5.743  0.4463 -0.6873 -0.0094
  579MOL0     C78073   7.772  -1.402   5.738 -0.6899  1.5072  0.3184
  579MOL0    Cl78074   7.773  -1.491   5.576  0.8054 -0.2725 -0.0060
  579MOL0     C78075   7.644  -0.340   5.607 -0.7504  0.5052  0.3889
  579MOL0     C78076   7.644  -0.217   5.672  0.8621 -0.4971 -0.5444
  579MOL0     O78077   7.656  -0.057   5.943  0.0257 -0.1035 -0.2337
  579MOL0     C78078   7.629   0.218   6.006  0.7058  0.1639  0.3126
  579MOL0     C78079   7.645   0.353   6.029 -0.0916  1.0864  0.8714
  579MOL0     N78080   7.289   0.954   6.283  0.2282  0.0205 -0.1203
  579MOL0     N78081   7.277   0.975   6.412 -0.0489  0.0033  0.3331
  579MOL0     C78082   7.268   1.748   7.176 -0.6363  0.5752 -0.4783
  579MOL0     C78083   7.211   1.858   7.236 -0.4167 -0.4028 -0.2475
  579MOL0     C78084   6.899   2.182   7.252  0.6484 -0.6871 -0.0936
  579MOL0     C78085   6.831   2.259   7.156 -0.4497 -0.1185  0.7983
  579MOL0     C78086   6.782   2.385   7.188  0.3402 -0.7388  0.0197
  579MOL0     C78087   6.782   2.431   7.323  0.9815  0.0289  0.6351
  579MOL0     O78088   6.719   2.554   7.337  0.4832  0.3572  0.3910
  579MOL0     C78089   6.722   2.618   7.461  0.1720 -0.3445 -0.7689
  579MOL0     C78090   6.684   2.766   7.435  0.6964 -0.6753  0.3092
  579MOL0     C78091   6.703   2.856   7.556 -0.5296 -0.0105  0.0686
  579MOL0     C78092   6.666   3.000   7.537  0.6484 -0.2482  0.5006
  579MOL0     C78093   6.719   3.071   7.418 -0.7905 -0.2524 -0.4474
  579MOL0     C78094   6.784   3.144   7.342  0.1950  0.2199 -0.2301
  579MOL0     C78095   6.831   2.356   7.422  0.2525 -0.1558 -0.1217
  579MOL0     C78096   6.904   2.239   7.383  0.5960  0.7334 -0.5773
  579MOL0     C78097   6.981   2.179   7.489 -0.9892  0.2514  1.1339
  579MOL0     H78098   6.887   1.781   7.190 -0.3367  2.4202 -1.2323
  579MOL0     H78099   6.989   1.566   7.092  0.4313  2.0383 -4.9249
  579MOL0     H78100   7.209   1.502   6.870 -0.2948  3.4679 -1.3790
  579MOL0     H78101   7.312   1.627   6.908 -1.3147 -0.3451 -3.0180
  579MOL0     H78102   7.496   1.463   6.976  0.6686  1.2792 -2.7551
  579MOL0     H78103   7.437   1.456   6.809  1.9992 -2.8280 -0.5876
  579MOL0     H78104   7.272   1.285   6.867 -0.4449 -0.5204 -0.0414
  579MOL0     H78105   7.336   1.287   7.032 -1.4069  2.0729  0.2598
  579MOL0     H78106   7.503   1.234   6.780 -1.5153 -1.7263 -0.9411
  579MOL0     H78107   7.568   1.225   6.940 -0.2490  0.2758 -0.8378
  579MOL0     H78108   7.440   1.024   6.992 -1.6554  0.8611 -0.3076
  579MOL0     H78109   7.347   1.038   6.859 -0.4134  0.6983 -4.1957
  579MOL0     H78110   7.659   1.005   6.802  2.6233 -5.0018 -2.4974
  579MOL0     H78111   7.557   0.876   6.870 -2.2240  0.8959  1.9197
  579MOL0     H78112   7.433   0.853   6.673  2.8323 -1.8996  0.1000
  579MOL0     H78113   7.588   0.882   6.612 -2.3156 -1.7260 -2.2863
  579MOL0     H78114   7.373   1.095   6.649 -1.1319 -0.2945 -1.1816
  579MOL0     H78115   7.519   1.140   6.577 -2.7208  2.3975  0.6328
  579MOL0     H78116   7.597   1.025   6.338  0.2010 -3.1669 -0.0233
  579MOL0     H78117   7.404   1.038   6.041 -3.5285 -1.6234  0.0833
  579MOL0     H78118   7.574   1.011   6.118  0.1408 -2.2956  1.5848
  579MOL0     H78119   7.521   0.760   6.123  0.8971  1.4391  0.2369
  579MOL0     H78120   7.396   0.795   6.012 -1.1700  0.4031  2.7688
  579MOL0     H78121   7.701   0.829   5.963 -0.1509 -0.7161  0.0686
  579MOL0     H78122   7.578   0.901   5.855 -2.9699 -1.3190 -0.6350
  579MOL0     H78123   7.672   0.679   5.788 -0.9586 -0.9029 -0.8990
  579MOL0     H78124   7.499   0.674   5.816 -1.3194 -0.8035  1.4254
  579MOL0     H78125   7.581   0.463   5.714 -2.0776 -0.5222  0.2235
  579MOL0     H78126   7.604   0.232   5.665  2.1360  0.6316 -0.7086
  579MOL0     H78127   7.305  -0.198   5.739  0.2403  0.0602 -0.8558
  579MOL0     H78128   7.312  -0.402   5.635  2.0846 -2.3486 -1.1290
  579MOL0     H78129   7.586  -0.674   5.415 -0.5203 -2.4571  1.6637
  579MOL0     H78130   7.700  -0.545   5.444  1.4633 -0.4584  1.9900
  579MOL0     H78131   7.784  -0.695   5.586 -0.0850 -0.8414 -1.7126
  579MOL0     H78132   7.659  -0.618   5.700 -1.9859 -0.2107 -1.3306
  579MOL0     H78133   7.521  -0.816   5.696 -2.1327 -1.3526 -1.9358
  579MOL0     H78134   7.571  -0.850   5.536 -0.4410  1.7059 -0.4776
  579MOL0     H78135   7.757  -0.880   5.773  1.8594 -2.1880  1.8787
  579MOL0     H78136   7.799  -0.929   5.610 -0.2793 -1.0394  0.2091
  579MOL0     H78137   7.574  -1.074   5.614  0.3835  1.0458 -0.3685
  579MOL0     H78138   7.575  -1.046   5.784 -1.6961 -0.9774 -0.1746
  579MOL0     H78139   7.780  -1.173   5.598  0.0051  1.9316 -0.7039
  579MOL0     H78140   7.820  -1.150   5.771 -2.5955  1.9957  1.8176
  579MOL0     H78141   7.583  -1.331   5.681  3.5850 -3.9032 -3.1321
  579MOL0     H78142   7.627  -1.293   5.844  0.1602 -0.2945 -0.1449
  579MOL0     H78143   7.873  -1.368   5.761  0.1772 -0.3699 -0.4506
  579MOL0     H78144   7.747  -1.479   5.812 -0.4621  0.1467 -0.9617
  579MOL0     H78145   7.736  -0.389   5.576 -1.4212 -0.9626  0.6169
  579MOL0     H78146   7.740  -0.169   5.689  0.6436 -0.6225  1.2730
  579MOL0     H78147   7.644   0.158   6.096  0.7539  1.0128  0.8851
  579MOL0     H78148   7.668   0.381   6.131  0.6798 -0.1030  1.0337
  579MOL0     H78149   7.376   1.740   7.168 -0.7741 -4.6935 -0.9194
  579MOL0     H78150   7.254   1.952   7.272 -1.0696 -0.9914  2.2975
  579MOL0     H78151   6.837   2.234   7.050  1.1858  1.9462  0.3396
  579MOL0     H78152   6.745   2.449   7.109 -0.9072 -0.0446  1.1287
  579MOL0     H78153   6.823   2.611   7.504 -0.8001  0.1907  1.7896
  579MOL0     H78154   6.648   2.564   7.521  0.1296 -0.6060 -1.0568
  579MOL0     H78155   6.581   2.775   7.399  1.0621  0.4065 -0.5151
  579MOL0     H78156   6.754   2.799   7.358 -0.7758  0.3520 -0.6340
  579MOL0     H78157   6.809   2.851   7.582 -0.5678 -1.0912  0.0943
  579MOL0     H78158   6.639   2.825   7.639  2.7112 -0.5742  2.5224
  579MOL0     H78159   6.558   3.012   7.537  0.6683 -0.0368  1.0457
  579MOL0     H78160   6.702   3.056   7.625 -3.8350  0.2429  2.2961
  579MOL0     H78161   6.845   3.204   7.276 -1.1286  1.0681 -0.7121
  579MOL0     H78162   6.823   2.376   7.528 -0.1305  1.0471 -0.3579
  579MOL0     H78163   6.962   2.234   7.581  0.7650  1.2042  0.9520
  579MOL0     H78164   6.946   2.078   7.511 -3.3073  1.4611  3.4591
  579MOL0     H78165   7.088   2.166   7.471 -1.1669 -3.0793  1.6888
  580MOL0     O78166   2.858   6.229   2.208  0.6740 -0.0775 -0.2686
  580MOL0     C78167   2.766   6.149   2.194  0.2356  0.2422  0.1253
  580MOL0     O78168   2.780   6.025   2.140 -0.4499 -0.3506 -0.8658
  580MOL0     C78169   2.905   5.988   2.099  0.1473  0.0537  0.3022
  580MOL0     C78170   3.010   5.975   2.192 -0.7537  0.1297  0.1678
  580MOL0     C78171   3.145   5.956   2.151 -0.2604  0.3036  0.1698
  580MOL0     C78172   3.167   5.955   2.014 -0.1820 -0.3708 -0.2189
  580MOL0     O78173   3.300   5.937   1.991  1.0140 -1.1038  0.4579
  580MOL0     C78174   3.333   5.853   1.880  0.5490  0.2088 -0.2630
  580MOL0     C78175   3.481   5.821   1.890  0.6234  0.7255  0.5976
  580MOL0     C78176   3.578   5.935   1.906  0.7034  0.4857 -0.6078
  580MOL0     C78177   3.717   5.874   1.943  0.6795 -0.3539  0.7377
  580MOL0     C78178   3.818   5.982   1.939  0.0327  0.2400  0.4284
  580MOL0     C78179   3.976   5.936   1.952 -0.2734 -1.1423 -0.6744
  580MOL0     C78180   3.994   5.817   2.044 -0.8763 -0.4166  0.3788
  580MOL0     C78181   4.133   5.755   2.013 -0.1170  0.2736 -0.2711
  580MOL0     N78182   4.236   5.846   2.060 -0.4049 -0.4773  0.2325
  580MOL0     C78183   4.228   5.937   2.165 -0.5207  0.7267 -0.7713
  580MOL0     C78184   4.342   6.012   2.152 -0.9400  0.1481  0.2233
  580MOL0     C78185   4.395   6.131   2.242  0.0981  0.6979  0.8137
  580MOL0     C78186   4.552   6.142   2.251  1.0539  0.2973  0.3826
  580MOL0     C78187   4.581   6.270   2.333 -0.9826 -1.6733 -0.2483
  580MOL0     C78188   4.735   6.300   2.329  0.1606  0.0693 -0.5648
  580MOL0     O78189   4.816   6.197   2.381  0.1449 -0.2552 -0.9571
  580MOL0     C78190   4.953   6.215   2.390  0.6334 -0.0626 -0.0356
  580MOL0     C78191   5.020   6.341   2.371  0.2374 -0.1172  0.3112
  580MOL0     C78192   5.157   6.348   2.396  0.1919 -0.4048 -0.4535
  580MOL0     C78193   5.233   6.235   2.426 -1.2658  0.0866  0.2055
  580MOL0     C78194   5.384   6.244   2.460  0.8530 -0.4624 -0.1252
  580MOL0     O78195   5.452   6.127   2.471 -0.0059  0.2373  0.2522
  580MOL0     C78196   5.573   6.132   2.535 -0.0126  0.0506  0.1568
  580MOL0     C78197   5.578   6.116   2.676  1.5155  0.7219  0.7498
  580MOL0     C78198   5.693   6.119   2.749 -0.4382  0.4199 -0.5242
  580MOL0     C78199   5.818   6.143   2.693  0.1642  0.8417 -0.0712
  580MOL0     O78200   5.929   6.150   2.771 -0.8335  0.2415 -0.2323
  580MOL0     C78201   6.041   6.062   2.733  0.0114  0.3937  0.6889
  580MOL0     C78202   6.144   6.069   2.844  0.0963  0.1394  0.3529
  580MOL0     C78203   6.135   5.930   2.919 -0.3267 -1.5689 -0.8824
  580MOL0     C78204   6.223   5.940   3.052  0.2956  0.2577  0.6730
  580MOL0     C78205   6.180   5.855   3.172 -0.4006 -0.5534 -0.2135
  580MOL0     C78206   6.201   5.704   3.157  0.0723 -0.1339 -0.1690
  580MOL0     C78207   6.355   5.667   3.189  1.2627 -0.2086  0.2126
  580MOL0     C78208   6.408   5.541   3.116  0.8684  0.9036  0.0266
  580MOL0    Cl78209   6.585   5.513   3.144 -0.0392  0.0212  0.3312
  580MOL0     C78210   5.818   6.154   2.554 -0.2300 -0.5023 -0.0335
  580MOL0     C78211   5.692   6.149   2.477  0.5956 -0.2394 -0.8253
  580MOL0     O78212   5.427   6.353   2.482 -0.4423 -0.7929 -0.6920
  580MOL0     C78213   5.165   6.114   2.428 -0.3305  0.1883 -0.6211
  580MOL0     C78214   5.027   6.102   2.419  0.1269  0.4334  0.4335
  580MOL0     N78215   4.404   5.969   2.039  0.0336  0.4447  0.6196
  580MOL0     N78216   4.342   5.875   1.984  1.1366  0.2784  0.0246
  580MOL0     C78217   3.068   5.972   1.915 -0.2424 -0.0853 -0.0536
  580MOL0     C78218   2.936   5.977   1.960  0.2546 -0.3015  1.3126
  580MOL0     C78219   2.621   6.181   2.221 -0.4494 -0.2969  0.8733
  580MOL0     C78220   2.527   6.155   2.112  0.0944 -0.3166  0.2432
  580MOL0     C78221   2.390   6.159   2.125 -0.4875  0.3874 -0.1865
  580MOL0     C78222   2.336   6.204   2.258  0.3565 -0.2927  0.0186
  580MOL0     O78223   2.194   6.198   2.296 -0.1811  0.6783 -0.5449
  580MOL0     C78224   2.106   6.132   2.211 -0.6918  0.2494  0.0539
  580MOL0     C78225   1.989   6.074   2.289  0.5000 -0.1261  0.5807
  580MOL0     C78226   1.901   5.993   2.185 -0.8702  0.6489  0.3216
  580MOL0     C78227   1.768   5.963   2.255 -1.4716  0.3099 -0.2462
  580MOL0     C78228   1.658   5.937   2.164  0.2079  0.9874  0.2339
  580MOL0     C78229   1.570   5.930   2.086 -0.0583  0.2817  0.4892
  580MOL0     C78230   2.429   6.258   2.351 -0.4643  0.6952 -0.8323
  580MOL0     C78231   2.575   6.250   2.337 -0.0565  0.8073 -1.1146
  580MOL0     C78232   2.670   6.310   2.438 -0.3435  0.0757  1.2038
  580MOL0     H78233   2.983   5.970   2.297  0.2028 -3.4902  0.3827
  580MOL0     H78234   3.218   5.916   2.220  0.4185  0.7772 -0.2690
  580MOL0     H78235   3.280   5.758   1.890  1.7423 -0.5579 -0.8565
  580MOL0     H78236   3.328   5.900   1.781  0.8476 -1.3071 -1.0274
  580MOL0     H78237   3.502   5.779   1.791  0.8933 -0.5507  1.1726
  580MOL0     H78238   3.496   5.747   1.969 -1.1177 -1.4359 -0.9748
  580MOL0     H78239   3.533   5.999   1.983  0.2255  0.3378 -0.7631
  580MOL0     H78240   3.581   5.994   1.814  2.6772  5.5627  2.3062
  580MOL0     H78241   3.711   5.823   2.040  0.8015 -0.0755  0.8921
  580MOL0     H78242   3.753   5.803   1.868 -0.0292 -1.4013  1.3566
  580MOL0     H78243   3.810   6.041   1.847  0.7927 -2.9655 -1.8442
  580MOL0     H78244   3.791   6.054   2.018  4.3554 -0.5830  3.0035
  580MOL0     H78245   4.011   5.909   1.852 -2.0879 -1.0941 -1.3434
  580MOL0     H78246   4.036   6.020   1.990 -2.3622  1.6008 -3.0612
  580MOL0     H78247   3.916   5.744   2.018 -2.2225 -0.5721  4.2082
  580MOL0     H78248   3.984   5.841   2.150  2.0170 -1.2427  0.9299
  580MOL0     H78249   4.140   5.662   2.071 -0.8062 -0.6978 -1.6722
  580MOL0     H78250   4.149   5.731   1.907  1.0303 -3.4904  0.5972
  580MOL0     H78251   4.149   5.934   2.240  0.1629  1.9553  0.0226
  580MOL0     H78252   4.341   6.220   2.209 -0.1403  0.1179 -0.4158
  580MOL0     H78253   4.345   6.095   2.332 -2.2098  1.3486 -0.1484
  580MOL0     H78254   4.588   6.051   2.301 -0.9745  0.2663  1.8926
  580MOL0     H78255   4.585   6.142   2.146  0.0006 -1.6584 -0.0116
  580MOL0     H78256   4.558   6.265   2.440  0.7869 -2.6916  0.1282
  580MOL0     H78257   4.527   6.358   2.298 -0.1338 -0.4436  1.3885
  580MOL0     H78258   4.755   6.396   2.379 -3.7113  0.6269  0.2672
  580MOL0     H78259   4.761   6.314   2.223 -2.0329 -1.6153 -1.4125
  580MOL0     H78260   4.970   6.428   2.330 -2.6547  0.6676  4.7985
  580MOL0     H78261   5.208   6.442   2.377  0.3297 -0.3812  0.0327
  580MOL0     H78262   5.482   6.097   2.723  2.4630 -0.6891  2.2246
  580MOL0     H78263   5.684   6.104   2.856 -1.3677  2.1555 -0.3312
  580MOL0     H78264   5.993   5.966   2.712 -0.5639  1.0987 -1.4707
  580MOL0     H78265   6.081   6.095   2.637  0.0794  1.2659  1.0069
  580MOL0     H78266   6.244   6.071   2.799 -1.0303  0.3323 -2.3796
  580MOL0     H78267   6.117   6.145   2.916  0.3669 -0.0037  0.6070
  580MOL0     H78268   6.040   5.908   2.969 -0.2567 -0.5045 -0.2390
  580MOL0     H78269   6.167   5.847   2.856  1.4047 -2.7960  1.4548
  580MOL0     H78270   6.228   6.046   3.078  4.2966  1.0420 -2.2582
  580MOL0     H78271   6.325   5.911   3.025  0.8307 -0.7914  3.4976
  580MOL0     H78272   6.072   5.866   3.189 -0.0008 -1.4863  4.2170
  580MOL0     H78273   6.238   5.885   3.260 -0.9280 -2.0234  0.6841
  580MOL0     H78274   6.131   5.653   3.224 -0.1878  3.5658  2.6953
  580MOL0     H78275   6.173   5.676   3.055  0.4510 -3.2342  0.4634
  580MOL0     H78276   6.373   5.668   3.297  4.7529  0.2579 -0.2688
  580MOL0     H78277   6.412   5.751   3.148  3.8670 -1.4530  1.0813
  580MOL0     H78278   6.350   5.457   3.153  3.1443 -0.3724  0.9519
  580MOL0     H78279   6.394   5.539   3.008 -1.8449 -4.7618  0.1397
  580MOL0     H78280   5.905   6.166   2.490  0.1015  1.7155  0.7302
  580MOL0     H78281   5.700   6.162   2.370 -2.4213  0.0261 -1.1218
  580MOL0     H78282   5.224   6.025   2.448  1.5373  1.5629  0.2858
  580MOL0     H78283   4.978   6.007   2.432  2.2071 -1.1372 -2.1612
  580MOL0     H78284   3.097   5.979   1.810  0.9238  0.3004  0.2818
  580MOL0     H78285   2.855   5.974   1.887 -0.3174  0.9882  1.8514
  580MOL0     H78286   2.571   6.111   2.023 -4.7585 -0.4405 -2.4013
  580MOL0     H78287   2.326   6.122   2.046  1.2220 -0.1108 -1.3935
  580MOL0     H78288   2.164   6.048   2.172  0.6796  0.7647  0.9293
  580MOL0     H78289   2.083   6.195   2.125  1.1789 -0.0179 -0.6846
  580MOL0     H78290   1.925   6.148   2.338 -1.5478 -1.0605 -0.5676
  580MOL0     H78291   2.024   6.007   2.368 -2.6849 -1.7016  0.8245
  580MOL0     H78292   1.952   5.898   2.167  0.2435  0.7736  2.5079
  580MOL0     H78293   1.887   6.054   2.095 -2.2148  0.6326  0.5008
  580MOL0     H78294   1.787   5.878   2.321 -1.6233  0.6496  0.2419
  580MOL0     H78295   1.746   6.041   2.329  2.0715 -0.3315  1.7350
  580MOL0     H78296   1.484   5.924   2.022 -1.4234  1.0121  2.1867
  580MOL0     H78297   2.401   6.296   2.449  1.8770  1.0810 -0.2524
  580MOL0     H78298   2.760   6.349   2.391 -1.6224  2.9072  0.9096
  580MOL0     H78299   2.624   6.396   2.488  1.4747  0.9578  1.4401
  580MOL0     H78300   2.688   6.236   2.517 -0.4494  0.4152  1.5540
  581MOL0     O78301  10.033   4.820  11.345 -0.5147 -0.0833  0.8144
  581MOL0     C78302   9.933   4.745  11.353 -0.0000 -0.5142 -0.1044
  581MOL0     O78303   9.900   4.649  11.264 -0.0807  0.0724 -0.3527
  581MOL0     C78304   9.995   4.595  11.181  0.3407 -0.4094  0.0937
  581MOL0     C78305  10.138   4.594  11.212  0.3053  0.7230 -0.0687
  581MOL0     C78306  10.230   4.526  11.122 -0.1285  0.1423  0.3895
  581MOL0     C78307  10.178   4.461  11.010  0.6958 -0.3248 -0.8307
  581MOL0     O78308  10.240   4.375  10.927 -0.2798 -0.1940 -0.1307
  581MOL0     C78309  10.365   4.322  10.966 -0.1533 -0.1573 -0.4247
  581MOL0     C78310  10.412   4.196  10.893 -0.3035 -0.4421  0.0513
  581MOL0     C78311  10.500   4.100  10.975  0.1088 -0.6874 -0.1101
  581MOL0     C78312  10.622   4.178  11.018 -0.2845 -1.0436 -0.8035
  581MOL0     C78313  10.725   4.197  10.906  0.1637 -0.5856  0.2980
  581MOL0     C78314  10.835   4.293  10.949  0.0904 -0.1343  0.0347
  581MOL0     C78315  10.940   4.301  10.847  0.0773  0.5417  0.7465
  581MOL0     C78316  11.026   4.424  10.879 -0.1581 -0.1174 -0.6852
  581MOL0     N78317  10.970   4.563  10.849 -0.6791  0.3104  0.5338
  581MOL0     C78318  10.973   4.620  10.722 -0.3645  0.8666 -0.6800
  581MOL0     C78319  10.876   4.713  10.720 -0.2653 -0.7003 -0.2894
  581MOL0     C78320  10.804   4.778  10.598 -0.1848  0.4094  0.3279
  581MOL0     C78321  10.731   4.904  10.643 -0.4281 -0.5050 -0.5136
  581MOL0     C78322  10.684   4.982  10.524  1.4414  0.7087  0.1953
  581MOL0     C78323  10.628   5.111  10.568 -0.8689 -0.3173 -0.1786
  581MOL0     O78324  10.605   5.201  10.458 -0.8080  0.2713 -0.2161
  581MOL0     C78325  10.699   5.299  10.438 -0.4072 -0.8308  0.3712
  581MOL0     C78326  10.837   5.292  10.474  0.1463 -0.8267  0.2760
  581MOL0     C78327  10.928   5.399  10.471  0.1777 -0.1498  0.0249
  581MOL0     C78328  10.882   5.522  10.423  1.4155 -0.1752 -0.4080
  581MOL0     C78329  10.960   5.650  10.423 -0.3715  0.0024 -0.0516
  581MOL0     O78330  10.887   5.769  10.416 -0.1951  0.3821  0.1334
  581MOL0     C78331  10.948   5.890  10.418 -0.2177 -0.5671  0.2925
  581MOL0     C78332  11.036   5.919  10.528 -0.6169  0.5371  0.9881
  581MOL0     C78333  11.097   6.042  10.542  0.7679  0.3353  0.2044
  581MOL0     C78334  11.055   6.148  10.457  0.0197  0.2696  0.5272
  581MOL0     O78335  11.083   6.275  10.502 -0.0090 -0.5484 -0.0544
  581MOL0     C78336  11.140   6.369  10.410 -0.3730  0.7855  0.1573
  581MOL0     C78337  11.293   6.337  10.400  0.3889 -0.6912 -0.2951
  581MOL0     C78338  11.358   6.435  10.308 -0.2232 -0.6112 -0.3277
  581MOL0     C78339  11.335   6.583  10.348  0.2343  0.4046 -0.0914
  581MOL0     C78340  11.437   6.688  10.290  0.2653  0.0028  0.0111
  581MOL0     C78341  11.586   6.671  10.324 -0.4496  0.4901 -0.9674
  581MOL0     C78342  11.669   6.788  10.274  0.0921 -0.3212 -0.4046
  581MOL0     C78343  11.828   6.766  10.295 -0.0502  0.0373  0.5579
  581MOL0    Cl78344  11.862   6.800  10.464  0.1451 -0.2963 -0.4392
  581MOL0     C78345  10.956   6.124  10.355 -0.4385  0.3478  0.4414
  581MOL0     C78346  10.898   5.992  10.341 -0.1809 -0.3149  0.3297
  581MOL0     O78347  11.081   5.641  10.437  0.3444  0.6085  0.6863
  581MOL0     C78348  10.743   5.535  10.394  0.2418  0.5940 -0.1354
  581MOL0     C78349  10.657   5.430  10.398  0.1784 -0.5450 -0.1040
  581MOL0     N78350  10.829   4.715  10.854  0.1262  0.0701 -0.4219
  581MOL0     N78351  10.885   4.625  10.928 -0.1167 -0.1848  0.1236
  581MOL0     C78352  10.043   4.466  10.983  1.0203 -0.6961 -0.3946
  581MOL0     C78353   9.954   4.524  11.074  0.1005 -0.5768 -0.3392
  581MOL0     C78354   9.840   4.776  11.473 -0.1273 -0.3500  0.3506
  581MOL0     C78355   9.878   4.874  11.571 -0.2566  0.5656  1.2315
  581MOL0     C78356   9.800   4.895  11.693 -0.2873  0.0179  1.1888
  581MOL0     C78357   9.680   4.831  11.708  0.0714  0.4013  0.0180
  581MOL0     O78358   9.610   4.842  11.825 -0.2124 -0.5132  0.1203
  581MOL0     C78359   9.519   4.733  11.845  1.3571  0.4045 -0.5559
  581MOL0     C78360   9.469   4.740  11.996 -0.4840 -0.0520  0.2420
  581MOL0     C78361   9.353   4.634  12.028 -0.5186  0.1423  0.4455
  581MOL0     C78362   9.394   4.486  12.017 -0.1932  0.1070 -0.8070
  581MOL0     C78363   9.310   4.405  12.111 -0.6447  0.8382 -0.1113
  581MOL0     C78364   9.247   4.328  12.182  0.6224  0.9586  0.3202
  581MOL0     C78365   9.638   4.754  11.596  0.1439 -0.3709 -0.4069
  581MOL0     C78366   9.705   4.736  11.476  0.4576  0.1837 -0.6979
  581MOL0     C78367   9.640   4.658  11.363  0.1843 -0.1225  0.1801
  581MOL0     H78368  10.177   4.650  11.297 -1.6171  2.2687 -0.1374
  581MOL0     H78369  10.334   4.513  11.151  0.0922  0.9979 -0.0082
  581MOL0     H78370  10.440   4.401  10.958 -0.3615 -0.1870 -4.5809
  581MOL0     H78371  10.362   4.301  11.074 -1.4532 -2.2539 -0.8034
  581MOL0     H78372  10.478   4.235  10.815  0.4276  0.0889  0.9193
  581MOL0     H78373  10.333   4.141  10.840 -1.8868  1.9454 -0.2070
  581MOL0     H78374  10.529   4.014  10.914  1.8291 -0.8826  0.9033
  581MOL0     H78375  10.449   4.053  11.060  1.3602  3.9926  3.6880
  581MOL0     H78376  10.594   4.278  11.053 -1.7146 -1.5383 -0.4780
  581MOL0     H78377  10.670   4.141  11.109  4.2637  0.3094 -2.3991
  581MOL0     H78378  10.766   4.098  10.882 -1.8521 -1.2349 -0.6112
  581MOL0     H78379  10.686   4.238  10.812  1.0027 -1.3054 -0.3789
  581MOL0     H78380  10.783   4.389  10.961 -0.0349 -0.3050  0.9420
  581MOL0     H78381  10.876   4.259  11.044  0.5736 -1.6284 -0.6874
  581MOL0     H78382  10.901   4.326  10.748  0.0518  0.0329  0.6273
  581MOL0     H78383  11.002   4.211  10.852  3.4211  2.2770 -3.2861
  581MOL0     H78384  11.071   4.419  10.979 -1.0777  0.6527 -0.2206
  581MOL0     H78385  11.106   4.422  10.804  0.0377  1.9902 -0.5979
  581MOL0     H78386  11.025   4.596  10.630  0.1139  2.8806 -0.9804
  581MOL0     H78387  10.868   4.802  10.513 -3.7040 -2.4458 -3.5206
  581MOL0     H78388  10.737   4.699  10.563  0.7298 -0.7575  1.1556
  581MOL0     H78389  10.645   4.880  10.706 -0.0452 -2.6498 -0.7223
  581MOL0     H78390  10.800   4.964  10.702 -1.9881 -0.2478  1.1478
  581MOL0     H78391  10.608   4.924  10.471 -0.9082  2.9642  0.9023
  581MOL0     H78392  10.759   5.003  10.447  1.2208  2.0870  0.3317
  581MOL0     H78393  10.696   5.154  10.642 -1.8264  4.5769 -1.7800
  581MOL0     H78394  10.532   5.093  10.617 -0.1788 -0.1930  1.2484
  581MOL0     H78395  10.873   5.196  10.510 -6.4166 -3.4843  1.0890
  581MOL0     H78396  11.026   5.386  10.516  0.1975 -0.0600  0.0068
  581MOL0     H78397  11.062   5.838  10.595 -0.6617  1.0759  1.6604
  581MOL0     H78398  11.162   6.052  10.629  0.1401 -0.3274  0.7630
  581MOL0     H78399  11.089   6.354  10.314 -1.0474  0.5746  0.5399
  581MOL0     H78400  11.123   6.467  10.454  0.7845 -0.3815  3.5166
  581MOL0     H78401  11.342   6.356  10.496 -0.7961 -0.6969  0.3255
  581MOL0     H78402  11.305   6.235  10.363  0.7072 -1.2656  1.3272
  581MOL0     H78403  11.467   6.424  10.310  0.0316  1.5017 -0.8453
  581MOL0     H78404  11.324   6.423  10.205 -0.7941 -1.9625  0.0008
  581MOL0     H78405  11.346   6.587  10.457  0.3866  1.2264 -0.1288
  581MOL0     H78406  11.238   6.613  10.307  0.3670 -0.5307 -1.1411
  581MOL0     H78407  11.394   6.782  10.324 -0.6058  0.4913 -2.2692
  581MOL0     H78408  11.437   6.689  10.181  2.8079 -0.0520 -0.0669
  581MOL0     H78409  11.592   6.666  10.433 -0.4684 -0.6681 -1.0140
  581MOL0     H78410  11.628   6.580  10.280 -0.5852  0.7876 -1.7410
  581MOL0     H78411  11.639   6.886  10.312 -1.8853 -0.6732 -0.9796
  581MOL0     H78412  11.641   6.794  10.169 -1.3068  1.8277  0.0337
  581MOL0     H78413  11.868   6.668  10.268 -2.4968 -0.9058  0.0288
  581MOL0     H78414  11.878   6.840  10.232 -1.3349  0.6141  0.1591
  581MOL0     H78415  10.927   6.211  10.297  1.0484  1.3955  1.1854
  581MOL0     H78416  10.829   5.983  10.257  0.0296  3.8511 -0.5526
  581MOL0     H78417  10.709   5.633  10.361 -2.3573 -0.3099 -0.4253
  581MOL0     H78418  10.555   5.444  10.365 -0.4983 -0.4372  1.8999
  581MOL0     H78419  10.000   4.398  10.910  1.5705 -0.7072 -0.7149
  581MOL0     H78420   9.847   4.519  11.058 -0.0889 -1.4339  1.0440
  581MOL0     H78421   9.971   4.927  11.555 -0.2345 -0.0423 -0.8850
  581MOL0     H78422   9.835   4.962  11.771  0.6493 -0.8584  1.5531
  581MOL0     H78423   9.571   4.639  11.823  0.4602 -0.1745 -0.2561
  581MOL0     H78424   9.434   4.742  11.778 -0.1564  1.6765  1.4136
  581MOL0     H78425   9.450   4.846  12.015 -1.3276  0.7697 -4.1992
  581MOL0     H78426   9.552   4.703  12.058 -0.0405  1.6094  0.6727
  581MOL0     H78427   9.269   4.651  11.960  1.2994 -1.4345 -2.4235
  581MOL0     H78428   9.333   4.656  12.133  0.8948 -1.3900  1.0710
  581MOL0     H78429   9.351   4.444  11.926 -2.5201  1.4190 -0.3850
  581MOL0     H78430   9.501   4.465  12.019 -0.0129  0.9687 -0.9917
  581MOL0     H78431   9.190   4.262  12.245  2.0727  0.8425  1.5587
  581MOL0     H78432   9.534   4.721  11.594 -1.4950  4.1700 -1.3589
  581MOL0     H78433   9.643   4.709  11.267 -0.6480 -2.2000 -1.0059
  581MOL0     H78434   9.686   4.558  11.359 -2.2275 -1.2788 -0.7996
  581MOL0     H78435   9.535   4.634  11.379  0.2949 -1.6249 -1.0649
  582MOL0     O78436   3.029   1.425   3.789 -0.4559  0.7400 -1.0686
  582MOL0     C78437   3.055   1.325   3.727  0.4659 -0.4379 -0.1012
  582MOL0     O78438   3.147   1.317   3.629 -0.8176 -0.4467 -0.2151
  582MOL0     C78439   3.262   1.398   3.635  0.4321  0.4519 -0.6760
  582MOL0     C78440   3.279   1.478   3.521 -0.3937 -0.1641  0.4465
  582MOL0     C78441   3.408   1.548   3.495  0.3300 -0.1356 -0.9344
  582MOL0     C78442   3.498   1.537   3.605 -0.3175 -0.0075  0.5084
  582MOL0     O78443   3.623   1.594   3.587  1.2828 -0.6624  0.2406
  582MOL0     C78444   3.646   1.693   3.486 -0.1483 -0.3807  0.1487
  582MOL0     C78445   3.782   1.753   3.502 -0.0666 -0.0533 -0.8032
  582MOL0     C78446   3.808   1.797   3.639 -0.0894 -0.0704 -0.4730
  582MOL0     C78447   3.939   1.878   3.638  0.1035 -0.3196 -0.0242
  582MOL0     C78448   3.970   1.941   3.780 -0.2863  0.1272  0.2623
  582MOL0     C78449   3.857   2.025   3.844  0.8150 -0.7187  0.1159
  582MOL0     C78450   3.823   2.157   3.771 -0.6024 -0.8789  0.3378
  582MOL0     C78451   3.675   2.198   3.787  1.1428 -0.4950  0.2483
  582MOL0     N78452   3.575   2.138   3.709 -0.5774  0.4416  0.4969
  582MOL0     C78453   3.514   2.021   3.736 -0.8204 -0.5684 -0.1404
  582MOL0     C78454   3.403   2.024   3.657  0.3884 -0.0258  0.7187
  582MOL0     C78455   3.317   1.904   3.629 -0.7315 -0.8240  0.1215
  582MOL0     C78456   3.189   1.919   3.710  0.3977 -0.9947 -0.8785
  582MOL0     C78457   3.127   1.785   3.761 -0.6321 -0.5765  0.1408
  582MOL0     C78458   3.030   1.809   3.870  0.8194  1.0494 -0.6242
  582MOL0     O78459   2.936   1.902   3.818  0.0624 -0.4970 -0.5006
  582MOL0     C78460   2.811   1.852   3.801 -0.5582  1.3605  0.8037
  582MOL0     C78461   2.720   1.930   3.869  0.0671 -0.3469 -0.6715
  582MOL0     C78462   2.595   1.868   3.891 -0.5287  0.2539 -0.6993
  582MOL0     C78463   2.567   1.734   3.858  0.8596 -0.4106  0.5666
  582MOL0     C78464   2.433   1.678   3.891  0.5428  0.0352  0.2444
  582MOL0     O78465   2.349   1.759   3.953  0.7394 -0.2451 -0.5015
  582MOL0     C78466   2.215   1.712   3.968  0.0617  0.5472  0.5718
  582MOL0     C78467   2.113   1.756   3.886  0.3691  0.4038  0.0441
  582MOL0     C78468   1.981   1.708   3.902 -0.3331  0.6629  0.5413
  582MOL0     C78469   1.948   1.631   4.017 -0.0388  0.2555 -0.1743
  582MOL0     O78470   1.818   1.594   4.056 -0.3972  0.4927  0.8190
  582MOL0     C78471   1.701   1.662   3.998 -0.4375 -0.4016 -1.0024
  582MOL0     C78472   1.557   1.646   4.062  0.2431  0.2452  0.0953
  582MOL0     C78473   1.507   1.500   4.065  0.4544 -0.9268  0.3730
  582MOL0     C78474   1.495   1.433   3.929 -0.2718  0.4320  0.0889
  582MOL0     C78475   1.379   1.335   3.917  0.5430 -0.2092 -0.2378
  582MOL0     C78476   1.248   1.414   3.895 -0.8298 -0.2549 -0.4377
  582MOL0     C78477   1.126   1.328   3.900  0.0868 -0.5346 -0.4238
  582MOL0     C78478   1.109   1.278   4.046 -0.6458 -0.1835  0.3630
  582MOL0    Cl78479   1.070   1.111   4.056  0.0483 -0.1887  0.1991
  582MOL0     C78480   2.048   1.582   4.103 -0.9157  0.4021  0.4165
  582MOL0     C78481   2.178   1.618   4.073 -0.7338 -0.3150 -0.1487
  582MOL0     O78482   2.411   1.560   3.862 -0.7710 -0.2598 -0.5790
  582MOL0     C78483   2.655   1.671   3.771  0.2377  0.8224 -0.1447
  582MOL0     C78484   2.781   1.726   3.749  0.2949  0.3103  0.6279
  582MOL0     N78485   3.400   2.144   3.588  0.1098 -0.4800 -0.5549
  582MOL0     N78486   3.493   2.213   3.638 -0.2498 -0.6362  0.0841
  582MOL0     C78487   3.477   1.455   3.720 -0.7457  0.1306 -0.3587
  582MOL0     C78488   3.359   1.385   3.733 -0.0118 -1.0065  0.9215
  582MOL0     C78489   2.977   1.203   3.765  0.5302 -0.1872 -0.1602
  582MOL0     C78490   3.049   1.081   3.762 -0.9261 -0.4975 -0.2601
  582MOL0     C78491   2.995   0.961   3.806  0.9088  0.2384 -0.1340
  582MOL0     C78492   2.865   0.953   3.855  0.0344 -0.1464  0.2008
  582MOL0     O78493   2.796   0.832   3.870 -0.4542  0.4704  0.2242
  582MOL0     C78494   2.858   0.765   3.974  0.6265  0.0164 -0.4034
  582MOL0     C78495   2.786   0.630   3.984 -0.7673  0.8142  0.0510
  582MOL0     C78496   2.639   0.646   4.025 -0.9535  0.3867 -0.5839
  582MOL0     C78497   2.560   0.513   4.031  0.7925  0.4120  0.4317
  582MOL0     C78498   2.585   0.426   4.149 -0.0957  0.2209  0.0499
  582MOL0     C78499   2.605   0.341   4.237 -0.2773 -0.2309  0.3685
  582MOL0     C78500   2.787   1.070   3.855 -0.5542 -0.4476 -0.1627
  582MOL0     C78501   2.843   1.196   3.822  0.6376 -0.1199  0.2907
  582MOL0     C78502   2.760   1.322   3.848 -0.4231  0.7678  0.1499
  582MOL0     H78503   3.201   1.488   3.446  0.4481 -3.9451 -1.2061
  582MOL0     H78504   3.422   1.612   3.408  1.1342 -1.2702 -1.6682
  582MOL0     H78505   3.644   1.660   3.381 -0.9933 -1.1451  0.3946
  582MOL0     H78506   3.566   1.767   3.487  2.0588  2.2476 -1.7509
  582MOL0     H78507   3.800   1.822   3.419 -0.5796 -0.0165 -0.8872
  582MOL0     H78508   3.851   1.670   3.486  1.2116  0.6727  0.6989
  582MOL0     H78509   3.819   1.709   3.704 -1.1769  0.4402  0.4235
  582MOL0     H78510   3.719   1.852   3.668 -2.0540 -3.8386  1.3715
  582MOL0     H78511   4.016   1.810   3.602 -0.6393 -1.0948 -0.1854
  582MOL0     H78512   3.933   1.952   3.558  2.4305 -0.1712 -0.1338
  582MOL0     H78513   4.012   1.864   3.844 -2.3450 -1.7849 -0.5703
  582MOL0     H78514   4.055   2.006   3.756 -0.6247  0.4401 -0.1199
  582MOL0     H78515   3.764   1.968   3.854  0.4974 -0.5811 -1.6628
  582MOL0     H78516   3.900   2.044   3.942 -0.3588 -2.6827  1.0656
  582MOL0     H78517   3.859   2.149   3.668  0.1684 -1.6028  0.6647
  582MOL0     H78518   3.888   2.236   3.808  2.6167 -0.4779 -5.0953
  582MOL0     H78519   3.648   2.188   3.893 -0.4173 -2.8373 -0.2786
  582MOL0     H78520   3.666   2.305   3.766  2.1905 -0.7906 -1.9440
  582MOL0     H78521   3.540   1.935   3.797  0.5030 -0.7659 -0.9342
  582MOL0     H78522   3.296   1.906   3.521  2.5261  0.6152 -0.5847
  582MOL0     H78523   3.362   1.806   3.648 -0.5864 -0.6595  0.6273
  582MOL0     H78524   3.214   1.975   3.801  2.9151 -1.9198 -0.9139
  582MOL0     H78525   3.128   1.977   3.641  1.2465 -0.5238 -1.2569
  582MOL0     H78526   3.204   1.728   3.813 -0.3673  0.1855  0.6102
  582MOL0     H78527   3.088   1.731   3.674  0.8918 -3.2838  1.0352
  582MOL0     H78528   3.081   1.841   3.961  2.3418 -0.5302 -0.8519
  582MOL0     H78529   2.986   1.712   3.893  3.2225 -0.0828 -0.4098
  582MOL0     H78530   2.743   2.032   3.896  0.4880 -0.5137 -0.3777
  582MOL0     H78531   2.524   1.931   3.944 -0.4870 -1.1398  1.1425
  582MOL0     H78532   2.141   1.832   3.813  1.3775  1.3485  1.3659
  582MOL0     H78533   1.899   1.732   3.835 -0.7729 -0.3665  0.6831
  582MOL0     H78534   1.735   1.766   4.003  1.3843 -1.0114  0.0944
  582MOL0     H78535   1.706   1.631   3.893  3.5523 -0.2483 -0.9749
  582MOL0     H78536   1.540   1.688   4.162  0.2099 -1.0135  0.6307
  582MOL0     H78537   1.477   1.702   4.013  0.2108 -0.1325 -0.2810
  582MOL0     H78538   1.578   1.439   4.122  2.1978  0.9909  0.3554
  582MOL0     H78539   1.416   1.502   4.125  0.3498 -0.7434  0.2076
  582MOL0     H78540   1.589   1.379   3.911 -1.8372 -2.4973  0.1110
  582MOL0     H78541   1.480   1.501   3.844 -5.3315  1.4915  1.5485
  582MOL0     H78542   1.383   1.265   4.002  2.2348  1.3881  1.0550
  582MOL0     H78543   1.407   1.276   3.829  1.4664 -0.3869  0.1667
  582MOL0     H78544   1.234   1.495   3.967  1.1567  0.1199 -0.4273
  582MOL0     H78545   1.252   1.462   3.797 -1.6263 -2.3622 -1.5757
  582MOL0     H78546   1.130   1.250   3.824  0.2425  0.0445 -1.0212
  582MOL0     H78547   1.041   1.390   3.868 -0.3545 -2.0241 -2.3105
  582MOL0     H78548   1.207   1.283   4.096  0.1970 -1.3719 -1.0844
  582MOL0     H78549   1.045   1.351   4.095  1.8724  3.0196 -0.7126
  582MOL0     H78550   2.038   1.512   4.186 -1.0680 -0.1319 -0.0505
  582MOL0     H78551   2.257   1.578   4.136 -1.0910 -0.6794  0.0681
  582MOL0     H78552   2.630   1.579   3.720 -2.8660 -0.3174  3.0825
  582MOL0     H78553   2.851   1.661   3.697  3.2520  1.6157  2.7355
  582MOL0     H78554   3.547   1.447   3.802 -1.4948 -0.2639  0.2565
  582MOL0     H78555   3.331   1.330   3.822  0.2839 -0.1804  1.5500
  582MOL0     H78556   3.147   1.071   3.717  0.5935  1.4865  2.2862
  582MOL0     H78557   3.047   0.871   3.773 -0.6758 -1.6319  2.1128
  582MOL0     H78558   2.846   0.831   4.061  1.8921 -0.1341 -0.0856
  582MOL0     H78559   2.967   0.768   3.961  0.4276  0.6102 -2.1408
  582MOL0     H78560   2.833   0.580   4.070 -1.5114  1.6885  0.9967
  582MOL0     H78561   2.798   0.560   3.901 -0.5599  1.0925 -0.1536
  582MOL0     H78562   2.581   0.705   3.953  0.8331  3.0578  0.0241
  582MOL0     H78563   2.630   0.687   4.126 -2.4111 -2.2366  0.4686
  582MOL0     H78564   2.453   0.530   4.019  0.6341 -0.0550  1.1419
  582MOL0     H78565   2.589   0.452   3.945  0.7321  2.3234 -1.0095
  582MOL0     H78566   2.640   0.270   4.309  3.2305  1.7819  0.8747
  582MOL0     H78567   2.683   1.070   3.884 -1.3803  4.9284 -2.0497
  582MOL0     H78568   2.796   1.373   3.937 -1.1002  0.4007  0.6469
  582MOL0     H78569   2.755   1.392   3.764  1.5916  0.4111 -0.3327
  582MOL0     H78570   2.662   1.285   3.880 -0.3262  0.5698  0.2259
  583MOL0     O78571  10.544   6.073   5.524 -0.0987 -0.8190 -0.3051
  583MOL0     C78572  10.512   6.044   5.410  0.7094  0.8619 -0.5179
  583MOL0     O78573  10.584   5.959   5.332 -0.5314 -0.3058 -0.8757
  583MOL0     C78574  10.709   5.919   5.377 -1.0298 -0.9116 -0.2279
  583MOL0     C78575  10.818   6.018   5.387  0.1277 -0.2477  0.8892
  583MOL0     C78576  10.953   5.976   5.418  0.3755 -0.4089  0.1357
  583MOL0     C78577  10.975   5.837   5.436  0.0987  0.5175 -0.3316
  583MOL0     O78578  11.090   5.805   5.492 -0.0105 -0.2738  0.5391
  583MOL0     C78579  11.130   5.665   5.499 -0.1024  0.6263 -0.5873
  583MOL0     C78580  11.262   5.644   5.572  0.1102 -0.4529 -0.5402
  583MOL0     C78581  11.273   5.675   5.720  0.0593  0.5126  0.0304
  583MOL0     C78582  11.158   5.763   5.775  0.2459 -0.5115  0.5254
  583MOL0     C78583  11.171   5.802   5.921 -0.2995  0.2787  0.9246
  583MOL0     C78584  11.316   5.858   5.961  0.4238  0.4132  0.7046
  583MOL0     C78585  11.357   5.986   5.884  0.2354  0.4554 -1.1885
  583MOL0     C78586  11.253   6.089   5.857 -0.0259 -0.5664 -0.4776
  583MOL0     N78587  11.201   6.157   5.975  0.3492  0.5312 -0.5884
  583MOL0     C78588  11.265   6.169   6.091  0.1824 -0.5824 -0.2751
  583MOL0     C78589  11.168   6.176   6.188 -0.5129 -0.3551 -0.0115
  583MOL0     C78590  11.180   6.163   6.340 -0.0989 -0.1196  0.1082
  583MOL0     C78591  11.255   6.026   6.374 -0.5133  0.1058  0.0458
  583MOL0     C78592  11.200   5.892   6.335  0.0059 -0.2364  0.2425
  583MOL0     C78593  11.062   5.877   6.393 -0.0132 -0.7989 -0.3774
  583MOL0     O78594  11.070   5.881   6.533  0.1143 -0.4008 -0.1319
  583MOL0     C78595  10.969   5.945   6.610 -0.0096  0.3235 -0.0326
  583MOL0     C78596  10.996   5.959   6.744  0.7540  0.4707  0.2502
  583MOL0     C78597  10.903   6.020   6.834 -0.5738  0.1972 -0.2647
  583MOL0     C78598  10.776   6.059   6.785  0.1728 -0.7802 -0.1723
  583MOL0     C78599  10.681   6.149   6.861 -0.8666 -0.4684  0.8444
  583MOL0     O78600  10.563   6.179   6.809 -0.1910  0.3162  0.0036
  583MOL0     C78601  10.497   6.286   6.876 -0.2389  0.3068 -0.0883
  583MOL0     C78602  10.513   6.416   6.827  0.7557  0.4477  0.3168
  583MOL0     C78603  10.451   6.519   6.882  0.2826 -0.0676  0.4395
  583MOL0     C78604  10.371   6.496   7.000  0.1874  0.3759 -0.3638
  583MOL0     O78605  10.329   6.600   7.066 -0.3796  0.6182 -0.3336
  583MOL0     C78606  10.305   6.724   6.996  0.4747 -1.0350  0.1045
  583MOL0     C78607  10.227   6.830   7.075 -0.0097  0.7876  0.4084
  583MOL0     C78608  10.095   6.775   7.122  0.5508  0.3236  0.7304
  583MOL0     C78609  10.019   6.873   7.213  0.4597 -0.6610 -0.3250
  583MOL0     C78610   9.984   7.010   7.142 -0.4344 -0.6734 -0.0005
  583MOL0     C78611   9.865   7.081   7.208  0.1934  0.5662 -0.0223
  583MOL0     C78612   9.869   7.083   7.368 -0.2452 -0.5544  0.5885
  583MOL0     C78613   9.973   7.182   7.418 -0.5775 -0.1251  0.6571
  583MOL0    Cl78614  10.139   7.118   7.395 -0.0387  0.3043 -0.1408
  583MOL0     C78615  10.350   6.369   7.053  0.4427  0.2471 -0.3008
  583MOL0     C78616  10.416   6.260   6.992  0.6456 -0.1654 -0.0186
  583MOL0     O78617  10.723   6.205   6.962 -0.5157  1.7021  0.2309
  583MOL0     C78618  10.747   6.041   6.653  0.2519  0.2785 -0.3138
  583MOL0     C78619  10.828   5.978   6.561  0.0264  0.8266 -0.3018
  583MOL0     N78620  11.044   6.168   6.121 -0.1974 -0.1565 -0.5052
  583MOL0     N78621  11.069   6.171   5.995 -0.0834 -0.3779  0.1194
  583MOL0     C78622  10.865   5.744   5.421  0.0737  0.1210 -0.1684
  583MOL0     C78623  10.741   5.785   5.383  0.3310  0.2724  0.2305
  583MOL0     C78624  10.387   6.099   5.348  0.5245 -0.7503  0.8411
  583MOL0     C78625  10.323   6.205   5.415  0.6831 -0.5485 -0.8032
  583MOL0     C78626  10.195   6.247   5.376  0.3039 -0.8386  0.6869
  583MOL0     C78627  10.126   6.193   5.271  0.3339  0.5310  0.0360
  583MOL0     O78628  10.001   6.236   5.257  0.1443 -0.4080  0.0101
  583MOL0     C78629   9.914   6.180   5.160  0.3023  0.1579  0.5989
  583MOL0     C78630   9.768   6.234   5.172 -0.9454  0.1372 -0.6159
  583MOL0     C78631   9.759   6.379   5.116 -1.2565  0.2403  0.2380
  583MOL0     C78632   9.647   6.465   5.172  1.3580  1.3370 -0.2112
  583MOL0     C78633   9.660   6.606   5.135  0.1305 -0.3051  0.2948
  583MOL0     C78634   9.683   6.714   5.091  0.3174  1.0391 -0.4580
  583MOL0     C78635  10.188   6.104   5.186 -0.2583 -0.1133  0.3274
  583MOL0     C78636  10.329   6.064   5.214 -0.1554  0.2649  0.2237
  583MOL0     C78637  10.405   6.008   5.104  0.2669  0.3127  0.0158
  583MOL0     H78638  10.789   6.121   5.370 -2.8389 -1.1522 -0.1628
  583MOL0     H78639  11.037   6.043   5.434  0.5049 -0.4145 -0.4938
  583MOL0     H78640  11.048   5.610   5.546  1.3194 -0.6514  0.4978
  583MOL0     H78641  11.138   5.619   5.401 -3.5331  1.0645 -1.2015
  583MOL0     H78642  11.330   5.718   5.529 -2.1921  2.2838  0.1977
  583MOL0     H78643  11.304   5.546   5.550  0.9648 -0.9566  2.7572
  583MOL0     H78644  11.373   5.708   5.750 -1.6323  2.4330  4.7328
  583MOL0     H78645  11.256   5.578   5.768 -2.3935 -0.8095 -3.1910
  583MOL0     H78646  11.165   5.858   5.720 -0.8332  1.0822  2.9647
  583MOL0     H78647  11.062   5.716   5.751 -0.3435  1.1464 -0.5252
  583MOL0     H78648  11.097   5.880   5.941 -0.3240 -0.0292  2.1677
  583MOL0     H78649  11.150   5.707   5.972  0.3291 -2.3419 -3.2650
  583MOL0     H78650  11.315   5.873   6.069  0.1251 -1.1542  0.9307
  583MOL0     H78651  11.386   5.776   5.946 -0.5354 -0.2933 -0.0588
  583MOL0     H78652  11.394   5.959   5.785  1.5592 -1.9592 -0.1069
  583MOL0     H78653  11.442   6.023   5.943  0.4892 -2.9581  0.8755
  583MOL0     H78654  11.294   6.171   5.796  0.2515 -0.9445 -0.8030
  583MOL0     H78655  11.165   6.058   5.799  0.3958  1.4469 -2.3489
  583MOL0     H78656  11.371   6.155   6.112  0.0703  0.8222  1.4782
  583MOL0     H78657  11.247   6.240   6.380  0.2636 -1.7579  3.0066
  583MOL0     H78658  11.082   6.180   6.385 -1.2052 -2.4722 -1.2314
  583MOL0     H78659  11.349   6.042   6.321  0.5860  0.2512  1.9593
  583MOL0     H78660  11.277   6.028   6.481  1.0878 -0.0043 -0.2576
  583MOL0     H78661  11.265   5.806   6.353 -0.5011 -0.9222 -1.0430
  583MOL0     H78662  11.183   5.889   6.227  0.3957 -1.9705  0.2054
  583MOL0     H78663  11.018   5.780   6.369 -0.2912 -0.3584 -1.7733
  583MOL0     H78664  10.989   5.951   6.358  1.0866 -0.0092 -1.0832
  583MOL0     H78665  11.098   5.940   6.773  1.0014 -1.5305 -1.6347
  583MOL0     H78666  10.929   6.042   6.937 -1.8380 -0.6442  0.2568
  583MOL0     H78667  10.581   6.419   6.742 -1.1706 -1.9747 -1.4761
  583MOL0     H78668  10.466   6.613   6.830 -0.0081 -1.0946 -1.6085
  583MOL0     H78669  10.402   6.767   6.971 -0.5924  0.2770 -2.0190
  583MOL0     H78670  10.251   6.704   6.903  1.5857  0.9884 -1.0180
  583MOL0     H78671  10.294   6.866   7.153  0.9117 -0.6423  0.3096
  583MOL0     H78672  10.197   6.919   7.020 -2.1915  0.5459  1.0657
  583MOL0     H78673  10.032   6.763   7.033 -1.3325  1.8941  1.7556
  583MOL0     H78674  10.107   6.677   7.168 -1.5412 -1.9119 -2.9279
  583MOL0     H78675  10.082   6.893   7.300  1.0663  0.2655 -0.9675
  583MOL0     H78676   9.925   6.835   7.255  0.6681  1.5404  2.4717
  583MOL0     H78677   9.948   6.989   7.041  0.6930  0.3299 -0.6473
  583MOL0     H78678  10.070   7.077   7.129  0.3883 -1.3560  1.6960
  583MOL0     H78679   9.855   7.183   7.170 -1.0727  0.3135 -0.4183
  583MOL0     H78680   9.772   7.038   7.170  1.2794  0.2358 -2.5586
  583MOL0     H78681   9.899   6.988   7.413 -2.4410  0.4449  4.5866
  583MOL0     H78682   9.776   7.112   7.417  0.9123 -2.3970  4.2314
  583MOL0     H78683   9.965   7.285   7.382  0.9630 -1.2165 -3.3927
  583MOL0     H78684   9.963   7.185   7.527  1.2470  6.0087  1.0010
  583MOL0     H78685  10.283   6.347   7.136  1.8796  0.1753  0.8967
  583MOL0     H78686  10.398   6.161   7.031 -2.1806  0.1980 -0.1506
  583MOL0     H78687  10.652   6.076   6.612  0.7591  2.1257  0.0142
  583MOL0     H78688  10.789   5.964   6.461 -1.3449  0.7918  0.2137
  583MOL0     H78689  10.872   5.638   5.442  0.2455  0.5085  2.0123
  583MOL0     H78690  10.658   5.716   5.369 -0.9439  1.6032  0.9284
  583MOL0     H78691  10.368   6.240   5.507  1.2951 -2.0018 -0.5235
  583MOL0     H78692  10.142   6.320   5.437  0.7813 -0.7838  1.0421
  583MOL0     H78693   9.903   6.073   5.180 -2.0105  0.3620  0.6808
  583MOL0     H78694   9.953   6.198   5.059  4.3030 -0.2790  1.8916
  583MOL0     H78695   9.740   6.233   5.278  0.9304  1.6434 -0.0385
  583MOL0     H78696   9.697   6.167   5.123 -0.6602 -1.6983  1.3158
  583MOL0     H78697   9.763   6.380   5.007  0.1624  1.3098  0.2622
  583MOL0     H78698   9.847   6.425   5.162 -2.2246  0.7648  1.6380
  583MOL0     H78699   9.562   6.414   5.127  1.2866  0.6170  0.7160
  583MOL0     H78700   9.639   6.459   5.281 -1.6576 -3.3210 -0.4374
  583MOL0     H78701   9.710   6.815   5.067  2.3958  0.8977  0.9443
  583MOL0     H78702  10.151   6.072   5.089 -0.4904  3.1185 -0.7720
  583MOL0     H78703  10.427   5.903   5.126 -2.9723 -0.5329 -0.1508
  583MOL0     H78704  10.340   5.992   5.017  1.3079  0.0650 -0.7369
  583MOL0     H78705  10.488   6.076   5.083 -1.7552  2.2891 -2.1777
  584MOL0     O78706   9.171  10.744   2.467  0.2869 -0.2395 -0.0339
  584MOL0     C78707   9.194  10.622   2.459  0.0388 -0.6475 -0.0973
  584MOL0     O78708   9.179  10.540   2.574  0.0646  0.4835 -0.3085
  584MOL0     C78709   9.171  10.601   2.696  0.2556 -0.3853 -0.6066
  584MOL0     C78710   9.276  10.585   2.786 -0.4471  0.9794  0.0869
  584MOL0     C78711   9.269  10.641   2.914 -0.0890  0.7869 -0.5351
  584MOL0     C78712   9.160  10.716   2.952  0.7102 -0.3905  0.0905
  584MOL0     O78713   9.157  10.772   3.082  0.2881  0.3138  0.5823
  584MOL0     C78714   9.081  10.695   3.172  0.9423 -0.2222 -0.9389
  584MOL0     C78715   9.094  10.777   3.304  0.2222  0.1573  0.9067
  584MOL0     C78716   9.046  10.682   3.419  0.5943 -0.1629 -0.2202
  584MOL0     C78717   9.074  10.740   3.557  0.4215  0.2329 -0.3603
  584MOL0     C78718   9.049  10.641   3.672  0.2412 -0.2425  0.7161
  584MOL0     C78719   9.152  10.524   3.685  0.9527  0.6217  0.2195
  584MOL0     C78720   9.092  10.413   3.765 -0.2229 -0.0871 -0.2334
  584MOL0     C78721   9.191  10.318   3.806 -0.0297  1.3674  0.1993
  584MOL0     N78722   9.290  10.373   3.895 -0.2511 -1.0405 -0.0769
  584MOL0     C78723   9.405  10.427   3.847  0.1839  0.1018 -0.6864
  584MOL0     C78724   9.467  10.475   3.955  0.2463 -1.0159  1.0419
  584MOL0     C78725   9.600  10.545   3.961  0.4829  0.5292  0.2332
  584MOL0     C78726   9.588  10.687   3.913 -0.6529 -0.6852  0.4816
  584MOL0     C78727   9.703  10.785   3.955 -0.2824  0.4298 -0.6160
  584MOL0     C78728   9.681  10.923   3.891  0.9406 -0.4461  0.5931
  584MOL0     O78729   9.564  10.984   3.946 -0.2022  0.0279  0.0525
  584MOL0     C78730   9.540  11.117   3.926 -0.8230  0.4184 -0.3217
  584MOL0     C78731   9.418  11.167   3.963  0.4215  0.8049  0.5682
  584MOL0     C78732   9.394  11.302   3.949  0.6604  0.1520  0.0535
  584MOL0     C78733   9.486  11.390   3.899  0.2364 -0.0406  0.7630
  584MOL0     C78734   9.460  11.531   3.889  0.4748  0.2550  0.5646
  584MOL0     O78735   9.520  11.598   3.786  0.7202  0.0437 -0.7848
  584MOL0     C78736   9.512  11.736   3.787 -0.5429  0.0758  0.0120
  584MOL0     C78737   9.413  11.801   3.711  0.3418  0.2377 -0.0692
  584MOL0     C78738   9.411  11.941   3.703 -0.1296  1.0662  0.1188
  584MOL0     C78739   9.502  12.021   3.774  0.4938  0.9462 -0.0287
  584MOL0     O78740   9.484  12.159   3.765 -0.5598  0.3315 -0.9573
  584MOL0     C78741   9.561  12.242   3.857  0.2204 -0.6796 -0.8003
  584MOL0     C78742   9.547  12.387   3.806 -0.6303  0.5500 -0.0319
  584MOL0     C78743   9.406  12.433   3.784  0.7847 -0.1628  0.1944
  584MOL0     C78744   9.400  12.583   3.765  0.6277 -0.8339 -0.3439
  584MOL0     C78745   9.251  12.632   3.730 -0.0625 -0.1533  0.2894
  584MOL0     C78746   9.252  12.788   3.698  0.4703 -1.0308 -0.8689
  584MOL0     C78747   9.108  12.839   3.672  1.0969 -0.0012 -0.3120
  584MOL0     C78748   9.101  12.990   3.683  0.5026 -0.4332 -0.5664
  584MOL0    Cl78749   9.087  13.026   3.857  0.0551 -0.0303  0.3405
  584MOL0     C78750   9.591  11.945   3.860 -0.1311 -0.4273  0.2698
  584MOL0     C78751   9.600  11.809   3.869  0.5003 -0.9854  0.2684
  584MOL0     O78752   9.381  11.578   3.973  0.6673  0.6207  0.3222
  584MOL0     C78753   9.613  11.345   3.857 -0.0227 -0.0999 -0.7689
  584MOL0     C78754   9.635  11.204   3.875 -0.0690  0.4274  0.2493
  584MOL0     N78755   9.393  10.455   4.069  0.4809 -0.4190  0.0727
  584MOL0     N78756   9.293  10.382   4.031 -0.1985  0.6954 -1.1717
  584MOL0     C78757   9.058  10.744   2.857 -0.3562  0.5660 -0.3178
  584MOL0     C78758   9.060  10.679   2.734  0.8368 -0.0638 -0.6043
  584MOL0     C78759   9.180  10.574   2.320  0.1646  0.1450 -0.1239
  584MOL0     C78760   9.088  10.468   2.293 -1.5694 -0.6320  0.1743
  584MOL0     C78761   9.070  10.410   2.166  0.0467  0.2988  0.0744
  584MOL0     C78762   9.138  10.483   2.061 -0.6392  1.1002  0.2383
  584MOL0     O78763   9.138  10.441   1.928  0.1057  0.4290  0.3040
  584MOL0     C78764   9.104  10.303   1.895 -0.2145  0.3640 -0.4482
  584MOL0     C78765   9.208  10.198   1.942  0.2974 -0.9510 -0.0543
  584MOL0     C78766   9.342  10.229   1.889  0.0013  1.1923 -0.5283
  584MOL0     C78767   9.432  10.119   1.957  0.0890  0.0415  0.0793
  584MOL0     C78768   9.576  10.132   1.912  0.2552 -0.3620  0.3592
  584MOL0     C78769   9.684  10.134   1.863  0.2811 -0.0408  0.3106
  584MOL0     C78770   9.224  10.588   2.092  0.0009  0.1327 -0.3712
  584MOL0     C78771   9.247  10.633   2.220  0.1888 -0.0312  0.3688
  584MOL0     C78772   9.353  10.735   2.241  0.7030  0.0518  0.1033
  584MOL0     H78773   9.360  10.519   2.768 -1.2927 -0.2348  0.4017
  584MOL0     H78774   9.341  10.624   2.994 -3.2281  0.8955  2.5251
  584MOL0     H78775   8.977  10.697   3.139  1.0699  2.0520 -1.3907
  584MOL0     H78776   9.106  10.589   3.183  1.1998 -0.2954 -2.1056
  584MOL0     H78777   9.028  10.864   3.302 -2.0959 -1.4688 -2.4560
  584MOL0     H78778   9.202  10.795   3.307  0.5867 -0.6839 -2.6862
  584MOL0     H78779   9.103  10.588   3.410  0.2396 -0.4630  0.5466
  584MOL0     H78780   8.938  10.666   3.413  0.6873 -0.6081 -0.7970
  584MOL0     H78781   9.173  10.786   3.555 -1.0339  3.6363 -2.1624
  584MOL0     H78782   9.000  10.820   3.569  1.0920  0.6878  0.8658
  584MOL0     H78783   9.062  10.693   3.767  4.1042  1.0019 -0.3202
  584MOL0     H78784   8.945  10.608   3.661 -1.4276  4.1307  1.3659
  584MOL0     H78785   9.157  10.469   3.590 -3.9135 -2.0614  1.1740
  584MOL0     H78786   9.245  10.562   3.727  0.3815  0.3144  1.8237
  584MOL0     H78787   9.011  10.355   3.719 -2.3180  2.0386  0.6020
  584MOL0     H78788   9.049  10.456   3.856  1.3333  0.0861  0.4453
  584MOL0     H78789   9.138  10.238   3.860 -0.6951 -0.1748 -2.5828
  584MOL0     H78790   9.252  10.268   3.730  0.8764 -2.1128  2.9215
  584MOL0     H78791   9.433  10.431   3.742  0.8815 -1.5163 -0.5917
  584MOL0     H78792   9.623  10.551   4.068 -2.6687 -0.2706  1.0553
  584MOL0     H78793   9.681  10.495   3.908  2.0026  0.6188  2.3280
  584MOL0     H78794   9.589  10.694   3.803  0.9851  0.7983  0.5446
  584MOL0     H78795   9.496  10.726   3.956  0.4337  1.0906  1.3262
  584MOL0     H78796   9.794  10.739   3.915  0.3502 -0.2424  1.4516
  584MOL0     H78797   9.709  10.792   4.064 -0.7668  0.7939 -0.6112
  584MOL0     H78798   9.663  10.897   3.786 -0.1091 -2.3109  1.2057
  584MOL0     H78799   9.777  10.974   3.900  1.2404 -0.4938 -1.5953
  584MOL0     H78800   9.341  11.108   4.011  0.1616 -0.5812 -1.4075
  584MOL0     H78801   9.304  11.346   3.992  2.8580  1.7756  3.4485
  584MOL0     H78802   9.349  11.745   3.644  0.9326 -0.8726  0.2686
  584MOL0     H78803   9.333  11.990   3.647 -0.7180  3.1968  2.6317
  584MOL0     H78804   9.517  12.227   3.956 -1.7764 -3.9094 -2.0093
  584MOL0     H78805   9.665  12.210   3.866  0.5252  0.3144 -0.6709
  584MOL0     H78806   9.578  12.454   3.887 -3.4228  1.1355  0.6525
  584MOL0     H78807   9.609  12.390   3.716 -0.7574 -1.0525 -0.1980
  584MOL0     H78808   9.360  12.382   3.698 -1.9294  0.8113  0.9630
  584MOL0     H78809   9.351  12.399   3.872 -0.2289  1.3637  0.1844
  584MOL0     H78810   9.464  12.598   3.677 -1.8340 -1.0250 -2.2886
  584MOL0     H78811   9.432  12.643   3.850 -3.5585  0.7512  0.3392
  584MOL0     H78812   9.191  12.608   3.818  2.3844 -1.1142  1.8004
  584MOL0     H78813   9.211  12.563   3.654  1.4981 -2.9115  1.8340
  584MOL0     H78814   9.288  12.830   3.792 -0.5654  0.7351 -1.2097
  584MOL0     H78815   9.328  12.821   3.626  2.1832  0.7061  1.5805
  584MOL0     H78816   9.041  12.804   3.750 -0.2656  2.3893 -0.3353
  584MOL0     H78817   9.068  12.802   3.577 -3.5068 -0.4811  1.5438
  584MOL0     H78818   9.194  13.033   3.644  2.0031 -0.5814  2.5783
  584MOL0     H78819   9.015  13.033   3.631  1.1264  3.7938  1.4179
  584MOL0     H78820   9.668  12.005   3.907 -0.1601 -0.5814  0.5112
  584MOL0     H78821   9.678  11.762   3.929 -0.0137 -0.1883  1.5990
  584MOL0     H78822   9.691  11.411   3.819  0.1744  0.4602  0.5468
  584MOL0     H78823   9.735  11.169   3.852 -0.8642 -1.7036 -0.2028
  584MOL0     H78824   8.976  10.814   2.874 -1.7195 -1.1473  0.5415
  584MOL0     H78825   8.979  10.676   2.662  0.3202 -3.2216 -0.0115
  584MOL0     H78826   9.039  10.422   2.378 -1.0653 -1.5133  0.0057
  584MOL0     H78827   9.006  10.324   2.147  1.5565 -0.4443 -2.0196
  584MOL0     H78828   9.093  10.299   1.786  1.0955  3.5243 -0.8032
  584MOL0     H78829   9.007  10.272   1.935  0.2018  0.1985  0.4518
  584MOL0     H78830   9.181  10.096   1.914  2.1996 -1.3620 -0.5123
  584MOL0     H78831   9.209  10.200   2.052  1.6105 -0.6819 -0.0510
  584MOL0     H78832   9.376  10.330   1.915  1.8729  0.8863 -1.6076
  584MOL0     H78833   9.344  10.221   1.780  2.0187 -0.5065 -0.4337
  584MOL0     H78834   9.419  10.118   2.065  0.6090 -1.1401  0.1407
  584MOL0     H78835   9.399  10.021   1.921 -2.7603  1.0850 -0.3928
  584MOL0     H78836   9.780  10.158   1.824  1.0817  0.4045  2.4320
  584MOL0     H78837   9.279  10.615   2.002  0.4365 -3.2124 -1.2098
  584MOL0     H78838   9.394  10.721   2.341  0.7848  0.3622  0.1150
  584MOL0     H78839   9.434  10.723   2.169  1.5684 -0.3714  1.1299
  584MOL0     H78840   9.297  10.829   2.231  1.2141  0.4969  1.2080
  585MOL0     O78841   1.620   7.039   0.482 -0.2382  0.1854 -0.3889
  585MOL0     C78842   1.606   7.133   0.410 -0.1103  1.1083 -0.1807
  585MOL0     O78843   1.504   7.153   0.314 -1.3121  0.5639  0.2226
  585MOL0     C78844   1.404   7.062   0.301  0.0598 -0.3258 -0.1994
  585MOL0     C78845   1.386   7.011   0.180 -0.9191 -0.6158  0.3017
  585MOL0     C78846   1.275   6.929   0.156  0.7829 -0.1646 -0.0553
  585MOL0     C78847   1.192   6.892   0.260 -0.0378  0.4781  0.3883
  585MOL0     O78848   1.083   6.812   0.222 -0.0839  0.1482  0.0042
  585MOL0     C78849   0.960   6.809   0.290 -0.2029  0.4428 -1.8074
  585MOL0     C78850   0.856   6.779   0.181  0.1516 -0.7428 -0.1281
  585MOL0     C78851   0.717   6.740   0.240 -0.0951 -0.0654 -0.7055
  585MOL0     C78852   0.624   6.652   0.157 -1.1037 -0.5837  0.6669
  585MOL0     C78853   0.483   6.660   0.221  0.6624 -0.4165 -0.1453
  585MOL0     C78854   0.381   6.586   0.125  0.6569 -0.2035 -0.0162
  585MOL0     C78855   0.256   6.553   0.211  0.2491 -0.0391  0.4966
  585MOL0     C78856   0.136   6.520   0.115  0.3867 -0.9774 -0.1713
  585MOL0     N78857   0.016   6.495   0.201  0.2190  0.6249 -0.0383
  585MOL0     C78858  -0.083   6.407   0.169 -1.2291  0.4953 -0.6790
  585MOL0     C78859  -0.173   6.422   0.269 -0.0978  0.6221 -0.0745
  585MOL0     C78860  -0.305   6.351   0.288  0.3260 -0.5687  0.0508
  585MOL0     C78861  -0.424   6.441   0.230 -0.3449 -0.2135 -0.1724
  585MOL0     C78862  -0.548   6.349   0.248  0.7345  0.4285 -0.1317
  585MOL0     C78863  -0.680   6.379   0.180  1.2706  0.7840  0.4425
  585MOL0     O78864  -0.774   6.274   0.221 -1.0109  0.2240 -0.3343
  585MOL0     C78865  -0.914   6.302   0.218 -0.2150 -0.0292  0.6795
  585MOL0     C78866  -0.970   6.415   0.158 -0.1007 -0.1886 -1.0727
  585MOL0     C78867  -1.102   6.431   0.146 -0.2967  0.2832 -0.0683
  585MOL0     C78868  -1.184   6.334   0.208  0.2481  0.4628 -0.2501
  585MOL0     C78869  -1.333   6.351   0.218 -0.3585 -0.0750 -0.3588
  585MOL0     O78870  -1.383   6.469   0.156 -0.3026  0.1639 -0.0429
  585MOL0     C78871  -1.524   6.478   0.164 -0.1951 -0.2613 -0.6658
  585MOL0     C78872  -1.583   6.528   0.279 -0.6741 -0.0389 -0.2754
  585MOL0     C78873  -1.720   6.524   0.302 -0.4166 -0.3354 -0.1725
  585MOL0     C78874  -1.796   6.460   0.204 -0.1429 -0.8132  0.0081
  585MOL0     O78875  -1.942   6.453   0.212 -0.4056  0.3916  0.9958
  585MOL0     C78876  -2.007   6.581   0.214  0.3551 -0.2205  0.5767
  585MOL0     C78877  -2.163   6.562   0.236 -0.3480 -0.8009  0.7448
  585MOL0     C78878  -2.245   6.686   0.197 -0.8407 -0.0857  0.6954
  585MOL0     C78879  -2.393   6.674   0.221 -1.0036 -0.3735  0.2721
  585MOL0     C78880  -2.474   6.794   0.169  0.5884  0.9681 -0.2540
  585MOL0     C78881  -2.618   6.773   0.225 -0.5880 -0.2926  0.4764
  585MOL0     C78882  -2.713   6.863   0.149  1.0990  0.8588 -1.6455
  585MOL0     C78883  -2.760   6.807   0.012 -0.5365 -0.7495 -0.3999
  585MOL0    Cl78884  -2.848   6.932  -0.078  0.1889  0.2485 -0.0578
  585MOL0     C78885  -1.739   6.407   0.091  1.0458  0.5734 -0.1853
  585MOL0     C78886  -1.605   6.410   0.077  0.5170 -0.7080 -0.1250
  585MOL0     O78887  -1.392   6.267   0.279  0.5358  0.0115 -0.3569
  585MOL0     C78888  -1.130   6.226   0.279  0.3317  0.7011 -0.2091
  585MOL0     C78889  -0.993   6.209   0.280  0.3935  0.3814  0.9100
  585MOL0     N78890  -0.136   6.529   0.347 -0.5337  0.5001  0.3999
  585MOL0     N78891  -0.026   6.571   0.304 -0.0226 -0.2114 -0.9373
  585MOL0     C78892   1.208   6.932   0.392 -0.0685 -0.4071 -0.1557
  585MOL0     C78893   1.312   7.022   0.408 -0.3478 -0.3087  0.3742
  585MOL0     C78894   1.726   7.208   0.390 -0.1637  0.7074 -0.7531
  585MOL0     C78895   1.823   7.168   0.297 -0.8281  0.6646  0.9044
  585MOL0     C78896   1.941   7.241   0.295 -0.7084  0.9237 -0.6552
  585MOL0     C78897   1.969   7.353   0.366 -0.1660  0.5756  0.2062
  585MOL0     O78898   2.078   7.431   0.340  0.1487 -1.2803 -0.4477
  585MOL0     C78899   2.145   7.490   0.457  0.8554 -0.4615  0.4256
  585MOL0     C78900   2.302   7.508   0.434  0.0209  0.6765 -0.0148
  585MOL0     C78901   2.382   7.368   0.456  0.4932 -0.0369 -0.3685
  585MOL0     C78902   2.520   7.374   0.393 -0.5833  0.3646  0.5051
  585MOL0     C78903   2.585   7.502   0.418 -1.3081  0.8619  0.3991
  585MOL0     C78904   2.642   7.609   0.430 -0.2607 -0.2619  1.0410
  585MOL0     C78905   1.869   7.391   0.460 -0.4427  0.0782 -0.2324
  585MOL0     C78906   1.751   7.322   0.476  0.0968  0.4132  0.3765
  585MOL0     C78907   1.637   7.375   0.558 -0.7196  0.0692  0.6909
  585MOL0     H78908   1.450   7.041   0.098 -1.5566 -0.5448 -0.1865
  585MOL0     H78909   1.271   6.892   0.054 -0.3927 -3.9709  1.2377
  585MOL0     H78910   0.947   6.740   0.373  0.4296  0.1052 -1.9780
  585MOL0     H78911   0.938   6.907   0.334 -0.1728 -1.1908  2.2499
  585MOL0     H78912   0.890   6.713   0.101 -5.7945 -0.6543 -3.3430
  585MOL0     H78913   0.835   6.877   0.138  0.9383  1.7357  4.5015
  585MOL0     H78914   0.663   6.832   0.267 -1.8248 -0.7155 -1.7360
  585MOL0     H78915   0.730   6.680   0.330 -1.5601  0.6308  0.0119
  585MOL0     H78916   0.619   6.681   0.052  0.1370  2.7007  1.3625
  585MOL0     H78917   0.669   6.553   0.152 -1.0790 -0.6438  1.7182
  585MOL0     H78918   0.478   6.633   0.327  0.3049  0.8278  0.1794
  585MOL0     H78919   0.454   6.766   0.213  2.4638 -0.0312 -2.4961
  585MOL0     H78920   0.359   6.642   0.034  0.0275 -0.8974 -0.3053
  585MOL0     H78921   0.414   6.490   0.084  0.3999 -0.5486  0.5688
  585MOL0     H78922   0.233   6.631   0.285 -0.2117  1.0859 -0.8012
  585MOL0     H78923   0.271   6.464   0.272  0.2524  0.4205  1.1818
  585MOL0     H78924   0.115   6.601   0.044 -0.9982 -2.0385 -1.0281
  585MOL0     H78925   0.165   6.427   0.065 -1.5700 -3.2050  2.5791
  585MOL0     H78926  -0.086   6.340   0.084  0.3867  2.5112 -2.4506
  585MOL0     H78927  -0.312   6.265   0.221  2.1476  1.8649 -3.5614
  585MOL0     H78928  -0.325   6.324   0.392  0.3967 -0.4877  0.0856
  585MOL0     H78929  -0.448   6.533   0.284  0.0306 -1.2029  1.7576
  585MOL0     H78930  -0.408   6.463   0.124 -0.1129  0.8664  0.0718
  585MOL0     H78931  -0.562   6.329   0.355 -0.8007 -1.7938 -0.6660
  585MOL0     H78932  -0.534   6.251   0.201 -2.0049  0.6736 -1.6081
  585MOL0     H78933  -0.671   6.389   0.071  2.0236 -1.0003  0.3113
  585MOL0     H78934  -0.716   6.473   0.223  0.1186  2.0496 -2.9200
  585MOL0     H78935  -0.912   6.488   0.102  0.4785  1.3372  1.3607
  585MOL0     H78936  -1.149   6.510   0.090  0.0482 -0.4014 -1.3619
  585MOL0     H78937  -1.520   6.575   0.353 -0.7475 -0.5287  0.1093
  585MOL0     H78938  -1.754   6.574   0.393  0.6574  1.2517 -0.5852
  585MOL0     H78939  -1.971   6.647   0.293  1.2833  0.5879 -0.4822
  585MOL0     H78940  -1.991   6.624   0.115  1.8930 -0.6402  0.6222
  585MOL0     H78941  -2.190   6.487   0.162  0.6947  0.8818 -1.4522
  585MOL0     H78942  -2.165   6.525   0.339  4.4513  4.0692  3.1389
  585MOL0     H78943  -2.196   6.775   0.236  1.4460 -1.0487  0.2027
  585MOL0     H78944  -2.230   6.691   0.088  1.2054 -0.7477  0.9087
  585MOL0     H78945  -2.392   6.663   0.330  0.6367 -2.6700  0.1067
  585MOL0     H78946  -2.413   6.578   0.172 -0.0693 -0.7451  0.5774
  585MOL0     H78947  -2.456   6.807   0.062  4.3879 -0.3638  0.0539
  585MOL0     H78948  -2.429   6.883   0.215  1.9926  1.5528 -2.5591
  585MOL0     H78949  -2.644   6.667   0.215  1.6463 -0.7534 -1.4717
  585MOL0     H78950  -2.629   6.805   0.329 -2.1631 -1.2597  0.6471
  585MOL0     H78951  -2.665   6.961   0.146  3.2664 -0.1622 -2.1534
  585MOL0     H78952  -2.804   6.879   0.207  2.3299  0.2154  0.5813
  585MOL0     H78953  -2.675   6.768  -0.045 -1.3402 -0.0114 -2.1781
  585MOL0     H78954  -2.828   6.722   0.026 -1.7930  0.2446 -0.2505
  585MOL0     H78955  -1.798   6.363   0.011  1.3237 -2.2445  1.0117
  585MOL0     H78956  -1.570   6.382  -0.022 -2.1944  5.2012 -3.2695
  585MOL0     H78957  -1.194   6.147   0.317 -1.4774  1.3564 -1.6840
  585MOL0     H78958  -0.949   6.132   0.342  2.5048  3.0498  2.9909
  585MOL0     H78959   1.142   6.898   0.471 -0.9745  0.0135 -0.7068
  585MOL0     H78960   1.338   7.081   0.495 -0.4268 -0.0573  0.2273
  585MOL0     H78961   1.806   7.082   0.235  0.0651  0.3638  1.0595
  585MOL0     H78962   2.016   7.221   0.219  0.3006 -0.5350  0.6608
  585MOL0     H78963   2.141   7.436   0.552  1.0320  0.0358  0.7172
  585MOL0     H78964   2.110   7.592   0.471  4.8821  1.0323  0.9363
  585MOL0     H78965   2.336   7.577   0.512  1.3111  1.3320 -1.1129
  585MOL0     H78966   2.317   7.550   0.334 -1.4918 -1.7930 -1.3637
  585MOL0     H78967   2.316   7.284   0.431 -2.5367  1.2056  2.5899
  585MOL0     H78968   2.397   7.346   0.562 -0.3103  1.3451  0.0533
  585MOL0     H78969   2.578   7.296   0.443  1.2481  1.0333 -0.4575
  585MOL0     H78970   2.513   7.361   0.284 -0.7072  2.8377  0.1486
  585MOL0     H78971   2.705   7.695   0.436 -1.2170  1.2860 -4.8828
  585MOL0     H78972   1.888   7.480   0.519 -0.1922  0.1448 -0.4091
  585MOL0     H78973   1.564   7.420   0.490 -0.2619 -0.5525 -0.2462
  585MOL0     H78974   1.577   7.306   0.618 -0.1784  1.2207  2.6247
  585MOL0     H78975   1.674   7.448   0.631 -0.6733  1.2058 -0.4332
  586MOL0     O78976  11.275   8.554   2.031  0.0545 -0.5026 -0.6135
  586MOL0     C78977  11.190   8.474   1.997  0.6864 -1.2723 -0.5483
  586MOL0     O78978  11.207   8.372   1.914  0.3480 -0.0715 -0.0658
  586MOL0     C78979  11.345   8.335   1.897  0.8378 -0.0507  0.5420
  586MOL0     C78980  11.394   8.355   1.769 -0.3125  0.6705  0.0491
  586MOL0     C78981  11.535   8.339   1.744  0.4543  0.4593 -0.8918
  586MOL0     C78982  11.610   8.297   1.848 -0.4549 -0.8666  0.5234
  586MOL0     O78983  11.752   8.299   1.832  0.1140  0.2444  0.1110
  586MOL0     C78984  11.813   8.427   1.818  0.2727  0.5732  0.6683
  586MOL0     C78985  11.965   8.418   1.811  0.4065  0.8060 -0.2516
  586MOL0     C78986  12.015   8.535   1.733  0.0725 -0.0557  0.4038
  586MOL0     C78987  12.167   8.514   1.720 -0.5212 -0.1896 -0.1351
  586MOL0     C78988  12.244   8.633   1.655  0.0883 -0.2420  0.1569
  586MOL0     C78989  12.232   8.768   1.721 -0.4333 -0.1166 -0.8287
  586MOL0     C78990  12.302   8.889   1.652  0.4613  0.5524  0.0627
  586MOL0     C78991  12.385   8.980   1.731  0.1020  0.1111 -0.7300
  586MOL0     N78992  12.472   9.066   1.656  0.5225  0.0969 -0.3315
  586MOL0     C78993  12.433   9.173   1.578 -0.6600 -0.0190  0.2674
  586MOL0     C78994  12.546   9.215   1.517 -0.0622 -0.2568 -1.6484
  586MOL0     C78995  12.570   9.341   1.441  0.0713  1.1474 -0.8683
  586MOL0     C78996  12.710   9.408   1.465  0.5805 -0.4675 -0.4374
  586MOL0     C78997  12.707   9.554   1.424  1.1573 -0.3327 -0.9992
  586MOL0     C78998  12.838   9.622   1.448  0.0912 -0.2894  0.2501
  586MOL0     O78999  12.814   9.761   1.409 -0.4569  0.3085 -0.2139
  586MOL0     C79000  12.904   9.857   1.434 -0.1621 -0.6050 -0.5387
  586MOL0     C79001  13.024   9.838   1.513  1.2045 -0.1857 -0.4052
  586MOL0     C79002  13.137   9.921   1.509 -0.0163  0.4489 -0.6396
  586MOL0     C79003  13.136  10.038   1.427 -0.8178  0.2219  0.0240
  586MOL0     C79004  13.247  10.135   1.422  0.2811 -0.0463 -0.1525
  586MOL0     O79005  13.281  10.201   1.314 -0.1093 -0.4736 -0.1032
  586MOL0     C79006  13.366  10.307   1.307  0.2652 -0.0847 -0.0335
  586MOL0     C79007  13.395  10.395   1.417 -0.1582  1.1047  0.1028
  586MOL0     C79008  13.486  10.494   1.382  0.9734 -0.2536 -0.8862
  586MOL0     C79009  13.534  10.528   1.256 -0.5564  0.4383 -0.8603
  586MOL0     O79010  13.605  10.647   1.227 -0.1606 -0.0818 -0.9371
  586MOL0     C79011  13.714  10.651   1.141 -0.3655  0.4450 -0.2488
  586MOL0     C79012  13.813  10.763   1.172  0.0607  0.2051 -0.1300
  586MOL0     C79013  13.853  10.824   1.042 -0.3545  0.2427  0.0889
  586MOL0     C79014  13.952  10.931   1.082 -0.5849 -0.3703 -0.9864
  586MOL0     C79015  14.012  11.012   0.965  0.1843 -0.2460 -0.2291
  586MOL0     C79016  14.069  11.139   1.003  0.0497  0.6399 -0.6233
  586MOL0     C79017  14.104  11.232   0.887  0.0817 -0.9215 -0.0757
  586MOL0     C79018  14.199  11.347   0.934  0.5698  1.1603  0.3922
  586MOL0    Cl79019  14.260  11.444   0.792 -0.1263 -0.1221 -0.0604
  586MOL0     C79020  13.495  10.445   1.153 -0.0185  0.1909  0.0652
  586MOL0     C79021  13.418  10.330   1.183 -0.2310 -0.6324  0.6548
  586MOL0     O79022  13.317  10.132   1.525 -0.2015 -0.3226 -0.5671
  586MOL0     C79023  13.025  10.056   1.341 -0.0323 -0.3048 -0.7815
  586MOL0     C79024  12.924   9.963   1.339 -0.1009 -0.2520 -0.1644
  586MOL0     N79025  12.649   9.125   1.571 -0.1921 -0.3910  0.7069
  586MOL0     N79026  12.602   9.043   1.647  0.6831  0.3838  0.1820
  586MOL0     C79027  11.561   8.266   1.971  0.5554 -0.3332 -0.2678
  586MOL0     C79028  11.422   8.295   1.998 -0.0133  0.7390  0.1666
  586MOL0     C79029  11.055   8.507   2.054 -0.4009 -0.4386 -0.9055
  586MOL0     C79030  10.963   8.403   2.050  0.0626  0.5250 -0.3160
  586MOL0     C79031  10.842   8.404   2.114  0.6492 -0.2760  0.2309
  586MOL0     C79032  10.797   8.524   2.155 -0.5692 -0.2255  0.4860
  586MOL0     O79033  10.667   8.513   2.209  0.0373 -0.0871  0.1224
  586MOL0     C79034  10.597   8.625   2.265  0.3063  0.0899 -0.1895
  586MOL0     C79035  10.457   8.584   2.300  0.0570 -1.1904  0.0793
  586MOL0     C79036  10.374   8.693   2.376  0.6765 -0.9404  0.7992
  586MOL0     C79037  10.227   8.662   2.350 -0.5510  0.2641 -0.0928
  586MOL0     C79038  10.166   8.570   2.451 -0.5962  0.3787  0.4024
  586MOL0     C79039  10.117   8.476   2.513 -0.0233 -0.5416  0.2753
  586MOL0     C79040  10.882   8.628   2.176  0.1409 -0.9433 -0.1561
  586MOL0     C79041  11.016   8.621   2.130  0.6313  1.2165  0.9159
  586MOL0     C79042  11.115   8.743   2.168 -0.4087 -0.4559  0.8583
  586MOL0     H79043  11.326   8.373   1.687 -0.9644  0.2617  0.4932
  586MOL0     H79044  11.583   8.362   1.649  2.1590 -0.5965 -0.3283
  586MOL0     H79045  11.761   8.469   1.731 -1.0595  0.3479  1.3192
  586MOL0     H79046  11.782   8.490   1.902 -0.0694  3.4285 -1.4744
  586MOL0     H79047  11.992   8.325   1.762 -1.0588  1.0747 -1.6569
  586MOL0     H79048  12.007   8.414   1.912  0.8632  1.1597 -0.4236
  586MOL0     H79049  11.988   8.628   1.784 -0.8704  0.0033 -0.1851
  586MOL0     H79050  11.955   8.534   1.642 -1.3490 -1.8382  1.3081
  586MOL0     H79051  12.207   8.489   1.818 -0.8774 -0.3535 -0.0326
  586MOL0     H79052  12.188   8.424   1.662  0.9727 -2.2482  3.3095
  586MOL0     H79053  12.350   8.607   1.653  0.0612 -0.3506  0.1315
  586MOL0     H79054  12.206   8.663   1.557  0.5290 -1.7281 -0.4946
  586MOL0     H79055  12.125   8.787   1.725 -1.0551 -3.0658 -0.7888
  586MOL0     H79056  12.273   8.763   1.823  1.8666  2.1493 -1.5295
  586MOL0     H79057  12.223   8.954   1.614 -1.9087 -2.5290 -0.7079
  586MOL0     H79058  12.369   8.854   1.572 -0.4344  1.2023 -1.0114
  586MOL0     H79059  12.330   9.044   1.801  1.0615 -0.3313  0.4776
  586MOL0     H79060  12.450   8.919   1.795  1.7213  0.2007 -2.2178
  586MOL0     H79061  12.335   9.219   1.564 -0.6699 -0.5245 -1.5614
  586MOL0     H79062  12.564   9.316   1.334 -3.5313 -0.3379 -0.4725
  586MOL0     H79063  12.487   9.408   1.464  1.1865  2.7710 -1.4006
  586MOL0     H79064  12.747   9.392   1.567  0.5880  0.7507 -0.2416
  586MOL0     H79065  12.792   9.367   1.405  0.5580  1.8004 -2.1095
  586MOL0     H79066  12.641   9.609   1.492  0.8294 -0.8401 -0.8968
  586MOL0     H79067  12.672   9.568   1.321 -0.7091 -0.8826 -0.4869
  586MOL0     H79068  12.919   9.573   1.393  0.6006 -0.4888  1.1720
  586MOL0     H79069  12.865   9.609   1.553 -0.2547 -3.2740  0.0696
  586MOL0     H79070  13.038   9.762   1.589  2.0422  0.8542  0.5152
  586MOL0     H79071  13.215   9.912   1.584 -2.0389  0.3508  1.5877
  586MOL0     H79072  13.349  10.373   1.513  0.2718  1.8769  0.4892
  586MOL0     H79073  13.499  10.554   1.471  0.2584 -1.6983  0.2212
  586MOL0     H79074  13.774  10.560   1.138 -0.2710  0.5271 -1.4155
  586MOL0     H79075  13.669  10.657   1.041  0.2281 -1.6017 -0.6913
  586MOL0     H79076  13.764  10.841   1.231 -3.6758 -0.6754 -1.7843
  586MOL0     H79077  13.905  10.729   1.221  0.1765 -0.1524 -0.5921
  586MOL0     H79078  13.890  10.749   0.972  2.0180  1.2156  0.2292
  586MOL0     H79079  13.769  10.871   0.990 -1.0705  1.4410  2.1857
  586MOL0     H79080  14.031  10.893   1.147 -0.4787  1.0591 -0.2555
  586MOL0     H79081  13.911  11.001   1.155 -0.1676 -1.9567  0.8314
  586MOL0     H79082  13.933  11.026   0.890 -0.4972  1.2239  0.7304
  586MOL0     H79083  14.095  10.952   0.926  0.8489  0.3843  0.2095
  586MOL0     H79084  13.988  11.189   1.057 -0.6413 -0.2434 -0.8275
  586MOL0     H79085  14.151  11.118   1.073 -0.7824 -2.6978 -0.4944
  586MOL0     H79086  14.008  11.276   0.859  1.4299  1.2322 -1.6444
  586MOL0     H79087  14.137  11.188   0.793  1.5711 -1.4321  0.6576
  586MOL0     H79088  14.155  11.420   1.003  2.2496 -0.4255  3.3029
  586MOL0     H79089  14.284  11.296   0.979 -0.8117 -2.9601 -1.2245
  586MOL0     H79090  13.513  10.473   1.050  0.2288  0.5843  0.2104
  586MOL0     H79091  13.384  10.269   1.101  1.2312  0.4585 -0.8318
  586MOL0     H79092  13.021  10.142   1.275  2.0787  0.1249 -0.4162
  586MOL0     H79093  12.842   9.973   1.269  1.8057  2.0617 -2.2761
  586MOL0     H79094  11.631   8.236   2.048  1.0801  2.3449  0.4085
  586MOL0     H79095  11.375   8.272   2.093 -1.4426 -3.3818 -1.3470
  586MOL0     H79096  11.005   8.307   2.023 -1.8431 -0.9312  1.5882
  586MOL0     H79097  10.775   8.319   2.124 -3.5291  2.9840  5.0443
  586MOL0     H79098  10.595   8.706   2.192  0.0509 -0.3287 -0.6567
  586MOL0     H79099  10.642   8.667   2.355 -1.7013  2.4703 -0.1811
  586MOL0     H79100  10.458   8.483   2.342 -1.0399 -1.2547 -0.0250
  586MOL0     H79101  10.411   8.567   2.202 -2.8087 -0.5710  1.2226
  586MOL0     H79102  10.401   8.796   2.350 -1.9729 -0.1658  0.8282
  586MOL0     H79103  10.411   8.684   2.479  0.6024  1.9808  1.1665
  586MOL0     H79104  10.177   8.759   2.348 -2.2330 -0.5518  0.7141
  586MOL0     H79105  10.211   8.630   2.246 -0.9713  2.2849 -0.6984
  586MOL0     H79106  10.058   8.397   2.553 -1.2504  0.2278  0.0506
  586MOL0     H79107  10.837   8.717   2.216  1.0450 -0.3342 -0.4576
  586MOL0     H79108  11.145   8.791   2.075  2.3869 -0.7396  1.5115
  586MOL0     H79109  11.068   8.812   2.239  0.5019  1.8486 -0.6967
  586MOL0     H79110  11.203   8.701   2.218  0.6483  2.4745  1.6246
  587MOL0     O79111   2.265   3.094   3.551  0.0350  0.4207  0.2531
  587MOL0     C79112   2.361   3.131   3.491  0.1081  0.1234 -0.1861
  587MOL0     O79113   2.364   3.155   3.363  0.3642  0.1543  0.0730
  587MOL0     C79114   2.261   3.132   3.278 -0.7228 -0.1438  0.2018
  587MOL0     C79115   2.285   3.093   3.148  0.4342  0.4007 -0.1066
  587MOL0     C79116   2.186   3.052   3.053 -0.3507 -0.8966 -0.2270
  587MOL0     C79117   2.052   3.072   3.095 -0.3199  0.1398 -0.4823
  587MOL0     O79118   1.948   3.046   3.014  0.0472 -0.6364  0.2414
  587MOL0     C79119   1.956   2.920   2.943 -0.8379  0.5984  0.4322
  587MOL0     C79120   1.821   2.872   2.887  0.4532  0.1847 -0.8166
  587MOL0     C79121   1.786   2.921   2.751  0.0859 -0.5585 -0.8003
  587MOL0     C79122   1.885   2.873   2.643  0.0729  0.2522 -0.2183
  587MOL0     C79123   1.896   2.980   2.533 -0.2891 -0.2101 -0.5209
  587MOL0     C79124   1.994   3.083   2.583  0.1224 -0.1125  0.1513
  587MOL0     C79125   1.995   3.210   2.498  0.3464 -0.3240 -0.6338
  587MOL0     C79126   2.098   3.311   2.548 -0.2770  0.7079 -1.6842
  587MOL0     N79127   2.227   3.254   2.529  0.4107  0.0946  0.1418
  587MOL0     C79128   2.296   3.254   2.408  0.0888  0.3356  0.8314
  587MOL0     C79129   2.401   3.176   2.449  0.4583 -1.0286 -0.2587
  587MOL0     C79130   2.518   3.141   2.360 -0.1359  0.4146 -1.1268
  587MOL0     C79131   2.525   2.995   2.323  1.0166  0.5676  0.0371
  587MOL0     C79132   2.669   2.957   2.272  0.0015 -0.1190 -0.7939
  587MOL0     C79133   2.689   2.824   2.197 -0.0157 -0.6427 -0.5076
  587MOL0     O79134   2.641   2.834   2.060 -0.0248  0.3310  0.1871
  587MOL0     C79135   2.513   2.802   2.043 -0.8823  0.3418  1.3008
  587MOL0     C79136   2.470   2.671   2.060  0.4232 -0.6668  0.1536
  587MOL0     C79137   2.338   2.640   2.032 -0.2224 -0.4843  0.1238
  587MOL0     C79138   2.251   2.739   1.991  0.0804 -0.2872 -0.0558
  587MOL0     C79139   2.117   2.697   1.952  0.3747 -0.9293  0.9478
  587MOL0     O79140   2.074   2.573   1.999  0.0731  0.5102 -0.6021
  587MOL0     C79141   1.949   2.520   1.973 -0.2800  1.0701  0.3314
  587MOL0     C79142   1.939   2.389   2.017 -0.3585  0.5960  0.1341
  587MOL0     C79143   1.822   2.323   2.019 -0.3250 -0.5178  0.5147
  587MOL0     C79144   1.706   2.386   1.969 -0.4288 -0.0603 -0.6511
  587MOL0     O79145   1.591   2.330   1.996  0.6849  0.0066  0.0670
  587MOL0     C79146   1.492   2.350   1.891 -0.5556 -0.3831 -0.0744
  587MOL0     C79147   1.396   2.226   1.889 -0.5001  0.2364  0.4759
  587MOL0     C79148   1.475   2.098   1.865 -0.1158 -0.1533  0.3204
  587MOL0     C79149   1.384   1.979   1.847 -0.4680 -1.1046  0.1747
  587MOL0     C79150   1.450   1.845   1.849  0.5761 -0.1240 -0.4741
  587MOL0     C79151   1.341   1.724   1.867  0.1216  0.0116  0.6062
  587MOL0     C79152   1.242   1.746   1.985 -0.5344  0.3393 -0.5210
  587MOL0     C79153   1.165   1.616   2.014  0.9590  0.1561 -0.1543
  587MOL0    Cl79154   1.043   1.586   1.895 -0.2388  0.2485  0.0431
  587MOL0     C79155   1.725   2.507   1.896 -1.2576  0.6633 -0.2233
  587MOL0     C79156   1.843   2.574   1.898 -0.2326 -0.4987 -0.8921
  587MOL0     O79157   2.060   2.767   1.869 -0.3139 -0.3504  0.2998
  587MOL0     C79158   2.297   2.870   1.977 -0.7655 -0.4878 -0.4399
  587MOL0     C79159   2.432   2.902   1.993  0.8668  0.1341  0.0671
  587MOL0     N79160   2.404   3.151   2.578  0.3442  0.0348 -0.2292
  587MOL0     N79161   2.293   3.203   2.632 -0.4807  1.2272  0.6693
  587MOL0     C79162   2.021   3.120   3.224 -0.7724  0.0360 -0.0101
  587MOL0     C79163   2.122   3.153   3.306 -0.1037  0.1468  1.0333
  587MOL0     C79164   2.472   3.183   3.582 -0.2800 -0.5475 -0.1360
  587MOL0     C79165   2.557   3.278   3.521 -0.6205  0.0583  1.3222
  587MOL0     C79166   2.676   3.328   3.587 -0.3967 -0.3299  0.0374
  587MOL0     C79167   2.707   3.291   3.718  0.5770  0.1804  0.8259
  587MOL0     O79168   2.811   3.343   3.792 -0.1970  0.4662 -0.0877
  587MOL0     C79169   2.922   3.407   3.732  0.2892  0.0715  0.2799
  587MOL0     C79170   3.047   3.401   3.825  0.1879 -0.3698 -0.2841
  587MOL0     C79171   3.177   3.433   3.754 -0.1277 -0.2854  0.0301
  587MOL0     C79172   3.196   3.396   3.609  0.2378  0.2482 -0.0120
  587MOL0     C79173   3.158   3.253   3.578 -0.0653  0.4151 -0.8251
  587MOL0     C79174   3.139   3.136   3.564 -0.2604  0.4631 -1.0905
  587MOL0     C79175   2.608   3.212   3.792  0.0763 -0.3633  0.8632
  587MOL0     C79176   2.497   3.155   3.723 -0.2142  0.6907  0.5339
  587MOL0     C79177   2.416   3.050   3.805  1.6205 -0.1501 -0.4332
  587MOL0     H79178   2.383   3.076   3.105  1.7252 -0.2714  2.8499
  587MOL0     H79179   2.225   3.021   2.957 -1.7505  0.2013 -1.1989
  587MOL0     H79180   2.018   2.939   2.855 -5.8987 -1.0683 -4.0745
  587MOL0     H79181   2.001   2.842   3.006 -1.8929 -1.2203 -0.9724
  587MOL0     H79182   1.740   2.907   2.950  0.3805  0.3925 -1.0213
  587MOL0     H79183   1.818   2.763   2.891 -0.2183  0.2312  0.1219
  587MOL0     H79184   1.774   3.029   2.763 -3.8563 -0.7875 -1.4636
  587MOL0     H79185   1.688   2.887   2.717 -0.1806 -0.3861 -0.2198
  587MOL0     H79186   1.977   2.833   2.686 -0.6326  0.7206  1.8303
  587MOL0     H79187   1.833   2.781   2.616 -1.3446 -0.3930  4.0255
  587MOL0     H79188   1.935   2.943   2.437 -0.7356 -0.4311 -0.6184
  587MOL0     H79189   1.801   3.026   2.504 -0.4422  0.4109  0.9103
  587MOL0     H79190   1.963   3.101   2.686 -0.8798 -2.3247  0.2884
  587MOL0     H79191   2.092   3.035   2.590  0.0191 -0.3506 -0.0010
  587MOL0     H79192   1.895   3.254   2.504  0.7641  0.6048 -0.2950
  587MOL0     H79193   2.011   3.202   2.390 -2.4365 -1.2135 -1.0559
  587MOL0     H79194   2.091   3.406   2.495  1.8922  1.6981 -0.3105
  587MOL0     H79195   2.089   3.339   2.653 -0.0377  0.0665 -1.4889
  587MOL0     H79196   2.282   3.310   2.316 -0.1316  0.8700  1.1898
  587MOL0     H79197   2.508   3.196   2.266 -2.7348  1.4240 -0.3603
  587MOL0     H79198   2.611   3.166   2.412  0.5830 -2.8029 -0.6126
  587MOL0     H79199   2.499   2.940   2.413 -0.7295 -0.5691 -1.1094
  587MOL0     H79200   2.449   2.978   2.247 -0.4588  3.4951  0.7054
  587MOL0     H79201   2.730   2.971   2.362 -1.6998  0.7523  0.2913
  587MOL0     H79202   2.708   3.033   2.203 -1.0359 -0.2764 -1.5742
  587MOL0     H79203   2.629   2.746   2.244 -0.7868  0.5706  0.5723
  587MOL0     H79204   2.792   2.790   2.209 -0.6554 -2.6932 -0.4209
  587MOL0     H79205   2.533   2.589   2.090  3.6301  1.2218 -0.9139
  587MOL0     H79206   2.314   2.534   2.038 -1.2903 -0.2517  0.1402
  587MOL0     H79207   2.032   2.353   2.059  0.1475  1.6269 -0.0715
  587MOL0     H79208   1.800   2.227   2.064 -1.3936 -1.0953 -1.1322
  587MOL0     H79209   1.442   2.444   1.915  1.0309  1.2963 -2.8891
  587MOL0     H79210   1.540   2.355   1.793 -2.7042 -0.3261 -1.1791
  587MOL0     H79211   1.329   2.223   1.975 -0.7860  1.7925  0.3448
  587MOL0     H79212   1.331   2.243   1.802 -0.2319  0.9478  0.4032
  587MOL0     H79213   1.538   2.106   1.776  0.7441  1.8987  1.0525
  587MOL0     H79214   1.536   2.073   1.953  0.6791 -1.8702 -0.6744
  587MOL0     H79215   1.328   1.993   1.754 -1.2653  3.2878  1.0488
  587MOL0     H79216   1.300   1.980   1.917 -1.6699  1.6366 -1.1274
  587MOL0     H79217   1.504   1.836   1.944 -2.3758 -0.4328  1.3271
  587MOL0     H79218   1.524   1.835   1.770  2.5010  0.4755  1.1594
  587MOL0     H79219   1.282   1.713   1.775 -0.1977 -0.0791  0.8207
  587MOL0     H79220   1.389   1.627   1.876  0.0823 -0.1928 -1.0459
  587MOL0     H79221   1.177   1.833   1.970  0.7940  1.2967 -0.9347
  587MOL0     H79222   1.298   1.768   2.076  0.4170  1.0423 -1.2565
  587MOL0     H79223   1.230   1.528   2.008  1.3784  0.4933 -0.6146
  587MOL0     H79224   1.123   1.612   2.115  0.2877  0.6049 -0.4070
  587MOL0     H79225   1.637   2.557   1.856 -1.5979  0.6354  0.4753
  587MOL0     H79226   1.846   2.671   1.849 -1.8589  0.7083  1.2705
  587MOL0     H79227   2.232   2.947   1.937  1.3872  2.3692  1.1691
  587MOL0     H79228   2.475   2.998   1.968  1.6401  0.0899  1.1183
  587MOL0     H79229   1.925   3.160   3.256 -0.0127  2.9443 -1.1274
  587MOL0     H79230   2.090   3.197   3.400 -0.5100 -0.3971  1.1563
  587MOL0     H79231   2.530   3.338   3.434  2.5720  2.3561  1.6990
  587MOL0     H79232   2.748   3.393   3.537 -0.2982  0.0801  0.6992
  587MOL0     H79233   2.907   3.514   3.713  0.1440 -0.1910 -1.2188
  587MOL0     H79234   2.931   3.360   3.634 -2.1142  1.9078 -0.9339
  587MOL0     H79235   3.060   3.298   3.860 -1.4872 -0.2522  0.8052
  587MOL0     H79236   3.014   3.468   3.906 -2.2464 -1.1217 -0.5647
  587MOL0     H79237   3.259   3.392   3.813  1.6873  1.7964 -0.9243
  587MOL0     H79238   3.178   3.542   3.755  0.0824 -0.2837  0.9925
  587MOL0     H79239   3.133   3.465   3.552  0.3329 -0.7452 -1.3785
  587MOL0     H79240   3.299   3.423   3.585 -0.1628  3.7792  1.6616
  587MOL0     H79241   3.127   3.033   3.537  1.7028  0.6575 -3.0369
  587MOL0     H79242   2.636   3.197   3.896  1.8870  0.8554  0.6031
  587MOL0     H79243   2.451   3.063   3.908  2.2507 -1.7306 -0.4277
  587MOL0     H79244   2.310   3.079   3.810  2.0606  1.5252 -0.1163
  587MOL0     H79245   2.442   2.952   3.766  0.5886  0.3590 -2.5869
  588MOL0     O79246   6.057   7.114   1.379  0.6127  0.3700  0.3391
  588MOL0     C79247   6.080   7.183   1.280 -0.0710  0.4401  0.3446
  588MOL0     O79248   5.998   7.199   1.173 -0.2152 -0.2137  0.6076
  588MOL0     C79249   5.893   7.106   1.152 -0.5014 -0.7482 -0.0517
  588MOL0     C79250   5.914   7.006   1.071 -0.6569 -0.2017 -0.2009
  588MOL0     C79251   5.822   6.906   1.048 -1.0678  1.2879 -0.0271
  588MOL0     C79252   5.699   6.912   1.111  0.8710  0.2030  0.0204
  588MOL0     O79253   5.606   6.809   1.116 -0.1339  0.0705 -0.2541
  588MOL0     C79254   5.606   6.712   1.008 -0.0584  0.2576 -0.5238
  588MOL0     C79255   5.655   6.564   1.046 -0.0683  0.1442  0.4920
  588MOL0     C79256   5.583   6.460   0.957  0.9037  0.3766  0.4018
  588MOL0     C79257   5.433   6.432   0.961  0.2272 -0.2617 -0.2826
  588MOL0     C79258   5.392   6.366   1.094  0.1059  0.4715  0.0827
  588MOL0     C79259   5.253   6.325   1.088 -0.0139 -0.0488 -0.4568
  588MOL0     C79260   5.146   6.411   1.031 -0.2538 -1.2602  1.2749
  588MOL0     C79261   5.006   6.352   1.034 -1.1950 -0.8554 -0.4028
  588MOL0     N79262   4.993   6.230   0.962  0.3115  0.3601 -0.2094
  588MOL0     C79263   4.970   6.221   0.825 -0.5337  0.2847  0.5491
  588MOL0     C79264   4.971   6.092   0.808  0.3390  0.9641 -0.6291
  588MOL0     C79265   4.932   6.023   0.675 -0.4075  0.8983  0.2874
  588MOL0     C79266   4.982   5.881   0.670  0.1777  0.0875  0.2631
  588MOL0     C79267   4.951   5.819   0.531 -0.4005  0.3265 -0.2004
  588MOL0     C79268   5.011   5.681   0.504  0.6819 -0.0362 -1.2119
  588MOL0     O79269   5.155   5.667   0.538  0.6006 -0.5066  0.1711
  588MOL0     C79270   5.244   5.751   0.470  0.2064 -0.1246 -0.5100
  588MOL0     C79271   5.229   5.805   0.341  0.8142  0.4680 -0.0228
  588MOL0     C79272   5.333   5.870   0.272  0.0075 -0.2272  0.0126
  588MOL0     C79273   5.447   5.910   0.336  0.2437 -0.4031  0.2917
  588MOL0     C79274   5.546   5.995   0.270 -0.1273  0.1393 -0.0734
  588MOL0     O79275   5.515   6.021   0.141 -0.6785 -0.0393  0.4980
  588MOL0     C79276   5.589   6.109   0.062 -0.7240 -0.4128 -0.6594
  588MOL0     C79277   5.593   6.090  -0.076  0.0281 -0.2421  0.1393
  588MOL0     C79278   5.661   6.182  -0.162  0.2530  0.3367 -1.1900
  588MOL0     C79279   5.706   6.300  -0.112 -0.3534 -0.1369  0.0019
  588MOL0     O79280   5.756   6.389  -0.202 -0.0845  0.1030  0.1334
  588MOL0     C79281   5.806   6.510  -0.142 -1.0636 -0.1765  0.5005
  588MOL0     C79282   5.894   6.578  -0.253 -0.1338 -0.2660 -1.4696
  588MOL0     C79283   6.017   6.494  -0.285 -0.5243  0.0028 -0.0123
  588MOL0     C79284   6.105   6.584  -0.367 -0.5826 -0.2163 -0.1103
  588MOL0     C79285   6.228   6.517  -0.418 -0.2313 -0.7375  1.0953
  588MOL0     C79286   6.277   6.603  -0.544  0.3483  0.3049 -0.7198
  588MOL0     C79287   6.398   6.542  -0.613  0.7197 -0.8283  0.6088
  588MOL0     C79288   6.532   6.578  -0.547  0.5024 -0.3167 -0.5706
  588MOL0    Cl79289   6.670   6.478  -0.613 -0.1164 -0.0542 -0.0878
  588MOL0     C79290   5.697   6.320   0.026 -0.0777 -0.1228  0.3168
  588MOL0     C79291   5.641   6.231   0.110  0.2937 -0.1693  0.3129
  588MOL0     O79292   5.635   6.040   0.338  0.2808 -0.5945  0.0405
  588MOL0     C79293   5.460   5.876   0.472 -0.7747 -0.6265 -0.1105
  588MOL0     C79294   5.366   5.788   0.526  0.0251  0.2695  0.3290
  588MOL0     N79295   4.999   6.027   0.928 -0.7361  0.8203 -0.6634
  588MOL0     N79296   5.015   6.110   1.019  0.3004 -0.4721 -0.0473
  588MOL0     C79297   5.658   7.021   1.184 -0.5516 -0.7089 -0.3243
  588MOL0     C79298   5.759   7.123   1.203 -0.0186  0.1143  0.8490
  588MOL0     C79299   6.218   7.248   1.276 -0.4128  1.0422 -0.4199
  588MOL0     C79300   6.279   7.255   1.155  1.1511  0.0304 -0.4162
  588MOL0     C79301   6.399   7.317   1.133 -0.3778  0.2360 -0.1385
  588MOL0     C79302   6.460   7.384   1.235 -0.3276  0.4712 -0.1572
  588MOL0     O79303   6.585   7.441   1.209  0.3486  0.3943  1.1430
  588MOL0     C79304   6.608   7.576   1.252  0.1032 -0.1858  0.3234
  588MOL0     C79305   6.509   7.671   1.184 -0.5334  0.9085 -0.0530
  588MOL0     C79306   6.522   7.654   1.028 -1.0379 -0.0848  0.1710
  588MOL0     C79307   6.383   7.685   0.965 -0.1282 -0.3803 -0.7185
  588MOL0     C79308   6.344   7.821   1.000 -0.7690 -0.2366  0.7831
  588MOL0     C79309   6.323   7.934   1.019 -0.4042 -0.0817 -0.7051
  588MOL0     C79310   6.393   7.395   1.356  0.3727  0.0953 -1.0450
  588MOL0     C79311   6.275   7.316   1.384 -0.2100 -0.0876  0.0740
  588MOL0     C79312   6.214   7.337   1.519  0.5138 -0.8895  0.0823
  588MOL0     H79313   6.018   6.991   1.045  0.3529  3.9312  0.7808
  588MOL0     H79314   5.856   6.818   0.993 -4.1460 -0.5449  0.7424
  588MOL0     H79315   5.500   6.711   0.982  0.0649 -1.5135 -1.1098
  588MOL0     H79316   5.650   6.737   0.911  0.4196 -1.1553 -0.6946
  588MOL0     H79317   5.629   6.547   1.151  1.2899  0.6168  0.9160
  588MOL0     H79318   5.759   6.559   1.014 -0.5732 -0.1200 -1.2612
  588MOL0     H79319   5.631   6.362   0.969  0.0016 -0.4547 -2.1221
  588MOL0     H79320   5.606   6.483   0.853 -0.4901 -1.8092 -0.4531
  588MOL0     H79321   5.378   6.526   0.961  0.3473 -0.1800  0.6757
  588MOL0     H79322   5.396   6.366   0.883  0.1049 -2.9734  1.8956
  588MOL0     H79323   5.449   6.274   1.112  0.1409  0.1102 -1.6806
  588MOL0     H79324   5.407   6.441   1.173  0.5197 -0.1081  0.5678
  588MOL0     H79325   5.248   6.230   1.035 -2.7346 -1.5557  2.1347
  588MOL0     H79326   5.221   6.282   1.184 -0.6869 -0.7839 -0.9863
  588MOL0     H79327   5.168   6.416   0.924 -0.1340 -3.3758  1.1551
  588MOL0     H79328   5.127   6.509   1.076  1.1657 -0.1137 -0.4936
  588MOL0     H79329   4.981   6.327   1.138 -0.1635 -1.0454 -0.1928
  588MOL0     H79330   4.936   6.430   1.003 -0.3186 -0.4002 -1.3021
  588MOL0     H79331   4.948   6.292   0.746  2.5290 -0.6186 -1.3174
  588MOL0     H79332   4.824   6.028   0.655 -0.1420 -1.0174 -2.0828
  588MOL0     H79333   4.991   6.081   0.604  0.1159 -1.0012 -0.9176
  588MOL0     H79334   5.091   5.871   0.679  0.3984  1.0577 -1.0400
  588MOL0     H79335   4.933   5.816   0.743  0.0853 -0.1953 -0.0489
  588MOL0     H79336   5.006   5.882   0.459  1.5303  0.7265  1.5441
  588MOL0     H79337   4.849   5.817   0.492 -0.8178 -0.1405  0.8849
  588MOL0     H79338   4.994   5.651   0.400 -0.7827 -1.8861 -0.5041
  588MOL0     H79339   4.956   5.610   0.566  0.0029 -0.4139 -2.2118
  588MOL0     H79340   5.139   5.790   0.282  1.2708 -0.3491 -0.5232
  588MOL0     H79341   5.326   5.903   0.169  0.0038  1.4905  0.5287
  588MOL0     H79342   5.541   6.003  -0.114 -3.3236  2.0699 -0.9715
  588MOL0     H79343   5.674   6.161  -0.268 -3.1511  3.3684 -2.3975
  588MOL0     H79344   5.723   6.575  -0.111 -2.6386 -0.5051 -2.6526
  588MOL0     H79345   5.872   6.482  -0.059 -0.7469  1.4088  0.8199
  588MOL0     H79346   5.839   6.607  -0.343  0.4746  2.3936 -1.0467
  588MOL0     H79347   5.931   6.670  -0.208  3.9268 -2.2161 -0.2957
  588MOL0     H79348   6.073   6.467  -0.195 -2.9006  0.5382  1.7243
  588MOL0     H79349   5.987   6.404  -0.340 -2.8623  1.0889 -0.6457
  588MOL0     H79350   6.135   6.673  -0.310 -2.0659  0.9680 -1.1004
  588MOL0     H79351   6.040   6.601  -0.453 -3.6508 -1.1688  1.8609
  588MOL0     H79352   6.216   6.410  -0.436  1.2559 -0.6152 -0.9392
  588MOL0     H79353   6.307   6.524  -0.344  0.4675 -0.1273  0.3094
  588MOL0     H79354   6.196   6.597  -0.617  1.1269 -2.5889 -1.4548
  588MOL0     H79355   6.311   6.705  -0.526 -3.3747  1.7649 -0.9026
  588MOL0     H79356   6.402   6.581  -0.715  3.8091 -2.7087 -0.1009
  588MOL0     H79357   6.383   6.434  -0.621 -0.4315 -0.5357 -3.9866
  588MOL0     H79358   6.545   6.686  -0.563 -2.7893  0.2589 -0.0748
  588MOL0     H79359   6.513   6.566  -0.440 -0.3435  0.7787 -0.5770
  588MOL0     H79360   5.722   6.413   0.075 -2.0344  0.6905 -0.1285
  588MOL0     H79361   5.645   6.250   0.216  0.4430 -1.4702  0.5622
  588MOL0     H79362   5.545   5.916   0.527 -1.4133  0.8824 -0.1893
  588MOL0     H79363   5.391   5.732   0.615  2.7013 -0.9197 -1.0780
  588MOL0     H79364   5.561   7.019   1.232  0.0907  1.8291  1.2996
  588MOL0     H79365   5.736   7.218   1.248  0.5238  0.6900 -0.0506
  588MOL0     H79366   6.227   7.203   1.075  0.3983 -0.4964  0.4003
  588MOL0     H79367   6.449   7.325   1.037  2.4147  2.5566  1.3673
  588MOL0     H79368   6.705   7.620   1.226 -0.7660  3.2885  2.2363
  588MOL0     H79369   6.603   7.582   1.361  0.4809  1.9115  0.2646
  588MOL0     H79370   6.545   7.766   1.224  0.9647 -1.0813  3.7842
  588MOL0     H79371   6.406   7.655   1.216 -0.1896 -0.2596  0.5203
  588MOL0     H79372   6.560   7.554   1.005 -1.0914 -0.2097  0.6172
  588MOL0     H79373   6.600   7.720   0.989 -1.0668  0.7067  1.3722
  588MOL0     H79374   6.383   7.675   0.856  1.5459  0.6156 -0.8494
  588MOL0     H79375   6.301   7.624   1.004 -0.6045 -0.6529 -2.0820
  588MOL0     H79376   6.302   8.037   1.041  2.0987  0.9108 -2.4489
  588MOL0     H79377   6.436   7.465   1.427  0.5793 -0.8363 -0.2207
  588MOL0     H79378   6.142   7.419   1.522  1.3474 -0.1213 -0.3635
  588MOL0     H79379   6.173   7.245   1.563  2.5869 -0.9781  1.9629
  588MOL0     H79380   6.286   7.379   1.589  1.3318 -2.7207  0.4071
  589MOL0     O79381   1.287   3.507   5.662  1.3120 -0.2860 -0.4395
  589MOL0     C79382   1.293   3.499   5.782 -0.1098 -1.9193 -0.1751
  589MOL0     O79383   1.399   3.463   5.846 -0.5526  0.3861 -0.7854
  589MOL0     C79384   1.516   3.459   5.775 -0.7743 -0.3043 -0.0150
  589MOL0     C79385   1.610   3.562   5.784  0.5523  0.3166 -0.2334
  589MOL0     C79386   1.723   3.557   5.719 -0.5075  0.4777  0.0434
  589MOL0     C79387   1.767   3.440   5.648  0.0456  0.1737 -0.1880
  589MOL0     O79388   1.874   3.424   5.567 -0.4341  0.1943  0.0119
  589MOL0     C79389   1.970   3.535   5.549 -0.5974  0.0504  0.8267
  589MOL0     C79390   2.109   3.466   5.536  0.4230  0.5210 -0.0444
  589MOL0     C79391   2.220   3.567   5.584  1.8835 -0.6127 -0.0371
  589MOL0     C79392   2.361   3.509   5.561 -0.6434 -0.4046 -0.6389
  589MOL0     C79393   2.484   3.590   5.614  0.6295  0.2744  0.4690
  589MOL0     C79394   2.519   3.545   5.754  0.5303  0.1965 -0.0004
  589MOL0     C79395   2.605   3.650   5.829  1.0461 -0.3692 -0.2751
  589MOL0     C79396   2.744   3.663   5.778 -0.5946  0.1803  0.0930
  589MOL0     N79397   2.816   3.780   5.840  0.6782  0.1877  0.6461
  589MOL0     C79398   2.883   3.798   5.960 -0.0011 -0.4624  0.1877
  589MOL0     C79399   2.922   3.926   5.961 -0.5679  0.0959  0.3989
  589MOL0     C79400   2.995   3.992   6.073 -0.4520  0.3289 -0.0657
  589MOL0     C79401   2.956   3.958   6.211  0.5740 -0.7010  0.4948
  589MOL0     C79402   2.808   3.991   6.231  0.2677  0.6156 -0.4782
  589MOL0     C79403   2.772   3.971   6.379  1.0289 -0.5241  0.8563
  589MOL0     O79404   2.624   3.986   6.410 -0.3884  0.4515  0.1104
  589MOL0     C79405   2.595   3.966   6.541  0.4955  0.8585  1.2554
  589MOL0     C79406   2.685   3.940   6.644  0.3775  0.0917 -0.0706
  589MOL0     C79407   2.626   3.906   6.768  0.6430  1.5023  0.2621
  589MOL0     C79408   2.489   3.896   6.789 -0.3720 -0.1656  0.4993
  589MOL0     C79409   2.444   3.831   6.910 -0.1644 -0.8107  0.3507
  589MOL0     O79410   2.310   3.807   6.909  0.7427  0.1601  0.6785
  589MOL0     C79411   2.259   3.753   7.023 -0.5043 -0.4830  0.9697
  589MOL0     C79412   2.255   3.828   7.143  0.2463  0.0478  0.2426
  589MOL0     C79413   2.196   3.773   7.263 -0.5039 -0.3057  0.3315
  589MOL0     C79414   2.139   3.648   7.257  0.3988  0.5440 -0.1570
  589MOL0     O79415   2.095   3.594   7.375 -0.3443  0.5592  0.4847
  589MOL0     C79416   1.962   3.546   7.384  0.2101 -0.3882 -0.1882
  589MOL0     C79417   1.864   3.654   7.355 -0.0794  0.5403  0.3571
  589MOL0     C79418   1.871   3.780   7.436  0.6361  0.5677 -0.8406
  589MOL0     C79419   1.877   3.754   7.590  0.0388 -0.2019 -0.3996
  589MOL0     C79420   1.873   3.888   7.667 -0.9163  0.1570 -0.6005
  589MOL0     C79421   1.752   3.978   7.632 -0.2943  0.1617  0.6164
  589MOL0     C79422   1.754   4.101   7.713 -0.0610 -0.7751  0.5763
  589MOL0     C79423   1.635   4.201   7.706 -0.2535 -0.1802  0.2557
  589MOL0    Cl79424   1.490   4.135   7.778 -0.5005 -0.2951 -0.1258
  589MOL0     C79425   2.148   3.575   7.136  0.1708 -0.0544  0.8796
  589MOL0     C79426   2.212   3.621   7.012  0.7746 -0.2023  0.0645
  589MOL0     O79427   2.525   3.803   7.000 -0.1169 -0.0140  0.4342
  589MOL0     C79428   2.401   3.944   6.691 -0.0693  0.9694 -0.3304
  589MOL0     C79429   2.456   3.977   6.570  0.6140  1.0029 -0.0777
  589MOL0     N79430   2.870   3.987   5.854  0.3613  0.2585  0.2435
  589MOL0     N79431   2.806   3.899   5.781  0.3062 -0.6103  0.5768
  589MOL0     C79432   1.681   3.335   5.650 -0.6679  0.4001  0.1131
  589MOL0     C79433   1.555   3.337   5.713 -0.3597 -0.1270  1.0660
  589MOL0     C79434   1.164   3.540   5.857 -0.7807 -0.0677  0.0693
  589MOL0     C79435   1.185   3.593   5.991  0.4036  0.3774  0.7535
  589MOL0     C79436   1.077   3.631   6.064 -0.6329  0.2917 -0.3864
  589MOL0     C79437   0.954   3.633   6.015 -0.2077  1.0345 -0.3452
  589MOL0     O79438   0.850   3.681   6.086  0.2831  0.0135 -0.4658
  589MOL0     C79439   0.737   3.591   6.109 -0.3576 -0.2042  1.6559
  589MOL0     C79440   0.624   3.662   6.184  0.4920  0.4237 -0.0389
  589MOL0     C79441   0.657   3.712   6.328  0.5179 -1.0857 -0.3198
  589MOL0     C79442   0.676   3.589   6.426  0.1767  0.1824  0.8205
  589MOL0     C79443   0.817   3.547   6.413 -0.6660  0.0998 -0.0192
  589MOL0     C79444   0.934   3.501   6.416 -0.1224  0.3953  0.3113
  589MOL0     C79445   0.931   3.582   5.885  0.7280  0.5451  0.1836
  589MOL0     C79446   1.034   3.537   5.803  0.1018  0.1158  0.0490
  589MOL0     C79447   0.998   3.504   5.659 -0.4222 -0.7990  0.3138
  589MOL0     H79448   1.584   3.653   5.837 -0.6955 -0.4062  0.4275
  589MOL0     H79449   1.787   3.644   5.722  0.5865 -0.2233 -1.1952
  589MOL0     H79450   1.941   3.588   5.458 -0.3180 -0.0246  0.6929
  589MOL0     H79451   1.975   3.607   5.630  1.2678 -1.6893  2.3652
  589MOL0     H79452   2.125   3.445   5.430  1.3091 -1.2982  0.4122
  589MOL0     H79453   2.108   3.379   5.602  3.2567  2.7086  3.2240
  589MOL0     H79454   2.196   3.605   5.684  0.8081  5.3274 -2.1712
  589MOL0     H79455   2.214   3.659   5.525  2.4929  0.0561  0.9137
  589MOL0     H79456   2.365   3.407   5.603  2.5068 -1.0739 -2.2156
  589MOL0     H79457   2.374   3.490   5.454  1.6368  1.6137 -0.7978
  589MOL0     H79458   2.569   3.570   5.549 -0.6150 -0.9704 -0.8103
  589MOL0     H79459   2.455   3.696   5.614 -1.3238 -0.2158  1.2499
  589MOL0     H79460   2.421   3.524   5.798  0.0312 -1.3274 -1.6999
  589MOL0     H79461   2.566   3.447   5.758  0.6508  0.2799  0.7367
  589MOL0     H79462   2.625   3.626   5.934  2.8217 -3.3143 -1.1647
  589MOL0     H79463   2.561   3.749   5.814 -2.4620 -1.9107 -1.3647
  589MOL0     H79464   2.801   3.572   5.800  1.4973  1.0198 -1.6056
  589MOL0     H79465   2.739   3.668   5.669 -0.1352  2.5946  0.1364
  589MOL0     H79466   2.903   3.726   6.038 -0.9236  1.2938  2.1650
  589MOL0     H79467   3.103   3.974   6.069 -0.5915 -0.5508 -0.0106
  589MOL0     H79468   2.980   4.098   6.053  2.7393  0.9516  0.2606
  589MOL0     H79469   2.973   3.852   6.233  0.4079 -1.3975 -2.3276
  589MOL0     H79470   3.019   4.018   6.277  1.2980 -1.2573  0.3306
  589MOL0     H79471   2.742   3.925   6.172 -1.2337  0.7417  0.9774
  589MOL0     H79472   2.782   4.094   6.204 -4.2013 -0.0564  0.3477
  589MOL0     H79473   2.817   4.052   6.437  2.8686 -0.6813 -0.2711
  589MOL0     H79474   2.815   3.876   6.413  0.0433 -1.6604 -0.8781
  589MOL0     H79475   2.793   3.953   6.644  0.5175 -0.9049 -0.7522
  589MOL0     H79476   2.694   3.873   6.845  1.5016 -0.6045 -1.2988
  589MOL0     H79477   2.296   3.928   7.150 -2.5725  1.5536 -2.3344
  589MOL0     H79478   2.199   3.845   7.344  1.9196  0.7741 -0.6332
  589MOL0     H79479   1.946   3.472   7.305  1.6358  0.4919 -1.3434
  589MOL0     H79480   1.953   3.501   7.484  4.5004 -2.8811 -0.6834
  589MOL0     H79481   1.863   3.681   7.249  2.4339 -2.1575 -0.4946
  589MOL0     H79482   1.770   3.602   7.374  2.0205 -2.9488  1.9943
  589MOL0     H79483   1.954   3.840   7.398 -0.9800  0.7040 -4.5938
  589MOL0     H79484   1.784   3.839   7.405  0.3088  1.0515  0.9272
  589MOL0     H79485   1.966   3.695   7.614  1.8474  3.4031  3.0436
  589MOL0     H79486   1.784   3.704   7.620  0.8700 -1.7205 -0.2529
  589MOL0     H79487   1.971   3.935   7.652 -0.2593 -1.0418 -0.1515
  589MOL0     H79488   1.860   3.856   7.771 -0.5602  1.8704  0.0091
  589MOL0     H79489   1.758   4.002   7.526 -1.4591 -0.5821  0.3711
  589MOL0     H79490   1.656   3.932   7.655 -2.1909  2.7339 -1.4937
  589MOL0     H79491   1.845   4.155   7.687 -1.3550  0.7145 -1.1759
  589MOL0     H79492   1.758   4.071   7.818  1.3485  1.6057  1.2867
  589MOL0     H79493   1.676   4.280   7.771 -0.3208 -2.1253  2.8461
  589MOL0     H79494   1.626   4.232   7.602  2.1923 -1.0136 -0.2791
  589MOL0     H79495   2.099   3.478   7.136 -1.3188  0.6361 -0.7744
  589MOL0     H79496   2.227   3.569   6.918 -0.8414  0.1275 -0.4084
  589MOL0     H79497   2.294   3.929   6.694  0.1776 -1.8295 -2.3459
  589MOL0     H79498   2.385   3.988   6.488 -0.9623 -0.6643  0.9964
  589MOL0     H79499   1.712   3.243   5.601 -1.2833 -0.5367  1.4241
  589MOL0     H79500   1.497   3.246   5.702  2.3642 -1.9185  0.4040
  589MOL0     H79501   1.288   3.600   6.024  1.3045  0.4735 -1.8750
  589MOL0     H79502   1.099   3.686   6.155  0.6092  2.0688 -1.7070
  589MOL0     H79503   0.771   3.501   6.161  1.3036  0.2011  1.3120
  589MOL0     H79504   0.700   3.552   6.013 -0.6101 -1.8887  2.3914
  589MOL0     H79505   0.543   3.589   6.196  0.1509  0.6089 -1.0567
  589MOL0     H79506   0.582   3.744   6.126  1.7729  1.8065  0.9307
  589MOL0     H79507   0.570   3.769   6.360  0.5166 -0.6863 -1.0147
  589MOL0     H79508   0.747   3.774   6.335  0.2623 -0.4814 -2.0057
  589MOL0     H79509   0.665   3.617   6.532 -1.7630  0.9318  0.4625
  589MOL0     H79510   0.608   3.505   6.413  2.7035 -2.0241  1.1978
  589MOL0     H79511   1.033   3.460   6.406 -0.3709 -0.8448  2.2027
  589MOL0     H79512   0.834   3.579   5.837  1.4380  1.3755 -1.3557
  589MOL0     H79513   0.894   3.516   5.627  0.0227 -0.8355 -1.2430
  589MOL0     H79514   1.063   3.561   5.592  0.7377 -1.9278  0.4210
  589MOL0     H79515   1.015   3.396   5.650 -1.8440 -1.0248  0.1431
  590MOL0     O79516   1.069   1.572   9.735  0.2681 -0.0230  0.4900
  590MOL0     C79517   1.015   1.593   9.627  0.1510 -0.4299 -0.9212
  590MOL0     O79518   1.071   1.670   9.531 -0.4807  0.5903 -0.1780
  590MOL0     C79519   1.205   1.682   9.532 -0.0175 -0.4775  0.1667
  590MOL0     C79520   1.292   1.581   9.553  0.6727 -0.3606  0.7600
  590MOL0     C79521   1.429   1.593   9.537  0.0635 -0.9328 -0.3463
  590MOL0     C79522   1.480   1.717   9.500  0.3786 -1.2216 -0.9934
  590MOL0     O79523   1.619   1.716   9.479  0.0699 -0.4590  0.2796
  590MOL0     C79524   1.688   1.836   9.437 -1.2475 -0.3111  0.6151
  590MOL0     C79525   1.836   1.813   9.417 -0.1020  0.0669  1.1168
  590MOL0     C79526   1.926   1.931   9.385  0.0195  0.0961  0.3403
  590MOL0     C79527   2.059   1.876   9.324 -0.4258  0.3587  0.3066
  590MOL0     C79528   2.175   1.943   9.383 -0.5054  0.3191 -0.6355
  590MOL0     C79529   2.301   1.865   9.341  0.1733  0.3365 -0.1864
  590MOL0     C79530   2.421   1.894   9.427  0.2538 -1.4070 -0.8388
  590MOL0     C79531   2.464   2.041   9.403 -0.0295 -0.0212  1.3900
  590MOL0     N79532   2.605   2.070   9.421  0.5864  0.2698 -0.4100
  590MOL0     C79533   2.691   2.032   9.523  0.2879 -0.0174 -0.1421
  590MOL0     C79534   2.818   2.083   9.492 -0.2156  1.0817  0.0922
  590MOL0     C79535   2.944   2.058   9.561  0.8503 -0.0114  0.2743
  590MOL0     C79536   3.004   1.916   9.543  0.6710  0.5228  0.6965
  590MOL0     C79537   3.110   1.878   9.652 -0.0383 -0.6129 -0.4484
  590MOL0     C79538   3.177   1.744   9.626  0.1996 -0.2516 -0.3991
  590MOL0     O79539   3.227   1.746   9.487  0.6289  0.0781 -0.5755
  590MOL0     C79540   3.287   1.637   9.430 -0.7907  0.2855 -0.3941
  590MOL0     C79541   3.298   1.649   9.292  0.3179  0.6601 -0.3794
  590MOL0     C79542   3.356   1.557   9.214 -0.5157  0.4703  0.2362
  590MOL0     C79543   3.404   1.441   9.272 -0.6110  0.5042  0.1004
  590MOL0     C79544   3.472   1.347   9.185  0.3374 -0.0781 -0.4247
  590MOL0     O79545   3.513   1.382   9.057  0.2714 -0.5863 -0.5935
  590MOL0     C79546   3.578   1.302   8.975 -0.1241 -0.9126 -0.1387
  590MOL0     C79547   3.685   1.362   8.906 -0.2662  0.2901 -0.3287
  590MOL0     C79548   3.757   1.288   8.815 -0.8196  0.0738  0.3191
  590MOL0     C79549   3.723   1.159   8.784  0.0637 -0.2046  0.1823
  590MOL0     O79550   3.795   1.077   8.705 -0.1641  0.5454 -0.0190
  590MOL0     C79551   3.745   1.058   8.572  0.0343  0.2551 -0.0797
  590MOL0     C79552   3.848   1.079   8.471  0.2541 -0.2760  0.4600
  590MOL0     C79553   3.965   0.989   8.484 -0.1945  0.3018  0.1763
  590MOL0     C79554   4.086   1.020   8.381 -0.2226  0.3471 -0.0301
  590MOL0     C79555   4.211   0.948   8.436 -0.3323  1.1911  0.0202
  590MOL0     C79556   4.316   0.931   8.328 -1.0422 -0.8726 -0.0575
  590MOL0     C79557   4.377   1.073   8.298  0.1333  0.5075  1.7077
  590MOL0     C79558   4.443   1.078   8.152  1.0664  1.4534  0.3064
  590MOL0    Cl79559   4.337   1.154   8.033 -0.7905  0.0597  0.3417
  590MOL0     C79560   3.610   1.099   8.850  0.8341 -0.0418 -0.5698
  590MOL0     C79561   3.546   1.173   8.945  0.8474  0.7585 -0.3571
  590MOL0     O79562   3.500   1.235   9.233  0.4305 -0.3775 -0.3699
  590MOL0     C79563   3.392   1.417   9.419 -0.7825  0.4810 -0.5574
  590MOL0     C79564   3.328   1.515   9.496 -0.1407 -0.6731 -0.1417
  590MOL0     N79565   2.803   2.159   9.378 -0.0902  0.4190 -0.4180
  590MOL0     N79566   2.680   2.142   9.338  0.1275  0.5948 -0.7888
  590MOL0     C79567   1.397   1.829   9.475  0.5023 -0.5271  0.2233
  590MOL0     C79568   1.259   1.804   9.498  0.4825  0.1949 -0.7801
  590MOL0     C79569   0.869   1.560   9.600 -0.0613  0.4359 -1.0569
  590MOL0     C79570   0.777   1.662   9.591  0.5610  0.2553 -0.6582
  590MOL0     C79571   0.640   1.637   9.566 -0.0926  0.0288 -0.1482
  590MOL0     C79572   0.594   1.509   9.546  0.4072 -0.3399 -0.5637
  590MOL0     O79573   0.465   1.477   9.522  1.0455 -0.2864  0.6640
  590MOL0     C79574   0.366   1.583   9.521 -0.1691  0.0395 -0.3795
  590MOL0     C79575   0.361   1.664   9.397 -0.2083 -0.1649 -0.1890
  590MOL0     C79576   0.268   1.789   9.422 -0.1870  0.2274  0.7958
  590MOL0     C79577   0.259   1.866   9.294 -0.1645 -0.8026 -0.7770
  590MOL0     C79578   0.177   1.806   9.193  0.1259  1.6602  0.5588
  590MOL0     C79579   0.118   1.757   9.102  0.2597  0.1641  0.2333
  590MOL0     C79580   0.686   1.406   9.551 -0.3597  0.3908  0.1785
  590MOL0     C79581   0.818   1.426   9.588  0.4377  0.4318  0.0236
  590MOL0     C79582   0.917   1.315   9.598  0.3285  0.3649 -0.2514
  590MOL0     H79583   1.252   1.481   9.570  0.8277 -0.2788  1.6475
  590MOL0     H79584   1.502   1.517   9.566  0.0562 -0.7899  0.0570
  590MOL0     H79585   1.635   1.883   9.353  0.7753 -1.1711 -1.2439
  590MOL0     H79586   1.693   1.918   9.509  1.9292 -0.3190  0.5554
  590MOL0     H79587   1.845   1.746   9.331 -2.6849 -0.1375  0.9342
  590MOL0     H79588   1.876   1.758   9.502 -3.4952 -4.3409  0.2443
  590MOL0     H79589   1.961   1.992   9.469  0.5833  0.8684 -0.4380
  590MOL0     H79590   1.874   1.993   9.312 -2.2329  0.3796  2.0868
  590MOL0     H79591   2.074   1.770   9.344  0.6043  0.7998  2.1561
  590MOL0     H79592   2.065   1.881   9.215  1.9958  1.8652  0.4177
  590MOL0     H79593   2.185   2.049   9.359  2.9351  1.1445  3.2637
  590MOL0     H79594   2.157   1.946   9.490 -0.1608 -0.5307 -0.5441
  590MOL0     H79595   2.284   1.759   9.361  2.2953  0.1050  0.7063
  590MOL0     H79596   2.333   1.881   9.237  1.4367  0.8330  0.2485
  590MOL0     H79597   2.504   1.827   9.402  1.9530 -0.0782  0.8871
  590MOL0     H79598   2.407   1.883   9.535  2.5300  0.9350 -0.2078
  590MOL0     H79599   2.435   2.084   9.307  0.7709  2.2766  2.1010
  590MOL0     H79600   2.405   2.108   9.466  2.6181  5.7822 -1.5504
  590MOL0     H79601   2.658   1.970   9.606 -2.4767  0.7926 -0.5237
  590MOL0     H79602   3.023   2.125   9.527  0.7773  1.8270  3.4302
  590MOL0     H79603   2.934   2.066   9.669 -1.8390  2.4049 -0.0246
  590MOL0     H79604   2.924   1.841   9.535  1.0325  0.3680 -2.5172
  590MOL0     H79605   3.066   1.902   9.455 -1.8767  0.0950 -1.1428
  590MOL0     H79606   3.070   1.882   9.754  0.6146  1.7808 -0.2109
  590MOL0     H79607   3.189   1.953   9.655 -0.4529 -0.1875  0.2211
  590MOL0     H79608   3.104   1.663   9.630  1.8890 -1.7753  1.8156
  590MOL0     H79609   3.257   1.723   9.697 -1.1779 -1.7065  0.8013
  590MOL0     H79610   3.261   1.739   9.245 -0.4138 -0.1732 -1.4461
  590MOL0     H79611   3.365   1.571   9.106 -1.1692 -3.7542 -0.5371
  590MOL0     H79612   3.708   1.467   8.920  0.2247  0.0514  0.8649
  590MOL0     H79613   3.834   1.353   8.775 -0.6176  0.5841  1.5223
  590MOL0     H79614   3.702   0.958   8.560 -1.7515  0.7843  1.5428
  590MOL0     H79615   3.665   1.131   8.555  1.0141  1.0620 -1.4700
  590MOL0     H79616   3.804   1.057   8.374  0.8742  1.4653 -0.2536
  590MOL0     H79617   3.877   1.184   8.473  1.6191 -0.6252  0.3418
  590MOL0     H79618   4.018   0.994   8.580  0.9163 -1.7480 -0.2558
  590MOL0     H79619   3.936   0.884   8.481 -0.1743  0.2782  0.6862
  590MOL0     H79620   4.100   1.128   8.374 -0.6414  0.3757 -0.4788
  590MOL0     H79621   4.058   0.985   8.281 -0.3645  3.3625 -1.1503
  590MOL0     H79622   4.203   0.849   8.482  0.9185  1.1489  0.1822
  590MOL0     H79623   4.255   1.001   8.521  1.0027 -1.0132  0.7864
  590MOL0     H79624   4.399   0.868   8.362 -0.9483 -1.1473 -0.7925
  590MOL0     H79625   4.269   0.875   8.247 -0.3070 -0.2705 -0.9135
  590MOL0     H79626   4.453   1.088   8.375  2.0551  2.5000 -0.3979
  590MOL0     H79627   4.309   1.158   8.307 -1.1400 -0.7148  4.8639
  590MOL0     H79628   4.535   1.137   8.155  2.8656 -1.2004  1.7853
  590MOL0     H79629   4.462   0.980   8.109 -0.9896  1.8798 -1.8325
  590MOL0     H79630   3.584   0.995   8.829  1.6684 -0.0911 -1.4076
  590MOL0     H79631   3.451   1.133   8.979  1.5311  0.0695  0.8400
  590MOL0     H79632   3.434   1.331   9.471 -0.2832  0.3036 -1.2409
  590MOL0     H79633   3.333   1.517   9.604  2.5536  0.4104 -0.1941
  590MOL0     H79634   1.435   1.923   9.437 -0.1503 -0.5973 -0.6319
  590MOL0     H79635   1.184   1.882   9.494 -0.2349 -0.3389  1.0027
  590MOL0     H79636   0.808   1.765   9.605 -0.8584  0.4500  1.7793
  590MOL0     H79637   0.572   1.721   9.553 -1.0932 -1.0936 -3.3072
  590MOL0     H79638   0.392   1.654   9.601  2.2796 -2.2740  1.0308
  590MOL0     H79639   0.266   1.539   9.531  0.5722 -1.8186 -0.8169
  590MOL0     H79640   0.324   1.589   9.326  1.0575 -2.6580  1.6502
  590MOL0     H79641   0.457   1.699   9.358 -0.1654 -1.1649 -1.0299
  590MOL0     H79642   0.307   1.856   9.499 -1.5947  1.7249  0.2606
  590MOL0     H79643   0.167   1.757   9.449 -1.4063  3.9670  1.2909
  590MOL0     H79644   0.225   1.969   9.307  1.1765 -0.4113 -0.2592
  590MOL0     H79645   0.360   1.879   9.255  1.1362 -0.9407  2.2814
  590MOL0     H79646   0.076   1.731   9.006  1.9783 -2.2832  0.0524
  590MOL0     H79647   0.654   1.306   9.522 -0.2634  0.7366 -1.1850
  590MOL0     H79648   0.986   1.327   9.515 -0.6369  1.5291 -0.9063
  590MOL0     H79649   0.972   1.321   9.693  0.5388 -3.0615 -0.0391
  590MOL0     H79650   0.872   1.215   9.604  1.8257 -0.6190 -3.2586
  591MOL0     O79651   7.549   4.691   6.296 -0.1543 -0.6276  0.1790
  591MOL0     C79652   7.513   4.788   6.359  0.3184  0.3753  0.1569
  591MOL0     O79653   7.584   4.896   6.390  0.0069 -0.6023  0.0474
  591MOL0     C79654   7.724   4.898   6.396  0.1684 -0.1745 -0.2414
  591MOL0     C79655   7.783   5.017   6.394  0.3006 -0.4097 -0.1534
  591MOL0     C79656   7.919   5.033   6.399  0.1157  0.2512 -0.9336
  591MOL0     C79657   8.004   4.921   6.429  0.0748  0.1000 -0.3424
  591MOL0     O79658   8.143   4.945   6.447  0.3439 -0.3212 -0.5334
  591MOL0     C79659   8.237   4.842   6.433  0.5414  0.4998  0.8890
  591MOL0     C79660   8.377   4.895   6.455 -0.5001  0.4914 -0.4611
  591MOL0     C79661   8.490   4.797   6.481  1.0603  0.3836 -0.1204
  591MOL0     C79662   8.633   4.847   6.452 -0.2812  0.0062 -0.8234
  591MOL0     C79663   8.729   4.744   6.507  0.8404  0.4036 -0.2719
  591MOL0     C79664   8.875   4.773   6.466  0.5746 -0.0485 -0.2788
  591MOL0     C79665   8.975   4.698   6.553  0.6955  0.2963  0.9312
  591MOL0     C79666   8.983   4.552   6.498  0.6349 -0.3114 -0.0516
  591MOL0     N79667   9.071   4.471   6.586 -0.5585 -0.2265  0.2588
  591MOL0     C79668   9.050   4.452   6.725  0.6004  0.0285 -0.1772
  591MOL0     C79669   9.113   4.334   6.755  0.2111  0.9085  0.8656
  591MOL0     C79670   9.084   4.277   6.892 -0.7179  0.1374  0.3685
  591MOL0     C79671   9.203   4.194   6.936  0.1474  0.2443 -0.1041
  591MOL0     C79672   9.188   4.157   7.075  0.4153 -0.6369 -0.2080
  591MOL0     C79673   9.318   4.082   7.112  0.1859  0.2757  0.1664
  591MOL0     O79674   9.428   4.169   7.120  0.3829 -0.1676  0.4475
  591MOL0     C79675   9.542   4.128   7.185 -1.0184 -0.6336  0.2889
  591MOL0     C79676   9.564   3.993   7.243  0.8505 -0.3224 -0.9375
  591MOL0     C79677   9.689   3.954   7.286 -0.2232  0.6916  0.7023
  591MOL0     C79678   9.797   4.044   7.293 -0.6872 -0.0135 -0.0508
  591MOL0     C79679   9.933   3.992   7.331  1.0394  0.4477  0.0682
  591MOL0     O79680   9.940   3.885   7.419  0.2972 -0.1063  0.7051
  591MOL0     C79681  10.068   3.844   7.469  0.3466 -0.4795  0.0981
  591MOL0     C79682  10.190   3.865   7.402 -0.3511 -0.3756 -0.1933
  591MOL0     C79683  10.317   3.822   7.453  0.2763  0.1162 -0.5222
  591MOL0     C79684  10.317   3.752   7.576 -0.3089  0.2957  0.6378
  591MOL0     O79685  10.437   3.704   7.619  0.4171  0.6550 -0.1532
  591MOL0     C79686  10.464   3.757   7.749 -0.0919  0.5412  0.9767
  591MOL0     C79687  10.613   3.781   7.771  0.4925  0.5792  0.2447
  591MOL0     C79688  10.684   3.652   7.815  0.2478  0.5980 -0.0860
  591MOL0     C79689  10.837   3.664   7.847 -0.5421 -0.3808 -0.2977
  591MOL0     C79690  10.893   3.540   7.920  1.1306  0.0175  0.7248
  591MOL0     C79691  11.041   3.534   7.948 -0.3067 -0.5605 -0.7632
  591MOL0     C79692  11.077   3.441   8.055 -0.1033  0.3824 -0.3297
  591MOL0     C79693  11.063   3.293   8.011  0.7530  0.3665 -0.7587
  591MOL0    Cl79694  11.109   3.194   8.149 -0.1581 -0.1231  0.3111
  591MOL0     C79695  10.198   3.730   7.644 -0.4074  0.2654 -0.2651
  591MOL0     C79696  10.072   3.771   7.588 -0.3417  0.3901  0.4537
  591MOL0     O79697  10.016   4.071   7.296  0.0423 -0.2066 -0.0404
  591MOL0     C79698   9.773   4.175   7.251  0.2702  0.6347  0.1438
  591MOL0     C79699   9.650   4.209   7.192  0.1580 -1.4096  1.6261
  591MOL0     N79700   9.185   4.283   6.645  0.3364  0.4242 -0.7899
  591MOL0     N79701   9.164   4.374   6.547 -0.2387  1.2590 -0.1288
  591MOL0     C79702   7.946   4.796   6.418 -0.6291 -0.0315 -0.6306
  591MOL0     C79703   7.804   4.789   6.416 -0.1914  1.0843  0.2255
  591MOL0     C79704   7.363   4.805   6.384  0.6035  0.3864 -0.1606
  591MOL0     C79705   7.274   4.743   6.289 -0.4916  0.9748  0.1840
  591MOL0     C79706   7.138   4.762   6.285  0.9097 -0.7733 -1.2172
  591MOL0     C79707   7.087   4.855   6.379  0.7571 -0.2882 -0.1651
  591MOL0     O79708   6.948   4.868   6.401  0.6701 -0.1615 -0.1173
  591MOL0     C79709   6.892   4.961   6.492  0.8782 -0.7845 -0.1235
  591MOL0     C79710   6.737   4.956   6.486 -0.4332  0.1141 -0.1692
  591MOL0     C79711   6.658   5.054   6.580 -0.3781  0.1625 -1.0854
  591MOL0     C79712   6.501   5.033   6.599 -0.6355  0.5326  0.1156
  591MOL0     C79713   6.441   5.054   6.466 -0.6911  0.1013  0.7543
  591MOL0     C79714   6.373   5.072   6.368  0.5393 -0.4004 -0.5403
  591MOL0     C79715   7.171   4.913   6.474 -0.9783 -0.2976  0.0038
  591MOL0     C79716   7.307   4.887   6.487 -0.5300  0.6929  0.3339
  591MOL0     C79717   7.385   4.942   6.607 -0.6207  0.1698 -0.1725
  591MOL0     H79718   7.719   5.104   6.384 -0.2971 -0.9728 -1.3206
  591MOL0     H79719   7.961   5.133   6.410  0.4249  0.1307 -0.9979
  591MOL0     H79720   8.226   4.769   6.513  2.5517  0.7268  1.4396
  591MOL0     H79721   8.225   4.793   6.336 -3.3398  1.4134  0.7512
  591MOL0     H79722   8.380   4.980   6.524 -0.4788  0.8677 -0.9186
  591MOL0     H79723   8.393   4.954   6.364 -1.2796  2.7415  0.7752
  591MOL0     H79724   8.476   4.706   6.421  2.2529  0.4527 -0.5318
  591MOL0     H79725   8.487   4.772   6.587  1.9133  1.9956  0.3115
  591MOL0     H79726   8.654   4.856   6.345  1.4923 -0.8155 -0.5854
  591MOL0     H79727   8.648   4.940   6.508 -1.4327  0.0019 -0.4957
  591MOL0     H79728   8.711   4.737   6.615  0.1650 -0.4345 -0.4307
  591MOL0     H79729   8.703   4.646   6.467  0.9617 -0.0062  0.6166
  591MOL0     H79730   8.900   4.768   6.360  1.8497  2.3521 -0.1705
  591MOL0     H79731   8.901   4.876   6.493 -0.9574 -0.4117  3.2043
  591MOL0     H79732   8.948   4.711   6.658  0.6563 -0.0626  0.9659
  591MOL0     H79733   9.068   4.754   6.540  0.2131  0.4248 -3.6835
  591MOL0     H79734   8.881   4.512   6.493  0.6931 -0.7358  1.5307
  591MOL0     H79735   9.031   4.563   6.401  3.3108  1.3608  1.3511
  591MOL0     H79736   8.987   4.511   6.790  0.2008 -2.3538  1.7588
  591MOL0     H79737   9.062   4.358   6.963  0.1510  0.7421 -0.0342
  591MOL0     H79738   9.001   4.207   6.887  0.7731 -1.7707  1.1229
  591MOL0     H79739   9.213   4.104   6.873  0.0006  0.9427 -1.1568
  591MOL0     H79740   9.294   4.252   6.917  0.3463  1.1141  3.0542
  591MOL0     H79741   9.105   4.088   7.087 -0.0261 -0.1902 -0.6530
  591MOL0     H79742   9.176   4.249   7.133 -3.1605 -0.5010 -0.9526
  591MOL0     H79743   9.321   4.000   7.040 -0.6457 -0.2333  0.6962
  591MOL0     H79744   9.314   4.050   7.217  2.3070  1.3406  0.6407
  591MOL0     H79745   9.496   3.908   7.247 -1.4027  1.4072 -0.4031
  591MOL0     H79746   9.718   3.855   7.319 -0.0239  0.3706 -0.3947
  591MOL0     H79747  10.202   3.907   7.302  1.2655 -0.3033  0.0069
  591MOL0     H79748  10.415   3.844   7.413  0.8605  0.5675  1.0957
  591MOL0     H79749  10.414   3.851   7.772  1.7345  1.7788  0.1130
  591MOL0     H79750  10.446   3.684   7.828  1.8379 -0.9985  0.0839
  591MOL0     H79751  10.661   3.819   7.681  1.5036 -1.0347  0.0700
  591MOL0     H79752  10.618   3.851   7.856 -1.2732  2.1486 -0.8742
  591MOL0     H79753  10.628   3.619   7.904  1.5840  0.9662  0.9248
  591MOL0     H79754  10.670   3.578   7.737 -1.6757  0.5049  0.2864
  591MOL0     H79755  10.835   3.752   7.911 -2.0798  2.1216 -3.5355
  591MOL0     H79756  10.896   3.695   7.760  0.1465 -0.4364  0.1437
  591MOL0     H79757  10.874   3.455   7.854  0.7449 -0.3839  1.3473
  591MOL0     H79758  10.837   3.516   8.011 -1.6572 -1.0385 -1.1192
  591MOL0     H79759  11.086   3.492   7.858 -2.1482  0.8113 -2.4115
  591MOL0     H79760  11.073   3.636   7.972 -0.7375 -0.4483 -0.6524
  591MOL0     H79761  11.007   3.468   8.136  1.4594  1.2762  0.7787
  591MOL0     H79762  11.181   3.453   8.087  0.0141  2.1339 -1.2690
  591MOL0     H79763  10.960   3.277   7.978  0.3915  1.8168 -0.4007
  591MOL0     H79764  11.135   3.263   7.934  2.3305  0.5639  0.5763
  591MOL0     H79765  10.195   3.677   7.739  1.0315  0.5076 -0.0577
  591MOL0     H79766   9.974   3.760   7.634 -1.0817  1.7682 -0.6829
  591MOL0     H79767   9.853   4.246   7.267 -0.2992  1.5556 -0.9065
  591MOL0     H79768   9.641   4.309   7.150 -2.7188 -0.8968  3.1864
  591MOL0     H79769   7.999   4.701   6.418  2.1428  1.3760  1.1383
  591MOL0     H79770   7.759   4.690   6.415  0.3326  0.7255 -3.3733
  591MOL0     H79771   7.312   4.663   6.226  1.6083  1.7489  0.3913
  591MOL0     H79772   7.082   4.702   6.215 -0.6528 -1.4766  0.5509
  591MOL0     H79773   6.911   5.060   6.447 -1.0073 -0.9606 -1.4355
  591MOL0     H79774   6.935   4.956   6.592  0.2237  0.7930  0.2776
  591MOL0     H79775   6.708   4.857   6.521  1.9331 -0.6979 -0.3334
  591MOL0     H79776   6.710   4.970   6.381 -0.6736 -0.1324 -0.1414
  591MOL0     H79777   6.670   5.158   6.550 -0.6252  0.6504  0.4185
  591MOL0     H79778   6.692   5.051   6.684 -2.5036 -0.6637 -0.3514
  591MOL0     H79779   6.494   4.931   6.636 -0.7690  0.4659 -0.0904
  591MOL0     H79780   6.462   5.098   6.678  0.1686  0.8581  0.2576
  591MOL0     H79781   6.282   5.083   6.313 -0.2154  0.5344  0.8403
  591MOL0     H79782   7.145   4.979   6.556  1.4465 -0.3168  0.8725
  591MOL0     H79783   7.453   4.862   6.636 -0.6192  0.0794 -0.4244
  591MOL0     H79784   7.439   5.026   6.562 -1.2424 -0.0201 -1.3086
  591MOL0     H79785   7.318   4.975   6.687 -2.5736 -1.0030 -1.2372
  592MOL0     O79786   9.065  11.412   0.226  0.0147 -0.5521  0.4256
  592MOL0     C79787   8.972  11.362   0.278  0.0546 -0.0258 -0.7180
  592MOL0     O79788   8.843  11.396   0.261 -0.1642  0.0512  0.5489
  592MOL0     C79789   8.808  11.466   0.150 -0.1115  0.0157 -0.2092
  592MOL0     C79790   8.770  11.592   0.168 -0.0751 -0.2014 -0.4932
  592MOL0     C79791   8.728  11.675   0.066  0.5024 -0.6598  0.1958
  592MOL0     C79792   8.732  11.628  -0.068 -0.8250 -0.4565 -0.0367
  592MOL0     O79793   8.693  11.701  -0.182 -0.3135  1.2318  0.2007
  592MOL0     C79794   8.650  11.838  -0.145  0.1987 -0.2731 -0.3619
  592MOL0     C79795   8.598  11.925  -0.262  0.5044  0.5365 -0.4808
  592MOL0     C79796   8.713  11.953  -0.366  0.6111  0.4688  0.0936
  592MOL0     C79797   8.661  11.996  -0.496 -0.3777  0.4769  0.1660
  592MOL0     C79798   8.742  12.120  -0.556  0.3557 -0.0718  0.0971
  592MOL0     C79799   8.892  12.092  -0.563  0.2740  0.3218  0.8485
  592MOL0     C79800   8.930  11.978  -0.638  0.4142  0.8423 -0.1717
  592MOL0     C79801   9.087  11.959  -0.628 -0.4009  0.6868 -0.7822
  592MOL0     N79802   9.127  11.929  -0.486 -1.1601  0.6896 -0.1411
  592MOL0     C79803   9.081  11.821  -0.406 -0.5312 -1.1692 -0.1093
  592MOL0     C79804   9.148  11.837  -0.284  0.8966  0.5424  0.5095
  592MOL0     C79805   9.128  11.747  -0.168 -1.0108 -0.0560 -0.7053
  592MOL0     C79806   9.264  11.664  -0.142  0.5712 -0.6074 -0.1973
  592MOL0     C79807   9.255  11.575  -0.025  1.0615  0.7717 -0.1158
  592MOL0     C79808   9.295  11.630   0.115  0.5914  0.3459 -0.8778
  592MOL0     O79809   9.436  11.654   0.127 -0.5866 -0.6772  0.3315
  592MOL0     C79810   9.508  11.550   0.181 -0.1883 -0.5000  0.0907
  592MOL0     C79811   9.479  11.417   0.171  0.2191  0.4949 -0.2408
  592MOL0     C79812   9.562  11.320   0.234  0.0808 -0.2741 -0.2592
  592MOL0     C79813   9.666  11.355   0.322  0.1835  0.1248 -0.0922
  592MOL0     C79814   9.745  11.247   0.387  0.8812  0.5613 -0.1574
  592MOL0     O79815   9.700  11.118   0.362 -0.3709  0.5141 -0.4353
  592MOL0     C79816   9.765  11.019   0.433 -0.9130 -0.6829  0.0964
  592MOL0     C79817   9.700  10.963   0.544 -0.1933  0.1547 -0.2326
  592MOL0     C79818   9.767  10.867   0.619  0.1023 -0.3983 -0.0849
  592MOL0     C79819   9.901  10.838   0.601  0.3482  0.3536 -0.4960
  592MOL0     O79820   9.980  10.741   0.664 -0.4902 -0.2567  0.1738
  592MOL0     C79821   9.930  10.701   0.792  1.0048 -0.2019 -0.4365
  592MOL0     C79822  10.020  10.603   0.861 -0.2632  0.1467  0.2450
  592MOL0     C79823   9.959  10.540   0.993 -0.1444 -0.2405 -0.1251
  592MOL0     C79824   9.938  10.642   1.101  0.3825  0.9239 -0.0612
  592MOL0     C79825   9.871  10.562   1.217 -0.0462 -0.6282 -0.4845
  592MOL0     C79826   9.963  10.461   1.282 -0.4813  0.3627 -0.3562
  592MOL0     C79827   9.908  10.429   1.418 -0.1585  0.6615 -0.7301
  592MOL0     C79828   9.997  10.329   1.491  0.5662 -0.5614  0.0694
  592MOL0    Cl79829  10.160  10.395   1.511 -0.3230 -0.0138  0.0741
  592MOL0     C79830   9.963  10.892   0.489  0.0925 -0.2866  0.9535
  592MOL0     C79831   9.891  10.975   0.401 -0.5820 -0.1208  0.3380
  592MOL0     O79832   9.831  11.284   0.464 -0.1118 -0.0316  0.5959
  592MOL0     C79833   9.695  11.493   0.329 -0.5243 -0.2792  0.9615
  592MOL0     C79834   9.613  11.589   0.261 -0.5964 -0.0669 -0.1488
  592MOL0     N79835   9.216  11.963  -0.288 -0.1523 -0.9336 -0.1287
  592MOL0     N79836   9.210  12.016  -0.409 -0.2169  0.3725 -0.0038
  592MOL0     C79837   8.786  11.497  -0.095 -0.6827 -1.1114 -0.0040
  592MOL0     C79838   8.823  11.412   0.016  0.1043 -0.2185  0.3714
  592MOL0     C79839   8.998  11.264   0.385 -0.1055  0.5044  0.0937
  592MOL0     C79840   8.882  11.205   0.440  0.3997  0.4211 -1.4173
  592MOL0     C79841   8.885  11.108   0.547  0.4462 -0.4997 -0.1309
  592MOL0     C79842   9.009  11.062   0.586 -0.3531 -0.3194  0.1923
  592MOL0     O79843   9.009  10.973   0.686 -0.3001  0.1150 -0.2734
  592MOL0     C79844   9.135  10.916   0.712 -0.0336 -0.6375  0.2225
  592MOL0     C79845   9.106  10.811   0.819  0.6311  0.6990  0.2938
  592MOL0     C79846   9.220  10.710   0.813 -0.2279 -0.2715 -0.7497
  592MOL0     C79847   9.353  10.778   0.853 -0.3288 -0.2986  0.2596
  592MOL0     C79848   9.447  10.693   0.909 -0.7568  0.0658  0.1441
  592MOL0     C79849   9.523  10.620   0.966 -0.3110 -0.4367  0.1429
  592MOL0     C79850   9.122  11.121   0.527 -0.1512 -0.3430 -0.1621
  592MOL0     C79851   9.120  11.217   0.423 -0.4584 -0.3029 -0.3106
  592MOL0     C79852   9.250  11.259   0.363  0.7187  0.9014 -0.0079
  592MOL0     H79853   8.777  11.639   0.266  0.2962  2.5489 -1.7293
  592MOL0     H79854   8.688  11.772   0.093 -1.0500 -0.3712 -2.7039
  592MOL0     H79855   8.568  11.815  -0.076  2.2251 -2.3944  1.5144
  592MOL0     H79856   8.731  11.892  -0.094  2.2160 -1.3944 -2.1948
  592MOL0     H79857   8.555  12.011  -0.210  0.4629  0.0579  0.2993
  592MOL0     H79858   8.527  11.859  -0.313 -0.8501  1.9376 -0.4695
  592MOL0     H79859   8.780  11.871  -0.392  1.8166  1.4081  0.1773
  592MOL0     H79860   8.777  12.032  -0.325  0.2071  0.3446  0.9890
  592MOL0     H79861   8.668  11.912  -0.566  4.1495  0.1610  0.7569
  592MOL0     H79862   8.555  12.024  -0.489 -0.9628 -0.5094 -3.0716
  592MOL0     H79863   8.705  12.142  -0.657 -1.1079 -1.0241  0.3855
  592MOL0     H79864   8.731  12.210  -0.495  0.3027 -0.1664  0.2295
  592MOL0     H79865   8.935  12.175  -0.619  1.0054 -1.8225 -2.0607
  592MOL0     H79866   8.929  12.088  -0.460 -0.3231 -0.7391  1.0406
  592MOL0     H79867   8.914  11.994  -0.745 -1.2548  2.4608  0.2729
  592MOL0     H79868   8.871  11.891  -0.610 -1.8827  1.6323 -2.2408
  592MOL0     H79869   9.115  11.876  -0.694  0.9650 -0.6603  1.3817
  592MOL0     H79870   9.128  12.056  -0.658  0.5813  0.6952  0.5092
  592MOL0     H79871   9.010  11.742  -0.428 -1.3016 -1.4637  2.9818
  592MOL0     H79872   9.105  11.809  -0.081 -2.5661  0.7524 -1.6355
  592MOL0     H79873   9.048  11.673  -0.176  2.5284 -4.6545  1.5310
  592MOL0     H79874   9.282  11.599  -0.228 -0.7349 -0.9600 -0.2194
  592MOL0     H79875   9.349  11.731  -0.127 -0.0667 -0.0106  0.9083
  592MOL0     H79876   9.312  11.484  -0.046 -0.9076 -0.1534 -1.7839
  592MOL0     H79877   9.147  11.557  -0.024  0.4079  3.9786 -0.8335
  592MOL0     H79878   9.248  11.557   0.181  1.6903  0.3124 -0.1120
  592MOL0     H79879   9.254  11.731   0.123  2.4704  1.1841 -1.1402
  592MOL0     H79880   9.396  11.389   0.107  0.5689 -1.4443  0.1016
  592MOL0     H79881   9.528  11.218   0.218 -0.0959 -0.1842 -0.4711
  592MOL0     H79882   9.596  10.993   0.556  0.1172  0.4063  2.3956
  592MOL0     H79883   9.705  10.825   0.697 -0.8394 -1.1211 -1.1732
  592MOL0     H79884   9.910  10.782   0.862  0.1632 -0.3470 -0.4970
  592MOL0     H79885   9.832  10.658   0.768 -1.2922  4.9243 -1.6598
  592MOL0     H79886  10.030  10.514   0.798 -2.7051 -1.0550  1.3988
  592MOL0     H79887  10.118  10.644   0.888 -0.6495  0.5188  1.1255
  592MOL0     H79888   9.866  10.484   0.978  0.0054 -0.2056 -1.2695
  592MOL0     H79889  10.023  10.461   1.032 -1.6726 -0.8753  1.2044
  592MOL0     H79890   9.871  10.718   1.058  0.8117  0.7032 -1.1440
  592MOL0     H79891  10.030  10.688   1.138  2.3767 -1.5195 -1.6619
  592MOL0     H79892   9.776  10.520   1.183 -1.7692  1.2170  1.7679
  592MOL0     H79893   9.843  10.640   1.288 -1.2524  0.9114 -2.5595
  592MOL0     H79894   9.971  10.369   1.223  2.1841  1.2590 -1.4854
  592MOL0     H79895  10.062  10.502   1.300 -0.5880  0.5066 -0.0864
  592MOL0     H79896   9.812  10.377   1.409  1.1803 -1.7143 -2.3696
  592MOL0     H79897   9.888  10.524   1.467  2.3351  2.7796 -3.4869
  592MOL0     H79898   9.964  10.310   1.594 -2.8222  1.1232 -0.5626
  592MOL0     H79899  10.001  10.233   1.437  0.1463 -1.1866  1.1164
  592MOL0     H79900  10.057  10.849   0.457  0.9940 -0.3133  3.4019
  592MOL0     H79901   9.939  11.023   0.316  2.5929  0.6892  2.4060
  592MOL0     H79902   9.775  11.521   0.396  1.1252 -1.4129 -0.4485
  592MOL0     H79903   9.628  11.695   0.276  0.3931  0.0803 -1.9205
  592MOL0     H79904   8.796  11.468  -0.200 -1.6216  3.4652 -1.6021
  592MOL0     H79905   8.864  11.314  -0.004  0.5984  0.0767 -0.0928
  592MOL0     H79906   8.781  11.214   0.400 -0.3162  1.8943  0.5104
  592MOL0     H79907   8.796  11.068   0.593 -2.1223  1.4329 -3.0393
  592MOL0     H79908   9.199  10.994   0.753 -0.6278  2.2464 -3.7763
  592MOL0     H79909   9.179  10.865   0.626 -1.1237 -4.8159  1.8639
  592MOL0     H79910   9.017  10.754   0.789  1.3486 -0.1211 -0.3406
  592MOL0     H79911   9.084  10.853   0.917  2.7545  3.0944 -0.1419
  592MOL0     H79912   9.220  10.667   0.713 -0.1696  2.4332 -1.9854
  592MOL0     H79913   9.199  10.629   0.884  2.0706 -1.6751 -1.5353
  592MOL0     H79914   9.391  10.816   0.758  0.2207  0.3112  0.7135
  592MOL0     H79915   9.340  10.865   0.918  2.2691 -0.1755  0.7437
  592MOL0     H79916   9.571  10.547   1.029 -0.7350 -0.2418  0.6960
  592MOL0     H79917   9.224  11.108   0.561 -0.1024 -0.3620 -0.3141
  592MOL0     H79918   9.274  11.365   0.380  2.7312  1.1531 -3.3561
  592MOL0     H79919   9.338  11.199   0.387  2.4490  2.3857 -2.1031
  592MOL0     H79920   9.240  11.252   0.254  1.8267 -0.9599 -0.0306
  593MOL0     O79921   8.123  10.872   7.603 -0.6010  0.7880  0.6119
  593MOL0     C79922   8.008  10.835   7.603  0.7186  0.1780  0.0180
  593MOL0     O79923   7.964  10.705   7.629 -0.4431 -0.0061 -0.7368
  593MOL0     C79924   8.036  10.633   7.719  0.1802 -0.2230  0.0447
  593MOL0     C79925   8.049  10.489   7.706 -0.5539 -0.4726  0.5305
  593MOL0     C79926   8.135  10.411   7.783  0.1093 -1.1872  0.2669
  593MOL0     C79927   8.195  10.476   7.886 -0.4933  0.0277 -0.0566
  593MOL0     O79928   8.267  10.391   7.967 -0.0767  0.2696 -0.2444
  593MOL0     C79929   8.342  10.446   8.070 -0.1220 -0.2385 -0.2212
  593MOL0     C79930   8.408  10.320   8.125  0.4070 -0.1896  0.6226
  593MOL0     C79931   8.516  10.353   8.225 -0.4704 -0.5474 -0.1382
  593MOL0     C79932   8.556  10.232   8.306  1.5151 -0.4292  0.3315
  593MOL0     C79933   8.647  10.287   8.424  0.4878  0.0041  0.2734
  593MOL0     C79934   8.785  10.335   8.369 -0.7207  0.4044 -0.1149
  593MOL0     C79935   8.895  10.342   8.486 -0.1487 -0.0190  0.1806
  593MOL0     C79936   8.858  10.436   8.604 -0.1954  0.1069  0.6398
  593MOL0     N79937   8.964  10.415   8.705 -0.0812 -0.4888  0.3480
  593MOL0     C79938   8.979  10.325   8.800 -0.3689  0.1165  0.0505
  593MOL0     C79939   9.068  10.369   8.888  0.2851 -0.5276 -1.0671
  593MOL0     C79940   9.087  10.285   9.015 -0.1569 -0.4677 -0.8578
  593MOL0     C79941   9.219  10.205   9.001  0.2769 -0.1804 -0.6036
  593MOL0     C79942   9.338  10.280   9.055  0.1811 -0.9744  0.9707
  593MOL0     C79943   9.326  10.320   9.198  0.4136  0.6075  0.2152
  593MOL0     O79944   9.460  10.360   9.252  0.5666  0.2026  0.1069
  593MOL0     C79945   9.500  10.485   9.232  0.3307  0.0092  0.3895
  593MOL0     C79946   9.432  10.579   9.146 -0.3569 -0.1522 -0.3420
  593MOL0     C79947   9.483  10.710   9.139 -0.5152 -0.1112 -0.8560
  593MOL0     C79948   9.598  10.753   9.202 -0.2202  0.4511 -0.6429
  593MOL0     C79949   9.648  10.890   9.201 -0.2400  0.5349  0.8001
  593MOL0     O79950   9.775  10.909   9.258  0.2331  0.2348 -0.4105
  593MOL0     C79951   9.805  11.044   9.280  0.2574 -0.0001  0.5136
  593MOL0     C79952   9.870  11.107   9.176  0.4275 -0.2467  0.1278
  593MOL0     C79953   9.922  11.235   9.186  0.3885 -1.5240 -1.6230
  593MOL0     C79954   9.927  11.298   9.315  0.1512  0.0752 -0.4024
  593MOL0     O79955   9.994  11.422   9.315 -0.2526  1.0567  0.6674
  593MOL0     C79956  10.014  11.468   9.447  0.1991  0.5010 -0.9624
  593MOL0     C79957  10.087  11.601   9.422  0.9155  1.1226  0.5575
  593MOL0     C79958  10.219  11.586   9.367 -0.3594  0.6094 -0.6887
  593MOL0     C79959  10.297  11.714   9.363 -1.3178 -1.0906  1.1539
  593MOL0     C79960  10.434  11.702   9.292  0.5449  0.2388 -0.8294
  593MOL0     C79961  10.554  11.766   9.364  0.2497  0.3660 -0.5744
  593MOL0     C79962  10.541  11.914   9.385 -0.3448 -0.8651 -0.0503
  593MOL0     C79963  10.674  11.972   9.424 -0.1844 -0.4221 -1.4126
  593MOL0    Cl79964  10.651  12.150   9.443 -0.3747 -0.1717 -0.0982
  593MOL0     C79965   9.864  11.229   9.423  0.2401 -0.5009 -0.0234
  593MOL0     C79966   9.792  11.110   9.403 -0.0506  1.0058 -0.3732
  593MOL0     O79967   9.593  10.971   9.127  0.3529  0.6005 -0.5335
  593MOL0     C79968   9.674  10.649   9.269 -0.2898 -0.4123 -0.4284
  593MOL0     C79969   9.622  10.524   9.291 -0.2192  0.0040 -0.4564
  593MOL0     N79970   9.108  10.497   8.856  0.4834  0.6258 -0.2768
  593MOL0     N79971   9.045  10.524   8.747 -0.3483  1.3251  0.1452
  593MOL0     C79972   8.173  10.607   7.920 -0.1993 -0.1800 -0.5744
  593MOL0     C79973   8.102  10.688   7.838  0.0073 -0.6422 -0.9679
  593MOL0     C79974   7.907  10.937   7.581  0.8399 -0.6654  0.2259
  593MOL0     C79975   7.784  10.926   7.642  0.1440 -0.3752  0.1377
  593MOL0     C79976   7.688  11.027   7.638  0.0912  0.3853  0.2463
  593MOL0     C79977   7.701  11.146   7.566 -1.0735  0.8915 -0.2038
  593MOL0     O79978   7.608  11.240   7.559  0.0594  0.1233  0.0289
  593MOL0     C79979   7.661  11.374   7.565 -1.2082  0.2416  1.3007
  593MOL0     C79980   7.550  11.472   7.589  0.0365 -0.5573 -0.4135
  593MOL0     C79981   7.596  11.614   7.616  0.2670  0.5784  0.8133
  593MOL0     C79982   7.637  11.651   7.762  0.4144 -0.0796  0.2339
  593MOL0     C79983   7.699  11.781   7.761  0.7801  0.9773 -1.0357
  593MOL0     C79984   7.729  11.895   7.778  0.7797  0.7675  0.2405
  593MOL0     C79985   7.821  11.146   7.489  0.4202 -0.0578 -0.0696
  593MOL0     C79986   7.924  11.048   7.490 -0.2678  0.8848 -0.0025
  593MOL0     C79987   8.048  11.064   7.401 -0.1851 -0.3778 -0.0494
  593MOL0     H79988   7.998  10.454   7.617 -0.6090  1.3091 -0.1808
  593MOL0     H79989   8.173  10.312   7.760 -1.6865 -2.2776  1.7435
  593MOL0     H79990   8.423  10.509   8.034  1.7331 -2.0823  0.5410
  593MOL0     H79991   8.291  10.510   8.143 -1.7330 -0.0776 -1.4329
  593MOL0     H79992   8.450  10.262   8.043  0.4997  1.3575 -0.4609
  593MOL0     H79993   8.332  10.261   8.177 -0.1731  1.4253  1.7065
  593MOL0     H79994   8.482  10.440   8.282 -0.1288 -2.5682  3.4274
  593MOL0     H79995   8.610  10.373   8.172 -0.2733 -4.1805 -1.4662
  593MOL0     H79996   8.471  10.180   8.350  1.0615  0.4054  0.4627
  593MOL0     H79997   8.599  10.151   8.247  0.4909 -0.9651  0.2957
  593MOL0     H79998   8.585  10.361   8.476  1.7777  0.8040  0.7080
  593MOL0     H79999   8.665  10.205   8.495  2.5073 -0.4948 -0.7576
  593MOL0     H80000   8.821  10.272   8.287 -0.7184  2.1278 -1.4890
  593MOL0     H80001   8.770  10.436   8.329  0.4594  0.4708 -0.4282
  593MOL0     H80002   8.996  10.358   8.448  0.0617 -2.3948 -0.4668
  593MOL0     H80003   8.910  10.244   8.533  3.6701  0.9488  1.2868
  593MOL0     H80004   8.841  10.539   8.572 -1.7232 -0.5486 -0.8279
  593MOL0     H80005   8.758  10.407   8.638  0.6042 -4.2390 -0.0868
  593MOL0     H80006   8.926  10.231   8.804 -0.3730  0.1391  0.8348
  593MOL0     H80007   9.087  10.341   9.108  1.3510 -1.8219  0.0088
  593MOL0     H80008   9.014  10.203   9.021  1.5083 -1.9383  0.6225
  593MOL0     H80009   9.207  10.110   9.054 -1.0801  0.6367  0.6240
  593MOL0     H80010   9.231  10.171   8.898 -1.1970 -2.2401 -0.1637
  593MOL0     H80011   9.365  10.366   8.994  0.1001 -0.8937  1.0482
  593MOL0     H80012   9.428  10.218   9.054  0.9706  0.1539  0.3061
  593MOL0     H80013   9.274  10.242   9.254  0.3918  1.0487  0.8172
  593MOL0     H80014   9.261  10.406   9.214 -0.8273  0.2008 -2.2774
  593MOL0     H80015   9.341  10.551   9.093  0.5636  0.1735 -2.1749
  593MOL0     H80016   9.429  10.784   9.081 -2.1636 -2.2045 -2.1282
  593MOL0     H80017   9.878  11.055   9.081  0.4546  0.1671 -0.0944
  593MOL0     H80018   9.968  11.282   9.100  0.7762  2.3774  0.4898
  593MOL0     H80019   9.917  11.477   9.496  0.4993  1.0860 -0.4630
  593MOL0     H80020  10.081  11.405   9.507  1.6836  3.6406  0.9529
  593MOL0     H80021  10.022  11.661   9.358 -1.1324 -1.1557  0.3823
  593MOL0     H80022  10.089  11.656   9.517  0.9125  4.4367 -1.2026
  593MOL0     H80023  10.271  11.513   9.429 -1.8672 -0.0198 -0.0939
  593MOL0     H80024  10.215  11.542   9.267  2.4670 -0.1130 -0.5510
  593MOL0     H80025  10.299  11.749   9.467 -0.5477 -0.8007  1.0462
  593MOL0     H80026  10.232  11.778   9.302 -1.8340 -2.4701  0.2046
  593MOL0     H80027  10.422  11.738   9.190 -2.4584  1.3395 -0.2002
  593MOL0     H80028  10.460  11.596   9.285  1.4266  0.3590  0.2557
  593MOL0     H80029  10.568  11.717   9.461 -0.9036  0.9422 -0.1035
  593MOL0     H80030  10.647  11.756   9.307  0.2661 -2.0485 -0.2058
  593MOL0     H80031  10.459  11.936   9.454  0.0745 -1.0263  0.5061
  593MOL0     H80032  10.506  11.971   9.299  0.7684  0.7133  0.5110
  593MOL0     H80033  10.710  11.910   9.507 -0.8939 -3.5732 -3.2986
  593MOL0     H80034  10.743  11.968   9.340 -1.6970  0.5597 -2.7563
  593MOL0     H80035   9.868  11.271   9.523 -0.3731 -1.0618  0.2389
  593MOL0     H80036   9.733  11.059   9.479 -0.3897 -1.9283 -2.4075
  593MOL0     H80037   9.764  10.685   9.318 -0.1083  0.5783 -1.4635
  593MOL0     H80038   9.684  10.450   9.342  2.1014 -0.4387 -3.5837
  593MOL0     H80039   8.217  10.644   8.012  0.8514 -1.7611 -0.4119
  593MOL0     H80040   8.092  10.795   7.851  3.0770 -0.5686  2.4330
  593MOL0     H80041   7.771  10.842   7.709  1.8765  0.4631  1.6108
  593MOL0     H80042   7.590  11.006   7.680 -0.9444 -2.0792 -3.0008
  593MOL0     H80043   7.703  11.400   7.468 -1.5701 -1.7818  0.5607
  593MOL0     H80044   7.728  11.394   7.649 -0.2127  1.3844  0.2745
  593MOL0     H80045   7.486  11.437   7.671 -0.5772  2.4009  0.5022
  593MOL0     H80046   7.497  11.462   7.494  0.8274  0.7212 -1.0242
  593MOL0     H80047   7.521  11.689   7.585 -2.0431 -1.1565  1.9115
  593MOL0     H80048   7.675  11.634   7.543 -0.5153  2.1203  0.3194
  593MOL0     H80049   7.543  11.655   7.817 -0.3936 -2.2927 -0.8364
  593MOL0     H80050   7.714  11.590   7.810  0.5325 -3.7658 -3.9478
  593MOL0     H80051   7.763  11.994   7.797  2.6212 -0.1622  2.2805
  593MOL0     H80052   7.812  11.217   7.407 -3.5959 -0.8711 -0.5339
  593MOL0     H80053   8.029  11.154   7.342  0.5861  0.8619  1.5179
  593MOL0     H80054   8.134  11.078   7.467 -0.6130  0.6174  0.3147
  593MOL0     H80055   8.059  10.978   7.334 -1.7721 -0.1789 -0.6272
  594MOL0     O80056  11.203   5.310   5.480  0.3608 -0.2100 -0.2860
  594MOL0     C80057  11.148   5.199   5.485 -0.1586  0.4475  1.0846
  594MOL0     O80058  11.028   5.179   5.537 -0.7462 -0.3335 -0.2748
  594MOL0     C80059  10.941   5.281   5.582 -1.0798 -0.1671 -0.0577
  594MOL0     C80060  10.824   5.309   5.511  0.3123 -0.2970 -0.5557
  594MOL0     C80061  10.728   5.398   5.567 -0.2413 -0.3422  0.8210
  594MOL0     C80062  10.755   5.469   5.683 -0.3728  0.3650 -0.8528
  594MOL0     O80063  10.672   5.568   5.735 -0.0970  0.2155 -0.2942
  594MOL0     C80064  10.740   5.687   5.771  0.0238  0.0151  0.3576
  594MOL0     C80065  10.646   5.795   5.810 -0.1779  0.0485  0.0170
  594MOL0     C80066  10.713   5.929   5.829 -0.0319 -0.4134  0.8178
  594MOL0     C80067  10.616   6.037   5.884  0.1110 -0.4456  0.5057
  594MOL0     C80068  10.693   6.163   5.937  0.3319 -0.2314  0.8946
  594MOL0     C80069  10.590   6.276   5.954 -0.4961 -0.3254 -0.3629
  594MOL0     C80070  10.656   6.414   5.945 -0.1410 -0.8574 -0.2091
  594MOL0     C80071  10.761   6.448   6.050  0.3921  0.1859 -0.7241
  594MOL0     N80072  10.716   6.420   6.189  0.0423 -0.1472 -0.2504
  594MOL0     C80073  10.798   6.346   6.272  0.7307 -1.1305 -0.7129
  594MOL0     C80074  10.751   6.384   6.399  0.4707 -0.5732  0.6869
  594MOL0     C80075  10.814   6.348   6.530 -0.7835 -0.2944  0.7289
  594MOL0     C80076  10.870   6.475   6.599  0.2643 -0.8041  0.3262
  594MOL0     C80077  10.914   6.439   6.745 -0.5157 -0.0891  0.2707
  594MOL0     C80078  11.035   6.353   6.755  0.2420  0.4827 -0.1096
  594MOL0     O80079  11.147   6.420   6.708 -0.2962  0.5317  0.7074
  594MOL0     C80080  11.270   6.372   6.735 -0.1530  0.8489 -0.8260
  594MOL0     C80081  11.309   6.256   6.809 -0.0857 -0.4588  0.6210
  594MOL0     C80082  11.446   6.226   6.831 -0.3114 -0.1262 -0.6015
  594MOL0     C80083  11.551   6.313   6.792 -0.2994 -0.2912 -0.1339
  594MOL0     C80084  11.691   6.292   6.835 -0.9357  0.7600  0.3201
  594MOL0     O80085  11.725   6.176   6.906 -0.6953  0.4110  0.6677
  594MOL0     C80086  11.860   6.157   6.911 -0.2663 -0.4024 -1.5495
  594MOL0     C80087  11.941   6.223   7.015  0.1554 -0.4585  0.7515
  594MOL0     C80088  12.078   6.198   7.019  0.8641 -0.4696 -0.3877
  594MOL0     C80089  12.140   6.104   6.932  0.7287 -0.1680  0.0472
  594MOL0     O80090  12.271   6.080   6.951 -0.6516 -0.2419  0.0896
  594MOL0     C80091  12.310   5.948   6.908 -0.9573 -0.4910  0.0808
  594MOL0     C80092  12.436   5.909   6.986 -0.2812 -0.3070 -0.4183
  594MOL0     C80093  12.533   5.822   6.912  0.4900 -0.1063  0.1005
  594MOL0     C80094  12.622   5.750   7.010  0.3131 -0.4812 -1.2861
  594MOL0     C80095  12.718   5.643   6.952 -0.2066 -0.3091 -0.2206
  594MOL0     C80096  12.832   5.595   7.040 -0.0985  0.9382  0.2419
  594MOL0     C80097  12.907   5.484   6.977 -0.1226  1.0939  0.4383
  594MOL0     C80098  12.993   5.498   6.846  0.0361  0.3665 -0.8948
  594MOL0    Cl80099  13.103   5.642   6.846  0.0388 -0.0560 -0.0716
  594MOL0     C80100  12.061   6.045   6.829 -0.5277  0.2528 -0.5704
  594MOL0     C80101  11.927   6.074   6.820  0.4548  0.0005  0.3303
  594MOL0     O80102  11.765   6.388   6.818  0.0872 -0.3436 -0.0815
  594MOL0     C80103  11.502   6.430   6.719 -0.3675  0.6211  0.6444
  594MOL0     C80104  11.370   6.455   6.697  0.1060 -0.0983  0.0812
  594MOL0     N80105  10.623   6.437   6.381 -1.2337  0.1677 -0.7548
  594MOL0     N80106  10.606   6.465   6.257 -0.0853 -0.7501 -0.4844
  594MOL0     C80107  10.881   5.445   5.742 -0.7948  0.7229 -0.0017
  594MOL0     C80108  10.968   5.349   5.696  0.5420  0.1322 -1.1160
  594MOL0     C80109  11.222   5.082   5.418 -0.9294 -0.4101  0.5925
  594MOL0     C80110  11.141   4.966   5.392 -0.0232 -0.5094  0.3162
  594MOL0     C80111  11.188   4.861   5.321  0.2391  0.3939  0.0014
  594MOL0     C80112  11.320   4.870   5.264  0.2606  0.2645 -0.5573
  594MOL0     O80113  11.375   4.776   5.181 -1.0411  0.6258  0.1117
  594MOL0     C80114  11.323   4.641   5.215 -0.9220  0.7275  0.1671
  594MOL0     C80115  11.383   4.520   5.136 -0.8212  0.9486  0.6403
  594MOL0     C80116  11.534   4.513   5.165 -0.1540  0.4631 -0.2258
  594MOL0     C80117  11.589   4.388   5.092 -0.2390 -0.5500  0.1766
  594MOL0     C80118  11.551   4.270   5.164  0.0719  0.4773 -0.0599
  594MOL0     C80119  11.542   4.174   5.238  0.4717  0.5288 -0.2851
  594MOL0     C80120  11.402   4.980   5.291 -0.5801 -0.8810  0.0348
  594MOL0     C80121  11.361   5.080   5.379  0.3714 -0.4202 -0.5799
  594MOL0     C80122  11.465   5.187   5.413  0.5716  0.0103 -1.2177
  594MOL0     H80123  10.810   5.255   5.418 -3.0435 -2.5375  1.0431
  594MOL0     H80124  10.650   5.419   5.494 -0.2350 -3.3577 -0.1792
  594MOL0     H80125  10.799   5.674   5.862 -0.3668 -0.4718  0.5419
  594MOL0     H80126  10.800   5.724   5.687 -1.3744  2.3678  0.2937
  594MOL0     H80127  10.597   5.776   5.906  1.1727 -5.4312 -0.0641
  594MOL0     H80128  10.575   5.808   5.729  2.2473  0.3634 -2.1863
  594MOL0     H80129  10.745   5.969   5.732 -0.2118 -1.3392  0.3583
  594MOL0     H80130  10.802   5.938   5.892 -0.6511  2.5745  1.4074
  594MOL0     H80131  10.545   6.063   5.805  1.2259  2.0679  0.2582
  594MOL0     H80132  10.561   5.996   5.970  0.6352  1.2282  1.6817
  594MOL0     H80133  10.757   6.152   6.026  2.4112  2.8393 -0.0337
  594MOL0     H80134  10.764   6.197   5.861 -0.0733  1.3432  1.1842
  594MOL0     H80135  10.510   6.267   5.880  0.5342  0.2503 -1.5766
  594MOL0     H80136  10.545   6.266   6.053 -1.1357  1.4663 -0.4356
  594MOL0     H80137  10.580   6.493   5.948 -0.1550 -0.7983 -1.4406
  594MOL0     H80138  10.691   6.430   5.843 -0.5455 -0.7706 -0.3363
  594MOL0     H80139  10.860   6.406   6.034 -0.6467 -2.3919 -0.9642
  594MOL0     H80140  10.764   6.556   6.034 -0.8743  0.0393 -2.2408
  594MOL0     H80141  10.893   6.296   6.253  0.9236 -0.8154 -0.5766
  594MOL0     H80142  10.748   6.290   6.595  2.7470 -2.6882  2.5052
  594MOL0     H80143  10.904   6.288   6.514 -0.5180 -0.1195  1.5119
  594MOL0     H80144  10.958   6.518   6.549  0.0521  0.9209  1.3688
  594MOL0     H80145  10.787   6.546   6.598  0.4432 -0.4509  3.1494
  594MOL0     H80146  10.824   6.407   6.798  0.4012 -0.0079  1.9530
  594MOL0     H80147  10.933   6.538   6.787  1.6984  0.8822 -2.6835
  594MOL0     H80148  11.019   6.256   6.709  1.5923  0.8562 -1.4559
  594MOL0     H80149  11.048   6.347   6.863 -2.7212  2.9326  0.5157
  594MOL0     H80150  11.244   6.195   6.870  0.0564  1.1098  2.4348
  594MOL0     H80151  11.467   6.133   6.882  0.0845  0.6883  0.7900
  594MOL0     H80152  11.905   6.299   7.083  0.3079 -0.3952  0.7618
  594MOL0     H80153  12.139   6.230   7.103  1.5819 -3.2392  0.2358
  594MOL0     H80154  12.233   5.870   6.915 -1.2357 -0.5488 -2.4117
  594MOL0     H80155  12.343   5.948   6.803  3.0342 -0.0800  1.1884
  594MOL0     H80156  12.500   5.997   6.996 -1.6185  0.8038 -1.2690
  594MOL0     H80157  12.404   5.859   7.077  2.2301 -1.2087  0.0555
  594MOL0     H80158  12.483   5.753   6.844  0.6952  1.8285 -2.1624
  594MOL0     H80159  12.580   5.885   6.836 -0.1348 -0.1729 -0.3519
  594MOL0     H80160  12.567   5.702   7.091  0.1849 -1.7425 -2.0848
  594MOL0     H80161  12.690   5.818   7.063  0.9525 -1.0292 -1.3815
  594MOL0     H80162  12.763   5.662   6.854  0.8516 -3.4161 -0.4362
  594MOL0     H80163  12.653   5.556   6.939  2.7428 -2.5451 -0.8038
  594MOL0     H80164  12.900   5.680   7.058  0.8533  0.0653  0.8853
  594MOL0     H80165  12.791   5.561   7.135  1.0455  0.3039  0.5307
  594MOL0     H80166  12.836   5.402   6.961  0.6643  0.3705  0.5615
  594MOL0     H80167  12.988   5.454   7.044 -0.7477 -2.3956 -0.1958
  594MOL0     H80168  13.051   5.407   6.830  1.3372  1.3986 -2.2960
  594MOL0     H80169  12.934   5.497   6.754 -1.0751  1.3312 -0.2189
  594MOL0     H80170  12.116   5.988   6.756  0.4338  2.1767 -1.4310
  594MOL0     H80171  11.883   6.033   6.730  3.1259 -0.1784 -0.9686
  594MOL0     H80172  11.574   6.502   6.679  0.4029 -1.8226 -2.7614
  594MOL0     H80173  11.336   6.545   6.646 -1.5124 -0.2778  0.7861
  594MOL0     H80174  10.923   5.491   5.831  0.9169  0.8606 -0.8476
  594MOL0     H80175  11.050   5.326   5.763 -0.2912 -0.1876 -0.1753
  594MOL0     H80176  11.037   4.958   5.420 -0.2752  1.5996  0.1328
  594MOL0     H80177  11.134   4.767   5.315  0.1247  0.2519  2.3986
  594MOL0     H80178  11.218   4.631   5.185 -1.4264 -3.5144  2.5132
  594MOL0     H80179  11.323   4.622   5.323 -2.1738 -0.1649  0.0373
  594MOL0     H80180  11.358   4.545   5.032 -1.7461  0.5619  0.7630
  594MOL0     H80181  11.340   4.422   5.160  3.7683 -1.5956 -0.2712
  594MOL0     H80182  11.560   4.502   5.270  1.5468 -4.8401 -0.8958
  594MOL0     H80183  11.584   4.607   5.140  0.7236  0.3442  1.0326
  594MOL0     H80184  11.556   4.392   4.988  0.3104 -0.8043 -0.0073
  594MOL0     H80185  11.697   4.400   5.081 -0.3877 -0.8638 -2.1357
  594MOL0     H80186  11.529   4.089   5.301 -2.4961  0.8695 -0.3051
  594MOL0     H80187  11.493   4.994   5.235 -1.7900 -0.4206 -1.8819
  594MOL0     H80188  11.497   5.170   5.516 -0.7466  2.1205 -0.3958
  594MOL0     H80189  11.556   5.192   5.352  0.1767  1.1612 -1.7314
  594MOL0     H80190  11.426   5.289   5.406 -2.9507 -0.7277  3.1384
  595MOL0     O80191   4.747   8.006   2.191 -0.5080 -0.4008  0.4921
  595MOL0     C80192   4.789   7.952   2.092  0.2662  0.4802  0.6285
  595MOL0     O80193   4.891   8.000   2.007  0.0161  0.5559  0.0975
  595MOL0     C80194   4.953   8.126   2.011  0.3528  0.2963 -0.1296
  595MOL0     C80195   4.977   8.199   2.128  0.6353 -0.2774  0.3698
  595MOL0     C80196   5.039   8.322   2.119 -0.2541 -0.0842 -0.2866
  595MOL0     C80197   5.081   8.372   1.990 -0.2927 -0.8767 -0.4091
  595MOL0     O80198   5.136   8.498   1.984 -0.3588 -0.5353 -0.3421
  595MOL0     C80199   5.037   8.594   1.942  1.3054  0.0732  0.1735
  595MOL0     C80200   5.083   8.731   1.968 -1.2399 -1.3314  0.8086
  595MOL0     C80201   4.969   8.834   1.940 -0.3070  0.2917  0.8118
  595MOL0     C80202   4.858   8.828   2.049 -0.5741 -0.0265  0.3627
  595MOL0     C80203   4.738   8.912   2.000 -0.5314 -0.1115 -0.4244
  595MOL0     C80204   4.617   8.915   2.104 -0.8553 -0.3917 -0.4735
  595MOL0     C80205   4.494   8.987   2.055 -0.8925 -0.6675 -0.4973
  595MOL0     C80206   4.369   8.970   2.140  0.6254  0.2201 -0.0069
  595MOL0     N80207   4.252   9.022   2.075  0.3006  0.5499  0.1851
  595MOL0     C80208   4.161   9.108   2.136  0.5663  0.2393 -0.6645
  595MOL0     C80209   4.050   9.104   2.066 -0.3607 -0.9167  0.3260
  595MOL0     C80210   3.924   9.179   2.094  0.1212 -0.7853 -0.0434
  595MOL0     C80211   3.856   9.122   2.223  0.3688  0.4719 -0.9040
  595MOL0     C80212   3.739   9.227   2.262 -0.7132  0.2244  0.4756
  595MOL0     C80213   3.616   9.167   2.302  0.7805 -0.2653 -0.0779
  595MOL0     O80214   3.634   9.068   2.401  0.0370  0.4414  0.5350
  595MOL0     C80215   3.523   8.993   2.447 -1.7061 -0.4685  0.0399
  595MOL0     C80216   3.394   8.995   2.405  1.3517 -0.3008  0.6831
  595MOL0     C80217   3.290   8.941   2.488  0.0228 -0.3239  0.4779
  595MOL0     C80218   3.322   8.868   2.604  0.2512  0.4315 -0.1686
  595MOL0     C80219   3.225   8.785   2.674 -0.4354 -0.0698  0.4726
  595MOL0     O80220   3.115   8.762   2.600 -0.6957  0.2185  0.5667
  595MOL0     C80221   3.007   8.693   2.660 -0.4613 -0.5720 -0.4361
  595MOL0     C80222   3.018   8.555   2.681  0.5627 -0.3146  0.0031
  595MOL0     C80223   2.910   8.482   2.738 -0.0339 -0.4286  0.0785
  595MOL0     C80224   2.799   8.541   2.780 -0.0767  0.1292 -0.0131
  595MOL0     O80225   2.701   8.470   2.844 -1.1629 -0.2158 -0.4219
  595MOL0     C80226   2.656   8.518   2.974 -0.2787  0.2123 -0.5215
  595MOL0     C80227   2.772   8.499   3.072 -0.1345 -0.2071  0.1299
  595MOL0     C80228   2.730   8.545   3.215 -0.5054  0.1554 -0.1735
  595MOL0     C80229   2.769   8.692   3.234  0.2353 -0.2558 -0.0991
  595MOL0     C80230   2.736   8.725   3.380 -0.4877 -0.3021  0.7346
  595MOL0     C80231   2.847   8.830   3.423 -0.4708  0.1094  0.2502
  595MOL0     C80232   2.804   8.922   3.534  0.6795  0.2313  0.1871
  595MOL0     C80233   2.895   9.050   3.534 -0.9286  0.7013 -0.4760
  595MOL0    Cl80234   3.066   9.000   3.551  0.6110 -0.1271  0.7620
  595MOL0     C80235   2.782   8.686   2.759  0.5195  0.6735  0.8833
  595MOL0     C80236   2.883   8.757   2.684 -0.2041 -0.2447 -1.1399
  595MOL0     O80237   3.254   8.746   2.782  0.3489  0.9375 -0.0849
  595MOL0     C80238   3.458   8.860   2.638  0.2524  0.1540 -0.9363
  595MOL0     C80239   3.559   8.931   2.568  1.3228 -0.1687 -0.5251
  595MOL0     N80240   4.076   9.029   1.950 -1.4763 -0.7145  0.2768
  595MOL0     N80241   4.195   8.982   1.960  0.3578  0.3494  0.2824
  595MOL0     C80242   5.080   8.285   1.879 -0.1186 -1.5129  0.4260
  595MOL0     C80243   5.004   8.172   1.897 -0.3093  0.7137  0.8057
  595MOL0     C80244   4.728   7.822   2.051  0.5603  0.0489 -0.3995
  595MOL0     C80245   4.708   7.789   1.916 -0.3338  0.4786  0.7208
  595MOL0     C80246   4.658   7.666   1.875  0.5510 -0.1305 -0.0524
  595MOL0     C80247   4.624   7.575   1.968  1.8108 -0.0454 -1.1116
  595MOL0     O80248   4.571   7.455   1.927  0.4376  0.0278  0.2282
  595MOL0     C80249   4.500   7.374   2.023 -0.8141 -0.3095 -0.1633
  595MOL0     C80250   4.455   7.236   1.961 -0.1497 -0.6754  0.6581
  595MOL0     C80251   4.504   7.112   2.029  0.3298 -0.8834  0.8286
  595MOL0     C80252   4.473   6.990   1.943 -1.1159 -0.1120 -0.4472
  595MOL0     C80253   4.484   6.869   2.024  0.0853 -0.5633  0.0827
  595MOL0     C80254   4.506   6.766   2.086 -0.0974  0.9473  0.0826
  595MOL0     C80255   4.633   7.606   2.107  0.1152  0.0477  1.2857
  595MOL0     C80256   4.688   7.722   2.148 -0.1514  0.0599 -0.0801
  595MOL0     C80257   4.717   7.739   2.299 -0.0496 -0.2391  0.2331
  595MOL0     H80258   4.938   8.164   2.223  2.3207 -1.5487  0.6463
  595MOL0     H80259   5.054   8.385   2.206 -0.6814  1.6753 -1.4222
  595MOL0     H80260   5.038   8.595   1.832  0.0901  0.3487  0.1574
  595MOL0     H80261   4.937   8.566   1.977  2.4212 -3.1421  1.1630
  595MOL0     H80262   5.168   8.760   1.905 -0.7330 -1.7730  1.2775
  595MOL0     H80263   5.110   8.738   2.074  1.8460 -0.3341  0.0890
  595MOL0     H80264   4.926   8.818   1.840  0.1885  0.7939  0.5064
  595MOL0     H80265   5.009   8.935   1.945  0.7931 -0.0974  0.3494
  595MOL0     H80266   4.818   8.726   2.055  1.3125 -0.9632 -1.3210
  595MOL0     H80267   4.890   8.864   2.147  0.1791 -0.3590  0.2501
  595MOL0     H80268   4.768   9.017   1.990 -3.3865  1.2012  2.7861
  595MOL0     H80269   4.702   8.871   1.905  0.4219 -0.7703 -0.5231
  595MOL0     H80270   4.588   8.812   2.126 -3.4150  0.2364 -0.6016
  595MOL0     H80271   4.642   8.963   2.199 -2.2900  1.8542 -1.1667
  595MOL0     H80272   4.465   8.968   1.951  1.2574  3.3831 -2.0851
  595MOL0     H80273   4.521   9.093   2.057 -2.1986 -0.3317  0.0897
  595MOL0     H80274   4.363   8.861   2.151  0.4461  0.3544  1.5059
  595MOL0     H80275   4.395   9.019   2.235  0.2129  3.3410 -1.4075
  595MOL0     H80276   4.177   9.149   2.236 -0.4573 -3.1517  1.0457
  595MOL0     H80277   3.941   9.287   2.099  1.9337 -1.0898  1.4694
  595MOL0     H80278   3.854   9.160   2.011 -0.9032  0.0556  0.6112
  595MOL0     H80279   3.801   9.029   2.204 -1.4823  1.1773  0.6378
  595MOL0     H80280   3.922   9.096   2.306 -2.0519 -2.6275  0.2267
  595MOL0     H80281   3.721   9.300   2.182 -0.3296  0.1499  0.3211
  595MOL0     H80282   3.775   9.278   2.352 -0.8161  2.0099 -0.4451
  595MOL0     H80283   3.569   9.131   2.210  1.1529 -0.7712 -0.0747
  595MOL0     H80284   3.543   9.239   2.339 -1.5986 -2.2331 -0.6867
  595MOL0     H80285   3.366   9.029   2.306  0.1246  0.9750  1.4433
  595MOL0     H80286   3.184   8.947   2.466  0.2951  0.6779 -0.6724
  595MOL0     H80287   3.108   8.498   2.667  0.6447 -0.9484  2.6914
  595MOL0     H80288   2.910   8.375   2.759  1.2912 -0.3098  0.7535
  595MOL0     H80289   2.650   8.626   2.966  1.1209  0.7790  3.5937
  595MOL0     H80290   2.563   8.473   3.011  1.3617 -1.5003  1.7982
  595MOL0     H80291   2.790   8.391   3.072  0.4204 -0.1437 -1.3292
  595MOL0     H80292   2.853   8.561   3.034  0.6227 -2.1442 -1.6371
  595MOL0     H80293   2.624   8.528   3.240  0.1270 -0.3137  2.5743
  595MOL0     H80294   2.792   8.501   3.294 -0.0278 -1.2338 -1.2875
  595MOL0     H80295   2.715   8.766   3.174 -0.0621 -0.1667  0.2715
  595MOL0     H80296   2.877   8.708   3.233  0.4480 -0.2367  4.2983
  595MOL0     H80297   2.739   8.641   3.450  0.8672 -0.4014  0.5894
  595MOL0     H80298   2.642   8.781   3.369  0.5932  1.2873 -1.2216
  595MOL0     H80299   2.921   8.766   3.471 -0.9072 -0.5499  0.0498
  595MOL0     H80300   2.887   8.894   3.344  1.3742  1.0507  1.8553
  595MOL0     H80301   2.798   8.857   3.622  0.6374 -0.0550 -0.0265
  595MOL0     H80302   2.703   8.959   3.512  1.4368  3.8714  1.9145
  595MOL0     H80303   2.877   9.102   3.440 -2.3143  1.1915  0.0409
  595MOL0     H80304   2.862   9.115   3.616  0.2447 -1.7340  2.0812
  595MOL0     H80305   2.690   8.736   2.789  0.0114  2.2902 -2.8578
  595MOL0     H80306   2.878   8.862   2.656  1.1008  0.0508 -0.3258
  595MOL0     H80307   3.490   8.796   2.720 -4.2693 -3.8400 -1.8805
  595MOL0     H80308   3.654   8.950   2.618 -0.6283  2.6712  2.5012
  595MOL0     H80309   5.108   8.317   1.779 -2.7794 -1.1127 -0.2648
  595MOL0     H80310   4.994   8.124   1.800 -1.1948  1.6980  0.3843
  595MOL0     H80311   4.727   7.867   1.843 -0.8355  2.3807  2.5444
  595MOL0     H80312   4.651   7.649   1.768 -0.2782 -1.0764  0.1401
  595MOL0     H80313   4.416   7.418   2.076  0.0746  0.4522  0.6483
  595MOL0     H80314   4.568   7.344   2.104  0.7816  0.4886 -1.1362
  595MOL0     H80315   4.496   7.237   1.859 -2.5153  0.6971 -0.3707
  595MOL0     H80316   4.346   7.228   1.954 -0.1559  0.6858 -2.2075
  595MOL0     H80317   4.452   7.104   2.125  1.0326  2.5670  1.6381
  595MOL0     H80318   4.612   7.116   2.043  0.7680 -0.7653 -2.0393
  595MOL0     H80319   4.374   6.999   1.897 -0.6799  1.4972 -1.1623
  595MOL0     H80320   4.544   6.986   1.861 -2.2530 -0.7316 -1.4291
  595MOL0     H80321   4.521   6.679   2.146 -1.0028  1.8153  1.6213
  595MOL0     H80322   4.597   7.539   2.184 -0.7523  0.8405  1.5871
  595MOL0     H80323   4.823   7.762   2.311 -0.1302  0.7076 -0.7904
  595MOL0     H80324   4.657   7.815   2.350 -2.8843  0.9306 -4.2692
  595MOL0     H80325   4.701   7.644   2.351  2.4366 -0.4760  0.6816
  596MOL0     O80326   4.929   2.161   3.936 -0.3670  0.4961  0.3895
  596MOL0     C80327   5.024   2.145   4.014  0.2561 -0.6686 -0.1715
  596MOL0     O80328   5.019   2.072   4.126 -0.1112  0.1433  0.0980
  596MOL0     C80329   4.904   2.004   4.146 -0.2100  0.8623 -0.0137
  596MOL0     C80330   4.875   1.876   4.097 -0.5172  0.6098  0.8397
  596MOL0     C80331   4.766   1.799   4.133 -0.3310  0.9724 -0.0868
  596MOL0     C80332   4.665   1.851   4.215 -0.2375 -0.0341 -0.2532
  596MOL0     O80333   4.553   1.779   4.237 -0.0179 -0.6792 -0.5327
  596MOL0     C80334   4.504   1.790   4.376 -0.3237 -0.0093  0.1151
  596MOL0     C80335   4.383   1.697   4.383  1.2436  0.5874  0.1193
  596MOL0     C80336   4.418   1.544   4.364  0.3550 -0.3703 -0.0464
  596MOL0     C80337   4.461   1.481   4.495 -0.2301 -0.0517  0.3119
  596MOL0     C80338   4.529   1.351   4.451  1.2779 -0.0028  0.5505
  596MOL0     C80339   4.511   1.231   4.543  0.4921 -0.8063 -0.2140
  596MOL0     C80340   4.526   1.094   4.475 -0.9368 -0.3650 -0.0179
  596MOL0     C80341   4.522   0.973   4.567 -0.1010 -0.6766 -0.7042
  596MOL0     N80342   4.392   0.960   4.629  0.1231 -0.3297 -0.4857
  596MOL0     C80343   4.294   0.894   4.568 -0.5284  0.2766  0.4062
  596MOL0     C80344   4.196   0.886   4.657 -0.6555  0.6291  0.1743
  596MOL0     C80345   4.052   0.836   4.640 -0.6465  0.5440 -0.0593
  596MOL0     C80346   3.993   0.758   4.758  0.6101 -0.0345  0.4912
  596MOL0     C80347   3.844   0.730   4.748 -0.7702 -0.5932 -0.1590
  596MOL0     C80348   3.795   0.711   4.891 -0.0332 -0.1973  0.6378
  596MOL0     O80349   3.660   0.702   4.900  0.3148 -0.3993 -0.3164
  596MOL0     C80350   3.601   0.676   5.018  1.1684  0.3901  0.0781
  596MOL0     C80351   3.667   0.675   5.139  0.2170  0.7442 -0.1270
  596MOL0     C80352   3.594   0.670   5.253  0.3074 -0.5739 -0.6217
  596MOL0     C80353   3.452   0.655   5.255 -0.4658  0.3861 -0.1582
  596MOL0     C80354   3.373   0.654   5.397  0.6622 -0.2571  0.2016
  596MOL0     O80355   3.449   0.652   5.508 -0.1802 -0.1971  0.3490
  596MOL0     C80356   3.399   0.655   5.635  0.2528 -0.6230 -0.0188
  596MOL0     C80357   3.489   0.704   5.731 -0.1686 -0.6683 -0.0740
  596MOL0     C80358   3.461   0.709   5.867  0.3373  1.1362  1.0773
  596MOL0     C80359   3.335   0.665   5.910 -0.2757  0.4675  0.4702
  596MOL0     O80360   3.288   0.667   6.040  0.4919  1.1372 -0.5668
  596MOL0     C80361   3.384   0.706   6.138  0.6067  0.1857  0.2549
  596MOL0     C80362   3.316   0.724   6.280  0.3766  0.2681  0.4661
  596MOL0     C80363   3.236   0.593   6.330  0.1866 -0.2704  0.5961
  596MOL0     C80364   3.193   0.576   6.476  0.8120 -0.6647  0.9128
  596MOL0     C80365   3.114   0.445   6.506 -0.1993 -0.6886  0.4073
  596MOL0     C80366   3.178   0.309   6.460  0.4109 -0.1020  0.5124
  596MOL0     C80367   3.322   0.289   6.512 -0.2975 -0.0980 -0.0732
  596MOL0     C80368   3.359   0.135   6.529 -0.0929  0.5188  0.2798
  596MOL0    Cl80369   3.534   0.114   6.563 -0.0188  0.2511  0.1202
  596MOL0     C80370   3.253   0.609   5.817  0.0098 -0.4477 -0.1398
  596MOL0     C80371   3.281   0.604   5.684  0.0665 -0.4479 -0.5942
  596MOL0     O80372   3.253   0.635   5.391 -0.8670  0.2429  0.1263
  596MOL0     C80373   3.387   0.647   5.135 -0.5657 -0.6124  0.4333
  596MOL0     C80374   3.456   0.662   5.016  0.8827 -0.9135  0.2802
  596MOL0     N80375   4.237   0.958   4.772  0.2158 -0.0220  0.8440
  596MOL0     N80376   4.358   0.991   4.758 -0.3607 -0.2596  0.1093
  596MOL0     C80377   4.694   1.980   4.266 -0.6771 -0.3262  0.5638
  596MOL0     C80378   4.810   2.055   4.238 -0.1188 -0.4328 -0.2977
  596MOL0     C80379   5.144   2.239   3.992  0.9350 -0.2966  0.7498
  596MOL0     C80380   5.192   2.257   3.866  0.4335 -0.3078  1.3485
  596MOL0     C80381   5.309   2.330   3.845 -1.1693 -0.9637 -0.8177
  596MOL0     C80382   5.372   2.395   3.946  0.2293  0.2696  0.0146
  596MOL0     O80383   5.473   2.495   3.943  0.1155  0.6005  0.1611
  596MOL0     C80384   5.533   2.545   3.824  0.2886 -0.3622  0.2129
  596MOL0     C80385   5.446   2.639   3.751  0.1429 -0.3866  1.0626
  596MOL0     C80386   5.400   2.761   3.832  0.3157 -0.7467 -0.3709
  596MOL0     C80387   5.511   2.869   3.833 -0.7391  0.8334 -0.9060
  596MOL0     C80388   5.631   2.845   3.911  0.1856  0.0661 -0.3454
  596MOL0     C80389   5.749   2.836   3.954  0.0205  0.4858  0.2231
  596MOL0     C80390   5.323   2.375   4.075 -0.7309 -0.4267 -0.8650
  596MOL0     C80391   5.208   2.304   4.104 -0.7115  0.3786 -0.9462
  596MOL0     C80392   5.166   2.297   4.256 -0.9825 -0.1282 -0.2541
  596MOL0     H80393   4.943   1.819   4.034 -1.2211 -1.6957  2.0537
  596MOL0     H80394   4.737   1.704   4.088  0.7268  1.6907 -2.4495
  596MOL0     H80395   4.583   1.770   4.448  2.5396  0.3883 -2.6952
  596MOL0     H80396   4.467   1.893   4.382 -0.8522 -0.1414 -0.6488
  596MOL0     H80397   4.307   1.724   4.310  1.1503 -5.1110 -2.4718
  596MOL0     H80398   4.337   1.717   4.480 -1.1809  1.3037 -1.1145
  596MOL0     H80399   4.501   1.543   4.293 -3.2083 -0.5557 -4.6878
  596MOL0     H80400   4.335   1.495   4.313 -0.7779  2.0430 -0.6163
  596MOL0     H80401   4.536   1.547   4.540 -0.5230  0.8887 -0.5548
  596MOL0     H80402   4.374   1.468   4.560 -1.5569  1.8659 -0.9973
  596MOL0     H80403   4.481   1.309   4.362 -1.1330 -2.2851  2.7609
  596MOL0     H80404   4.636   1.361   4.435  1.0948  1.2644 -0.0079
  596MOL0     H80405   4.574   1.242   4.632  0.5578 -0.7888 -0.2618
  596MOL0     H80406   4.407   1.237   4.577 -0.1427 -3.9170 -1.3306
  596MOL0     H80407   4.629   1.088   4.439  0.3405  2.5845  2.6125
  596MOL0     H80408   4.451   1.088   4.396 -0.2819  0.8736 -0.7542
  596MOL0     H80409   4.543   0.881   4.513  0.3596 -1.4161  0.6837
  596MOL0     H80410   4.605   0.990   4.636  0.8295 -1.7989 -1.5151
  596MOL0     H80411   4.301   0.849   4.470  0.3595 -0.6404  0.8743
  596MOL0     H80412   3.986   0.918   4.612  0.8812  1.2533 -1.7799
  596MOL0     H80413   4.057   0.760   4.561 -1.5718  0.2156  0.1810
  596MOL0     H80414   4.043   0.661   4.773  0.5354  0.3271  3.9188
  596MOL0     H80415   4.009   0.822   4.845  2.3687  2.9199 -1.8111
  596MOL0     H80416   3.828   0.639   4.691 -1.9942  0.2210 -1.1853
  596MOL0     H80417   3.788   0.811   4.700  4.6813  3.1114 -1.2669
  596MOL0     H80418   3.835   0.787   4.958 -1.9209  0.4847  1.0457
  596MOL0     H80419   3.841   0.622   4.934  1.7209 -0.1345 -0.9511
  596MOL0     H80420   3.774   0.673   5.153  0.2930 -3.4647 -0.0418
  596MOL0     H80421   3.647   0.673   5.347  0.7692 -1.3993 -0.8480
  596MOL0     H80422   3.576   0.749   5.685 -1.9470 -0.9425 -4.1792
  596MOL0     H80423   3.547   0.740   5.925  1.3033 -0.1789  0.4086
  596MOL0     H80424   3.468   0.636   6.148  1.9028  1.6061 -0.3729
  596MOL0     H80425   3.415   0.807   6.111  3.4237 -0.5808  0.3530
  596MOL0     H80426   3.396   0.745   6.350  1.8047 -0.9484 -0.7318
  596MOL0     H80427   3.252   0.813   6.282  1.5710  1.1503  0.1584
  596MOL0     H80428   3.143   0.585   6.272 -0.4990 -1.8544  1.8352
  596MOL0     H80429   3.296   0.506   6.302 -0.3660 -0.0948 -1.2947
  596MOL0     H80430   3.131   0.657   6.514 -1.5400 -1.5171 -0.8766
  596MOL0     H80431   3.281   0.570   6.541  1.6852  2.0049  0.0776
  596MOL0     H80432   3.012   0.452   6.468 -0.1266 -0.5861  0.2295
  596MOL0     H80433   3.110   0.446   6.615  3.7487 -3.2112  0.7654
  596MOL0     H80434   3.108   0.229   6.486 -1.5404  0.8067 -1.6128
  596MOL0     H80435   3.183   0.306   6.351  0.3547  1.4185  0.4471
  596MOL0     H80436   3.343   0.341   6.606 -1.3630  1.0464 -0.4498
  596MOL0     H80437   3.387   0.342   6.442  2.4625 -3.9778 -0.7918
  596MOL0     H80438   3.298   0.105   6.615  3.9722  0.7492  3.5760
  596MOL0     H80439   3.326   0.082   6.439  0.5089 -0.0738  0.4012
  596MOL0     H80440   3.161   0.573   5.862  0.7281 -0.4721  1.3554
  596MOL0     H80441   3.218   0.556   5.609  1.1489 -1.0854 -1.1117
  596MOL0     H80442   3.280   0.656   5.118 -0.1296  0.4168 -2.2133
  596MOL0     H80443   3.390   0.677   4.932 -0.4686 -2.9402  0.9170
  596MOL0     H80444   4.638   2.029   4.345  0.4076 -0.9514  1.7547
  596MOL0     H80445   4.829   2.149   4.289  0.0469 -0.1336 -0.9130
  596MOL0     H80446   5.157   2.221   3.770 -0.9399  0.3558  1.5675
  596MOL0     H80447   5.349   2.336   3.745  0.5232  0.2777 -0.1129
  596MOL0     H80448   5.555   2.465   3.753  0.8056  0.8384 -1.0141
  596MOL0     H80449   5.627   2.597   3.838  1.0250 -0.7506 -2.6028
  596MOL0     H80450   5.350   2.592   3.726 -1.3872  2.4269  1.1585
  596MOL0     H80451   5.503   2.675   3.665  2.0161  0.3735  2.5712
  596MOL0     H80452   5.366   2.729   3.931 -0.0990 -4.2531 -1.5314
  596MOL0     H80453   5.318   2.806   3.776  0.6712 -1.9871 -1.9754
  596MOL0     H80454   5.546   2.884   3.730 -1.9187 -2.1646 -1.8449
  596MOL0     H80455   5.454   2.957   3.865 -0.5173  1.1354 -1.3337
  596MOL0     H80456   5.843   2.811   4.000  0.7883 -0.9213 -1.9225
  596MOL0     H80457   5.365   2.437   4.153  1.8698 -0.8025 -1.8757
  596MOL0     H80458   5.090   2.375   4.270  0.2423  1.5625 -2.2762
  596MOL0     H80459   5.136   2.193   4.271  0.9286 -0.7962 -0.8516
  596MOL0     H80460   5.252   2.323   4.318 -0.6817  1.4079 -1.2370
  597MOL0     O80461   0.190   2.778   0.653  0.9386 -0.9070  0.8540
  597MOL0     C80462   0.103   2.866   0.631  0.5592  0.2337  1.0872
  597MOL0     O80463   0.124   2.991   0.593  0.6356  0.0194 -0.0457
  597MOL0     C80464   0.247   3.046   0.596 -0.9208 -1.0898  0.1628
  597MOL0     C80465   0.307   3.111   0.486  0.0737 -0.1368  0.4848
  597MOL0     C80466   0.437   3.163   0.501 -0.2335 -0.5786 -0.1226
  597MOL0     C80467   0.512   3.154   0.617 -0.8926  0.2906 -0.0493
  597MOL0     O80468   0.634   3.215   0.607  0.0051 -0.2185 -0.6530
  597MOL0     C80469   0.700   3.268   0.723  0.4377 -0.1421  0.8445
  597MOL0     C80470   0.815   3.353   0.674  0.9101  0.4247 -0.6858
  597MOL0     C80471   0.780   3.496   0.624 -0.1543 -0.6441 -0.2075
  597MOL0     C80472   0.728   3.503   0.478 -0.1762 -0.4159 -0.3710
  597MOL0     C80473   0.748   3.639   0.419 -1.0372  0.0006  0.2795
  597MOL0     C80474   0.898   3.667   0.374  0.0690  0.8666  0.5816
  597MOL0     C80475   0.930   3.808   0.330 -0.2811  0.7625 -0.4513
  597MOL0     C80476   1.064   3.830   0.261 -0.5508 -0.1650 -0.4488
  597MOL0     N80477   1.171   3.764   0.343 -0.3357  0.5117  0.1555
  597MOL0     C80478   1.223   3.781   0.467 -0.4714  0.5926 -0.3867
  597MOL0     C80479   1.331   3.698   0.486 -0.8689 -1.2434 -0.7356
  597MOL0     C80480   1.421   3.695   0.607  0.3310 -0.8783 -0.2984
  597MOL0     C80481   1.496   3.830   0.618 -0.2420 -0.3192 -0.6328
  597MOL0     C80482   1.608   3.828   0.727 -0.0121  0.9145 -0.6359
  597MOL0     C80483   1.691   3.956   0.746 -0.8302 -0.6195 -0.4999
  597MOL0     O80484   1.618   4.066   0.799 -0.4316  0.5285 -0.9154
  597MOL0     C80485   1.682   4.136   0.904  0.0266  0.6907  0.6715
  597MOL0     C80486   1.706   4.069   1.023 -0.3268  0.0267  0.3822
  597MOL0     C80487   1.743   4.138   1.130 -0.5175 -0.1012  0.3377
  597MOL0     C80488   1.737   4.276   1.134 -0.5575 -0.5351  0.2210
  597MOL0     C80489   1.779   4.358   1.259  0.0638 -0.5858 -0.3075
  597MOL0     O80490   1.782   4.499   1.250 -0.7343  1.1077 -0.5812
  597MOL0     C80491   1.781   4.573   1.369 -1.0845 -0.5961  0.4402
  597MOL0     C80492   1.693   4.555   1.471  0.3184 -0.3975 -0.5307
  597MOL0     C80493   1.692   4.632   1.585  0.0856  0.4076 -0.4516
  597MOL0     C80494   1.793   4.722   1.603  0.1844  0.0784 -1.1144
  597MOL0     O80495   1.825   4.802   1.711 -0.8253 -0.2555 -0.1191
  597MOL0     C80496   1.738   4.833   1.816 -0.0061  0.7728  0.2129
  597MOL0     C80497   1.799   4.901   1.933  0.1743 -0.0291  0.7146
  597MOL0     C80498   1.685   4.918   2.047  0.2386 -0.2406 -0.1603
  597MOL0     C80499   1.758   4.974   2.174  1.5165 -0.5653 -0.0681
  597MOL0     C80500   1.736   4.899   2.298 -0.4456  0.6616 -0.6556
  597MOL0     C80501   1.856   4.805   2.327  0.1125 -0.0209 -0.6837
  597MOL0     C80502   1.970   4.881   2.395  0.3431  0.5483 -0.0222
  597MOL0     C80503   2.090   4.793   2.423  0.1938 -0.4594  0.1791
  597MOL0    Cl80504   2.182   4.757   2.276 -0.4157  0.3988  0.0249
  597MOL0     C80505   1.891   4.744   1.502  0.2103  0.4569  0.1024
  597MOL0     C80506   1.889   4.663   1.383 -0.1756 -0.2863  0.0211
  597MOL0     O80507   1.777   4.297   1.363  0.1399 -0.3965 -0.4122
  597MOL0     C80508   1.709   4.341   1.019  0.1095  0.6366  0.1759
  597MOL0     C80509   1.680   4.273   0.903 -0.7754  0.4304  0.4115
  597MOL0     N80510   1.332   3.613   0.380  0.2900 -0.4474 -0.1866
  597MOL0     N80511   1.240   3.658   0.297  0.2839 -0.5074  0.0299
  597MOL0     C80512   0.452   3.084   0.724 -0.6770 -0.2997  0.5553
  597MOL0     C80513   0.326   3.028   0.712  0.6886 -0.6944  0.1628
  597MOL0     C80514  -0.038   2.830   0.624 -0.2855  0.6618  0.4408
  597MOL0     C80515  -0.118   2.875   0.512  0.2029  0.1817  0.1364
  597MOL0     C80516  -0.250   2.829   0.509  0.3849  0.3930 -0.7639
  597MOL0     C80517  -0.307   2.723   0.588 -0.3882 -0.1241 -0.0795
  597MOL0     O80518  -0.434   2.672   0.557 -0.7380 -0.7985 -0.6776
  597MOL0     C80519  -0.498   2.583   0.644  0.5321 -0.2994 -0.4244
  597MOL0     C80520  -0.458   2.436   0.597  0.4855 -0.6360  0.7160
  597MOL0     C80521  -0.514   2.422   0.457  0.0361  0.3663  0.6609
  597MOL0     C80522  -0.463   2.295   0.392 -0.3215  0.4654  0.1774
  597MOL0     C80523  -0.533   2.259   0.266  0.0275  0.6234 -0.2239
  597MOL0     C80524  -0.611   2.234   0.178 -1.2584 -0.6960  0.8721
  597MOL0     C80525  -0.223   2.678   0.688  0.6443 -0.0563  0.2433
  597MOL0     C80526  -0.097   2.741   0.715 -0.1066  0.9446  0.4566
  597MOL0     C80527  -0.033   2.710   0.849  1.2871  0.1172  0.0508
  597MOL0     H80528   0.260   3.112   0.389 -2.0386 -0.0210  1.4486
  597MOL0     H80529   0.492   3.205   0.417  1.5749 -1.7264  0.4245
  597MOL0     H80530   0.629   3.315   0.791  0.5019 -1.8693  2.1824
  597MOL0     H80531   0.743   3.192   0.790  1.2947 -0.4391 -0.0179
  597MOL0     H80532   0.867   3.295   0.597  0.3404  1.6565 -2.0475
  597MOL0     H80533   0.885   3.368   0.756 -0.8400 -2.0515  1.4277
  597MOL0     H80534   0.865   3.564   0.637 -3.5840  3.8308  1.7541
  597MOL0     H80535   0.704   3.540   0.689  0.3151 -0.7327  0.4093
  597MOL0     H80536   0.780   3.421   0.426  0.5669 -0.6626  0.7345
  597MOL0     H80537   0.621   3.481   0.485  0.2828 -2.3490  1.6745
  597MOL0     H80538   0.683   3.630   0.332 -1.5396 -2.8773  0.8606
  597MOL0     H80539   0.708   3.717   0.485 -1.6344  1.0044 -1.1951
  597MOL0     H80540   0.967   3.646   0.456 -0.0887 -2.7182 -0.0202
  597MOL0     H80541   0.921   3.598   0.292  1.3189  1.7009  0.2052
  597MOL0     H80542   0.913   3.873   0.417 -3.1732 -2.2448  1.4560
  597MOL0     H80543   0.853   3.831   0.256  1.3324 -1.5128 -3.0080
  597MOL0     H80544   1.054   3.794   0.158 -0.2021 -0.2025 -0.4701
  597MOL0     H80545   1.088   3.935   0.239 -0.0927 -0.4345 -1.2613
  597MOL0     H80546   1.200   3.867   0.530  0.9904  1.6367 -1.2073
  597MOL0     H80547   1.369   3.705   0.703 -0.9939  0.6685 -1.1420
  597MOL0     H80548   1.478   3.602   0.609  2.6161  0.4299  1.2248
  597MOL0     H80549   1.542   3.857   0.522  0.7283 -0.9314 -0.3471
  597MOL0     H80550   1.434   3.916   0.646  4.4871  3.4072 -0.3044
  597MOL0     H80551   1.663   3.739   0.695 -2.7937 -0.8661 -0.8185
  597MOL0     H80552   1.565   3.803   0.825 -0.4671 -1.2512 -1.3434
  597MOL0     H80553   1.730   3.984   0.647  1.8605  1.0579  0.9300
  597MOL0     H80554   1.781   3.945   0.807 -1.0698  1.1344  0.2185
  597MOL0     H80555   1.713   3.961   1.021  1.5502  0.0889 -1.8422
  597MOL0     H80556   1.787   4.078   1.209  0.2638 -1.2042 -0.9019
  597MOL0     H80557   1.625   4.471   1.466  2.3152 -2.0560 -1.0678
  597MOL0     H80558   1.621   4.610   1.664  0.7641  2.5101  0.8375
  597MOL0     H80559   1.657   4.885   1.765  0.6537  1.6059  0.0025
  597MOL0     H80560   1.702   4.739   1.859 -4.4068  1.0398 -2.3203
  597MOL0     H80561   1.876   4.840   1.981  0.7579  1.1811  1.3591
  597MOL0     H80562   1.839   4.995   1.894 -0.0453  0.3536  1.3917
  597MOL0     H80563   1.621   4.994   2.002  2.5239 -0.5208 -4.3542
  597MOL0     H80564   1.630   4.825   2.065 -0.5431  0.3622  0.6346
  597MOL0     H80565   1.718   5.074   2.193 -0.1786 -1.5422  1.9229
  597MOL0     H80566   1.865   4.981   2.153  1.5472 -2.1395 -0.5614
  597MOL0     H80567   1.646   4.837   2.295 -0.8239  0.7383  3.3616
  597MOL0     H80568   1.714   4.969   2.379 -0.2632 -1.6524  1.5526
  597MOL0     H80569   1.814   4.740   2.404  0.7014 -1.9276 -1.9188
  597MOL0     H80570   1.902   4.749   2.245  1.8016 -1.4160  1.1211
  597MOL0     H80571   1.942   4.933   2.487  0.9355  1.2207 -0.2073
  597MOL0     H80572   2.010   4.963   2.333  0.4216  0.5685  0.0538
  597MOL0     H80573   2.149   4.842   2.501 -1.4899 -0.8068  1.7248
  597MOL0     H80574   2.055   4.698   2.463 -0.5494 -0.2971 -0.0769
  597MOL0     H80575   1.969   4.819   1.513  0.7572  0.2887 -2.1413
  597MOL0     H80576   1.956   4.662   1.297 -0.4187 -0.2285 -0.1700
  597MOL0     H80577   1.690   4.447   1.036  1.7800  0.6053  2.6529
  597MOL0     H80578   1.639   4.319   0.814  1.7907 -0.2481 -1.2352
  597MOL0     H80579   0.497   3.068   0.821 -5.1980 -3.7147  2.4586
  597MOL0     H80580   0.271   2.987   0.796 -0.9576 -2.3154 -1.5880
  597MOL0     H80581  -0.070   2.932   0.433 -0.0746 -0.7505 -0.7289
  597MOL0     H80582  -0.313   2.859   0.426  2.0963 -0.7442 -2.5984
  597MOL0     H80583  -0.606   2.604   0.643  0.5098  0.3413  3.1894
  597MOL0     H80584  -0.491   2.599   0.752  0.7079  0.2607 -0.5174
  597MOL0     H80585  -0.496   2.360   0.667 -0.8310 -1.7324 -1.1217
  597MOL0     H80586  -0.349   2.427   0.595  0.4303 -1.2555 -0.2465
  597MOL0     H80587  -0.489   2.502   0.387  0.7252 -0.3331  0.0837
  597MOL0     H80588  -0.620   2.405   0.476  0.3333 -0.7426  1.4947
  597MOL0     H80589  -0.358   2.308   0.363 -0.8567 -1.0205 -2.7079
  597MOL0     H80590  -0.463   2.215   0.467  3.6695  0.9830  0.9657
  597MOL0     H80591  -0.683   2.227   0.100 -2.0241  3.0324  1.0688
  597MOL0     H80592  -0.254   2.605   0.762  1.7712 -1.0935 -0.2758
  597MOL0     H80593   0.047   2.636   0.847  0.3755 -0.8794 -0.5434
  597MOL0     H80594  -0.007   2.803   0.900 -2.1035  3.1790 -3.2080
  597MOL0     H80595  -0.112   2.665   0.909 -0.2695  0.1248 -1.8841
  598MOL0     O80596   0.660   5.457  11.344 -1.0170  0.2843  1.1222
  598MOL0     C80597   0.681   5.426  11.461  0.0650  0.1405  0.5332
  598MOL0     O80598   0.797   5.398  11.516 -0.1923 -0.1979  0.2292
  598MOL0     C80599   0.923   5.435  11.458  0.0687 -0.1557  0.6536
  598MOL0     C80600   1.029   5.358  11.495  0.4555  0.0636  0.0099
  598MOL0     C80601   1.149   5.382  11.446 -0.6607 -0.5400 -0.2348
  598MOL0     C80602   1.171   5.496  11.362  0.1614 -0.3278 -0.2756
  598MOL0     O80603   1.300   5.504  11.317  0.0625  0.2530 -0.7791
  598MOL0     C80604   1.347   5.628  11.261 -0.2168 -0.3762 -1.0205
  598MOL0     C80605   1.493   5.639  11.237  0.4890 -0.3112  0.2923
  598MOL0     C80606   1.590   5.623  11.364  0.0748 -0.2201  0.4679
  598MOL0     C80607   1.717   5.713  11.342  0.0760  0.0677  0.1346
  598MOL0     C80608   1.826   5.680  11.442 -0.2318 -0.1918 -0.6499
  598MOL0     C80609   1.944   5.773  11.456  0.4686  0.5825 -0.6014
  598MOL0     C80610   2.018   5.786  11.330  0.0368 -0.3561  0.5523
  598MOL0     C80611   2.144   5.865  11.346 -0.5600  0.4193  0.2554
  598MOL0     N80612   2.223   5.883  11.218 -0.2822  0.3484  0.3003
  598MOL0     C80613   2.173   5.842  11.096 -0.5235 -0.4371  0.6782
  598MOL0     C80614   2.272   5.879  11.011  0.0704  0.8341 -0.1100
  598MOL0     C80615   2.282   5.850  10.864 -0.1189 -0.1148  0.1459
  598MOL0     C80616   2.428   5.797  10.826  0.6136 -0.8863 -0.3169
  598MOL0     C80617   2.421   5.730  10.701  0.0107  0.9585  0.3504
  598MOL0     C80618   2.566   5.700  10.653  0.0350  0.0780 -0.0653
  598MOL0     O80619   2.625   5.598  10.732 -0.0312 -0.0518 -0.6600
  598MOL0     C80620   2.764   5.579  10.731 -0.3755  0.2809  0.3073
  598MOL0     C80621   2.852   5.643  10.638  0.0218 -0.2409  0.1797
  598MOL0     C80622   2.987   5.643  10.663 -0.0631 -0.2651 -0.0615
  598MOL0     C80623   3.047   5.568  10.771  0.5616 -0.9522  0.8095
  598MOL0     C80624   3.189   5.582  10.801  0.3017  0.6904 -0.5772
  598MOL0     O80625   3.251   5.691  10.774 -0.4228  0.2675  0.2059
  598MOL0     C80626   3.387   5.683  10.775  0.5740  0.4117 -0.7669
  598MOL0     C80627   3.466   5.660  10.889 -0.2229  0.4367  0.5690
  598MOL0     C80628   3.606   5.661  10.876  0.3490  0.2166 -1.2135
  598MOL0     C80629   3.665   5.671  10.752 -0.2609  0.0354  0.2070
  598MOL0     O80630   3.805   5.668  10.756  0.0628 -0.1910  0.5350
  598MOL0     C80631   3.892   5.700  10.654 -0.6398  0.7239  0.5306
  598MOL0     C80632   3.906   5.588  10.548 -0.2749  0.3107  0.2382
  598MOL0     C80633   3.998   5.614  10.436 -0.4988 -0.5446  0.4864
  598MOL0     C80634   4.104   5.505  10.408  0.2217  0.1605 -0.6535
  598MOL0     C80635   4.081   5.384  10.323  0.4380 -0.4961 -0.1267
  598MOL0     C80636   4.215   5.320  10.273 -0.3585 -0.1999 -0.1068
  598MOL0     C80637   4.189   5.175  10.226 -0.4473  0.0660  0.0510
  598MOL0     C80638   4.314   5.091  10.243  0.5462  0.5746  0.0150
  598MOL0    Cl80639   4.444   5.148  10.132  0.1344 -0.3993  0.2193
  598MOL0     C80640   3.588   5.700  10.636 -0.2821 -0.8688  0.5105
  598MOL0     C80641   3.452   5.698  10.650  0.1215  0.5746  0.7450
  598MOL0     O80642   3.231   5.485  10.862  0.9073 -0.6591 -0.1278
  598MOL0     C80643   2.961   5.491  10.852 -0.8169  0.6510  0.6052
  598MOL0     C80644   2.819   5.500  10.835  0.0126 -0.1631 -0.1764
  598MOL0     N80645   2.366   5.959  11.076  0.0587  0.2668  0.3802
  598MOL0     N80646   2.336   5.962  11.196 -0.0098 -0.1939 -0.2330
  598MOL0     C80647   1.062   5.584  11.332 -0.5242  1.0917 -0.0557
  598MOL0     C80648   0.937   5.549  11.378  0.0343 -0.9336 -0.6794
  598MOL0     C80649   0.564   5.403  11.550  0.3035 -0.0994  0.2237
  598MOL0     C80650   0.445   5.471  11.523  0.8630  0.4619 -0.8950
  598MOL0     C80651   0.343   5.479  11.609  0.1819  0.2455 -0.5138
  598MOL0     C80652   0.344   5.408  11.731  0.4213  0.2834  0.2529
  598MOL0     O80653   0.240   5.386  11.826 -0.8047  0.7600 -0.0531
  598MOL0     C80654   0.108   5.372  11.782 -0.0392 -0.0897 -0.2271
  598MOL0     C80655   0.028   5.492  11.826 -0.0688  1.0212  1.1190
  598MOL0     C80656  -0.099   5.509  11.741 -0.5738 -0.1951 -0.4868
  598MOL0     C80657  -0.190   5.609  11.823 -0.6436 -0.8023 -0.1603
  598MOL0     C80658  -0.324   5.618  11.771 -0.2374  0.0649 -0.3575
  598MOL0     C80659  -0.436   5.602  11.724  0.0081 -0.1476 -0.7998
  598MOL0     C80660   0.458   5.334  11.758 -1.3958  0.2167 -0.1277
  598MOL0     C80661   0.570   5.329  11.670 -0.4105 -0.0793 -0.8135
  598MOL0     C80662   0.696   5.250  11.726  0.4383  0.0561 -0.2939
  598MOL0     H80663   1.005   5.266  11.548 -0.0458 -1.4765 -2.7221
  598MOL0     H80664   1.229   5.315  11.476 -0.3509 -0.0545  0.0330
  598MOL0     H80665   1.297   5.648  11.165 -1.4945 -0.7170 -0.4447
  598MOL0     H80666   1.320   5.704  11.334  1.3172  0.1997 -1.0206
  598MOL0     H80667   1.504   5.741  11.199 -3.8100  0.0090 -0.5294
  598MOL0     H80668   1.528   5.560  11.169  1.5065 -0.6284  1.1602
  598MOL0     H80669   1.614   5.517  11.369  1.5134 -0.0820 -1.9378
  598MOL0     H80670   1.548   5.656  11.459  1.0186  4.8574 -0.5476
  598MOL0     H80671   1.748   5.690  11.240  3.3130 -1.8436  1.4125
  598MOL0     H80672   1.687   5.817  11.357 -0.9571 -0.1452 -0.3321
  598MOL0     H80673   1.780   5.666  11.540 -0.2782  2.7853 -0.1667
  598MOL0     H80674   1.868   5.584  11.410 -0.0977  0.7685 -3.7844
  598MOL0     H80675   1.909   5.869  11.493 -1.0691 -0.6087  1.2278
  598MOL0     H80676   2.010   5.727  11.530 -0.2235 -0.3748 -0.5564
  598MOL0     H80677   1.956   5.828  11.250  0.3296 -0.4275  0.2865
  598MOL0     H80678   2.047   5.687  11.293  1.1860 -0.6928  2.2817
  598MOL0     H80679   2.133   5.962  11.396  3.2569  0.0055  2.2863
  598MOL0     H80680   2.203   5.806  11.417 -2.9803 -2.6934 -0.1156
  598MOL0     H80681   2.082   5.790  11.069 -1.8073  1.0660  1.9497
  598MOL0     H80682   2.206   5.774  10.845 -2.0407  1.0264  2.6437
  598MOL0     H80683   2.256   5.949  10.824 -2.2161 -0.4304  0.6070
  598MOL0     H80684   2.491   5.887  10.826 -0.3653 -0.0746  2.8897
  598MOL0     H80685   2.474   5.730  10.899 -0.3498 -0.7837  0.3954
  598MOL0     H80686   2.371   5.778  10.617 -0.9034  0.5755  0.6599
  598MOL0     H80687   2.375   5.632  10.719 -0.2774  1.2141  1.0280
  598MOL0     H80688   2.626   5.792  10.654 -0.0723  0.1746  1.9299
  598MOL0     H80689   2.557   5.670  10.549  1.7660  0.9570 -0.5097
  598MOL0     H80690   2.805   5.696  10.556 -3.2475 -1.6423  0.9684
  598MOL0     H80691   3.057   5.710  10.613  0.1819  0.9645  1.8304
  598MOL0     H80692   3.430   5.645  10.990  0.1793 -0.1431  0.6374
  598MOL0     H80693   3.668   5.639  10.961 -0.4705  1.5303 -0.2380
  598MOL0     H80694   3.868   5.785  10.590 -0.9667 -0.7874 -1.4679
  598MOL0     H80695   3.991   5.715  10.700 -0.4009  3.5091 -0.6968
  598MOL0     H80696   3.947   5.505  10.606  3.1263  1.0459 -0.9038
  598MOL0     H80697   3.802   5.570  10.520 -0.8145  1.8739  1.1283
  598MOL0     H80698   3.944   5.631  10.342 -0.0205 -0.2864  0.2560
  598MOL0     H80699   4.061   5.702  10.451  0.3759 -0.7298 -1.7199
  598MOL0     H80700   4.132   5.469  10.508 -0.4103  0.4766 -0.3548
  598MOL0     H80701   4.189   5.564  10.371 -1.0816  2.0083 -0.8510
  598MOL0     H80702   4.016   5.412  10.239  1.8798 -0.0625 -1.1352
  598MOL0     H80703   4.033   5.305  10.381 -0.3402  0.0933  0.0472
  598MOL0     H80704   4.268   5.376  10.196  1.1022 -0.1848  0.8617
  598MOL0     H80705   4.276   5.323  10.364 -0.8253  0.0668  0.2069
  598MOL0     H80706   4.151   5.187  10.125 -2.7180 -1.5171  0.6375
  598MOL0     H80707   4.107   5.129  10.282 -1.1150 -0.1961 -1.1116
  598MOL0     H80708   4.346   5.098  10.348 -1.2824  2.6883  0.5098
  598MOL0     H80709   4.290   4.989  10.214 -0.8918  1.2090 -1.1186
  598MOL0     H80710   3.626   5.712  10.535  1.1291  1.8222  1.2753
  598MOL0     H80711   3.383   5.725  10.570  1.4126  0.8718 -0.2975
  598MOL0     H80712   3.004   5.414  10.915 -0.1361 -2.4156 -3.2288
  598MOL0     H80713   2.744   5.451  10.896 -1.7367  0.5984 -1.6550
  598MOL0     H80714   1.075   5.668  11.265 -0.4295  1.2089  0.1080
  598MOL0     H80715   0.844   5.599  11.352  0.7613  0.5081 -0.5975
  598MOL0     H80716   0.441   5.538  11.437  0.1002 -0.5875 -1.7026
  598MOL0     H80717   0.252   5.534  11.588 -1.5280 -1.5084  1.8070
  598MOL0     H80718   0.057   5.284  11.823 -0.2008 -0.6718 -1.6154
  598MOL0     H80719   0.100   5.372  11.673 -2.4353  0.6040 -0.0910
  598MOL0     H80720   0.099   5.575  11.816  2.1121 -0.8940 -0.2556
  598MOL0     H80721   0.003   5.479  11.932 -0.8857  2.5548  1.1525
  598MOL0     H80722  -0.150   5.415  11.719  1.5590 -1.0061 -2.3675
  598MOL0     H80723  -0.072   5.559  11.648 -4.7729  1.5594 -0.9929
  598MOL0     H80724  -0.214   5.586  11.928 -2.1760  0.7507 -0.1323
  598MOL0     H80725  -0.135   5.703  11.825 -1.0993 -0.5392 -0.0497
  598MOL0     H80726  -0.529   5.584  11.674  0.5574 -3.5733 -0.8020
  598MOL0     H80727   0.451   5.289  11.856 -0.3935  0.0220 -0.1401
  598MOL0     H80728   0.784   5.311  11.750  0.0095  0.5723 -0.0082
  598MOL0     H80729   0.670   5.213  11.826 -0.1844 -0.7327 -0.7330
  598MOL0     H80730   0.717   5.162  11.665 -0.8657  0.0247 -0.7304
  599MOL0     O80731   4.915   7.502   7.278 -0.2344 -0.3919  0.1998
  599MOL0     C80732   4.984   7.492   7.179 -0.5384  0.7983 -0.9311
  599MOL0     O80733   5.084   7.401   7.168 -0.3754  0.3014 -1.0471
  599MOL0     C80734   5.102   7.307   7.268 -0.3505  0.2589  0.0467
  599MOL0     C80735   5.103   7.172   7.232  0.1713  0.2034 -0.2557
  599MOL0     C80736   5.134   7.068   7.316  0.1210  0.4328 -0.4955
  599MOL0     C80737   5.158   7.099   7.446 -0.2126  0.0443 -1.1206
  599MOL0     O80738   5.166   6.999   7.539  0.3643  0.4164  0.0288
  599MOL0     C80739   5.160   6.856   7.520 -0.9017 -0.2137  0.1523
  599MOL0     C80740   5.295   6.818   7.444  0.3192 -1.1818  0.4146
  599MOL0     C80741   5.310   6.670   7.436  0.1116  0.8238 -0.7914
  599MOL0     C80742   5.440   6.612   7.503 -0.4983  1.1006 -0.1974
  599MOL0     C80743   5.446   6.456   7.490 -0.6936 -0.9290 -0.0529
  599MOL0     C80744   5.579   6.396   7.518  1.3735 -0.2206 -0.3273
  599MOL0     C80745   5.563   6.237   7.496  0.8154  0.5690 -0.4414
  599MOL0     C80746   5.672   6.156   7.572  0.4362  0.6049 -0.4464
  599MOL0     N80747   5.808   6.192   7.541 -0.2696  0.0370 -0.3672
  599MOL0     C80748   5.885   6.297   7.587 -0.3707 -1.4529  0.2521
  599MOL0     C80749   6.000   6.289   7.530  0.2898  0.6062 -0.0647
  599MOL0     C80750   6.123   6.372   7.572  0.7848 -0.4363 -0.2925
  599MOL0     C80751   6.229   6.401   7.462  0.2846  0.2044 -0.1271
  599MOL0     C80752   6.329   6.509   7.511 -0.0438  0.0266  0.1385
  599MOL0     C80753   6.442   6.536   7.412 -0.0600  0.1734  0.0798
  599MOL0     O80754   6.532   6.641   7.463 -0.0043  0.1061 -0.1606
  599MOL0     C80755   6.650   6.651   7.392 -0.4429 -0.7123 -0.2953
  599MOL0     C80756   6.678   6.609   7.262 -0.1032 -0.2888  1.0117
  599MOL0     C80757   6.797   6.631   7.197 -0.3665 -0.3160 -0.3311
  599MOL0     C80758   6.896   6.711   7.264  0.1193  0.7668 -0.0659
  599MOL0     C80759   7.027   6.737   7.207  0.3165  0.3318 -0.0599
  599MOL0     O80760   7.121   6.778   7.292  0.3813 -0.6588 -0.4003
  599MOL0     C80761   7.243   6.818   7.245  0.4144 -0.9081  0.3951
  599MOL0     C80762   7.246   6.919   7.140  0.2165  1.1234  0.1062
  599MOL0     C80763   7.372   6.957   7.081 -0.1773  0.7773 -0.0943
  599MOL0     C80764   7.487   6.900   7.125  0.1830  0.3434 -0.1218
  599MOL0     O80765   7.606   6.923   7.052  0.3712  0.5923  0.4493
  599MOL0     C80766   7.729   6.853   7.094  0.1871  0.8034 -0.3350
  599MOL0     C80767   7.851   6.916   7.009  1.1331  0.8676 -0.3693
  599MOL0     C80768   7.835   6.888   6.850  0.2632  0.0010  0.1907
  599MOL0     C80769   7.966   6.924   6.776  0.4707 -0.3694 -0.4862
  599MOL0     C80770   7.956   6.917   6.632 -0.0689 -0.5713 -1.0541
  599MOL0     C80771   8.065   7.001   6.561 -0.1698 -0.0933  0.3135
  599MOL0     C80772   8.009   7.069   6.440 -0.2885  0.1128  0.1488
  599MOL0     C80773   8.109   7.175   6.388 -0.5143 -0.5775  0.0956
  599MOL0    Cl80774   8.085   7.311   6.496 -0.0760  0.5940 -0.2241
  599MOL0     C80775   7.484   6.816   7.231 -0.3866 -0.3380  0.5606
  599MOL0     C80776   7.362   6.766   7.293  0.0493  0.3977  0.2374
  599MOL0     O80777   7.049   6.705   7.093 -0.3066  0.2636  0.1217
  599MOL0     C80778   6.869   6.745   7.397  0.0592  0.3727  0.7400
  599MOL0     C80779   6.747   6.720   7.461  1.1817 -0.3073  0.1038
  599MOL0     N80780   5.997   6.184   7.438 -0.4889  0.8686 -0.6995
  599MOL0     N80781   5.883   6.122   7.451 -0.9830  0.2500 -0.2860
  599MOL0     C80782   5.184   7.235   7.483  0.1700  0.0780  0.7302
  599MOL0     C80783   5.139   7.337   7.394 -0.3336  0.1793  0.0556
  599MOL0     C80784   4.941   7.578   7.069 -0.2533 -0.1651  0.3589
  599MOL0     C80785   4.883   7.708   7.095 -1.0895  0.3336 -0.9081
  599MOL0     C80786   4.827   7.786   7.001  0.2657 -0.1095  0.0465
  599MOL0     C80787   4.807   7.729   6.868 -0.3126  0.0024  0.6490
  599MOL0     O80788   4.739   7.782   6.760  0.4563 -0.2347  0.0773
  599MOL0     C80789   4.668   7.902   6.788 -0.2229 -0.4434 -0.5679
  599MOL0     C80790   4.525   7.853   6.850  0.9913 -0.5981  0.5294
  599MOL0     C80791   4.449   7.766   6.752 -0.2351  0.6897 -0.1184
  599MOL0     C80792   4.308   7.734   6.817 -1.1165  0.8224  0.6108
  599MOL0     C80793   4.233   7.858   6.817 -0.5136 -0.3031  0.7809
  599MOL0     C80794   4.185   7.967   6.827 -0.1634  0.1363  0.5030
  599MOL0     C80795   4.855   7.601   6.845 -0.4033  0.5437 -0.0092
  599MOL0     C80796   4.913   7.519   6.940 -0.0340  1.5322 -0.0498
  599MOL0     C80797   4.980   7.387   6.901 -0.1619  0.3326 -0.0558
  599MOL0     H80798   5.091   7.137   7.130 -0.6371 -4.2490  1.1272
  599MOL0     H80799   5.138   6.964   7.284  0.0252  0.5169 -0.7774
  599MOL0     H80800   5.160   6.791   7.608 -0.7364  0.8252  0.9434
  599MOL0     H80801   5.078   6.820   7.457 -0.5182 -1.5414  0.3880
  599MOL0     H80802   5.377   6.879   7.483  0.4679 -0.2204 -1.3007
  599MOL0     H80803   5.290   6.855   7.341 -0.6048 -0.7693  0.5948
  599MOL0     H80804   5.312   6.640   7.331  1.3742 -0.1983 -0.4991
  599MOL0     H80805   5.226   6.617   7.483  2.6862 -0.9433  2.2412
  599MOL0     H80806   5.524   6.646   7.442  0.6265  1.2022  1.3480
  599MOL0     H80807   5.450   6.640   7.608  1.0870 -0.7500  0.2055
  599MOL0     H80808   5.364   6.417   7.551  1.1266 -1.9298  1.9083
  599MOL0     H80809   5.421   6.438   7.385 -2.3574  2.0561 -0.2539
  599MOL0     H80810   5.656   6.431   7.448  2.3109 -0.2542  0.6613
  599MOL0     H80811   5.621   6.409   7.618  0.7800 -0.1426 -0.0895
  599MOL0     H80812   5.562   6.212   7.389  2.6442 -1.9052  0.0326
  599MOL0     H80813   5.470   6.197   7.536  1.2419 -0.7647 -0.7260
  599MOL0     H80814   5.668   6.168   7.680 -0.1369  2.0664 -0.6033
  599MOL0     H80815   5.659   6.051   7.544 -3.3508  1.2556 -1.7038
  599MOL0     H80816   5.854   6.376   7.655  2.1382 -0.0144 -0.1329
  599MOL0     H80817   6.082   6.470   7.598 -0.9322 -1.5082  1.3124
  599MOL0     H80818   6.158   6.316   7.659 -0.6778 -2.9968 -1.2649
  599MOL0     H80819   6.290   6.311   7.448  0.0821  0.0844 -0.2372
  599MOL0     H80820   6.185   6.431   7.367  0.6769 -0.2986 -0.4760
  599MOL0     H80821   6.373   6.490   7.609  3.3420  0.3537 -1.2064
  599MOL0     H80822   6.276   6.604   7.524  0.4469  0.8250 -2.8471
  599MOL0     H80823   6.395   6.577   7.322  1.3684 -1.4722 -1.5143
  599MOL0     H80824   6.499   6.449   7.376 -1.1640  0.5028 -2.7174
  599MOL0     H80825   6.600   6.552   7.213 -1.9430  1.2775  1.9641
  599MOL0     H80826   6.806   6.601   7.093  1.5308 -1.9376  0.2504
  599MOL0     H80827   7.155   6.967   7.106 -0.4782  1.2586  2.0197
  599MOL0     H80828   7.380   7.012   6.988 -1.5812  0.9459 -0.1358
  599MOL0     H80829   7.744   6.849   7.203  1.9870  0.8335 -0.5514
  599MOL0     H80830   7.714   6.748   7.065  6.2986 -0.5006 -0.1520
  599MOL0     H80831   7.864   7.025   7.012  0.9681  0.8689  0.3233
  599MOL0     H80832   7.942   6.868   7.045  1.1871  2.0382  1.1325
  599MOL0     H80833   7.833   6.780   6.832  1.5998 -0.0764  0.3917
  599MOL0     H80834   7.749   6.942   6.810 -0.2770  0.8594  2.3851
  599MOL0     H80835   8.051   6.864   6.811 -0.1169 -0.1239  1.4634
  599MOL0     H80836   7.985   7.025   6.811  0.4471 -0.3621 -0.4941
  599MOL0     H80837   7.856   6.954   6.606 -1.6078 -2.9111  0.9825
  599MOL0     H80838   7.971   6.814   6.599 -1.8318 -0.9517 -0.7959
  599MOL0     H80839   8.104   7.081   6.625 -2.7553  3.0099 -1.6362
  599MOL0     H80840   8.147   6.931   6.546 -1.1156 -1.6347  1.9375
  599MOL0     H80841   7.915   7.122   6.457 -2.0618 -2.7689 -0.1081
  599MOL0     H80842   7.994   7.000   6.356 -0.4316  1.7073 -1.2085
  599MOL0     H80843   8.213   7.142   6.388 -0.4916 -0.6868  2.5510
  599MOL0     H80844   8.084   7.205   6.286  2.6331  0.0874 -0.5924
  599MOL0     H80845   7.570   6.761   7.268  1.4284  1.2778 -1.0453
  599MOL0     H80846   7.359   6.687   7.368 -0.2051  1.6404  1.5849
  599MOL0     H80847   6.950   6.793   7.451 -0.2552 -0.6473  2.1772
  599MOL0     H80848   6.724   6.752   7.562  1.3828  1.0374 -0.2532
  599MOL0     H80849   5.217   7.268   7.581 -2.4242  1.0820  1.3780
  599MOL0     H80850   5.131   7.438   7.434 -2.2983  1.0008 -2.2358
  599MOL0     H80851   4.882   7.741   7.198 -1.8406 -2.7950  0.1798
  599MOL0     H80852   4.793   7.885   7.028 -1.6922 -0.4457 -1.0377
  599MOL0     H80853   4.653   7.965   6.699  0.5607 -0.3163 -0.6199
  599MOL0     H80854   4.716   7.965   6.863  0.5950 -3.8640  2.0158
  599MOL0     H80855   4.468   7.937   6.891  0.0805 -1.6755  1.5586
  599MOL0     H80856   4.545   7.787   6.935 -1.6862 -2.0339  0.1515
  599MOL0     H80857   4.494   7.668   6.733 -1.0205  0.6083 -1.6564
  599MOL0     H80858   4.444   7.806   6.651  2.5721  1.1924 -0.1578
  599MOL0     H80859   4.259   7.661   6.752  1.3493  0.6438 -1.1686
  599MOL0     H80860   4.317   7.702   6.922 -0.7562  0.1882  0.3930
  599MOL0     H80861   4.143   8.065   6.841  0.3414  0.2386  1.3818
  599MOL0     H80862   4.856   7.570   6.741  2.5026  0.3715  0.0011
  599MOL0     H80863   4.930   7.305   6.953 -1.2356  1.3648  0.5954
  599MOL0     H80864   4.964   7.374   6.794  2.3035  1.5617 -0.6250
  599MOL0     H80865   5.086   7.401   6.922 -0.3839  0.2811  1.1998
  600MOL0     O80866   8.676  10.353   0.905 -1.1024 -0.1003 -0.2837
  600MOL0     C80867   8.756  10.270   0.953 -0.8228  0.5100  0.9210
  600MOL0     O80868   8.760  10.138   0.913 -0.0446 -0.7251 -0.1462
  600MOL0     C80869   8.648  10.065   0.877  0.2013 -0.6075 -1.0542
  600MOL0     C80870   8.535  10.083   0.948  1.3485  0.4484 -0.3791
  600MOL0     C80871   8.418  10.021   0.900  0.8788 -0.3756 -0.1225
  600MOL0     C80872   8.416   9.909   0.814 -0.4412 -0.4759  0.5582
  600MOL0     O80873   8.305   9.827   0.799 -0.7605 -0.1235  0.4954
  600MOL0     C80874   8.171   9.861   0.843 -0.1714  0.0386  0.3133
  600MOL0     C80875   8.065   9.805   0.743 -0.6919 -0.9746  0.2540
  600MOL0     C80876   8.052   9.654   0.725  0.1100 -0.4174 -0.3354
  600MOL0     C80877   7.943   9.623   0.625 -0.3653  0.1627 -0.4492
  600MOL0     C80878   7.927   9.470   0.603 -0.5231 -0.1254 -0.1658
  600MOL0     C80879   7.786   9.433   0.558  1.0352  0.3568  0.1864
  600MOL0     C80880   7.758   9.281   0.553  0.0438 -0.6046 -1.1648
  600MOL0     C80881   7.612   9.242   0.592  0.1885 -0.1885  0.3886
  600MOL0     N80882   7.570   9.102   0.567 -0.4459 -0.1807 -0.5750
  600MOL0     C80883   7.634   9.024   0.484  0.5199 -0.0865  0.0859
  600MOL0     C80884   7.583   8.898   0.491 -0.8130  0.4653 -0.3758
  600MOL0     C80885   7.633   8.779   0.410  0.4805  0.3329 -1.1296
  600MOL0     C80886   7.636   8.637   0.481 -0.2880  0.3890  0.0244
  600MOL0     C80887   7.503   8.564   0.479  0.5632 -0.2743  0.2501
  600MOL0     C80888   7.512   8.407   0.488 -0.1434 -0.5323  0.3831
  600MOL0     O80889   7.594   8.365   0.374 -0.5401  0.4399 -0.4104
  600MOL0     C80890   7.615   8.227   0.380 -0.6520  0.4843  0.6835
  600MOL0     C80891   7.561   8.135   0.478  0.3212  0.4072  0.6252
  600MOL0     C80892   7.596   8.005   0.477 -0.0876 -0.4772 -0.1531
  600MOL0     C80893   7.691   7.956   0.382  0.8124 -1.4269  0.0157
  600MOL0     C80894   7.728   7.810   0.373 -0.5430 -0.4015  1.1245
  600MOL0     O80895   7.689   7.727   0.471 -0.1138  0.3554  0.0913
  600MOL0     C80896   7.736   7.595   0.465  0.9318  0.4168 -0.5754
  600MOL0     C80897   7.868   7.553   0.498  0.3552 -0.6775 -0.0952
  600MOL0     C80898   7.900   7.417   0.475 -0.3373 -0.5583  0.3233
  600MOL0     C80899   7.801   7.316   0.444 -0.5271 -0.0492 -0.1924
  600MOL0     O80900   7.842   7.182   0.456  0.1596  0.0220 -0.5092
  600MOL0     C80901   7.745   7.084   0.413 -0.3936  0.4576 -0.0050
  600MOL0     C80902   7.782   6.945   0.466 -0.6146 -0.9386  0.3677
  600MOL0     C80903   7.697   6.833   0.404  0.4983 -0.2199  0.7322
  600MOL0     C80904   7.718   6.697   0.471 -0.2677  0.1976 -0.0929
  600MOL0     C80905   7.865   6.650   0.462  0.3413  0.6288  0.4005
  600MOL0     C80906   7.873   6.498   0.508 -0.2393  0.1838  0.2228
  600MOL0     C80907   8.017   6.460   0.549 -1.1357  0.3471 -0.0775
  600MOL0     C80908   8.070   6.328   0.494 -0.4674 -0.9770 -0.3810
  600MOL0    Cl80909   8.226   6.303   0.560 -0.4861  0.5200  0.0191
  600MOL0     C80910   7.667   7.362   0.428 -1.1461  0.2168 -0.7012
  600MOL0     C80911   7.639   7.498   0.439  0.2106  0.1992 -0.3518
  600MOL0     O80912   7.806   7.777   0.278  0.2046 -0.5255  0.4388
  600MOL0     C80913   7.722   8.048   0.282 -0.2326  0.0124  0.2911
  600MOL0     C80914   7.692   8.181   0.277  0.0436 -1.0386 -0.1715
  600MOL0     N80915   7.487   8.903   0.582 -0.0654  0.1086  0.3759
  600MOL0     N80916   7.480   9.020   0.641  0.6180 -0.1270  0.7380
  600MOL0     C80917   8.543   9.888   0.747 -1.2886 -0.2012 -0.6822
  600MOL0     C80918   8.651   9.970   0.782  0.0257  0.6698  0.4684
  600MOL0     C80919   8.872  10.313   1.035 -1.4087 -0.0027 -0.5721
  600MOL0     C80920   8.959  10.210   1.082  0.1063 -0.7400  0.6370
  600MOL0     C80921   9.049  10.223   1.182 -0.3875  0.3504  0.4256
  600MOL0     C80922   9.085  10.350   1.231  0.5743  0.2614  0.9195
  600MOL0     O80923   9.177  10.372   1.324 -0.4101  0.3370 -0.0283
  600MOL0     C80924   9.263  10.263   1.373 -0.8378  0.5829  0.7312
  600MOL0     C80925   9.334  10.308   1.501  0.2616 -0.5549  0.2435
  600MOL0     C80926   9.426  10.427   1.489 -0.2153 -0.1277  0.1971
  600MOL0     C80927   9.477  10.493   1.616  0.2209 -0.5007 -0.1498
  600MOL0     C80928   9.567  10.605   1.599  0.3609 -0.0213  0.5366
  600MOL0     C80929   9.650  10.692   1.583 -0.2136 -0.2414  0.5470
  600MOL0     C80930   9.017  10.455   1.169 -0.7172 -1.0533  0.0626
  600MOL0     C80931   8.911  10.442   1.079  0.4444  0.1279 -0.4200
  600MOL0     C80932   8.835  10.568   1.029  0.6556  0.6078  0.0110
  600MOL0     H80933   8.533  10.162   1.021 -0.8669  0.4168 -0.3137
  600MOL0     H80934   8.332  10.073   0.942  2.4849  4.6807 -2.2960
  600MOL0     H80935   8.139   9.831   0.944 -0.7934 -3.2685 -0.7432
  600MOL0     H80936   8.167   9.970   0.841  0.2646  0.0622  0.5875
  600MOL0     H80937   8.106   9.844   0.649  1.0836 -0.8447  1.0574
  600MOL0     H80938   7.972   9.851   0.775 -0.9777  1.2806 -3.2305
  600MOL0     H80939   8.033   9.601   0.819 -1.8618 -1.6867 -1.3699
  600MOL0     H80940   8.148   9.611   0.696  1.9585  2.2226  1.3628
  600MOL0     H80941   7.846   9.672   0.639 -1.1599 -1.1950 -0.9961
  600MOL0     H80942   7.976   9.657   0.526  1.9739  0.2760  0.3133
  600MOL0     H80943   8.003   9.440   0.530  2.3121 -0.9840  2.8780
  600MOL0     H80944   7.949   9.415   0.696 -4.4495 -1.3579  0.2188
  600MOL0     H80945   7.720   9.475   0.633 -2.2922 -0.9541 -1.7952
  600MOL0     H80946   7.760   9.476   0.461 -2.3597 -0.7290  0.4891
  600MOL0     H80947   7.824   9.222   0.618 -0.6611 -0.9814 -0.7790
  600MOL0     H80948   7.780   9.243   0.452  3.0838  0.3564 -0.9540
  600MOL0     H80949   7.594   9.269   0.697  0.9591 -0.0587  0.4972
  600MOL0     H80950   7.539   9.300   0.536 -1.1305 -1.6042  0.6048
  600MOL0     H80951   7.721   9.041   0.422  0.8938 -2.4212 -0.0979
  600MOL0     H80952   7.575   8.770   0.318 -0.4635 -0.5419 -0.4815
  600MOL0     H80953   7.735   8.809   0.385  1.6069 -2.7821 -0.7501
  600MOL0     H80954   7.715   8.582   0.430  1.8648  2.9360  0.3803
  600MOL0     H80955   7.670   8.649   0.585 -2.1304  1.3747  0.5557
  600MOL0     H80956   7.439   8.588   0.393 -1.8630 -0.1846  1.9914
  600MOL0     H80957   7.446   8.602   0.564 -0.7099  0.6078 -0.9557
  600MOL0     H80958   7.411   8.367   0.478 -1.2857  2.1551  0.1785
  600MOL0     H80959   7.558   8.366   0.578  0.7080  1.0027  0.6832
  600MOL0     H80960   7.491   8.151   0.559 -1.0563  0.8054 -0.6214
  600MOL0     H80961   7.550   7.935   0.546 -2.9203  2.6304  1.3671
  600MOL0     H80962   7.935   7.626   0.542  1.2940 -0.6953 -1.4371
  600MOL0     H80963   7.999   7.390   0.509 -0.6586 -0.5446  1.3278
  600MOL0     H80964   7.648   7.103   0.461 -1.6120 -2.8805 -0.8668
  600MOL0     H80965   7.720   7.068   0.308  1.3503 -0.1876 -0.3433
  600MOL0     H80966   7.888   6.935   0.444 -0.3596  3.2948 -1.3478
  600MOL0     H80967   7.767   6.936   0.574 -0.6898  0.2914  0.4772
  600MOL0     H80968   7.593   6.860   0.421  0.2981 -0.2239 -0.3791
  600MOL0     H80969   7.715   6.823   0.296 -0.3134  0.2276  0.5517
  600MOL0     H80970   7.655   6.624   0.420 -0.6548 -0.2976  1.0842
  600MOL0     H80971   7.703   6.708   0.578  2.6617  3.3597  0.1586
  600MOL0     H80972   7.919   6.707   0.537 -1.7542  3.3755 -0.0320
  600MOL0     H80973   7.904   6.653   0.359  1.7716  0.0570  0.8956
  600MOL0     H80974   7.797   6.479   0.584  0.3083 -1.0527  0.4819
  600MOL0     H80975   7.845   6.437   0.421  3.5678  0.6499 -1.5244
  600MOL0     H80976   8.024   6.477   0.657 -0.0408 -0.1501 -0.0535
  600MOL0     H80977   8.085   6.535   0.508  0.4725 -0.4703  0.9662
  600MOL0     H80978   8.007   6.241   0.516 -0.5772 -1.0882 -1.1329
  600MOL0     H80979   8.072   6.347   0.387  0.3851  1.2216 -0.0280
  600MOL0     H80980   7.582   7.297   0.407 -0.1748 -1.1011 -0.6634
  600MOL0     H80981   7.542   7.543   0.421 -0.2486 -0.3045  0.7798
  600MOL0     H80982   7.785   8.016   0.200 -0.2740  0.3727  0.1178
  600MOL0     H80983   7.727   8.249   0.199 -0.3842 -1.5146 -0.7927
  600MOL0     H80984   8.566   9.814   0.671  0.0815 -0.9205  0.3736
  600MOL0     H80985   8.747   9.970   0.731 -0.9287  0.5872 -1.4086
  600MOL0     H80986   8.958  10.112   1.035  1.3116 -0.5729  0.2197
  600MOL0     H80987   9.099  10.132   1.209  0.5678  0.4626 -0.8725
  600MOL0     H80988   9.345  10.237   1.305 -1.1235 -3.2410  1.5808
  600MOL0     H80989   9.220  10.164   1.391  1.0448 -0.4474 -0.1065
  600MOL0     H80990   9.398  10.223   1.523 -0.9149 -1.4248  0.4014
  600MOL0     H80991   9.259  10.320   1.579  0.0691 -1.6211  0.2311
  600MOL0     H80992   9.367  10.502   1.435  1.0062 -0.2210 -1.3325
  600MOL0     H80993   9.514  10.386   1.440  1.4991  1.4912  1.7392
  600MOL0     H80994   9.396  10.540   1.672 -0.2169  1.2002 -2.0710
  600MOL0     H80995   9.527  10.419   1.680 -0.0306 -0.4487  0.1078
  600MOL0     H80996   9.712  10.778   1.572  0.3910 -0.8787 -1.3978
  600MOL0     H80997   9.043  10.555   1.202 -0.7684 -0.2756 -2.0562
  600MOL0     H80998   8.745  10.583   1.089 -0.0890 -1.6226 -0.4441
  600MOL0     H80999   8.894  10.659   1.021  0.1353  0.8607 -1.2096
  600MOL0     H81000   8.799  10.559   0.926 -0.0366 -1.1760  0.3719
  601MOL0     O81001   7.175   5.974   0.316  0.0129  0.8622  1.4598
  601MOL0     C81002   7.227   5.869   0.352 -0.3754 -0.5284 -0.6407
  601MOL0     O81003   7.362   5.858   0.386  0.1631  0.2051  0.6020
  601MOL0     C81004   7.442   5.971   0.362 -0.4826  0.2857  0.0515
  601MOL0     C81005   7.539   6.024   0.454  0.4388 -0.3341  0.8211
  601MOL0     C81006   7.637   6.117   0.411 -0.0848  0.3371 -0.4271
  601MOL0     C81007   7.648   6.161   0.279 -0.1093 -0.5144 -0.5628
  601MOL0     O81008   7.755   6.243   0.245  0.3338  0.4735 -0.4627
  601MOL0     C81009   7.767   6.266   0.108 -0.5798  0.3962 -0.8614
  601MOL0     C81010   7.888   6.350   0.102 -0.5056 -0.5415  0.5607
  601MOL0     C81011   7.956   6.361  -0.035  0.2007  0.1485 -0.7816
  601MOL0     C81012   7.886   6.466  -0.137  0.0498 -0.3330 -0.7160
  601MOL0     C81013   7.921   6.442  -0.284 -0.4055 -0.2356  0.0170
  601MOL0     C81014   8.058   6.504  -0.322  0.0820 -0.1785  0.7658
  601MOL0     C81015   8.115   6.453  -0.457 -0.4450  0.1116 -0.4761
  601MOL0     C81016   8.200   6.323  -0.433 -0.4302  0.2758 -0.2739
  601MOL0     N81017   8.268   6.291  -0.554 -0.0355 -0.4611  0.3857
  601MOL0     C81018   8.222   6.283  -0.680 -0.2607 -0.1829  0.6010
  601MOL0     C81019   8.331   6.249  -0.755 -0.2042  0.0463  0.0072
  601MOL0     C81020   8.329   6.204  -0.898 -0.4418 -0.3108 -0.1208
  601MOL0     C81021   8.301   6.314  -0.996 -1.1410 -0.2303  0.5104
  601MOL0     C81022   8.347   6.300  -1.145  0.2544  0.4845 -0.7615
  601MOL0     C81023   8.304   6.163  -1.214  0.6783 -0.0287  0.4262
  601MOL0     O81024   8.166   6.132  -1.185 -0.2255  0.6916 -0.4825
  601MOL0     C81025   8.081   6.136  -1.288 -0.2789  0.1899  0.7284
  601MOL0     C81026   8.056   6.034  -1.373 -0.1915  0.1344  0.3612
  601MOL0     C81027   7.977   6.037  -1.488 -1.0034 -0.4819 -0.0340
  601MOL0     C81028   7.893   6.150  -1.505 -0.4279  0.2554 -0.4056
  601MOL0     C81029   7.783   6.145  -1.598 -0.8529 -0.1794 -0.3583
  601MOL0     O81030   7.707   6.261  -1.603  0.2723  0.3996  0.3410
  601MOL0     C81031   7.594   6.270  -1.684 -0.5891 -0.5107  0.1313
  601MOL0     C81032   7.508   6.164  -1.698  0.4135 -0.0970  0.4553
  601MOL0     C81033   7.392   6.164  -1.781 -0.4114 -0.6286 -0.0960
  601MOL0     C81034   7.349   6.286  -1.830 -0.6414 -0.1215  0.2595
  601MOL0     O81035   7.232   6.292  -1.910 -0.4641  0.3898 -0.2583
  601MOL0     C81036   7.187   6.419  -1.965  0.6906  0.1884  0.7629
  601MOL0     C81037   7.043   6.406  -2.017 -0.4363 -0.5528 -0.0966
  601MOL0     C81038   6.945   6.516  -1.987 -0.5837 -0.1690 -0.2248
  601MOL0     C81039   6.804   6.499  -2.042 -0.3149 -0.1175  0.6309
  601MOL0     C81040   6.805   6.539  -2.191 -0.1622  0.8025  0.2914
  601MOL0     C81041   6.680   6.468  -2.258  0.1051 -0.6092 -0.0968
  601MOL0     C81042   6.545   6.531  -2.200  0.7636  0.5236 -0.0136
  601MOL0     C81043   6.436   6.457  -2.273  0.4706 -0.3670  0.2269
  601MOL0    Cl81044   6.278   6.506  -2.207  0.2093 -0.1600 -0.2151
  601MOL0     C81045   7.440   6.400  -1.823  0.4807  0.5439 -0.2577
  601MOL0     C81046   7.567   6.389  -1.753 -0.0526 -0.2253 -0.2463
  601MOL0     O81047   7.773   6.053  -1.670 -0.3413 -0.3583 -0.3690
  601MOL0     C81048   7.906   6.261  -1.416 -0.7629  0.4437 -0.1794
  601MOL0     C81049   8.004   6.253  -1.304  0.6166  0.1543  0.2899
  601MOL0     N81050   8.449   6.232  -0.676  0.8115 -0.5957 -0.2184
  601MOL0     N81051   8.411   6.267  -0.553  0.2375 -0.1292  0.0567
  601MOL0     C81052   7.557   6.101   0.189 -0.0653 -0.0080 -0.1150
  601MOL0     C81053   7.461   6.010   0.230 -0.4122 -1.1863  0.1911
  601MOL0     C81054   7.139   5.744   0.371  0.4862 -0.7071 -0.6027
  601MOL0     C81055   7.208   5.624   0.399 -0.4616 -0.0119  0.4357
  601MOL0     C81056   7.132   5.507   0.402 -0.3607 -0.2941  0.0504
  601MOL0     C81057   7.002   5.507   0.380 -0.6255  0.2568 -0.1724
  601MOL0     O81058   6.927   5.393   0.384  0.0487 -0.8535 -0.2392
  601MOL0     C81059   6.852   5.355   0.508 -0.6041  0.1371 -0.5426
  601MOL0     C81060   6.910   5.227   0.566  0.4333  0.1317  0.2870
  601MOL0     C81061   6.813   5.145   0.643  0.7473 -1.2501  0.1384
  601MOL0     C81062   6.877   5.015   0.690  0.0706  0.7535  0.1143
  601MOL0     C81063   6.968   5.044   0.795  0.4837 -0.7060 -0.5630
  601MOL0     C81064   7.044   5.068   0.880 -0.2994 -0.0301 -0.4299
  601MOL0     C81065   6.940   5.631   0.356  1.1449  0.6412  0.8295
  601MOL0     C81066   7.007   5.749   0.345  0.5559  0.6071 -0.6525
  601MOL0     C81067   6.929   5.862   0.301  0.2309  0.1414  0.1873
  601MOL0     H81068   7.537   6.000   0.560  4.2118  2.6230  1.7606
  601MOL0     H81069   7.716   6.166   0.468 -1.7869  0.6373  1.8103
  601MOL0     H81070   7.781   6.166   0.065  0.3759 -0.6777  1.7505
  601MOL0     H81071   7.679   6.313   0.063 -1.1827  1.1427  1.0151
  601MOL0     H81072   7.963   6.306   0.170  0.7251 -0.5363 -0.7491
  601MOL0     H81073   7.853   6.446   0.140  0.1228 -1.1272  2.8284
  601MOL0     H81074   7.964   6.262  -0.082  2.4079  0.1330 -0.4752
  601MOL0     H81075   8.058   6.393  -0.010 -0.2364 -0.2660  1.8359
  601MOL0     H81076   7.780   6.445  -0.122  0.1395 -1.3285 -1.3689
  601MOL0     H81077   7.922   6.562  -0.100  0.0442 -2.1805  5.1329
  601MOL0     H81078   7.920   6.335  -0.310 -5.4627 -1.5037  3.9357
  601MOL0     H81079   7.845   6.488  -0.348 -0.0120 -0.4142 -0.5982
  601MOL0     H81080   8.047   6.611  -0.340 -0.1808 -0.5493 -1.6173
  601MOL0     H81081   8.133   6.488  -0.244  1.6869 -0.3926 -0.7464
  601MOL0     H81082   8.171   6.538  -0.499  1.0884  0.2576  1.7216
  601MOL0     H81083   8.026   6.432  -0.517 -0.8428  0.9580 -0.2001
  601MOL0     H81084   8.261   6.346  -0.345 -0.2537  1.9547 -0.7900
  601MOL0     H81085   8.133   6.239  -0.414 -0.1983 -0.1186 -1.1887
  601MOL0     H81086   8.119   6.308  -0.707  0.0881 -1.1469 -1.8394
  601MOL0     H81087   8.427   6.160  -0.913 -0.5601 -1.3985  1.9746
  601MOL0     H81088   8.253   6.125  -0.907  0.6760 -1.4321  0.0207
  601MOL0     H81089   8.194   6.334  -1.006 -1.4191 -1.1330  1.4667
  601MOL0     H81090   8.359   6.401  -0.963  3.9289 -2.2827 -1.9232
  601MOL0     H81091   8.456   6.306  -1.140  0.2835  1.3128  5.1403
  601MOL0     H81092   8.323   6.390  -1.202 -3.3478  0.3631  0.3020
  601MOL0     H81093   8.367   6.079  -1.181  0.4813  0.5721  2.4648
  601MOL0     H81094   8.327   6.189  -1.318  1.4183  0.5876  0.7335
  601MOL0     H81095   8.105   5.941  -1.346  0.1348  0.6046  1.4161
  601MOL0     H81096   7.974   5.957  -1.562  0.4151 -1.2106  0.6537
  601MOL0     H81097   7.530   6.076  -1.638 -0.3920 -1.1617 -0.7681
  601MOL0     H81098   7.344   6.072  -1.812 -0.7282  0.0490 -1.6962
  601MOL0     H81099   7.189   6.503  -1.894  1.8291  2.0961 -1.3834
  601MOL0     H81100   7.252   6.448  -2.048 -1.5759 -0.9792 -1.5542
  601MOL0     H81101   7.037   6.386  -2.125 -2.0981 -0.7273 -0.0026
  601MOL0     H81102   6.996   6.315  -1.980 -1.9132  1.0757  2.3288
  601MOL0     H81103   6.936   6.528  -1.878 -1.9878  3.7162 -0.5913
  601MOL0     H81104   6.996   6.609  -2.017  0.3942 -0.8274 -0.6519
  601MOL0     H81105   6.733   6.555  -1.980 -1.4067  0.9279 -1.4713
  601MOL0     H81106   6.775   6.393  -2.038  0.5203 -0.3242  1.7660
  601MOL0     H81107   6.900   6.524  -2.243  0.8544  2.0701  1.7036
  601MOL0     H81108   6.801   6.646  -2.213  2.0263  0.7647 -0.5484
  601MOL0     H81109   6.678   6.490  -2.365  0.1145 -0.1740 -0.0093
  601MOL0     H81110   6.677   6.359  -2.248  0.8863 -0.6600 -0.3254
  601MOL0     H81111   6.533   6.639  -2.210  2.7617  1.2633  3.5959
  601MOL0     H81112   6.532   6.507  -2.094  0.0320  1.2339  0.0656
  601MOL0     H81113   6.450   6.466  -2.381  1.2780  0.2929  0.3791
  601MOL0     H81114   6.437   6.350  -2.249  1.2775 -0.9547 -2.1094
  601MOL0     H81115   7.425   6.503  -1.855 -3.7875  0.7057  1.5808
  601MOL0     H81116   7.637   6.472  -1.746  1.7215 -1.7275  0.5545
  601MOL0     H81117   7.844   6.348  -1.436 -3.3855 -1.2184  0.1643
  601MOL0     H81118   8.024   6.331  -1.231  0.2880  0.0700  0.4701
  601MOL0     H81119   7.559   6.126   0.083  0.8168  1.7337  0.2822
  601MOL0     H81120   7.400   5.954   0.160 -0.9328  0.2496 -0.5286
  601MOL0     H81121   7.316   5.616   0.413 -0.4968  0.2111  0.8606
  601MOL0     H81122   7.174   5.411   0.430 -3.8852 -2.4547 -1.3464
  601MOL0     H81123   6.752   5.344   0.464 -0.5713  0.8828 -0.8050
  601MOL0     H81124   6.866   5.431   0.584 -0.5712 -1.7150  1.3964
  601MOL0     H81125   7.003   5.262   0.612  0.3063  0.8645 -0.0145
  601MOL0     H81126   6.929   5.159   0.482  0.8993 -0.1835  0.6396
  601MOL0     H81127   6.727   5.148   0.575  1.4089  2.0482 -0.7133
  601MOL0     H81128   6.780   5.197   0.733  2.3206 -1.2214  0.7217
  601MOL0     H81129   6.795   4.955   0.731 -0.1534 -0.9614 -2.6336
  601MOL0     H81130   6.910   4.951   0.608  1.5046 -1.6342  2.3829
  601MOL0     H81131   7.120   5.091   0.952 -1.3943  1.9779  0.1566
  601MOL0     H81132   6.833   5.628   0.335  1.4949  0.4859 -1.1069
  601MOL0     H81133   6.832   5.845   0.253  1.0569 -0.8382 -1.2042
  601MOL0     H81134   6.920   5.948   0.367 -0.2428  0.4177 -0.2285
  601MOL0     H81135   6.989   5.911   0.223  0.2151  1.6880  1.1123
  602MOL0     O81136  10.268  11.108   5.775 -0.2632 -0.0285 -0.6773
  602MOL0     C81137  10.376  11.163   5.761  0.0742 -1.6943 -0.0407
  602MOL0     O81138  10.432  11.203   5.638  0.0063  0.2813 -0.0982
  602MOL0     C81139  10.354  11.173   5.528 -0.4726  0.2518  0.0094
  602MOL0     C81140  10.381  11.053   5.468 -0.5262  0.4405 -0.6370
  602MOL0     C81141  10.328  11.028   5.336 -0.1294 -0.7924  0.4759
  602MOL0     C81142  10.250  11.129   5.263  0.0010  0.3890 -0.6073
  602MOL0     O81143  10.201  11.109   5.134  0.5820 -0.5559 -0.8986
  602MOL0     C81144  10.202  11.219   5.046 -0.6365 -0.8064  0.3251
  602MOL0     C81145  10.092  11.201   4.940 -0.5844  0.3790 -0.3503
  602MOL0     C81146  10.098  11.310   4.840 -0.3871 -0.2185  0.1621
  602MOL0     C81147   9.978  11.302   4.757  1.1443 -0.5281 -0.2854
  602MOL0     C81148   9.969  11.417   4.653  0.1440 -0.5642  0.2610
  602MOL0     C81149   9.982  11.560   4.718  0.7092 -0.1385  0.5334
  602MOL0     C81150   9.934  11.682   4.631 -0.6496 -0.3930 -0.4040
  602MOL0     C81151   9.921  11.824   4.688  0.4142  0.3548 -0.1913
  602MOL0     N81152  10.012  11.833   4.803  0.5477  0.2879 -0.1306
  602MOL0     C81153   9.968  11.798   4.928  0.5430 -0.0495 -0.1429
  602MOL0     C81154  10.082  11.801   5.002  0.1924  0.4164 -0.0942
  602MOL0     C81155  10.074  11.781   5.152 -0.4565  0.3565 -0.2175
  602MOL0     C81156  10.215  11.788   5.216  0.5474  0.7917 -0.6574
  602MOL0     C81157  10.286  11.651   5.224  0.1295  0.2276  0.2301
  602MOL0     C81158  10.416  11.644   5.302  0.0581 -0.2547 -0.0894
  602MOL0     O81159  10.422  11.693   5.432 -0.2289 -0.3122  0.3951
  602MOL0     C81160  10.547  11.685   5.502  0.4466  0.2974  0.3580
  602MOL0     C81161  10.672  11.655   5.439 -0.3851  1.9386 -0.4766
  602MOL0     C81162  10.792  11.651   5.518 -0.5999  0.8603  0.4990
  602MOL0     C81163  10.781  11.673   5.657 -0.0515 -0.8694 -0.2697
  602MOL0     C81164  10.902  11.661   5.739 -0.5355  0.6214 -1.4456
  602MOL0     O81165  10.885  11.645   5.878 -0.1128 -0.1957 -0.3868
  602MOL0     C81166  10.994  11.645   5.957  0.1896  0.1150  0.3115
  602MOL0     C81167  11.006  11.531   6.036  0.1615  0.1077  0.6569
  602MOL0     C81168  11.112  11.524   6.138  0.5086  0.3714  0.3298
  602MOL0     C81169  11.195  11.635   6.161 -1.0887 -0.5303  0.5915
  602MOL0     O81170  11.294  11.634   6.256 -0.1462 -0.0217  0.5813
  602MOL0     C81171  11.273  11.574   6.383  0.3810 -0.3593  0.1721
  602MOL0     C81172  11.368  11.471   6.432  0.0084  0.5189 -0.2744
  602MOL0     C81173  11.405  11.371   6.326 -0.6555  0.6589  0.3397
  602MOL0     C81174  11.523  11.277   6.363  0.1427  0.1000 -0.4400
  602MOL0     C81175  11.550  11.165   6.272 -0.1831  0.2726 -0.1971
  602MOL0     C81176  11.680  11.100   6.308  1.2056  0.4429 -0.7946
  602MOL0     C81177  11.695  10.954   6.250 -0.1185 -0.8134 -0.8348
  602MOL0     C81178  11.830  10.888   6.261  1.0945 -0.2958  0.3619
  602MOL0    Cl81179  11.898  10.871   6.425  0.1674 -0.0286 -0.6278
  602MOL0     C81180  11.182  11.751   6.080 -0.1813  0.2747 -0.4700
  602MOL0     C81181  11.087  11.756   5.972  1.3965 -0.0896  0.0001
  602MOL0     O81182  11.007  11.667   5.680 -0.4105  0.7087  0.6360
  602MOL0     C81183  10.661  11.696   5.716  0.7957 -0.9250  0.1736
  602MOL0     C81184  10.550  11.712   5.638  0.3091  0.1368 -0.5649
  602MOL0     N81185  10.190  11.818   4.911 -0.4658  0.4255 -0.5124
  602MOL0     N81186  10.151  11.839   4.797  0.9202 -0.4067 -0.2628
  602MOL0     C81187  10.220  11.244   5.337  0.4064 -0.0984  0.2958
  602MOL0     C81188  10.270  11.267   5.469  0.0070  0.1464  0.4676
  602MOL0     C81189  10.444  11.217   5.881 -0.7075 -0.3161 -0.7641
  602MOL0     C81190  10.521  11.336   5.878  1.2143 -0.1396  0.6621
  602MOL0     C81191  10.596  11.373   5.985 -0.1555  0.7322  0.3117
  602MOL0     C81192  10.600  11.298   6.097 -0.4867 -0.1772  0.3642
  602MOL0     O81193  10.681  11.355   6.197 -0.6552 -0.2580  0.3521
  602MOL0     C81194  10.669  11.319   6.332  1.0904  0.0967 -0.0365
  602MOL0     C81195  10.540  11.362   6.410 -0.4146  0.3097 -0.2114
  602MOL0     C81196  10.495  11.511   6.374  0.6471 -0.2023  0.5993
  602MOL0     C81197  10.427  11.572   6.496  0.6565 -0.2340 -0.0097
  602MOL0     C81198  10.302  11.504   6.509  0.4450 -0.6241 -0.1358
  602MOL0     C81199  10.205  11.427   6.519 -0.3182 -0.0139  0.0195
  602MOL0     C81200  10.530  11.187   6.107 -0.5083 -0.7792 -0.0450
  602MOL0     C81201  10.446  11.142   6.008 -0.1101  0.2775 -0.2036
  602MOL0     C81202  10.356  11.029   6.035 -0.0797  1.3004  0.2809
  602MOL0     H81203  10.435  10.971   5.514  0.5778  0.7542 -1.3347
  602MOL0     H81204  10.340  10.928   5.294 -1.1705 -1.0151  0.6737
  602MOL0     H81205  10.173  11.319   5.081  2.0527  0.6950 -1.4016
  602MOL0     H81206  10.300  11.223   4.997 -0.2899  2.7549  1.0252
  602MOL0     H81207   9.993  11.201   4.986  0.7353 -3.8400  3.1664
  602MOL0     H81208  10.111  11.100   4.903  2.9019  1.2170 -1.2847
  602MOL0     H81209  10.186  11.305   4.775  1.8284  2.6842  2.6490
  602MOL0     H81210  10.100  11.409   4.886  1.5697 -0.0578 -0.1765
  602MOL0     H81211   9.988  11.205   4.708 -0.6347 -1.4786  1.1013
  602MOL0     H81212   9.885  11.306   4.815  0.5939  2.3678 -1.2053
  602MOL0     H81213  10.038  11.411   4.569  1.5048 -0.7117  1.3501
  602MOL0     H81214   9.871  11.409   4.606  0.3126  2.3101 -0.7739
  602MOL0     H81215   9.913  11.560   4.802 -0.7575  1.8276 -0.5894
  602MOL0     H81216  10.087  11.581   4.739  0.9837  2.4461 -2.5799
  602MOL0     H81217   9.833  11.648   4.608 -1.0729  0.4330  0.1854
  602MOL0     H81218   9.993  11.685   4.538 -0.3204  2.3321 -0.1865
  602MOL0     H81219   9.942  11.899   4.611  0.1306  1.2414  0.5736
  602MOL0     H81220   9.825  11.849   4.734  0.8478  0.7758  0.5174
  602MOL0     H81221   9.865  11.781   4.958  0.5316  0.7956  0.3053
  602MOL0     H81222  10.012  11.859   5.197 -1.2569 -2.7737  4.9133
  602MOL0     H81223  10.034  11.682   5.172  0.3403 -0.0078 -0.4151
  602MOL0     H81224  10.275  11.867   5.169 -0.5174  4.1384  3.0502
  602MOL0     H81225  10.202  11.818   5.320  2.5581  0.6907 -0.3330
  602MOL0     H81226  10.290  11.594   5.130 -0.9316  1.2178 -0.4464
  602MOL0     H81227  10.207  11.594   5.274 -1.7979  1.8283 -0.8495
  602MOL0     H81228  10.491  11.677   5.230  1.1982 -2.7895 -0.1810
  602MOL0     H81229  10.438  11.538   5.312  0.2907 -0.3490 -1.4047
  602MOL0     H81230  10.679  11.638   5.332  1.0114  4.8106 -0.9282
  602MOL0     H81231  10.889  11.632   5.474 -0.2427  0.0677  1.5855
  602MOL0     H81232  10.942  11.444   6.028  0.7153 -0.1950 -0.7569
  602MOL0     H81233  11.124  11.438   6.202 -2.1626 -0.8362 -0.6590
  602MOL0     H81234  11.266  11.655   6.456 -4.3072 -2.3926  2.4597
  602MOL0     H81235  11.172  11.533   6.377 -0.6277  1.7802  1.3361
  602MOL0     H81236  11.452  11.526   6.475 -0.8388  0.5240  1.4274
  602MOL0     H81237  11.313  11.416   6.509 -0.6787 -0.9485 -1.7246
  602MOL0     H81238  11.309  11.317   6.327 -1.3350  1.8016 -0.7478
  602MOL0     H81239  11.427  11.417   6.229 -1.3973 -0.6858 -0.4988
  602MOL0     H81240  11.501  11.234   6.461 -2.5673 -4.3713 -2.6651
  602MOL0     H81241  11.611  11.342   6.365 -1.0950  1.8081  0.9039
  602MOL0     H81242  11.550  11.190   6.165  2.2873  0.3396 -0.2355
  602MOL0     H81243  11.477  11.085   6.282 -0.9096  0.6675 -1.8698
  602MOL0     H81244  11.768  11.156   6.273  0.6662  1.6420 -0.2951
  602MOL0     H81245  11.694  11.101   6.416  0.1624 -2.5294 -0.5525
  602MOL0     H81246  11.657  10.962   6.148 -3.0083 -0.5077  0.1856
  602MOL0     H81247  11.622  10.883   6.290  1.5715 -0.3733  3.7304
  602MOL0     H81248  11.834  10.794   6.206  0.1120  0.0132 -0.2686
  602MOL0     H81249  11.897  10.948   6.199  0.1209  1.9443  1.3797
  602MOL0     H81250  11.224  11.845   6.116 -1.7267  0.7203  0.2224
  602MOL0     H81251  11.064  11.846   5.917  0.1113 -1.0156 -1.0463
  602MOL0     H81252  10.647  11.716   5.822 -1.1568  0.1992 -0.2622
  602MOL0     H81253  10.455  11.733   5.686 -0.4701 -3.7205 -0.1361
  602MOL0     H81254  10.136  11.297   5.292  0.8342 -0.4837 -1.0168
  602MOL0     H81255  10.226  11.344   5.532 -0.1217 -0.9761  1.8081
  602MOL0     H81256  10.518  11.394   5.786 -5.1161  1.2271  1.2690
  602MOL0     H81257  10.649  11.468   5.990 -0.5132  1.0839 -1.9059
  602MOL0     H81258  10.760  11.369   6.368  0.0591  0.6699  1.9152
  602MOL0     H81259  10.685  11.214   6.358  3.7124  0.2327 -0.7995
  602MOL0     H81260  10.574  11.345   6.512  1.4214  0.0690 -0.8214
  602MOL0     H81261  10.463  11.288   6.387 -0.3174 -0.4423  1.6675
  602MOL0     H81262  10.437  11.521   6.283  1.1895  1.4030  0.4097
  602MOL0     H81263  10.586  11.569   6.352  1.1150 -1.3434 -0.6050
  602MOL0     H81264  10.486  11.573   6.588 -2.8885  1.0580  2.4622
  602MOL0     H81265  10.407  11.676   6.470 -0.1427 -0.5322 -0.6114
  602MOL0     H81266  10.123  11.362   6.540  0.9906 -1.7125  0.0993
  602MOL0     H81267  10.527  11.129   6.199 -1.9662 -1.1080 -0.2737
  602MOL0     H81268  10.249  11.052   6.039  0.1468  2.1741  2.3962
  602MOL0     H81269  10.375  10.953   5.958  0.2518  1.5358  0.1298
  602MOL0     H81270  10.377  10.988   6.135  1.1360  0.4699 -0.2877
  603MOL0     O81271   3.205   0.621  10.004 -0.1339  0.0088  0.0742
  603MOL0     C81272   3.194   0.505   9.958  1.0711  0.7976 -0.6365
  603MOL0     O81273   3.287   0.445   9.879 -0.1653  0.7359 -0.0247
  603MOL0     C81274   3.419   0.492   9.876  0.2721  0.7405 -0.1160
  603MOL0     C81275   3.480   0.578   9.964 -0.3929  0.2533 -0.7886
  603MOL0     C81276   3.611   0.626   9.937  0.0034 -0.4092 -0.2149
  603MOL0     C81277   3.686   0.578   9.830 -0.0620  0.4169  0.6789
  603MOL0     O81278   3.813   0.601   9.796  0.4240  0.3906 -0.2136
  603MOL0     C81279   3.887   0.700   9.867  0.5342  0.1681 -0.8414
  603MOL0     C81280   3.859   0.846   9.806 -0.5615  0.4723  0.4107
  603MOL0     C81281   3.945   0.952   9.881 -0.4710 -0.0122  0.2114
  603MOL0     C81282   3.898   1.096   9.846 -0.9385  0.3763  0.5350
  603MOL0     C81283   3.976   1.201   9.927  0.0440  0.2522  0.5393
  603MOL0     C81284   3.963   1.343   9.877 -0.4325  0.2406 -0.5831
  603MOL0     C81285   4.052   1.430   9.967  0.9158 -0.0415 -0.5112
  603MOL0     C81286   3.995   1.576   9.948  0.1619  0.4322  0.2364
  603MOL0     N81287   4.087   1.665  10.013 -1.2983 -0.1251  0.1338
  603MOL0     C81288   4.205   1.725   9.971  0.4100 -0.5058  0.3744
  603MOL0     C81289   4.258   1.787  10.080  0.4391  0.8464 -0.1802
  603MOL0     C81290   4.402   1.830  10.081 -0.0769 -0.0717  0.6985
  603MOL0     C81291   4.447   1.924  10.200  1.1636  0.2074  0.4015
  603MOL0     C81292   4.600   1.957  10.201  0.0964  0.4151  0.7963
  603MOL0     C81293   4.640   2.042  10.076  0.2189 -0.2732 -0.4766
  603MOL0     O81294   4.773   2.088  10.090  0.1681  0.8662  0.3306
  603MOL0     C81295   4.794   2.212  10.150  0.0572 -0.3147 -0.8241
  603MOL0     C81296   4.702   2.278  10.241  0.7230 -0.0186  0.7290
  603MOL0     C81297   4.745   2.400  10.302 -0.1594 -0.0410 -0.5446
  603MOL0     C81298   4.873   2.449  10.291 -0.3948  0.4167  0.9098
  603MOL0     C81299   4.936   2.552  10.373  0.4368 -0.2467  0.4851
  603MOL0     O81300   5.076   2.546  10.383 -0.1409 -0.2930  0.1072
  603MOL0     C81301   5.141   2.640  10.459  0.7081 -0.3477 -0.2545
  603MOL0     C81302   5.196   2.618  10.581 -0.1100  0.2812 -0.1332
  603MOL0     C81303   5.253   2.719  10.649  0.2041 -0.2779  0.4281
  603MOL0     C81304   5.267   2.846  10.593 -1.0434  0.6885 -0.0714
  603MOL0     O81305   5.354   2.924  10.659 -0.0020  0.0934 -0.1958
  603MOL0     C81306   5.403   3.044  10.593 -0.4349  0.8316  0.3364
  603MOL0     C81307   5.504   3.096  10.688 -0.1480 -0.1054 -1.2018
  603MOL0     C81308   5.558   3.225  10.640  0.1706 -0.5893  0.0433
  603MOL0     C81309   5.662   3.285  10.735  0.1446  0.4374  0.0377
  603MOL0     C81310   5.700   3.432  10.700  0.0076 -0.4832 -0.3380
  603MOL0     C81311   5.776   3.464  10.572  0.7522 -0.2172 -0.5642
  603MOL0     C81312   5.927   3.432  10.583 -0.0222 -0.1196  0.0533
  603MOL0     C81313   5.992   3.398  10.454  0.7220  0.7634  0.4627
  603MOL0    Cl81314   6.166   3.381  10.496 -0.1447 -0.3146  0.2857
  603MOL0     C81315   5.206   2.871  10.473 -0.1703  0.9567  0.1131
  603MOL0     C81316   5.136   2.771  10.413  0.2555 -0.5201  0.0464
  603MOL0     O81317   4.864   2.641  10.417  0.2758 -0.1996 -0.6198
  603MOL0     C81318   4.958   2.379  10.201 -0.3430  0.4545  0.4865
  603MOL0     C81319   4.917   2.271  10.130 -1.0308  0.1424 -0.7776
  603MOL0     N81320   4.172   1.763  10.186  0.2473 -0.0966  0.4247
  603MOL0     N81321   4.064   1.705  10.141 -0.0510 -1.0887 -0.2097
  603MOL0     C81322   3.624   0.483   9.739  0.4721 -1.1922 -0.6052
  603MOL0     C81323   3.492   0.446   9.772  0.1858  0.2082 -0.1090
  603MOL0     C81324   3.067   0.428   9.979 -0.1176 -0.7619  1.4099
  603MOL0     C81325   3.045   0.302   9.916 -0.3268 -0.7089 -0.1396
  603MOL0     C81326   2.918   0.234   9.917  0.8109 -1.1538  0.9161
  603MOL0     C81327   2.812   0.297   9.980 -0.0785 -0.3259 -0.1992
  603MOL0     O81328   2.688   0.240   9.990 -0.2739 -0.1811  0.6417
  603MOL0     C81329   2.653   0.133   9.908 -0.7985  0.0029  0.0568
  603MOL0     C81330   2.504   0.140   9.878 -0.5714 -0.0377 -0.3095
  603MOL0     C81331   2.461   0.037   9.765 -0.1403  0.7679 -0.6992
  603MOL0     C81332   2.334   0.073   9.711  0.1626 -0.2480  0.0815
  603MOL0     C81333   2.312  -0.012   9.586  0.6873  0.0522  0.7216
  603MOL0     C81334   2.308  -0.103   9.508  0.0238 -0.4847 -0.3900
  603MOL0     C81335   2.835   0.411  10.057  0.3106 -0.6971  0.5364
  603MOL0     C81336   2.954   0.482  10.050 -0.3971 -0.6980 -0.8641
  603MOL0     C81337   2.965   0.606  10.135  0.7858  0.0079 -0.7322
  603MOL0     H81338   3.433   0.616  10.054  1.7148  0.1685  0.4127
  603MOL0     H81339   3.662   0.688  10.010  1.2593  1.2378 -2.3684
  603MOL0     H81340   3.872   0.687   9.975 -1.5703 -1.4401 -1.2752
  603MOL0     H81341   3.996   0.689   9.856  0.4963 -1.6917  0.2343
  603MOL0     H81342   3.752   0.861   9.819 -0.3646 -0.6980  6.1501
  603MOL0     H81343   3.876   0.850   9.698 -2.2822  1.9063  0.1541
  603MOL0     H81344   4.048   0.927   9.855 -0.1738  0.8007  0.5883
  603MOL0     H81345   3.927   0.934   9.988 -1.5398 -1.1427 -0.1350
  603MOL0     H81346   3.924   1.118   9.742  1.9031  0.5552  1.1912
  603MOL0     H81347   3.792   1.114   9.864 -0.5709  1.3205  1.8643
  603MOL0     H81348   3.942   1.197  10.031 -1.9921  2.7260  0.0632
  603MOL0     H81349   4.083   1.179   9.930 -0.0071 -0.0839  0.0746
  603MOL0     H81350   3.997   1.345   9.773  0.0965 -1.9858 -0.5155
  603MOL0     H81351   3.856   1.365   9.871 -0.3805  0.3879 -1.0059
  603MOL0     H81352   4.156   1.420   9.934  1.3833 -0.5945  1.0731
  603MOL0     H81353   4.057   1.407  10.073  2.8605  2.1169 -0.0618
  603MOL0     H81354   3.995   1.598   9.841  3.6323  2.5695  0.5342
  603MOL0     H81355   3.891   1.586   9.982  0.0267  1.1152 -0.3467
  603MOL0     H81356   4.237   1.722   9.867  2.1929  4.4339  0.5304
  603MOL0     H81357   4.472   1.745  10.080 -0.1954 -0.1706 -0.0986
  603MOL0     H81358   4.423   1.881   9.986  2.4643 -0.9249  0.7178
  603MOL0     H81359   4.390   2.017  10.187  0.8942 -0.1107 -0.8436
  603MOL0     H81360   4.413   1.879  10.294 -1.6516  0.9583 -0.1728
  603MOL0     H81361   4.657   1.865  10.190  1.4368  1.4219 -1.0101
  603MOL0     H81362   4.630   2.013  10.290  1.4254 -1.4654  1.6077
  603MOL0     H81363   4.563   2.118  10.060  1.6253  1.4766  0.6085
  603MOL0     H81364   4.643   1.976   9.989  1.9830 -0.1727 -0.5329
  603MOL0     H81365   4.607   2.235  10.270  0.1616  1.8246  1.7929
  603MOL0     H81366   4.672   2.459  10.356 -1.0239 -0.8442 -0.8107
  603MOL0     H81367   5.188   2.517  10.619  0.2153 -0.5510 -2.1496
  603MOL0     H81368   5.286   2.697  10.750 -0.8293  2.4934  1.4703
  603MOL0     H81369   5.442   3.016  10.494  1.9668 -0.5646  1.5686
  603MOL0     H81370   5.319   3.111  10.577 -1.4592 -1.3002 -6.2049
  603MOL0     H81371   5.452   3.115  10.783 -2.2206  3.4492 -2.8739
  603MOL0     H81372   5.585   3.024  10.706  1.3421  1.7498 -0.0509
  603MOL0     H81373   5.600   3.205  10.541 -1.4358  1.5702 -1.1519
  603MOL0     H81374   5.468   3.284  10.619  0.4772  1.3116  3.4233
  603MOL0     H81375   5.752   3.225  10.744  0.9931  1.8481  1.6460
  603MOL0     H81376   5.611   3.291  10.831 -0.3571 -0.1524 -0.1863
  603MOL0     H81377   5.756   3.480  10.781  0.9104 -0.8340 -0.7376
  603MOL0     H81378   5.610   3.494  10.700  0.4476  0.2675  1.9281
  603MOL0     H81379   5.728   3.417  10.486  0.5322  1.4057 -1.3695
  603MOL0     H81380   5.763   3.569  10.545  1.3505 -0.5313 -2.1886
  603MOL0     H81381   5.938   3.345  10.649  3.2282  0.3138  0.2289
  603MOL0     H81382   5.983   3.515  10.625  0.7857 -0.5046 -0.2403
  603MOL0     H81383   5.947   3.307  10.414  2.1143 -0.1354  0.8589
  603MOL0     H81384   5.994   3.480  10.382 -0.3268  2.5103  2.3112
  603MOL0     H81385   5.210   2.967  10.424  1.3224  0.3698 -1.0230
  603MOL0     H81386   5.089   2.792  10.318  1.3184 -1.2505 -0.6639
  603MOL0     H81387   5.057   2.417  10.178 -0.2221 -0.9687 -1.6331
  603MOL0     H81388   4.986   2.217  10.067 -0.4241 -0.0532  0.0309
  603MOL0     H81389   3.675   0.452   9.648  0.1818 -1.1775 -0.7763
  603MOL0     H81390   3.437   0.378   9.707 -0.3416  1.5304 -1.0944
  603MOL0     H81391   3.135   0.255   9.876  1.9737  1.1498  2.3894
  603MOL0     H81392   2.907   0.133   9.878 -2.3238  0.7128 -3.9257
  603MOL0     H81393   2.675   0.035   9.952  2.8346  0.0247 -1.3811
  603MOL0     H81394   2.705   0.135   9.812 -0.4718 -1.8341  0.1620
  603MOL0     H81395   2.485   0.240   9.838 -0.0221  0.6458  1.0614
  603MOL0     H81396   2.445   0.132   9.969 -0.5400 -1.6455 -0.3937
  603MOL0     H81397   2.446  -0.060   9.813  1.3458  0.2692 -1.1827
  603MOL0     H81398   2.544   0.022   9.696  0.9389  1.8004  0.3350
  603MOL0     H81399   2.266   0.061   9.795 -0.4484  0.9996 -0.1991
  603MOL0     H81400   2.334   0.178   9.678  1.4274  0.3367  1.8074
  603MOL0     H81401   2.283  -0.177   9.435 -1.5848  0.7892 -1.2043
  603MOL0     H81402   2.744   0.442  10.106  0.9696  2.4118 -0.0081
  603MOL0     H81403   2.965   0.693  10.070 -0.4582  3.6773  3.6861
  603MOL0     H81404   2.879   0.609  10.203  1.2502 -1.4713 -0.0391
  603MOL0     H81405   3.060   0.595  10.189  2.3556 -1.7508 -3.5707
  604MOL0     O81406   2.396   6.140  10.107  0.1733 -0.2487 -0.0169
  604MOL0     C81407   2.323   6.202  10.024 -0.0714 -0.2438  0.0929
  604MOL0     O81408   2.361   6.226   9.895 -0.4988  0.7078 -0.0900
  604MOL0     C81409   2.478   6.167   9.859  0.5375  0.1107 -0.6477
  604MOL0     C81410   2.483   6.034   9.809  0.2621  0.1023 -0.2073
  604MOL0     C81411   2.602   5.978   9.753 -0.4663 -0.1657  0.3469
  604MOL0     C81412   2.714   6.058   9.746 -0.0818  0.3888  0.3452
  604MOL0     O81413   2.829   6.024   9.685 -0.5043 -0.2766  0.1808
  604MOL0     C81414   2.834   5.897   9.612 -0.0850  0.0884 -0.3166
  604MOL0     C81415   2.960   5.903   9.519  0.7029  0.6878  0.0554
  604MOL0     C81416   3.084   5.928   9.596 -0.6918  0.0417 -0.2696
  604MOL0     C81417   3.214   5.887   9.504  0.6160  0.9612 -0.4056
  604MOL0     C81418   3.357   5.890   9.577 -0.9558 -1.1517 -0.3422
  604MOL0     C81419   3.463   5.826   9.488  0.5028  0.5034 -0.2984
  604MOL0     C81420   3.601   5.815   9.543 -0.8317 -1.0675  0.3371
  604MOL0     C81421   3.697   5.752   9.442 -0.1003  0.0320  1.2300
  604MOL0     N81422   3.824   5.712   9.504  0.5733 -0.8451  0.7832
  604MOL0     C81423   3.927   5.805   9.514 -0.3821 -0.2290 -0.0338
  604MOL0     C81424   4.028   5.728   9.561  0.9218 -0.6840 -0.8396
  604MOL0     C81425   4.172   5.780   9.577  0.2932  0.3464  0.3216
  604MOL0     C81426   4.262   5.765   9.459  1.1924  0.9196  0.2782
  604MOL0     C81427   4.399   5.789   9.507  0.8780  0.3123 -0.1124
  604MOL0     C81428   4.502   5.737   9.405 -0.1449  0.3893 -0.1993
  604MOL0     O81429   4.636   5.773   9.459 -0.0125  0.0771 -0.5304
  604MOL0     C81430   4.753   5.750   9.400 -0.5150  0.6120 -0.5557
  604MOL0     C81431   4.767   5.646   9.310  0.0567 -0.7453 -0.1464
  604MOL0     C81432   4.886   5.622   9.253 -0.8732 -0.0793  0.6434
  604MOL0     C81433   5.000   5.688   9.300  0.2557 -0.1999  0.2319
  604MOL0     C81434   5.144   5.663   9.247 -0.6990  0.6755  0.2392
  604MOL0     O81435   5.248   5.752   9.294 -0.2872 -0.2521 -0.0346
  604MOL0     C81436   5.384   5.728   9.269  0.9292  0.2847 -0.9066
  604MOL0     C81437   5.439   5.669   9.149  0.2978 -0.1682 -0.2599
  604MOL0     C81438   5.581   5.643   9.139  0.5968 -0.6606  0.4689
  604MOL0     C81439   5.660   5.688   9.251  0.1156  1.0099 -0.0079
  604MOL0     O81440   5.794   5.661   9.255  0.7629 -0.2126  0.4071
  604MOL0     C81441   5.852   5.587   9.142 -0.4054  0.3534 -0.6593
  604MOL0     C81442   5.989   5.632   9.169 -1.0194 -0.7528 -0.2515
  604MOL0     C81443   6.089   5.555   9.088 -0.0625  0.5314 -0.9505
  604MOL0     C81444   6.192   5.649   9.034  0.5553  0.3397  0.5152
  604MOL0     C81445   6.281   5.577   8.939 -0.1815  0.0418  0.3382
  604MOL0     C81446   6.347   5.664   8.825 -0.6872  0.6455 -0.0381
  604MOL0     C81447   6.396   5.582   8.707 -0.4395 -0.4956 -1.1749
  604MOL0     C81448   6.420   5.675   8.580  0.0123 -0.5653 -0.2026
  604MOL0    Cl81449   6.282   5.694   8.470 -0.2546  0.0943  0.0640
  604MOL0     C81450   5.603   5.758   9.358 -0.1315 -0.0227 -0.1633
  604MOL0     C81451   5.467   5.783   9.362 -0.5766 -0.1882 -0.1864
  604MOL0     O81452   5.160   5.566   9.172 -0.1953  0.3962 -0.5662
  604MOL0     C81453   4.989   5.785   9.394 -0.0678  0.7377  0.2857
  604MOL0     C81454   4.863   5.816   9.438 -0.5816  0.0656 -0.4787
  604MOL0     N81455   3.979   5.596   9.585 -0.3926 -0.4179 -0.7002
  604MOL0     N81456   3.857   5.592   9.550  0.9926 -0.1563  0.8231
  604MOL0     C81457   2.719   6.182   9.820  0.6782  0.3904 -0.7809
  604MOL0     C81458   2.590   6.240   9.861 -0.4058  0.4694 -0.0016
  604MOL0     C81459   2.189   6.258  10.073  1.1029  0.2557 -0.4305
  604MOL0     C81460   2.073   6.223  10.006  0.5306 -0.7252 -0.3267
  604MOL0     C81461   1.947   6.255  10.048  0.2891  0.6375 -0.8733
  604MOL0     C81462   1.930   6.326  10.165 -0.1999 -0.3174 -0.6681
  604MOL0     O81463   1.814   6.366  10.218 -0.0506 -0.4723  0.0023
  604MOL0     C81464   1.690   6.314  10.171  0.4785 -0.3462  0.6780
  604MOL0     C81465   1.595   6.374  10.275  1.0255  0.4441 -0.8890
  604MOL0     C81466   1.442   6.337  10.256 -0.7060  0.8874  0.7145
  604MOL0     C81467   1.359   6.437  10.335  0.0179  0.0946 -0.1856
  604MOL0     C81468   1.360   6.428  10.474 -0.4389  0.4398 -0.8661
  604MOL0     C81469   1.396   6.426  10.584 -0.9231 -0.2433 -0.7019
  604MOL0     C81470   2.042   6.366  10.230  0.0765 -1.0264 -1.8804
  604MOL0     C81471   2.172   6.338  10.192 -0.3937 -0.2720 -0.2114
  604MOL0     C81472   2.293   6.397  10.263  0.0915  0.7602  0.0703
  604MOL0     H81473   2.398   5.966   9.802 -0.1938  0.7444 -1.1141
  604MOL0     H81474   2.585   5.881   9.707 -0.7373 -0.1669  0.4487
  604MOL0     H81475   2.840   5.808   9.675  0.8492 -1.7922 -2.8840
  604MOL0     H81476   2.754   5.896   9.539  0.2671 -1.8554 -0.7117
  604MOL0     H81477   2.941   5.994   9.462  0.2597  1.9219  2.0679
  604MOL0     H81478   2.974   5.809   9.464 -0.1196 -0.7368  2.1561
  604MOL0     H81479   3.085   5.870   9.689 -0.1254  1.6479  0.7715
  604MOL0     H81480   3.094   6.029   9.635  0.4109 -0.2739  0.3139
  604MOL0     H81481   3.193   5.789   9.460  2.1084  0.3672  0.1537
  604MOL0     H81482   3.220   5.947   9.412  4.7891 -0.0887 -1.0131
  604MOL0     H81483   3.391   5.991   9.603 -0.5990 -1.3115 -0.1888
  604MOL0     H81484   3.353   5.841   9.675 -2.5802 -0.6809 -0.1410
  604MOL0     H81485   3.438   5.724   9.460 -2.6134  1.0109  0.2292
  604MOL0     H81486   3.463   5.878   9.392  1.7097 -0.3997 -0.8113
  604MOL0     H81487   3.589   5.732   9.613 -1.7310 -2.2115 -1.1222
  604MOL0     H81488   3.631   5.914   9.579 -2.6729  0.1733 -1.3452
  604MOL0     H81489   3.653   5.658   9.408 -0.7732  0.3097  1.3288
  604MOL0     H81490   3.716   5.813   9.353 -2.5299 -3.1754 -1.7546
  604MOL0     H81491   3.935   5.912   9.492 -2.9865  0.5112  2.1176
  604MOL0     H81492   4.168   5.886   9.604  5.2335  0.7714  0.3593
  604MOL0     H81493   4.201   5.732   9.671 -0.6172 -0.2878  0.2837
  604MOL0     H81494   4.264   5.661   9.426  2.6410  0.6168  1.1818
  604MOL0     H81495   4.224   5.821   9.373 -2.1540 -1.5901 -0.0366
  604MOL0     H81496   4.425   5.740   9.601  3.8843  1.2149 -0.3665
  604MOL0     H81497   4.417   5.895   9.529  1.1784  0.0126  1.1517
  604MOL0     H81498   4.488   5.769   9.301 -0.3619 -0.9575 -0.5980
  604MOL0     H81499   4.489   5.629   9.410  0.8810  0.3080  1.2431
  604MOL0     H81500   4.680   5.591   9.277  1.0828 -2.7956  0.4583
  604MOL0     H81501   4.903   5.545   9.179  4.6248 -1.0757  2.5106
  604MOL0     H81502   5.369   5.630   9.075 -1.5298 -0.0934  1.3441
  604MOL0     H81503   5.603   5.588   9.048 -0.1710  1.0941 -0.8248
  604MOL0     H81504   5.834   5.480   9.150 -0.2631  0.4590  3.0636
  604MOL0     H81505   5.822   5.623   9.043 -1.1363  1.5545 -0.0281
  604MOL0     H81506   5.988   5.737   9.137 -0.2563 -0.9460 -0.9594
  604MOL0     H81507   6.025   5.621   9.271  1.7045 -2.6220 -1.2807
  604MOL0     H81508   6.131   5.479   9.155  0.0746  1.6286  0.2262
  604MOL0     H81509   6.032   5.505   9.009 -1.9871  1.2512 -0.0835
  604MOL0     H81510   6.253   5.688   9.116 -0.2122  0.9151  0.8319
  604MOL0     H81511   6.142   5.728   8.976 -0.5827 -1.5077 -1.1300
  604MOL0     H81512   6.209   5.516   8.885  0.1614  1.9539 -2.4991
  604MOL0     H81513   6.352   5.506   8.982 -0.7654 -1.6623 -1.3713
  604MOL0     H81514   6.272   5.739   8.795  2.3167  3.5084 -1.0833
  604MOL0     H81515   6.430   5.723   8.864  0.0521  1.0063 -2.0096
  604MOL0     H81516   6.320   5.508   8.683 -0.3964 -0.6840 -0.7541
  604MOL0     H81517   6.490   5.531   8.730  0.2624  1.2158 -0.0254
  604MOL0     H81518   6.466   5.770   8.610 -3.5897  1.4975 -0.6932
  604MOL0     H81519   6.498   5.617   8.530  0.6692 -0.0997  0.2612
  604MOL0     H81520   5.681   5.788   9.427  1.1994 -2.0786 -0.6767
  604MOL0     H81521   5.425   5.830   9.450  1.0912 -0.7934  0.9883
  604MOL0     H81522   5.071   5.853   9.416 -0.3485  1.8119 -1.6736
  604MOL0     H81523   4.836   5.898   9.504 -2.0398  0.4919 -1.5517
  604MOL0     H81524   2.810   6.240   9.821 -0.3087  2.0485  1.3365
  604MOL0     H81525   2.575   6.344   9.888 -0.6748  1.1005 -2.3994
  604MOL0     H81526   2.073   6.184   9.905 -4.7276  0.6841 -1.1654
  604MOL0     H81527   1.850   6.231  10.008 -0.6495 -3.1466  2.9469
  604MOL0     H81528   1.683   6.205  10.178 -2.0924 -0.5761 -2.9728
  604MOL0     H81529   1.675   6.354  10.070  2.3237 -0.2482  0.3949
  604MOL0     H81530   1.606   6.483  10.277 -2.9607  1.0362  1.8882
  604MOL0     H81531   1.615   6.346  10.379 -2.8502  0.9655  0.1547
  604MOL0     H81532   1.425   6.234  10.289 -0.5494  0.6801  0.1623
  604MOL0     H81533   1.420   6.335  10.149  3.0180 -0.5153 -0.1619
  604MOL0     H81534   1.409   6.533  10.314  2.7464 -0.9644  0.9345
  604MOL0     H81535   1.259   6.420  10.296 -0.4763 -0.7179  1.3647
  604MOL0     H81536   1.447   6.431  10.679  0.1892 -0.8275 -1.2471
  604MOL0     H81537   2.023   6.432  10.314  1.4487 -1.2025 -1.4031
  604MOL0     H81538   2.351   6.319  10.312 -2.8000 -0.8864  1.1355
  604MOL0     H81539   2.361   6.450  10.196  2.0505 -0.7391  0.7884
  604MOL0     H81540   2.267   6.467  10.343 -3.7276  0.5464 -0.7671
  605MOL0     O81541   1.404  10.625   2.089  0.4842  0.6595 -0.1160
  605MOL0     C81542   1.447  10.643   2.203 -0.1049 -0.1593 -0.2013
  605MOL0     O81543   1.496  10.767   2.248  0.1466 -0.0820  0.1183
  605MOL0     C81544   1.533  10.853   2.153  0.8661 -0.4262 -0.3864
  605MOL0     C81545   1.447  10.960   2.117  1.1143  0.1188 -0.5913
  605MOL0     C81546   1.483  11.060   2.030  0.9131 -0.8422 -0.2471
  605MOL0     C81547   1.603  11.053   1.955 -0.0674  0.2658 -0.1229
  605MOL0     O81548   1.623  11.150   1.864  0.0225 -0.3097 -0.2612
  605MOL0     C81549   1.756  11.175   1.814  0.5431 -0.6158 -0.3278
  605MOL0     C81550   1.846  11.244   1.921 -0.4611 -0.4099 -0.1836
  605MOL0     C81551   1.966  11.308   1.861 -1.1073  0.6999 -0.3894
  605MOL0     C81552   2.075  11.297   1.985 -0.6713 -0.4385  0.4943
  605MOL0     C81553   2.216  11.335   1.938 -0.0254 -0.4850  0.6333
  605MOL0     C81554   2.275  11.212   1.866  0.2782 -0.0632  0.4067
  605MOL0     C81555   2.420  11.220   1.813 -0.1072  0.2672 -0.3236
  605MOL0     C81556   2.525  11.231   1.923 -0.0758 -0.3792  0.1275
  605MOL0     N81557   2.651  11.278   1.858 -0.7881  0.4751 -0.4386
  605MOL0     C81558   2.734  11.214   1.766  0.2072 -1.0077 -1.1435
  605MOL0     C81559   2.841  11.296   1.768  0.3679  0.5138 -0.2591
  605MOL0     C81560   2.963  11.278   1.677  0.5966  0.0273 -0.0808
  605MOL0     C81561   3.061  11.404   1.673 -0.0726 -0.9115  0.2234
  605MOL0     C81562   3.158  11.387   1.792  0.6816 -0.3939  1.2157
  605MOL0     C81563   3.302  11.433   1.755  0.3161 -0.6817 -0.4786
  605MOL0     O81564   3.327  11.575   1.735  0.1171 -0.4730 -0.1820
  605MOL0     C81565   3.457  11.611   1.698 -0.2571 -0.8113 -0.8253
  605MOL0     C81566   3.565  11.528   1.711  0.0514  0.4959 -0.5597
  605MOL0     C81567   3.693  11.576   1.668  0.3830  0.3534  0.0184
  605MOL0     C81568   3.715  11.701   1.612 -0.0384  1.0595 -0.7190
  605MOL0     C81569   3.853  11.755   1.582 -0.6427 -0.8304  0.4728
  605MOL0     O81570   3.966  11.679   1.602 -0.0515  0.2890 -0.5855
  605MOL0     C81571   4.088  11.724   1.558 -0.9922  0.3861 -0.5670
  605MOL0     C81572   4.177  11.792   1.639 -0.2439  0.3089  0.3736
  605MOL0     C81573   4.305  11.842   1.592 -0.7664 -0.1342  1.0395
  605MOL0     C81574   4.332  11.829   1.455  0.2057 -0.7109  0.3046
  605MOL0     O81575   4.462  11.875   1.418  0.5215 -0.7866  0.0930
  605MOL0     C81576   4.506  11.879   1.283 -0.4547 -0.1260 -0.0799
  605MOL0     C81577   4.632  11.964   1.263 -0.2161  0.3466  0.2153
  605MOL0     C81578   4.630  12.103   1.334 -0.2099 -0.2318 -0.5461
  605MOL0     C81579   4.741  12.208   1.299  1.0279 -0.0075 -0.2516
  605MOL0     C81580   4.727  12.270   1.162 -0.0890 -0.4505  0.2413
  605MOL0     C81581   4.809  12.399   1.156 -0.0336 -0.6466 -0.2965
  605MOL0     C81582   4.828  12.464   1.018 -1.0572 -0.0401  0.0443
  605MOL0     C81583   4.907  12.602   1.021 -0.3290  0.4084  0.3559
  605MOL0    Cl81584   4.945  12.642   0.847 -0.6522  0.2574  0.4178
  605MOL0     C81585   4.244  11.756   1.375  0.9220  0.2107  0.8449
  605MOL0     C81586   4.126  11.703   1.427 -0.9227  0.6040 -0.1744
  605MOL0     O81587   3.850  11.873   1.543  0.0300  0.1035 -0.5276
  605MOL0     C81588   3.601  11.772   1.582  0.4367 -1.3581 -0.7806
  605MOL0     C81589   3.471  11.736   1.630  0.7055  0.1143 -0.6007
  605MOL0     N81590   2.835  11.401   1.860  0.4660  0.1460 -0.1635
  605MOL0     N81591   2.710  11.398   1.906  0.2802 -0.1003 -0.4624
  605MOL0     C81592   1.692  10.948   1.976  0.3590 -0.3688 -0.4622
  605MOL0     C81593   1.652  10.850   2.073  0.6697 -0.6787  0.1810
  605MOL0     C81594   1.418  10.548   2.315 -0.4558 -0.9477  0.2455
  605MOL0     C81595   1.307  10.468   2.295  0.1431 -0.2077  0.2886
  605MOL0     C81596   1.277  10.371   2.385 -0.4304  0.8316 -0.0567
  605MOL0     C81597   1.359  10.345   2.499 -0.4667  0.3673  1.1907
  605MOL0     O81598   1.344  10.242   2.585  0.4258  0.6037  0.8240
  605MOL0     C81599   1.215  10.165   2.572  0.1160  0.1683 -0.0160
  605MOL0     C81600   1.200  10.060   2.679 -0.1618 -0.5133 -0.1030
  605MOL0     C81601   1.318   9.968   2.681 -0.4712 -0.5270  0.3321
  605MOL0     C81602   1.304   9.851   2.770 -0.1276  1.1402 -0.1375
  605MOL0     C81603   1.399   9.744   2.737 -0.2412  0.7185 -0.2721
  605MOL0     C81604   1.482   9.659   2.704  0.2199  0.7257  0.2196
  605MOL0     C81605   1.463  10.432   2.525 -0.3308 -1.5388  0.6717
  605MOL0     C81606   1.495  10.537   2.435  0.9138 -0.0762  0.9065
  605MOL0     C81607   1.614  10.622   2.466 -1.0245  1.1014 -0.1452
  605MOL0     H81608   1.351  10.965   2.167  1.4389 -0.9321  0.1911
  605MOL0     H81609   1.408  11.139   2.025  0.7844 -1.0386 -2.7433
  605MOL0     H81610   1.807  11.088   1.772 -2.0064 -2.5213  0.2816
  605MOL0     H81611   1.739  11.247   1.733 -2.7532 -0.8149  0.0460
  605MOL0     H81612   1.879  11.162   1.986 -1.0236 -0.6640 -0.2153
  605MOL0     H81613   1.798  11.326   1.975  1.1034  0.6178 -0.2993
  605MOL0     H81614   1.941  11.410   1.834 -0.6488  0.4637 -1.7842
  605MOL0     H81615   1.995  11.261   1.766 -1.5446 -0.0962 -0.1444
  605MOL0     H81616   2.045  11.369   2.062  1.3877  1.7392 -0.6219
  605MOL0     H81617   2.083  11.195   2.025 -1.0995 -1.0822 -1.0099
  605MOL0     H81618   2.200  11.421   1.871  2.4224 -0.5946 -0.1727
  605MOL0     H81619   2.281  11.369   2.019  2.3856  0.3610 -1.5401
  605MOL0     H81620   2.270  11.130   1.938 -2.1970 -0.1052  0.2473
  605MOL0     H81621   2.211  11.177   1.785 -0.4186  2.5017 -0.2474
  605MOL0     H81622   2.430  11.296   1.735 -0.0523  2.7224  1.9409
  605MOL0     H81623   2.434  11.120   1.771  0.1987 -0.4472  1.3733
  605MOL0     H81624   2.497  11.300   2.002 -2.3010 -2.2030  1.0331
  605MOL0     H81625   2.547  11.137   1.975  0.0946 -0.0070  0.7271
  605MOL0     H81626   2.703  11.128   1.707 -1.9654 -1.8179  1.0129
  605MOL0     H81627   3.011  11.182   1.700 -0.9984 -0.5034  1.3003
  605MOL0     H81628   2.933  11.274   1.572  1.3762  0.5966 -0.3267
  605MOL0     H81629   3.103  11.411   1.572 -1.6044 -1.6924 -0.4989
  605MOL0     H81630   3.011  11.500   1.684  0.2818 -0.5529 -1.0752
  605MOL0     H81631   3.168  11.282   1.821  1.9056 -0.2783  1.2420
  605MOL0     H81632   3.113  11.449   1.870  0.4646  1.8572 -0.5654
  605MOL0     H81633   3.332  11.379   1.664 -2.8292 -4.2079  0.3441
  605MOL0     H81634   3.376  11.407   1.831  0.3178 -0.2347 -0.3218
  605MOL0     H81635   3.558  11.435   1.766  0.8072  0.9483  0.3349
  605MOL0     H81636   3.781  11.520   1.699 -0.8215 -3.4415 -2.6272
  605MOL0     H81637   4.156  11.808   1.744 -2.0304 -0.0764  0.0986
  605MOL0     H81638   4.373  11.879   1.668 -0.1453 -1.2982  1.0655
  605MOL0     H81639   4.502  11.779   1.238 -2.5242 -0.0915 -0.1018
  605MOL0     H81640   4.428  11.930   1.226  0.1345  0.1469 -0.6494
  605MOL0     H81641   4.721  11.904   1.284  1.5553  1.9762 -2.1871
  605MOL0     H81642   4.621  11.991   1.158 -0.9674  0.2617  0.2621
  605MOL0     H81643   4.533  12.146   1.305 -0.8890 -0.4902  1.2067
  605MOL0     H81644   4.644  12.086   1.441 -0.6794  1.2491 -0.2301
  605MOL0     H81645   4.841  12.164   1.308  1.2852  0.3254 -1.3475
  605MOL0     H81646   4.729  12.292   1.367 -2.4281 -1.0050  0.5622
  605MOL0     H81647   4.622  12.288   1.139  0.4406 -0.4171 -2.5173
  605MOL0     H81648   4.748  12.192   1.088 -0.9330  0.9306 -1.5263
  605MOL0     H81649   4.757  12.476   1.214 -0.6270  2.3564 -4.4061
  605MOL0     H81650   4.907  12.390   1.205 -1.3011 -0.5369  2.4392
  605MOL0     H81651   4.727  12.477   0.978 -1.2806  0.4006  0.7322
  605MOL0     H81652   4.893  12.393   0.967 -2.3005 -2.6862  1.9236
  605MOL0     H81653   4.842  12.670   1.077  0.1558 -0.0590  1.5183
  605MOL0     H81654   5.000  12.603   1.078 -0.4353 -0.7671  0.5735
  605MOL0     H81655   4.277  11.724   1.277  1.8312 -1.9561  1.7838
  605MOL0     H81656   4.063  11.639   1.366 -1.5389  0.6813  0.3728
  605MOL0     H81657   3.595  11.872   1.540 -0.4483 -1.6783 -1.4490
  605MOL0     H81658   3.385  11.802   1.627 -2.3891 -3.6376 -3.2324
  605MOL0     H81659   1.775  10.918   1.913 -0.8000 -3.2512 -0.7820
  605MOL0     H81660   1.714  10.761   2.080  0.6757 -0.8131 -1.3235
  605MOL0     H81661   1.243  10.481   2.207  1.5052  1.1612 -0.5399
  605MOL0     H81662   1.195  10.304   2.362 -0.2323  0.3131  0.7037
  605MOL0     H81663   1.231  10.115   2.476  3.1050  0.2463  0.3240
  605MOL0     H81664   1.128  10.231   2.562 -1.1379 -1.4052  0.2120
  605MOL0     H81665   1.111  10.001   2.652 -0.5588 -0.8384  1.7852
  605MOL0     H81666   1.182  10.103   2.778 -1.1448  1.1142 -0.9588
  605MOL0     H81667   1.404  10.026   2.714 -0.2383 -0.2383 -0.7190
  605MOL0     H81668   1.348   9.938   2.580  0.5750  1.8364 -0.1237
  605MOL0     H81669   1.323   9.874   2.876  0.6401  1.4244 -0.3255
  605MOL0     H81670   1.202   9.815   2.758 -0.8181  2.8045  0.4531
  605MOL0     H81671   1.542   9.576   2.674 -0.6832  0.0655  0.1924
  605MOL0     H81672   1.515  10.413   2.619  1.4205 -3.1312 -0.5628
  605MOL0     H81673   1.674  10.585   2.550 -1.5404  0.7989  0.0923
  605MOL0     H81674   1.679  10.627   2.378 -1.9964 -1.9907 -1.1416
  605MOL0     H81675   1.575  10.717   2.503  0.4594  0.9882  1.8818
  606MOL0     O81676   9.296   1.957   2.976  0.2378  0.0727 -0.0085
  606MOL0     C81677   9.257   2.073   2.965 -0.2236  0.4059 -1.2649
  606MOL0     O81678   9.291   2.180   3.043  0.3214 -0.6014 -0.0857
  606MOL0     C81679   9.400   2.170   3.116 -0.3224 -0.3972  0.3672
  606MOL0     C81680   9.392   2.176   3.255  1.0478 -0.4491  0.0661
  606MOL0     C81681   9.495   2.180   3.340  0.1312  0.2117  0.1805
  606MOL0     C81682   9.623   2.176   3.285 -0.0068  0.4624 -0.6507
  606MOL0     O81683   9.711   2.170   3.388  0.2637  1.0841 -0.4455
  606MOL0     C81684   9.831   2.100   3.352 -0.3359 -0.1503 -0.4949
  606MOL0     C81685   9.905   2.052   3.484  0.2384  0.9070  0.6201
  606MOL0     C81686  10.032   1.972   3.455  0.5302  0.4619 -0.4796
  606MOL0     C81687  10.150   2.062   3.413 -0.1429  0.9395 -0.6238
  606MOL0     C81688  10.272   1.981   3.383 -0.1556 -0.4083  0.6411
  606MOL0     C81689  10.352   1.947   3.508 -0.1178  0.6007 -0.8053
  606MOL0     C81690  10.485   1.874   3.482  0.9275  0.1172  0.3432
  606MOL0     C81691  10.478   1.726   3.524  1.0359 -0.0524 -0.2698
  606MOL0     N81692  10.613   1.681   3.567 -0.0674 -0.7102 -0.7401
  606MOL0     C81693  10.681   1.703   3.686  0.3495 -0.4823 -0.6690
  606MOL0     C81694  10.802   1.628   3.676  0.4646 -1.2261 -0.5412
  606MOL0     C81695  10.896   1.621   3.786  0.2806 -0.7276 -0.2014
  606MOL0     C81696  10.953   1.477   3.797  0.7590 -0.3425 -0.0272
  606MOL0     C81697  11.048   1.453   3.907  0.0916  0.1823  0.7972
  606MOL0     C81698  11.172   1.548   3.895 -0.3993 -0.0043  1.0689
  606MOL0     O81699  11.278   1.486   3.963 -0.3320  0.6835 -0.1124
  606MOL0     C81700  11.382   1.580   3.984  0.2139  0.3447 -0.3174
  606MOL0     C81701  11.421   1.688   3.903  0.2441  0.0231  0.4620
  606MOL0     C81702  11.535   1.767   3.938 -0.1644  0.3332 -0.0355
  606MOL0     C81703  11.616   1.732   4.053 -0.1342  0.6016 -1.0159
  606MOL0     C81704  11.729   1.820   4.075 -0.2440 -0.5885 -0.5674
  606MOL0     O81705  11.723   1.943   4.024 -0.2226 -0.9051  0.5219
  606MOL0     C81706  11.792   2.054   4.062 -0.1742  0.3191  0.2669
  606MOL0     C81707  11.871   2.066   4.171 -0.5381 -0.0699 -0.6916
  606MOL0     C81708  11.920   2.194   4.210 -0.2928 -0.2251 -0.6263
  606MOL0     C81709  11.889   2.301   4.128  0.5269 -0.8539 -0.2194
  606MOL0     O81710  11.930   2.426   4.139 -0.4135 -0.4200 -0.4942
  606MOL0     C81711  12.025   2.448   4.240  0.1426  0.0808  0.2019
  606MOL0     C81712  12.065   2.600   4.247  1.3205  0.4506 -0.1233
  606MOL0     C81713  12.189   2.615   4.157 -0.2380 -0.6322 -0.7322
  606MOL0     C81714  12.246   2.761   4.163 -0.0030 -0.1032  0.4640
  606MOL0     C81715  12.372   2.787   4.072  0.5393 -0.0809  0.2824
  606MOL0     C81716  12.489   2.684   4.081 -0.3583 -0.2794  0.6555
  606MOL0     C81717  12.556   2.684   4.221 -0.6928  0.1967  0.4590
  606MOL0     C81718  12.551   2.545   4.278  0.3079 -0.6361 -0.4423
  606MOL0    Cl81719  12.660   2.536   4.417  0.4441 -0.2754  0.0438
  606MOL0     C81720  11.819   2.282   4.006 -0.5695  0.0837  0.2541
  606MOL0     C81721  11.766   2.160   3.974  0.0657 -0.4774  0.0233
  606MOL0     O81722  11.813   1.780   4.157  0.6313  0.2091 -0.0559
  606MOL0     C81723  11.576   1.619   4.129  0.1306 -0.3517  0.6964
  606MOL0     C81724  11.460   1.549   4.094  0.5971 -0.7750 -0.2208
  606MOL0     N81725  10.823   1.598   3.549 -0.1097 -0.2752 -0.0721
  606MOL0     N81726  10.710   1.623   3.486  0.8843  0.6632 -0.0018
  606MOL0     C81727   9.647   2.172   3.147  0.5088  0.7866  0.4254
  606MOL0     C81728   9.531   2.166   3.062 -0.6626 -0.3224  0.3171
  606MOL0     C81729   9.150   2.104   2.854 -0.1669 -1.4799  0.0500
  606MOL0     C81730   9.179   2.212   2.769 -0.1741 -0.0575  0.1194
  606MOL0     C81731   9.084   2.254   2.664 -0.0356  0.2270  0.7588
  606MOL0     C81732   8.963   2.193   2.654  0.8577 -0.1644 -0.2533
  606MOL0     O81733   8.862   2.239   2.566 -0.3546 -0.0365 -0.3682
  606MOL0     C81734   8.758   2.299   2.634  0.2245 -0.0261 -0.2809
  606MOL0     C81735   8.675   2.389   2.537  0.6378  0.7763  0.0107
  606MOL0     C81736   8.570   2.317   2.448 -0.5272  0.0316 -0.2120
  606MOL0     C81737   8.482   2.413   2.370  0.8739  0.1002  0.5834
  606MOL0     C81738   8.543   2.489   2.264  0.3035  0.1272  0.0841
  606MOL0     C81739   8.601   2.551   2.175  0.1350 -0.3248 -0.8904
  606MOL0     C81740   8.934   2.088   2.742 -0.3693 -0.1556 -0.3965
  606MOL0     C81741   9.024   2.041   2.833 -0.2378  0.1284 -0.5171
  606MOL0     C81742   8.969   1.934   2.920  0.3859  0.3333 -0.0309
  606MOL0     H81743   9.294   2.177   3.302 -0.2732 -0.5777 -2.5064
  606MOL0     H81744   9.483   2.208   3.445 -0.6457 -1.6836  0.6482
  606MOL0     H81745   9.814   2.013   3.288  0.4550 -0.9146  0.3022
  606MOL0     H81746   9.888   2.174   3.294 -1.5885  0.4386 -1.0176
  606MOL0     H81747   9.826   2.000   3.539  2.2644 -1.5114  1.4497
  606MOL0     H81748   9.918   2.141   3.546 -3.1563  1.3514  0.8558
  606MOL0     H81749  10.013   1.920   3.361  0.2534  2.8176 -1.8061
  606MOL0     H81750  10.046   1.913   3.546  0.3473  1.3262  0.1250
  606MOL0     H81751  10.134   2.125   3.325 -0.6490  2.0426  0.2357
  606MOL0     H81752  10.164   2.130   3.497 -0.3649 -1.9861  1.9647
  606MOL0     H81753  10.255   1.888   3.328 -0.5834 -2.6777  4.3207
  606MOL0     H81754  10.334   2.046   3.320  1.4987 -3.8689 -1.6781
  606MOL0     H81755  10.376   2.044   3.552  0.7197 -0.5378  1.4207
  606MOL0     H81756  10.291   1.908   3.590  1.8204  1.7115  1.2640
  606MOL0     H81757  10.571   1.928   3.521  2.1051 -0.4497 -1.3666
  606MOL0     H81758  10.507   1.893   3.376  0.5334  0.8043  0.3755
  606MOL0     H81759  10.414   1.718   3.612 -1.4534 -2.0572 -2.1033
  606MOL0     H81760  10.429   1.670   3.444  0.1296  0.2924  0.0277
  606MOL0     H81761  10.644   1.756   3.773  4.4945  2.8056 -0.5962
  606MOL0     H81762  10.976   1.693   3.767  0.2444 -0.5345  0.3626
  606MOL0     H81763  10.860   1.653   3.884 -0.9171 -4.0761  0.5928
  606MOL0     H81764  10.872   1.404   3.809 -0.6541  0.8950 -1.4612
  606MOL0     H81765  10.994   1.454   3.698  3.1900 -0.3247  0.9126
  606MOL0     H81766  11.083   1.349   3.899  0.3580  0.3078  0.2551
  606MOL0     H81767  11.002   1.468   4.004 -0.3232  1.3538  0.4268
  606MOL0     H81768  11.149   1.647   3.936 -0.2787  0.5447 -0.1214
  606MOL0     H81769  11.199   1.569   3.791  0.9374  3.3998  1.9391
  606MOL0     H81770  11.373   1.720   3.811  0.4963  2.2858  1.0393
  606MOL0     H81771  11.567   1.842   3.866  0.0039 -1.4808 -1.9571
  606MOL0     H81772  11.898   1.990   4.243 -0.0792  1.1923  0.5188
  606MOL0     H81773  11.978   2.202   4.301  2.8080  0.5033 -2.5217
  606MOL0     H81774  11.992   2.419   4.340 -0.1076  1.5509  0.5753
  606MOL0     H81775  12.119   2.399   4.213 -0.0997 -0.6281  0.6403
  606MOL0     H81776  11.988   2.669   4.210 -1.9208 -1.9714  1.6133
  606MOL0     H81777  12.099   2.626   4.347  1.4616 -2.3690  0.6471
  606MOL0     H81778  12.270   2.548   4.186  2.4240  2.7734  0.2859
  606MOL0     H81779  12.159   2.592   4.054 -1.1870 -0.7507 -0.4439
  606MOL0     H81780  12.267   2.781   4.269  1.4195  0.8100  0.0399
  606MOL0     H81781  12.174   2.837   4.130 -0.9113 -0.9029  0.5743
  606MOL0     H81782  12.414   2.881   4.109  1.0792 -0.1980 -0.0123
  606MOL0     H81783  12.340   2.805   3.969  0.8195  1.9236  0.5197
  606MOL0     H81784  12.450   2.584   4.062  1.4758 -1.0264  0.6271
  606MOL0     H81785  12.561   2.716   4.006  0.8118 -0.5127  1.6498
  606MOL0     H81786  12.519   2.749   4.301 -1.0947  1.0681 -0.3970
  606MOL0     H81787  12.661   2.705   4.203 -0.9322  2.4916  1.4329
  606MOL0     H81788  12.447   2.519   4.299 -0.0990  0.2171 -1.3543
  606MOL0     H81789  12.594   2.481   4.200 -0.9706 -0.7461 -1.0717
  606MOL0     H81790  11.809   2.365   3.937  2.8630 -0.6937 -1.3943
  606MOL0     H81791  11.713   2.159   3.879  2.8101  1.0221 -1.6433
  606MOL0     H81792  11.627   1.593   4.222 -1.3450 -0.2310  1.5796
  606MOL0     H81793  11.439   1.453   4.141 -2.5893 -0.5959 -1.0565
  606MOL0     H81794   9.745   2.154   3.104 -0.5535 -4.5218 -0.5613
  606MOL0     H81795   9.564   2.161   2.958  0.2650 -1.8882  0.6416
  606MOL0     H81796   9.270   2.270   2.783 -0.4365  0.5704 -0.7208
  606MOL0     H81797   9.109   2.345   2.611  1.0719 -0.4275  0.1150
  606MOL0     H81798   8.794   2.370   2.709 -1.1018  2.6354 -1.9843
  606MOL0     H81799   8.696   2.221   2.678  1.9792 -1.6283 -0.5042
  606MOL0     H81800   8.742   2.449   2.475  1.6316  0.9027  1.1739
  606MOL0     H81801   8.629   2.472   2.592 -1.3752  0.4529 -1.0507
  606MOL0     H81802   8.510   2.249   2.509 -2.7091  1.5453 -0.5485
  606MOL0     H81803   8.617   2.257   2.369  0.3366 -2.5819  2.1066
  606MOL0     H81804   8.396   2.359   2.330  0.2352 -2.0933  4.3685
  606MOL0     H81805   8.432   2.481   2.440  0.4056 -0.6216  0.9619
  606MOL0     H81806   8.657   2.578   2.087 -0.1853  1.4453 -0.5902
  606MOL0     H81807   8.833   2.051   2.723 -0.0519 -0.8691 -0.7211
  606MOL0     H81808   8.894   1.882   2.860  1.6856 -1.2030 -0.3793
  606MOL0     H81809   9.040   1.860   2.957 -0.6440 -0.0305  1.2780
  606MOL0     H81810   8.927   1.983   3.009 -0.0050 -4.5647  2.8514
  607MOL0     O81811   3.833   4.190   1.790 -0.1141 -0.5922 -0.2863
  607MOL0     C81812   3.865   4.070   1.794 -0.5735 -0.3268  0.4197
  607MOL0     O81813   3.989   4.014   1.827 -0.4205  0.4680  0.3606
  607MOL0     C81814   4.090   4.094   1.862 -0.0322  0.2038 -0.2842
  607MOL0     C81815   4.162   4.070   1.971  0.2254  0.7034 -0.7094
  607MOL0     C81816   4.265   4.155   2.016 -0.6320  0.3217  0.1746
  607MOL0     C81817   4.308   4.261   1.934  0.4862  0.5658  1.0971
  607MOL0     O81818   4.406   4.351   1.962 -0.3966  0.4146  0.2978
  607MOL0     C81819   4.539   4.298   1.992  1.2079  0.0350  0.3343
  607MOL0     C81820   4.610   4.259   1.868 -0.2389  0.1540 -0.0826
  607MOL0     C81821   4.754   4.214   1.909 -1.0063 -0.2442 -0.1804
  607MOL0     C81822   4.847   4.176   1.794  0.2015  0.0295  0.2978
  607MOL0     C81823   4.992   4.183   1.838 -0.0932 -0.6298  0.0732
  607MOL0     C81824   5.016   4.093   1.959 -0.0871 -0.1218  1.1102
  607MOL0     C81825   5.161   4.072   2.004  0.0941 -0.2862  0.0054
  607MOL0     C81826   5.187   4.050   2.157  0.5392  0.0522  0.5086
  607MOL0     N81827   5.108   3.928   2.202 -0.1319 -0.3296  0.5405
  607MOL0     C81828   5.157   3.799   2.202 -0.0319  0.2125 -0.8249
  607MOL0     C81829   5.043   3.726   2.223 -1.1565  0.0177 -0.5887
  607MOL0     C81830   5.027   3.572   2.223  0.2286 -0.1251 -0.8198
  607MOL0     C81831   5.130   3.497   2.143 -0.3998 -0.1736  0.0668
  607MOL0     C81832   5.272   3.483   2.217 -0.7277  0.6307  0.6335
  607MOL0     C81833   5.366   3.398   2.126 -0.0464  0.1929 -0.2429
  607MOL0     O81834   5.503   3.415   2.165 -0.0488 -0.6339  0.1699
  607MOL0     C81835   5.602   3.361   2.091  0.2357 -0.4183 -0.2334
  607MOL0     C81836   5.583   3.296   1.973 -0.2282  0.7323  0.1768
  607MOL0     C81837   5.700   3.240   1.921  0.4516  0.4072  0.0362
  607MOL0     C81838   5.828   3.254   1.979 -0.1836  0.3293 -0.8963
  607MOL0     C81839   5.950   3.202   1.912  0.5348  0.0804  0.4425
  607MOL0     O81840   5.932   3.105   1.816 -0.4176  0.6000 -0.1444
  607MOL0     C81841   6.043   3.047   1.762  0.1555 -0.3130  0.7483
  607MOL0     C81842   6.118   2.950   1.827  0.3302  0.5268  0.0732
  607MOL0     C81843   6.228   2.894   1.758  0.1533 -0.2087 -0.4909
  607MOL0     C81844   6.274   2.949   1.637 -0.8290  0.5667 -0.3683
  607MOL0     O81845   6.389   2.894   1.577 -0.8638  1.1317 -0.3241
  607MOL0     C81846   6.410   2.888   1.438 -0.4814 -0.0534 -0.9771
  607MOL0     C81847   6.517   2.781   1.399  0.3677  0.3938  0.3676
  607MOL0     C81848   6.654   2.819   1.438 -0.4381 -0.4585 -0.0371
  607MOL0     C81849   6.690   2.812   1.583 -0.8311  0.4420  0.4629
  607MOL0     C81850   6.846   2.839   1.606  0.4865 -0.5931 -0.3912
  607MOL0     C81851   6.928   2.746   1.508 -0.1815 -0.1921 -0.3137
  607MOL0     C81852   7.083   2.742   1.529 -0.2689 -0.2783 -0.2872
  607MOL0     C81853   7.127   2.741   1.677 -0.8553  0.5991 -0.1447
  607MOL0    Cl81854   7.044   2.594   1.744  0.1927  0.1840 -0.5551
  607MOL0     C81855   6.199   3.045   1.574 -0.0015 -0.4405 -0.8823
  607MOL0     C81856   6.082   3.100   1.642  0.6742 -0.3112  0.4777
  607MOL0     O81857   6.059   3.251   1.938 -0.6936 -0.0441  0.1463
  607MOL0     C81858   5.833   3.327   2.104 -0.6110  0.4927 -0.5442
  607MOL0     C81859   5.721   3.363   2.161 -0.3183 -0.9618 -0.3333
  607MOL0     N81860   4.933   3.805   2.242 -0.2993 -1.3823 -0.1558
  607MOL0     N81861   4.973   3.929   2.228 -0.0723 -0.7746 -0.2491
  607MOL0     C81862   4.241   4.280   1.811  0.4478 -0.4353 -0.5462
  607MOL0     C81863   4.130   4.210   1.781 -0.3218  0.9389 -0.3741
  607MOL0     C81864   3.745   3.983   1.766  1.1557 -0.8238  1.2309
  607MOL0     C81865   3.619   4.044   1.763 -0.2637  0.9071 -0.8052
  607MOL0     C81866   3.505   3.960   1.745 -0.7146 -0.1059 -0.7292
  607MOL0     C81867   3.519   3.830   1.697 -0.6391  0.5974 -0.8369
  607MOL0     O81868   3.404   3.739   1.681 -0.7272 -0.6934  1.0078
  607MOL0     C81869   3.272   3.802   1.673  0.6550 -0.1600  1.1824
  607MOL0     C81870   3.177   3.690   1.638 -0.0856 -0.1530  0.0118
  607MOL0     C81871   3.032   3.745   1.644 -0.0363  0.7542  0.8816
  607MOL0     C81872   2.927   3.638   1.614  0.6534 -0.4638  0.0168
  607MOL0     C81873   2.891   3.602   1.484  0.4947  0.8488  1.4207
  607MOL0     C81874   2.848   3.586   1.369  0.0631  0.0448 -0.2128
  607MOL0     C81875   3.653   3.777   1.695  0.5644 -0.5247  0.8081
  607MOL0     C81876   3.768   3.845   1.728 -0.5463 -0.1545  1.2288
  607MOL0     C81877   3.904   3.769   1.710  0.1772  0.7536 -0.0360
  607MOL0     H81878   4.142   3.976   2.021  1.0938  0.9028  0.0536
  607MOL0     H81879   4.322   4.117   2.100  1.2855 -0.6435 -1.4669
  607MOL0     H81880   4.584   4.382   2.045 -1.0574  0.1651  2.2359
  607MOL0     H81881   4.531   4.210   2.056 -1.8353 -1.5527 -1.9111
  607MOL0     H81882   4.619   4.343   1.798  1.0109  0.2812  0.2062
  607MOL0     H81883   4.541   4.187   1.822 -1.2059  1.1379 -0.2284
  607MOL0     H81884   4.747   4.136   1.985  0.8138  2.0797  2.5366
  607MOL0     H81885   4.796   4.304   1.954  0.7285 -1.2736  0.3247
  607MOL0     H81886   4.818   4.076   1.760 -0.6863 -0.2229  1.7037
  607MOL0     H81887   4.828   4.238   1.706 -1.3349  0.9833  1.2583
  607MOL0     H81888   5.052   4.151   1.752 -0.9427 -1.4509 -0.2301
  607MOL0     H81889   5.030   4.281   1.867  2.1677 -1.6312  0.6997
  607MOL0     H81890   4.962   4.127   2.048 -0.6557 -0.1118  0.7655
  607MOL0     H81891   4.966   3.999   1.935 -0.6282 -0.0125  1.7605
  607MOL0     H81892   5.234   4.146   1.966 -1.5493  3.4060  3.3479
  607MOL0     H81893   5.180   3.977   1.954  0.7818 -0.5359  0.7207
  607MOL0     H81894   5.295   4.039   2.175  0.9796  2.4752 -0.2966
  607MOL0     H81895   5.146   4.129   2.220 -1.5132 -0.2821 -0.3463
  607MOL0     H81896   5.254   3.759   2.174  0.2913  0.4787 -0.0934
  607MOL0     H81897   5.027   3.536   2.326 -1.0763  0.4341 -0.6040
  607MOL0     H81898   4.930   3.535   2.187  1.4666 -2.4553 -1.9970
  607MOL0     H81899   5.091   3.396   2.125  0.9047 -0.6512 -0.1876
  607MOL0     H81900   5.146   3.547   2.047  1.3190  1.4180  1.1071
  607MOL0     H81901   5.269   3.436   2.315  1.8467  1.2633  1.0769
  607MOL0     H81902   5.330   3.575   2.229  2.6219 -1.2533 -0.0518
  607MOL0     H81903   5.358   3.422   2.020  2.0601  0.9387 -0.2775
  607MOL0     H81904   5.350   3.291   2.142 -0.7471  0.0745 -1.6198
  607MOL0     H81905   5.484   3.285   1.929 -0.6483 -0.8851  1.3943
  607MOL0     H81906   5.698   3.173   1.837  1.3633  1.6394 -1.0033
  607MOL0     H81907   6.088   2.901   1.919  0.7769 -2.4443 -1.2453
  607MOL0     H81908   6.288   2.818   1.806 -0.4621 -0.0733  0.5359
  607MOL0     H81909   6.314   2.855   1.397 -0.8833 -1.6126  1.0407
  607MOL0     H81910   6.440   2.987   1.403  0.8152  0.7426  2.0355
  607MOL0     H81911   6.489   2.681   1.432 -1.0167  1.1375  1.5803
  607MOL0     H81912   6.510   2.766   1.291  0.0544 -0.0379  0.4458
  607MOL0     H81913   6.713   2.739   1.392  1.3519 -0.9569  2.8233
  607MOL0     H81914   6.679   2.920   1.405 -0.2254  0.6757  3.2300
  607MOL0     H81915   6.666   2.716   1.629  2.5218 -0.2284  1.1423
  607MOL0     H81916   6.636   2.883   1.646  0.5591 -0.1159  2.4042
  607MOL0     H81917   6.855   2.803   1.709  0.4586 -3.9646 -1.4470
  607MOL0     H81918   6.887   2.941   1.600  0.8066 -0.8165 -2.7141
  607MOL0     H81919   6.883   2.647   1.523  0.4021 -0.0988  2.8229
  607MOL0     H81920   6.909   2.787   1.409  1.6624  1.4851 -0.0313
  607MOL0     H81921   7.128   2.824   1.473  0.7484  0.1025  1.0248
  607MOL0     H81922   7.114   2.646   1.486 -0.2087  0.7091 -2.5603
  607MOL0     H81923   7.235   2.730   1.680 -1.1123 -3.0995 -0.6069
  607MOL0     H81924   7.097   2.825   1.741 -2.8180  0.4313 -0.7614
  607MOL0     H81925   6.236   3.085   1.480 -1.1646  1.0581 -0.7519
  607MOL0     H81926   6.043   3.169   1.568  3.5426  0.2389 -0.6849
  607MOL0     H81927   5.929   3.345   2.151  1.0062  1.7121 -3.9634
  607MOL0     H81928   5.755   3.415   2.250  1.7634 -2.0850 -0.4176
  607MOL0     H81929   4.257   4.375   1.762  0.4340  0.2545  0.7456
  607MOL0     H81930   4.064   4.236   1.699 -0.0918  1.1779 -0.4850
  607MOL0     H81931   3.605   4.149   1.785  0.4396  1.3918 -2.5654
  607MOL0     H81932   3.413   3.999   1.787  1.1374  2.5339  1.2191
  607MOL0     H81933   3.278   3.879   1.596 -0.6658  0.4632  1.6778
  607MOL0     H81934   3.230   3.844   1.765  1.6608  2.4048  0.5544
  607MOL0     H81935   3.178   3.616   1.718 -1.9134  0.8457  1.0398
  607MOL0     H81936   3.194   3.649   1.538 -2.1193  1.2667 -0.9879
  607MOL0     H81937   3.015   3.828   1.576  0.9565 -0.9071 -1.5178
  607MOL0     H81938   3.015   3.769   1.749 -5.1365 -0.6893  0.6327
  607MOL0     H81939   2.934   3.550   1.679  0.7186  0.5406  1.4202
  607MOL0     H81940   2.836   3.690   1.643  1.9281  0.6177  2.3473
  607MOL0     H81941   2.800   3.581   1.273  1.2805  0.9814 -0.9067
  607MOL0     H81942   3.664   3.680   1.648  0.8136 -1.2570  2.3270
  607MOL0     H81943   3.959   3.817   1.629  2.5391  2.5729  2.4882
  607MOL0     H81944   3.965   3.787   1.800  0.2927 -2.3864  0.6225
  607MOL0     H81945   3.912   3.660   1.702  1.8932  0.7394  1.2269
  608MOL0     O81946   2.434   4.932   7.064  0.0907 -0.3395 -0.1314
  608MOL0     C81947   2.371   4.831   7.082  0.6495 -0.6952  1.1306
  608MOL0     O81948   2.352   4.737   6.986  0.0315  0.2283  0.4706
  608MOL0     C81949   2.433   4.737   6.869 -0.0375 -0.3909  0.6260
  608MOL0     C81950   2.371   4.683   6.757 -0.3792  0.0613 -0.0995
  608MOL0     C81951   2.434   4.685   6.632 -0.3982  0.1300 -0.2507
  608MOL0     C81952   2.571   4.709   6.616 -0.0693  0.8066  0.1673
  608MOL0     O81953   2.638   4.655   6.512 -0.0516 -0.0941 -0.4520
  608MOL0     C81954   2.563   4.597   6.404  0.5553 -0.0400 -1.0195
  608MOL0     C81955   2.643   4.516   6.303 -0.7970  0.1931 -0.0613
  608MOL0     C81956   2.549   4.427   6.205  0.3863 -0.3363  0.4011
  608MOL0     C81957   2.627   4.398   6.076  0.1590  0.3089  0.1264
  608MOL0     C81958   2.541   4.305   5.985 -0.0297  0.4672  0.0133
  608MOL0     C81959   2.612   4.270   5.849  0.1467  0.1646  0.8955
  608MOL0     C81960   2.681   4.385   5.769 -0.5358  0.1556  0.7707
  608MOL0     C81961   2.825   4.416   5.804  0.2570 -0.9853  0.6717
  608MOL0     N81962   2.861   4.531   5.722 -0.9443  1.0041 -0.4264
  608MOL0     C81963   2.884   4.652   5.778 -0.1201  0.1508  0.7161
  608MOL0     C81964   2.980   4.710   5.706  0.2763  0.9140  0.5991
  608MOL0     C81965   3.043   4.842   5.734 -0.1735 -0.1651 -0.4963
  608MOL0     C81966   3.174   4.829   5.807  0.0623  0.1949 -0.9067
  608MOL0     C81967   3.286   4.904   5.736 -0.2682  0.1748  0.2988
  608MOL0     C81968   3.353   4.811   5.639 -0.1287 -0.2318  0.0872
  608MOL0     O81969   3.426   4.881   5.531 -0.4744 -0.3605 -0.1912
  608MOL0     C81970   3.548   4.948   5.562 -0.2117  0.1281 -0.2031
  608MOL0     C81971   3.629   4.908   5.671  0.0256  0.0126  1.2804
  608MOL0     C81972   3.744   4.982   5.707 -0.3113 -0.3456 -0.2428
  608MOL0     C81973   3.775   5.099   5.625 -0.3450 -0.3774 -0.4183
  608MOL0     C81974   3.884   5.187   5.675 -1.3450 -0.3085  1.0207
  608MOL0     O81975   3.985   5.135   5.740  0.3778 -0.4329 -0.2666
  608MOL0     C81976   4.095   5.213   5.771 -0.2806 -0.0265  0.4009
  608MOL0     C81977   4.142   5.231   5.903  0.1056  0.2528 -0.6667
  608MOL0     C81978   4.271   5.275   5.924 -0.0717 -0.4781 -0.4541
  608MOL0     C81979   4.348   5.343   5.832 -0.0769  0.3410 -0.2975
  608MOL0     O81980   4.461   5.405   5.875  0.0173 -0.6612 -0.4532
  608MOL0     C81981   4.449   5.544   5.866  0.0967 -0.2239 -0.2871
  608MOL0     C81982   4.589   5.610   5.867  0.4637  0.6268  0.0168
  608MOL0     C81983   4.566   5.753   5.899 -0.2215  0.6249  0.3158
  608MOL0     C81984   4.684   5.828   5.857  0.0946 -0.2505  0.1766
  608MOL0     C81985   4.672   5.980   5.859 -0.4272 -0.3965 -0.1410
  608MOL0     C81986   4.651   6.043   5.999 -0.6974  1.1457  0.1899
  608MOL0     C81987   4.694   6.193   6.010  0.1328  1.1348 -0.5181
  608MOL0     C81988   4.592   6.289   5.977  0.7552  0.3883 -0.1261
  608MOL0    Cl81989   4.654   6.450   6.048  0.4259 -0.0281 -0.6577
  608MOL0     C81990   4.298   5.341   5.698  0.5342  0.9174 -0.6544
  608MOL0     C81991   4.182   5.264   5.668 -0.0552  0.5854  0.8851
  608MOL0     O81992   3.881   5.302   5.640 -0.0014 -0.3692 -0.7681
  608MOL0     C81993   3.697   5.138   5.516  0.5995 -0.0117  0.3510
  608MOL0     C81994   3.581   5.059   5.487  0.2727 -0.6323  0.0227
  608MOL0     N81995   3.023   4.622   5.609  0.0633  0.4788  0.5215
  608MOL0     N81996   2.944   4.514   5.617 -0.5476 -0.0548  1.1627
  608MOL0     C81997   2.635   4.765   6.737  0.9891 -0.2917 -0.6973
  608MOL0     C81998   2.561   4.790   6.856  0.4342  0.4270  0.8241
  608MOL0     C81999   2.311   4.818   7.216 -0.1536  0.3187  0.9385
  608MOL0     C82000   2.362   4.724   7.303  0.0018 -0.1543  0.6511
  608MOL0     C82001   2.312   4.704   7.435 -0.1737 -0.7444 -0.0856
  608MOL0     C82002   2.212   4.794   7.480 -0.7637 -0.0821 -0.5686
  608MOL0     O82003   2.142   4.783   7.597  1.0351 -0.5681 -0.6135
  608MOL0     C82004   2.109   4.654   7.643  0.7208  0.1441 -0.3226
  608MOL0     C82005   1.984   4.642   7.725  0.5694  0.7461 -0.2639
  608MOL0     C82006   1.844   4.663   7.653  0.4361 -0.0351 -0.1088
  608MOL0     C82007   1.831   4.780   7.560  0.2122 -0.0724 -0.2451
  608MOL0     C82008   1.871   4.905   7.626  0.4943  0.6055  0.4355
  608MOL0     C82009   1.905   5.006   7.680 -0.7380  0.0344 -0.9300
  608MOL0     C82010   2.169   4.897   7.391 -0.1743  0.7281 -0.2239
  608MOL0     C82011   2.215   4.913   7.259  0.1707 -0.3882  0.9666
  608MOL0     C82012   2.150   5.014   7.166  0.0952  0.2549 -0.3505
  608MOL0     H82013   2.266   4.655   6.764 -0.1252 -0.7222  0.8986
  608MOL0     H82014   2.370   4.645   6.554 -0.3613 -0.7030  0.1301
  608MOL0     H82015   2.489   4.525   6.441 -2.1419  1.9955 -2.1220
  608MOL0     H82016   2.506   4.674   6.352 -1.1162 -0.5898 -0.0583
  608MOL0     H82017   2.704   4.435   6.343  0.2991 -0.3074 -2.6113
  608MOL0     H82018   2.700   4.589   6.245 -4.1254  0.7344 -2.9731
  608MOL0     H82019   2.458   4.484   6.185  0.4460  0.4907  2.1910
  608MOL0     H82020   2.524   4.340   6.266 -0.3384  1.4587  2.8370
  608MOL0     H82021   2.653   4.489   6.022  0.4820  0.4859  0.5825
  608MOL0     H82022   2.717   4.346   6.108 -1.3550 -2.1991  0.6229
  608MOL0     H82023   2.532   4.208   6.033 -1.2277  0.1647 -0.7886
  608MOL0     H82024   2.449   4.350   5.945  0.0191 -0.8706 -1.7115
  608MOL0     H82025   2.683   4.188   5.862  1.9723  1.6691  0.8473
  608MOL0     H82026   2.527   4.237   5.788  0.0027  0.6706  0.8177
  608MOL0     H82027   2.630   4.478   5.793 -0.0728  0.9034 -0.9266
  608MOL0     H82028   2.671   4.377   5.660 -0.3438 -2.8137  0.9041
  608MOL0     H82029   2.840   4.452   5.906  0.5279  0.0933  0.2611
  608MOL0     H82030   2.897   4.336   5.784  0.5501 -0.6157  0.2523
  608MOL0     H82031   2.841   4.684   5.873 -0.7797  4.3568 -0.8025
  608MOL0     H82032   3.055   4.896   5.639  0.5791 -0.9873 -0.8824
  608MOL0     H82033   2.975   4.910   5.786 -0.0261  0.3240 -0.9323
  608MOL0     H82034   3.176   4.867   5.909  3.8805 -0.6563 -0.4880
  608MOL0     H82035   3.205   4.725   5.820 -0.8228  0.1697  1.4797
  608MOL0     H82036   3.348   4.953   5.812 -2.2574 -0.4798  2.4646
  608MOL0     H82037   3.235   4.988   5.687  0.8589  1.1030  0.6636
  608MOL0     H82038   3.266   4.770   5.587 -1.2777  2.3446 -0.2044
  608MOL0     H82039   3.411   4.735   5.693 -1.4058 -1.8460 -0.7462
  608MOL0     H82040   3.615   4.817   5.730 -0.7236  1.2138  3.0506
  608MOL0     H82041   3.805   4.954   5.792  0.1416 -1.5708 -0.9444
  608MOL0     H82042   4.072   5.208   5.983 -0.8574 -0.3942 -1.6650
  608MOL0     H82043   4.310   5.288   6.024 -0.5284 -1.1643 -0.1721
  608MOL0     H82044   4.397   5.579   5.776  0.4194  1.7698  0.2519
  608MOL0     H82045   4.385   5.573   5.951 -4.1798 -3.0560 -2.1968
  608MOL0     H82046   4.655   5.571   5.945  0.8754  1.8125  0.2718
  608MOL0     H82047   4.627   5.604   5.764  0.8573 -1.1791  0.2240
  608MOL0     H82048   4.474   5.787   5.850 -0.0211  0.1955 -0.3812
  608MOL0     H82049   4.560   5.766   6.007 -1.4961 -2.1874  0.6784
  608MOL0     H82050   4.728   5.801   5.760 -0.7050 -1.6285  0.1769
  608MOL0     H82051   4.761   5.824   5.935  0.0979 -1.3294  0.1342
  608MOL0     H82052   4.591   6.014   5.794 -1.6840 -2.0860  0.4722
  608MOL0     H82053   4.763   6.021   5.815 -0.1331 -1.6397 -0.7265
  608MOL0     H82054   4.545   6.039   6.027 -0.5943  0.3376  0.4740
  608MOL0     H82055   4.713   5.984   6.067 -1.1620  2.4883  1.8428
  608MOL0     H82056   4.791   6.214   5.963  1.5453 -1.2989  1.0936
  608MOL0     H82057   4.709   6.201   6.118 -0.1199  2.0474 -0.5438
  608MOL0     H82058   4.567   6.287   5.871 -0.7397  0.7713  0.2006
  608MOL0     H82059   4.495   6.267   6.023  0.7026 -0.7521 -0.7426
  608MOL0     H82060   4.355   5.386   5.617  1.1032 -2.2763 -2.1770
  608MOL0     H82061   4.164   5.261   5.561  3.2464  0.9432  0.2217
  608MOL0     H82062   3.724   5.224   5.456 -0.4820  3.4525  4.3935
  608MOL0     H82063   3.513   5.084   5.406 -2.1951 -1.1480  1.8161
  608MOL0     H82064   2.738   4.798   6.730  0.6334  0.8161 -0.9861
  608MOL0     H82065   2.610   4.830   6.944 -1.7448  1.2134  1.7661
  608MOL0     H82066   2.425   4.647   7.259  1.0793  0.1364  1.6268
  608MOL0     H82067   2.339   4.614   7.489  1.0874 -1.4949 -1.8784
  608MOL0     H82068   2.188   4.604   7.699 -1.6004 -0.1431  3.0813
  608MOL0     H82069   2.091   4.597   7.552 -0.3890  1.9418 -1.2730
  608MOL0     H82070   1.991   4.697   7.819 -0.7037 -2.0471  1.5896
  608MOL0     H82071   1.993   4.535   7.745 -1.1672  0.3402 -1.3379
  608MOL0     H82072   1.772   4.668   7.736  1.4226  0.8872  0.7290
  608MOL0     H82073   1.832   4.570   7.597  2.2900  0.9503 -2.2810
  608MOL0     H82074   1.904   4.766   7.479  3.5596  3.0858  1.8836
  608MOL0     H82075   1.734   4.779   7.510  0.9961  0.7974 -1.8734
  608MOL0     H82076   1.951   5.096   7.715 -1.3990 -0.0271  0.1357
  608MOL0     H82077   2.088   4.962   7.423 -1.8286 -0.2540 -2.1934
  608MOL0     H82078   2.071   4.970   7.104  1.0353 -1.0017 -0.7089
  608MOL0     H82079   2.121   5.095   7.234  1.1470  1.0072 -0.7719
  608MOL0     H82080   2.231   5.058   7.107 -0.1214  2.1177  0.6591
  609MOL0     O82081   6.461  10.701   4.084  0.9287 -0.5251 -0.5472
  609MOL0     C82082   6.430  10.704   3.967 -0.3365  0.6583  0.0707
  609MOL0     O82083   6.353  10.800   3.904  0.0734 -0.5821 -0.2547
  609MOL0     C82084   6.269  10.885   3.975 -0.3137  0.4793  0.3974
  609MOL0     C82085   6.294  11.021   3.993 -0.3445 -0.2085  0.0541
  609MOL0     C82086   6.190  11.093   4.050  0.3729 -0.5762  0.2701
  609MOL0     C82087   6.064  11.041   4.095 -0.8109  0.2283 -0.8891
  609MOL0     O82088   5.965  11.119   4.131 -0.5702  0.0132  0.3291
  609MOL0     C82089   5.994  11.231   4.216 -0.2472  0.2775 -0.1745
  609MOL0     C82090   5.952  11.351   4.127  0.4929 -0.7439  0.9735
  609MOL0     C82091   5.994  11.489   4.197 -0.8603  0.5656 -0.2114
  609MOL0     C82092   5.925  11.608   4.129 -0.4385  0.0836 -0.4113
  609MOL0     C82093   5.950  11.739   4.202  0.9928  0.4404 -0.0863
  609MOL0     C82094   6.087  11.764   4.241 -0.2167 -0.3345 -0.6724
  609MOL0     C82095   6.097  11.902   4.302  0.5586 -0.6870 -0.8855
  609MOL0     C82096   6.237  11.922   4.364 -0.2894  0.4258 -0.5988
  609MOL0     N82097   6.336  11.950   4.261  0.2059  0.3866 -0.4232
  609MOL0     C82098   6.350  12.055   4.179  0.9072 -0.4259 -0.2228
  609MOL0     C82099   6.428  12.029   4.071  0.1395 -0.5756  0.3451
  609MOL0     C82100   6.469  12.117   3.959 -0.8527 -0.4080  0.2817
  609MOL0     C82101   6.517  12.248   4.012  0.0052  0.0451  0.4970
  609MOL0     C82102   6.535  12.346   3.894 -0.1418  0.4263  0.5946
  609MOL0     C82103   6.559  12.499   3.929 -0.3512 -0.1656  0.4630
  609MOL0     O82104   6.689  12.527   3.982  0.6590 -0.0657  0.4462
  609MOL0     C82105   6.798  12.509   3.903 -0.6863  1.1404  0.0436
  609MOL0     C82106   6.816  12.555   3.773  0.6195  1.0628 -0.3107
  609MOL0     C82107   6.936  12.529   3.709  0.2304 -0.2455  0.4445
  609MOL0     C82108   7.048  12.466   3.769 -0.2010  0.8148 -0.6231
  609MOL0     C82109   7.172  12.454   3.695 -0.2085 -0.0745  0.4939
  609MOL0     O82110   7.276  12.390   3.757 -0.4832 -0.2868  0.4120
  609MOL0     C82111   7.396  12.359   3.694 -1.6828  0.5381  0.0712
  609MOL0     C82112   7.452  12.239   3.745 -0.5498 -0.6710  0.2581
  609MOL0     C82113   7.580  12.201   3.689 -0.0449 -0.0045  0.5849
  609MOL0     C82114   7.645  12.262   3.581  0.7570  0.7815  0.2996
  609MOL0     O82115   7.751  12.200   3.521 -0.4795 -0.4653  0.3841
  609MOL0     C82116   7.870  12.282   3.512 -0.3275  0.2018  0.2345
  609MOL0     C82117   7.982  12.205   3.444  0.6883  0.4331  0.0721
  609MOL0     C82118   7.998  12.070   3.508 -0.6991  0.3461 -0.3120
  609MOL0     C82119   8.124  11.990   3.447  1.1527 -0.0960 -0.7334
  609MOL0     C82120   8.149  11.861   3.529  0.6347  0.1049 -0.0312
  609MOL0     C82121   8.027  11.770   3.536 -0.5086 -0.4950  0.6201
  609MOL0     C82122   8.069  11.627   3.583 -0.5316  0.0733 -0.0758
  609MOL0     C82123   7.964  11.517   3.562 -0.3242 -0.3639 -0.4903
  609MOL0    Cl82124   7.806  11.561   3.643  0.1961  0.1692  0.0184
  609MOL0     C82125   7.581  12.379   3.532  0.1152 -0.4292  0.2251
  609MOL0     C82126   7.463  12.434   3.592 -0.5269  0.0114 -0.2279
  609MOL0     O82127   7.177  12.491   3.578  0.3269 -0.2871  0.8476
  609MOL0     C82128   7.034  12.425   3.901  0.3812  0.1154 -0.1694
  609MOL0     C82129   6.913  12.444   3.967 -0.4998 -0.6728  0.6698
  609MOL0     N82130   6.485  11.906   4.097 -0.3562  0.4414  0.4830
  609MOL0     N82131   6.424  11.860   4.207  0.8104  0.1340 -0.6164
  609MOL0     C82132   6.052  10.902   4.080  0.6828  0.6807 -0.2544
  609MOL0     C82133   6.146  10.823   4.020 -0.3519  0.6041  0.2916
  609MOL0     C82134   6.516  10.615   3.873  0.3075 -0.5768 -0.6147
  609MOL0     C82135   6.657  10.610   3.887 -0.4165  0.8448  0.3760
  609MOL0     C82136   6.730  10.507   3.827 -0.5396  0.5150  0.2225
  609MOL0     C82137   6.665  10.417   3.739 -0.0729  0.2746  0.3546
  609MOL0     O82138   6.748  10.320   3.694 -0.1193 -0.0371 -0.4259
  609MOL0     C82139   6.725  10.181   3.722 -0.0637  0.8440 -0.4168
  609MOL0     C82140   6.707  10.109   3.593 -0.6685  0.5187 -0.1370
  609MOL0     C82141   6.585  10.166   3.514  0.3767 -0.3501 -0.9511
  609MOL0     C82142   6.541  10.075   3.393  0.3700 -0.4446  0.4374
  609MOL0     C82143   6.640  10.072   3.282 -0.0105  0.2303  0.3192
  609MOL0     C82144   6.717  10.081   3.196 -0.5145  0.2625  0.3662
  609MOL0     C82145   6.524  10.430   3.712  0.6291  0.2936  0.6053
  609MOL0     C82146   6.448  10.529   3.776  0.1337  0.0207  0.1958
  609MOL0     C82147   6.298  10.536   3.737  0.4228 -0.4841 -0.2387
  609MOL0     H82148   6.380  11.074   3.955 -0.4987  1.3310  1.7119
  609MOL0     H82149   6.212  11.199   4.055  2.4323 -0.8831 -1.1036
  609MOL0     H82150   5.919  11.218   4.294 -1.3129 -4.0406 -1.6848
  609MOL0     H82151   6.090  11.260   4.261 -0.6935  2.0825 -0.3058
  609MOL0     H82152   5.844  11.354   4.113  0.7131 -2.0068 -1.4038
  609MOL0     H82153   5.999  11.341   4.029 -1.6119 -1.1698 -0.0376
  609MOL0     H82154   6.103  11.498   4.193 -0.7804  0.2847  1.0550
  609MOL0     H82155   5.996  11.488   4.306  3.1485  1.2514 -0.0956
  609MOL0     H82156   5.968  11.617   4.029  1.9210 -2.4577  0.2562
  609MOL0     H82157   5.818  11.590   4.120 -0.3357 -0.5740 -0.3256
  609MOL0     H82158   5.917  11.819   4.135 -0.3335  0.4972  0.6009
  609MOL0     H82159   5.886  11.735   4.291 -1.6324  0.7096 -1.8427
  609MOL0     H82160   6.116  11.700   4.325 -1.2428 -0.4766 -0.4222
  609MOL0     H82161   6.152  11.753   4.154 -0.7308  0.4835 -1.1741
  609MOL0     H82162   6.020  11.906   4.380  1.6208  3.8702  0.2762
  609MOL0     H82163   6.064  11.972   4.224  3.0305 -0.8062 -2.1241
  609MOL0     H82164   6.236  12.015   4.422  0.3994  0.8272 -1.2243
  609MOL0     H82165   6.270  11.835   4.422 -1.0246  0.8467  0.4905
  609MOL0     H82166   6.304  12.151   4.199  0.8025 -0.2786 -1.1284
  609MOL0     H82167   6.547  12.082   3.891  0.1984  2.5377 -0.1557
  609MOL0     H82168   6.380  12.140   3.899 -1.0222  0.7874  0.9621
  609MOL0     H82169   6.443  12.294   4.078  0.3438 -0.7070  1.4354
  609MOL0     H82170   6.610  12.235   4.069  0.6557  0.3199 -0.4886
  609MOL0     H82171   6.446  12.356   3.831  0.1394  1.2502  0.3138
  609MOL0     H82172   6.620  12.325   3.828 -0.3945  0.8599  0.1206
  609MOL0     H82173   6.478  12.521   4.000 -0.7767 -0.1515 -0.0197
  609MOL0     H82174   6.539  12.567   3.846  0.6986  1.0937  1.2027
  609MOL0     H82175   6.736  12.603   3.718 -2.5475 -1.8105  1.4032
  609MOL0     H82176   6.930  12.564   3.606 -4.1145  0.1454  0.6586
  609MOL0     H82177   7.398  12.203   3.831 -2.3287  0.4649 -0.3164
  609MOL0     H82178   7.632  12.118   3.736 -1.0568 -1.0106 -0.0141
  609MOL0     H82179   7.855  12.369   3.447  0.1042 -1.1282 -1.7628
  609MOL0     H82180   7.912  12.310   3.609  1.1714 -0.6731 -0.1202
  609MOL0     H82181   7.971  12.186   3.337  1.4250 -3.3443  0.5500
  609MOL0     H82182   8.083  12.248   3.451  0.4052  1.0541  0.4791
  609MOL0     H82183   8.009  12.086   3.615 -2.3691  0.2082 -0.1014
  609MOL0     H82184   7.903  12.019   3.493 -0.2092 -0.2669 -1.4787
  609MOL0     H82185   8.212  12.054   3.455 -0.2359  1.8056  0.2812
  609MOL0     H82186   8.100  11.972   3.342  0.3802  0.3488 -0.6433
  609MOL0     H82187   8.177  11.897   3.628  3.2265 -1.6340 -0.0328
  609MOL0     H82188   8.240  11.814   3.490 -0.0406 -0.3806 -1.0771
  609MOL0     H82189   7.948  11.823   3.588 -0.6436  0.8482 -0.8959
  609MOL0     H82190   7.983  11.761   3.436 -0.9025  0.6360  0.6843
  609MOL0     H82191   8.092  11.630   3.690  0.3889 -1.7750 -0.1799
  609MOL0     H82192   8.158  11.591   3.531  0.8814 -0.6305  2.6606
  609MOL0     H82193   7.937  11.495   3.458  0.0495  0.6732 -0.8160
  609MOL0     H82194   7.994  11.426   3.615  0.1283  2.3635  4.4830
  609MOL0     H82195   7.624  12.440   3.453 -0.6480  1.0030  0.8786
  609MOL0     H82196   7.442  12.535   3.560  2.3595  1.8119  2.9789
  609MOL0     H82197   7.099  12.358   3.956  0.5432  2.0866  2.2407
  609MOL0     H82198   6.916  12.408   4.069  5.6591 -2.2947  0.3514
  609MOL0     H82199   5.958  10.853   4.106  0.2221  1.2293 -0.8571
  609MOL0     H82200   6.134  10.716   4.008 -0.8501  0.8237 -1.5005
  609MOL0     H82201   6.704  10.673   3.963  2.8368 -0.0052 -0.7988
  609MOL0     H82202   6.833  10.486   3.856 -0.0804  1.0819 -0.9013
  609MOL0     H82203   6.635  10.159   3.779  0.1254 -1.2673 -0.8266
  609MOL0     H82204   6.810  10.136   3.775 -1.8001 -2.7922 -0.4247
  609MOL0     H82205   6.697  10.002   3.609 -1.1693  0.8313  1.8605
  609MOL0     H82206   6.792  10.125   3.526 -1.1196  0.6418 -0.6848
  609MOL0     H82207   6.592  10.269   3.477 -0.3297 -0.7103 -2.1529
  609MOL0     H82208   6.493  10.154   3.571  0.9925 -0.7612 -0.0282
  609MOL0     H82209   6.519   9.977   3.436 -0.4430 -1.3374 -1.8716
  609MOL0     H82210   6.446  10.115   3.358 -0.3313 -0.4431  2.2505
  609MOL0     H82211   6.794  10.099   3.123 -0.6420 -0.1617  0.1240
  609MOL0     H82212   6.478  10.356   3.647 -4.0709  1.2381  2.4542
  609MOL0     H82213   6.267  10.447   3.681 -2.0940  0.1051  0.0958
  609MOL0     H82214   6.244  10.542   3.832  0.7910  1.7390 -0.1197
  609MOL0     H82215   6.273  10.630   3.689 -3.1860  1.6949  4.8928
  610MOL0     O82216   5.105   7.713  10.126  0.5390  0.3447  0.6335
  610MOL0     C82217   5.202   7.638  10.125 -0.2967  0.2180 -0.0931
  610MOL0     O82218   5.331   7.671  10.159 -0.0390  0.0516 -0.8375
  610MOL0     C82219   5.345   7.792  10.214  0.2163  0.0011  0.9511
  610MOL0     C82220   5.279   7.834  10.334 -0.1210 -0.0478  0.7478
  610MOL0     C82221   5.299   7.963  10.393 -0.4306 -0.4461 -0.0265
  610MOL0     C82222   5.384   8.057  10.334 -1.0083 -1.1311 -0.0692
  610MOL0     O82223   5.408   8.184  10.386 -0.8479 -0.8174  0.0981
  610MOL0     C82224   5.453   8.188  10.532 -0.2169  0.0883  0.7431
  610MOL0     C82225   5.448   8.327  10.600 -0.1551  0.9986  0.5792
  610MOL0     C82226   5.300   8.391  10.594  0.7152 -0.2989  0.0106
  610MOL0     C82227   5.263   8.501  10.706  0.1471  1.1692  0.9493
  610MOL0     C82228   5.113   8.510  10.707  0.4245  0.2972  0.0741
  610MOL0     C82229   5.073   8.647  10.754  0.0753 -0.3867  0.3349
  610MOL0     C82230   5.133   8.661  10.898 -0.3543 -0.0246  0.0534
  610MOL0     C82231   5.032   8.728  10.985  0.0554  0.0733 -0.6247
  610MOL0     N82232   4.973   8.847  10.926  0.4014  0.0992 -0.1820
  610MOL0     C82233   4.850   8.882  10.960  0.6794  0.0898  1.0137
  610MOL0     C82234   4.815   8.988  10.880 -0.0084 -0.0281  0.2291
  610MOL0     C82235   4.691   9.065  10.870  0.0486  0.1709 -0.7573
  610MOL0     C82236   4.608   9.032  10.745 -0.6891  0.7025  0.2980
  610MOL0     C82237   4.669   9.088  10.612 -0.5703  0.3342 -0.1062
  610MOL0     C82238   4.596   9.064  10.483  0.0883  0.3207 -0.1825
  610MOL0     O82239   4.471   9.114  10.492  1.1205 -0.0815  0.2633
  610MOL0     C82240   4.409   9.164  10.389  0.2731 -1.2427  0.0661
  610MOL0     C82241   4.416   9.102  10.260  0.5879 -0.0415 -1.0700
  610MOL0     C82242   4.353   9.169  10.156  1.2271  0.0974 -0.7050
  610MOL0     C82243   4.279   9.288  10.181  0.8052 -0.8464 -0.7704
  610MOL0     C82244   4.189   9.343  10.084 -0.4681 -0.6388  0.0575
  610MOL0     O82245   4.177   9.279   9.960 -0.4352 -0.2510 -0.4895
  610MOL0     C82246   4.118   9.351   9.856 -0.1336  0.4648  0.5274
  610MOL0     C82247   4.013   9.286   9.798  0.0616  0.7467  0.5741
  610MOL0     C82248   3.966   9.323   9.673 -0.3189 -0.6678  0.0834
  610MOL0     C82249   4.016   9.441   9.613 -0.3661 -0.2287  0.2520
  610MOL0     O82250   3.975   9.503   9.493 -0.5145  0.4570  0.1319
  610MOL0     C82251   3.879   9.430   9.414 -0.8234  0.4622 -0.0176
  610MOL0     C82252   3.900   9.506   9.284  0.4174  0.4270 -0.0410
  610MOL0     C82253   4.032   9.444   9.228 -0.0708 -0.2278  0.3664
  610MOL0     C82254   4.073   9.495   9.090 -0.4818 -0.0114  0.5104
  610MOL0     C82255   4.185   9.411   9.030  0.0033 -0.1876  0.5360
  610MOL0     C82256   4.219   9.455   8.883 -0.6222  0.1707 -0.1335
  610MOL0     C82257   4.312   9.350   8.811 -0.1102  0.4302 -0.7493
  610MOL0     C82258   4.332   9.385   8.663 -0.7062 -0.8601 -0.7352
  610MOL0    Cl82259   4.197   9.338   8.571 -0.4841  0.2280  0.3576
  610MOL0     C82260   4.118   9.507   9.678  0.3577 -0.0636  0.5523
  610MOL0     C82261   4.172   9.473   9.794 -0.3706  0.3345 -1.0698
  610MOL0     O82262   4.164   9.461  10.106  0.6750 -0.1448  0.7257
  610MOL0     C82263   4.283   9.342  10.315  0.2137 -0.3036 -0.2784
  610MOL0     C82264   4.339   9.272  10.416  0.0954  0.4390 -0.2822
  610MOL0     N82265   4.925   9.023  10.802 -0.0437 -0.0600  0.6335
  610MOL0     N82266   5.017   8.937  10.831  0.5973 -0.4216 -0.1049
  610MOL0     C82267   5.445   8.023  10.210  0.0084  0.2799 -0.3326
  610MOL0     C82268   5.429   7.889  10.157 -0.5213 -0.1397  0.1536
  610MOL0     C82269   5.191   7.497  10.076 -0.5203  0.2186  0.4910
  610MOL0     C82270   5.290   7.400  10.118 -0.3164  0.0965  0.0948
  610MOL0     C82271   5.283   7.269  10.082  0.2445 -0.0451  0.3023
  610MOL0     C82272   5.178   7.216   9.996 -0.3593 -0.8167 -0.0630
  610MOL0     O82273   5.164   7.089   9.945 -0.4599  0.0243 -0.1083
  610MOL0     C82274   5.242   6.973   9.975 -1.1534  0.3392  0.1783
  610MOL0     C82275   5.365   6.949   9.878  0.3966  0.4180  0.4238
  610MOL0     C82276   5.420   7.082   9.823  0.1576  0.0191  0.6217
  610MOL0     C82277   5.553   7.050   9.752 -0.3284 -0.5226  0.6253
  610MOL0     C82278   5.631   7.162   9.694 -1.3337  0.4282  0.1254
  610MOL0     C82279   5.697   7.243   9.645 -1.7493  0.0510 -0.6851
  610MOL0     C82280   5.078   7.311   9.963  0.3704 -0.5274  0.1597
  610MOL0     C82281   5.076   7.447  10.001  0.0016  0.1875  0.4129
  610MOL0     C82282   4.959   7.528   9.947  0.5819  0.0157 -0.7119
  610MOL0     H82283   5.202   7.765  10.368 -0.7604  0.7475  0.9407
  610MOL0     H82284   5.239   7.993  10.478  0.2653 -0.9423  0.6539
  610MOL0     H82285   5.391   8.116  10.586 -0.7426  0.1339  0.2147
  610MOL0     H82286   5.553   8.145  10.529 -0.1288  0.3272 -0.0157
  610MOL0     H82287   5.523   8.384  10.544 -1.4233 -0.1788 -2.5724
  610MOL0     H82288   5.481   8.305  10.702  0.4572  1.0544  0.3976
  610MOL0     H82289   5.232   8.304  10.597  2.0714 -1.3649  0.9550
  610MOL0     H82290   5.284   8.433  10.494  0.9767  1.2061  0.5871
  610MOL0     H82291   5.308   8.467  10.800 -0.2611  0.0936  0.7772
  610MOL0     H82292   5.320   8.590  10.681  2.6124  0.2224  2.7934
  610MOL0     H82293   5.071   8.493  10.608 -0.6230  1.2364  0.3320
  610MOL0     H82294   5.090   8.427  10.775  4.8924 -2.4644 -1.3660
  610MOL0     H82295   5.110   8.729  10.692 -1.2735  0.7784  1.0125
  610MOL0     H82296   4.964   8.657  10.757 -0.1228 -1.3134 -1.9544
  610MOL0     H82297   5.217   8.732  10.897 -1.2024  1.0330  0.8843
  610MOL0     H82298   5.155   8.564  10.945 -0.4590 -0.7245 -1.3031
  610MOL0     H82299   4.954   8.653  10.998  0.2773 -0.4145 -1.9123
  610MOL0     H82300   5.079   8.769  11.074 -1.3483  4.1835 -1.5445
  610MOL0     H82301   4.785   8.833  11.031  0.5183  0.2836  1.0012
  610MOL0     H82302   4.637   9.051  10.964  3.8203  1.8837  1.9549
  610MOL0     H82303   4.710   9.173  10.875  1.5678 -0.0879 -0.5605
  610MOL0     H82304   4.599   8.924  10.728 -0.4704  0.8712 -1.0494
  610MOL0     H82305   4.502   9.057  10.751 -1.1634 -1.3689  1.9923
  610MOL0     H82306   4.766   9.040  10.599 -1.0153 -0.2866 -1.3804
  610MOL0     H82307   4.672   9.197  10.621  0.9115  0.4974 -1.8814
  610MOL0     H82308   4.588   8.960  10.452 -1.7790  0.7639 -1.3259
  610MOL0     H82309   4.653   9.116  10.406  0.8514  2.3729  1.6476
  610MOL0     H82310   4.468   9.008  10.242 -0.5908 -1.1106  0.7122
  610MOL0     H82311   4.352   9.123  10.057  0.3790  2.3973 -1.8403
  610MOL0     H82312   3.976   9.197   9.848  3.0610 -1.7376 -1.2352
  610MOL0     H82313   3.896   9.266   9.613  0.1592  1.8218 -3.0521
  610MOL0     H82314   3.887   9.321   9.406 -0.8049  0.5953 -2.6196
  610MOL0     H82315   3.782   9.454   9.458 -0.9938 -1.9052  1.0430
  610MOL0     H82316   3.811   9.498   9.221 -1.5878  3.8741  2.0400
  610MOL0     H82317   3.912   9.614   9.299  2.6771  0.0047  1.6907
  610MOL0     H82318   4.115   9.462   9.298 -0.4101 -0.4831  0.8422
  610MOL0     H82319   4.025   9.335   9.217 -1.2574 -0.1351  0.1011
  610MOL0     H82320   4.115   9.595   9.102 -0.7736  0.6074 -2.7099
  610MOL0     H82321   3.987   9.510   9.024 -0.5123  2.7716  1.0755
  610MOL0     H82322   4.155   9.306   9.032 -1.8202  0.1411 -2.6045
  610MOL0     H82323   4.271   9.420   9.098  0.3492  1.2617 -0.0532
  610MOL0     H82324   4.126   9.459   8.826  1.1052 -4.6821 -3.9891
  610MOL0     H82325   4.263   9.554   8.864 -2.7091  1.7520  2.4965
  610MOL0     H82326   4.260   9.254   8.816 -0.5830  0.6182 -1.8446
  610MOL0     H82327   4.410   9.351   8.860  1.4440  1.7832 -3.6348
  610MOL0     H82328   4.343   9.492   8.642 -0.0257 -0.6882  0.3649
  610MOL0     H82329   4.420   9.330   8.629 -0.2046  1.0425 -2.7639
  610MOL0     H82330   4.156   9.600   9.638  2.0199 -1.1460 -0.4855
  610MOL0     H82331   4.249   9.536   9.837 -1.7684  2.1758 -1.1567
  610MOL0     H82332   4.239   9.438  10.340  0.0683 -0.1784 -1.0137
  610MOL0     H82333   4.350   9.313  10.517  0.1686  1.3469 -0.6440
  610MOL0     H82334   5.509   8.084  10.147  1.6564 -0.6545  0.3796
  610MOL0     H82335   5.465   7.878  10.055  1.0180 -0.4596  0.6972
  610MOL0     H82336   5.371   7.418  10.188  4.3327 -0.2539 -4.5847
  610MOL0     H82337   5.352   7.196  10.124  1.3037  2.2781  2.8542
  610MOL0     H82338   5.179   6.884   9.975  0.8455 -1.1719  1.5778
  610MOL0     H82339   5.281   6.985  10.077 -0.4425  0.0999 -0.0610
  610MOL0     H82340   5.324   6.900   9.790 -0.4018  1.2969  0.2813
  610MOL0     H82341   5.442   6.890   9.928  0.6383  0.7325  0.4283
  610MOL0     H82342   5.437   7.163   9.894 -0.6556  0.8888 -0.1396
  610MOL0     H82343   5.342   7.126   9.760 -0.2128  3.7767  3.3919
  610MOL0     H82344   5.615   7.013   9.834 -0.6144 -1.8298  0.2869
  610MOL0     H82345   5.548   6.971   9.677  1.4653  0.6950 -0.8619
  610MOL0     H82346   5.748   7.312   9.581  1.1037 -1.2715 -0.0379
  610MOL0     H82347   4.999   7.271   9.900  1.7907 -0.6472 -1.6318
  610MOL0     H82348   4.871   7.464   9.938  0.0223  0.7453 -0.4616
  610MOL0     H82349   4.919   7.593  10.025 -0.1932  0.7124 -1.6567
  610MOL0     H82350   4.992   7.594   9.866  3.4034  3.2146  2.6841
  611MOL0     O82351  10.706   3.353   6.530 -0.1005 -0.4003 -0.1045
  611MOL0     C82352  10.696   3.402   6.643 -0.6123 -0.4487 -0.0329
  611MOL0     O82353  10.755   3.351   6.756 -0.0521  0.2127  0.3261
  611MOL0     C82354  10.811   3.224   6.751  0.7994  0.1621  0.2679
  611MOL0     C82355  10.937   3.211   6.796  0.8451  0.9487 -0.4469
  611MOL0     C82356  11.004   3.088   6.808  0.2871  0.4836  0.4262
  611MOL0     C82357  10.937   2.979   6.756  0.9327  0.3823 -0.9844
  611MOL0     O82358  11.014   2.860   6.743  0.0974  0.2124  0.8521
  611MOL0     C82359  11.140   2.830   6.816 -0.4929  0.3384  0.2442
  611MOL0     C82360  11.172   2.681   6.801 -0.5451 -0.3813 -0.3121
  611MOL0     C82361  11.319   2.640   6.835 -0.5313 -1.0343  0.9033
  611MOL0     C82362  11.340   2.496   6.788  0.5387 -0.1981 -0.6270
  611MOL0     C82363  11.481   2.471   6.822  0.4178 -0.3928  0.3897
  611MOL0     C82364  11.535   2.324   6.808 -0.3782  0.0072 -0.7963
  611MOL0     C82365  11.506   2.277   6.667 -0.3899  1.1426  0.3706
  611MOL0     C82366  11.560   2.139   6.640  0.0153  0.2113  0.0145
  611MOL0     N82367  11.505   2.104   6.509  0.0609 -0.2038  0.4974
  611MOL0     C82368  11.391   2.026   6.494  0.3218 -0.3207  0.6551
  611MOL0     C82369  11.396   1.992   6.362 -0.5505  0.5606  0.1735
  611MOL0     C82370  11.298   1.902   6.296  0.0212  0.9771  0.3458
  611MOL0     C82371  11.155   1.948   6.318  0.4975 -1.0080 -0.2382
  611MOL0     C82372  11.045   1.871   6.241 -0.7824  0.4700  0.5897
  611MOL0     C82373  10.914   1.964   6.247 -0.1095  0.3804 -0.2762
  611MOL0     O82374  10.884   2.012   6.387 -0.3410  0.6176 -0.1099
  611MOL0     C82375  10.799   2.110   6.405  0.0759 -0.0997  0.2096
  611MOL0     C82376  10.784   2.164   6.527 -0.2125  0.0435 -0.2269
  611MOL0     C82377  10.693   2.268   6.552 -0.2614  0.3661 -0.0169
  611MOL0     C82378  10.614   2.330   6.446  0.3366 -0.4238 -0.4676
  611MOL0     C82379  10.515   2.433   6.472  0.2184 -1.1132 -1.0419
  611MOL0     O82380  10.458   2.483   6.370  0.3068 -0.1311 -0.3027
  611MOL0     C82381  10.363   2.588   6.381 -0.5220 -0.6346  0.1763
  611MOL0     C82382  10.399   2.720   6.357 -0.2128  0.7815 -0.0915
  611MOL0     C82383  10.310   2.822   6.396 -0.9108  0.9618  0.0040
  611MOL0     C82384  10.183   2.790   6.451  0.5778 -0.1012  0.3326
  611MOL0     O82385  10.100   2.895   6.472  0.2151  0.3376 -0.9533
  611MOL0     C82386   9.962   2.876   6.514 -0.2274 -0.3797  0.0188
  611MOL0     C82387   9.893   3.005   6.536 -0.0667 -0.2803  0.0146
  611MOL0     C82388   9.737   2.994   6.528  0.1931  1.0098  0.0771
  611MOL0     C82389   9.664   3.133   6.504 -0.8747 -0.2541 -0.8145
  611MOL0     C82390   9.511   3.131   6.542 -0.3276  0.1662 -0.6666
  611MOL0     C82391   9.498   3.153   6.702 -0.6996 -0.2999  0.2804
  611MOL0     C82392   9.361   3.127   6.756 -1.3363 -0.0449  0.3152
  611MOL0     C82393   9.326   3.221   6.870  0.1876  0.4133  0.1415
  611MOL0    Cl82394   9.158   3.171   6.904  0.2455 -0.2742  0.3416
  611MOL0     C82395  10.137   2.657   6.447  0.7756  0.0782  0.3302
  611MOL0     C82396  10.233   2.556   6.423 -0.1865  0.7940 -0.0883
  611MOL0     O82397  10.493   2.476   6.587 -0.8909 -0.2752  0.4209
  611MOL0     C82398  10.636   2.275   6.319  0.6187 -0.2136  0.0803
  611MOL0     C82399  10.723   2.166   6.302  0.2902 -0.7155  0.4508
  611MOL0     N82400  11.498   2.064   6.307  0.1477 -0.3865  0.1556
  611MOL0     N82401  11.568   2.124   6.392  0.6473 -0.5708  0.3766
  611MOL0     C82402  10.807   2.984   6.712  0.2489 -0.0688 -0.8483
  611MOL0     C82403  10.742   3.114   6.715 -0.4965 -0.4235  0.5288
  611MOL0     C82404  10.608   3.521   6.657 -0.0727  0.4093  0.9645
  611MOL0     C82405  10.641   3.607   6.763  0.1526 -0.0513  0.3279
  611MOL0     C82406  10.580   3.728   6.779 -0.0129 -0.2415  0.1651
  611MOL0     C82407  10.474   3.753   6.695 -1.0225 -0.1957 -0.3471
  611MOL0     O82408  10.425   3.877   6.699  0.1211 -1.1341  0.1039
  611MOL0     C82409  10.455   3.963   6.577  1.4380  0.1348 -0.5993
  611MOL0     C82410  10.406   4.107   6.605  0.3465  0.5743 -0.0458
  611MOL0     C82411  10.395   4.206   6.483  0.4939  0.1909 -0.9393
  611MOL0     C82412  10.364   4.342   6.524 -0.6067 -0.0496 -0.4501
  611MOL0     C82413  10.221   4.364   6.556 -0.1240  0.2268 -0.4596
  611MOL0     C82414  10.111   4.394   6.577  0.1585 -1.2704 -0.3996
  611MOL0     C82415  10.431   3.667   6.593 -0.0669  1.0417  0.0016
  611MOL0     C82416  10.496   3.548   6.571 -0.4657  0.2623  0.5995
  611MOL0     C82417  10.442   3.456   6.462  0.0011 -1.6786 -0.4064
  611MOL0     H82418  10.981   3.305   6.828 -0.5904  1.8325 -0.9447
  611MOL0     H82419  11.097   3.075   6.864  0.0074 -4.4674  0.2482
  611MOL0     H82420  11.225   2.888   6.778  1.1438 -1.7850  0.4543
  611MOL0     H82421  11.137   2.856   6.922  1.3812 -0.7860  0.6297
  611MOL0     H82422  11.155   2.656   6.696  2.3910  0.5535 -1.1036
  611MOL0     H82423  11.103   2.619   6.859 -0.1886 -1.6399 -1.1873
  611MOL0     H82424  11.332   2.645   6.944  0.3167  1.8519  0.7471
  611MOL0     H82425  11.389   2.706   6.783 -0.6285 -0.0273  2.0181
  611MOL0     H82426  11.272   2.426   6.837 -1.0061  0.8212 -1.2303
  611MOL0     H82427  11.332   2.501   6.679  0.2785 -1.1876 -0.6581
  611MOL0     H82428  11.538   2.535   6.754  1.5870 -1.8460 -0.0742
  611MOL0     H82429  11.498   2.501   6.925  0.8467 -1.7732  0.7489
  611MOL0     H82430  11.643   2.317   6.824 -0.3319 -3.7340 -1.7757
  611MOL0     H82431  11.482   2.266   6.883  2.0942 -0.3655  0.7873
  611MOL0     H82432  11.548   2.336   6.585  1.7952 -0.0595  0.5504
  611MOL0     H82433  11.399   2.278   6.647 -0.2895 -0.8548 -0.4264
  611MOL0     H82434  11.669   2.147   6.639  0.0370  2.5028 -4.3333
  611MOL0     H82435  11.524   2.071   6.717  2.1284 -0.1602  0.7397
  611MOL0     H82436  11.315   2.001   6.567  0.0257  0.6277  0.6842
  611MOL0     H82437  11.311   1.896   6.188 -3.2813 -0.3075 -0.0845
  611MOL0     H82438  11.311   1.802   6.337  0.9666 -0.2308 -2.6334
  611MOL0     H82439  11.138   1.941   6.426  0.0124  3.8883  0.2212
  611MOL0     H82440  11.153   2.057   6.307  2.3222 -0.9153  0.0616
  611MOL0     H82441  11.028   1.774   6.288  1.1275 -0.1793  0.0381
  611MOL0     H82442  11.074   1.854   6.137 -1.5699 -1.4096  0.6314
  611MOL0     H82443  10.827   1.917   6.201 -1.0089 -1.4006  2.9400
  611MOL0     H82444  10.932   2.054   6.188  1.3138  1.5487  1.8052
  611MOL0     H82445  10.851   2.129   6.605  0.0281  3.2178  1.1410
  611MOL0     H82446  10.691   2.305   6.653 -0.8262 -1.3071  0.6218
  611MOL0     H82447  10.490   2.766   6.320 -0.1840  0.4450 -0.4529
  611MOL0     H82448  10.339   2.924   6.414 -1.2857  0.9877  0.4724
  611MOL0     H82449   9.907   2.839   6.427  1.9961 -1.1202 -1.1747
  611MOL0     H82450   9.947   2.811   6.600 -0.0782  0.2124  0.5001
  611MOL0     H82451   9.917   3.035   6.638  0.5631 -0.5686 -0.0446
  611MOL0     H82452   9.934   3.081   6.469  0.2743 -1.0946 -0.7228
  611MOL0     H82453   9.704   2.920   6.454  0.3773  0.0424  0.9370
  611MOL0     H82454   9.699   2.955   6.623  0.3054  0.4585 -0.1042
  611MOL0     H82455   9.668   3.161   6.399 -2.9807  2.8894 -0.2116
  611MOL0     H82456   9.717   3.220   6.544 -1.2528  1.7596 -4.3516
  611MOL0     H82457   9.472   3.033   6.515  0.1198 -0.6484  1.4491
  611MOL0     H82458   9.458   3.209   6.486 -2.0943  0.9869  1.9417
  611MOL0     H82459   9.568   3.083   6.749  0.3110 -0.2976 -1.1654
  611MOL0     H82460   9.516   3.259   6.724 -3.2292  0.3556 -0.5484
  611MOL0     H82461   9.356   3.021   6.783  2.2513 -0.4178  0.0171
  611MOL0     H82462   9.296   3.137   6.668  0.9362  0.6128 -1.4062
  611MOL0     H82463   9.391   3.225   6.958  1.9571  1.1940 -1.1385
  611MOL0     H82464   9.320   3.322   6.830  0.7518  0.2278 -0.4151
  611MOL0     H82465  10.036   2.635   6.480  0.8453  1.7232  1.8042
  611MOL0     H82466  10.209   2.451   6.438 -1.5519  0.7249 -2.2482
  611MOL0     H82467  10.580   2.317   6.236 -2.3296 -0.8823  1.6124
  611MOL0     H82468  10.723   2.141   6.196  0.3487  0.2824  0.1998
  611MOL0     H82469  10.766   2.894   6.670  0.7080 -1.0547  0.7212
  611MOL0     H82470  10.650   3.131   6.660 -1.2648 -1.6807  1.3767
  611MOL0     H82471  10.705   3.569   6.842 -0.6644 -2.6415 -0.1640
  611MOL0     H82472  10.616   3.783   6.866  3.7481 -0.3267 -1.1857
  611MOL0     H82473  10.405   3.924   6.487 -3.6060  0.3799  1.7196
  611MOL0     H82474  10.563   3.958   6.561  1.8278  1.3255  1.4469
  611MOL0     H82475  10.459   4.145   6.693  0.3446  0.1290  0.1490
  611MOL0     H82476  10.304   4.090   6.641  1.4282  0.6462  3.4063
  611MOL0     H82477  10.323   4.163   6.412 -0.6671 -0.1672  0.3880
  611MOL0     H82478  10.496   4.207   6.441  0.0174  0.7723 -2.1173
  611MOL0     H82479  10.424   4.378   6.608  0.0027  2.2558 -1.7749
  611MOL0     H82480  10.391   4.405   6.439 -2.9013  0.1013 -1.1481
  611MOL0     H82481  10.011   4.416   6.608 -0.0638 -2.2376 -0.3785
  611MOL0     H82482  10.342   3.686   6.533 -0.4429 -2.9061 -0.9864
  611MOL0     H82483  10.468   3.354   6.492 -0.8440 -1.4721  1.1080
  611MOL0     H82484  10.333   3.456   6.458 -0.1031  2.0853 -0.4385
  611MOL0     H82485  10.473   3.494   6.364 -2.4264  1.5386 -0.0640
  612MOL0     O82486   1.053   5.427   8.926  0.2799  0.1404 -0.1284
  612MOL0     C82487   1.078   5.318   8.980  0.9334  0.4193  1.3849
  612MOL0     O82488   1.202   5.258   8.977  0.5517  0.7593 -1.1838
  612MOL0     C82489   1.301   5.307   8.900  0.9466 -0.1590 -0.0713
  612MOL0     C82490   1.422   5.341   8.962  0.2448 -0.2471  0.4549
  612MOL0     C82491   1.528   5.388   8.883  0.1204 -0.9016  0.3696
  612MOL0     C82492   1.515   5.392   8.745 -1.0686  0.2732 -0.1634
  612MOL0     O82493   1.617   5.442   8.665 -0.3445  0.0828 -0.8003
  612MOL0     C82494   1.690   5.348   8.592  0.2624 -1.1745 -0.5724
  612MOL0     C82495   1.820   5.313   8.653 -0.4565 -0.4160 -0.0339
  612MOL0     C82496   1.927   5.428   8.683 -0.1220 -0.7136  1.0388
  612MOL0     C82497   1.991   5.486   8.559 -0.5969 -0.9721  0.1341
  612MOL0     C82498   2.098   5.587   8.596 -0.0228  0.1227  0.0270
  612MOL0     C82499   2.192   5.626   8.470  0.2800 -0.3070 -0.4029
  612MOL0     C82500   2.264   5.759   8.483 -0.3700  0.3368  0.0477
  612MOL0     C82501   2.345   5.795   8.353 -1.1953  0.4786 -0.3567
  612MOL0     N82502   2.407   5.929   8.339  0.3702 -0.6166 -0.4438
  612MOL0     C82503   2.393   6.030   8.430  0.1356 -0.4863 -0.7361
  612MOL0     C82504   2.471   6.131   8.379  0.2224  0.5707 -0.3438
  612MOL0     C82505   2.487   6.266   8.454  0.6658 -0.6518 -0.2084
  612MOL0     C82506   2.483   6.387   8.364 -0.3091  0.0942 -0.1016
  612MOL0     C82507   2.342   6.439   8.327 -0.5877  0.8939  0.9123
  612MOL0     C82508   2.261   6.472   8.449  0.1322 -0.1432  0.5765
  612MOL0     O82509   2.174   6.359   8.461  0.2698 -0.3792 -0.3930
  612MOL0     C82510   2.057   6.363   8.531  0.4994 -0.9291  0.2457
  612MOL0     C82511   1.972   6.252   8.525  0.4688 -0.1829 -0.2721
  612MOL0     C82512   1.849   6.261   8.600 -0.1259  0.7355  0.1521
  612MOL0     C82513   1.810   6.366   8.686  0.0565 -0.0068 -0.8413
  612MOL0     C82514   1.681   6.360   8.763  0.1183 -0.5606  0.2320
  612MOL0     O82515   1.658   6.461   8.848  0.1591 -0.4281 -0.2239
  612MOL0     C82516   1.540   6.452   8.911  0.0222 -1.3740 -0.3836
  612MOL0     C82517   1.540   6.410   9.035  0.1566  0.9209 -0.0284
  612MOL0     C82518   1.420   6.387   9.110  0.0604  0.2518 -0.6875
  612MOL0     C82519   1.293   6.414   9.051 -0.2647  0.2769 -0.7111
  612MOL0     O82520   1.175   6.385   9.115 -0.4591  0.4508 -0.3390
  612MOL0     C82521   1.056   6.350   9.045  0.2536  0.1640  0.8440
  612MOL0     C82522   0.946   6.298   9.140  0.0243  0.6628 -1.3002
  612MOL0     C82523   0.891   6.395   9.251  0.2697  0.2466  0.4280
  612MOL0     C82524   0.820   6.515   9.184 -1.1861 -0.5061 -0.6671
  612MOL0     C82525   0.756   6.596   9.292 -0.5977  0.5259 -0.6433
  612MOL0     C82526   0.665   6.702   9.228  0.7203 -0.2053 -0.3448
  612MOL0     C82527   0.562   6.780   9.324 -0.3064  0.0005 -0.1737
  612MOL0     C82528   0.636   6.840   9.440 -0.5370 -0.3990 -0.3250
  612MOL0    Cl82529   0.782   6.937   9.393  0.2975 -0.6668  0.3585
  612MOL0     C82530   1.290   6.463   8.921 -0.0505 -0.0278 -0.2979
  612MOL0     C82531   1.414   6.489   8.853 -0.3276  0.1054 -0.3235
  612MOL0     O82532   1.608   6.261   8.744 -0.6323 -0.0515 -0.1484
  612MOL0     C82533   1.905   6.472   8.690  0.0676 -0.4045  0.4855
  612MOL0     C82534   2.019   6.469   8.619  0.0816 -0.1663  1.2907
  612MOL0     N82535   2.533   6.093   8.261 -0.0249  0.7156 -0.1543
  612MOL0     N82536   2.483   5.971   8.240 -0.2146  0.2092  0.6463
  612MOL0     C82537   1.394   5.357   8.683  0.4133  0.0102 -0.2324
  612MOL0     C82538   1.283   5.308   8.760 -0.7206 -0.0290  0.0474
  612MOL0     C82539   0.966   5.252   9.052  0.0626 -0.7996  0.6792
  612MOL0     C82540   0.996   5.187   9.165 -0.2312 -0.0568  0.3628
  612MOL0     C82541   0.898   5.132   9.243  0.3765 -0.0068 -1.4321
  612MOL0     C82542   0.764   5.129   9.202  1.5574 -0.2161  0.7442
  612MOL0     O82543   0.664   5.077   9.276  0.0882  0.2284 -0.0842
  612MOL0     C82544   0.698   4.981   9.374  1.0676  0.3672 -0.3594
  612MOL0     C82545   0.578   4.922   9.450 -0.8388  0.8794  0.4221
  612MOL0     C82546   0.483   4.839   9.346 -0.8435 -0.0463 -0.4090
  612MOL0     C82547   0.444   4.708   9.403 -0.0628 -0.0678  0.3192
  612MOL0     C82548   0.350   4.718   9.520 -0.1052 -0.5473  0.0078
  612MOL0     C82549   0.281   4.734   9.615  0.5872  0.0240  0.4001
  612MOL0     C82550   0.731   5.200   9.091 -0.9550 -0.0697 -0.4450
  612MOL0     C82551   0.829   5.267   9.008  0.5175  0.5878  0.2331
  612MOL0     C82552   0.778   5.357   8.898 -0.4652 -0.9958  0.0535
  612MOL0     H82553   1.431   5.352   9.070  5.1601  0.9262  0.1678
  612MOL0     H82554   1.620   5.429   8.924 -0.3816  1.1262 -0.3935
  612MOL0     H82555   1.636   5.254   8.578 -0.3875 -0.8391 -0.3694
  612MOL0     H82556   1.706   5.383   8.489  3.2337  1.2527  0.5626
  612MOL0     H82557   1.855   5.239   8.580 -1.5537 -1.4151  0.4356
  612MOL0     H82558   1.795   5.256   8.743  1.6032  0.6974  1.3373
  612MOL0     H82559   2.001   5.385   8.751  1.6033  3.2335  1.8864
  612MOL0     H82560   1.876   5.506   8.740  0.8951  0.9529 -0.2354
  612MOL0     H82561   2.037   5.407   8.498 -0.5128  1.3183 -3.0223
  612MOL0     H82562   1.914   5.530   8.495 -0.8839 -1.3963  0.1869
  612MOL0     H82563   2.048   5.676   8.635  1.7476  0.2143  2.2795
  612MOL0     H82564   2.153   5.554   8.685  1.7281 -0.1140 -1.0936
  612MOL0     H82565   2.255   5.537   8.460  0.1367 -0.2685 -1.8391
  612MOL0     H82566   2.124   5.629   8.385 -0.1932 -1.3318 -0.0897
  612MOL0     H82567   2.342   5.755   8.560 -0.4367 -2.0545  0.0808
  612MOL0     H82568   2.201   5.842   8.515 -4.6465 -1.1561 -3.5410
  612MOL0     H82569   2.416   5.712   8.343 -1.3668 -0.8191  5.6989
  612MOL0     H82570   2.268   5.796   8.275 -0.0676 -0.5730 -1.5342
  612MOL0     H82571   2.349   6.032   8.529  2.9844 -2.3561  0.6953
  612MOL0     H82572   2.410   6.283   8.530  0.3380 -0.8274 -0.4980
  612MOL0     H82573   2.586   6.264   8.502  1.9875 -1.3397 -2.7782
  612MOL0     H82574   2.545   6.466   8.406  0.6568  0.1265 -1.4960
  612MOL0     H82575   2.526   6.362   8.266  3.7038 -3.3859  2.1933
  612MOL0     H82576   2.290   6.374   8.256 -0.1227  0.9860  0.4750
  612MOL0     H82577   2.359   6.535   8.277  0.7094  1.0428  1.5942
  612MOL0     H82578   2.203   6.560   8.419  0.5136  0.5091  1.6975
  612MOL0     H82579   2.320   6.496   8.538  1.6451  0.4316 -0.5453
  612MOL0     H82580   2.010   6.170   8.466 -0.6043  0.2185 -1.5506
  612MOL0     H82581   1.793   6.174   8.569 -0.6110  0.4759  1.6816
  612MOL0     H82582   1.633   6.400   9.090 -0.3097 -1.0959  0.4791
  612MOL0     H82583   1.438   6.365   9.215  1.3601  1.6523 -0.5917
  612MOL0     H82584   1.016   6.441   9.001 -0.1315  0.9433  2.6883
  612MOL0     H82585   1.068   6.270   8.972 -0.0144  1.8424 -1.1177
  612MOL0     H82586   0.877   6.263   9.063  0.5086  2.8874 -2.8702
  612MOL0     H82587   0.981   6.210   9.195  0.4300  3.9388  4.3938
  612MOL0     H82588   0.819   6.337   9.309  1.9005 -0.4126  1.9217
  612MOL0     H82589   0.971   6.429   9.319  2.2293 -2.1550 -0.5384
  612MOL0     H82590   0.741   6.475   9.120 -1.2200  0.4330 -1.2310
  612MOL0     H82591   0.889   6.578   9.127 -1.9621  0.6013 -0.4082
  612MOL0     H82592   0.831   6.641   9.359 -2.5876  1.6159  0.9700
  612MOL0     H82593   0.698   6.529   9.356 -0.1203 -1.6057 -2.3480
  612MOL0     H82594   0.722   6.774   9.169 -1.5258  1.4149 -0.6803
  612MOL0     H82595   0.601   6.652   9.154 -0.0429 -0.1511  0.2573
  612MOL0     H82596   0.487   6.709   9.359  0.5473  0.1187  2.0536
  612MOL0     H82597   0.522   6.867   9.270 -2.5903 -1.5225 -1.0672
  612MOL0     H82598   0.573   6.895   9.510 -0.2337  0.2875 -0.5884
  612MOL0     H82599   0.675   6.759   9.503  1.8634  1.4248  0.6734
  612MOL0     H82600   1.197   6.491   8.872 -1.8920  0.9293  3.3768
  612MOL0     H82601   1.410   6.533   8.755  1.5488 -1.5643 -1.2223
  612MOL0     H82602   1.874   6.558   8.750 -0.8399  1.4438 -2.4265
  612MOL0     H82603   2.086   6.554   8.621  0.6888 -0.0885 -4.5794
  612MOL0     H82604   1.382   5.357   8.575 -1.4095  0.5011 -0.0588
  612MOL0     H82605   1.192   5.279   8.708  0.5420  1.3990 -3.2406
  612MOL0     H82606   1.101   5.189   9.191 -0.8597 -0.7332  3.3428
  612MOL0     H82607   0.937   5.110   9.342 -0.0424 -2.2750 -1.7100
  612MOL0     H82608   0.760   5.018   9.456  1.1371  0.0177 -0.2546
  612MOL0     H82609   0.751   4.896   9.330  0.9021 -0.6453  1.3378
  612MOL0     H82610   0.522   5.001   9.500  2.4587  2.1666  2.3705
  612MOL0     H82611   0.620   4.859   9.528  1.5387 -0.9233 -2.1026
  612MOL0     H82612   0.529   4.819   9.249 -2.6200 -2.2194 -0.8829
  612MOL0     H82613   0.391   4.896   9.331 -1.3676 -0.7156  0.1864
  612MOL0     H82614   0.406   4.644   9.323  0.0864 -0.8740  0.8880
  612MOL0     H82615   0.528   4.651   9.442 -1.9974 -2.6409  0.9799
  612MOL0     H82616   0.214   4.745   9.698 -1.3584 -2.8324 -0.6455
  612MOL0     H82617   0.625   5.205   9.068 -0.5142  0.6536 -2.5765
  612MOL0     H82618   0.840   5.344   8.808  3.1660 -0.1346  2.1926
  612MOL0     H82619   0.680   5.323   8.865 -0.3208 -0.0319 -1.4693
  612MOL0     H82620   0.775   5.461   8.934 -3.9635 -1.3520  1.0992
  613MOL0     O82621   5.591   8.200   8.054 -0.7905  0.5080 -0.0093
  613MOL0     C82622   5.654   8.275   7.982 -0.1818  0.6200 -0.1440
  613MOL0     O82623   5.738   8.369   8.031 -0.4563 -0.2883 -0.1577
  613MOL0     C82624   5.770   8.366   8.161  0.1253 -0.2864  0.2489
  613MOL0     C82625   5.731   8.468   8.244  0.3377 -0.9112  0.8606
  613MOL0     C82626   5.760   8.461   8.375 -0.8678 -0.2533  0.3159
  613MOL0     C82627   5.836   8.345   8.428  0.2874 -0.9903 -0.2263
  613MOL0     O82628   5.858   8.331   8.567 -0.3160 -0.7054  1.2696
  613MOL0     C82629   5.980   8.399   8.599 -0.5902  0.9930 -1.1166
  613MOL0     C82630   6.012   8.381   8.744  0.0734 -0.8638 -0.9855
  613MOL0     C82631   5.926   8.473   8.844 -0.6255  0.4242 -0.1312
  613MOL0     C82632   6.010   8.526   8.963  0.5885 -0.6653 -0.5971
  613MOL0     C82633   5.947   8.660   9.033  0.7856  0.0062 -0.0054
  613MOL0     C82634   5.820   8.623   9.117 -0.1739 -0.2033  0.1704
  613MOL0     C82635   5.728   8.740   9.148  0.9467 -0.2946 -0.1505
  613MOL0     C82636   5.806   8.858   9.221 -0.3642 -0.7201  0.5212
  613MOL0     N82637   5.883   8.802   9.339 -1.0671  0.4148 -0.0010
  613MOL0     C82638   6.021   8.802   9.341 -1.0463 -1.1855 -1.6354
  613MOL0     C82639   6.045   8.774   9.472  0.7228  0.6295 -0.3371
  613MOL0     C82640   6.177   8.807   9.527  1.9393 -0.3505 -0.2461
  613MOL0     C82641   6.223   8.708   9.639 -0.0667 -0.2340 -0.3716
  613MOL0     C82642   6.320   8.772   9.747  0.2167 -0.5435  0.1836
  613MOL0     C82643   6.395   8.667   9.827 -0.7540 -0.2195  1.4164
  613MOL0     O82644   6.491   8.619   9.734 -0.1838  0.0970  0.0241
  613MOL0     C82645   6.610   8.609   9.797  0.2904 -0.0457  0.8174
  613MOL0     C82646   6.634   8.547   9.920 -0.3580 -0.1176 -0.6102
  613MOL0     C82647   6.757   8.541   9.977  0.0371  0.1240  0.7201
  613MOL0     C82648   6.871   8.591   9.907 -0.0203  0.6385  0.0532
  613MOL0     C82649   6.997   8.593   9.971  0.0470 -0.8729 -0.6250
  613MOL0     O82650   7.096   8.668   9.904  0.7244  0.3257 -1.0848
  613MOL0     C82651   7.215   8.701   9.970 -0.3769 -1.4530 -0.0930
  613MOL0     C82652   7.278   8.812   9.930 -0.3295 -0.0322 -0.4879
  613MOL0     C82653   7.405   8.852   9.987 -0.4315  0.9470  0.3988
  613MOL0     C82654   7.465   8.784  10.090  0.7623  0.3955 -0.7816
  613MOL0     O82655   7.576   8.843  10.144 -0.3620  0.1593 -0.2722
  613MOL0     C82656   7.690   8.759  10.169 -0.6093  0.6529  0.4316
  613MOL0     C82657   7.823   8.834  10.172 -0.5622  0.5878 -0.6913
  613MOL0     C82658   7.828   8.943  10.066 -0.1989 -0.3616  0.1938
  613MOL0     C82659   7.966   8.967  10.004  0.3562  0.2959  0.1434
  613MOL0     C82660   7.946   9.023   9.867 -0.9789 -0.6308 -0.4668
  613MOL0     C82661   8.068   9.039   9.797 -0.2646 -0.6875 -0.2174
  613MOL0     C82662   8.066   9.115   9.665 -0.3802 -0.0037 -0.8229
  613MOL0     C82663   8.007   9.034   9.556  0.1562  0.1513  0.2614
  613MOL0    Cl82664   8.016   9.133   9.407  0.0476  0.0675  0.3264
  613MOL0     C82665   7.400   8.655  10.133  0.0581  0.7860  0.1263
  613MOL0     C82666   7.287   8.616  10.059  0.4356  0.4221 -0.0635
  613MOL0     O82667   7.013   8.538  10.081  0.0789 -0.0109 -0.6226
  613MOL0     C82668   6.849   8.652   9.781  0.0543 -0.0398  1.2193
  613MOL0     C82669   6.725   8.659   9.725  0.0426 -0.3867 -1.2370
  613MOL0     N82670   5.922   8.765   9.538 -0.0645  0.0490 -0.1449
  613MOL0     N82671   5.830   8.763   9.457 -0.4059  0.7340 -0.4434
  613MOL0     C82672   5.886   8.253   8.339  0.8996 -0.0122  0.5245
  613MOL0     C82673   5.845   8.256   8.203 -0.2246  0.6138 -0.7323
  613MOL0     C82674   5.619   8.270   7.839 -0.2513 -0.6072  0.4307
  613MOL0     C82675   5.669   8.375   7.759  0.4029  0.9122  1.1671
  613MOL0     C82676   5.663   8.380   7.620 -0.0541  0.2110  0.2008
  613MOL0     C82677   5.583   8.289   7.549 -0.1615  0.0968  0.1723
  613MOL0     O82678   5.572   8.300   7.406 -0.1767  0.5689 -0.1731
  613MOL0     C82679   5.446   8.293   7.357 -0.2558  0.2829  0.0451
  613MOL0     C82680   5.451   8.349   7.216  0.9884 -0.7727 -0.1655
  613MOL0     C82681   5.543   8.265   7.125  0.0014  0.1241 -0.4585
  613MOL0     C82682   5.585   8.342   6.997  0.0156 -0.5439 -0.4687
  613MOL0     C82683   5.649   8.237   6.910  0.6879 -0.1301  0.5734
  613MOL0     C82684   5.697   8.155   6.831  0.5499  0.5857 -0.1451
  613MOL0     C82685   5.510   8.201   7.629 -0.2699  0.0671 -0.0384
  613MOL0     C82686   5.526   8.184   7.774  0.5933  0.1112 -0.2599
  613MOL0     C82687   5.436   8.091   7.839 -0.7536  0.6641 -0.8341
  613MOL0     H82688   5.677   8.554   8.205  1.0826 -1.5907 -1.8662
  613MOL0     H82689   5.717   8.536   8.440  0.8681  2.8946 -1.8968
  613MOL0     H82690   6.067   8.372   8.538  0.8541 -0.6834  1.5230
  613MOL0     H82691   5.973   8.505   8.573  1.8026  0.8262 -2.8004
  613MOL0     H82692   6.115   8.415   8.756 -0.7238  1.0375  1.3551
  613MOL0     H82693   6.005   8.276   8.771  4.4284 -0.8468  0.9507
  613MOL0     H82694   5.857   8.397   8.882 -0.9899  1.3183  1.0117
  613MOL0     H82695   5.869   8.556   8.801 -2.7566 -1.2158 -0.6744
  613MOL0     H82696   6.018   8.448   9.039  0.2151 -0.3979 -0.2822
  613MOL0     H82697   6.110   8.560   8.932  0.5266 -1.6478 -1.9372
  613MOL0     H82698   6.019   8.720   9.089  0.2112  2.2258 -1.5219
  613MOL0     H82699   5.915   8.723   8.949 -1.1418 -0.0648  0.6301
  613MOL0     H82700   5.770   8.537   9.072  1.2704 -0.2869 -1.3576
  613MOL0     H82701   5.864   8.590   9.212  1.7557 -0.0812 -0.6288
  613MOL0     H82702   5.647   8.700   9.210  0.0548 -1.8764 -2.2450
  613MOL0     H82703   5.678   8.770   9.055 -0.6507  0.2140  0.8264
  613MOL0     H82704   5.872   8.903   9.146 -1.7018  0.6982  0.1286
  613MOL0     H82705   5.731   8.928   9.258  0.7709 -0.0220  1.5830
  613MOL0     H82706   6.083   8.839   9.260 -2.6303  3.6089 -1.0221
  613MOL0     H82707   6.245   8.829   9.444 -0.1550 -1.2024 -2.3218
  613MOL0     H82708   6.151   8.899   9.580 -2.1418 -0.6232 -1.4025
  613MOL0     H82709   6.135   8.668   9.690  0.2074 -0.5991 -0.1807
  613MOL0     H82710   6.264   8.611   9.609  0.7292 -0.9588  2.6882
  613MOL0     H82711   6.267   8.837   9.818 -1.8551 -1.1941 -0.7036
  613MOL0     H82712   6.385   8.844   9.696 -2.7725  2.1113 -0.1808
  613MOL0     H82713   6.329   8.585   9.856 -1.0397 -1.2040 -1.6569
  613MOL0     H82714   6.440   8.714   9.915 -1.3646 -0.1818  1.7137
  613MOL0     H82715   6.553   8.502   9.977  0.6285  0.2533  1.1581
  613MOL0     H82716   6.765   8.492  10.074 -1.6067 -0.8213  0.4218
  613MOL0     H82717   7.228   8.885   9.867  2.1071  1.7143 -0.5059
  613MOL0     H82718   7.441   8.948   9.953  0.2451  0.2126 -1.0293
  613MOL0     H82719   7.683   8.704  10.264  0.1677  1.1970  0.8223
  613MOL0     H82720   7.694   8.683  10.090 -0.8368  0.4802  0.5836
  613MOL0     H82721   7.825   8.878  10.272 -3.9468 -2.3523  0.9300
  613MOL0     H82722   7.906   8.767  10.146  1.2525  2.7752 -0.8002
  613MOL0     H82723   7.751   8.933   9.989  0.7414 -3.0521 -0.5166
  613MOL0     H82724   7.807   9.041  10.111 -1.8212  0.5690 -2.3696
  613MOL0     H82725   8.014   8.870   9.989  0.1629 -0.0852  1.8029
  613MOL0     H82726   8.037   9.019  10.069  0.6751 -2.0513  1.8064
  613MOL0     H82727   7.904   9.123   9.883  1.5374  0.4415 -0.0859
  613MOL0     H82728   7.872   8.967   9.810 -1.0491 -0.8225 -0.1892
  613MOL0     H82729   8.131   9.091   9.870  0.8845 -1.8353 -0.3452
  613MOL0     H82730   8.114   8.940   9.780 -4.1781 -2.9009  0.9250
  613MOL0     H82731   8.165   9.144   9.629  0.3559 -0.5487  0.6406
  613MOL0     H82732   8.008   9.207   9.672  1.3411  1.0458  0.3047
  613MOL0     H82733   8.063   8.940   9.551  0.7332  0.1770  3.7839
  613MOL0     H82734   7.901   9.018   9.575  0.2615 -0.5066  0.3264
  613MOL0     H82735   7.451   8.587  10.201 -0.1725 -0.7239 -1.1292
  613MOL0     H82736   7.257   8.513  10.074  2.8208 -0.6513 -2.0140
  613MOL0     H82737   6.928   8.697   9.722 -0.0911  1.5473  2.1994
  613MOL0     H82738   6.718   8.720   9.636 -0.8479  0.3377 -0.6845
  613MOL0     H82739   5.955   8.173   8.366  2.2297  0.9674  0.1012
  613MOL0     H82740   5.878   8.180   8.133 -0.8784 -2.2119  1.8021
  613MOL0     H82741   5.737   8.449   7.802  2.4270 -0.1080 -0.1270
  613MOL0     H82742   5.718   8.458   7.567 -2.9642  1.1059 -1.7215
  613MOL0     H82743   5.373   8.349   7.417 -0.1637 -2.5521  3.0995
  613MOL0     H82744   5.415   8.188   7.361  2.0561 -0.5671 -2.0336
  613MOL0     H82745   5.489   8.452   7.220  1.8889 -1.1219  0.7702
  613MOL0     H82746   5.353   8.350   7.169 -0.2231 -2.5930  2.1246
  613MOL0     H82747   5.482   8.179   7.097 -2.5514  1.7699 -0.3437
  613MOL0     H82748   5.634   8.233   7.176  0.5454 -1.0241 -2.0452
  613MOL0     H82749   5.495   8.375   6.945 -1.1240  0.4618  1.9719
  613MOL0     H82750   5.658   8.423   7.010 -0.5823 -0.4140  2.8828
  613MOL0     H82751   5.735   8.086   6.758  0.8341 -1.0563  1.4815
  613MOL0     H82752   5.446   8.123   7.589  0.7409 -0.1328 -1.3097
  613MOL0     H82753   5.497   8.021   7.897  0.5808  3.0091  0.7756
  613MOL0     H82754   5.366   8.141   7.907 -0.8242 -0.1748 -0.2704
  613MOL0     H82755   5.373   8.039   7.767  0.8857  1.3086 -2.8367
  614MOL0     O82756   2.844   4.318   2.464 -0.4741  0.6723 -0.2940
  614MOL0     C82757   2.912   4.413   2.451  0.8125 -0.5186 -0.0047
  614MOL0     O82758   3.042   4.430   2.498  0.5101  0.7462  0.0839
  614MOL0     C82759   3.121   4.323   2.541 -0.6115  0.4602  0.2084
  614MOL0     C82760   3.241   4.372   2.583 -0.4623 -0.7233 -0.4009
  614MOL0     C82761   3.339   4.281   2.636 -0.1415 -0.1884  0.8816
  614MOL0     C82762   3.316   4.133   2.631  0.2636 -0.1360 -0.0422
  614MOL0     O82763   3.400   4.045   2.689  0.1423 -0.0876  0.4036
  614MOL0     C82764   3.469   3.984   2.582 -0.5134  0.3860  0.2660
  614MOL0     C82765   3.561   3.881   2.647 -0.2279 -0.0407  1.0652
  614MOL0     C82766   3.630   3.787   2.552 -0.3143  0.5679 -0.1124
  614MOL0     C82767   3.536   3.672   2.499  0.1204 -0.1187 -0.1495
  614MOL0     C82768   3.527   3.560   2.603 -0.6946  0.3769 -0.8774
  614MOL0     C82769   3.397   3.483   2.602  0.1080  0.2589 -0.0601
  614MOL0     C82770   3.390   3.396   2.477 -1.8041  0.0085 -0.0186
  614MOL0     C82771   3.262   3.319   2.473 -0.5273  0.3605 -0.0119
  614MOL0     N82772   3.262   3.237   2.352  0.8173 -0.3531  0.4731
  614MOL0     C82773   3.353   3.134   2.320  0.1491  0.2137  0.0844
  614MOL0     C82774   3.311   3.080   2.203  0.4904  0.2276 -0.2077
  614MOL0     C82775   3.376   2.976   2.110 -0.0042  1.3752 -0.5156
  614MOL0     C82776   3.497   3.039   2.039 -0.1340 -0.1284  0.8767
  614MOL0     C82777   3.622   3.034   2.135 -0.0464 -0.4693 -0.4077
  614MOL0     C82778   3.749   3.058   2.051  0.5310  0.3378 -0.0824
  614MOL0     O82779   3.784   2.925   1.998 -0.1200  0.5639  1.0965
  614MOL0     C82780   3.904   2.911   1.926  0.2526  0.8125 -0.0411
  614MOL0     C82781   3.981   3.016   1.875 -0.0437 -0.5044 -1.3106
  614MOL0     C82782   4.080   2.994   1.787 -0.3451  0.3327  0.4984
  614MOL0     C82783   4.124   2.863   1.755 -0.4792 -0.6844 -0.9303
  614MOL0     C82784   4.221   2.856   1.656 -0.4709 -1.3691  0.1117
  614MOL0     O82785   4.308   2.967   1.634  0.5167 -0.7287  0.5530
  614MOL0     C82786   4.424   2.945   1.557  0.1540  0.8349  0.5729
  614MOL0     C82787   4.424   2.963   1.417  0.8566  0.4306  0.2150
  614MOL0     C82788   4.545   2.950   1.346  0.4402 -0.3281 -0.0450
  614MOL0     C82789   4.656   2.896   1.401  0.2181 -0.0279 -0.0430
  614MOL0     O82790   4.766   2.880   1.323 -0.2796  0.4343 -0.1302
  614MOL0     C82791   4.738   2.787   1.220 -0.0317 -0.2984  0.2695
  614MOL0     C82792   4.871   2.738   1.151 -0.8156  0.3569 -0.2327
  614MOL0     C82793   4.934   2.843   1.066 -0.3035 -0.8374 -0.3112
  614MOL0     C82794   5.077   2.810   1.036 -0.7303  0.3108  0.2370
  614MOL0     C82795   5.150   2.926   0.956  0.0383  1.2301 -0.2692
  614MOL0     C82796   5.113   2.936   0.809  1.2701 -0.0689  0.3120
  614MOL0     C82797   5.214   3.039   0.749 -1.0827 -0.3603 -0.4687
  614MOL0     C82798   5.186   3.078   0.602  0.3893  0.5133  0.3384
  614MOL0    Cl82799   5.302   3.180   0.516  0.3615  0.4179 -0.0531
  614MOL0     C82800   4.658   2.867   1.539  0.7271  0.5489  0.4889
  614MOL0     C82801   4.544   2.896   1.613  0.2193 -0.5833 -1.2439
  614MOL0     O82802   4.238   2.749   1.599  0.2417 -0.3408 -0.2862
  614MOL0     C82803   4.048   2.761   1.804  0.3665  0.2730 -0.2841
  614MOL0     C82804   3.950   2.786   1.896  0.8291 -0.1353 -0.3839
  614MOL0     N82805   3.198   3.150   2.166  0.4417 -0.3440  0.3189
  614MOL0     N82806   3.164   3.236   2.257 -0.2530 -0.4559  0.1396
  614MOL0     C82807   3.191   4.090   2.581  0.0072 -0.3724  0.7914
  614MOL0     C82808   3.092   4.185   2.545  0.0351  0.7453  0.0136
  614MOL0     C82809   2.843   4.521   2.381 -0.1687  0.1034 -0.1290
  614MOL0     C82810   2.744   4.495   2.286  0.0677  0.6167  0.9838
  614MOL0     C82811   2.694   4.601   2.212 -0.6378 -0.2650 -0.2105
  614MOL0     C82812   2.742   4.733   2.221 -0.8926 -0.8374 -0.4904
  614MOL0     O82813   2.710   4.843   2.139 -0.9646 -0.2287  0.0048
  614MOL0     C82814   2.617   4.822   2.033  0.5086 -0.5723  0.2019
  614MOL0     C82815   2.478   4.852   2.090  0.8057 -0.5796  0.8672
  614MOL0     C82816   2.374   4.826   1.991 -0.3090  0.9495  0.9483
  614MOL0     C82817   2.414   4.871   1.842  1.0471 -0.3997  0.2635
  614MOL0     C82818   2.288   4.869   1.761 -0.9473  0.0184  0.1153
  614MOL0     C82819   2.180   4.880   1.704 -0.7057 -0.1049  0.4410
  614MOL0     C82820   2.836   4.755   2.321  0.3396 -0.9435 -0.7951
  614MOL0     C82821   2.888   4.654   2.403  0.1760  1.1113 -0.6298
  614MOL0     C82822   2.985   4.688   2.513 -1.0226 -0.0449  0.5349
  614MOL0     H82823   3.269   4.477   2.587  0.8952 -1.0942  3.0074
  614MOL0     H82824   3.437   4.310   2.671  1.1214 -2.1318 -0.8837
  614MOL0     H82825   3.394   3.926   2.527  0.2678  1.2721 -1.8096
  614MOL0     H82826   3.523   4.056   2.520  0.2079  1.4938  2.0843
  614MOL0     H82827   3.499   3.824   2.717 -1.6054 -1.6331 -1.2917
  614MOL0     H82828   3.638   3.938   2.698  0.3632 -0.0918  0.2444
  614MOL0     H82829   3.720   3.746   2.599  0.3924  2.0734 -0.0964
  614MOL0     H82830   3.681   3.839   2.470 -1.0710  0.9199 -0.3727
  614MOL0     H82831   3.441   3.715   2.466 -1.1804 -0.9486  2.3039
  614MOL0     H82832   3.575   3.623   2.409 -0.1715  0.7163 -0.7381
  614MOL0     H82833   3.614   3.494   2.594 -0.7911  0.1889 -0.4713
  614MOL0     H82834   3.522   3.599   2.705  0.3025 -2.7640  0.5035
  614MOL0     H82835   3.404   3.428   2.696  0.5891  0.7702  0.2035
  614MOL0     H82836   3.317   3.556   2.614 -1.3940 -1.4114  0.6318
  614MOL0     H82837   3.465   3.318   2.496  0.0682  1.7919  0.2816
  614MOL0     H82838   3.416   3.465   2.396  0.2173  2.4927  2.5471
  614MOL0     H82839   3.274   3.250   2.557 -0.6495 -0.0766 -0.3465
  614MOL0     H82840   3.173   3.380   2.486  1.0765  3.3458 -1.7042
  614MOL0     H82841   3.439   3.104   2.379 -0.3648  1.6228  1.6315
  614MOL0     H82842   3.409   2.883   2.156 -0.3717  0.6696 -1.6265
  614MOL0     H82843   3.293   2.960   2.041 -0.5838  2.1950 -0.0273
  614MOL0     H82844   3.527   2.981   1.951 -1.0452 -2.8580  2.2375
  614MOL0     H82845   3.490   3.145   2.016  0.9307 -0.4924 -1.4221
  614MOL0     H82846   3.634   2.948   2.201  1.8247  1.2534  1.6429
  614MOL0     H82847   3.619   3.120   2.203  1.4386 -1.5268  1.0451
  614MOL0     H82848   3.820   3.084   2.129  0.7823  0.0202 -0.2011
  614MOL0     H82849   3.728   3.137   1.978 -3.6076 -0.1521  0.3545
  614MOL0     H82850   3.949   3.114   1.907  0.5564 -1.2020  1.7667
  614MOL0     H82851   4.129   3.080   1.742 -0.6875  0.7015  0.8252
  614MOL0     H82852   4.336   3.002   1.367 -0.4395  1.0249  2.7693
  614MOL0     H82853   4.540   2.980   1.242  1.5228  3.0298  0.7522
  614MOL0     H82854   4.683   2.698   1.252  0.8025 -0.2868  1.8171
  614MOL0     H82855   4.682   2.833   1.137 -1.7126  1.4443  2.2413
  614MOL0     H82856   4.935   2.708   1.234 -1.1245 -1.1344 -0.5061
  614MOL0     H82857   4.848   2.645   1.097 -1.3342 -0.4617  1.3486
  614MOL0     H82858   4.881   2.848   0.971 -0.6428 -1.9678 -0.2047
  614MOL0     H82859   4.940   2.936   1.124 -1.8880 -1.0755  0.3006
  614MOL0     H82860   5.092   2.717   0.980  1.0378  1.0913 -0.6791
  614MOL0     H82861   5.134   2.796   1.128  0.7003  1.3287 -0.4646
  614MOL0     H82862   5.249   2.882   0.939  0.0377  1.7057 -1.6947
  614MOL0     H82863   5.145   3.021   1.010  0.7379  1.0556  0.1102
  614MOL0     H82864   5.131   2.845   0.751 -1.0823  1.2541 -2.7455
  614MOL0     H82865   5.007   2.965   0.801  0.0848 -3.8049  0.4262
  614MOL0     H82866   5.317   3.006   0.764 -0.6760  0.6519 -0.9254
  614MOL0     H82867   5.197   3.133   0.804  1.0356 -0.9178  1.2589
  614MOL0     H82868   5.171   2.988   0.541  3.1855  0.3296 -0.1985
  614MOL0     H82869   5.089   3.130   0.600  0.3068  0.3469 -0.2069
  614MOL0     H82870   4.750   2.829   1.584  1.7483 -0.2801 -2.1105
  614MOL0     H82871   4.533   2.885   1.721  3.4624 -2.2734 -0.9434
  614MOL0     H82872   4.081   2.664   1.767  0.1578  0.9345 -2.3174
  614MOL0     H82873   3.898   2.699   1.936 -0.3118  0.3163 -0.8420
  614MOL0     H82874   3.183   3.984   2.561  0.9481  0.2465 -3.9366
  614MOL0     H82875   2.999   4.152   2.500 -1.3150  1.3509  2.1931
  614MOL0     H82876   2.707   4.396   2.261  0.1065  0.7668  0.3175
  614MOL0     H82877   2.614   4.587   2.140  2.5680 -1.2726 -3.9551
  614MOL0     H82878   2.620   4.725   1.984  4.2840 -0.0557 -0.8518
  614MOL0     H82879   2.651   4.893   1.957  0.0028 -0.6611 -0.1121
  614MOL0     H82880   2.465   4.959   2.107  0.2703 -0.7731  1.7089
  614MOL0     H82881   2.456   4.810   2.188 -0.8414  1.2841  1.3456
  614MOL0     H82882   2.287   4.879   2.030 -0.8846  0.5150  0.2871
  614MOL0     H82883   2.351   4.719   1.994  1.9937  0.1983 -2.4361
  614MOL0     H82884   2.444   4.975   1.833  2.4142 -0.6944  1.1976
  614MOL0     H82885   2.484   4.802   1.794  2.5288  2.0324 -1.2679
  614MOL0     H82886   2.079   4.899   1.677  0.2121  3.4631 -1.0907
  614MOL0     H82887   2.869   4.857   2.333 -0.3122 -0.9980  2.1816
  614MOL0     H82888   2.976   4.632   2.607 -1.1868 -0.5841  0.2007
  614MOL0     H82889   3.092   4.684   2.493 -0.7038  1.5657  1.6216
  614MOL0     H82890   2.973   4.795   2.536 -0.3868  1.1522 -3.8695
  615MOL0     O82891   3.560   5.378   8.825  0.3697  0.7501 -0.1742
  615MOL0     C82892   3.535   5.336   8.941 -0.8610 -0.2594 -0.2814
  615MOL0     O82893   3.603   5.237   9.009  0.5666  0.1281 -0.4606
  615MOL0     C82894   3.735   5.194   8.971 -0.2128 -0.7009 -0.6507
  615MOL0     C82895   3.783   5.079   9.029 -0.0699 -0.3196 -0.3080
  615MOL0     C82896   3.913   5.034   9.002  0.2910 -0.2167  0.9660
  615MOL0     C82897   4.008   5.093   8.916  0.3785 -0.1377  1.3195
  615MOL0     O82898   4.132   5.047   8.880  0.0212 -0.2522  0.3082
  615MOL0     C82899   4.160   4.908   8.912  0.2836 -0.0191  0.8936
  615MOL0     C82900   4.087   4.821   8.810 -0.0509  1.1297 -0.6952
  615MOL0     C82901   4.124   4.673   8.820  0.1620  0.0857  0.0161
  615MOL0     C82902   4.050   4.588   8.718  0.9049  0.4548 -0.8733
  615MOL0     C82903   4.052   4.436   8.756  0.3903  0.8898 -0.0874
  615MOL0     C82904   4.189   4.383   8.801  0.1998 -0.2138  1.1175
  615MOL0     C82905   4.173   4.283   8.913  0.2200 -0.6370 -0.0700
  615MOL0     C82906   4.309   4.229   8.956  0.6216  0.0708 -0.1316
  615MOL0     N82907   4.393   4.169   8.848  0.1848 -0.2938 -0.1008
  615MOL0     C82908   4.523   4.150   8.837  0.0350  0.2665  0.0728
  615MOL0     C82909   4.551   4.078   8.725 -0.4434 -0.3488  0.0977
  615MOL0     C82910   4.688   4.031   8.682 -0.3657  0.0104 -0.0032
  615MOL0     C82911   4.721   3.897   8.745  1.1192  0.7832 -0.4287
  615MOL0     C82912   4.639   3.785   8.689 -0.3257 -0.0194 -0.7602
  615MOL0     C82913   4.657   3.669   8.781 -0.8392  0.3330  0.3473
  615MOL0     O82914   4.669   3.686   8.927  0.0987 -0.0238  0.0962
  615MOL0     C82915   4.556   3.741   8.988 -0.6645 -0.3716 -0.1099
  615MOL0     C82916   4.428   3.746   8.930 -0.4009 -0.0807  0.0070
  615MOL0     C82917   4.329   3.817   8.990 -0.2642  0.3601  0.1778
  615MOL0     C82918   4.341   3.868   9.119  0.1974 -0.0932 -1.1823
  615MOL0     C82919   4.227   3.932   9.196  0.2699  0.1280 -0.3528
  615MOL0     O82920   4.119   3.974   9.127 -0.4245 -0.2585 -0.6074
  615MOL0     C82921   4.045   4.087   9.156  0.3467  0.1183  0.0677
  615MOL0     C82922   4.064   4.185   9.258  0.5359  0.3121 -0.4671
  615MOL0     C82923   3.965   4.283   9.286 -0.2965  0.7604  0.3289
  615MOL0     C82924   3.859   4.298   9.193 -0.2454  0.1873 -0.4894
  615MOL0     O82925   3.761   4.385   9.229  0.3573  0.3089  0.2903
  615MOL0     C82926   3.685   4.456   9.129 -0.7212 -0.0854  0.4316
  615MOL0     C82927   3.777   4.559   9.066 -1.1364 -0.5001 -0.1307
  615MOL0     C82928   3.703   4.638   8.959 -0.8581  0.6535  0.2290
  615MOL0     C82929   3.589   4.724   9.019 -0.0715  0.3010  0.3429
  615MOL0     C82930   3.533   4.836   8.921  0.4312 -0.9204 -0.0684
  615MOL0     C82931   3.447   4.772   8.817 -0.4381  0.2695 -0.2926
  615MOL0     C82932   3.339   4.870   8.758 -0.0690 -0.9481 -0.5592
  615MOL0     C82933   3.406   4.991   8.693  0.0999  0.1794  0.3485
  615MOL0    Cl82934   3.474   4.926   8.527 -0.5386 -0.1625 -0.3174
  615MOL0     C82935   3.846   4.206   9.089  0.1806  0.2562  1.0121
  615MOL0     C82936   3.938   4.102   9.069  0.5002 -0.7397  0.0449
  615MOL0     O82937   4.238   3.933   9.315 -0.0728  0.3200 -0.5917
  615MOL0     C82938   4.464   3.858   9.183  0.1506 -0.4222 -0.3197
  615MOL0     C82939   4.562   3.789   9.118  0.6618  0.5467 -0.2869
  615MOL0     N82940   4.427   4.045   8.677 -0.1160 -0.2564  0.5061
  615MOL0     N82941   4.333   4.098   8.749  0.4376 -0.2772 -0.8593
  615MOL0     C82942   3.956   5.212   8.861  0.5144 -0.2380 -0.1217
  615MOL0     C82943   3.824   5.261   8.891 -0.2672 -0.2382  0.0263
  615MOL0     C82944   3.417   5.398   9.012 -0.6697 -0.1984 -0.0620
  615MOL0     C82945   3.447   5.445   9.138  0.1604 -0.2921  0.4349
  615MOL0     C82946   3.349   5.513   9.207  0.0735  1.2783 -0.2260
  615MOL0     C82947   3.220   5.545   9.159 -0.0377 -0.0221  0.5203
  615MOL0     O82948   3.133   5.601   9.245  0.1707  0.0015  0.2437
  615MOL0     C82949   2.995   5.577   9.236 -0.5114  0.1635  0.6357
  615MOL0     C82950   2.926   5.547   9.370  0.2284 -0.1036 -0.5076
  615MOL0     C82951   2.783   5.591   9.387  0.1502 -0.6272 -0.9397
  615MOL0     C82952   2.711   5.533   9.506 -0.0168  0.3710  0.2730
  615MOL0     C82953   2.687   5.391   9.498  0.2098  0.4109  0.0302
  615MOL0     C82954   2.698   5.266   9.484  0.2629  0.1980 -0.5392
  615MOL0     C82955   3.193   5.512   9.023 -0.1872 -0.3666 -0.5270
  615MOL0     C82956   3.289   5.444   8.945 -0.2297  1.0185 -0.1076
  615MOL0     C82957   3.261   5.395   8.807 -0.1226  0.4122  0.2509
  615MOL0     H82958   3.727   5.029   9.107  0.4169  1.4357  1.2132
  615MOL0     H82959   3.934   4.954   9.072 -0.4995  1.6626  3.4671
  615MOL0     H82960   4.264   4.879   8.893  0.1239  0.6296 -1.3029
  615MOL0     H82961   4.130   4.887   9.015  0.0844 -0.3581  0.7705
  615MOL0     H82962   4.118   4.856   8.711  0.1502  3.6802  0.2061
  615MOL0     H82963   3.978   4.828   8.821 -0.0192 -0.8854  1.8790
  615MOL0     H82964   4.095   4.635   8.918 -1.3267  2.6767  0.6636
  615MOL0     H82965   4.232   4.664   8.803 -0.1197 -2.6677 -0.8235
  615MOL0     H82966   3.950   4.632   8.718  2.0990  3.4064 -1.9837
  615MOL0     H82967   4.095   4.602   8.620  2.8746  0.8337  0.0410
  615MOL0     H82968   3.983   4.397   8.832  2.3867 -1.8523  0.4429
  615MOL0     H82969   4.016   4.383   8.667 -0.0622 -1.6666  1.5150
  615MOL0     H82970   4.234   4.340   8.711 -1.0739  2.5471 -1.0209
  615MOL0     H82971   4.248   4.467   8.836 -1.1821  0.2697  2.4146
  615MOL0     H82972   4.105   4.201   8.890 -0.0294 -0.5953  0.5044
  615MOL0     H82973   4.128   4.328   9.002  0.9674 -1.8083  0.9404
  615MOL0     H82974   4.370   4.301   9.013 -0.1079  0.9395 -0.4262
  615MOL0     H82975   4.276   4.155   9.030  0.1247  0.2461 -0.1717
  615MOL0     H82976   4.591   4.192   8.911 -0.2030  0.0054  0.4418
  615MOL0     H82977   4.700   4.030   8.573  0.3176 -3.7703 -0.0207
  615MOL0     H82978   4.758   4.097   8.734 -1.8727  1.7657 -0.1084
  615MOL0     H82979   4.825   3.866   8.731  0.4281 -1.9564 -0.0890
  615MOL0     H82980   4.697   3.906   8.851  1.6570  1.1632 -0.3361
  615MOL0     H82981   4.653   3.772   8.582 -0.6793  3.1478 -1.2839
  615MOL0     H82982   4.532   3.811   8.690 -0.9478 -0.9653 -6.6255
  615MOL0     H82983   4.753   3.627   8.749 -0.1881  2.7348 -1.0509
  615MOL0     H82984   4.578   3.602   8.745 -1.2567  2.0955 -2.2523
  615MOL0     H82985   4.402   3.697   8.837 -1.7671  0.2217  0.2041
  615MOL0     H82986   4.234   3.814   8.939  0.6859 -1.6057 -1.6069
  615MOL0     H82987   4.150   4.182   9.324 -1.4164 -1.0330  2.1995
  615MOL0     H82988   3.977   4.344   9.375  2.4414 -0.7157  1.0698
  615MOL0     H82989   3.648   4.407   9.039 -0.4506  1.6045 -0.6359
  615MOL0     H82990   3.607   4.514   9.181  1.6830  2.1325  1.8077
  615MOL0     H82991   3.818   4.630   9.138 -3.3131  3.7160 -2.6479
  615MOL0     H82992   3.864   4.504   9.029 -1.7564 -0.3442 -1.9157
  615MOL0     H82993   3.779   4.696   8.907  1.1446 -1.3077  0.7906
  615MOL0     H82994   3.674   4.571   8.877  1.9477 -1.1165  0.5293
  615MOL0     H82995   3.640   4.779   9.099 -2.1481 -0.7772  2.5495
  615MOL0     H82996   3.510   4.671   9.074 -0.5395  2.3118  1.7615
  615MOL0     H82997   3.609   4.899   8.874 -1.2336 -0.5778 -2.4436
  615MOL0     H82998   3.470   4.899   8.985  2.2625  1.7147 -0.7126
  615MOL0     H82999   3.507   4.727   8.737 -1.1569 -1.4307  0.0852
  615MOL0     H83000   3.379   4.698   8.859 -1.1463  1.5226  0.8278
  615MOL0     H83001   3.276   4.908   8.838  0.1780 -0.6805 -0.4904
  615MOL0     H83002   3.265   4.822   8.693 -0.9610  1.5308 -1.5307
  615MOL0     H83003   3.334   5.072   8.676  1.2370  1.4070  1.2329
  615MOL0     H83004   3.485   5.032   8.755 -1.8277  0.4910  2.7696
  615MOL0     H83005   3.759   4.217   9.024  0.4321  0.3233  0.6852
  615MOL0     H83006   3.924   4.037   8.984 -1.1902  0.1076 -0.3797
  615MOL0     H83007   4.478   3.909   9.277  2.7897 -1.7959  0.1178
  615MOL0     H83008   4.656   3.775   9.172 -0.4164  0.4596  1.6782
  615MOL0     H83009   4.016   5.281   8.804 -1.0049  1.2712  0.0052
  615MOL0     H83010   3.793   5.354   8.845 -1.6037 -0.4340  0.4884
  615MOL0     H83011   3.550   5.430   9.170 -0.1363  0.1891  1.6615
  615MOL0     H83012   3.370   5.542   9.309  1.5772 -2.0398  0.5477
  615MOL0     H83013   2.960   5.498   9.169 -0.7592  0.1769  0.7473
  615MOL0     H83014   2.959   5.675   9.203  0.3728  0.9359  1.8621
  615MOL0     H83015   2.980   5.602   9.448 -3.4335  2.3730  0.5606
  615MOL0     H83016   2.940   5.441   9.391 -1.8849 -0.4747 -0.7556
  615MOL0     H83017   2.720   5.571   9.299 -1.8547 -0.0254  0.2971
  615MOL0     H83018   2.772   5.698   9.403  1.5307 -0.7007  0.7095
  615MOL0     H83019   2.787   5.529   9.584  0.7214 -3.3871 -0.4634
  615MOL0     H83020   2.621   5.589   9.535 -2.5316  0.0398 -5.5056
  615MOL0     H83021   2.715   5.160   9.484 -0.2203  0.1024 -1.9118
  615MOL0     H83022   3.100   5.546   8.978 -0.1002 -0.9886 -1.1880
  615MOL0     H83023   3.277   5.478   8.738  0.1457 -1.5620 -2.1959
  615MOL0     H83024   3.324   5.317   8.764 -0.2124  0.6395 -0.3055
  615MOL0     H83025   3.157   5.364   8.805  0.6978 -3.1566  2.9835
  616MOL0     O83026   6.707   6.714   3.321  0.4907 -0.0360  0.5266
  616MOL0     C83027   6.748   6.796   3.241  0.3140 -0.0052 -0.2917
  616MOL0     O83028   6.675   6.847   3.138 -0.3449 -0.4325  0.2002
  616MOL0     C83029   6.539   6.811   3.144  0.6748  0.6882  0.6121
  616MOL0     C83030   6.450   6.905   3.187 -0.0414  0.0815  1.0346
  616MOL0     C83031   6.321   6.876   3.197  0.7730 -0.2458  0.1212
  616MOL0     C83032   6.267   6.744   3.167 -0.0295  0.4814  0.8517
  616MOL0     O83033   6.132   6.719   3.150 -0.1247 -0.2736  1.0235
  616MOL0     C83034   6.029   6.813   3.176 -0.1147  0.3171  0.3724
  616MOL0     C83035   5.919   6.719   3.217  0.3084  0.9001 -0.0765
  616MOL0     C83036   5.793   6.802   3.261 -0.1783 -0.6132  0.1950
  616MOL0     C83037   5.786   6.831   3.411 -0.0594 -0.0058 -0.8338
  616MOL0     C83038   5.661   6.914   3.445 -0.7101 -0.6846 -0.0324
  616MOL0     C83039   5.667   6.958   3.594  0.2160 -0.7043  0.1204
  616MOL0     C83040   5.714   6.848   3.698  0.1092  0.1866  0.1236
  616MOL0     C83041   5.689   6.890   3.843 -0.3313  0.3086  0.1861
  616MOL0     N83042   5.780   7.010   3.860  0.5153  0.3460 -0.1920
  616MOL0     C83043   5.913   7.011   3.831 -0.2919  0.4215  0.0852
  616MOL0     C83044   5.942   7.137   3.835  0.3025 -0.9397  0.6710
  616MOL0     C83045   6.083   7.185   3.828  0.2997 -0.2910  0.0127
  616MOL0     C83046   6.111   7.207   3.680 -0.3235 -0.4126 -0.2384
  616MOL0     C83047   6.231   7.300   3.647  0.0344 -0.5462  0.1285
  616MOL0     C83048   6.270   7.283   3.505 -0.1782  0.0428  0.3282
  616MOL0     O83049   6.342   7.400   3.457  0.1982 -0.2692  0.3125
  616MOL0     C83050   6.478   7.393   3.473  0.5365  0.4848  0.2096
  616MOL0     C83051   6.554   7.314   3.383  0.1024  0.4264  0.0211
  616MOL0     C83052   6.688   7.304   3.400  0.1471  0.5867 -0.1018
  616MOL0     C83053   6.754   7.367   3.503 -0.7097 -0.5455  0.6854
  616MOL0     C83054   6.903   7.362   3.517  0.0779  0.2832  1.1441
  616MOL0     O83055   6.963   7.466   3.578  0.3016 -0.0053 -0.3159
  616MOL0     C83056   7.098   7.496   3.581  0.6135  1.0471 -0.0097
  616MOL0     C83057   7.207   7.447   3.500  0.3944 -0.4283 -0.4893
  616MOL0     C83058   7.334   7.507   3.520  0.4683 -0.8105 -0.3896
  616MOL0     C83059   7.350   7.610   3.623  0.6218  0.6963  0.2026
  616MOL0     O83060   7.466   7.675   3.636 -0.0860  0.0009 -0.0402
  616MOL0     C83061   7.569   7.586   3.697  0.0076  0.2587  0.6816
  616MOL0     C83062   7.690   7.555   3.597  0.1856 -0.6075  0.0449
  616MOL0     C83063   7.798   7.477   3.664 -0.0698  0.9816  0.9192
  616MOL0     C83064   7.928   7.469   3.585  0.6023 -0.5111 -0.1116
  616MOL0     C83065   8.032   7.388   3.660 -0.9686 -0.2626 -0.0593
  616MOL0     C83066   8.169   7.409   3.589  0.1939  0.1334 -0.7654
  616MOL0     C83067   8.175   7.302   3.470 -0.1429 -1.0370 -0.4086
  616MOL0     C83068   8.308   7.314   3.397 -0.4503  0.7251  0.6408
  616MOL0    Cl83069   8.305   7.203   3.263 -0.2185  0.2408 -0.2767
  616MOL0     C83070   7.246   7.641   3.700 -0.3166 -1.2055 -0.7701
  616MOL0     C83071   7.120   7.583   3.684 -0.4674 -0.5673  1.4490
  616MOL0     O83072   6.960   7.261   3.468 -0.3247 -0.5858  0.4423
  616MOL0     C83073   6.676   7.451   3.584 -0.4951  0.3689 -0.3674
  616MOL0     C83074   6.540   7.453   3.579 -0.2978 -0.1861  0.1762
  616MOL0     N83075   5.828   7.211   3.864 -0.9752 -0.1986 -0.2834
  616MOL0     N83076   5.729   7.132   3.863  0.7137  0.1968  0.2838
  616MOL0     C83077   6.362   6.646   3.112 -0.3748 -0.3092  0.3733
  616MOL0     C83078   6.494   6.681   3.098  0.5042 -0.4418 -0.3722
  616MOL0     C83079   6.879   6.855   3.268  1.2673 -0.6747  0.1281
  616MOL0     C83080   6.904   6.985   3.216  0.7096 -0.2643 -0.4134
  616MOL0     C83081   7.021   7.050   3.255  0.3238 -0.5095  1.6639
  616MOL0     C83082   7.116   6.992   3.334 -0.2738  0.0016 -0.3376
  616MOL0     O83083   7.226   7.069   3.362 -0.2341  0.3526  0.0153
  616MOL0     C83084   7.296   7.054   3.482  0.3262  0.1671 -0.4451
  616MOL0     C83085   7.409   7.156   3.480  0.7492 -0.5151  0.4634
  616MOL0     C83086   7.436   7.218   3.617  0.3643 -0.1083  0.2082
  616MOL0     C83087   7.459   7.119   3.725 -0.0241  0.7128  0.2703
  616MOL0     C83088   7.597   7.067   3.731  0.4471 -0.2411 -0.3502
  616MOL0     C83089   7.719   7.032   3.738  0.5222  1.5286 -0.2238
  616MOL0     C83090   7.109   6.859   3.376 -0.4703 -0.0631 -0.6739
  616MOL0     C83091   6.992   6.788   3.338 -0.1767 -0.1622 -0.8487
  616MOL0     C83092   6.976   6.643   3.388  0.2958 -0.5816 -0.0486
  616MOL0     H83093   6.490   7.001   3.218 -0.8827  1.1970 -1.1066
  616MOL0     H83094   6.260   6.949   3.250  1.0516 -0.0318  0.1492
  616MOL0     H83095   6.051   6.885   3.255  1.5747 -1.2637  1.4160
  616MOL0     H83096   6.000   6.867   3.085 -0.3777  0.1920  0.3829
  616MOL0     H83097   5.942   6.652   3.301 -0.6467  1.0189  0.2930
  616MOL0     H83098   5.883   6.653   3.138 -0.2642 -0.3278  1.1647
  616MOL0     H83099   5.702   6.746   3.237  0.8030 -2.3211  0.2992
  616MOL0     H83100   5.780   6.896   3.206 -0.9513  0.7213  2.4918
  616MOL0     H83101   5.787   6.736   3.465  0.9343  0.6761  0.4067
  616MOL0     H83102   5.872   6.891   3.442 -1.6394  2.0193 -0.0932
  616MOL0     H83103   5.643   6.999   3.379 -3.4696 -0.8758  0.3549
  616MOL0     H83104   5.570   6.854   3.436 -0.7822 -0.4550 -0.9555
  616MOL0     H83105   5.714   7.055   3.611 -1.3839  0.2064 -0.4168
  616MOL0     H83106   5.561   6.975   3.613  0.3485  2.9783 -1.4376
  616MOL0     H83107   5.818   6.815   3.686 -0.1946 -1.1161  0.8030
  616MOL0     H83108   5.661   6.756   3.673  2.0030  0.0295 -4.0640
  616MOL0     H83109   5.581   6.902   3.857 -0.6485  1.6951 -2.6394
  616MOL0     H83110   5.731   6.809   3.902  1.4046  0.7644 -0.3640
  616MOL0     H83111   5.991   6.936   3.820  2.6396  2.0227  5.5539
  616MOL0     H83112   6.076   7.286   3.871  0.1948  0.6020 -1.9947
  616MOL0     H83113   6.159   7.118   3.869  0.7281  0.6666  0.8331
  616MOL0     H83114   6.140   7.112   3.633 -0.9703 -1.4476  1.3716
  616MOL0     H83115   6.019   7.239   3.631  0.0867 -0.5466 -1.1267
  616MOL0     H83116   6.315   7.284   3.714 -1.0021  0.6812  1.8268
  616MOL0     H83117   6.188   7.399   3.665 -1.8050 -1.3650  0.5405
  616MOL0     H83118   6.184   7.281   3.437  1.4359  3.6169 -2.1238
  616MOL0     H83119   6.326   7.189   3.494  0.4287  0.2350  1.6034
  616MOL0     H83120   6.494   7.256   3.313 -0.0380 -1.1826  1.4021
  616MOL0     H83121   6.737   7.250   3.319  1.0774 -0.1913  0.9550
  616MOL0     H83122   7.190   7.369   3.426  0.4424 -0.7496 -0.1621
  616MOL0     H83123   7.421   7.497   3.456  1.2857 -1.3755  0.7790
  616MOL0     H83124   7.624   7.640   3.774  2.0580  0.8369 -1.1037
  616MOL0     H83125   7.537   7.486   3.728  0.7523 -0.0246  0.5396
  616MOL0     H83126   7.648   7.503   3.511  1.5710  0.3134 -1.2381
  616MOL0     H83127   7.739   7.649   3.573  2.2519 -1.2427  1.4528
  616MOL0     H83128   7.832   7.518   3.760 -1.9128  0.5245  1.8228
  616MOL0     H83129   7.754   7.380   3.686  0.2253  1.1178  2.1763
  616MOL0     H83130   7.966   7.571   3.571 -0.5944 -0.1309 -0.6743
  616MOL0     H83131   7.907   7.429   3.486  4.3606  0.8883 -1.6727
  616MOL0     H83132   7.993   7.286   3.655 -3.1010  0.5245 -0.6116
  616MOL0     H83133   8.044   7.412   3.766 -0.9357 -0.7715  0.0584
  616MOL0     H83134   8.184   7.510   3.550  0.1262  1.1024  1.5528
  616MOL0     H83135   8.239   7.387   3.670 -1.3659 -2.5870 -0.0214
  616MOL0     H83136   8.094   7.322   3.399 -2.2105 -1.4448  1.7245
  616MOL0     H83137   8.150   7.199   3.497 -1.3092 -0.9759 -1.2071
  616MOL0     H83138   8.325   7.417   3.363  2.6107  0.8234  2.1337
  616MOL0     H83139   8.390   7.294   3.467  1.8266  3.7142 -0.9409
  616MOL0     H83140   7.248   7.716   3.779 -2.3926 -1.4135 -0.4483
  616MOL0     H83141   7.040   7.627   3.742 -2.2660  1.7717 -2.4315
  616MOL0     H83142   6.726   7.507   3.662  0.0002 -2.2711  1.3297
  616MOL0     H83143   6.482   7.498   3.658  3.7564  2.1740  2.1279
  616MOL0     H83144   6.326   6.552   3.072 -1.4191  0.1088  0.2840
  616MOL0     H83145   6.567   6.609   3.063  1.0955 -0.4883  0.9066
  616MOL0     H83146   6.834   7.042   3.156  1.0907  2.9316  1.9096
  616MOL0     H83147   7.040   7.154   3.229  1.7965 -0.7520  1.6455
  616MOL0     H83148   7.346   6.957   3.492  0.6228  0.4850  1.5178
  616MOL0     H83149   7.223   7.067   3.563  1.2583 -0.7038  0.5569
  616MOL0     H83150   7.420   7.229   3.399  5.9507 -2.7853 -1.2583
  616MOL0     H83151   7.493   7.090   3.459  0.1114 -1.5505  1.0204
  616MOL0     H83152   7.351   7.277   3.652 -0.4657 -0.4501 -1.1650
  616MOL0     H83153   7.527   7.278   3.607 -0.1073  0.3434 -1.6275
  616MOL0     H83154   7.448   7.188   3.810 -0.1881  2.4108 -1.0815
  616MOL0     H83155   7.382   7.041   3.728 -0.4494  1.0664  3.8937
  616MOL0     H83156   7.824   7.010   3.738  0.1142 -0.6743 -0.2239
  616MOL0     H83157   7.191   6.813   3.429 -2.1297 -0.2454  1.9601
  616MOL0     H83158   6.929   6.643   3.487  2.4618  2.4088  1.1306
  616MOL0     H83159   6.930   6.582   3.310  1.4842 -2.5486  0.7179
  616MOL0     H83160   7.077   6.603   3.399  1.3270  0.9794 -2.8306
  617MOL0     O83161   8.269   9.351   7.392 -0.1882  0.3454  0.4066
  617MOL0     C83162   8.312   9.302   7.286  0.1214  0.6971 -0.1109
  617MOL0     O83163   8.406   9.356   7.209  0.8734  1.1354  1.2735
  617MOL0     C83164   8.509   9.413   7.280 -0.1275  0.0744  0.6130
  617MOL0     C83165   8.558   9.529   7.223 -0.0024  0.1839  0.1468
  617MOL0     C83166   8.659   9.606   7.278 -0.8585 -0.1440 -0.6776
  617MOL0     C83167   8.702   9.563   7.405 -0.1664 -0.2468 -0.1713
  617MOL0     O83168   8.802   9.636   7.467 -0.7357 -0.3094  0.6185
  617MOL0     C83169   8.740   9.738   7.545  0.6148 -0.4448  0.2838
  617MOL0     C83170   8.787   9.880   7.505 -0.5517 -0.3776 -0.0259
  617MOL0     C83171   8.924   9.908   7.547 -0.7186  0.1724  0.0308
  617MOL0     C83172   8.958  10.057   7.517 -1.5738 -0.2654  0.1437
  617MOL0     C83173   9.103  10.095   7.564  0.1381  0.4438 -0.6008
  617MOL0     C83174   9.144  10.233   7.514 -0.7945 -0.6638  0.3986
  617MOL0     C83175   9.295  10.258   7.513  0.1633  0.5844 -0.6978
  617MOL0     C83176   9.356  10.229   7.652  0.3289 -0.0713  0.3309
  617MOL0     N83177   9.473  10.301   7.679  0.3501 -0.1928  0.0074
  617MOL0     C83178   9.578  10.318   7.594  0.2113 -0.7133 -0.6780
  617MOL0     C83179   9.673  10.384   7.668  0.3853  0.0497  0.1793
  617MOL0     C83180   9.811  10.426   7.618  0.6308  0.5888 -0.6844
  617MOL0     C83181   9.928  10.418   7.712 -0.1415 -0.3571 -0.6649
  617MOL0     C83182   9.920  10.512   7.823  0.0563  0.5484  0.4714
  617MOL0     C83183  10.056  10.536   7.895  0.8022  0.0515 -0.4968
  617MOL0     O83184  10.122  10.406   7.919  0.1595 -0.8718 -0.2619
  617MOL0     C83185  10.253  10.390   7.941 -0.2380  0.5838 -0.3616
  617MOL0     C83186  10.313  10.281   7.874 -0.4209 -0.3331 -1.2257
  617MOL0     C83187  10.446  10.258   7.899 -0.5330  0.8112  0.5808
  617MOL0     C83188  10.527  10.339   7.986  0.2327  0.1289  0.4072
  617MOL0     C83189  10.666  10.313   8.000  0.1121  0.5851  0.0100
  617MOL0     O83190  10.722  10.248   7.894 -0.0752  0.2805 -0.5143
  617MOL0     C83191  10.856  10.205   7.909 -1.3990  0.0139 -0.7188
  617MOL0     C83192  10.960  10.281   7.856 -1.7154  1.0565  0.4835
  617MOL0     C83193  11.091  10.233   7.840  0.1327 -0.0214  0.0012
  617MOL0     C83194  11.120  10.100   7.880  0.7505 -0.0740  1.0721
  617MOL0     O83195  11.246  10.053   7.847  0.2575 -0.9835  0.1791
  617MOL0     C83196  11.290   9.929   7.900  0.2047  0.1814 -0.1860
  617MOL0     C83197  11.444   9.920   7.915 -0.3420  0.4242 -0.1269
  617MOL0     C83198  11.497  10.014   8.023  0.2789  0.6130  0.2232
  617MOL0     C83199  11.645  10.002   8.024 -1.2488  0.1578  0.5130
  617MOL0     C83200  11.705  10.100   8.133 -1.1566  0.0270  0.4909
  617MOL0     C83201  11.853  10.081   8.164  0.0591  0.0910  0.1086
  617MOL0     C83202  11.905   9.930   8.183  0.5397 -0.3790 -0.2985
  617MOL0     C83203  11.954   9.876   8.048  0.7397 -0.2834 -0.4895
  617MOL0    Cl83204  11.872   9.709   8.039 -0.2746 -0.2286 -0.2759
  617MOL0     C83205  11.012  10.025   7.935 -0.1810  0.5123  0.2959
  617MOL0     C83206  10.880  10.076   7.949 -0.1755  0.6918 -0.4597
  617MOL0     O83207  10.732  10.352   8.100 -0.0270 -1.1878  0.5787
  617MOL0     C83208  10.458  10.436   8.060 -0.1042 -0.8109  0.1587
  617MOL0     C83209  10.326  10.466   8.029 -0.2125 -0.1657  0.1942
  617MOL0     N83210   9.619  10.410   7.794 -0.0368 -0.9510 -0.1122
  617MOL0     N83211   9.502  10.350   7.799  0.6601  1.1704  0.2200
  617MOL0     C83212   8.643   9.450   7.459 -0.3769  0.0687  0.0526
  617MOL0     C83213   8.552   9.371   7.401  0.2239 -0.7000  0.5795
  617MOL0     C83214   8.236   9.181   7.236 -0.2326  0.1875  0.1552
  617MOL0     C83215   8.125   9.133   7.312  0.2468 -0.3420  0.1290
  617MOL0     C83216   8.065   9.009   7.285  0.6592 -0.8623  1.0914
  617MOL0     C83217   8.103   8.943   7.169 -0.7452 -0.1317 -0.0441
  617MOL0     O83218   8.049   8.828   7.118 -0.8139  0.2146  0.2329
  617MOL0     C83219   7.947   8.749   7.189  0.3882 -0.0764  0.0074
  617MOL0     C83220   7.965   8.606   7.167 -0.7674  0.6658  0.0457
  617MOL0     C83221   7.926   8.576   7.024  0.2143  1.4717  0.1942
  617MOL0     C83222   7.786   8.528   7.004  0.2965 -0.2724 -0.7844
  617MOL0     C83223   7.754   8.505   6.864 -0.5262  0.4979  0.0460
  617MOL0     C83224   7.729   8.484   6.747 -0.7899 -0.5119 -0.5300
  617MOL0     C83225   8.204   8.996   7.089 -0.0565  0.4085  0.6115
  617MOL0     C83226   8.274   9.112   7.114  0.1423 -0.0609  0.4892
  617MOL0     C83227   8.387   9.150   7.023 -0.2287  0.5384  0.1283
  617MOL0     H83228   8.524   9.560   7.124 -1.2527  1.3447  0.9147
  617MOL0     H83229   8.710   9.687   7.226 -0.7411 -1.4880 -2.7731
  617MOL0     H83230   8.631   9.735   7.537  0.6490  0.5402 -0.7011
  617MOL0     H83231   8.771   9.722   7.649  0.0584 -3.4016  0.0764
  617MOL0     H83232   8.726   9.954   7.558 -0.1840 -0.1023  0.0134
  617MOL0     H83233   8.770   9.880   7.397  1.7168 -0.0527 -0.4330
  617MOL0     H83234   8.994   9.841   7.496  1.0819  0.7881  1.5824
  617MOL0     H83235   8.936   9.893   7.655  1.7092  0.9924 -0.0556
  617MOL0     H83236   8.956  10.070   7.408  0.5732 -3.2805 -0.3673
  617MOL0     H83237   8.887  10.122   7.570 -1.5147  0.0710 -0.1834
  617MOL0     H83238   9.107  10.091   7.674  0.5029 -1.0857 -0.6403
  617MOL0     H83239   9.168  10.019   7.521 -1.3903 -1.5147  0.3909
  617MOL0     H83240   9.113  10.230   7.410  0.5054 -1.6773  0.0084
  617MOL0     H83241   9.093  10.312   7.569  1.5532  2.2520 -1.3429
  617MOL0     H83242   9.312  10.365   7.497 -0.1049  1.0885  1.9558
  617MOL0     H83243   9.342  10.215   7.424  2.2187 -3.5338  2.0448
  617MOL0     H83244   9.289  10.269   7.728 -0.4559  0.4599 -0.6181
  617MOL0     H83245   9.364  10.121   7.669  0.5933 -0.2655 -0.9076
  617MOL0     H83246   9.603  10.285   7.493  0.6483  2.5956 -1.7695
  617MOL0     H83247   9.820  10.358   7.533  0.0517 -0.6664  0.2241
  617MOL0     H83248   9.809  10.530   7.582 -0.2838  0.9962  0.4769
  617MOL0     H83249   9.918  10.319   7.757 -2.6093 -0.6650 -1.7103
  617MOL0     H83250  10.024  10.424   7.660  1.7663 -2.4238  2.3408
  617MOL0     H83251   9.838  10.482   7.889 -1.0802 -1.0695 -1.5337
  617MOL0     H83252   9.892  10.612   7.788 -0.7329  0.2589  0.2342
  617MOL0     H83253  10.051  10.589   7.990  1.7009 -1.1380  0.2516
  617MOL0     H83254  10.123  10.592   7.830  2.0519 -2.3857 -1.4494
  617MOL0     H83255  10.255  10.215   7.811 -0.5608 -0.7594 -0.6635
  617MOL0     H83256  10.490  10.170   7.853 -0.8679 -0.9808  3.4577
  617MOL0     H83257  10.927  10.375   7.812 -2.9423  0.5963  0.3809
  617MOL0     H83258  11.174  10.291   7.802  1.2747 -2.5609 -1.6753
  617MOL0     H83259  11.254   9.919   8.003  1.2402  0.6295  0.2266
  617MOL0     H83260  11.253   9.842   7.844 -0.0590  1.4400 -2.0327
  617MOL0     H83261  11.475   9.816   7.931 -2.7646 -0.3210  0.1366
  617MOL0     H83262  11.496   9.943   7.821  2.0711 -0.5785  0.8818
  617MOL0     H83263  11.477  10.120   8.001  0.6215  0.0654 -3.2651
  617MOL0     H83264  11.454   9.979   8.117  0.1880 -2.0335 -0.7203
  617MOL0     H83265  11.683  10.018   7.923 -0.9698 -2.3598  0.1366
  617MOL0     H83266  11.680   9.901   8.046  0.0560  0.8116  1.5534
  617MOL0     H83267  11.656  10.091   8.230  2.6956  3.4130  3.0806
  617MOL0     H83268  11.693  10.200   8.091  1.7533  0.5230  0.6442
  617MOL0     H83269  11.910  10.124   8.081  1.8671 -1.8814  0.2371
  617MOL0     H83270  11.872  10.140   8.254  3.3184 -2.8887  1.5933
  617MOL0     H83271  11.825   9.870   8.228  2.0549 -0.5092  2.4312
  617MOL0     H83272  11.988   9.935   8.254 -2.3634  3.4244  3.3927
  617MOL0     H83273  11.918   9.938   7.966  1.1040  1.7274  0.8192
  617MOL0     H83274  12.063   9.876   8.053  0.8537  2.6451 -1.3397
  617MOL0     H83275  11.026   9.920   7.960 -0.8550  1.0348  3.2011
  617MOL0     H83276  10.797  10.010   7.972  1.3281 -0.4997  2.0508
  617MOL0     H83277  10.507  10.482   8.145  0.5718 -0.3864 -0.4559
  617MOL0     H83278  10.268  10.536   8.087 -1.9009  0.2459 -1.8638
  617MOL0     H83279   8.680   9.428   7.559  0.7068  3.2783  0.4742
  617MOL0     H83280   8.502   9.287   7.449 -2.9094  1.3035  1.1098
  617MOL0     H83281   8.087   9.189   7.397  1.3566  0.3824  0.1606
  617MOL0     H83282   7.983   8.977   7.349  0.7437 -1.3252  0.9695
  617MOL0     H83283   7.850   8.790   7.159  0.3240  1.7429  2.4073
  617MOL0     H83284   7.947   8.764   7.298 -0.6410  0.8596 -0.1064
  617MOL0     H83285   7.898   8.551   7.234 -1.3340 -0.0427 -1.0686
  617MOL0     H83286   8.068   8.576   7.185 -1.9485 -1.3161  5.4053
  617MOL0     H83287   7.985   8.492   6.985 -1.1440  1.2949 -1.6309
  617MOL0     H83288   7.952   8.658   6.956  3.3949  1.9844  1.8636
  617MOL0     H83289   7.758   8.439   7.061 -1.9279  0.0560 -1.2709
  617MOL0     H83290   7.717   8.604   7.040  0.0282 -0.8231 -0.1159
  617MOL0     H83291   7.700   8.470   6.645 -0.6107  0.8034 -0.7870
  617MOL0     H83292   8.242   8.951   6.998 -0.4302  2.1590 -0.4671
  617MOL0     H83293   8.479   9.132   7.079 -0.4452  0.6158  0.5128
  617MOL0     H83294   8.404   9.090   6.933  2.7467  4.0489 -1.9532
  617MOL0     H83295   8.364   9.250   6.985 -6.4781 -0.1732  1.0072
  618MOL0     O83296  10.717  11.304   0.599 -0.4992 -0.5969  0.0597
  618MOL0     C83297  10.722  11.375   0.499  0.0772  0.1948  0.6268
  618MOL0     O83298  10.829  11.417   0.436  0.1243 -0.3262  0.6061
  618MOL0     C83299  10.949  11.361   0.476 -0.0153 -0.4997  0.4895
  618MOL0     C83300  10.994  11.241   0.423  0.2381 -0.0068 -0.4852
  618MOL0     C83301  11.112  11.197   0.463  0.3479  1.1757 -0.7041
  618MOL0     C83302  11.201  11.269   0.548  0.2658  0.3188  0.1678
  618MOL0     O83303  11.334  11.237   0.573  0.3249 -0.1990  0.1594
  618MOL0     C83304  11.405  11.168   0.461 -0.5437 -0.2297 -0.1710
  618MOL0     C83305  11.549  11.135   0.508 -0.0963  0.3103 -0.4733
  618MOL0     C83306  11.556  11.047   0.632  0.1858 -0.2701  0.0769
  618MOL0     C83307  11.695  11.040   0.697  0.7148  0.7637 -0.0337
  618MOL0     C83308  11.706  10.967   0.820 -0.1302 -0.5331 -0.1151
  618MOL0     C83309  11.842  10.989   0.895 -0.2911  0.1680 -0.5184
  618MOL0     C83310  11.894  10.877   0.985  0.9456 -0.4765 -0.6144
  618MOL0     C83311  11.909  10.736   0.924 -0.2842 -0.0682 -0.1116
  618MOL0     N83312  12.018  10.724   0.826  0.3236  0.3408  0.4366
  618MOL0     C83313  12.108  10.615   0.817 -1.5707 -0.5386  0.0640
  618MOL0     C83314  12.183  10.649   0.708  0.1662  0.4703  0.0181
  618MOL0     C83315  12.296  10.567   0.644  0.7066  0.8373  0.4929
  618MOL0     C83316  12.426  10.605   0.701  0.6007  0.1037  0.4388
  618MOL0     C83317  12.534  10.512   0.654 -0.5477 -0.0695  0.5866
  618MOL0     C83318  12.675  10.564   0.684 -0.3313 -0.0663  1.4432
  618MOL0     O83319  12.697  10.578   0.821  0.7067 -0.0622 -0.5580
  618MOL0     C83320  12.765  10.690   0.864  0.8893 -0.3364  0.1456
  618MOL0     C83321  12.716  10.791   0.937  0.9116 -1.0985 -0.3416
  618MOL0     C83322  12.780  10.913   0.958  0.0220 -0.6535 -0.1529
  618MOL0     C83323  12.901  10.931   0.894  0.7008 -1.0663 -0.1003
  618MOL0     C83324  12.977  11.060   0.915  0.3492  0.6953  0.1885
  618MOL0     O83325  12.916  11.165   0.968  0.0698  0.1153  1.2244
  618MOL0     C83326  12.977  11.287   0.955  0.3853  0.1640  0.2432
  618MOL0     C83327  13.075  11.329   1.045 -0.3660 -0.2778  0.1089
  618MOL0     C83328  13.137  11.455   1.042  0.7592 -0.2388 -0.4891
  618MOL0     C83329  13.084  11.549   0.955  0.5961  0.7833 -0.6518
  618MOL0     O83330  13.137  11.668   0.937 -0.3655  0.2166  0.2033
  618MOL0     C83331  13.262  11.701   0.992  0.6375 -0.1812 -0.3489
  618MOL0     C83332  13.286  11.853   0.961 -0.0868  0.2709 -1.3108
  618MOL0     C83333  13.419  11.899   1.014 -0.5182  0.0792  0.3135
  618MOL0     C83334  13.440  11.905   1.173  0.0162 -0.0150 -0.2274
  618MOL0     C83335  13.580  11.953   1.212 -0.1915 -0.3158  0.0134
  618MOL0     C83336  13.607  11.929   1.360 -0.5431  0.3079 -0.0067
  618MOL0     C83337  13.718  12.017   1.425 -0.4274  0.6285 -0.0732
  618MOL0     C83338  13.738  11.981   1.574 -0.6261 -0.3061  0.1670
  618MOL0    Cl83339  13.790  11.820   1.594 -0.2426 -0.2061 -0.1107
  618MOL0     C83340  12.977  11.514   0.880 -0.2490 -0.4683  0.2588
  618MOL0     C83341  12.919  11.385   0.872  0.6659  0.3153  0.4201
  618MOL0     O83342  13.093  11.062   0.881 -0.6044  0.0140 -0.3840
  618MOL0     C83343  12.952  10.827   0.826  0.0311  0.1682  0.7879
  618MOL0     C83344  12.883  10.706   0.807 -0.3991  0.4191 -0.5332
  618MOL0     N83345  12.138  10.773   0.654  0.7604 -0.4572 -1.1894
  618MOL0     N83346  12.042  10.816   0.730  0.1122  0.6742  0.4255
  618MOL0     C83347  11.152  11.385   0.609  0.2136  0.2712  0.0936
  618MOL0     C83348  11.030  11.433   0.558 -0.4826  0.8601 -0.4074
  618MOL0     C83349  10.588  11.388   0.431  0.6623 -0.4304 -0.6808
  618MOL0     C83350  10.570  11.352   0.296 -0.1545 -0.7128 -0.6676
  618MOL0     C83351  10.449  11.379   0.228  0.7433  0.1874 -0.6086
  618MOL0     C83352  10.336  11.418   0.301 -0.2529 -0.7850 -0.5783
  618MOL0     O83353  10.210  11.431   0.250  0.0344 -0.3580  0.5440
  618MOL0     C83354  10.205  11.486   0.120 -0.1588 -1.1963 -0.2898
  618MOL0     C83355  10.081  11.578   0.128  0.0387  0.2770  0.8583
  618MOL0     C83356  10.069  11.634  -0.015 -0.2870  0.1980 -0.3503
  618MOL0     C83357   9.946  11.707  -0.048 -0.4102  0.1119 -0.5068
  618MOL0     C83358   9.935  11.835   0.024 -0.3058 -0.4995 -0.1652
  618MOL0     C83359   9.941  11.940   0.088  0.3654 -0.0656 -0.2353
  618MOL0     C83360  10.348  11.429   0.440 -0.2712  0.0971  0.4151
  618MOL0     C83361  10.474  11.427   0.502  0.1840 -0.2534 -1.0838
  618MOL0     C83362  10.476  11.463   0.647  0.3867 -0.8780  0.3346
  618MOL0     H83363  10.938  11.185   0.349  1.9999 -1.3317 -0.8903
  618MOL0     H83364  11.151  11.105   0.421 -0.6013 -0.8545  2.5949
  618MOL0     H83365  11.366  11.067   0.450 -1.4525  0.0297  0.5048
  618MOL0     H83366  11.396  11.228   0.370 -0.9698  0.1156  0.0922
  618MOL0     H83367  11.610  11.225   0.524  0.7449 -0.0980 -1.2855
  618MOL0     H83368  11.595  11.087   0.422  0.9196  3.1941 -1.6871
  618MOL0     H83369  11.523  10.951   0.592 -0.1467  0.8946 -2.6352
  618MOL0     H83370  11.487  11.079   0.711  1.3435 -2.4864  2.1019
  618MOL0     H83371  11.772  10.999   0.630 -0.3106  1.0728 -1.4503
  618MOL0     H83372  11.727  11.142   0.723  0.6110  0.0719  3.2336
  618MOL0     H83373  11.631  10.988   0.896 -0.6322 -3.6138  0.3811
  618MOL0     H83374  11.690  10.863   0.789 -1.3954 -0.4895  0.3356
  618MOL0     H83375  11.917  11.018   0.822 -2.2949 -1.7771 -3.5835
  618MOL0     H83376  11.824  11.076   0.959 -1.4764  1.9475 -3.0992
  618MOL0     H83377  11.820  10.858   1.063  3.7658 -2.4704  1.8027
  618MOL0     H83378  11.984  10.906   1.041  1.5769 -0.0133 -1.8329
  618MOL0     H83379  11.923  10.666   1.006  2.1185  1.6586  1.0887
  618MOL0     H83380  11.814  10.709   0.878  0.4716 -1.9886 -0.6184
  618MOL0     H83381  12.124  10.523   0.872 -5.0975 -1.7546 -0.6554
  618MOL0     H83382  12.268  10.462   0.657  0.0977  1.2195  2.7444
  618MOL0     H83383  12.298  10.588   0.537 -0.0504  2.9841  0.8474
  618MOL0     H83384  12.456  10.701   0.657  0.3913 -0.3721 -0.7699
  618MOL0     H83385  12.420  10.615   0.810 -0.0104  3.8944  0.2182
  618MOL0     H83386  12.526  10.487   0.548  1.0270  1.5448  0.0294
  618MOL0     H83387  12.522  10.417   0.707  0.6032 -0.0935  0.8335
  618MOL0     H83388  12.691  10.651   0.620 -1.3576 -0.3070  0.8339
  618MOL0     H83389  12.740  10.482   0.650  1.1633  2.5695 -2.8931
  618MOL0     H83390  12.616  10.774   0.977  0.8650  2.0316  1.1507
  618MOL0     H83391  12.729  10.985   1.020 -0.6502 -1.6678  0.4985
  618MOL0     H83392  13.127  11.246   1.091  0.8079  0.3435 -0.0661
  618MOL0     H83393  13.221  11.474   1.109 -1.0245  0.9595  1.5386
  618MOL0     H83394  13.270  11.683   1.099 -0.5121 -3.2702 -0.6900
  618MOL0     H83395  13.339  11.639   0.944  1.9859  0.3593  1.0207
  618MOL0     H83396  13.286  11.872   0.853 -0.6247 -0.8589 -1.5131
  618MOL0     H83397  13.206  11.912   1.006 -0.1617 -1.1423  0.4886
  618MOL0     H83398  13.483  11.818   0.978 -0.7511  0.0232  0.0212
  618MOL0     H83399  13.445  11.988   0.957 -0.1388 -0.8641 -1.0338
  618MOL0     H83400  13.413  11.804   1.204  0.5999 -0.5522 -1.4000
  618MOL0     H83401  13.367  11.971   1.221 -1.7148 -3.3918  2.1601
  618MOL0     H83402  13.595  12.059   1.190 -2.2592  0.4377  1.8235
  618MOL0     H83403  13.664  11.907   1.159  1.5788 -0.8027  2.9516
  618MOL0     H83404  13.524  11.965   1.421  1.2697  0.8487  2.2822
  618MOL0     H83405  13.610  11.821   1.373  0.7737  0.2569 -0.5731
  618MOL0     H83406  13.696  12.123   1.411 -1.4865  0.2753 -1.3468
  618MOL0     H83407  13.815  12.003   1.377 -0.3510 -2.8537  0.8453
  618MOL0     H83408  13.815  12.047   1.615  1.2043 -2.2221 -0.0179
  618MOL0     H83409  13.649  12.004   1.634  1.1270  1.5820  2.2055
  618MOL0     H83410  12.958  11.586   0.801 -0.5232 -2.4644 -1.5951
  618MOL0     H83411  12.852  11.369   0.788  3.7920  1.5355 -2.5465
  618MOL0     H83412  13.054  10.835   0.791  0.2596  0.8564  1.5778
  618MOL0     H83413  12.937  10.631   0.751  1.6833  1.0425  0.5347
  618MOL0     H83414  11.207  11.444   0.681  1.7936  0.5116 -1.2499
  618MOL0     H83415  10.995  11.523   0.607 -0.5272  0.1998  0.7956
  618MOL0     H83416  10.660  11.335   0.237 -1.0197  0.9091 -2.5807
  618MOL0     H83417  10.451  11.367   0.120  1.8796  1.5731 -0.7795
  618MOL0     H83418  10.190  11.401   0.053 -0.6274 -0.0753 -1.6458
  618MOL0     H83419  10.289  11.550   0.089 -1.2073  0.5856  0.4356
  618MOL0     H83420  10.096  11.663   0.194 -0.0694  0.8818  0.1177
  618MOL0     H83421   9.992  11.522   0.156 -0.4241 -1.1473 -2.8415
  618MOL0     H83422  10.060  11.547  -0.082  3.1456 -0.6729  0.1282
  618MOL0     H83423  10.158  11.684  -0.054 -0.6439  1.3602  0.3002
  618MOL0     H83424   9.939  11.744  -0.150  1.7325 -0.8659 -1.0719
  618MOL0     H83425   9.856  11.645  -0.037  0.7798 -1.9827 -1.8512
  618MOL0     H83426   9.958  12.035   0.135 -1.4530 -0.8779  2.2613
  618MOL0     H83427  10.270  11.466   0.506  1.0981  3.3342  0.4055
  618MOL0     H83428  10.383  11.505   0.686  1.1124 -1.9083  3.5098
  618MOL0     H83429  10.501  11.378   0.712 -0.2736 -0.6165  0.9449
  618MOL0     H83430  10.561  11.527   0.672 -0.1976  0.1894 -0.3358
  619MOL0     O83431  10.363   4.836   9.875  0.1116 -1.2007  0.3758
  619MOL0     C83432  10.342   4.799   9.992 -0.2401  0.3694  0.6390
  619MOL0     O83433  10.398   4.854  10.099  0.2677 -0.1423  0.0396
  619MOL0     C83434  10.471   4.970  10.084  0.1475  0.7694 -0.0330
  619MOL0     C83435  10.572   4.983   9.983 -0.5312 -0.4413 -0.9036
  619MOL0     C83436  10.648   5.094   9.962 -0.7443 -1.1988 -0.6029
  619MOL0     C83437  10.626   5.207  10.041  0.7510  0.3255  0.5543
  619MOL0     O83438  10.702   5.322  10.016  0.7106  0.5340 -0.8415
  619MOL0     C83439  10.643   5.451  10.029 -1.3167 -0.3542 -1.0794
  619MOL0     C83440  10.699   5.532   9.907 -0.1382  0.1412  0.0428
  619MOL0     C83441  10.849   5.557   9.900  0.4406 -0.5343 -0.7554
  619MOL0     C83442  10.922   5.602  10.031 -0.0600  0.5290 -0.3155
  619MOL0     C83443  11.067   5.639   9.991  0.6811  0.4261  0.5516
  619MOL0     C83444  11.126   5.721  10.107 -0.3562 -0.9646 -0.7197
  619MOL0     C83445  11.253   5.789  10.072 -0.1431  0.4232  0.8085
  619MOL0     C83446  11.241   5.897   9.967  0.1892  0.2604 -1.0963
  619MOL0     N83447  11.133   6.006   9.985 -0.0954  0.0742 -0.3857
  619MOL0     C83448  11.026   6.008   9.899 -1.2532  0.2394  0.1174
  619MOL0     C83449  10.952   6.105   9.945  0.6952  0.0403 -0.3384
  619MOL0     C83450  10.815   6.143   9.890  0.8368  0.7447 -0.6462
  619MOL0     C83451  10.708   6.046   9.944 -0.0870  0.4079 -0.5523
  619MOL0     C83452  10.588   6.066   9.842 -0.0193 -0.7071 -0.4956
  619MOL0     C83453  10.463   5.980   9.859  0.4423 -0.6451  0.4605
  619MOL0     O83454  10.469   5.855   9.781 -0.0564 -0.1950  0.1449
  619MOL0     C83455  10.374   5.759   9.802  0.5830 -1.5282 -0.6514
  619MOL0     C83456  10.370   5.661   9.706  0.4932  0.3474  0.1325
  619MOL0     C83457  10.276   5.558   9.715  1.0018  0.2726 -0.0663
  619MOL0     C83458  10.177   5.554   9.822 -0.7432 -0.5321 -0.5546
  619MOL0     C83459  10.100   5.432   9.848 -0.6885  0.4259 -0.5805
  619MOL0     O83460  10.086   5.395   9.978 -0.1700  0.4737 -1.0746
  619MOL0     C83461  10.041   5.278  10.017 -0.2332  0.4100  0.2000
  619MOL0     C83462  10.129   5.168  10.017  0.0776 -0.7697  0.5229
  619MOL0     C83463  10.085   5.043  10.072 -0.9218  0.0559 -0.9058
  619MOL0     C83464   9.962   5.026  10.109  0.7150  0.8999  0.2417
  619MOL0     O83465   9.914   4.905  10.155  0.4617 -0.8365 -0.4245
  619MOL0     C83466   9.824   4.826  10.079 -0.2955 -0.8128 -0.1776
  619MOL0     C83467   9.710   4.795  10.178 -0.8831 -0.2395  0.2948
  619MOL0     C83468   9.592   4.724  10.103 -0.9162 -0.2140 -0.6746
  619MOL0     C83469   9.635   4.590  10.043 -0.6609  0.0046 -0.0404
  619MOL0     C83470   9.508   4.531   9.983 -0.0124  1.2143  0.1334
  619MOL0     C83471   9.519   4.379   9.961  1.4028  0.3020  0.7033
  619MOL0     C83472   9.409   4.337   9.861 -0.3106  0.4325 -0.3742
  619MOL0     C83473   9.393   4.182   9.838 -0.5354  0.0510 -0.3004
  619MOL0    Cl83474   9.554   4.126   9.771  0.8282  0.2206 -0.3609
  619MOL0     C83475   9.876   5.131  10.109 -0.3942 -0.0289  0.7974
  619MOL0     C83476   9.914   5.260  10.067 -0.3498 -0.8076  0.3236
  619MOL0     O83477  10.045   5.382   9.754 -0.1892 -0.0627 -0.2480
  619MOL0     C83478  10.185   5.656   9.913 -0.2400  0.0106 -0.6464
  619MOL0     C83479  10.282   5.754   9.906  0.2059  0.2573 -0.0562
  619MOL0     N83480  11.014   6.165  10.053 -0.5977 -0.4459  0.1508
  619MOL0     N83481  11.121   6.095  10.084  0.4213 -0.5015 -0.1993
  619MOL0     C83482  10.513   5.199  10.132  0.3543  0.5427  0.1358
  619MOL0     C83483  10.448   5.083  10.158  0.3557 -0.4939 -0.5107
  619MOL0     C83484  10.247   4.681  10.019 -0.0434 -0.6359 -0.2039
  619MOL0     C83485  10.245   4.622  10.149  0.3384  0.6700  0.1694
  619MOL0     C83486  10.147   4.535  10.197  0.1247 -0.3245  0.0815
  619MOL0     C83487  10.048   4.488  10.116  0.3974 -0.7521  0.6753
  619MOL0     O83488   9.947   4.414  10.150 -0.1290  0.1626  0.1598
  619MOL0     C83489   9.971   4.297  10.221 -0.7969  0.0735 -0.5650
  619MOL0     C83490   9.960   4.175  10.123  0.1000 -0.3141 -0.3542
  619MOL0     C83491   9.818   4.156  10.054  0.5779  0.4577 -0.6000
  619MOL0     C83492   9.789   4.029   9.978  0.6235  0.0654 -0.1319
  619MOL0     C83493   9.852   3.916  10.043 -0.5566 -0.2771  0.2128
  619MOL0     C83494   9.920   3.817  10.066 -0.3086  0.6071  0.0059
  619MOL0     C83495  10.064   4.526   9.980  0.1959  0.1966 -0.0202
  619MOL0     C83496  10.155   4.627   9.926  1.5074 -0.2142  0.9894
  619MOL0     C83497  10.158   4.648   9.776 -0.1102  0.2407 -0.2421
  619MOL0     H83498  10.596   4.905   9.910  1.1808  0.1618 -1.0345
  619MOL0     H83499  10.708   5.109   9.873 -1.1518  1.1462 -0.5302
  619MOL0     H83500  10.533   5.450  10.025 -1.4234  1.1744  0.2624
  619MOL0     H83501  10.679   5.499  10.120  0.4053 -2.1695 -0.7251
  619MOL0     H83502  10.644   5.627   9.899 -1.2175 -0.4762 -0.0791
  619MOL0     H83503  10.677   5.472   9.818  1.9758 -2.2421  1.0153
  619MOL0     H83504  10.861   5.637   9.826  0.3943  0.6138  0.4239
  619MOL0     H83505  10.906   5.471   9.865  1.9609 -0.6864  1.8111
  619MOL0     H83506  10.867   5.687  10.073 -1.9374  0.6259 -2.7542
  619MOL0     H83507  10.917   5.520  10.104  2.0148 -0.7779 -1.5226
  619MOL0     H83508  11.126   5.552   9.960 -0.7505 -0.9692  1.6154
  619MOL0     H83509  11.059   5.701   9.901 -0.9496 -1.9095 -1.0379
  619MOL0     H83510  11.057   5.794  10.150 -1.4645 -1.9207 -0.8205
  619MOL0     H83511  11.141   5.653  10.191 -0.4763  0.4416  0.4855
  619MOL0     H83512  11.311   5.707  10.028 -1.6235 -0.6042  0.6625
  619MOL0     H83513  11.308   5.825  10.159  0.7985 -1.7761  1.2002
  619MOL0     H83514  11.333   5.953   9.946 -0.4064  0.5251 -3.2255
  619MOL0     H83515  11.235   5.847   9.870 -0.9081  1.3030 -1.5863
  619MOL0     H83516  10.993   5.941   9.821 -0.0440  0.3301 -0.4865
  619MOL0     H83517  10.780   6.244   9.912 -2.5770 -0.2916 -0.8687
  619MOL0     H83518  10.812   6.148   9.781 -2.8342  1.7769 -0.6025
  619MOL0     H83519  10.746   5.944   9.935 -0.5900 -0.4728  4.3284
  619MOL0     H83520  10.689   6.071  10.049  1.9864 -2.3483  0.6146
  619MOL0     H83521  10.623   6.055   9.739  1.0576  0.0477 -0.2282
  619MOL0     H83522  10.555   6.169   9.853  0.0164 -0.5423 -1.7843
  619MOL0     H83523  10.376   6.034   9.821  1.6843  0.5053 -0.8945
  619MOL0     H83524  10.447   5.959   9.965  0.6716 -0.1745  0.5938
  619MOL0     H83525  10.439   5.662   9.623 -0.0416 -0.9957 -0.3570
  619MOL0     H83526  10.280   5.466   9.658  2.6416  1.8286 -2.7057
  619MOL0     H83527  10.229   5.184   9.980 -1.2198 -0.6066 -3.3308
  619MOL0     H83528  10.152   4.957  10.071  0.7792  1.2330  1.2700
  619MOL0     H83529   9.784   4.877   9.991  1.6855 -2.0693 -1.9041
  619MOL0     H83530   9.876   4.734  10.053 -2.1649 -1.5473 -1.6010
  619MOL0     H83531   9.752   4.741  10.264  3.1726  1.2122 -0.5717
  619MOL0     H83532   9.672   4.894  10.206 -1.4343  0.2998 -2.1292
  619MOL0     H83533   9.513   4.707  10.178 -1.7524  0.8052 -1.2879
  619MOL0     H83534   9.541   4.796  10.038 -1.3796  0.7335  0.6801
  619MOL0     H83535   9.680   4.527  10.120 -1.0570 -1.3359 -0.8645
  619MOL0     H83536   9.709   4.592   9.961  2.8828  0.4139  2.9033
  619MOL0     H83537   9.495   4.590   9.891 -2.9214  1.4491  0.6301
  619MOL0     H83538   9.422   4.545  10.048 -0.5339  2.0109 -0.7063
  619MOL0     H83539   9.615   4.343   9.923 -0.2005 -0.5981 -2.9458
  619MOL0     H83540   9.500   4.336  10.060  2.1435  3.6043  2.4281
  619MOL0     H83541   9.436   4.393   9.771  1.3878 -1.8343 -1.3804
  619MOL0     H83542   9.307   4.368   9.882 -0.8030 -0.2776 -1.5868
  619MOL0     H83543   9.368   4.129   9.931 -3.1000  0.0494 -0.9376
  619MOL0     H83544   9.322   4.145   9.764  1.6009 -1.3215 -1.8099
  619MOL0     H83545   9.785   5.098  10.159 -0.3560 -3.1528 -0.9303
  619MOL0     H83546   9.855   5.352  10.066  0.4513 -0.2854 -0.2609
  619MOL0     H83547  10.126   5.658  10.004  2.8460 -0.0954  1.5039
  619MOL0     H83548  10.272   5.829   9.984 -1.4612  0.7142 -0.6603
  619MOL0     H83549  10.503   5.283  10.199 -1.3649 -1.1181  2.0774
  619MOL0     H83550  10.363   5.083  10.225 -1.1653 -0.8349 -2.3443
  619MOL0     H83551  10.314   4.652  10.226 -0.2346  1.9873  0.1940
  619MOL0     H83552  10.164   4.493  10.296  0.3218  0.5468  0.4294
  619MOL0     H83553   9.893   4.290  10.297  1.2605  0.3247  1.6842
  619MOL0     H83554  10.067   4.302  10.272 -2.1695  2.6147  2.0483
  619MOL0     H83555   9.988   4.085  10.178 -0.4079 -0.0606  0.3340
  619MOL0     H83556  10.033   4.186  10.042 -0.2034 -1.1866 -0.7515
  619MOL0     H83557   9.812   4.239   9.983 -0.9762 -0.9684 -2.2224
  619MOL0     H83558   9.738   4.162  10.128  0.6935 -0.4672 -0.3912
  619MOL0     H83559   9.681   4.010   9.971  0.3964  1.0878  0.3637
  619MOL0     H83560   9.836   4.036   9.879 -0.7437  0.0514 -0.8120
  619MOL0     H83561   9.976   3.726  10.073 -1.1517 -0.4658 -4.1700
  619MOL0     H83562  10.000   4.478   9.906  0.5918  0.6015 -0.6361
  619MOL0     H83563  10.076   4.609   9.715  0.7264  1.2482 -2.0974
  619MOL0     H83564  10.176   4.753   9.749 -0.1196 -0.0091 -1.2538
  619MOL0     H83565  10.237   4.581   9.743  1.1117  1.9592 -0.9831
  620MOL0     O83566   7.539  10.919   4.976 -0.0378  0.5325  0.0559
  620MOL0     C83567   7.478  10.971   4.876  0.5943 -0.2481  0.0952
  620MOL0     O83568   7.466  11.110   4.844 -0.2431 -0.3244  0.3527
  620MOL0     C83569   7.422  11.192   4.947  0.2167  0.2974  0.1189
  620MOL0     C83570   7.384  11.317   4.902  0.3387  0.3460 -0.2756
  620MOL0     C83571   7.352  11.422   4.979  0.3245 -0.3195 -1.3127
  620MOL0     C83572   7.342  11.403   5.123  1.0157 -0.2853 -0.0304
  620MOL0     O83573   7.317  11.517   5.189 -1.2739 -0.5658 -0.2273
  620MOL0     C83574   7.242  11.507   5.311  0.0843  0.2378  0.1501
  620MOL0     C83575   7.341  11.471   5.434  0.5784  0.2860  0.0503
  620MOL0     C83576   7.342  11.585   5.539 -0.6415 -0.0961 -0.2654
  620MOL0     C83577   7.223  11.592   5.638  0.0612  0.2198  0.7011
  620MOL0     C83578   7.233  11.703   5.734  0.0700 -0.1482  0.2906
  620MOL0     C83579   7.218  11.844   5.665  0.2977 -0.2237  0.3610
  620MOL0     C83580   7.214  11.963   5.775 -0.0425 -0.1237  0.2728
  620MOL0     C83581   7.088  11.971   5.859 -0.4933  0.3891 -0.2740
  620MOL0     N83582   6.977  12.007   5.773 -0.2312 -0.2871  0.5087
  620MOL0     C83583   6.962  12.134   5.725  0.2362  0.2978  0.1220
  620MOL0     C83584   6.829  12.132   5.676  0.2101 -0.0863 -0.3161
  620MOL0     C83585   6.764  12.241   5.600  0.0392 -1.2224  0.3233
  620MOL0     C83586   6.801  12.206   5.451 -0.1583 -0.5896 -0.6074
  620MOL0     C83587   6.720  12.295   5.353 -0.7357 -0.6140 -0.2796
  620MOL0     C83588   6.704  12.244   5.207 -0.2357  0.1875 -0.4876
  620MOL0     O83589   6.613  12.311   5.119  0.1518 -0.2300  0.6024
  620MOL0     C83590   6.627  12.444   5.120  0.0104 -0.4213  0.4041
  620MOL0     C83591   6.731  12.505   5.045  0.3490  1.3800 -1.4049
  620MOL0     C83592   6.736  12.643   5.040 -0.7469 -0.8315  0.8909
  620MOL0     C83593   6.642  12.731   5.104  0.2448  0.6017  0.0815
  620MOL0     C83594   6.649  12.880   5.094 -0.2824 -0.5480  0.7305
  620MOL0     O83595   6.775  12.936   5.082  0.2816  0.0036 -0.4046
  620MOL0     C83596   6.763  13.071   5.066  0.5488 -0.0915  0.2421
  620MOL0     C83597   6.777  13.118   4.934 -0.4084 -0.0165  0.5681
  620MOL0     C83598   6.745  13.250   4.913  0.3225  0.0416  1.0516
  620MOL0     C83599   6.723  13.341   5.013 -0.5930 -0.6967 -1.0554
  620MOL0     O83600   6.702  13.483   5.004  0.3633  0.4387 -0.0242
  620MOL0     C83601   6.696  13.541   4.870  0.1014  0.2099 -0.3795
  620MOL0     C83602   6.842  13.549   4.810 -0.3125  0.6736  0.4978
  620MOL0     C83603   6.920  13.649   4.883  0.3710 -0.6332 -0.0171
  620MOL0     C83604   7.064  13.620   4.845 -0.1529 -0.0958  0.8116
  620MOL0     C83605   7.160  13.708   4.910  0.4406 -0.3827 -1.3634
  620MOL0     C83606   7.312  13.678   4.899 -0.3785 -0.2418 -0.3469
  620MOL0     C83607   7.343  13.527   4.933  0.4549 -0.2266  0.7476
  620MOL0     C83608   7.483  13.516   4.987  0.4519  0.7121 -0.5122
  620MOL0    Cl83609   7.503  13.578   5.151 -0.0124  0.0481  0.1254
  620MOL0     C83610   6.732  13.295   5.141 -0.5134 -1.2321 -0.4936
  620MOL0     C83611   6.742  13.160   5.171  0.9616 -0.6527 -0.2390
  620MOL0     O83612   6.541  12.941   5.099  0.5793 -0.2132  0.8769
  620MOL0     C83613   6.546  12.677   5.182 -0.2335 -0.6309  0.9169
  620MOL0     C83614   6.535  12.532   5.183  0.2227  0.4122 -0.1285
  620MOL0     N83615   6.775  12.009   5.696 -0.0206  0.1156  0.4455
  620MOL0     N83616   6.865  11.936   5.750 -0.2495  0.3770 -0.6237
  620MOL0     C83617   7.366  11.271   5.178 -1.0186 -1.4617  0.0139
  620MOL0     C83618   7.419  11.173   5.091  0.5689  0.5673  0.7637
  620MOL0     C83619   7.436  10.889   4.762 -0.3912 -0.3558  0.2478
  620MOL0     C83620   7.537  10.848   4.677 -0.5127  0.1869  0.7612
  620MOL0     C83621   7.517  10.773   4.556  0.1671 -0.4571  0.3969
  620MOL0     C83622   7.377  10.741   4.530 -1.2055  1.0447  0.0530
  620MOL0     O83623   7.334  10.668   4.420  0.3104 -0.3424  0.1708
  620MOL0     C83624   7.436  10.653   4.319 -0.2351  0.5357  0.0518
  620MOL0     C83625   7.376  10.580   4.206 -1.1955 -0.1865  0.1188
  620MOL0     C83626   7.253  10.658   4.130 -0.8034  0.2835  0.1022
  620MOL0     C83627   7.224  10.592   3.996 -0.8336 -0.4838 -0.6604
  620MOL0     C83628   7.141  10.682   3.919  1.0865 -0.1687 -0.0580
  620MOL0     C83629   7.065  10.753   3.854  0.4570  0.0885 -0.3510
  620MOL0     C83630   7.277  10.781   4.614 -0.1024 -0.5762 -0.2333
  620MOL0     C83631   7.304  10.858   4.734  0.0884  0.6175 -0.3660
  620MOL0     C83632   7.190  10.904   4.821  0.0831 -0.2487 -0.8396
  620MOL0     H83633   7.395  11.353   4.800  0.8861  1.3921  0.1325
  620MOL0     H83634   7.335  11.522   4.940  4.2193  1.6174  1.3485
  620MOL0     H83635   7.189  11.600   5.331 -1.9065 -0.7171 -0.4130
  620MOL0     H83636   7.164  11.430   5.313 -1.8724  2.0792 -1.2996
  620MOL0     H83637   7.445  11.467   5.402 -0.0316  2.4273 -2.5667
  620MOL0     H83638   7.323  11.374   5.481 -1.5490  1.8236  2.7414
  620MOL0     H83639   7.341  11.681   5.487 -3.2629  2.7855  4.3526
  620MOL0     H83640   7.435  11.590   5.596 -0.5007  2.5913 -0.5830
  620MOL0     H83641   7.129  11.609   5.584 -0.9149 -2.0096  1.5903
  620MOL0     H83642   7.216  11.495   5.688 -0.4258  0.1316  0.4688
  620MOL0     H83643   7.143  11.692   5.796 -1.6621  0.4480 -1.9621
  620MOL0     H83644   7.324  11.699   5.794 -0.6789  2.5185  1.7770
  620MOL0     H83645   7.296  11.859   5.590 -0.2396  0.4735 -0.0722
  620MOL0     H83646   7.122  11.843   5.613 -0.0315 -1.5939  0.9521
  620MOL0     H83647   7.231  12.059   5.726  1.4855  1.4046  3.5332
  620MOL0     H83648   7.296  11.961   5.847 -0.9281 -4.1223  1.4111
  620MOL0     H83649   7.078  11.873   5.909 -1.8250 -0.4155 -2.0158
  620MOL0     H83650   7.109  12.050   5.932 -2.6311  0.0544  0.8070
  620MOL0     H83651   7.027  12.221   5.725 -1.7432  1.8357  0.0033
  620MOL0     H83652   6.658  12.260   5.621 -0.2384 -2.1111 -0.2194
  620MOL0     H83653   6.822  12.328   5.635 -0.5353 -1.8880  3.1502
  620MOL0     H83654   6.909  12.219   5.437 -0.1030 -1.6354 -1.2083
  620MOL0     H83655   6.783  12.101   5.427  2.9947 -1.0175 -1.5748
  620MOL0     H83656   6.753  12.398   5.340 -0.5947 -0.7252 -0.8637
  620MOL0     H83657   6.619  12.302   5.395 -0.4960  2.1973 -0.0057
  620MOL0     H83658   6.667  12.141   5.215  0.7624 -0.0276  2.9066
  620MOL0     H83659   6.807  12.236   5.171 -1.1974 -2.5125 -3.0310
  620MOL0     H83660   6.804  12.436   5.002  0.7036  1.1324 -0.4256
  620MOL0     H83661   6.819  12.681   4.982 -0.9016 -0.1005  1.1366
  620MOL0     H83662   6.798  13.047   4.855  2.0235 -0.9649  1.9740
  620MOL0     H83663   6.759  13.294   4.814  0.1124  0.4418  1.1952
  620MOL0     H83664   6.624  13.479   4.815 -0.5870 -0.4855  1.2410
  620MOL0     H83665   6.648  13.639   4.877  0.2606  0.1674  1.9010
  620MOL0     H83666   6.889  13.452   4.830  0.2425  1.3838  2.9793
  620MOL0     H83667   6.840  13.562   4.702  0.8931 -1.0770  0.2203
  620MOL0     H83668   6.890  13.746   4.843 -4.0178 -2.3860 -1.5415
  620MOL0     H83669   6.909  13.650   4.992 -0.8050  2.7650 -0.0712
  620MOL0     H83670   7.090  13.626   4.739 -0.6653 -0.2258  0.6797
  620MOL0     H83671   7.084  13.513   4.856 -1.3506 -0.4692 -0.3236
  620MOL0     H83672   7.135  13.720   5.016 -0.0206 -0.0889 -1.5032
  620MOL0     H83673   7.143  13.810   4.872  0.4943  0.9732  1.8888
  620MOL0     H83674   7.345  13.703   4.798 -0.6359  1.6656 -0.0065
  620MOL0     H83675   7.363  13.744   4.970  3.8350  0.8277 -3.9348
  620MOL0     H83676   7.317  13.471   4.843 -0.0480 -3.2209  2.6291
  620MOL0     H83677   7.270  13.481   5.000 -1.5548 -0.4933 -1.5165
  620MOL0     H83678   7.516  13.412   4.983  1.9132  1.1567 -1.0089
  620MOL0     H83679   7.548  13.575   4.921 -1.8755  0.4950 -3.1945
  620MOL0     H83680   6.712  13.366   5.221  1.7397 -2.1216  0.9669
  620MOL0     H83681   6.738  13.126   5.274  3.2062  0.3040  0.2208
  620MOL0     H83682   6.470  12.740   5.227  0.4413  0.0596  1.1022
  620MOL0     H83683   6.454  12.484   5.238  0.8761 -0.6278 -0.0392
  620MOL0     H83684   7.353  11.237   5.280  0.9486 -0.3716  0.6711
  620MOL0     H83685   7.446  11.082   5.144  0.3419  1.7777  3.1035
  620MOL0     H83686   7.643  10.859   4.698 -0.1226 -0.5898 -0.6808
  620MOL0     H83687   7.604  10.748   4.497  0.1798 -1.4043  0.8082
  620MOL0     H83688   7.515  10.591   4.362 -2.4789 -2.3264  0.2790
  620MOL0     H83689   7.482  10.745   4.280  1.1592 -0.9336 -1.9712
  620MOL0     H83690   7.335  10.480   4.224 -0.1902 -0.9104 -1.4262
  620MOL0     H83691   7.457  10.564   4.135 -0.2488  1.6297  0.7317
  620MOL0     H83692   7.284  10.761   4.114  3.7773 -0.6548  1.4626
  620MOL0     H83693   7.165  10.652   4.196  0.9760 -1.0762  2.5303
  620MOL0     H83694   7.313  10.559   3.940  0.6829  0.7103  0.9500
  620MOL0     H83695   7.158  10.504   4.000 -2.5612  0.7119 -1.6753
  620MOL0     H83696   6.998  10.820   3.803  0.5599  1.7298  1.5173
  620MOL0     H83697   7.177  10.754   4.581 -1.1250  2.7962 -0.3212
  620MOL0     H83698   7.168  10.828   4.897  0.0839  1.1589  0.6272
  620MOL0     H83699   7.208  10.999   4.871 -2.0592  0.0999 -0.6289
  620MOL0     H83700   7.095  10.900   4.767 -0.9818 -1.1338  0.9921
  621MOL0     O83701   2.107   0.205   9.144  0.0656  0.5085  0.1811
  621MOL0     C83702   2.159   0.299   9.084  0.3656  0.3443  0.3616
  621MOL0     O83703   2.099   0.410   9.047  0.8926 -0.9901 -0.1607
  621MOL0     C83704   1.960   0.398   9.050  0.7926 -0.5842 -1.5585
  621MOL0     C83705   1.889   0.356   8.935  0.3218 -0.1872 -0.9165
  621MOL0     C83706   1.751   0.348   8.936  0.6466  0.4729  0.2431
  621MOL0     C83707   1.681   0.372   9.052 -0.5414 -0.6665  0.0369
  621MOL0     O83708   1.550   0.373   9.057 -0.1612  0.4626 -0.3307
  621MOL0     C83709   1.478   0.493   9.045 -0.9130 -0.5907 -0.2726
  621MOL0     C83710   1.325   0.475   9.028  0.1146 -0.5293 -0.5056
  621MOL0     C83711   1.266   0.619   9.008 -0.0493  0.2247  0.3253
  621MOL0     C83712   1.118   0.619   8.964  0.5269  0.7692  0.0494
  621MOL0     C83713   1.018   0.560   9.078 -0.4436 -0.5264  0.6427
  621MOL0     C83714   0.873   0.566   9.025 -0.9725  0.0818  0.3278
  621MOL0     C83715   0.783   0.535   9.146 -0.5901 -0.8707  0.2965
  621MOL0     C83716   0.636   0.505   9.112 -0.0459 -0.2744 -0.5674
  621MOL0     N83717   0.547   0.607   9.169  0.3612 -0.2045  0.1552
  621MOL0     C83718   0.458   0.680   9.091 -0.4967 -0.1620 -0.0648
  621MOL0     C83719   0.400   0.764   9.179 -0.0145 -0.0764  0.5244
  621MOL0     C83720   0.302   0.872   9.166 -0.0602  0.3464 -0.3134
  621MOL0     C83721   0.302   0.946   9.030  0.2188 -0.3045  0.4643
  621MOL0     C83722   0.216   1.079   9.031 -0.5021 -0.1038 -0.0742
  621MOL0     C83723   0.069   1.065   9.047  0.0112  1.3895  0.3337
  621MOL0     O83724   0.033   0.993   8.922  0.0864 -0.1328 -0.0698
  621MOL0     C83725  -0.100   1.000   8.910  1.1820  0.3859  0.1386
  621MOL0     C83726  -0.184   0.895   8.948 -0.7817 -0.2962 -0.1974
  621MOL0     C83727  -0.322   0.892   8.933  0.7252 -0.4970  0.4048
  621MOL0     C83728  -0.388   1.003   8.867  0.1352 -0.0676 -0.4807
  621MOL0     C83729  -0.534   0.995   8.833  0.8768  0.0953 -0.3240
  621MOL0     O83730  -0.585   1.109   8.778  0.0459  0.1372  0.2012
  621MOL0     C83731  -0.708   1.126   8.723 -0.2979  0.0587  0.0091
  621MOL0     C83732  -0.828   1.055   8.755 -0.6052 -0.0638 -0.0010
  621MOL0     C83733  -0.948   1.084   8.685  0.0819  0.3613  0.0790
  621MOL0     C83734  -0.962   1.186   8.586 -0.1278  0.4285 -0.9560
  621MOL0     O83735  -1.083   1.216   8.523  0.4290  0.8640  0.2854
  621MOL0     C83736  -1.079   1.229   8.375 -0.4171  0.8037  0.0549
  621MOL0     C83737  -1.036   1.101   8.298 -0.3079 -0.6953  0.3337
  621MOL0     C83738  -1.126   0.979   8.309  1.1667  1.0052  1.0901
  621MOL0     C83739  -1.267   0.989   8.254  0.6455 -0.6811  0.2398
  621MOL0     C83740  -1.319   0.844   8.271  0.0848 -0.1148 -0.1957
  621MOL0     C83741  -1.446   0.821   8.183  0.3982 -1.0467 -1.3703
  621MOL0     C83742  -1.511   0.683   8.193 -0.5976 -0.0297 -0.4041
  621MOL0     C83743  -1.537   0.635   8.335 -0.5245 -0.3056  0.0668
  621MOL0    Cl83744  -1.642   0.753   8.410 -0.2484  0.1324 -0.1753
  621MOL0     C83745  -0.848   1.267   8.570 -0.2335 -0.9326 -0.6136
  621MOL0     C83746  -0.724   1.227   8.629  0.1157 -1.0673 -0.9586
  621MOL0     O83747  -0.598   0.883   8.842  0.5061 -1.2294 -0.1493
  621MOL0     C83748  -0.305   1.112   8.832  0.2418  0.2794 -0.0063
  621MOL0     C83749  -0.162   1.104   8.850 -0.1058 -0.9252 -0.2897
  621MOL0     N83750   0.464   0.744   9.300  0.1950  0.2576 -0.2241
  621MOL0     N83751   0.546   0.649   9.295 -0.7153 -1.2050 -0.9301
  621MOL0     C83752   1.750   0.421   9.173  1.9185 -0.3425  0.0176
  621MOL0     C83753   1.891   0.422   9.170 -0.0313 -0.5352  0.0103
  621MOL0     C83754   2.305   0.298   9.040  0.6411 -0.5492  0.2326
  621MOL0     C83755   2.348   0.370   8.935 -0.5022  0.3192 -0.3677
  621MOL0     C83756   2.478   0.395   8.896 -0.3522  0.3493  0.3158
  621MOL0     C83757   2.573   0.317   8.958  0.5762 -0.4565 -0.5696
  621MOL0     O83758   2.695   0.356   8.922 -0.6736 -0.7135 -0.0492
  621MOL0     C83759   2.811   0.307   8.994  0.0706 -0.5820  0.4321
  621MOL0     C83760   2.933   0.382   8.956 -0.2564  0.6954 -0.1178
  621MOL0     C83761   2.950   0.526   8.994 -0.5834 -0.0158  0.3798
  621MOL0     C83762   3.082   0.585   8.948 -0.0223  0.3965 -0.5079
  621MOL0     C83763   3.188   0.538   9.036 -0.6174 -0.7192 -0.1694
  621MOL0     C83764   3.301   0.541   9.083 -0.1487 -0.7172  0.1518
  621MOL0     C83765   2.534   0.229   9.062  0.5814  0.3124 -0.5430
  621MOL0     C83766   2.399   0.224   9.108  1.1963  1.0100  0.4006
  621MOL0     C83767   2.366   0.150   9.237  0.5934  0.0940  0.6190
  621MOL0     H83768   1.951   0.355   8.845  1.5180  3.0144 -0.2679
  621MOL0     H83769   1.700   0.319   8.845 -0.1852 -0.8674  1.0999
  621MOL0     H83770   1.493   0.564   9.127  3.3172  2.3941 -3.1668
  621MOL0     H83771   1.509   0.542   8.952 -2.4574  2.5078  0.7079
  621MOL0     H83772   1.280   0.429   9.117 -0.0437 -0.5161 -0.5773
  621MOL0     H83773   1.291   0.406   8.950 -2.0730  2.1591 -2.1316
  621MOL0     H83774   1.325   0.673   8.934 -0.0762  1.2259  1.0173
  621MOL0     H83775   1.249   0.679   9.098 -2.7149 -0.2045  0.1940
  621MOL0     H83776   1.091   0.724   8.955 -0.9628  0.4081 -0.0275
  621MOL0     H83777   1.106   0.557   8.875  0.5432 -1.0276  1.2304
  621MOL0     H83778   1.041   0.456   9.102 -2.7778 -1.3316 -0.2625
  621MOL0     H83779   1.037   0.626   9.164 -1.0916  1.4245 -0.6303
  621MOL0     H83780   0.857   0.657   8.967  4.0342  0.8016 -0.3479
  621MOL0     H83781   0.861   0.485   8.953 -0.0093  0.6896 -0.5400
  621MOL0     H83782   0.788   0.621   9.213 -1.4540  0.6315 -1.4877
  621MOL0     H83783   0.825   0.451   9.202  1.3133  1.0054  1.8624
  621MOL0     H83784   0.629   0.494   9.003 -1.9978 -1.8106 -0.3370
  621MOL0     H83785   0.609   0.407   9.153  1.7557 -0.6115 -0.0779
  621MOL0     H83786   0.421   0.658   8.991 -3.2074 -1.8167  1.1900
  621MOL0     H83787   0.199   0.835   9.171 -0.7860  2.0666 -1.8068
  621MOL0     H83788   0.321   0.951   9.239 -2.8699  2.2397 -1.4873
  621MOL0     H83789   0.403   0.985   9.017 -0.4573  1.5075  0.3068
  621MOL0     H83790   0.274   0.879   8.948  1.4390 -0.7953  0.4296
  621MOL0     H83791   0.243   1.134   8.940  2.8253 -1.2200  0.0988
  621MOL0     H83792   0.270   1.147   9.098 -0.3733 -0.2813  0.0030
  621MOL0     H83793   0.015   1.158   9.063 -1.2747  0.3853  2.1864
  621MOL0     H83794   0.044   1.013   9.140  2.6483  1.7974  1.3683
  621MOL0     H83795  -0.129   0.811   8.989 -1.5808 -1.0526 -0.6380
  621MOL0     H83796  -0.387   0.812   8.969  1.7279 -0.9395  1.2844
  621MOL0     H83797  -0.823   0.982   8.836 -0.1927  0.0724  0.1016
  621MOL0     H83798  -1.037   1.024   8.700 -0.7479  0.8350 -2.4923
  621MOL0     H83799  -1.174   1.269   8.338 -0.8520  0.4184  0.7472
  621MOL0     H83800  -1.000   1.303   8.357 -0.8473  1.6946  1.6561
  621MOL0     H83801  -1.007   1.118   8.194  1.8292 -0.0180  1.0024
  621MOL0     H83802  -0.939   1.075   8.339  0.1421  1.8729  1.0828
  621MOL0     H83803  -1.080   0.890   8.264 -3.2327 -1.4517  0.9058
  621MOL0     H83804  -1.140   0.933   8.407 -1.0883 -1.8895 -0.3976
  621MOL0     H83805  -1.276   1.015   8.148 -1.2389 -0.9916  0.2878
  621MOL0     H83806  -1.327   1.059   8.312  0.0395 -1.2231  0.2785
  621MOL0     H83807  -1.347   0.844   8.377 -1.5189  1.6416 -0.5680
  621MOL0     H83808  -1.244   0.765   8.259  0.1088 -0.6252  2.6118
  621MOL0     H83809  -1.519   0.899   8.206  1.9129  0.1516 -0.4632
  621MOL0     H83810  -1.409   0.839   8.082  1.7331  0.3403 -0.6802
  621MOL0     H83811  -1.456   0.607   8.136 -2.6372 -1.1498 -0.9895
  621MOL0     H83812  -1.606   0.686   8.140  0.0377 -2.1443 -1.7821
  621MOL0     H83813  -1.566   0.530   8.347 -3.1903  0.3520  0.0592
  621MOL0     H83814  -1.437   0.632   8.379 -1.3187 -0.3559  1.9697
  621MOL0     H83815  -0.850   1.348   8.497 -0.8024 -1.5985 -1.3540
  621MOL0     H83816  -0.634   1.279   8.598 -0.1442 -0.7798 -1.2457
  621MOL0     H83817  -0.351   1.198   8.786 -0.8404  0.7697  1.8858
  621MOL0     H83818  -0.109   1.194   8.822  0.7224 -0.4972  2.4415
  621MOL0     H83819   1.696   0.449   9.263  3.0561  0.2035  0.5536
  621MOL0     H83820   1.939   0.458   9.261 -0.2715 -0.5275  0.1342
  621MOL0     H83821   2.274   0.431   8.883 -2.0280 -0.7896  0.3961
  621MOL0     H83822   2.497   0.460   8.812  1.1335 -2.1268 -1.3761
  621MOL0     H83823   2.824   0.201   8.971 -1.8137 -1.3038  2.4050
  621MOL0     H83824   2.810   0.316   9.103  1.5231  0.8770  0.3670
  621MOL0     H83825   2.956   0.389   8.849 -1.8968 -0.7425 -0.6025
  621MOL0     H83826   3.013   0.324   9.002 -1.0821  1.4770  2.4556
  621MOL0     H83827   2.940   0.531   9.103  1.3236  1.5519  0.5339
  621MOL0     H83828   2.871   0.586   8.947  0.7970  1.0433 -0.6476
  621MOL0     H83829   3.092   0.553   8.843 -0.8148  0.4749 -0.6099
  621MOL0     H83830   3.074   0.694   8.952 -0.1536  0.3414  1.0403
  621MOL0     H83831   3.398   0.544   9.130  1.1976  0.2388 -2.4409
  621MOL0     H83832   2.605   0.154   9.096 -0.2384 -1.4552 -2.5267
  621MOL0     H83833   2.312   0.225   9.296 -1.8559 -1.1421  0.0530
  621MOL0     H83834   2.301   0.066   9.212 -1.4347  1.5985  0.5628
  621MOL0     H83835   2.457   0.106   9.280  1.3640  0.3572 -0.6804
  622MOL0     O83836   1.612   2.726   6.353 -0.5806  1.4934  0.8993
  622MOL0     C83837   1.587   2.800   6.443 -1.4624  0.1547 -0.6409
  622MOL0     O83838   1.686   2.855   6.518  0.6770  0.6482  0.4982
  622MOL0     C83839   1.817   2.808   6.518  0.4888 -0.6801 -0.0875
  622MOL0     C83840   1.861   2.674   6.504 -0.4453 -0.9575 -0.1638
  622MOL0     C83841   1.997   2.645   6.518 -0.8158 -0.1107  0.6618
  622MOL0     C83842   2.094   2.747   6.559  0.0132  0.4466 -0.6320
  622MOL0     O83843   2.233   2.735   6.563 -0.3589  0.4455  0.9295
  622MOL0     C83844   2.285   2.596   6.579 -0.9753  0.2181 -0.2972
  622MOL0     C83845   2.433   2.571   6.558  0.1411 -0.5802  0.1774
  622MOL0     C83846   2.458   2.455   6.464  0.1785 -0.0095 -0.2396
  622MOL0     C83847   2.595   2.433   6.434 -0.2922  0.9814  0.6180
  622MOL0     C83848   2.620   2.311   6.340  0.0534  0.2990 -0.7993
  622MOL0     C83849   2.563   2.176   6.367  0.2171 -0.0608 -0.4399
  622MOL0     C83850   2.477   2.117   6.260 -0.4601 -0.2247  0.4061
  622MOL0     C83851   2.343   2.190   6.229  0.4519  0.9151  0.0978
  622MOL0     N83852   2.246   2.191   6.343 -0.3468  0.3275 -0.4198
  622MOL0     C83853   2.227   2.099   6.441  0.0965  0.2912  0.0650
  622MOL0     C83854   2.157   2.152   6.542 -0.9774 -0.5506  0.1672
  622MOL0     C83855   2.119   2.089   6.671 -0.2231 -0.2299 -0.0352
  622MOL0     C83856   1.975   2.049   6.685 -0.1388  0.0502  0.7166
  622MOL0     C83857   1.914   1.937   6.590  0.1338 -0.2655  0.7165
  622MOL0     C83858   1.763   1.931   6.601  0.3590  0.1820  0.2708
  622MOL0     O83859   1.726   1.924   6.735  0.4401  0.8775  0.2105
  622MOL0     C83860   1.592   1.940   6.766 -0.7767 -0.6220 -0.4053
  622MOL0     C83861   1.487   1.949   6.670  0.3233 -0.0313 -0.0187
  622MOL0     C83862   1.356   1.979   6.709  0.4344  0.3010 -1.7320
  622MOL0     C83863   1.327   2.003   6.846 -0.1106 -0.2177  0.0607
  622MOL0     C83864   1.187   2.024   6.888 -0.1342 -0.1801  0.2213
  622MOL0     O83865   1.169   2.043   7.024  0.2067  0.1237 -0.5098
  622MOL0     C83866   1.038   2.017   7.065  0.4176 -0.2013  0.2083
  622MOL0     C83867   1.006   1.903   7.136 -0.2967  1.1078  1.0302
  622MOL0     C83868   0.873   1.896   7.173 -0.2321 -0.0037  0.4539
  622MOL0     C83869   0.779   2.004   7.166 -0.3870 -0.3339 -0.5474
  622MOL0     O83870   0.648   2.005   7.219  0.5615 -0.3912  0.3970
  622MOL0     C83871   0.597   1.906   7.304  0.2510 -0.1290  0.5256
  622MOL0     C83872   0.509   1.816   7.204  0.7041  0.4396 -0.0494
  622MOL0     C83873   0.416   1.715   7.286 -0.2000  0.4076  0.1131
  622MOL0     C83874   0.281   1.783   7.318 -0.7230  0.0018 -0.2355
  622MOL0     C83875   0.196   1.683   7.405 -0.4094  0.1388  0.7060
  622MOL0     C83876   0.110   1.763   7.508 -0.3525  0.2978  0.3584
  622MOL0     C83877   0.038   1.666   7.603 -0.1233 -0.9687 -0.5852
  622MOL0     C83878  -0.057   1.734   7.697 -0.4585  0.6423 -0.1615
  622MOL0    Cl83879   0.018   1.853   7.810  0.2906  0.3923 -0.3993
  622MOL0     C83880   0.813   2.119   7.102 -0.6369  0.0520 -0.3948
  622MOL0     C83881   0.943   2.123   7.047 -0.1596 -0.4349 -0.6135
  622MOL0     O83882   1.101   1.999   6.804  0.0968 -0.3199 -0.3713
  622MOL0     C83883   1.429   2.013   6.938 -0.3232 -0.3915 -0.4050
  622MOL0     C83884   1.560   1.975   6.898 -0.2304  0.1972 -0.3509
  622MOL0     N83885   2.117   2.278   6.495  0.2195 -0.7578  0.0970
  622MOL0     N83886   2.178   2.304   6.384  0.7125  0.1110 -0.4055
  622MOL0     C83887   2.043   2.872   6.581  0.5558  0.3511 -0.5642
  622MOL0     C83888   1.907   2.901   6.562  0.4093  0.7899 -0.8255
  622MOL0     C83889   1.445   2.849   6.464  0.3102  0.6506  0.0842
  622MOL0     C83890   1.421   2.962   6.543 -0.2906  1.1627 -0.2788
  622MOL0     C83891   1.301   3.002   6.578 -0.1609  0.1469 -0.5417
  622MOL0     C83892   1.184   2.950   6.521 -0.3619  0.6133  1.0591
  622MOL0     O83893   1.079   3.031   6.539  0.5659 -0.1389 -0.7653
  622MOL0     C83894   0.962   3.014   6.459  0.1290 -0.1785  1.3758
  622MOL0     C83895   0.858   3.117   6.488 -0.6625  0.2421  0.4220
  622MOL0     C83896   0.800   3.119   6.639 -0.5821 -0.8461  1.2791
  622MOL0     C83897   0.675   3.045   6.650 -0.7827  0.4637 -0.3800
  622MOL0     C83898   0.566   3.118   6.599  0.1573  0.0017  0.0652
  622MOL0     C83899   0.472   3.177   6.567  0.3658  0.0396  0.8643
  622MOL0     C83900   1.195   2.835   6.439 -0.0914 -0.3375 -0.3417
  622MOL0     C83901   1.325   2.787   6.416 -0.0288 -0.6289  0.4869
  622MOL0     C83902   1.330   2.646   6.360  0.3378  0.3637 -0.0523
  622MOL0     H83903   1.788   2.601   6.470  0.3454 -1.7068 -0.2848
  622MOL0     H83904   2.022   2.540   6.517 -2.2546 -0.4620  0.0589
  622MOL0     H83905   2.260   2.562   6.680 -0.3433 -1.1319 -0.5795
  622MOL0     H83906   2.240   2.513   6.524  0.5265 -1.1657  0.4718
  622MOL0     H83907   2.471   2.547   6.658  0.6448  0.2881  0.2082
  622MOL0     H83908   2.485   2.658   6.516  0.0982 -1.9576 -2.9975
  622MOL0     H83909   2.395   2.485   6.380 -0.4550  2.4466  1.0052
  622MOL0     H83910   2.404   2.374   6.515 -0.3102  0.5218  0.1084
  622MOL0     H83911   2.622   2.533   6.397  1.4542 -0.0441 -1.0955
  622MOL0     H83912   2.654   2.407   6.522 -0.0220 -2.1350 -0.3717
  622MOL0     H83913   2.578   2.337   6.242 -0.6026  1.5970 -0.1950
  622MOL0     H83914   2.730   2.312   6.340  0.1102 -0.2251  1.4721
  622MOL0     H83915   2.644   2.106   6.393 -0.8288 -0.6470  1.4337
  622MOL0     H83916   2.515   2.165   6.464 -1.5764 -2.4965 -1.4967
  622MOL0     H83917   2.453   2.016   6.294 -0.8763 -0.1420  0.3718
  622MOL0     H83918   2.532   2.116   6.166 -1.4551  0.5411 -0.2051
  622MOL0     H83919   2.361   2.290   6.187 -2.3143  0.7073 -1.8603
  622MOL0     H83920   2.298   2.136   6.145  1.9797 -0.5876  0.1925
  622MOL0     H83921   2.276   2.002   6.445 -1.3064 -0.4257  0.6557
  622MOL0     H83922   2.181   2.000   6.684 -0.0309 -0.6887 -3.2433
  622MOL0     H83923   2.145   2.170   6.740 -1.1958  2.2598 -2.3908
  622MOL0     H83924   1.963   2.014   6.788  0.7200 -1.4353  0.3491
  622MOL0     H83925   1.916   2.140   6.677  1.0116  0.8314  0.8791
  622MOL0     H83926   1.949   1.842   6.632 -1.2016 -0.9180  0.4243
  622MOL0     H83927   1.949   1.953   6.488 -1.9755 -0.4060 -0.0900
  622MOL0     H83928   1.729   1.839   6.554  1.0471  1.2832 -2.6425
  622MOL0     H83929   1.725   2.019   6.548  1.7040 -0.2390 -1.5122
  622MOL0     H83930   1.513   1.931   6.567 -0.0806 -3.0086  0.3021
  622MOL0     H83931   1.274   1.975   6.637 -0.0217 -0.3859 -1.1825
  622MOL0     H83932   1.066   1.815   7.159  0.0930  0.6608 -1.3586
  622MOL0     H83933   0.837   1.803   7.217 -1.1638 -0.1525 -0.5970
  622MOL0     H83934   0.678   1.857   7.358  0.7839 -0.1339 -0.2552
  622MOL0     H83935   0.535   1.944   7.385  0.7423 -2.4427  2.0860
  622MOL0     H83936   0.437   1.872   7.142  0.6133 -0.2032 -0.5332
  622MOL0     H83937   0.583   1.761   7.146  3.7079  0.9692  2.9942
  622MOL0     H83938   0.396   1.631   7.219  3.2931 -0.2651 -0.3110
  622MOL0     H83939   0.469   1.683   7.377 -2.2215  0.4600  1.3562
  622MOL0     H83940   0.235   1.832   7.232 -1.3373  3.3573  1.8553
  622MOL0     H83941   0.318   1.865   7.380  2.6236 -1.8011  0.4293
  622MOL0     H83942   0.263   1.610   7.452 -1.7810 -2.3613 -1.0143
  622MOL0     H83943   0.129   1.625   7.340 -0.2847  1.5643 -0.7568
  622MOL0     H83944   0.179   1.824   7.567  2.1950 -0.8041 -1.2969
  622MOL0     H83945   0.037   1.822   7.453 -0.4555 -0.3441 -0.1990
  622MOL0     H83946   0.117   1.619   7.661  0.4249 -0.2770 -0.7581
  622MOL0     H83947  -0.016   1.589   7.547  0.2986 -4.0446  2.8576
  622MOL0     H83948  -0.133   1.785   7.636 -1.5149  0.0981  0.6863
  622MOL0     H83949  -0.113   1.672   7.767  4.7490 -1.7818  2.3987
  622MOL0     H83950   0.749   2.204   7.082  0.7791  2.1664  3.1045
  622MOL0     H83951   0.981   2.220   7.017  1.6450  1.5696  6.1873
  622MOL0     H83952   1.407   2.056   7.035 -6.4445  0.2125 -1.6527
  622MOL0     H83953   1.635   1.979   6.976  1.2303 -2.8109 -1.4562
  622MOL0     H83954   2.119   2.947   6.604  0.7907 -0.3320  0.9805
  622MOL0     H83955   1.869   2.997   6.595  1.1039  0.7711  0.0789
  622MOL0     H83956   1.501   3.019   6.590 -1.5397  2.0072  0.8791
  622MOL0     H83957   1.293   3.082   6.651 -0.6462 -0.4452  0.0651
  622MOL0     H83958   0.914   2.918   6.478 -0.6635 -0.0533  0.1567
  622MOL0     H83959   0.992   3.020   6.354 -0.1185  0.5859  1.3444
  622MOL0     H83960   0.782   3.107   6.411  2.8852 -0.1097 -3.4000
  622MOL0     H83961   0.900   3.216   6.466 -2.2636  0.8487 -0.0126
  622MOL0     H83962   0.781   3.227   6.647  2.6936  0.0723 -1.3343
  622MOL0     H83963   0.865   3.082   6.718  1.5050 -2.2145 -0.9772
  622MOL0     H83964   0.684   2.952   6.593 -1.2900  0.1412  0.0459
  622MOL0     H83965   0.641   3.018   6.751 -1.4137 -1.4122 -1.0582
  622MOL0     H83966   0.374   3.217   6.555  0.1779 -0.7539 -0.3555
  622MOL0     H83967   1.110   2.793   6.386 -0.7205 -0.4837  0.7555
  622MOL0     H83968   1.236   2.617   6.314 -0.5066  1.4258  0.9222
  622MOL0     H83969   1.414   2.631   6.292  1.7447 -1.7204  1.9694
  622MOL0     H83970   1.353   2.574   6.439  2.1366  1.9391  0.9382
  623MOL0     O83971  10.311   2.730  10.733  0.3043  0.3353  0.8762
  623MOL0     C83972  10.220   2.809  10.706  0.0071  0.6211 -0.1839
  623MOL0     O83973  10.235   2.928  10.638 -0.7341 -0.2821 -0.7572
  623MOL0     C83974  10.361   2.966  10.589  1.2932  0.0969 -0.3997
  623MOL0     C83975  10.434   2.886  10.506 -0.1120 -0.8481  0.3186
  623MOL0     C83976  10.561   2.919  10.459  0.1718 -0.5245 -0.5601
  623MOL0     C83977  10.621   3.039  10.508 -0.2736  0.5909 -0.0459
  623MOL0     O83978  10.752   3.079  10.486 -0.2745 -0.2957 -0.8330
  623MOL0     C83979  10.845   2.985  10.431  0.0533  0.4036  0.0860
  623MOL0     C83980  10.985   3.053  10.397  0.4821 -0.4133 -0.4856
  623MOL0     C83981  11.069   2.985  10.291 -0.2560  0.8765 -0.1130
  623MOL0     C83982  11.193   3.072  10.240 -0.1703 -0.3439 -0.5192
  623MOL0     C83983  11.298   2.996  10.165 -1.0363 -0.6163 -0.2991
  623MOL0     C83984  11.377   3.078  10.065  0.1254 -0.1224  0.2185
  623MOL0     C83985  11.491   3.002  10.003 -0.4973  0.0484 -0.2542
  623MOL0     C83986  11.569   3.088   9.898  0.7475 -0.2124  0.0443
  623MOL0     N83987  11.489   3.111   9.774 -0.5563 -1.3050  0.4255
  623MOL0     C83988  11.540   3.073   9.649 -0.5045  0.1474  0.6283
  623MOL0     C83989  11.483   3.153   9.564 -0.3800 -0.2896  0.1996
  623MOL0     C83990  11.528   3.170   9.421  0.7186  0.1687 -0.3399
  623MOL0     C83991  11.445   3.099   9.316 -0.0711 -0.2119  0.1721
  623MOL0     C83992  11.296   3.144   9.319 -0.7292 -0.7044  0.0945
  623MOL0     C83993  11.248   3.286   9.285 -0.2482  0.4945 -1.6550
  623MOL0     O83994  11.318   3.331   9.171 -0.0167 -0.4476 -0.2745
  623MOL0     C83995  11.295   3.465   9.135 -0.3494 -0.5568  0.4456
  623MOL0     C83996  11.340   3.519   9.010  0.6193 -0.1320 -0.1329
  623MOL0     C83997  11.322   3.649   8.968  0.9707  0.9587  0.0670
  623MOL0     C83998  11.231   3.730   9.052  0.6849 -0.0175  0.5101
  623MOL0     C83999  11.191   3.867   9.014 -0.5885 -0.4384  1.1038
  623MOL0     O84000  11.254   3.925   8.903 -0.0439  0.5533  0.2419
  623MOL0     C84001  11.250   4.058   8.868 -0.6290 -0.5000  1.2343
  623MOL0     C84002  11.262   4.159   8.964  0.3801  0.4715 -1.2051
  623MOL0     C84003  11.303   4.287   8.929  0.3748  0.6354 -0.7824
  623MOL0     C84004  11.315   4.327   8.791  0.3194 -0.1178 -0.1443
  623MOL0     O84005  11.355   4.455   8.756  0.5300 -0.7932 -0.3561
  623MOL0     C84006  11.243   4.531   8.701 -0.9179  0.1645  0.2595
  623MOL0     C84007  11.253   4.682   8.747 -1.2719 -0.2065 -0.6139
  623MOL0     C84008  11.120   4.747   8.732  0.5438  0.2796  0.2754
  623MOL0     C84009  11.116   4.895   8.752  0.1493 -0.1892 -0.0723
  623MOL0     C84010  10.970   4.950   8.756 -0.5777 -0.3576 -0.2176
  623MOL0     C84011  10.986   5.108   8.777  0.1053  0.5923 -0.0457
  623MOL0     C84012  10.847   5.179   8.782 -0.4291  0.1192  1.1508
  623MOL0     C84013  10.737   5.104   8.862 -1.4689 -0.3043 -0.4764
  623MOL0    Cl84014  10.587   5.201   8.891 -0.3920 -0.2489  0.2028
  623MOL0     C84015  11.288   4.225   8.698 -0.5812  0.1464 -0.2435
  623MOL0     C84016  11.256   4.091   8.731  0.2483 -0.8278  0.9402
  623MOL0     O84017  11.094   3.914   9.066  0.5327  0.2237  0.6860
  623MOL0     C84018  11.194   3.683   9.172  0.0426  0.0345 -0.2113
  623MOL0     C84019  11.222   3.556   9.215  1.1120  0.0653  0.2577
  623MOL0     N84020  11.408   3.248   9.624  0.2656  0.1017  0.3678
  623MOL0     N84021  11.424   3.230   9.747  0.1551 -0.3384  0.4782
  623MOL0     C84022  10.540   3.128  10.588  0.0708  0.8914 -0.1846
  623MOL0     C84023  10.410   3.091  10.633  0.4868  0.2524 -0.0009
  623MOL0     C84024  10.091   2.773  10.759  0.1595 -0.2500  1.4679
  623MOL0     C84025  10.051   2.636  10.727  0.2906 -0.3722  0.1520
  623MOL0     C84026   9.918   2.596  10.743  0.2933  0.1030  0.6844
  623MOL0     C84027   9.837   2.685  10.813  0.1553 -0.6577  0.2064
  623MOL0     O84028   9.713   2.654  10.850  0.8201  0.5566  0.4734
  623MOL0     C84029   9.696   2.553  10.951  0.0549 -0.0081 -0.7323
  623MOL0     C84030   9.574   2.576  11.047 -1.2399 -0.0016 -0.0987
  623MOL0     C84031   9.484   2.454  11.055 -1.2268 -0.9071  0.0461
  623MOL0     C84032   9.352   2.484  11.141 -0.9489 -0.2290  0.0841
  623MOL0     C84033   9.255   2.370  11.140 -0.1606  0.2241  0.6698
  623MOL0     C84034   9.189   2.271  11.116 -0.2605 -0.0732 -0.4748
  623MOL0     C84035   9.879   2.814  10.848 -1.0998 -1.0868 -1.3165
  623MOL0     C84036  10.003   2.867  10.812 -0.5724 -0.5966  0.0553
  623MOL0     C84037  10.041   3.005  10.849 -1.4224 -0.4537 -0.3596
  623MOL0     H84038  10.390   2.791  10.476  0.0472 -1.5141  2.0797
  623MOL0     H84039  10.621   2.860  10.391  1.5474 -1.0619  1.0199
  623MOL0     H84040  10.870   2.901  10.497  1.5633  0.3560 -0.5206
  623MOL0     H84041  10.790   2.941  10.347 -2.0009 -2.1226  2.5540
  623MOL0     H84042  11.054   3.053  10.482 -0.1681  1.7621  0.1127
  623MOL0     H84043  10.971   3.158  10.369  0.2053 -0.3229 -0.0337
  623MOL0     H84044  11.000   2.952  10.213 -1.0305 -3.9635  2.2807
  623MOL0     H84045  11.102   2.885  10.319  4.1411  1.1839 -3.0643
  623MOL0     H84046  11.149   3.160  10.192 -2.7980 -0.3506  1.6831
  623MOL0     H84047  11.244   3.114  10.327 -0.7354 -0.2730 -0.2248
  623MOL0     H84048  11.360   2.937  10.233 -0.3071 -1.0491 -1.3156
  623MOL0     H84049  11.246   2.923  10.102 -1.0303  0.9581 -2.2344
  623MOL0     H84050  11.305   3.116   9.991 -2.3136  0.4941  2.7089
  623MOL0     H84051  11.414   3.162  10.124  1.4043  0.2761 -1.0922
  623MOL0     H84052  11.455   2.909   9.958  0.2946 -0.2757 -0.2338
  623MOL0     H84053  11.557   2.977  10.087  0.4456  0.5576 -0.8359
  623MOL0     H84054  11.613   3.184   9.928  0.1352 -0.3285  1.3593
  623MOL0     H84055  11.652   3.021   9.876 -0.1439 -0.8971 -1.4500
  623MOL0     H84056  11.616   2.996   9.639 -0.6913 -0.0604  0.8030
  623MOL0     H84057  11.523   3.278   9.403  0.3730  0.4621  1.3372
  623MOL0     H84058  11.634   3.148   9.405  1.0798 -0.8067  2.7457
  623MOL0     H84059  11.476   3.118   9.213  0.2667 -0.0794  0.2965
  623MOL0     H84060  11.461   2.993   9.337 -0.9284 -1.0944 -3.1062
  623MOL0     H84061  11.261   3.130   9.421  0.9211 -3.2388  0.4100
  623MOL0     H84062  11.244   3.071   9.255  0.7453  1.8458 -4.5374
  623MOL0     H84063  11.265   3.341   9.378 -2.3469  1.4675 -1.7947
  623MOL0     H84064  11.140   3.283   9.273 -0.5771  1.6119  0.5678
  623MOL0     H84065  11.392   3.441   8.956 -0.2584  0.3749 -1.7486
  623MOL0     H84066  11.366   3.680   8.873  1.7546  0.8113  0.3723
  623MOL0     H84067  11.250   4.144   9.071 -0.1299  0.5314 -1.2514
  623MOL0     H84068  11.316   4.365   9.003 -2.9292  1.0687 -0.5222
  623MOL0     H84069  11.233   4.523   8.592 -1.3274  3.7006 -0.0872
  623MOL0     H84070  11.154   4.475   8.728 -0.1490 -1.2368 -0.0011
  623MOL0     H84071  11.274   4.696   8.854 -2.9199  0.5876 -0.3537
  623MOL0     H84072  11.332   4.726   8.686  1.9940 -2.9178  1.3470
  623MOL0     H84073  11.080   4.716   8.634  0.0940 -0.0048  0.5412
  623MOL0     H84074  11.051   4.709   8.809  0.0071 -1.2057 -0.8780
  623MOL0     H84075  11.172   4.954   8.679 -1.1399  1.2687  0.0792
  623MOL0     H84076  11.159   4.905   8.852  1.0170 -5.6379  0.4068
  623MOL0     H84077  10.902   4.915   8.835 -1.3645  2.1346  0.2882
  623MOL0     H84078  10.911   4.922   8.669 -0.3518  2.5400 -1.4039
  623MOL0     H84079  11.023   5.118   8.880 -0.8215 -0.4600  0.4069
  623MOL0     H84080  11.048   5.155   8.700 -0.9826  0.2326 -1.1585
  623MOL0     H84081  10.817   5.204   8.680  2.2659  4.4095  1.1833
  623MOL0     H84082  10.854   5.278   8.827 -1.1411  1.7791 -2.1100
  623MOL0     H84083  10.707   5.010   8.814 -1.2098 -0.2588 -0.7274
  623MOL0     H84084  10.768   5.056   8.955 -2.5795  1.8322  1.0874
  623MOL0     H84085  11.298   4.248   8.592  1.0397 -4.1793 -1.2285
  623MOL0     H84086  11.242   4.022   8.648  1.1736  0.4174 -0.2896
  623MOL0     H84087  11.125   3.744   9.230 -1.3379 -1.5962 -0.0598
  623MOL0     H84088  11.190   3.534   9.316  0.1092 -0.0215 -0.0729
  623MOL0     H84089  10.596   3.214  10.622 -1.8996  1.6193  1.4073
  623MOL0     H84090  10.354   3.152  10.703 -0.2307 -3.0869  2.5929
  623MOL0     H84091  10.136   2.579  10.691  0.9083  0.0291  0.9216
  623MOL0     H84092   9.880   2.508  10.691  1.4535  0.6464 -1.1525
  623MOL0     H84093   9.784   2.546  11.016  1.4045  0.4302 -2.4366
  623MOL0     H84094   9.690   2.456  10.900  2.1861 -0.4621 -0.2319
  623MOL0     H84095   9.510   2.664  11.034 -2.9369 -0.1564  4.8798
  623MOL0     H84096   9.622   2.585  11.145  2.2259  0.7928 -1.6957
  623MOL0     H84097   9.539   2.383  11.117  2.3616  0.1959 -1.6355
  623MOL0     H84098   9.453   2.413  10.959 -2.2733  1.2062 -0.5978
  623MOL0     H84099   9.377   2.492  11.247  1.1470  0.6059 -0.4237
  623MOL0     H84100   9.305   2.575  11.103 -1.2676 -0.7418 -0.7906
  623MOL0     H84101   9.135   2.182  11.091  2.1012 -2.1231  1.1689
  623MOL0     H84102   9.820   2.883  10.908  0.1597 -1.0223 -0.1014
  623MOL0     H84103  10.065   3.057  10.755  1.1141 -0.1362  0.3906
  623MOL0     H84104   9.957   3.046  10.904 -0.5401 -1.2318  1.6450
  623MOL0     H84105  10.127   3.008  10.916 -0.1108 -0.6911 -1.9417
  624MOL0     O84106  10.569   1.665  10.050 -0.1961 -0.0138  0.0378
  624MOL0     C84107  10.539   1.698  10.166 -0.1588  0.7784  0.3335
  624MOL0     O84108  10.628   1.733  10.266  0.8606  0.4686 -0.7783
  624MOL0     C84109  10.761   1.702  10.237  0.1657 -0.8113 -0.0606
  624MOL0     C84110  10.796   1.562  10.221  0.2105  0.4516  0.1155
  624MOL0     C84111  10.924   1.521  10.183  1.2461  0.4974 -0.2113
  624MOL0     C84112  11.023   1.623  10.181  0.4316 -0.0310  0.1278
  624MOL0     O84113  11.152   1.579  10.167 -0.6146 -1.1114 -0.2882
  624MOL0     C84114  11.270   1.665  10.162 -0.1312  0.1151 -0.6195
  624MOL0     C84115  11.303   1.724  10.305  0.1525 -0.4413 -0.4477
  624MOL0     C84116  11.358   1.619  10.403  0.0022  0.4145 -0.1917
  624MOL0     C84117  11.255   1.515  10.457  0.1263  0.6935  0.6398
  624MOL0     C84118  11.180   1.566  10.589  0.1131 -0.4373 -0.8508
  624MOL0     C84119  11.276   1.596  10.712 -0.3190  0.5971 -0.1031
  624MOL0     C84120  11.193   1.657  10.816 -0.1678 -0.2103  0.0644
  624MOL0     C84121  11.269   1.705  10.938 -0.2971  0.0942  0.5541
  624MOL0     N84122  11.172   1.762  11.033 -0.2190  0.1668 -0.2223
  624MOL0     C84123  11.109   1.882  11.014 -0.2885  0.5806 -0.2369
  624MOL0     C84124  11.107   1.936  11.136 -0.5635  0.5221  0.1735
  624MOL0     C84125  11.065   2.075  11.174  0.6046  0.0951  0.0306
  624MOL0     C84126  10.922   2.122  11.126  0.4159 -0.3936 -0.0620
  624MOL0     C84127  10.909   2.279  11.156  0.8906  0.5827  0.0643
  624MOL0     C84128  10.876   2.332  11.298  0.4019  0.7477 -0.6132
  624MOL0     O84129  10.824   2.470  11.299 -0.4335  0.1269 -0.6994
  624MOL0     C84130  10.916   2.561  11.351  0.4953 -0.3522 -0.2156
  624MOL0     C84131  11.026   2.589  11.285 -0.2280  0.3488  0.4979
  624MOL0     C84132  11.121   2.684  11.340 -0.8128  0.7927  0.5238
  624MOL0     C84133  11.093   2.757  11.465 -0.3103 -0.8743  0.3338
  624MOL0     C84134  11.192   2.855  11.532 -0.0823 -0.3641  0.2900
  624MOL0     O84135  11.316   2.865  11.468  0.2513 -0.4021  0.9128
  624MOL0     C84136  11.393   2.969  11.504 -0.3373 -0.2873 -0.5959
  624MOL0     C84137  11.523   2.948  11.539  0.1954  0.5175 -0.4584
  624MOL0     C84138  11.609   3.057  11.558 -0.2211  0.0539 -0.1542
  624MOL0     C84139  11.566   3.189  11.532 -0.1612 -0.5728  0.3018
  624MOL0     O84140  11.674   3.284  11.533  0.8443  0.6211  0.0010
  624MOL0     C84141  11.645   3.425  11.564  0.0861 -0.3727  0.1283
  624MOL0     C84142  11.704   3.533  11.466 -0.6365  0.1086  0.4407
  624MOL0     C84143  11.858   3.519  11.462  0.0444  0.3795 -0.7148
  624MOL0     C84144  11.927   3.623  11.380 -0.5835 -0.0418 -0.0782
  624MOL0     C84145  12.083   3.624  11.418 -0.9584  0.5846 -0.4401
  624MOL0     C84146  12.167   3.712  11.329 -0.0221  0.0162 -0.2636
  624MOL0     C84147  12.146   3.860  11.354  0.6894 -0.0882 -0.3924
  624MOL0     C84148  12.271   3.930  11.338 -0.2180 -0.4103  0.4463
  624MOL0    Cl84149  12.364   3.896  11.196 -0.2376  0.5519  0.0143
  624MOL0     C84150  11.431   3.212  11.494 -0.4059  0.3895  0.1227
  624MOL0     C84151  11.347   3.099  11.476 -0.3446 -0.2970 -0.9904
  624MOL0     O84152  11.154   2.918  11.627  0.3811 -0.5494  0.1549
  624MOL0     C84153  10.979   2.720  11.538  0.6736  0.3056 -0.3823
  624MOL0     C84154  10.899   2.614  11.482 -0.3998 -0.3199  0.3574
  624MOL0     N84155  11.146   1.844  11.231 -0.0081  0.1801  0.0936
  624MOL0     N84156  11.189   1.743  11.167  0.1280  0.1376 -0.0054
  624MOL0     C84157  10.981   1.760  10.208 -0.1088 -0.1530  0.6895
  624MOL0     C84158  10.852   1.801  10.242  0.2806  0.5881  0.7022
  624MOL0     C84159  10.396   1.742  10.195 -0.3051 -0.4090 -0.1645
  624MOL0     C84160  10.376   1.799  10.318  0.2918 -0.3232  0.2709
  624MOL0     C84161  10.250   1.850  10.359 -0.5523 -0.2431 -0.8652
  624MOL0     C84162  10.136   1.823  10.279 -0.7294 -0.5396  0.0114
  624MOL0     O84163  10.008   1.869  10.325 -0.3148 -0.7576  0.4299
  624MOL0     C84164   9.894   1.818  10.250 -0.5681  0.5184 -0.7446
  624MOL0     C84165   9.758   1.873  10.317 -0.7075 -0.2971 -0.3447
  624MOL0     C84166   9.731   2.029  10.302 -0.6813  0.3838 -0.2381
  624MOL0     C84167   9.796   2.114  10.414 -0.1689 -0.1488 -0.2079
  624MOL0     C84168   9.784   2.255  10.368  0.4992 -0.1504  0.0996
  624MOL0     C84169   9.784   2.367  10.315  0.1594 -0.2592 -0.6606
  624MOL0     C84170  10.159   1.754  10.157  0.1139 -0.5409 -0.1133
  624MOL0     C84171  10.285   1.716  10.107  0.0684 -0.1964  0.5843
  624MOL0     C84172  10.279   1.651   9.974 -0.2622  0.5583 -0.6083
  624MOL0     H84173  10.720   1.485  10.224  1.2631 -0.9517 -3.6030
  624MOL0     H84174  10.942   1.417  10.156 -1.7745 -0.1286 -0.2257
  624MOL0     H84175  11.350   1.599  10.128 -1.1938 -0.0291 -3.0361
  624MOL0     H84176  11.250   1.749  10.096 -3.4671 -0.9568 -1.1640
  624MOL0     H84177  11.209   1.764  10.343  0.3172 -2.2025  2.0091
  624MOL0     H84178  11.374   1.799  10.269  0.3215 -1.8518 -3.3880
  624MOL0     H84179  11.412   1.657  10.490 -1.4317 -3.9605  2.9359
  624MOL0     H84180  11.443   1.572  10.354  1.3569  0.6389  1.8374
  624MOL0     H84181  11.184   1.484  10.380  1.1908 -3.6574  1.1401
  624MOL0     H84182  11.306   1.420  10.476 -0.3983  0.3375  0.2925
  624MOL0     H84183  11.138   1.662  10.557  1.4025 -0.4345 -2.6914
  624MOL0     H84184  11.097   1.498  10.610 -0.1251  0.4896  1.4902
  624MOL0     H84185  11.314   1.499  10.745 -0.5694 -0.0955 -1.7265
  624MOL0     H84186  11.357   1.666  10.689  1.2152 -1.4002 -1.2020
  624MOL0     H84187  11.126   1.581  10.858  1.4690 -1.0008  1.3604
  624MOL0     H84188  11.146   1.750  10.781  1.0310  0.3626 -0.0622
  624MOL0     H84189  11.328   1.623  10.979  1.1292  1.4796  1.3758
  624MOL0     H84190  11.349   1.779  10.923 -1.1704  0.6826 -1.6541
  624MOL0     H84191  11.068   1.929  10.925 -0.2304  1.1845  0.0511
  624MOL0     H84192  11.071   2.066  11.283  1.8518 -3.8617 -0.2287
  624MOL0     H84193  11.129   2.150  11.126  0.1131  0.9403  0.6568
  624MOL0     H84194  10.898   2.096  11.022 -0.7818  0.3584  0.0027
  624MOL0     H84195  10.845   2.076  11.189 -0.8689  2.6535  0.7722
  624MOL0     H84196  10.818   2.318  11.109 -0.5247  1.3756  3.1900
  624MOL0     H84197  10.992   2.330  11.106  0.6325 -1.8841 -3.2463
  624MOL0     H84198  10.956   2.323  11.371  1.0628  4.3438 -0.6801
  624MOL0     H84199  10.796   2.265  11.330  0.2876  0.9450 -0.4780
  624MOL0     H84200  11.039   2.535  11.192 -1.4981 -0.5271  0.8097
  624MOL0     H84201  11.214   2.690  11.285 -1.5893  0.0613 -0.9453
  624MOL0     H84202  11.564   2.849  11.556 -1.6129 -0.5087 -1.7791
  624MOL0     H84203  11.714   3.031  11.573  0.1531  0.3275 -2.0207
  624MOL0     H84204  11.537   3.441  11.576  0.1634 -0.7308  1.3998
  624MOL0     H84205  11.685   3.450  11.662 -2.3479  0.1164  1.0797
  624MOL0     H84206  11.658   3.512  11.369 -1.0123 -1.5701  0.9468
  624MOL0     H84207  11.665   3.632  11.489 -2.2598 -0.4009  0.0509
  624MOL0     H84208  11.883   3.550  11.564 -2.2002  1.3814 -0.4079
  624MOL0     H84209  11.901   3.422  11.434  0.9026  0.8974 -1.2463
  624MOL0     H84210  11.901   3.726  11.406 -0.4703  0.5526 -2.1369
  624MOL0     H84211  11.907   3.614  11.273  2.1667  2.4027 -0.9575
  624MOL0     H84212  12.121   3.521  11.409 -0.6108  0.4581  1.7304
  624MOL0     H84213  12.092   3.648  11.525 -0.0206  1.7479 -0.7644
  624MOL0     H84214  12.273   3.691  11.347 -0.5678 -0.0433  3.9695
  624MOL0     H84215  12.132   3.695  11.227 -2.4322 -0.7831  0.6228
  624MOL0     H84216  12.121   3.875  11.459 -0.6666 -1.2273 -0.5161
  624MOL0     H84217  12.060   3.889  11.292  0.2090 -2.1721 -0.7887
  624MOL0     H84218  12.257   4.038  11.347 -0.0759 -0.1780 -1.6448
  624MOL0     H84219  12.323   3.898  11.429  1.7177 -0.4142 -0.6224
  624MOL0     H84220  11.390   3.310  11.474 -2.8035 -0.5229  0.2235
  624MOL0     H84221  11.244   3.122  11.448  0.0184  1.1522 -1.2113
  624MOL0     H84222  10.967   2.765  11.637  1.3064 -0.5166  0.0806
  624MOL0     H84223  10.813   2.580  11.540 -0.1669  2.3393  2.5065
  624MOL0     H84224  11.059   1.833  10.227 -0.9817  0.3345  2.6581
  624MOL0     H84225  10.813   1.899  10.270  0.0137  0.3793  1.0579
  624MOL0     H84226  10.460   1.822  10.383  0.5101 -1.7111  0.5071
  624MOL0     H84227  10.250   1.908  10.450 -0.5193  1.4160 -1.8708
  624MOL0     H84228   9.898   1.709  10.259  2.2584  0.4078 -2.1043
  624MOL0     H84229   9.899   1.839  10.143 -1.6574  1.3290 -0.6463
  624MOL0     H84230   9.753   1.841  10.422 -1.0989  1.4493  0.2027
  624MOL0     H84231   9.675   1.820  10.269 -0.3904 -0.1221 -1.0964
  624MOL0     H84232   9.624   2.048  10.319 -0.2046  3.1768  0.1256
  624MOL0     H84233   9.761   2.060  10.202  0.6687 -0.0188  0.0219
  624MOL0     H84234   9.739   2.111  10.507 -1.9220  0.2117 -1.2238
  624MOL0     H84235   9.897   2.077  10.433 -0.1182 -0.7368 -1.5232
  624MOL0     H84236   9.797   2.462  10.267  1.0566  1.4302  2.6198
  624MOL0     H84237  10.072   1.733  10.095 -2.9369 -0.8425  3.8212
  624MOL0     H84238  10.330   1.554   9.970 -0.6320  0.3986 -2.8403
  624MOL0     H84239  10.177   1.632   9.940 -0.9495 -0.2752  1.7592
  624MOL0     H84240  10.346   1.705   9.906  2.2458  0.5923  1.6954
  625MOL0     O84241   9.801   3.917   8.853  0.1921  0.1167 -0.8225
  625MOL0     C84242   9.788   3.861   8.959 -0.4408 -0.7929 -0.3002
  625MOL0     O84243   9.674   3.868   9.028  0.4622  0.3516 -0.2322
  625MOL0     C84244   9.577   3.956   8.996  1.2281 -0.9029  0.3129
  625MOL0     C84245   9.456   3.921   8.935 -0.4714  0.0044  0.4790
  625MOL0     C84246   9.355   4.016   8.906 -0.1017 -0.4848  0.1314
  625MOL0     C84247   9.379   4.150   8.932 -1.5005  0.5035 -0.2068
  625MOL0     O84248   9.290   4.243   8.899 -1.3264  0.4096 -0.4283
  625MOL0     C84249   9.254   4.264   8.767 -0.0861  0.7651  0.4354
  625MOL0     C84250   9.326   4.393   8.713  1.0796  0.3882 -0.3340
  625MOL0     C84251   9.340   4.385   8.564 -0.1866 -1.1899 -0.0013
  625MOL0     C84252   9.434   4.492   8.503 -0.4272 -0.1607 -0.0502
  625MOL0     C84253   9.371   4.633   8.504  0.1119  0.3437  0.8901
  625MOL0     C84254   9.445   4.741   8.430  0.5573  0.0700  0.8516
  625MOL0     C84255   9.421   4.720   8.277  0.3853 -0.0664 -0.1898
  625MOL0     C84256   9.500   4.819   8.189  0.0738 -0.1114 -0.2023
  625MOL0     N84257   9.647   4.800   8.217  0.4361 -0.4992  0.6239
  625MOL0     C84258   9.715   4.682   8.194  0.3078  0.1356 -0.8719
  625MOL0     C84259   9.830   4.691   8.266  0.1239 -0.1553 -0.5752
  625MOL0     C84260   9.938   4.584   8.276  1.2488 -0.1723 -1.1031
  625MOL0     C84261  10.037   4.619   8.377  0.7075 -0.1737 -0.2630
  625MOL0     C84262  10.144   4.509   8.387 -0.3398 -0.7725  0.3702
  625MOL0     C84263  10.100   4.365   8.404  0.1979  0.1269  0.0913
  625MOL0     O84264  10.214   4.294   8.455 -0.0372  0.7582  0.4901
  625MOL0     C84265  10.197   4.154   8.478 -0.9512 -0.3173 -1.2544
  625MOL0     C84266  10.094   4.089   8.535 -0.3320 -0.4798  0.2282
  625MOL0     C84267  10.099   3.949   8.543  0.2622 -0.6434 -0.5501
  625MOL0     C84268  10.217   3.877   8.517 -0.4873 -0.5959  0.5959
  625MOL0     C84269  10.223   3.730   8.537 -0.5177 -0.7683  0.9083
  625MOL0     O84270  10.347   3.677   8.537 -0.0649  0.6139  0.2788
  625MOL0     C84271  10.378   3.553   8.594  0.2396  0.4739  0.0713
  625MOL0     C84272  10.508   3.552   8.644  0.3050  0.4265  0.2476
  625MOL0     C84273  10.572   3.437   8.677  0.2033 -0.6515 -0.8130
  625MOL0     C84274  10.496   3.318   8.665 -0.7871 -0.0938  0.0219
  625MOL0     O84275  10.544   3.196   8.685 -0.3303 -0.0406  0.2700
  625MOL0     C84276  10.668   3.191   8.756 -0.5208  1.0222 -0.1764
  625MOL0     C84277  10.682   3.047   8.807  0.1088 -0.0764  0.5565
  625MOL0     C84278  10.810   3.048   8.896 -0.4117  0.3067  0.0718
  625MOL0     C84279  10.820   2.915   8.972  0.0868  0.2637  0.0248
  625MOL0     C84280  10.942   2.906   9.063 -1.0814 -0.1047  0.1882
  625MOL0     C84281  11.066   2.882   8.975 -0.0796 -0.7679 -0.1055
  625MOL0     C84282  11.195   2.832   9.044  0.4000 -0.2885 -0.4616
  625MOL0     C84283  11.165   2.698   9.112 -0.4500 -0.9639 -0.7185
  625MOL0    Cl84284  11.318   2.607   9.112 -0.0144 -0.0508  0.4000
  625MOL0     C84285  10.363   3.325   8.635 -0.5786 -0.4951  0.8085
  625MOL0     C84286  10.300   3.441   8.602 -0.1411 -0.7618 -0.5345
  625MOL0     O84287  10.114   3.667   8.556 -0.3799  0.0265 -0.1985
  625MOL0     C84288  10.324   3.948   8.463  0.1738 -0.0440 -0.7234
  625MOL0     C84289  10.310   4.086   8.438 -0.0140  0.6221  0.3239
  625MOL0     N84290   9.836   4.818   8.323 -0.8086  0.7464  0.2178
  625MOL0     N84291   9.733   4.876   8.291  0.3686 -0.4983  0.5183
  625MOL0     C84292   9.503   4.186   8.992 -0.0971 -0.2005  0.3790
  625MOL0     C84293   9.598   4.091   9.033  0.1942  0.6315  0.2152
  625MOL0     C84294   9.885   3.752   8.985  0.7682 -0.6919 -0.1347
  625MOL0     C84295   9.953   3.709   8.872  0.5238  0.8787 -0.3415
  625MOL0     C84296  10.046   3.597   8.878 -0.3837 -0.4137 -0.1604
  625MOL0     C84297  10.068   3.534   9.007  0.2841 -0.7787  0.0602
  625MOL0     O84298  10.158   3.441   9.049 -0.4995  1.0444  0.5447
  625MOL0     C84299  10.245   3.400   8.944  0.2539  0.0974 -0.4100
  625MOL0     C84300  10.357   3.308   9.000 -0.0007 -1.1126  0.3433
  625MOL0     C84301  10.294   3.192   9.075  0.3485 -0.7049  0.6300
  625MOL0     C84302  10.396   3.088   9.114 -0.0525 -0.8656  0.3646
  625MOL0     C84303  10.345   2.976   9.191 -0.8099 -0.3496 -0.4246
  625MOL0     C84304  10.309   2.877   9.248  0.0525  1.0161 -0.4163
  625MOL0     C84305   9.997   3.582   9.120 -0.4160  0.0421  0.3137
  625MOL0     C84306   9.905   3.690   9.112  0.1331  0.2215  0.1493
  625MOL0     C84307   9.838   3.738   9.240  0.1411 -0.7180 -0.1298
  625MOL0     H84308   9.443   3.817   8.906  1.6277  0.4146 -2.3628
  625MOL0     H84309   9.263   3.991   8.855  0.0986 -3.2111  0.9807
  625MOL0     H84310   9.280   4.179   8.704  1.6699  1.9686 -0.5718
  625MOL0     H84311   9.146   4.281   8.767 -0.3119 -0.5297 -1.0679
  625MOL0     H84312   9.427   4.407   8.751  1.1350 -1.5334  0.3500
  625MOL0     H84313   9.259   4.477   8.733  1.6989  0.6171  0.8862
  625MOL0     H84314   9.245   4.385   8.510 -0.7825 -2.3997  0.9897
  625MOL0     H84315   9.369   4.285   8.529 -0.8357 -0.7935 -1.7614
  625MOL0     H84316   9.528   4.493   8.558  1.3385 -0.2077 -2.8730
  625MOL0     H84317   9.464   4.462   8.402  2.5682 -3.5253  1.6177
  625MOL0     H84318   9.268   4.630   8.466  1.2130  1.2360 -2.5345
  625MOL0     H84319   9.353   4.656   8.609  1.6830 -0.7368  1.4387
  625MOL0     H84320   9.416   4.843   8.459  2.7241 -0.1824  4.5063
  625MOL0     H84321   9.552   4.729   8.446  0.8527 -1.5345 -1.8061
  625MOL0     H84322   9.313   4.724   8.259  0.2962 -0.9419  0.1003
  625MOL0     H84323   9.454   4.620   8.248 -0.0376  0.7812 -4.1437
  625MOL0     H84324   9.476   4.801   8.084  2.7158 -3.0727 -0.4410
  625MOL0     H84325   9.471   4.921   8.217 -1.1629 -0.9794  1.9580
  625MOL0     H84326   9.692   4.604   8.123 -0.6268  0.0848 -0.5242
  625MOL0     H84327   9.891   4.490   8.307 -0.1772 -0.2513 -3.2175
  625MOL0     H84328   9.994   4.581   8.182 -1.5739  0.5104 -2.9500
  625MOL0     H84329  10.084   4.711   8.344 -0.6799  0.8545  0.5246
  625MOL0     H84330  10.001   4.643   8.478  1.7069 -1.9973  0.5972
  625MOL0     H84331  10.211   4.522   8.473  1.3906  1.3648 -1.1996
  625MOL0     H84332  10.217   4.523   8.307 -0.3250 -0.4646  0.4359
  625MOL0     H84333  10.060   4.327   8.309  0.2129 -0.2805  0.2437
  625MOL0     H84334  10.015   4.362   8.473  0.8249  1.1038  0.9326
  625MOL0     H84335  10.014   4.159   8.560  0.7146  0.9109 -0.2107
  625MOL0     H84336  10.011   3.891   8.572 -0.6168 -0.3020 -2.3908
  625MOL0     H84337  10.563   3.645   8.647 -0.9000  1.2381 -1.2850
  625MOL0     H84338  10.676   3.438   8.708  0.2536 -2.3473 -0.8558
  625MOL0     H84339  10.751   3.205   8.686  0.0190 -1.8876 -0.2632
  625MOL0     H84340  10.659   3.261   8.840 -2.3258 -1.9054  2.3132
  625MOL0     H84341  10.593   3.011   8.858 -1.5175  2.6122 -0.1941
  625MOL0     H84342  10.705   2.986   8.720 -2.1655  0.3441 -0.3915
  625MOL0     H84343  10.897   3.080   8.839 -1.1289 -1.4534 -2.1600
  625MOL0     H84344  10.795   3.125   8.972  1.1663  1.7138 -0.9732
  625MOL0     H84345  10.832   2.837   8.897 -0.5272  1.4091 -1.3158
  625MOL0     H84346  10.726   2.887   9.020 -0.7093  0.8499 -1.1330
  625MOL0     H84347  10.937   2.825   9.137  2.3785  0.7351  1.5216
  625MOL0     H84348  10.950   2.988   9.134 -2.4489 -0.4087  0.7351
  625MOL0     H84349  11.045   2.807   8.898 -0.9933 -0.7747  0.1343
  625MOL0     H84350  11.097   2.978   8.931 -0.6088 -1.3462 -1.8075
  625MOL0     H84351  11.240   2.910   9.107 -4.4648 -0.1017  3.4096
  625MOL0     H84352  11.266   2.811   8.964  2.3952  2.2024  0.4922
  625MOL0     H84353  11.118   2.715   9.209 -0.6135  1.2390 -1.1363
  625MOL0     H84354  11.085   2.649   9.057 -2.2891 -0.3147  1.2639
  625MOL0     H84355  10.303   3.236   8.621  0.9271 -1.2122 -1.7750
  625MOL0     H84356  10.195   3.436   8.575 -0.3176 -2.6327  0.3452
  625MOL0     H84357  10.421   3.906   8.442  0.7926  0.4960  0.8678
  625MOL0     H84358  10.395   4.137   8.394 -0.1547 -0.1078 -0.8055
  625MOL0     H84359   9.528   4.291   8.994 -0.4014 -0.1141 -0.2102
  625MOL0     H84360   9.686   4.121   9.088 -0.4007  0.6644  1.1616
  625MOL0     H84361   9.940   3.750   8.772  2.7887  3.3323  0.2522
  625MOL0     H84362  10.101   3.554   8.794  2.6375  2.5382  0.0901
  625MOL0     H84363  10.288   3.494   8.907 -0.9394  0.4211 -1.0361
  625MOL0     H84364  10.184   3.363   8.862 -0.4198  1.8344 -0.7504
  625MOL0     H84365  10.426   3.368   9.059  1.0876 -2.4693  0.5228
  625MOL0     H84366  10.416   3.268   8.917  0.2383  0.5040 -0.2865
  625MOL0     H84367  10.221   3.146   9.008  1.3274 -0.0293 -0.9781
  625MOL0     H84368  10.239   3.226   9.164  3.1190  1.7503  1.5703
  625MOL0     H84369  10.447   3.051   9.025 -1.5425 -1.1289 -0.4190
  625MOL0     H84370  10.476   3.143   9.165  2.3218  3.2070 -6.3572
  625MOL0     H84371  10.284   2.791   9.307 -0.7484  0.4575 -1.5362
  625MOL0     H84372  10.010   3.529   9.214 -2.6048 -2.3888 -0.6525
  625MOL0     H84373   9.822   3.847   9.239 -0.4742 -0.7903  0.7166
  625MOL0     H84374   9.745   3.687   9.266 -0.5756 -0.0471 -1.2358
  625MOL0     H84375   9.908   3.726   9.323  0.7411  3.0344  0.1106
  626MOL0     O84376   4.035   7.631   1.794  0.3422 -0.4625 -0.1754
  626MOL0     C84377   4.022   7.751   1.783 -0.1667  0.3268 -0.5590
  626MOL0     O84378   3.912   7.818   1.751 -0.3052 -0.9829 -0.7696
  626MOL0     C84379   3.792   7.759   1.729 -1.5271 -0.2174  0.3022
  626MOL0     C84380   3.701   7.821   1.642  0.0268 -0.4861 -0.1582
  626MOL0     C84381   3.578   7.764   1.602  0.1846  0.1141 -0.8134
  626MOL0     C84382   3.533   7.646   1.655  0.3176  0.9167  0.4516
  626MOL0     O84383   3.414   7.600   1.607 -0.3143 -0.2598 -0.0287
  626MOL0     C84384   3.325   7.550   1.706 -0.1190 -0.1528 -0.6126
  626MOL0     C84385   3.315   7.398   1.714  0.4201  0.4113  0.0646
  626MOL0     C84386   3.297   7.356   1.868  0.5140  0.5274 -0.5734
  626MOL0     C84387   3.152   7.366   1.906  0.4341  0.9669 -0.2692
  626MOL0     C84388   3.132   7.298   2.043 -0.3458  0.3203 -0.1537
  626MOL0     C84389   2.989   7.281   2.072  0.2284 -0.2319  0.6408
  626MOL0     C84390   2.973   7.246   2.220 -0.3100 -0.0020  0.5118
  626MOL0     C84391   2.826   7.233   2.271 -0.2347  0.0965 -0.5505
  626MOL0     N84392   2.741   7.346   2.222 -0.4048  0.6495 -0.5646
  626MOL0     C84393   2.761   7.479   2.267 -0.9029  0.6770  0.1736
  626MOL0     C84394   2.697   7.553   2.175  0.5206  0.7621 -0.3772
  626MOL0     C84395   2.669   7.702   2.184 -0.7146  0.4219 -0.6516
  626MOL0     C84396   2.556   7.729   2.276  0.2847  0.1753  0.7907
  626MOL0     C84397   2.555   7.865   2.332 -0.3157 -0.1008 -0.4089
  626MOL0     C84398   2.516   7.984   2.241  0.8416 -0.0872 -0.9231
  626MOL0     O84399   2.605   8.013   2.129  0.0546 -0.5780  0.4070
  626MOL0     C84400   2.579   8.133   2.059 -0.1359 -0.1007 -0.8416
  626MOL0     C84401   2.467   8.211   2.078  0.1963 -0.7426 -0.0193
  626MOL0     C84402   2.454   8.337   2.007 -0.1721  0.1257  0.2280
  626MOL0     C84403   2.567   8.386   1.933  0.5867  0.1849  0.3775
  626MOL0     C84404   2.557   8.500   1.857 -0.6553 -0.1671 -0.4897
  626MOL0     O84405   2.660   8.524   1.754 -0.2444 -0.3159 -1.0631
  626MOL0     C84406   2.664   8.646   1.693  0.2557 -0.0103 -0.5401
  626MOL0     C84407   2.593   8.663   1.568 -0.0611 -0.9324 -1.2364
  626MOL0     C84408   2.610   8.785   1.496  0.3802  0.6755  0.3962
  626MOL0     C84409   2.670   8.889   1.556 -0.7462  0.4846  0.9165
  626MOL0     O84410   2.679   9.008   1.490  0.8570  0.0031 -0.4208
  626MOL0     C84411   2.812   9.055   1.473 -0.1143  0.4177 -0.5606
  626MOL0     C84412   2.813   9.158   1.361 -0.4747  0.0405  0.2559
  626MOL0     C84413   2.947   9.209   1.313  0.6699  0.5433 -0.1025
  626MOL0     C84414   2.936   9.329   1.214 -0.3207  0.0755  0.3111
  626MOL0     C84415   2.873   9.290   1.073 -0.9082 -1.1791  0.9676
  626MOL0     C84416   2.890   9.403   0.975  0.2522  0.3510  0.9263
  626MOL0     C84417   2.812   9.355   0.850  0.3619  0.3842  0.1989
  626MOL0     C84418   2.666   9.400   0.848 -0.0866 -0.4393 -0.3112
  626MOL0    Cl84419   2.588   9.334   0.704  0.4485 -0.1149  0.0734
  626MOL0     C84420   2.727   8.870   1.683  0.0082 -0.8462  0.6629
  626MOL0     C84421   2.729   8.752   1.748  0.3010 -0.1613 -0.9360
  626MOL0     O84422   2.468   8.574   1.880  0.3037  0.2454 -0.6915
  626MOL0     C84423   2.681   8.307   1.922  0.2540 -0.7305  0.0254
  626MOL0     C84424   2.684   8.179   1.982  0.6353  0.7463  0.1426
  626MOL0     N84425   2.644   7.476   2.077  0.2685 -0.0162  0.3678
  626MOL0     N84426   2.659   7.352   2.111 -0.3151 -0.8426  0.0778
  626MOL0     C84427   3.615   7.585   1.752 -0.7357 -0.0215 -0.6643
  626MOL0     C84428   3.743   7.640   1.785  0.7109  0.4763  0.4987
  626MOL0     C84429   4.139   7.833   1.830 -0.9990  0.0311  0.2199
  626MOL0     C84430   4.147   7.966   1.772 -1.0185  0.7037 -0.2481
  626MOL0     C84431   4.261   8.042   1.785  0.0522  0.6643 -0.0258
  626MOL0     C84432   4.370   8.005   1.867  0.1126 -0.2933  0.5104
  626MOL0     O84433   4.487   8.087   1.894 -0.2792 -0.2007 -0.1095
  626MOL0     C84434   4.486   8.211   1.820  0.5886 -0.5567 -0.1432
  626MOL0     C84435   4.625   8.284   1.838 -0.0387  0.8229 -0.0338
  626MOL0     C84436   4.636   8.387   1.736 -0.1574 -0.3879  0.4337
  626MOL0     C84437   4.752   8.487   1.764 -0.3411  0.5277 -0.7082
  626MOL0     C84438   4.777   8.586   1.665  0.0882 -0.1509  0.3533
  626MOL0     C84439   4.830   8.641   1.568 -0.1375 -0.3397  0.0836
  626MOL0     C84440   4.352   7.887   1.939  0.5728 -0.0819  0.6530
  626MOL0     C84441   4.245   7.791   1.912 -0.6665 -0.1649  0.3112
  626MOL0     C84442   4.250   7.664   1.996  0.0452  0.0238  0.2067
  626MOL0     H84443   3.728   7.922   1.612 -1.1269 -0.3426 -0.7606
  626MOL0     H84444   3.508   7.832   1.555 -1.1869  1.3219  2.6329
  626MOL0     H84445   3.349   7.590   1.805  0.4654  0.7962 -1.1183
  626MOL0     H84446   3.225   7.582   1.677 -0.6737  0.3916  1.6819
  626MOL0     H84447   3.400   7.352   1.663 -0.8092  0.4031 -2.1103
  626MOL0     H84448   3.242   7.356   1.644  1.7199 -2.8138  0.4994
  626MOL0     H84449   3.360   7.411   1.938  0.7636  1.7038 -1.6831
  626MOL0     H84450   3.318   7.249   1.862  2.4936  0.8113  0.4577
  626MOL0     H84451   3.130   7.472   1.924 -0.7020  0.3831  2.1558
  626MOL0     H84452   3.092   7.317   1.830  0.7304  1.0471 -0.5555
  626MOL0     H84453   3.166   7.194   2.044 -0.6815  0.1974 -0.8879
  626MOL0     H84454   3.178   7.361   2.119  0.2557 -0.0231 -0.2296
  626MOL0     H84455   2.944   7.381   2.063  2.0485  0.6477  0.8531
  626MOL0     H84456   2.933   7.201   2.022 -1.2504  1.3292 -0.3289
  626MOL0     H84457   3.021   7.330   2.272 -0.4494  0.4455 -0.0724
  626MOL0     H84458   3.024   7.152   2.244  0.1823  0.0076 -0.4773
  626MOL0     H84459   2.777   7.142   2.236  2.0457 -1.7485  0.7819
  626MOL0     H84460   2.826   7.229   2.381 -2.1104  0.5123 -0.4923
  626MOL0     H84461   2.816   7.515   2.353 -0.1390 -2.0153  0.9029
  626MOL0     H84462   2.755   7.764   2.213  0.1258 -0.7968 -0.4780
  626MOL0     H84463   2.644   7.714   2.078  3.4858 -5.3003 -2.8017
  626MOL0     H84464   2.471   7.700   2.214 -0.3150  1.5642  0.9207
  626MOL0     H84465   2.571   7.664   2.362  1.6256 -1.5305 -0.6385
  626MOL0     H84466   2.660   7.876   2.360 -0.0374  0.4210 -1.5858
  626MOL0     H84467   2.488   7.861   2.418  0.5651 -1.3984  0.2430
  626MOL0     H84468   2.504   8.074   2.302 -0.2011 -0.0447 -1.1625
  626MOL0     H84469   2.413   7.962   2.209 -0.5266  1.1800  2.1844
  626MOL0     H84470   2.381   8.187   2.138  0.6824 -1.4282  0.4056
  626MOL0     H84471   2.357   8.385   2.018 -0.1854  0.0276  0.5460
  626MOL0     H84472   2.546   8.573   1.527  0.6437 -2.7962  1.7415
  626MOL0     H84473   2.564   8.815   1.403  1.6865  2.2473  0.2118
  626MOL0     H84474   2.848   9.112   1.559  1.8977  2.0439 -2.3504
  626MOL0     H84475   2.879   8.971   1.450 -2.2322 -2.0627  1.7330
  626MOL0     H84476   2.755   9.117   1.277 -1.3089  0.4871  0.6089
  626MOL0     H84477   2.757   9.246   1.393 -1.9235 -0.9230  0.4908
  626MOL0     H84478   3.007   9.243   1.398 -0.7492  2.7233  0.1252
  626MOL0     H84479   3.012   9.131   1.271  2.4799  2.7512 -1.6164
  626MOL0     H84480   3.037   9.367   1.197  1.1491 -3.9817 -1.2806
  626MOL0     H84481   2.891   9.422   1.250  0.4736  1.5295 -2.1629
  626MOL0     H84482   2.766   9.267   1.075 -2.0859  3.1889 -0.0976
  626MOL0     H84483   2.931   9.205   1.036  2.0966  0.7113  0.9784
  626MOL0     H84484   2.850   9.499   1.009 -0.4253  0.4402 -0.0753
  626MOL0     H84485   2.994   9.427   0.949  0.6476 -0.2315  1.8987
  626MOL0     H84486   2.816   9.248   0.827  3.7975  0.0934  1.4686
  626MOL0     H84487   2.851   9.412   0.766 -2.6535  0.2283 -1.4415
  626MOL0     H84488   2.613   9.372   0.939 -2.0332 -1.7312 -1.7665
  626MOL0     H84489   2.668   9.509   0.850  2.5218 -0.4209 -0.2592
  626MOL0     H84490   2.791   8.946   1.726  0.5422 -1.6331  1.2872
  626MOL0     H84491   2.792   8.746   1.837  0.7584 -0.3112 -1.2641
  626MOL0     H84492   2.772   8.338   1.871 -0.6771 -0.9294 -1.8416
  626MOL0     H84493   2.769   8.114   1.966 -0.9058 -2.4187  3.3710
  626MOL0     H84494   3.576   7.499   1.805 -0.4962  0.9497  1.1661
  626MOL0     H84495   3.797   7.585   1.862  0.1633  0.7495  1.0886
  626MOL0     H84496   4.068   8.000   1.706 -2.6311  1.3501  1.8660
  626MOL0     H84497   4.260   8.137   1.732 -0.3497  1.3504  1.1796
  626MOL0     H84498   4.414   8.289   1.845  0.9877  0.0315 -0.8028
  626MOL0     H84499   4.472   8.189   1.714 -1.0633  0.1357 -0.0900
  626MOL0     H84500   4.700   8.209   1.812 -1.7494 -0.6853 -0.8723
  626MOL0     H84501   4.628   8.324   1.940 -2.2527 -0.0301  0.4182
  626MOL0     H84502   4.544   8.446   1.743  0.8326  1.0946  1.8605
  626MOL0     H84503   4.654   8.341   1.638  1.6567 -0.9839  1.0028
  626MOL0     H84504   4.735   8.546   1.854  2.7104  0.1563  0.2235
  626MOL0     H84505   4.844   8.427   1.766 -0.6466  0.0559 -0.6754
  626MOL0     H84506   4.871   8.688   1.481  0.8733  0.6670  1.0764
  626MOL0     H84507   4.428   7.855   2.009 -1.2206  1.5334  3.5439
  626MOL0     H84508   4.317   7.667   2.082 -1.6112  2.8373  1.5319
  626MOL0     H84509   4.151   7.655   2.041 -1.6098  0.1586 -3.0775
  626MOL0     H84510   4.280   7.578   1.935 -1.6250  0.3143 -1.0978
  627MOL0     O84511  11.236  10.787   3.949  1.1708 -0.2010  0.4108
  627MOL0     C84512  11.333  10.738   3.894 -0.4329  0.8778 -0.1057
  627MOL0     O84513  11.414  10.636   3.944  0.0639 -0.4114 -0.0982
  627MOL0     C84514  11.426  10.597   4.073  0.1700  0.3061  0.2347
  627MOL0     C84515  11.559  10.578   4.120 -0.4271  0.3164 -0.4288
  627MOL0     C84516  11.573  10.540   4.258 -0.4413  0.4295  0.3736
  627MOL0     C84517  11.465  10.508   4.345  0.2200  0.2858 -0.2017
  627MOL0     O84518  11.488  10.462   4.471 -0.4194 -0.8177 -0.6245
  627MOL0     C84519  11.409  10.524   4.578 -0.0701 -0.1062  0.1032
  627MOL0     C84520  11.443  10.458   4.712 -0.8472  0.5655  0.4178
  627MOL0     C84521  11.578  10.519   4.758 -0.4258 -0.2484 -0.2280
  627MOL0     C84522  11.628  10.468   4.888 -0.5133 -0.6776 -0.3231
  627MOL0     C84523  11.766  10.528   4.931 -0.4875  0.1817  0.2352
  627MOL0     C84524  11.748  10.673   4.977  0.3278  0.0204  0.2394
  627MOL0     C84525  11.888  10.748   5.012 -0.6425 -0.2524  0.0642
  627MOL0     C84526  11.981  10.672   5.111 -0.7071  0.5844  0.1886
  627MOL0     N84527  11.910  10.666   5.244 -0.4434  0.4283  0.4201
  627MOL0     C84528  11.836  10.566   5.300 -0.5764 -0.1304 -0.6860
  627MOL0     C84529  11.770  10.622   5.399  0.2396 -0.2069 -0.3791
  627MOL0     C84530  11.682  10.546   5.493  0.3275 -1.0120 -0.9405
  627MOL0     C84531  11.539  10.550   5.472  0.0156 -0.2929 -0.5163
  627MOL0     C84532  11.489  10.506   5.335 -0.3540  0.2337 -0.0114
  627MOL0     C84533  11.345  10.545   5.322  0.5739 -0.7686  0.4516
  627MOL0     O84534  11.294  10.456   5.226 -0.2274 -0.4015  0.3303
  627MOL0     C84535  11.220  10.355   5.276 -0.7854 -0.2249  0.3229
  627MOL0     C84536  11.096  10.332   5.227  0.8250  0.2183 -0.7844
  627MOL0     C84537  11.013  10.232   5.267  0.8580  0.7496 -0.6250
  627MOL0     C84538  11.050  10.140   5.366  0.5080 -0.6152  0.6701
  627MOL0     C84539  10.950  10.039   5.410  0.3676  0.1281 -0.0505
  627MOL0     O84540  10.818  10.043   5.362 -0.1344 -0.0514  0.2874
  627MOL0     C84541  10.732   9.941   5.397  0.3168  0.3369 -0.4091
  627MOL0     C84542  10.668   9.861   5.307  0.6187 -0.9960  0.9315
  627MOL0     C84543  10.587   9.748   5.347 -0.8245  0.3212  0.1136
  627MOL0     C84544  10.571   9.730   5.481  0.7004 -0.1841 -0.4533
  627MOL0     O84545  10.480   9.634   5.527  0.0588  0.2419 -0.1993
  627MOL0     C84546  10.432   9.635   5.665 -0.3878 -0.5325 -0.3061
  627MOL0     C84547  10.308   9.557   5.678 -0.1342 -0.2286  0.0761
  627MOL0     C84548  10.344   9.414   5.645 -1.0881  0.3449 -0.0314
  627MOL0     C84549  10.221   9.329   5.673  0.0787 -0.1722  0.0435
  627MOL0     C84550  10.208   9.196   5.602  0.0056 -0.5941  1.3233
  627MOL0     C84551  10.090   9.124   5.653 -0.1345  0.9245  0.0334
  627MOL0     C84552  10.060   9.010   5.561  0.7288  0.7956  0.5841
  627MOL0     C84553   9.983   8.903   5.628 -0.2874 -0.4271 -0.5033
  627MOL0    Cl84554  10.061   8.855   5.785  0.4806 -0.0839 -0.3038
  627MOL0     C84555  10.626   9.815   5.570  0.5658 -0.1703  0.2282
  627MOL0     C84556  10.708   9.914   5.524 -0.6736  0.2195  0.4173
  627MOL0     O84557  10.993   9.958   5.483 -0.7912 -0.4373  0.0245
  627MOL0     C84558  11.184  10.164   5.419 -0.0612 -0.5876 -0.3387
  627MOL0     C84559  11.274  10.262   5.368  1.2297 -0.8335  0.8351
  627MOL0     N84560  11.796  10.757   5.403 -0.2910  0.4567 -0.7742
  627MOL0     N84561  11.882  10.779   5.311  0.3925 -0.0917  0.3344
  627MOL0     C84562  11.338  10.530   4.289  0.3003  0.1925  0.4957
  627MOL0     C84563  11.321  10.567   4.156  0.6024 -0.5736 -1.0942
  627MOL0     C84564  11.362  10.781   3.759  0.2792  0.1306  0.2335
  627MOL0     C84565  11.480  10.858   3.731  0.1296 -0.5554  0.5575
  627MOL0     C84566  11.507  10.913   3.604 -0.0733 -0.2568 -0.2864
  627MOL0     C84567  11.413  10.902   3.500 -0.6920  0.2559  0.2970
  627MOL0     O84568  11.441  10.967   3.383  0.1835 -0.5945 -0.3335
  627MOL0     C84569  11.364  10.936   3.266  0.8031 -0.3516 -0.2359
  627MOL0     C84570  11.408  10.994   3.137 -0.5900 -1.4776  0.1114
  627MOL0     C84571  11.525  10.912   3.083  0.4454 -0.4017 -0.2391
  627MOL0     C84572  11.598  10.970   2.962 -0.1274 -0.1252 -0.0232
  627MOL0     C84573  11.514  11.006   2.846 -0.0182 -0.3782  0.5442
  627MOL0     C84574  11.434  11.031   2.759  0.7448  0.7522  0.5609
  627MOL0     C84575  11.295  10.832   3.526  0.1778 -0.5747 -0.0959
  627MOL0     C84576  11.271  10.776   3.652  0.2612  0.3721 -0.5258
  627MOL0     C84577  11.147  10.687   3.668 -0.5369  0.7839 -0.7432
  627MOL0     H84578  11.634  10.578   4.042 -0.8286  1.8651 -0.8594
  627MOL0     H84579  11.670  10.534   4.305 -0.3238  0.1204  0.0932
  627MOL0     H84580  11.446  10.626   4.590 -0.5832 -0.1884  3.2885
  627MOL0     H84581  11.302  10.514   4.554  0.2411 -2.1622 -0.6578
  627MOL0     H84582  11.454  10.350   4.702  3.1547  0.9920 -1.5417
  627MOL0     H84583  11.360  10.480   4.781 -0.0271  0.1633  1.5586
  627MOL0     H84584  11.573  10.628   4.770 -0.9451 -0.2278 -0.5778
  627MOL0     H84585  11.649  10.486   4.682  0.5068 -0.9593  0.9163
  627MOL0     H84586  11.541  10.485   4.952 -1.5956 -2.8496 -1.1063
  627MOL0     H84587  11.642  10.361   4.876  0.0791 -0.8601  1.6859
  627MOL0     H84588  11.796  10.472   5.019  0.4130 -1.6362 -1.1633
  627MOL0     H84589  11.842  10.521   4.852 -2.4449  2.9270 -2.1534
  627MOL0     H84590  11.708  10.726   4.890 -0.4540 -1.2717 -0.2248
  627MOL0     H84591  11.681  10.673   5.064  1.5938 -2.4886  1.3149
  627MOL0     H84592  11.858  10.842   5.060 -2.0920 -0.4184 -0.4603
  627MOL0     H84593  11.929  10.768   4.913 -0.0548  0.0743  0.3709
  627MOL0     H84594  12.005  10.567   5.096 -1.8375  0.1090  1.5131
  627MOL0     H84595  12.074  10.730   5.120  0.0504 -0.6308  0.3307
  627MOL0     H84596  11.824  10.465   5.264  1.3480 -0.7410  0.2476
  627MOL0     H84597  11.710  10.440   5.488 -1.9220 -1.7543  0.3029
  627MOL0     H84598  11.711  10.585   5.591  0.8831  1.6997 -2.1011
  627MOL0     H84599  11.482  10.483   5.538 -0.8847 -0.9691 -1.9317
  627MOL0     H84600  11.502  10.651   5.495 -0.4016 -1.1724  3.4521
  627MOL0     H84601  11.517  10.401   5.320 -1.9783 -0.4951  1.7418
  627MOL0     H84602  11.548  10.543   5.251  0.4266 -0.8553  0.0288
  627MOL0     H84603  11.323  10.648   5.293  0.3694  0.0472  3.2449
  627MOL0     H84604  11.290  10.529   5.415  2.8526 -1.0171  1.8484
  627MOL0     H84605  11.060  10.411   5.161  3.1521  1.6558 -0.4707
  627MOL0     H84606  10.914  10.228   5.223  0.1321  0.3185  0.9460
  627MOL0     H84607  10.675   9.877   5.200  1.7852  0.9243  1.2606
  627MOL0     H84608  10.534   9.694   5.270 -2.1184  4.3162 -2.0759
  627MOL0     H84609  10.505   9.596   5.736  2.4499  1.9216 -1.6237
  627MOL0     H84610  10.406   9.737   5.694 -1.0332 -0.9866  0.7329
  627MOL0     H84611  10.247   9.571   5.768 -4.6132 -0.2152 -2.6478
  627MOL0     H84612  10.237   9.583   5.599 -1.3743  2.3431  1.8877
  627MOL0     H84613  10.375   9.404   5.541  1.3826 -2.6600  0.8583
  627MOL0     H84614  10.435   9.371   5.688 -0.8817  0.5848 -0.2306
  627MOL0     H84615  10.130   9.382   5.645  0.3459 -0.1350 -0.7728
  627MOL0     H84616  10.221   9.316   5.782  0.5050  2.2212  0.3816
  627MOL0     H84617  10.299   9.139   5.622 -0.5685 -1.6999  0.8919
  627MOL0     H84618  10.202   9.210   5.494 -2.1498 -1.1105  1.3315
  627MOL0     H84619  10.122   9.082   5.749 -1.4589 -2.0414 -0.6943
  627MOL0     H84620  10.005   9.191   5.666  1.2130  3.3058 -2.3389
  627MOL0     H84621  10.155   8.964   5.533  1.8070  3.4523 -0.4433
  627MOL0     H84622  10.009   9.042   5.470  1.9641  0.6809 -0.1777
  627MOL0     H84623   9.884   8.947   5.644 -0.5970 -0.7530 -1.4556
  627MOL0     H84624   9.969   8.816   5.562  0.5309 -0.5582 -0.5202
  627MOL0     H84625  10.619   9.800   5.678  0.9014  1.4304  0.4881
  627MOL0     H84626  10.740   9.989   5.596 -0.3886  0.5515 -0.0544
  627MOL0     H84627  11.222  10.092   5.491  2.4609 -0.3559 -1.3206
  627MOL0     H84628  11.377  10.265   5.404  1.5959  1.2471 -0.2123
  627MOL0     H84629  11.250  10.527   4.354  0.6060  1.0018  0.9564
  627MOL0     H84630  11.217  10.575   4.127 -1.1867 -5.0973  2.8105
  627MOL0     H84631  11.558  10.871   3.806 -0.4767 -1.2468  1.3209
  627MOL0     H84632  11.589  10.982   3.591  0.4896 -0.4789  1.7264
  627MOL0     H84633  11.264  10.978   3.283  0.5702 -0.8224 -0.4099
  627MOL0     H84634  11.349  10.831   3.240  0.6019  0.2437 -2.6931
  627MOL0     H84635  11.422  11.102   3.127 -0.2760 -1.5126  0.1479
  627MOL0     H84636  11.324  10.979   3.069 -0.1350  2.5955 -1.6700
  627MOL0     H84637  11.481  10.814   3.064 -3.8082  0.9590  1.5068
  627MOL0     H84638  11.591  10.896   3.169 -0.7145 -2.7340  0.2990
  627MOL0     H84639  11.663  11.054   2.990 -1.2433  0.6357  0.3457
  627MOL0     H84640  11.673  10.899   2.925  0.2695  1.2566 -1.9990
  627MOL0     H84641  11.363  11.051   2.681 -0.9405  0.3629  1.9399
  627MOL0     H84642  11.216  10.816   3.454 -2.6533  1.4431  2.3199
  627MOL0     H84643  11.168  10.607   3.740  0.5053  2.7354  1.2471
  627MOL0     H84644  11.067  10.755   3.698 -2.6574 -1.8515 -0.0477
  627MOL0     H84645  11.133  10.647   3.567 -1.9861 -2.2255  0.5254
  628MOL0     O84646   2.644  10.431  10.600  0.5393 -0.4331  0.2855
  628MOL0     C84647   2.763  10.401  10.584 -0.5366 -0.4994 -0.1134
  628MOL0     O84648   2.821  10.277  10.602 -0.5768 -0.1979  0.6766
  628MOL0     C84649   2.737  10.174  10.628  0.0511 -0.3620 -0.1284
  628MOL0     C84650   2.678  10.101  10.528  0.1268 -0.2273 -0.2488
  628MOL0     C84651   2.582  10.000  10.570  0.6877 -0.2296 -0.7925
  628MOL0     C84652   2.547   9.985  10.712  0.8891  0.3831  0.3373
  628MOL0     O84653   2.445   9.908  10.761  0.4834 -0.6773 -0.1915
  628MOL0     C84654   2.359   9.848  10.661  0.1585 -0.7505  0.1656
  628MOL0     C84655   2.219   9.803  10.716 -0.2097  0.4198  0.1919
  628MOL0     C84656   2.117   9.776  10.610 -1.3676  0.7598  1.0900
  628MOL0     C84657   1.981   9.731  10.667 -0.5798 -0.0598  0.2085
  628MOL0     C84658   1.876   9.702  10.560 -0.3649 -0.2427  0.0779
  628MOL0     C84659   1.736   9.672  10.623 -0.7786  0.3898  0.2403
  628MOL0     C84660   1.623   9.687  10.528  0.3850  0.1833  0.0280
  628MOL0     C84661   1.489   9.649  10.595  0.2627  0.3958 -0.2061
  628MOL0     N84662   1.384   9.654  10.498  1.1575  0.3504  0.6628
  628MOL0     C84663   1.271   9.732  10.493 -0.0701  0.6225 -0.2466
  628MOL0     C84664   1.215   9.720  10.373  0.1595 -0.5575  0.5631
  628MOL0     C84665   1.092   9.806  10.342  0.2604 -0.3920  0.2071
  628MOL0     C84666   0.971   9.725  10.330  0.1667 -0.0557  1.1892
  628MOL0     C84667   0.930   9.670  10.464  0.1826 -1.1552  0.7008
  628MOL0     C84668   0.796   9.604  10.439  0.0133  0.3764  0.0174
  628MOL0     O84669   0.761   9.544  10.565  0.5266 -0.4990  0.7906
  628MOL0     C84670   0.668   9.607  10.643  0.4201  0.2622  0.6184
  628MOL0     C84671   0.610   9.735  10.627  0.2286  0.5086 -0.1839
  628MOL0     C84672   0.523   9.788  10.721 -0.0352 -0.7935 -0.6866
  628MOL0     C84673   0.487   9.717  10.832  0.5875  0.8417  1.4260
  628MOL0     C84674   0.394   9.772  10.935  0.2155 -0.2624  1.1260
  628MOL0     O84675   0.386   9.908  10.948  0.0057 -0.3918 -0.1643
  628MOL0     C84676   0.268   9.964  10.986  0.4831  0.1732 -0.0897
  628MOL0     C84677   0.142   9.933  10.926  0.1284  0.0463  0.0423
  628MOL0     C84678   0.024   9.996  10.969  0.3657  0.2399  0.8275
  628MOL0     C84679   0.025  10.102  11.061  0.7896  0.9024  0.2020
  628MOL0     O84680  -0.092  10.165  11.085  0.5084 -0.3718  0.1301
  628MOL0     C84681  -0.089  10.242  11.207  0.3682 -0.6665  0.5018
  628MOL0     C84682  -0.244  10.286  11.230 -0.9763  0.6198  0.0984
  628MOL0     C84683  -0.350  10.165  11.210 -0.6597  0.0374 -0.8083
  628MOL0     C84684  -0.482  10.234  11.240 -0.2771  0.5427  0.7602
  628MOL0     C84685  -0.532  10.251  11.384 -0.3584  0.1776  0.0770
  628MOL0     C84686  -0.676  10.315  11.398 -0.0087  0.6667  0.3813
  628MOL0     C84687  -0.717  10.341  11.542 -0.3985 -0.8130  0.2806
  628MOL0     C84688  -0.845  10.428  11.546 -0.6841  0.1557 -0.3191
  628MOL0    Cl84689  -0.958  10.370  11.419 -0.0434 -0.2354 -0.2291
  628MOL0     C84690   0.151  10.132  11.121  0.9301 -0.4018 -1.0730
  628MOL0     C84691   0.272  10.068  11.081  0.0147 -0.5131  0.1160
  628MOL0     O84692   0.339   9.691  11.012  0.6148  0.8090 -0.1129
  628MOL0     C84693   0.538   9.592  10.844  0.6198  0.1140  0.2309
  628MOL0     C84694   0.620   9.528  10.751 -0.1686 -1.0809  0.1965
  628MOL0     N84695   1.297   9.630  10.297  0.2648  0.1911 -0.3489
  628MOL0     N84696   1.391   9.590  10.376  0.2072  0.4434  0.4428
  628MOL0     C84697   2.620  10.056  10.801 -0.2772  0.4699  0.1427
  628MOL0     C84698   2.715  10.153  10.757 -0.6224 -0.6371 -0.5388
  628MOL0     C84699   2.866  10.505  10.542  0.0967 -0.1873  0.0550
  628MOL0     C84700   3.003  10.465  10.551  0.1107  0.0618 -1.7690
  628MOL0     C84701   3.109  10.545  10.510 -0.5617 -0.5601  0.2731
  628MOL0     C84702   3.076  10.671  10.453 -0.5118 -0.8674 -1.1557
  628MOL0     O84703   3.171  10.755  10.398  0.5600  0.0657 -0.2221
  628MOL0     C84704   3.281  10.718  10.314 -0.0897 -0.8622 -0.1532
  628MOL0     C84705   3.337  10.849  10.243  0.0507  0.7089 -0.9246
  628MOL0     C84706   3.388  10.955  10.347 -0.8097 -0.4437  0.1188
  628MOL0     C84707   3.420  11.079  10.266 -0.9918  0.7307  0.0590
  628MOL0     C84708   3.457  11.187  10.360 -0.7235 -0.6226 -0.0204
  628MOL0     C84709   3.513  11.279  10.423 -0.0785 -0.8548 -0.8789
  628MOL0     C84710   2.937  10.711  10.443 -1.0121 -0.8030  0.3633
  628MOL0     C84711   2.832  10.635  10.490 -0.9719  0.1204  0.7615
  628MOL0     C84712   2.693  10.676  10.462  0.0076  0.4659 -0.2259
  628MOL0     H84713   2.690  10.122  10.422  1.9685  3.5326  0.5675
  628MOL0     H84714   2.525   9.948  10.494 -4.2683  2.2636  0.7863
  628MOL0     H84715   2.338   9.915  10.576  2.6892 -1.8513 -1.4460
  628MOL0     H84716   2.410   9.762  10.617 -1.2422 -0.9182 -1.2539
  628MOL0     H84717   2.190   9.890  10.777  1.3580  1.0646  0.0613
  628MOL0     H84718   2.232   9.711  10.774  1.2511 -0.1116 -0.9112
  628MOL0     H84719   2.159   9.696  10.548 -2.9093 -0.0371  1.0326
  628MOL0     H84720   2.093   9.868  10.555 -0.8091 -0.5848 -1.6111
  628MOL0     H84721   1.994   9.643  10.731  3.0278  2.0885  2.7777
  628MOL0     H84722   1.957   9.809  10.740  3.6350  1.3814  0.3310
  628MOL0     H84723   1.862   9.798  10.510  0.5892 -0.1957 -0.1086
  628MOL0     H84724   1.924   9.633  10.490  1.2735  2.1205 -1.2429
  628MOL0     H84725   1.737   9.573  10.669 -4.7682  1.2161  2.5941
  628MOL0     H84726   1.726   9.740  10.708  2.9454 -0.1837  1.3180
  628MOL0     H84727   1.635   9.615  10.447 -4.7276 -1.2402  0.1558
  628MOL0     H84728   1.612   9.787  10.483  0.7884  0.0408 -0.3867
  628MOL0     H84729   1.504   9.550  10.639  1.4076  1.0700  0.9746
  628MOL0     H84730   1.476   9.726  10.672  2.2634  0.9439 -0.3620
  628MOL0     H84731   1.249   9.795  10.578  1.9420  0.1747  0.6443
  628MOL0     H84732   1.077   9.877  10.424 -1.7980 -2.3753  1.6729
  628MOL0     H84733   1.107   9.847  10.242  1.5848 -1.3469 -0.0207
  628MOL0     H84734   0.899   9.791  10.281  3.2347  2.2879 -0.5421
  628MOL0     H84735   0.984   9.635  10.268  0.8558  0.6845  0.2258
  628MOL0     H84736   0.916   9.744  10.543  3.6130 -0.3462  0.7286
  628MOL0     H84737   1.010   9.605  10.499  0.7871  0.1981  1.9449
  628MOL0     H84738   0.803   9.524  10.364  3.5569 -0.8834  1.4882
  628MOL0     H84739   0.719   9.677  10.411  0.0318  1.6063  2.8379
  628MOL0     H84740   0.630   9.809  10.550 -0.6040  2.9796  1.8291
  628MOL0     H84741   0.500   9.892  10.700  0.6773 -0.5868 -0.4782
  628MOL0     H84742   0.145   9.847  10.859  0.0216 -0.3173  0.4947
  628MOL0     H84743  -0.070   9.963  10.925  0.1178  0.9082  0.8429
  628MOL0     H84744  -0.037  10.189  11.287  0.7897 -0.8379  0.1228
  628MOL0     H84745  -0.040  10.340  11.198  1.8429 -1.3827  0.2852
  628MOL0     H84746  -0.231  10.315  11.334  1.7343  3.1432 -0.8196
  628MOL0     H84747  -0.273  10.371  11.167 -0.4807 -0.2653 -1.3901
  628MOL0     H84748  -0.355  10.135  11.105 -1.7641  1.6912 -1.2703
  628MOL0     H84749  -0.318  10.088  11.281 -4.7564 -0.6894  0.4898
  628MOL0     H84750  -0.553  10.168  11.190  1.9342 -1.9019  0.6090
  628MOL0     H84751  -0.483  10.332  11.191 -0.3677  0.1534 -0.0303
  628MOL0     H84752  -0.462  10.310  11.444  1.8602  1.1093 -3.1868
  628MOL0     H84753  -0.532  10.150  11.427 -0.4780 -1.1667 -2.8530
  628MOL0     H84754  -0.688  10.404  11.336 -3.0621 -0.4707 -0.8511
  628MOL0     H84755  -0.752  10.252  11.351 -0.2110  0.2552  1.2211
  628MOL0     H84756  -0.642  10.398  11.597  1.0564 -0.2446 -2.1193
  628MOL0     H84757  -0.739  10.251  11.600 -0.5173  0.3477  2.1003
  628MOL0     H84758  -0.892  10.421  11.645  1.6701 -0.6240  0.8435
  628MOL0     H84759  -0.813  10.529  11.517 -1.2080  0.2348 -0.6228
  628MOL0     H84760   0.152  10.220  11.185 -3.6089 -2.6991  2.7869
  628MOL0     H84761   0.372  10.104  11.105 -0.0545  0.0176 -0.3820
  628MOL0     H84762   0.516   9.533  10.933 -0.5369  1.2511  0.7358
  628MOL0     H84763   0.664   9.430  10.768 -1.7922 -1.9506 -0.4053
  628MOL0     H84764   2.593  10.066  10.905 -0.2525  2.6289 -0.0085
  628MOL0     H84765   2.754  10.228  10.825 -1.8638 -0.3062 -0.1736
  628MOL0     H84766   3.023  10.367  10.595 -1.3118 -0.7187 -2.7643
  628MOL0     H84767   3.211  10.507  10.510  0.2632  1.5172  1.2588
  628MOL0     H84768   3.248  10.651  10.234 -0.5310 -2.2632  1.1430
  628MOL0     H84769   3.360  10.662  10.365 -0.5696 -0.4432  1.1034
  628MOL0     H84770   3.255  10.891  10.185  0.1537  1.3839 -0.5873
  628MOL0     H84771   3.423  10.814  10.184  2.8037  0.6600  2.7359
  628MOL0     H84772   3.485  10.928  10.390 -0.8382 -0.6866  0.0333
  628MOL0     H84773   3.316  10.973  10.428 -0.2287  0.7790  0.3794
  628MOL0     H84774   3.502  11.066  10.195 -1.1279  2.4248 -0.4567
  628MOL0     H84775   3.329  11.117  10.219  0.2072  1.7438 -1.5426
  628MOL0     H84776   3.571  11.358  10.466  0.2369 -1.6386  0.2044
  628MOL0     H84777   2.910  10.796  10.381 -3.1370 -1.6381  0.0770
  628MOL0     H84778   2.645  10.610  10.389  0.3956 -2.0962  1.6854
  628MOL0     H84779   2.637  10.670  10.556 -1.0333  0.6836 -0.8131
  628MOL0     H84780   2.682  10.776  10.418 -0.2834  0.7248  0.4186
  629MOL0     O84781   6.621  10.449   9.934  0.5962 -0.7283 -0.1084
  629MOL0     C84782   6.516  10.383   9.962 -0.0575  0.0936 -0.1340
  629MOL0     O84783   6.412  10.358   9.871 -0.1298  0.1037 -0.0398
  629MOL0     C84784   6.445  10.362   9.740  0.2822  0.0179  0.4680
  629MOL0     C84785   6.560  10.307   9.683 -0.1439 -0.3065 -0.8817
  629MOL0     C84786   6.592  10.321   9.554 -0.6283 -0.1713  1.7570
  629MOL0     C84787   6.507  10.383   9.463  0.1892  0.4231  0.0742
  629MOL0     O84788   6.540  10.380   9.330 -0.0685  0.2048  0.3243
  629MOL0     C84789   6.583  10.253   9.283 -0.1345 -0.1098  0.8042
  629MOL0     C84790   6.584  10.245   9.135 -0.0787  0.3022  1.1160
  629MOL0     C84791   6.635  10.113   9.078 -1.1106  0.0006  0.8901
  629MOL0     C84792   6.519  10.022   9.058  0.2576  0.8705  0.1637
  629MOL0     C84793   6.583   9.886   9.031  0.2704  0.0777 -0.1244
  629MOL0     C84794   6.489   9.765   9.005 -0.6710 -0.2622  0.7219
  629MOL0     C84795   6.432   9.695   9.136 -0.3321 -1.5164 -0.6114
  629MOL0     C84796   6.313   9.599   9.117 -0.8031 -0.4416  0.3311
  629MOL0     N84797   6.209   9.653   9.025  0.4776 -0.0456 -0.8326
  629MOL0     C84798   6.100   9.719   9.062  0.0583 -0.2602 -0.4426
  629MOL0     C84799   6.024   9.746   8.951  0.0090  0.2746 -0.2995
  629MOL0     C84800   5.883   9.797   8.959 -0.1312  0.1024  0.3247
  629MOL0     C84801   5.808   9.796   8.830  0.0489  0.2889  0.0445
  629MOL0     C84802   5.754   9.657   8.804  0.1251  0.0726  0.3997
  629MOL0     C84803   5.631   9.668   8.708  0.0762  1.1290  0.1541
  629MOL0     O84804   5.537   9.564   8.745  0.5503  0.6166  0.5147
  629MOL0     C84805   5.411   9.585   8.695 -0.1332 -0.1203  0.4090
  629MOL0     C84806   5.324   9.662   8.766 -0.7506  0.2291 -0.1517
  629MOL0     C84807   5.189   9.684   8.721  0.4967  0.4895  0.2095
  629MOL0     C84808   5.146   9.620   8.601 -0.3444 -0.0856 -0.4247
  629MOL0     C84809   5.018   9.654   8.553 -0.6391  0.2764  0.1037
  629MOL0     O84810   4.929   9.698   8.653 -0.1546 -0.2564 -0.1180
  629MOL0     C84811   4.834   9.786   8.619  0.8243  0.0762  0.2337
  629MOL0     C84812   4.866   9.899   8.546 -0.7062  0.9349 -0.0074
  629MOL0     C84813   4.774   9.997   8.510 -0.5019 -0.7287  0.1050
  629MOL0     C84814   4.645   9.981   8.551 -0.7844 -0.3645  0.3619
  629MOL0     O84815   4.552  10.083   8.501 -0.2976 -0.1620 -0.1465
  629MOL0     C84816   4.427  10.113   8.554 -0.6174 -0.8188  0.0443
  629MOL0     C84817   4.435  10.218   8.671 -0.5144  0.1524  0.7799
  629MOL0     C84818   4.440  10.357   8.608  0.2538  0.6078 -0.4578
  629MOL0     C84819   4.439  10.464   8.717 -0.1868  0.3320 -0.1364
  629MOL0     C84820   4.493  10.594   8.661  0.8916  0.4026  0.2349
  629MOL0     C84821   4.643  10.610   8.660  0.0294  0.1745 -0.1571
  629MOL0     C84822   4.668  10.731   8.588 -0.5814 -1.1513  0.7625
  629MOL0     C84823   4.814  10.763   8.576  0.3789 -0.6389 -1.1060
  629MOL0    Cl84824   4.846  10.925   8.495 -0.1674  0.2148 -0.1182
  629MOL0     C84825   4.610   9.873   8.635  0.8893 -0.6893 -0.3774
  629MOL0     C84826   4.700   9.764   8.659 -0.3436 -0.6997  0.0368
  629MOL0     O84827   4.999   9.653   8.431  0.6273 -0.3797  0.0737
  629MOL0     C84828   5.235   9.547   8.524  0.4326 -0.2374  0.4644
  629MOL0     C84829   5.365   9.525   8.577  0.6239 -0.7230  0.8238
  629MOL0     N84830   6.101   9.687   8.844 -0.2686  0.2749 -0.3556
  629MOL0     N84831   6.208   9.636   8.896  0.5539  1.0712  0.1011
  629MOL0     C84832   6.390  10.440   9.516 -0.4546  0.0536  0.5164
  629MOL0     C84833   6.365  10.425   9.652 -0.0838  0.9731 -0.3510
  629MOL0     C84834   6.497  10.356  10.108  0.8905  0.1072  0.8964
  629MOL0     C84835   6.544  10.455  10.206 -0.2800  0.4523  0.5902
  629MOL0     C84836   6.502  10.430  10.329 -0.4322 -0.3892  0.1786
  629MOL0     C84837   6.442  10.311  10.379 -0.4925  0.1031 -0.1271
  629MOL0     O84838   6.426  10.299  10.515  0.8492  0.2088 -0.0478
  629MOL0     C84839   6.421  10.165  10.572  0.7976  0.0552 -0.0818
  629MOL0     C84840   6.499  10.160  10.700  0.1611  0.2757 -0.5613
  629MOL0     C84841   6.648  10.175  10.680  0.0936 -0.2275  0.6038
  629MOL0     C84842   6.719  10.240  10.800 -0.0095 -0.0988  0.2426
  629MOL0     C84843   6.710  10.139  10.914 -0.0051 -0.8040  0.1260
  629MOL0     C84844   6.697  10.060  11.009 -0.9029 -0.8706 -0.2946
  629MOL0     C84845   6.413  10.207  10.284  0.1890 -0.0118  0.1187
  629MOL0     C84846   6.433  10.230  10.144 -0.3376 -0.6558 -1.0036
  629MOL0     C84847   6.398  10.124  10.044  0.2616 -0.3977  0.1929
  629MOL0     H84848   6.632  10.253   9.743 -0.2621 -1.0589 -1.4065
  629MOL0     H84849   6.689  10.280   9.527 -0.3875  0.4592  1.6501
  629MOL0     H84850   6.684  10.235   9.319  1.0867 -2.5109 -3.1332
  629MOL0     H84851   6.511  10.183   9.327 -1.3735  1.9374  2.1716
  629MOL0     H84852   6.662  10.316   9.106  1.5717 -1.3941  1.1708
  629MOL0     H84853   6.482  10.259   9.099 -0.7355  0.3564  2.8951
  629MOL0     H84854   6.702  10.073   9.155 -3.2219  2.5095  4.3496
  629MOL0     H84855   6.699  10.130   8.991 -0.1821 -1.3882  1.2716
  629MOL0     H84856   6.458  10.017   9.149  1.1168  0.0740  0.7160
  629MOL0     H84857   6.454  10.048   8.974  0.8201  0.2190 -0.4860
  629MOL0     H84858   6.658   9.886   8.951  0.0881 -0.3183 -0.2992
  629MOL0     H84859   6.635   9.848   9.120 -1.5671 -2.9944 -0.2098
  629MOL0     H84860   6.417   9.789   8.926  2.0898  3.5028 -0.8988
  629MOL0     H84861   6.560   9.702   8.952 -2.0616  0.0525 -1.6658
  629MOL0     H84862   6.394   9.769   9.206 -0.6237 -3.1939  1.0923
  629MOL0     H84863   6.512   9.643   9.189  2.5624  1.3724 -1.8060
  629MOL0     H84864   6.360   9.508   9.080 -1.7518 -0.4357 -0.9586
  629MOL0     H84865   6.277   9.567   9.215 -4.6704 -0.5872 -1.0051
  629MOL0     H84866   6.068   9.764   9.156  1.0847  0.9287 -0.6243
  629MOL0     H84867   5.830   9.745   9.039  0.0173  0.3689  0.5995
  629MOL0     H84868   5.892   9.903   8.987 -0.0803  0.4689 -1.0293
  629MOL0     H84869   5.729   9.869   8.810  1.6715  1.3290 -3.0372
  629MOL0     H84870   5.882   9.822   8.754 -0.7128  0.1397 -0.7730
  629MOL0     H84871   5.722   9.619   8.902 -1.3256  0.6557  0.1850
  629MOL0     H84872   5.822   9.584   8.761 -1.6677 -0.6809 -1.3411
  629MOL0     H84873   5.665   9.648   8.606 -0.4922  0.6032  0.0665
  629MOL0     H84874   5.587   9.768   8.711  0.8563  1.5650 -1.6168
  629MOL0     H84875   5.365   9.700   8.858  0.6939 -2.0198  0.2346
  629MOL0     H84876   5.121   9.739   8.785 -1.5885 -0.5940 -0.9640
  629MOL0     H84877   4.972   9.906   8.520 -1.1393  3.5894 -1.4596
  629MOL0     H84878   4.815  10.071   8.442  1.9920 -1.9905  0.1141
  629MOL0     H84879   4.363  10.153   8.474 -1.6790 -0.3371  1.0941
  629MOL0     H84880   4.380  10.022   8.593  1.2541 -1.8682 -0.0135
  629MOL0     H84881   4.344  10.217   8.732  1.3435  1.0869  3.7377
  629MOL0     H84882   4.519  10.210   8.740  0.4940  1.6817 -0.1983
  629MOL0     H84883   4.524  10.358   8.538  1.8972  1.4635  1.4403
  629MOL0     H84884   4.349  10.370   8.548 -0.0463  0.2515 -0.0922
  629MOL0     H84885   4.502  10.450   8.806 -1.2542 -1.5974  0.3873
  629MOL0     H84886   4.342  10.482   8.763  1.5812  0.8192  3.8434
  629MOL0     H84887   4.451  10.675   8.722 -1.1964 -2.0712  2.3896
  629MOL0     H84888   4.468  10.617   8.557 -0.4407  2.5581  0.9636
  629MOL0     H84889   4.681  10.606   8.762  1.4891 -0.4639 -0.6916
  629MOL0     H84890   4.688  10.526   8.605 -0.8134  1.0359 -2.2491
  629MOL0     H84891   4.600  10.808   8.627 -2.3943 -2.6805  0.8081
  629MOL0     H84892   4.634  10.725   8.484  0.7232 -0.3495  0.2731
  629MOL0     H84893   4.860  10.758   8.676 -0.2732  0.4677 -0.7330
  629MOL0     H84894   4.871  10.685   8.525  1.2492 -2.0687  1.7789
  629MOL0     H84895   4.504   9.847   8.635  1.1136 -1.6584 -1.5277
  629MOL0     H84896   4.668   9.673   8.708  0.6885 -0.3929  1.3430
  629MOL0     H84897   5.198   9.504   8.432 -0.5928 -1.6220  1.4694
  629MOL0     H84898   5.439   9.464   8.527  2.5039  1.2637  1.0042
  629MOL0     H84899   6.334  10.498   9.443 -0.7371 -0.5227  0.2778
  629MOL0     H84900   6.277  10.474   9.693 -2.4944 -2.5731 -0.8107
  629MOL0     H84901   6.584  10.553  10.185  2.8782 -0.3955  1.9909
  629MOL0     H84902   6.530  10.502  10.405  1.8195 -0.8037 -0.1826
  629MOL0     H84903   6.473  10.094  10.506 -2.5162 -2.0247 -0.6811
  629MOL0     H84904   6.322  10.131  10.602  1.4005 -0.6573  1.1968
  629MOL0     H84905   6.477  10.067  10.752 -1.2435 -0.0994 -1.7590
  629MOL0     H84906   6.467  10.247  10.758  0.1509 -0.5881  0.7584
  629MOL0     H84907   6.671  10.243  10.597 -0.5261  4.0681  3.5875
  629MOL0     H84908   6.690  10.077  10.657 -1.2870 -0.5236 -0.8641
  629MOL0     H84909   6.825  10.263  10.787  0.8987 -1.3037  4.0011
  629MOL0     H84910   6.667  10.332  10.830 -0.1991 -0.9383  2.7895
  629MOL0     H84911   6.674   9.991  11.087 -2.0540  0.2054  0.3344
  629MOL0     H84912   6.384  10.105  10.305 -0.0001 -0.7303 -3.1720
  629MOL0     H84913   6.350  10.159   9.952 -2.7979 -2.3631  0.8774
  629MOL0     H84914   6.487  10.065  10.021  0.7731  0.9110 -1.3011
  629MOL0     H84915   6.333  10.046  10.087 -0.9195 -1.3480 -3.0050
  630MOL0     O84916   9.756   3.602   5.318 -0.9879  0.0804 -0.3067
  630MOL0     C84917   9.711   3.608   5.435  0.1997 -0.2784  0.6465
  630MOL0     O84918   9.583   3.596   5.468 -0.3210 -0.0213  0.8881
  630MOL0     C84919   9.496   3.578   5.366 -0.0044 -0.2961  0.5915
  630MOL0     C84920   9.433   3.456   5.362 -0.1168  0.2065 -0.0011
  630MOL0     C84921   9.357   3.424   5.247 -0.2301 -0.2604  0.2931
  630MOL0     C84922   9.332   3.510   5.144  0.4636 -1.0807  0.2535
  630MOL0     O84923   9.240   3.468   5.055 -0.3670 -0.0173  0.1438
  630MOL0     C84924   9.280   3.502   4.922  0.6649  0.4235  0.1206
  630MOL0     C84925   9.174   3.458   4.819 -0.8944 -0.1819  0.4746
  630MOL0     C84926   9.042   3.530   4.854  0.0780  0.8913  0.1868
  630MOL0     C84927   8.968   3.542   4.724  0.1144  0.3484 -0.0463
  630MOL0     C84928   8.816   3.579   4.739  0.0057  0.1011  0.1469
  630MOL0     C84929   8.752   3.586   4.603  0.1375  0.3032  0.4333
  630MOL0     C84930   8.783   3.705   4.515  0.1281 -0.3342  0.2696
  630MOL0     C84931   8.723   3.842   4.577 -0.5099  0.1150  0.2827
  630MOL0     N84932   8.574   3.853   4.575 -0.5510 -0.1461  1.2301
  630MOL0     C84933   8.504   3.885   4.465 -0.2559  0.6056  0.2037
  630MOL0     C84934   8.373   3.864   4.506  0.3235  0.1261 -0.1114
  630MOL0     C84935   8.245   3.885   4.429  0.5162 -0.2896  0.1799
  630MOL0     C84936   8.112   3.895   4.519  0.1251  0.1879 -0.2455
  630MOL0     C84937   7.987   3.853   4.438 -0.1758 -0.5543  0.0922
  630MOL0     C84938   7.855   3.851   4.514 -0.1155 -0.2458  0.0202
  630MOL0     O84939   7.811   3.986   4.548 -0.6688 -0.0319  0.4243
  630MOL0     C84940   7.682   4.010   4.567 -0.0789 -0.7483 -0.0057
  630MOL0     C84941   7.642   4.141   4.586  0.2707 -0.5657  0.5656
  630MOL0     C84942   7.509   4.182   4.604 -0.3135  0.5555 -0.5347
  630MOL0     C84943   7.406   4.079   4.612 -0.4862  0.9757 -0.3457
  630MOL0     C84944   7.264   4.114   4.634  0.2426  0.1164  0.0724
  630MOL0     O84945   7.182   4.011   4.654  0.3629  0.5818 -0.4148
  630MOL0     C84946   7.051   4.047   4.663  0.0118 -0.7623 -0.2382
  630MOL0     C84947   7.009   4.090   4.797  0.0872  0.0091  0.4310
  630MOL0     C84948   6.877   4.125   4.820 -1.1492 -1.0576  0.4789
  630MOL0     C84949   6.790   4.128   4.713 -0.5924 -1.2919  0.1132
  630MOL0     O84950   6.661   4.161   4.730  0.3439  0.2722 -0.2243
  630MOL0     C84951   6.585   4.128   4.845 -0.1416 -0.5342 -0.3113
  630MOL0     C84952   6.443   4.186   4.811  0.9607 -0.2224 -0.4408
  630MOL0     C84953   6.417   4.341   4.808  1.0689 -0.0096 -0.6800
  630MOL0     C84954   6.271   4.380   4.787 -0.1926  0.4244 -0.2237
  630MOL0     C84955   6.249   4.520   4.817 -0.5618 -0.4425  0.1235
  630MOL0     C84956   6.103   4.544   4.848  0.0421 -0.4500 -1.0455
  630MOL0     C84957   6.071   4.510   5.002 -0.4280  0.3505  0.9762
  630MOL0     C84958   5.922   4.545   5.028  0.4050 -0.0151  0.0001
  630MOL0    Cl84959   5.848   4.453   5.161  0.3724 -0.0682 -0.1382
  630MOL0     C84960   6.831   4.101   4.583  0.6346 -0.4478 -0.0475
  630MOL0     C84961   6.959   4.065   4.556  0.0864  0.1654 -0.4747
  630MOL0     O84962   7.238   4.231   4.634  0.3450 -0.0866  0.1491
  630MOL0     C84963   7.450   3.943   4.610 -0.2240 -0.6084 -0.0916
  630MOL0     C84964   7.583   3.915   4.596 -0.1746 -0.0931  1.0002
  630MOL0     N84965   8.374   3.825   4.635 -0.4129 -0.2751 -0.0442
  630MOL0     N84966   8.495   3.823   4.675 -0.3815  0.4932  0.0463
  630MOL0     C84967   9.393   3.637   5.150  0.5341  0.6121 -0.4270
  630MOL0     C84968   9.485   3.667   5.255  0.0794  0.0972 -0.7720
  630MOL0     C84969   9.800   3.623   5.551 -0.3869 -1.1515 -0.3042
  630MOL0     C84970   9.756   3.603   5.682  0.1889  0.5912 -0.4950
  630MOL0     C84971   9.850   3.586   5.788  0.1505  0.4011  1.0482
  630MOL0     C84972   9.986   3.593   5.761  0.5832  0.4670 -0.6085
  630MOL0     O84973  10.071   3.566   5.863 -0.4279  0.8818  0.0204
  630MOL0     C84974  10.215   3.551   5.847 -0.2699 -0.6075 -0.2387
  630MOL0     C84975  10.283   3.571   5.982 -0.7996  0.9982  0.3546
  630MOL0     C84976  10.424   3.629   5.970 -0.9811  0.2682 -0.4731
  630MOL0     C84977  10.507   3.532   5.894 -0.0402 -0.2573  0.2013
  630MOL0     C84978  10.645   3.563   5.899 -0.3757 -0.8618  0.4191
  630MOL0     C84979  10.757   3.601   5.892 -1.0164  0.6096 -0.3666
  630MOL0     C84980  10.025   3.632   5.632  0.6492  0.1316 -0.4799
  630MOL0     C84981   9.935   3.656   5.528 -0.2767  0.1923 -0.5245
  630MOL0     C84982   9.996   3.691   5.397 -0.1504 -0.5290 -0.7930
  630MOL0     H84983   9.446   3.379   5.437  0.7396 -0.0725 -0.4287
  630MOL0     H84984   9.324   3.321   5.249  0.8981 -0.6358  2.3170
  630MOL0     H84985   9.291   3.610   4.908 -3.2673  0.8303 -1.0171
  630MOL0     H84986   9.369   3.442   4.900  1.1348  1.2709 -0.3361
  630MOL0     H84987   9.161   3.350   4.808 -0.1850 -0.3625  1.3611
  630MOL0     H84988   9.212   3.500   4.725  1.3640  0.5757  1.6573
  630MOL0     H84989   9.057   3.628   4.901  0.4671  1.0975 -0.3615
  630MOL0     H84990   8.984   3.469   4.923  3.1498 -2.4045  0.1363
  630MOL0     H84991   9.016   3.617   4.660  1.1340  1.7777  2.2592
  630MOL0     H84992   8.974   3.448   4.669 -1.8418  0.8621 -1.2422
  630MOL0     H84993   8.765   3.511   4.807 -0.3023  0.2096  0.0274
  630MOL0     H84994   8.786   3.671   4.790 -1.0986  0.0073 -0.3037
  630MOL0     H84995   8.788   3.496   4.551 -1.2139  0.0622 -0.1245
  630MOL0     H84996   8.644   3.581   4.619 -0.1290  4.0540  0.6991
  630MOL0     H84997   8.743   3.687   4.415  1.3726 -4.8000  0.3617
  630MOL0     H84998   8.892   3.711   4.503  0.0432 -0.9207 -0.8650
  630MOL0     H84999   8.764   3.859   4.677 -3.8992  6.1919  1.0857
  630MOL0     H85000   8.758   3.934   4.529 -0.2610  1.6044  3.1053
  630MOL0     H85001   8.526   3.935   4.371 -1.2521 -1.2130 -1.0700
  630MOL0     H85002   8.256   3.965   4.355 -1.0934  0.8084  1.0797
  630MOL0     H85003   8.227   3.789   4.380  2.0954  0.7552 -2.6921
  630MOL0     H85004   8.132   3.832   4.606 -0.7870  1.4666  0.9224
  630MOL0     H85005   8.090   3.998   4.548 -0.8783  0.2057 -1.0163
  630MOL0     H85006   8.002   3.751   4.402  1.0712 -1.3546  2.6171
  630MOL0     H85007   7.960   3.917   4.353 -0.0482 -1.8672 -0.9701
  630MOL0     H85008   7.864   3.791   4.604  0.0060  2.0441  1.6095
  630MOL0     H85009   7.778   3.818   4.444  1.6422 -0.2919 -2.0022
  630MOL0     H85010   7.722   4.214   4.586  0.5973 -0.9088  1.4814
  630MOL0     H85011   7.492   4.288   4.620 -1.5471  0.6998 -2.4935
  630MOL0     H85012   7.077   4.083   4.881 -0.9807  0.8787  1.4024
  630MOL0     H85013   6.845   4.172   4.912  0.8007  2.2386 -0.3637
  630MOL0     H85014   6.579   4.019   4.838 -1.2164 -0.5054  0.0178
  630MOL0     H85015   6.627   4.163   4.940 -0.1897  0.3324 -0.6007
  630MOL0     H85016   6.412   4.143   4.716  0.0159 -1.6651  0.4792
  630MOL0     H85017   6.370   4.147   4.883 -0.3325 -0.6158 -1.9192
  630MOL0     H85018   6.456   4.393   4.896 -0.3237 -0.3096  0.1620
  630MOL0     H85019   6.462   4.384   4.719 -3.0477 -0.0323 -3.0354
  630MOL0     H85020   6.209   4.320   4.854 -1.6823  1.4362 -0.6343
  630MOL0     H85021   6.261   4.357   4.680 -0.9524 -3.0206  0.4516
  630MOL0     H85022   6.293   4.581   4.738 -0.0831 -0.4382  0.3931
  630MOL0     H85023   6.309   4.544   4.905  1.8798  0.3092 -1.6315
  630MOL0     H85024   6.082   4.650   4.832  1.8683 -0.0019 -0.6854
  630MOL0     H85025   6.030   4.486   4.791 -0.9615  1.9673 -2.4004
  630MOL0     H85026   6.151   4.558   5.058 -0.1497  0.1279  0.7752
  630MOL0     H85027   6.086   4.402   5.013  0.4822  0.1195 -1.7373
  630MOL0     H85028   5.907   4.651   5.051  3.7852  0.6022 -0.2058
  630MOL0     H85029   5.867   4.523   4.936  3.1638  3.1599 -2.6344
  630MOL0     H85030   6.770   4.098   4.493  0.2714 -2.0849  0.2371
  630MOL0     H85031   6.972   4.032   4.454 -0.5069 -0.1559 -0.4521
  630MOL0     H85032   7.379   3.864   4.630  0.2591 -0.5717  1.9775
  630MOL0     H85033   7.615   3.811   4.602 -3.4380 -1.1212  3.4637
  630MOL0     H85034   9.373   3.704   5.066 -3.4165 -0.4245 -0.4975
  630MOL0     H85035   9.549   3.754   5.251  0.7702 -0.1853  2.1367
  630MOL0     H85036   9.654   3.578   5.710 -0.1018 -0.6384 -2.4521
  630MOL0     H85037   9.821   3.560   5.889 -1.7306 -0.1390  0.4141
  630MOL0     H85038  10.264   3.616   5.774  0.3720 -1.1027 -0.2682
  630MOL0     H85039  10.252   3.453   5.814  0.3153  0.1787 -2.0222
  630MOL0     H85040  10.274   3.486   6.050  1.3634  0.6403  0.2737
  630MOL0     H85041  10.234   3.651   6.037 -0.5824  0.8159  0.8179
  630MOL0     H85042  10.453   3.635   6.075  1.3458 -1.0412 -0.9704
  630MOL0     H85043  10.427   3.728   5.923  0.1542 -0.5341 -2.1831
  630MOL0     H85044  10.503   3.430   5.933  1.8469 -0.3114  0.3408
  630MOL0     H85045  10.483   3.540   5.787  1.9298  1.6614 -0.1716
  630MOL0     H85046  10.856   3.643   5.888 -0.4813 -0.7133 -2.2644
  630MOL0     H85047  10.131   3.640   5.610  1.1848 -1.2593  1.3707
  630MOL0     H85048   9.942   3.776   5.356  0.2196 -0.9650 -2.2301
  630MOL0     H85049  10.094   3.735   5.419 -0.1502  0.0782 -1.9652
  630MOL0     H85050  10.010   3.610   5.324 -1.4459 -0.0357 -1.6104
  631MOL0     O85051   0.853   8.807   5.976 -0.0611 -0.9137 -0.3668
  631MOL0     C85052   0.941   8.774   6.058  0.8401  0.3338  0.2662
  631MOL0     O85053   1.066   8.831   6.075  0.1935  0.3148 -0.0248
  631MOL0     C85054   1.106   8.928   5.988 -0.2181 -0.4571 -0.3899
  631MOL0     C85055   1.110   9.059   6.020  0.1153 -0.5870  0.0492
  631MOL0     C85056   1.168   9.159   5.933  0.3849  0.3012 -0.2908
  631MOL0     C85057   1.224   9.120   5.807  0.0282 -0.5561 -0.2538
  631MOL0     O85058   1.307   9.212   5.736 -0.6059  0.2157  0.7055
  631MOL0     C85059   1.291   9.204   5.592  0.8758  0.4423  0.2925
  631MOL0     C85060   1.299   9.349   5.532  0.0037  0.1680  0.9908
  631MOL0     C85061   1.163   9.430   5.543  0.0305  0.4390  1.0857
  631MOL0     C85062   1.085   9.409   5.676  0.6993 -0.1873 -0.4337
  631MOL0     C85063   0.954   9.485   5.683  0.3151  0.1669  0.0568
  631MOL0     C85064   0.837   9.451   5.586  0.5963  0.7596 -0.5892
  631MOL0     C85065   0.774   9.304   5.610 -0.9336  0.5388 -0.3875
  631MOL0     C85066   0.671   9.261   5.508  1.2866 -0.3314  0.1983
  631MOL0     N85067   0.720   9.220   5.376  0.1919 -0.5251  0.6368
  631MOL0     C85068   0.676   9.111   5.295  0.5571 -0.3280  0.2512
  631MOL0     C85069   0.767   9.101   5.195  0.8462 -0.2307 -0.5137
  631MOL0     C85070   0.763   8.989   5.085 -0.3245 -0.0044 -1.2137
  631MOL0     C85071   0.631   8.982   5.011 -0.0258 -0.2955 -0.1738
  631MOL0     C85072   0.643   8.880   4.904 -1.1783 -0.1359 -0.9610
  631MOL0     C85073   0.516   8.862   4.822 -0.4937  0.0009 -0.1002
  631MOL0     O85074   0.536   8.761   4.725  0.5679  0.5880  0.6137
  631MOL0     C85075   0.419   8.704   4.669  0.1405 -0.5203 -0.1773
  631MOL0     C85076   0.434   8.580   4.605  0.5264 -0.6356  0.5746
  631MOL0     C85077   0.335   8.529   4.517 -0.3419 -0.0080  0.1703
  631MOL0     C85078   0.217   8.605   4.496 -0.1211  0.3299 -0.8739
  631MOL0     C85079   0.103   8.559   4.413  0.1910 -0.0612  0.0246
  631MOL0     O85080   0.112   8.427   4.374 -0.5880  0.0018  1.1728
  631MOL0     C85081   0.023   8.375   4.285  0.0931  0.1646  0.5094
  631MOL0     C85082  -0.027   8.449   4.176 -0.0631 -1.2150 -0.3199
  631MOL0     C85083  -0.120   8.398   4.084  0.3060  0.6319 -0.4935
  631MOL0     C85084  -0.159   8.261   4.102  0.1290  0.2931 -0.1212
  631MOL0     O85085  -0.241   8.197   4.014  0.2019  0.3403  0.1053
  631MOL0     C85086  -0.273   8.261   3.886  0.0635  0.7713 -0.1692
  631MOL0     C85087  -0.323   8.159   3.784 -0.2277 -0.0288  0.3136
  631MOL0     C85088  -0.218   8.050   3.749  0.1615 -0.6291 -0.0935
  631MOL0     C85089  -0.275   7.955   3.640  0.2223 -0.3538  0.0047
  631MOL0     C85090  -0.172   7.847   3.582  0.3127  0.9791 -0.6515
  631MOL0     C85091  -0.038   7.898   3.506  0.0952  0.1660  0.4256
  631MOL0     C85092  -0.080   8.023   3.416  0.0055 -0.2395 -0.5708
  631MOL0     C85093   0.046   8.063   3.331  0.1870 -0.1346  0.5157
  631MOL0    Cl85094   0.009   8.219   3.229  0.3384  0.2402 -0.0493
  631MOL0     C85095  -0.099   8.185   4.204 -1.1781  0.3165  0.0122
  631MOL0     C85096  -0.012   8.242   4.292  0.4839  0.2316 -0.8712
  631MOL0     O85097   0.006   8.630   4.397 -0.2176  0.8111  0.1425
  631MOL0     C85098   0.204   8.723   4.573  0.0102  0.8819 -0.4350
  631MOL0     C85099   0.298   8.774   4.657  0.6553  0.0988  0.2026
  631MOL0     N85100   0.852   9.200   5.204 -0.0090  0.3822 -0.0458
  631MOL0     N85101   0.820   9.274   5.304 -0.3205  0.1944  0.7662
  631MOL0     C85102   1.215   8.992   5.774  0.5107 -0.4814  0.1543
  631MOL0     C85103   1.146   8.893   5.854  0.0091  0.7607 -0.8965
  631MOL0     C85104   0.908   8.654   6.141  0.5320 -0.7723  0.4684
  631MOL0     C85105   1.011   8.595   6.216  0.1710  0.0633  0.1750
  631MOL0     C85106   1.006   8.477   6.276  0.2012  0.3969  0.2048
  631MOL0     C85107   0.884   8.420   6.295  0.0040 -0.3962 -0.4277
  631MOL0     O85108   0.879   8.300   6.363 -0.6510  0.2036 -0.5148
  631MOL0     C85109   0.750   8.260   6.413  0.1716 -0.2902  0.4217
  631MOL0     C85110   0.777   8.160   6.520 -0.1509 -0.1213 -0.1602
  631MOL0     C85111   0.830   8.030   6.466  1.0050  0.7280  0.2719
  631MOL0     C85112   0.714   7.956   6.408  0.1345 -0.3836  0.4929
  631MOL0     C85113   0.763   7.818   6.357 -0.6371 -0.6223  0.9155
  631MOL0     C85114   0.801   7.707   6.326 -0.7462 -0.6406  0.3735
  631MOL0     C85115   0.766   8.473   6.234  0.7213 -0.1895 -0.7351
  631MOL0     C85116   0.781   8.584   6.148 -0.8818 -0.1823  1.1153
  631MOL0     C85117   0.655   8.637   6.074 -0.0874  0.5603  0.6500
  631MOL0     H85118   1.068   9.095   6.113  2.3015  2.8524 -0.0980
  631MOL0     H85119   1.183   9.264   5.958  0.5947  0.2571 -0.2325
  631MOL0     H85120   1.362   9.136   5.544  0.9420  1.7690 -1.6200
  631MOL0     H85121   1.193   9.162   5.570  0.4552 -1.4637  4.7313
  631MOL0     H85122   1.319   9.340   5.424 -2.2613  2.6259  0.2538
  631MOL0     H85123   1.376   9.415   5.572 -0.0443  3.6701 -3.7861
  631MOL0     H85124   1.098   9.388   5.465 -0.0052 -1.8143  2.2390
  631MOL0     H85125   1.179   9.535   5.518 -0.8057  0.2845 -0.1950
  631MOL0     H85126   1.060   9.303   5.681 -1.4378  0.3284  1.3522
  631MOL0     H85127   1.150   9.434   5.761 -0.2448 -1.7420  0.8041
  631MOL0     H85128   0.918   9.473   5.785 -0.6654 -0.0951 -0.2996
  631MOL0     H85129   0.987   9.589   5.672 -0.8467  0.4306 -1.4049
  631MOL0     H85130   0.746   9.511   5.593 -1.2734 -1.6138 -2.5591
  631MOL0     H85131   0.875   9.461   5.484  0.9010  2.8870 -0.3054
  631MOL0     H85132   0.734   9.295   5.712 -4.6763 -1.4594 -1.8107
  631MOL0     H85133   0.857   9.233   5.602  0.2722  1.5643  1.9433
  631MOL0     H85134   0.605   9.183   5.547 -0.5338 -0.1877 -2.3583
  631MOL0     H85135   0.608   9.347   5.482 -1.4327 -1.2058  3.2147
  631MOL0     H85136   0.585   9.054   5.313 -2.1221  3.8458  1.2993
  631MOL0     H85137   0.849   9.009   5.021  0.1930  0.2470 -0.4505
  631MOL0     H85138   0.779   8.894   5.139 -0.9693  2.1518  3.2701
  631MOL0     H85139   0.547   8.966   5.079 -1.0943  0.3350 -1.2974
  631MOL0     H85140   0.614   9.075   4.957  2.6267  0.3104 -0.1098
  631MOL0     H85141   0.671   8.784   4.949  4.2034  2.0787  1.2551
  631MOL0     H85142   0.723   8.905   4.834  1.7580 -2.3273  1.3353
  631MOL0     H85143   0.496   8.958   4.774  0.5374  1.1596  1.6511
  631MOL0     H85144   0.441   8.829   4.895 -1.7714  0.4448 -1.1845
  631MOL0     H85145   0.523   8.521   4.622  0.7362 -0.7154 -0.6622
  631MOL0     H85146   0.339   8.428   4.476  0.8447  0.7647 -1.7414
  631MOL0     H85147   0.016   8.547   4.158  0.2415 -1.4077 -0.6533
  631MOL0     H85148  -0.137   8.459   3.996  0.9533  0.4554 -0.7452
  631MOL0     H85149  -0.347   8.339   3.903 -0.0011  1.4451 -2.9680
  631MOL0     H85150  -0.185   8.303   3.837 -0.0225  1.8949  0.6036
  631MOL0     H85151  -0.411   8.099   3.810 -0.6228 -0.7751 -2.4491
  631MOL0     H85152  -0.359   8.205   3.692 -0.3648  0.9857  0.8650
  631MOL0     H85153  -0.134   8.105   3.708  0.7202 -0.9739  0.5578
  631MOL0     H85154  -0.189   7.985   3.832 -0.9963 -1.5044 -0.3503
  631MOL0     H85155  -0.322   8.019   3.564 -2.3233  1.8925  3.1802
  631MOL0     H85156  -0.363   7.908   3.684  0.3488  0.5478  1.2861
  631MOL0     H85157  -0.222   7.778   3.514  4.3923 -0.6148 -2.4130
  631MOL0     H85158  -0.125   7.784   3.658  2.6395 -1.8849 -4.0890
  631MOL0     H85159   0.041   7.924   3.578  2.7803 -1.4478 -1.7485
  631MOL0     H85160   0.003   7.819   3.443  2.8974  1.9424 -0.1764
  631MOL0     H85161  -0.106   8.110   3.477  1.1700 -0.2074 -0.0907
  631MOL0     H85162  -0.174   8.011   3.362  0.3808  0.4476 -1.3816
  631MOL0     H85163   0.139   8.073   3.387 -0.8118 -0.8227  2.3962
  631MOL0     H85164   0.064   7.989   3.253 -1.3652  0.7195 -0.7194
  631MOL0     H85165  -0.127   8.082   4.224  2.1095 -0.4047  1.7435
  631MOL0     H85166   0.028   8.187   4.376  0.9579  0.5894 -0.8598
  631MOL0     H85167   0.107   8.770   4.581 -1.6323 -2.1263 -1.2444
  631MOL0     H85168   0.280   8.871   4.702  0.9198  0.4276 -0.3908
  631MOL0     H85169   1.271   8.957   5.687  1.7229 -0.7186  1.0053
  631MOL0     H85170   1.133   8.789   5.823 -1.5601  1.2961 -2.1626
  631MOL0     H85171   1.112   8.634   6.220  0.0919  0.3643  5.0489
  631MOL0     H85172   1.093   8.424   6.312  0.4371 -1.2230 -2.4805
  631MOL0     H85173   0.677   8.224   6.340  1.2597 -2.4542  0.3355
  631MOL0     H85174   0.695   8.345   6.454  0.4463  0.0345  0.1282
  631MOL0     H85175   0.686   8.139   6.578  1.2151 -0.6657  1.8710
  631MOL0     H85176   0.849   8.211   6.584  0.5779  0.9503 -1.7589
  631MOL0     H85177   0.889   7.983   6.546  1.5801  0.5752 -0.2316
  631MOL0     H85178   0.900   8.046   6.384  0.7219 -2.8789 -0.8553
  631MOL0     H85179   0.641   7.942   6.488  1.2999 -1.4811  1.4323
  631MOL0     H85180   0.663   8.011   6.330  2.3779  0.7516 -0.2629
  631MOL0     H85181   0.818   7.605   6.298  0.1058 -0.1853 -0.8576
  631MOL0     H85182   0.669   8.425   6.242 -0.6330  2.4014 -0.4736
  631MOL0     H85183   0.662   8.605   5.970  0.9183  2.9021 -0.0802
  631MOL0     H85184   0.559   8.617   6.122 -0.9127 -0.6398 -1.4115
  631MOL0     H85185   0.665   8.746   6.083  1.1132  0.4479  0.8116
  632MOL0     O85186   9.762   8.053   8.171  0.4801  0.4179  0.1952
  632MOL0     C85187   9.788   7.944   8.122 -0.2629 -0.0124  0.1562
  632MOL0     O85188   9.695   7.863   8.074 -0.0491  0.2849  0.2112
  632MOL0     C85189   9.566   7.896   8.101  0.0957  0.1609  0.0914
  632MOL0     C85190   9.504   7.854   8.220  0.2118  0.6173  0.3012
  632MOL0     C85191   9.363   7.883   8.250  0.3889  0.8824 -0.1459
  632MOL0     C85192   9.282   7.936   8.147 -0.4845  0.3543  0.8423
  632MOL0     O85193   9.154   7.977   8.165  0.1519 -0.2508 -0.2137
  632MOL0     C85194   9.104   8.023   8.295 -0.3434  0.0444  0.4313
  632MOL0     C85195   9.014   7.920   8.366 -1.0742 -0.0232 -0.0927
  632MOL0     C85196   8.871   7.907   8.300  0.0818  0.9962 -0.6560
  632MOL0     C85197   8.782   7.816   8.399  0.6455 -0.0354  0.2915
  632MOL0     C85198   8.635   7.814   8.356 -0.0860  0.9900 -0.2175
  632MOL0     C85199   8.604   7.709   8.255 -0.3443 -0.0964 -0.1451
  632MOL0     C85200   8.449   7.688   8.251 -0.0218  0.5978 -0.0170
  632MOL0     C85201   8.388   7.772   8.144 -0.0135  0.5997  0.1124
  632MOL0     N85202   8.237   7.773   8.149 -0.6870  0.1331  0.2667
  632MOL0     C85203   8.153   7.669   8.114  1.2445 -0.0358  0.2220
  632MOL0     C85204   8.025   7.717   8.122  0.4293 -0.2779  1.3232
  632MOL0     C85205   7.894   7.651   8.066 -0.7919  0.5453  0.0949
  632MOL0     C85206   7.779   7.750   8.022  0.4391  0.0907 -0.9607
  632MOL0     C85207   7.703   7.790   8.148 -0.0048 -0.4989  0.3223
  632MOL0     C85208   7.598   7.896   8.105 -0.1557 -0.0508 -0.0409
  632MOL0     O85209   7.544   7.859   7.977 -0.4266 -0.1774 -0.5015
  632MOL0     C85210   7.416   7.829   7.982  0.1222 -0.2159 -0.2433
  632MOL0     C85211   7.344   7.863   7.860 -0.5688 -0.1117 -0.1204
  632MOL0     C85212   7.212   7.829   7.835 -0.6720 -0.0113  0.3166
  632MOL0     C85213   7.147   7.757   7.929  0.5290  0.1656 -0.7082
  632MOL0     C85214   7.002   7.731   7.910  0.4929 -0.1248  0.5707
  632MOL0     O85215   6.945   7.746   7.786  0.0184  0.2110  0.6218
  632MOL0     C85216   6.814   7.725   7.767  0.9493 -0.0008 -0.1852
  632MOL0     C85217   6.725   7.637   7.834 -0.3121 -0.3732 -0.6508
  632MOL0     C85218   6.583   7.633   7.812  0.0860 -0.2885  0.2980
  632MOL0     C85219   6.524   7.701   7.703  0.4933  0.1416  0.0161
  632MOL0     O85220   6.383   7.675   7.681 -0.2475 -0.2626 -0.8063
  632MOL0     C85221   6.327   7.764   7.571  0.3580  0.6970 -0.0975
  632MOL0     C85222   6.178   7.732   7.555 -0.5929 -0.6249  0.1634
  632MOL0     C85223   6.176   7.594   7.495  0.8419  0.5303  1.1787
  632MOL0     C85224   6.032   7.549   7.465 -0.4564  0.4327 -0.0803
  632MOL0     C85225   6.034   7.420   7.382  0.6171  0.7253 -0.2454
  632MOL0     C85226   5.897   7.372   7.350  0.5730  0.2586 -0.3076
  632MOL0     C85227   5.891   7.244   7.266  0.2444 -0.4616  0.5580
  632MOL0     C85228   5.752   7.199   7.243  1.0628 -0.7748 -0.4557
  632MOL0    Cl85229   5.746   7.024   7.180 -0.0452 -0.5079  0.3705
  632MOL0     C85230   6.610   7.774   7.629  1.0135 -0.7036  0.1499
  632MOL0     C85231   6.752   7.792   7.661 -0.3211 -0.0607 -0.6023
  632MOL0     O85232   6.943   7.727   8.019 -0.0541 -0.2236  0.3206
  632MOL0     C85233   7.213   7.718   8.044  0.1806  0.4554  0.2439
  632MOL0     C85234   7.345   7.758   8.075  0.6878 -0.7707 -0.0386
  632MOL0     N85235   8.038   7.837   8.185 -0.4420  0.3748  0.7075
  632MOL0     N85236   8.163   7.873   8.198 -0.3363  0.2640  0.2733
  632MOL0     C85237   9.346   7.991   8.037 -0.1844 -0.2497  1.0272
  632MOL0     C85238   9.483   7.971   8.008 -0.1849  0.3857  0.1588
  632MOL0     C85239   9.927   7.919   8.084 -0.4069 -0.4529 -0.7510
  632MOL0     C85240   9.956   7.792   8.038  0.3494  0.6142 -0.6268
  632MOL0     C85241  10.088   7.737   8.021  0.5512 -0.6088 -0.0918
  632MOL0     C85242  10.199   7.822   8.041  0.2414 -0.2815  0.3694
  632MOL0     O85243  10.321   7.773   8.016 -0.2520  0.0528  0.2286
  632MOL0     C85244  10.359   7.788   7.874  0.6158 -0.5577 -1.3413
  632MOL0     C85245  10.458   7.682   7.843 -0.3923  0.1310  0.2506
  632MOL0     C85246  10.531   7.699   7.704 -0.5052 -0.1469 -0.6813
  632MOL0     C85247  10.650   7.621   7.700  0.9783 -0.2063  1.2175
  632MOL0     C85248  10.756   7.671   7.793  0.3963 -0.7786  0.9000
  632MOL0     C85249  10.849   7.704   7.864 -0.3095 -0.5744 -0.1882
  632MOL0     C85250  10.174   7.949   8.079 -0.1966 -0.4125 -0.3127
  632MOL0     C85251  10.042   8.006   8.096  1.3660  0.2293  0.7262
  632MOL0     C85252  10.020   8.150   8.132  0.1903  0.8943  0.3103
  632MOL0     H85253   9.570   7.820   8.299 -0.3226  0.6943  0.7904
  632MOL0     H85254   9.314   7.844   8.339 -3.2055 -5.1361 -4.0854
  632MOL0     H85255   9.184   8.036   8.369 -0.0831 -0.2793  0.2119
  632MOL0     H85256   9.053   8.120   8.292 -0.1334  0.1310 -1.5150
  632MOL0     H85257   8.992   7.941   8.471 -1.3950  0.3633 -0.2339
  632MOL0     H85258   9.073   7.829   8.351 -0.7357 -0.0940  1.5539
  632MOL0     H85259   8.857   7.864   8.200 -2.1602  4.0832 -1.8312
  632MOL0     H85260   8.823   8.006   8.297  1.3486  1.5979 -2.2811
  632MOL0     H85261   8.823   7.714   8.402  1.8580  0.2501 -2.5751
  632MOL0     H85262   8.787   7.865   8.496 -0.9687  1.3951 -0.3087
  632MOL0     H85263   8.567   7.799   8.440  0.4644 -0.8654 -0.0652
  632MOL0     H85264   8.617   7.911   8.308  1.1685  3.7107  4.1934
  632MOL0     H85265   8.648   7.738   8.159  0.3455  1.3664  0.5857
  632MOL0     H85266   8.656   7.617   8.282  0.6375  0.4195 -0.2355
  632MOL0     H85267   8.405   7.697   8.351  1.1578 -1.0155  0.7017
  632MOL0     H85268   8.430   7.583   8.225 -0.8342  0.9876 -1.0531
  632MOL0     H85269   8.425   7.874   8.146 -0.6297  0.8273  0.0698
  632MOL0     H85270   8.413   7.739   8.043 -0.6415 -0.9300  0.4224
  632MOL0     H85271   8.195   7.574   8.083  0.1991 -1.6191  3.2811
  632MOL0     H85272   7.926   7.592   7.980  3.1425 -2.0340  2.9432
  632MOL0     H85273   7.858   7.589   8.149 -1.6921  1.2658  0.2542
  632MOL0     H85274   7.813   7.832   7.959  2.0691 -0.3091 -0.6627
  632MOL0     H85275   7.716   7.684   7.961  1.0768 -0.0522 -1.4739
  632MOL0     H85276   7.762   7.840   8.226 -0.3633 -0.9014  0.8609
  632MOL0     H85277   7.637   7.715   8.192 -3.7736  1.5367 -1.3171
  632MOL0     H85278   7.646   7.994   8.097  1.3872 -0.7506  0.3037
  632MOL0     H85279   7.529   7.920   8.186 -1.0045  0.5880 -0.9288
  632MOL0     H85280   7.404   7.919   7.789  0.3039 -0.1823  0.5443
  632MOL0     H85281   7.176   7.848   7.734 -1.0059  0.1852  0.4695
  632MOL0     H85282   6.765   7.569   7.909  0.5958 -0.1573 -0.9170
  632MOL0     H85283   6.523   7.566   7.873 -2.8382  1.2984 -0.6750
  632MOL0     H85284   6.332   7.869   7.602  1.6061  1.0494 -1.3585
  632MOL0     H85285   6.374   7.752   7.473  3.0193  1.5686  0.9786
  632MOL0     H85286   6.125   7.745   7.650 -0.9931  1.4393 -0.3088
  632MOL0     H85287   6.138   7.800   7.480  1.6214  0.7629  0.1593
  632MOL0     H85288   6.230   7.601   7.400  0.1820  1.0825  0.8331
  632MOL0     H85289   6.225   7.524   7.564 -2.2199 -3.1831 -0.0892
  632MOL0     H85290   5.975   7.624   7.410  0.4547  0.6177 -0.7968
  632MOL0     H85291   5.971   7.537   7.555  0.3291 -0.3553  0.3659
  632MOL0     H85292   6.074   7.345   7.452 -0.3781 -1.6330 -2.0476
  632MOL0     H85293   6.090   7.431   7.289  0.3705  0.2105 -0.4619
  632MOL0     H85294   5.840   7.348   7.441 -0.3122 -0.6475 -1.0748
  632MOL0     H85295   5.834   7.450   7.306  2.7301  0.8753 -2.4710
  632MOL0     H85296   5.949   7.160   7.303  3.3168  0.7975 -1.0224
  632MOL0     H85297   5.936   7.267   7.168 -0.5774 -2.9900 -0.4934
  632MOL0     H85298   5.693   7.196   7.336  0.1581  1.7822 -0.8490
  632MOL0     H85299   5.707   7.270   7.174  2.7675 -0.6298 -1.4675
  632MOL0     H85300   6.572   7.836   7.549  2.9192  1.3216  0.6966
  632MOL0     H85301   6.808   7.860   7.597 -2.3907  1.5607 -0.8132
  632MOL0     H85302   7.178   7.665   8.131  0.5663  0.3295  0.3250
  632MOL0     H85303   7.390   7.713   8.163  0.2375 -0.5288  0.3159
  632MOL0     H85304   9.282   8.045   7.968  0.1966  2.1363  2.4298
  632MOL0     H85305   9.535   8.010   7.921  2.8098 -0.8608  1.2571
  632MOL0     H85306   9.876   7.719   8.027  1.6912 -1.1437  0.7342
  632MOL0     H85307  10.101   7.633   7.994  0.4470 -0.5393 -0.4096
  632MOL0     H85308  10.394   7.891   7.857  1.7341 -0.7291 -0.2298
  632MOL0     H85309  10.271   7.777   7.811 -1.7770 -0.3842  1.7220
  632MOL0     H85310  10.405   7.588   7.855  2.7772 -1.5364  2.5158
  632MOL0     H85311  10.530   7.683   7.925 -0.1752  2.0985  0.1017
  632MOL0     H85312  10.555   7.806   7.695 -2.2740  0.6018  2.0824
  632MOL0     H85313  10.462   7.676   7.623  0.3675  2.4012 -2.2858
  632MOL0     H85314  10.617   7.520   7.729  1.3494 -0.7045 -0.0386
  632MOL0     H85315  10.684   7.614   7.596 -0.6957 -1.8074  0.7188
  632MOL0     H85316  10.939   7.747   7.903 -0.8322  2.4566 -1.9961
  632MOL0     H85317  10.263   8.010   8.088  1.3170 -2.0702 -2.9061
  632MOL0     H85318   9.979   8.163   8.233 -0.5164 -0.3572  0.2070
  632MOL0     H85319  10.116   8.203   8.127  0.9422 -0.5427 -2.3047
  632MOL0     H85320   9.960   8.190   8.050  0.2128 -2.5317 -1.5198
  633MOL0     O85321   1.559   1.979  10.068 -0.2218 -0.9743 -0.3333
  633MOL0     C85322   1.656   1.947  10.006 -0.2472  0.2285  0.0285
  633MOL0     O85323   1.665   1.821   9.951  0.7165 -0.3848  0.2246
  633MOL0     C85324   1.572   1.731   9.995  0.6133 -1.4377 -1.0140
  633MOL0     C85325   1.552   1.704  10.133 -0.1228 -0.0118  0.0493
  633MOL0     C85326   1.447   1.613  10.165  0.1055  0.0561  0.9353
  633MOL0     C85327   1.364   1.557  10.064  0.5015  0.3380  0.7247
  633MOL0     O85328   1.269   1.477  10.114 -0.5288 -0.1609 -1.3844
  633MOL0     C85329   1.159   1.435  10.033  0.3304  0.0903 -1.3478
  633MOL0     C85330   1.044   1.389  10.126  0.1474 -0.1249 -0.4011
  633MOL0     C85331   1.007   1.500  10.221  0.4444 -0.7897  0.0287
  633MOL0     C85332   0.884   1.466  10.302  0.1856 -1.3598  0.6524
  633MOL0     C85333   0.888   1.560  10.424  0.3723  0.5826  0.5792
  633MOL0     C85334   0.848   1.705  10.379  0.8391  0.5621 -0.9075
  633MOL0     C85335   0.934   1.818  10.430  0.7101 -0.3850  0.1635
  633MOL0     C85336   0.895   1.849  10.576 -0.0015  0.3539 -0.0283
  633MOL0     N85337   0.965   1.975  10.615 -0.0200 -0.2578  0.4937
  633MOL0     C85338   1.084   1.982  10.681  1.0236 -0.5638  0.4661
  633MOL0     C85339   1.090   2.115  10.709  0.7981 -0.9978  0.0321
  633MOL0     C85340   1.220   2.171  10.745  0.0406 -0.7108  0.6861
  633MOL0     C85341   1.238   2.317  10.702 -0.5213  0.5827  0.2377
  633MOL0     C85342   1.377   2.369  10.737  0.0787 -0.7591  0.2923
  633MOL0     C85343   1.496   2.300  10.663 -0.3170  0.2282  0.2500
  633MOL0     O85344   1.496   2.350  10.523  0.0549  0.4252  0.8509
  633MOL0     C85345   1.618   2.406  10.497 -0.5204 -0.5722 -0.6203
  633MOL0     C85346   1.626   2.544  10.536 -0.1047  0.8925  0.1398
  633MOL0     C85347   1.740   2.617  10.501  0.8002  0.3237  0.2671
  633MOL0     C85348   1.846   2.550  10.431  0.4223  0.2956 -0.5042
  633MOL0     C85349   1.967   2.619  10.385  0.3810 -1.4167 -0.7945
  633MOL0     O85350   1.991   2.744  10.447 -0.8877  0.1752 -0.4155
  633MOL0     C85351   2.103   2.818  10.408 -1.4209  1.3244 -0.6818
  633MOL0     C85352   2.107   2.907  10.297 -0.1793  1.0764 -0.0387
  633MOL0     C85353   2.230   2.978  10.271  0.5361  0.8830  0.7666
  633MOL0     C85354   2.349   2.958  10.337  0.3921  0.3168 -0.1847
  633MOL0     O85355   2.465   3.023  10.300  0.2832 -0.8141  0.3672
  633MOL0     C85356   2.588   2.968  10.316  0.1480 -0.5770  0.1461
  633MOL0     C85357   2.604   2.859  10.207 -0.6429 -1.1111 -0.0406
  633MOL0     C85358   2.736   2.787  10.228  0.4476  0.7045 -0.1526
  633MOL0     C85359   2.724   2.652  10.147  0.2243  0.9256  0.2300
  633MOL0     C85360   2.748   2.661   9.994 -0.1355 -0.0742  0.9572
  633MOL0     C85361   2.766   2.522   9.931  0.2378  0.1995 -0.8844
  633MOL0     C85362   2.804   2.522   9.778  0.1618  0.4599  0.4546
  633MOL0     C85363   2.925   2.425   9.756 -0.1515  0.5140  0.4411
  633MOL0    Cl85364   2.981   2.440   9.586  0.8106  0.1528 -0.4513
  633MOL0     C85365   2.350   2.848  10.430 -0.1160 -0.4991 -0.3966
  633MOL0     C85366   2.228   2.791  10.470  0.3243 -0.1961 -0.3076
  633MOL0     O85367   2.016   2.585  10.281  0.0225 -0.7498 -0.3792
  633MOL0     C85368   1.837   2.413  10.406 -0.0261 -0.8451 -0.8018
  633MOL0     C85369   1.722   2.340  10.438  0.4540  0.3280  0.6646
  633MOL0     N85370   0.974   2.186  10.686  0.0584  0.3502 -0.1772
  633MOL0     N85371   0.900   2.097  10.626  0.1215  0.2758 -0.2162
  633MOL0     C85372   1.403   1.581   9.925  0.5122  0.9833  0.7262
  633MOL0     C85373   1.506   1.666   9.894  0.3992  0.0689 -0.1718
  633MOL0     C85374   1.776   2.027   9.989  0.4992 -0.2981 -0.1486
  633MOL0     C85375   1.891   1.973   9.931  0.9943  0.7860  0.2474
  633MOL0     C85376   2.010   2.047   9.922  0.1703  0.7276 -0.0194
  633MOL0     C85377   2.009   2.182   9.948  0.1884 -0.5457 -0.6054
  633MOL0     O85378   2.120   2.258   9.916  0.6827 -0.0772 -0.2022
  633MOL0     C85379   2.136   2.390   9.975  0.9307 -0.7243 -0.1856
  633MOL0     C85380   2.292   2.434   9.984  1.0487 -0.1134  0.2281
  633MOL0     C85381   2.386   2.356  10.071  0.4030 -0.3002  0.8161
  633MOL0     C85382   2.426   2.222  10.023 -0.1600 -0.7052 -0.5733
  633MOL0     C85383   2.476   2.223   9.885  1.0418 -0.6529 -0.4315
  633MOL0     C85384   2.507   2.202   9.769 -0.4474 -0.0310  0.5422
  633MOL0     C85385   1.893   2.242  10.003 -0.3958 -0.7137 -0.2429
  633MOL0     C85386   1.781   2.165  10.028  1.0462 -0.0786 -0.9952
  633MOL0     C85387   1.647   2.243  10.071  0.3376 -0.1877  0.3475
  633MOL0     H85388   1.612   1.757  10.207 -1.9677  2.5303 -0.1534
  633MOL0     H85389   1.426   1.597  10.270  0.8088 -0.8180  0.9484
  633MOL0     H85390   1.118   1.514   9.970 -1.6142 -0.0305 -0.2852
  633MOL0     H85391   1.192   1.351   9.970  0.2651  0.3851 -1.7802
  633MOL0     H85392   1.066   1.306  10.194 -3.0810  1.1498  2.5427
  633MOL0     H85393   0.960   1.357  10.063  0.6755 -0.7899 -0.7739
  633MOL0     H85394   0.993   1.599  10.176 -1.0289  0.0617  2.2109
  633MOL0     H85395   1.088   1.509  10.294 -2.3296 -1.1651  3.3903
  633MOL0     H85396   0.789   1.476  10.249 -0.1605 -1.7230  1.2045
  633MOL0     H85397   0.894   1.366  10.347  2.3467 -1.8322 -0.7127
  633MOL0     H85398   0.824   1.520  10.504  0.6963 -1.0108  0.0739
  633MOL0     H85399   0.988   1.567  10.469  0.8529 -1.4447 -0.0444
  633MOL0     H85400   0.844   1.717  10.270 -3.7960  0.8290 -0.9028
  633MOL0     H85401   0.744   1.729  10.402  1.5027  4.5955 -1.3539
  633MOL0     H85402   0.909   1.910  10.376  1.9125  0.6291  1.2784
  633MOL0     H85403   1.040   1.790  10.429  0.9247  0.3682 -1.0627
  633MOL0     H85404   0.792   1.884  10.583  0.4700  1.7141  0.3856
  633MOL0     H85405   0.918   1.769  10.647 -0.2479  2.3355  2.4259
  633MOL0     H85406   1.158   1.903  10.682  0.6571 -0.9082  0.5628
  633MOL0     H85407   1.242   2.170  10.852 -1.6111  1.2334  1.1080
  633MOL0     H85408   1.296   2.114  10.691 -0.2935  0.5941 -1.2814
  633MOL0     H85409   1.225   2.323  10.593  2.9788  0.3452 -0.3228
  633MOL0     H85410   1.161   2.377  10.750 -1.9761  0.8379 -2.2109
  633MOL0     H85411   1.396   2.355  10.844  0.0060  0.0460  0.4210
  633MOL0     H85412   1.390   2.475  10.710  0.9322 -0.5653  1.4050
  633MOL0     H85413   1.507   2.191  10.657  1.7806  0.3903  0.4345
  633MOL0     H85414   1.585   2.336  10.716 -0.5317  2.2513 -0.6835
  633MOL0     H85415   1.544   2.595  10.585 -0.6319 -0.7061  1.0070
  633MOL0     H85416   1.750   2.722  10.527  3.7614  0.2393 -0.1293
  633MOL0     H85417   2.015   2.933  10.245 -2.0380  0.7717  2.8593
  633MOL0     H85418   2.237   3.039  10.181  0.1951 -1.8900 -1.2544
  633MOL0     H85419   2.664   3.045  10.298 -0.1581 -0.6916 -1.8499
  633MOL0     H85420   2.596   2.940  10.422  1.2825  1.1082  0.5526
  633MOL0     H85421   2.522   2.788  10.213 -0.4266 -1.4340 -0.8055
  633MOL0     H85422   2.602   2.905  10.108 -4.6199 -2.4255 -0.7289
  633MOL0     H85423   2.825   2.849  10.214 -0.1173  2.1251  2.1057
  633MOL0     H85424   2.730   2.752  10.331 -3.1069 -0.0115 -0.4794
  633MOL0     H85425   2.624   2.612  10.167  0.1023  0.8438 -0.5121
  633MOL0     H85426   2.807   2.588  10.179 -0.5954  0.4649  1.5071
  633MOL0     H85427   2.828   2.732   9.967  0.0628 -0.1651  1.2972
  633MOL0     H85428   2.660   2.716   9.960  1.7361  1.7080 -1.3395
  633MOL0     H85429   2.850   2.471   9.980 -0.0516 -1.9864 -2.5186
  633MOL0     H85430   2.681   2.453   9.939 -1.2687  1.9288 -1.3343
  633MOL0     H85431   2.844   2.621   9.754  1.4941 -0.3634 -0.8288
  633MOL0     H85432   2.714   2.507   9.718  0.2142  3.8720 -0.7284
  633MOL0     H85433   3.007   2.456   9.821 -0.2171  3.3458 -0.6971
  633MOL0     H85434   2.888   2.323   9.770 -2.5905  0.9715 -1.7007
  633MOL0     H85435   2.441   2.816  10.480 -0.0810 -1.9959 -1.3350
  633MOL0     H85436   2.224   2.720  10.552  1.9068  1.0811  0.9421
  633MOL0     H85437   1.918   2.369  10.349  1.2638 -2.3895  2.0209
  633MOL0     H85438   1.722   2.237  10.401 -0.4677  0.3408  0.6172
  633MOL0     H85439   1.347   1.524   9.851  1.5597 -2.0528  2.1094
  633MOL0     H85440   1.533   1.695   9.793 -0.4274 -0.0256 -0.4264
  633MOL0     H85441   1.898   1.869   9.903  1.1565  1.2275 -1.4235
  633MOL0     H85442   2.103   2.015   9.877 -1.6503 -1.4010 -2.6279
  633MOL0     H85443   2.098   2.400  10.077  0.7873  1.6865 -0.4208
  633MOL0     H85444   2.076   2.463   9.921  0.7385 -0.4221  0.4268
  633MOL0     H85445   2.295   2.540  10.012 -0.1517 -0.7645  3.1223
  633MOL0     H85446   2.317   2.437   9.877  1.0582 -0.8524  0.2046
  633MOL0     H85447   2.337   2.343  10.168  0.4628 -2.5015  0.5994
  633MOL0     H85448   2.470   2.424  10.093  0.0195  0.1990  0.7557
  633MOL0     H85449   2.498   2.187  10.097 -0.5613  0.6661  0.4838
  633MOL0     H85450   2.338   2.156  10.027 -2.6586  2.3702 -0.6580
  633MOL0     H85451   2.528   2.192   9.664  4.2049  3.0250  0.8653
  633MOL0     H85452   1.879   2.346  10.031 -3.0998 -1.3362  1.0788
  633MOL0     H85453   1.618   2.213  10.172 -0.4262 -2.6028 -0.5234
  633MOL0     H85454   1.662   2.350  10.085  0.9174 -0.2139 -0.0554
  633MOL0     H85455   1.570   2.220   9.997 -0.3052 -2.5728  1.6649
  634MOL0     O85456   0.984   7.124   1.169  0.1805 -0.0493  0.0858
  634MOL0     C85457   0.943   7.190   1.263  0.3708  1.1810 -0.0418
  634MOL0     O85458   1.013   7.276   1.341  0.2404  0.2908 -0.3787
  634MOL0     C85459   1.143   7.304   1.315 -0.4120  0.0514  0.0177
  634MOL0     C85460   1.196   7.305   1.182 -0.0321 -0.7419  0.6807
  634MOL0     C85461   1.323   7.358   1.160 -0.2607 -0.4898  0.0547
  634MOL0     C85462   1.415   7.386   1.265 -0.6519 -0.2675 -0.5300
  634MOL0     O85463   1.546   7.415   1.225  0.8665  0.2286  0.0256
  634MOL0     C85464   1.651   7.445   1.320  1.0623 -0.8242 -0.0315
  634MOL0     C85465   1.722   7.310   1.346 -0.2868  0.1476 -0.0752
  634MOL0     C85466   1.812   7.311   1.477  0.1659 -0.6037  1.0119
  634MOL0     C85467   1.899   7.191   1.495 -0.1316  0.4785 -0.4776
  634MOL0     C85468   2.011   7.225   1.598 -0.1277  0.6515 -0.1022
  634MOL0     C85469   1.962   7.216   1.745  0.1865  0.2098 -0.1582
  634MOL0     C85470   2.076   7.160   1.826  0.3090 -0.0411 -0.0399
  634MOL0     C85471   2.056   7.134   1.973  0.2345  0.1881 -0.3602
  634MOL0     N85472   1.933   7.049   1.999 -0.0977  0.2829  0.0185
  634MOL0     C85473   1.833   7.068   2.100  0.1946  0.8944  0.0876
  634MOL0     C85474   1.774   6.948   2.097  0.4087 -0.7391  0.2262
  634MOL0     C85475   1.652   6.915   2.185 -0.1073 -0.2890  0.2049
  634MOL0     C85476   1.691   6.906   2.336  0.3895  1.1642 -0.4730
  634MOL0     C85477   1.802   6.795   2.356  0.2486 -0.5579  0.2208
  634MOL0     C85478   1.767   6.649   2.301 -0.3270 -1.3075 -0.5926
  634MOL0     O85479   1.859   6.560   2.366  0.0220 -0.3502  0.2437
  634MOL0     C85480   1.995   6.577   2.350 -0.1947  0.1787  0.0748
  634MOL0     C85481   2.050   6.651   2.248  0.0384  0.5629  0.6174
  634MOL0     C85482   2.190   6.670   2.246 -0.6152  0.1583 -0.2638
  634MOL0     C85483   2.275   6.620   2.350  0.2854  0.0426 -0.3483
  634MOL0     C85484   2.419   6.636   2.346 -0.7193 -0.9524  0.3915
  634MOL0     O85485   2.464   6.688   2.230 -0.5718 -0.1670  0.6653
  634MOL0     C85486   2.600   6.695   2.212  0.4930  0.7876 -0.1065
  634MOL0     C85487   2.686   6.588   2.205  0.4856  1.1710  0.0843
  634MOL0     C85488   2.825   6.604   2.223  0.6033  0.5110  0.1911
  634MOL0     C85489   2.884   6.732   2.223 -0.7788 -0.1667 -0.0593
  634MOL0     O85490   3.019   6.761   2.224  0.6430 -0.5240  0.0834
  634MOL0     C85491   3.107   6.659   2.171  1.2656  0.7417  0.8345
  634MOL0     C85492   3.241   6.730   2.171  1.5906  0.8834  0.3680
  634MOL0     C85493   3.248   6.855   2.081 -0.9930  0.5111  0.6117
  634MOL0     C85494   3.291   6.817   1.936 -0.4190  0.2751 -0.1981
  634MOL0     C85495   3.448   6.789   1.934 -0.1745  0.8222  0.5461
  634MOL0     C85496   3.528   6.787   1.807  1.1078 -0.4486 -0.5050
  634MOL0     C85497   3.681   6.782   1.807 -1.2956  0.2754  0.4351
  634MOL0     C85498   3.733   6.745   1.665 -0.1885  0.7395  0.5999
  634MOL0    Cl85499   3.706   6.576   1.621 -0.3237  0.4254 -0.2167
  634MOL0     C85500   2.793   6.836   2.223 -0.3030  0.4052 -0.5398
  634MOL0     C85501   2.653   6.823   2.226 -0.2883  0.8669 -0.2290
  634MOL0     O85502   2.491   6.601   2.440 -0.0799 -0.5372 -0.7444
  634MOL0     C85503   2.210   6.558   2.459  0.3533 -0.0255  0.9723
  634MOL0     C85504   2.075   6.526   2.457 -0.2629  0.0294  1.1521
  634MOL0     N85505   1.825   6.866   1.999  0.2900 -0.4071 -1.0104
  634MOL0     N85506   1.920   6.932   1.939 -0.9525 -0.4345 -1.3522
  634MOL0     C85507   1.375   7.345   1.396  0.3238  0.4033  0.1763
  634MOL0     C85508   1.239   7.306   1.418 -0.2051  0.0778  0.7166
  634MOL0     C85509   0.805   7.154   1.317  0.1882 -0.4851 -0.4654
  634MOL0     C85510   0.755   7.226   1.425  0.5781 -0.4318 -0.9951
  634MOL0     C85511   0.631   7.198   1.470 -0.3703  0.3452  0.0384
  634MOL0     C85512   0.545   7.109   1.404  0.1491 -0.4485  0.6495
  634MOL0     O85513   0.430   7.089   1.471  0.1234  0.3055 -0.1913
  634MOL0     C85514   0.306   7.052   1.401  0.0620 -0.6687  0.5996
  634MOL0     C85515   0.269   7.166   1.309 -0.3082  0.4145  0.4487
  634MOL0     C85516   0.203   7.286   1.389 -0.7244 -0.3281  0.1029
  634MOL0     C85517   0.061   7.253   1.439  0.4139  0.2415  0.6311
  634MOL0     C85518  -0.023   7.176   1.351  0.2858  0.0799  0.6171
  634MOL0     C85519  -0.098   7.112   1.279 -0.1198  0.6742 -0.3700
  634MOL0     C85520   0.588   7.040   1.294 -0.0140  0.0414 -0.2328
  634MOL0     C85521   0.721   7.060   1.242 -0.0200  0.2940  0.6093
  634MOL0     C85522   0.740   6.991   1.102  0.6281 -0.5508 -0.4852
  634MOL0     H85523   1.129   7.292   1.097  1.1505  0.5350 -0.5253
  634MOL0     H85524   1.361   7.343   1.059  0.3284 -2.3095  0.5007
  634MOL0     H85525   1.729   7.515   1.289  0.2798 -0.1179 -0.4624
  634MOL0     H85526   1.610   7.493   1.410  3.4451 -1.5771  1.5422
  634MOL0     H85527   1.790   7.283   1.265  1.2117 -4.3885  2.3657
  634MOL0     H85528   1.649   7.229   1.356  1.9833 -1.7210  3.7373
  634MOL0     H85529   1.751   7.321   1.567  0.5647  1.7070  1.0727
  634MOL0     H85530   1.875   7.400   1.474  0.8824 -1.1144  0.1747
  634MOL0     H85531   1.835   7.107   1.527 -1.3983  1.6695  0.2343
  634MOL0     H85532   1.947   7.169   1.399  1.5864  0.3631  0.3769
  634MOL0     H85533   2.105   7.170   1.585 -0.6403  0.1878 -2.3062
  634MOL0     H85534   2.042   7.327   1.575  0.5830  0.7441  1.1671
  634MOL0     H85535   1.958   7.320   1.780  1.5576 -0.0951  0.9676
  634MOL0     H85536   1.868   7.162   1.759  0.8695 -0.9429  0.0833
  634MOL0     H85537   2.161   7.226   1.807  0.8517 -0.2460  1.5139
  634MOL0     H85538   2.104   7.061   1.788  0.5084  0.6464 -1.7569
  634MOL0     H85539   2.143   7.086   2.019  0.3950  0.8200  0.0166
  634MOL0     H85540   2.026   7.225   2.026 -1.9599 -0.3283 -0.6059
  634MOL0     H85541   1.816   7.153   2.165  1.3008  0.8887  0.4020
  634MOL0     H85542   1.570   6.986   2.173 -1.4622 -1.3058  2.5670
  634MOL0     H85543   1.605   6.822   2.151  0.9804 -0.3287 -1.2964
  634MOL0     H85544   1.720   7.003   2.378 -1.4187  0.3352  3.0964
  634MOL0     H85545   1.598   6.881   2.389  0.1387  0.9406 -1.0169
  634MOL0     H85546   1.835   6.783   2.460 -1.3512  0.1547  0.8327
  634MOL0     H85547   1.894   6.828   2.307  1.2934 -1.4700  1.4862
  634MOL0     H85548   1.760   6.630   2.193  0.4760 -4.3494 -0.1985
  634MOL0     H85549   1.670   6.616   2.337 -0.8137  0.4073 -0.2452
  634MOL0     H85550   2.005   6.714   2.172  1.3192 -0.4395 -1.0388
  634MOL0     H85551   2.239   6.720   2.163 -2.0992  2.0677 -0.0852
  634MOL0     H85552   2.631   6.495   2.195 -0.7056  1.6167  1.9700
  634MOL0     H85553   2.887   6.515   2.233 -0.6977 -0.4315  0.0055
  634MOL0     H85554   3.121   6.566   2.227  1.3266  0.6256  0.6262
  634MOL0     H85555   3.080   6.627   2.070  0.2592  0.0492  1.3090
  634MOL0     H85556   3.270   6.763   2.272 -0.9379  1.3142  1.0043
  634MOL0     H85557   3.320   6.659   2.144  0.6019 -0.9822  2.1207
  634MOL0     H85558   3.147   6.893   2.069 -1.9715 -1.3818  2.2615
  634MOL0     H85559   3.320   6.929   2.118  1.8149 -1.3328 -0.8129
  634MOL0     H85560   3.272   6.898   1.865  3.4863  1.1449 -0.4323
  634MOL0     H85561   3.239   6.723   1.913  2.7699 -2.9700  4.1204
  634MOL0     H85562   3.481   6.704   1.995  0.0659  2.1515  2.3501
  634MOL0     H85563   3.492   6.875   1.985 -2.7925  1.0556  2.6651
  634MOL0     H85564   3.492   6.695   1.760  0.5735 -1.0283  0.9705
  634MOL0     H85565   3.491   6.867   1.742 -0.3003 -0.6334  0.0288
  634MOL0     H85566   3.712   6.707   1.881 -0.4597  0.0999 -0.0840
  634MOL0     H85567   3.721   6.880   1.837 -1.3427  1.0978 -1.9561
  634MOL0     H85568   3.685   6.807   1.589  2.7496  1.9647 -0.3960
  634MOL0     H85569   3.837   6.778   1.655 -0.3209  0.7911 -0.9127
  634MOL0     H85570   2.840   6.932   2.242  0.3856 -0.3613  2.1732
  634MOL0     H85571   2.580   6.901   2.241  0.2210  1.2392  0.3645
  634MOL0     H85572   2.254   6.509   2.545 -2.4351 -0.5556  2.1932
  634MOL0     H85573   2.036   6.469   2.540  1.4986  0.7692  2.5615
  634MOL0     H85574   1.454   7.338   1.469  3.5787 -0.0867 -3.1117
  634MOL0     H85575   1.212   7.269   1.516  0.2846 -1.9918  0.1226
  634MOL0     H85576   0.813   7.290   1.490 -1.9932 -0.8605  1.9515
  634MOL0     H85577   0.598   7.239   1.565 -0.8954  3.3071 -1.3017
  634MOL0     H85578   0.222   7.048   1.470 -0.2010  5.4077  1.1231
  634MOL0     H85579   0.324   6.956   1.350  0.8595 -1.7433  2.7785
  634MOL0     H85580   0.195   7.133   1.235 -0.2898  1.0090  0.1514
  634MOL0     H85581   0.362   7.188   1.255 -0.8044  1.1890 -0.1183
  634MOL0     H85582   0.209   7.374   1.324 -0.0439 -0.6061 -0.2156
  634MOL0     H85583   0.265   7.316   1.474 -1.9074  0.0360  0.8570
  634MOL0     H85584   0.073   7.197   1.532  1.0804  0.1115  0.4742
  634MOL0     H85585   0.021   7.350   1.471  1.0776  0.4578  0.8346
  634MOL0     H85586  -0.162   7.046   1.224  1.3259 -0.1437 -1.1314
  634MOL0     H85587   0.509   6.992   1.237 -0.4126 -0.4779  0.7364
  634MOL0     H85588   0.747   7.069   1.026 -1.1832  1.4196  1.2361
  634MOL0     H85589   0.829   6.928   1.114  0.3752 -0.7656  0.3510
  634MOL0     H85590   0.655   6.926   1.081 -1.3699  1.8825 -0.3523
  635MOL0     O85591   6.670  10.876   4.984 -0.0469 -0.3202 -0.7409
  635MOL0     C85592   6.598  10.837   5.076  0.3288 -0.8592 -0.0847
  635MOL0     O85593   6.516  10.920   5.140 -0.1265  0.2699  0.3224
  635MOL0     C85594   6.502  11.046   5.081  0.2351 -0.7986  0.4277
  635MOL0     C85595   6.561  11.152   5.149  0.2780 -0.3535 -0.4684
  635MOL0     C85596   6.553  11.281   5.099 -0.0089 -0.5485  0.4161
  635MOL0     C85597   6.487  11.312   4.973  0.0120 -0.2882  0.1700
  635MOL0     O85598   6.488  11.442   4.926  0.4705  0.7018 -0.1220
  635MOL0     C85599   6.377  11.475   4.849 -0.0641 -0.4848  0.2707
  635MOL0     C85600   6.351  11.623   4.856  0.0033  0.2970  0.4185
  635MOL0     C85601   6.473  11.707   4.812  0.0749  0.4779 -0.2388
  635MOL0     C85602   6.490  11.842   4.879  0.8986 -0.5890  0.1027
  635MOL0     C85603   6.602  11.937   4.820 -0.7833  0.3561 -0.3384
  635MOL0     C85604   6.741  11.892   4.870  0.2361 -0.5231  0.6216
  635MOL0     C85605   6.862  11.972   4.822 -0.0962 -0.2953  1.1705
  635MOL0     C85606   6.861  12.123   4.870 -1.1761  0.3340 -0.3219
  635MOL0     N85607   7.002  12.174   4.863 -0.5408 -0.7181 -0.5344
  635MOL0     C85608   7.090  12.156   4.761  0.8090  0.1318  0.1373
  635MOL0     C85609   7.189  12.247   4.770 -0.4515 -1.4558 -0.2179
  635MOL0     C85610   7.290  12.278   4.673 -0.3441  0.3108  0.3871
  635MOL0     C85611   7.225  12.373   4.565  0.1691 -0.2363  0.2295
  635MOL0     C85612   7.177  12.512   4.621  0.2322  0.5472  0.0001
  635MOL0     C85613   7.287  12.590   4.683 -0.4587 -0.6188 -0.6543
  635MOL0     O85614   7.388  12.630   4.587  0.1997  0.3321  0.0701
  635MOL0     C85615   7.513  12.659   4.634 -0.5786 -0.2289  0.4399
  635MOL0     C85616   7.595  12.671   4.523 -0.0597 -1.2235  0.3988
  635MOL0     C85617   7.738  12.682   4.547  1.7766  0.1015  0.7269
  635MOL0     C85618   7.793  12.678   4.681 -0.3674 -0.0502  0.5349
  635MOL0     C85619   7.939  12.689   4.698 -0.2958  0.7312 -0.1637
  635MOL0     O85620   7.975  12.701   4.832 -0.1770  0.1047 -0.7648
  635MOL0     C85621   8.101  12.740   4.864  0.3119 -0.3112 -0.8831
  635MOL0     C85622   8.186  12.635   4.868 -0.2870  0.6078 -0.2594
  635MOL0     C85623   8.325  12.664   4.888  0.3042 -0.6002 -0.4429
  635MOL0     C85624   8.369  12.797   4.913 -0.0248 -1.1931 -0.1445
  635MOL0     O85625   8.499  12.843   4.935  0.2041  1.2448  0.5091
  635MOL0     C85626   8.605  12.797   4.851 -1.0144 -1.1494  1.1243
  635MOL0     C85627   8.709  12.904   4.839 -0.2225  0.3101  0.5680
  635MOL0     C85628   8.672  13.016   4.747  0.7320  0.7302 -0.0927
  635MOL0     C85629   8.640  13.143   4.823  0.1176 -0.4745 -0.0912
  635MOL0     C85630   8.492  13.188   4.785  0.7173 -0.0963 -0.3249
  635MOL0     C85631   8.433  13.286   4.894  1.1681  0.5842 -0.2680
  635MOL0     C85632   8.534  13.390   4.949  0.1111 -0.2456  0.3950
  635MOL0     C85633   8.455  13.492   5.030 -0.5511 -0.3207  0.7082
  635MOL0    Cl85634   8.553  13.610   5.107  0.2372 -0.0096 -0.0837
  635MOL0     C85635   8.275  12.900   4.924  0.1794  0.6496 -0.3592
  635MOL0     C85636   8.146  12.873   4.885 -0.1704  0.3572 -0.4380
  635MOL0     O85637   8.014  12.682   4.604 -0.5864  0.6051  0.2838
  635MOL0     C85638   7.700  12.689   4.788 -0.0592  0.6903 -0.2933
  635MOL0     C85639   7.563  12.679   4.768 -0.5878 -0.4128 -0.0330
  635MOL0     N85640   7.149  12.332   4.871 -0.0343  0.0925  0.2838
  635MOL0     N85641   7.036  12.294   4.923  0.1030 -0.1159 -0.7902
  635MOL0     C85642   6.449  11.203   4.899 -0.1616 -0.2150 -0.5531
  635MOL0     C85643   6.450  11.076   4.955 -0.3990  0.9096  0.7611
  635MOL0     C85644   6.614  10.697   5.127 -0.2933  0.6336 -0.5627
  635MOL0     C85645   6.564  10.674   5.259  0.2012 -0.0668 -0.1119
  635MOL0     C85646   6.572  10.550   5.320 -0.0218  0.3551  0.0051
  635MOL0     C85647   6.630  10.440   5.252 -0.1117  0.8377  0.1668
  635MOL0     O85648   6.641  10.319   5.325 -0.1090 -0.9086 -0.0777
  635MOL0     C85649   6.702  10.202   5.273 -0.2168 -0.2987 -0.2328
  635MOL0     C85650   6.708  10.093   5.381  0.6244  1.3230  0.1976
  635MOL0     C85651   6.765   9.967   5.311  0.5923  0.5971 -0.3785
  635MOL0     C85652   6.713   9.836   5.379  0.1203  0.3870 -0.0429
  635MOL0     C85653   6.798   9.721   5.380 -0.2222  0.7668 -0.4927
  635MOL0     C85654   6.877   9.626   5.390  0.3896 -0.5379 -0.0925
  635MOL0     C85655   6.688  10.469   5.131  0.2687 -0.1076  0.5817
  635MOL0     C85656   6.687  10.590   5.067 -0.5337 -0.2861 -0.1313
  635MOL0     C85657   6.768  10.600   4.941  0.5908  0.5760  0.6989
  635MOL0     H85658   6.609  11.130   5.244 -0.6504 -2.4274 -0.4278
  635MOL0     H85659   6.585  11.369   5.155 -1.0443  0.0220  0.1412
  635MOL0     H85660   6.395  11.440   4.747 -1.8008 -0.8751  0.0704
  635MOL0     H85661   6.288  11.419   4.878 -1.2658  0.9214 -0.5899
  635MOL0     H85662   6.329  11.625   4.963  1.1054 -1.4291  0.7148
  635MOL0     H85663   6.267  11.651   4.792  0.0808 -0.8218 -0.1801
  635MOL0     H85664   6.469  11.710   4.703 -1.5998 -0.9571 -0.2562
  635MOL0     H85665   6.563  11.646   4.829  0.9662  1.4250 -1.3509
  635MOL0     H85666   6.400  11.904   4.876  0.1952 -1.4847  1.8490
  635MOL0     H85667   6.512  11.827   4.985  1.6917 -0.0629  0.0270
  635MOL0     H85668   6.604  11.943   4.711 -0.2219 -1.7461 -0.4853
  635MOL0     H85669   6.593  12.039   4.859 -1.1842  1.3768 -2.8790
  635MOL0     H85670   6.744  11.874   4.978  0.1309  0.7159  0.8461
  635MOL0     H85671   6.751  11.789   4.833 -1.7102 -1.0289  1.3962
  635MOL0     H85672   6.876  11.960   4.714 -2.8657  0.4680  0.6538
  635MOL0     H85673   6.951  11.920   4.858 -0.1050  1.2078  3.5619
  635MOL0     H85674   6.792  12.188   4.816 -1.5333  0.7578  0.6193
  635MOL0     H85675   6.838  12.130   4.977 -1.7752  0.6713 -0.4671
  635MOL0     H85676   7.097  12.078   4.685 -0.0240  1.2762 -1.1603
  635MOL0     H85677   7.379  12.328   4.713 -0.9721 -0.1639  2.4645
  635MOL0     H85678   7.319  12.183   4.627 -2.6503 -0.0707 -0.4015
  635MOL0     H85679   7.304  12.391   4.492 -0.1246 -0.9352 -0.2730
  635MOL0     H85680   7.144  12.321   4.513 -0.6388  0.6235  0.5758
  635MOL0     H85681   7.094  12.505   4.693 -0.3096  0.3538 -0.6316
  635MOL0     H85682   7.143  12.572   4.536 -2.1980  0.6395  0.9448
  635MOL0     H85683   7.336  12.529   4.759 -1.3616 -0.9303 -0.3041
  635MOL0     H85684   7.247  12.684   4.723  0.4977 -0.2482 -0.5608
  635MOL0     H85685   7.559  12.678   4.420  1.6461  0.2295 -0.1373
  635MOL0     H85686   7.808  12.677   4.464  1.7196 -0.4778  0.7106
  635MOL0     H85687   8.155  12.533   4.848  2.2919 -0.2469 -0.3193
  635MOL0     H85688   8.402  12.589   4.875  2.6639  1.5530  0.5090
  635MOL0     H85689   8.646  12.708   4.899 -2.0632 -1.7871  0.8800
  635MOL0     H85690   8.583  12.770   4.747  1.3113 -1.0532  0.5468
  635MOL0     H85691   8.743  12.941   4.936  0.5797  0.0324  0.3980
  635MOL0     H85692   8.798  12.863   4.790  1.1066  2.8393  0.7344
  635MOL0     H85693   8.765  13.026   4.689 -0.0986  1.5039 -1.3312
  635MOL0     H85694   8.592  12.980   4.682 -0.3516 -3.9104  3.2708
  635MOL0     H85695   8.706  13.222   4.785 -2.4093  1.1199 -1.4326
  635MOL0     H85696   8.653  13.140   4.932  0.8384 -0.2123 -0.1655
  635MOL0     H85697   8.429  13.102   4.759  2.9610 -2.0572  0.3745
  635MOL0     H85698   8.492  13.237   4.688  1.5370 -1.5001 -1.0619
  635MOL0     H85699   8.361  13.351   4.844  1.8965  1.3590 -0.3287
  635MOL0     H85700   8.398  13.216   4.971 -0.6706  0.4874 -1.1221
  635MOL0     H85701   8.574  13.450   4.867  0.6975  0.7011  1.3516
  635MOL0     H85702   8.610  13.335   5.005 -0.6839 -0.2192  1.5480
  635MOL0     H85703   8.387  13.541   4.960  0.1507  0.3745  0.5056
  635MOL0     H85704   8.403  13.430   5.104 -0.0722 -0.0665  1.2632
  635MOL0     H85705   8.304  13.001   4.951 -1.3402  0.6523  1.4562
  635MOL0     H85706   8.077  12.958   4.888 -1.2562 -0.3754  4.5668
  635MOL0     H85707   7.729  12.721   4.887 -1.4236  3.2053 -0.6072
  635MOL0     H85708   7.498  12.677   4.855 -0.8160 -2.3269 -0.2081
  635MOL0     H85709   6.400  11.227   4.806  1.4261 -0.3727 -1.4735
  635MOL0     H85710   6.412  10.993   4.896  0.9951  0.9192 -0.2123
  635MOL0     H85711   6.503  10.753   5.302 -1.2207 -0.1629 -1.8917
  635MOL0     H85712   6.523  10.534   5.415  2.2520 -0.5150  1.1203
  635MOL0     H85713   6.807  10.215   5.246 -0.2046 -2.4200 -1.4283
  635MOL0     H85714   6.654  10.173   5.179  1.0100 -1.7603 -0.4443
  635MOL0     H85715   6.609  10.078   5.423  0.5268  1.8228  0.1580
  635MOL0     H85716   6.780  10.115   5.460  1.6378 -3.1177  0.7376
  635MOL0     H85717   6.874   9.969   5.304  1.0045 -3.0734  1.9122
  635MOL0     H85718   6.732   9.967   5.206 -1.5581 -0.2195  0.2366
  635MOL0     H85719   6.690   9.852   5.484  0.4852  3.0355 -0.2979
  635MOL0     H85720   6.617   9.811   5.333 -0.2942 -0.9223  1.4764
  635MOL0     H85721   6.937   9.541   5.416  0.4305 -0.1596  1.1189
  635MOL0     H85722   6.735  10.386   5.078 -3.0709  0.2510 -3.4736
  635MOL0     H85723   6.814  10.502   4.924 -2.4886 -0.8831  0.0045
  635MOL0     H85724   6.698  10.608   4.857  0.8924  0.0636  0.3955
  635MOL0     H85725   6.842  10.680   4.940 -0.6700  1.8895  3.4950
  636MOL0     O85726   4.575   9.157   9.124  0.1634 -0.0541 -0.7813
  636MOL0     C85727   4.636   9.048   9.144 -0.5047  0.0085 -0.6469
  636MOL0     O85728   4.633   8.942   9.062  0.6158 -0.1037 -0.0868
  636MOL0     C85729   4.527   8.934   8.970  0.1732  0.0171 -0.7066
  636MOL0     C85730   4.514   9.020   8.857 -0.3745 -1.0869 -0.5573
  636MOL0     C85731   4.407   8.995   8.761  0.2706 -0.4092 -0.1715
  636MOL0     C85732   4.321   8.884   8.783 -1.0640  0.0575 -0.0668
  636MOL0     O85733   4.217   8.848   8.697  0.0903  0.1983 -0.3428
  636MOL0     C85734   4.172   8.943   8.596 -0.1902  0.1288  0.8958
  636MOL0     C85735   4.039   8.904   8.546  0.4062 -0.8252  0.3166
  636MOL0     C85736   4.020   8.987   8.414  1.1004  0.7587  0.7823
  636MOL0     C85737   3.887   8.941   8.345 -0.2313 -0.5174 -0.0595
  636MOL0     C85738   3.882   8.998   8.202 -0.7661 -1.1675  0.9532
  636MOL0     C85739   3.783   8.908   8.115 -0.3057 -0.7750 -0.0732
  636MOL0     C85740   3.798   8.955   7.968  0.1381  0.9786  0.9161
  636MOL0     C85741   3.729   9.092   7.945  0.4476  0.7657  0.1718
  636MOL0     N85742   3.754   9.138   7.809  0.6404 -0.7209 -0.0235
  636MOL0     C85743   3.676   9.109   7.699  0.0164 -0.9707 -1.3218
  636MOL0     C85744   3.764   9.117   7.593  0.7730 -0.4331 -0.4847
  636MOL0     C85745   3.734   9.109   7.452 -0.1477  0.6950  0.0595
  636MOL0     C85746   3.650   9.212   7.384  1.2894 -1.0644 -0.1738
  636MOL0     C85747   3.712   9.358   7.376  0.3917  0.0283  1.2290
  636MOL0     C85748   3.810   9.377   7.262 -0.7480 -0.1951 -0.4782
  636MOL0     O85749   3.745   9.418   7.146  0.7573  0.1469  0.0541
  636MOL0     C85750   3.720   9.557   7.124  0.4922  0.6754 -0.4348
  636MOL0     C85751   3.668   9.658   7.221  0.3612 -0.4235  0.3146
  636MOL0     C85752   3.644   9.791   7.184  0.0489 -0.1247  0.3176
  636MOL0     C85753   3.682   9.838   7.063  0.4414 -0.5804 -0.0336
  636MOL0     C85754   3.680   9.990   7.038 -0.2523  0.4532  0.1854
  636MOL0     O85755   3.777  10.038   6.957  0.6095  0.5871  0.0282
  636MOL0     C85756   3.794  10.168   6.953 -0.6083  0.0335  0.5584
  636MOL0     C85757   3.816  10.248   7.065  0.6188  0.2627 -0.8927
  636MOL0     C85758   3.861  10.379   7.053  0.6165 -0.2760 -0.0333
  636MOL0     C85759   3.887  10.439   6.926  0.3327 -0.2253 -0.1761
  636MOL0     O85760   3.932  10.568   6.911 -0.0912  0.3059  0.2915
  636MOL0     C85761   3.963  10.662   7.023  0.6592 -0.0075  0.6158
  636MOL0     C85762   4.092  10.629   7.098 -0.4711  0.1085  0.1830
  636MOL0     C85763   4.209  10.594   7.007 -0.4579 -0.5687  0.0830
  636MOL0     C85764   4.296  10.714   6.964  0.1828 -0.4648 -1.3431
  636MOL0     C85765   4.441  10.655   6.941  0.2278 -0.4861 -0.5389
  636MOL0     C85766   4.538  10.774   6.909  1.1763 -0.4558 -1.3780
  636MOL0     C85767   4.670  10.733   6.837  0.6487 -0.8369 -1.1322
  636MOL0     C85768   4.764  10.648   6.928 -0.0534  0.2669 -0.4983
  636MOL0    Cl85769   4.898  10.630   6.812  0.1269 -0.1355  0.2649
  636MOL0     C85770   3.871  10.355   6.814 -0.1789  0.4575 -0.0667
  636MOL0     C85771   3.817  10.221   6.828 -0.8027 -0.1311 -0.7267
  636MOL0     O85772   3.592  10.055   7.097 -0.5364  0.9190 -0.4294
  636MOL0     C85773   3.735   9.749   6.966 -0.7942  1.3757  0.1229
  636MOL0     C85774   3.751   9.607   7.003 -0.4029  0.7750  0.4371
  636MOL0     N85775   3.883   9.176   7.632 -0.2454 -0.4894 -0.6939
  636MOL0     N85776   3.877   9.197   7.761 -1.3763  1.2338 -0.2308
  636MOL0     C85777   4.333   8.805   8.898  0.7328  0.8226 -0.4553
  636MOL0     C85778   4.429   8.831   8.992  1.1277  0.5731 -0.3628
  636MOL0     C85779   4.729   9.031   9.258  0.0682 -0.3053  0.1905
  636MOL0     C85780   4.753   9.145   9.342 -1.0031  0.1936  0.1087
  636MOL0     C85781   4.846   9.130   9.451  1.4079 -0.0073 -0.1955
  636MOL0     C85782   4.921   9.015   9.469  0.1076 -0.2640 -0.0545
  636MOL0     O85783   5.024   9.009   9.564  0.1200  0.3986  0.2744
  636MOL0     C85784   5.067   9.134   9.630  0.5179 -0.3831 -0.7421
  636MOL0     C85785   5.187   9.106   9.711  0.2474 -0.4006 -0.1825
  636MOL0     C85786   5.159   9.020   9.836 -0.1551  0.5925  0.9826
  636MOL0     C85787   5.163   9.086   9.975  0.8332 -0.5929  0.6496
  636MOL0     C85788   5.305   9.090  10.011  0.2716 -0.3308 -0.1948
  636MOL0     C85789   5.416   9.063  10.047 -0.4692  0.0419  0.8488
  636MOL0     C85790   4.902   8.913   9.385  0.0749  0.2074  0.7562
  636MOL0     C85791   4.792   8.910   9.298  0.4650  0.6948  0.4506
  636MOL0     C85792   4.758   8.774   9.230  0.1149 -0.3083  0.3909
  636MOL0     H85793   4.588   9.098   8.844 -0.2450 -0.5496  2.5917
  636MOL0     H85794   4.396   9.054   8.671  0.2415 -0.6801 -0.3478
  636MOL0     H85795   4.145   9.042   8.632  0.3676  0.0216  1.6408
  636MOL0     H85796   4.241   8.956   8.513 -0.3900 -3.5364 -0.0318
  636MOL0     H85797   3.961   8.931   8.617 -0.3609  1.2738 -1.2035
  636MOL0     H85798   4.027   8.797   8.527  3.1868 -0.6409 -4.1664
  636MOL0     H85799   4.092   8.951   8.340 -0.9356 -0.4276 -0.7171
  636MOL0     H85800   4.040   9.094   8.421  1.2671  0.6748  1.8308
  636MOL0     H85801   3.873   8.833   8.337 -1.4486 -0.3708 -0.1241
  636MOL0     H85802   3.808   8.985   8.407  1.2081  0.5170  1.1359
  636MOL0     H85803   3.844   9.100   8.213  1.5970 -0.2012  0.8827
  636MOL0     H85804   3.984   9.011   8.163 -0.9110  3.1144  1.5201
  636MOL0     H85805   3.811   8.802   8.124  1.2042 -0.1968  3.7416
  636MOL0     H85806   3.681   8.929   8.148  0.0756  1.3123 -0.1021
  636MOL0     H85807   3.757   8.877   7.903  2.2005  1.9967 -1.8023
  636MOL0     H85808   3.901   8.950   7.934 -0.1521  1.1090 -0.0164
  636MOL0     H85809   3.621   9.076   7.954  0.5608  0.6560  1.5913
  636MOL0     H85810   3.760   9.169   8.016  0.3699  1.5098 -0.5880
  636MOL0     H85811   3.571   9.079   7.704 -0.8824  1.9800  2.7744
  636MOL0     H85812   3.830   9.101   7.401 -0.8464 -1.8279 -1.0009
  636MOL0     H85813   3.670   9.026   7.421  1.2909  0.5913 -2.9788
  636MOL0     H85814   3.635   9.180   7.280  0.9688 -1.8553  0.1084
  636MOL0     H85815   3.554   9.214   7.435  1.7391  0.1146  0.6459
  636MOL0     H85816   3.767   9.381   7.468 -1.3280  0.0996  2.2733
  636MOL0     H85817   3.629   9.426   7.357  0.5549  0.5176  2.2179
  636MOL0     H85818   3.868   9.285   7.254 -1.3611 -0.4668 -2.2798
  636MOL0     H85819   3.879   9.455   7.294  1.5082 -2.5559  0.8366
  636MOL0     H85820   3.643   9.637   7.324 -0.7303 -3.6199 -0.4766
  636MOL0     H85821   3.604   9.861   7.256 -0.0468 -0.5098  0.6424
  636MOL0     H85822   3.808  10.212   7.167 -0.2153  0.2768 -0.9452
  636MOL0     H85823   3.868  10.447   7.137 -1.4091 -0.3240  0.2093
  636MOL0     H85824   3.969  10.756   6.968 -2.1319  0.5248  1.0326
  636MOL0     H85825   3.878  10.674   7.092 -0.2169 -0.0946 -0.4247
  636MOL0     H85826   4.114  10.718   7.158 -3.9398  2.9234 -2.3293
  636MOL0     H85827   4.081  10.543   7.165 -0.6796 -1.3661 -1.6496
  636MOL0     H85828   4.275  10.530   7.066  2.2921 -1.3270 -3.4737
  636MOL0     H85829   4.185  10.531   6.921 -1.1173 -0.2562  0.0319
  636MOL0     H85830   4.310  10.787   7.045  1.5815  0.0710 -2.0330
  636MOL0     H85831   4.259  10.773   6.879  1.5941  0.7436 -1.1638
  636MOL0     H85832   4.435  10.588   6.855 -3.5725 -1.6629  0.4485
  636MOL0     H85833   4.481  10.596   7.024  0.2416 -0.1119 -0.2750
  636MOL0     H85834   4.486  10.824   6.827 -1.1888 -3.3178 -1.8084
  636MOL0     H85835   4.547  10.840   6.996 -0.3338 -0.9757 -0.7790
  636MOL0     H85836   4.720  10.824   6.804 -1.5142  0.5129 -0.8597
  636MOL0     H85837   4.638  10.669   6.754  0.9149 -1.3884 -0.8118
  636MOL0     H85838   4.784  10.707   7.018 -0.9694  0.7820 -0.6215
  636MOL0     H85839   4.710  10.554   6.945  3.1094 -1.2016  2.6288
  636MOL0     H85840   3.886  10.404   6.719 -1.9207  1.8018  0.2926
  636MOL0     H85841   3.790  10.160   6.743 -1.7013 -0.0298 -0.5261
  636MOL0     H85842   3.774   9.783   6.870 -0.3463 -0.1364 -0.2666
  636MOL0     H85843   3.801   9.544   6.929  1.8825  0.5743  2.0472
  636MOL0     H85844   4.275   8.713   8.899 -1.9178  2.3931 -0.3927
  636MOL0     H85845   4.437   8.779   9.087  0.6527 -0.6505 -0.9719
  636MOL0     H85846   4.694   9.236   9.336 -2.2715 -0.2805  3.3130
  636MOL0     H85847   4.859   9.210   9.524  0.2293 -0.2373  0.2863
  636MOL0     H85848   4.989   9.161   9.701  1.4283  1.1328 -0.2692
  636MOL0     H85849   5.095   9.216   9.563  0.8309 -2.5947 -3.5330
  636MOL0     H85850   5.242   9.199   9.728 -0.8407 -0.0113  1.3738
  636MOL0     H85851   5.242   9.034   9.650  0.3406 -1.2774  0.8888
  636MOL0     H85852   5.227   8.935   9.838 -1.2096 -0.3855 -1.0002
  636MOL0     H85853   5.065   8.969   9.810  0.0033  1.6193 -1.9201
  636MOL0     H85854   5.117   9.185   9.968  2.2612 -0.0170 -1.7772
  636MOL0     H85855   5.106   9.026  10.047  0.6222 -0.6614  0.4266
  636MOL0     H85856   5.517   9.033  10.066  0.5641  3.4157  1.3280
  636MOL0     H85857   4.962   8.824   9.398  1.9407  1.3863  0.5125
  636MOL0     H85858   4.791   8.780   9.126  1.6168  3.0181  0.9322
  636MOL0     H85859   4.809   8.694   9.284  1.2168  0.1037 -0.0286
  636MOL0     H85860   4.650   8.754   9.230 -0.3814  2.0178 -0.4160
  637MOL0     O85861  11.163   7.971   1.493  0.7570 -0.2478  0.0987
  637MOL0     C85862  11.233   8.033   1.570  0.3733 -0.0160  0.4378
  637MOL0     O85863  11.196   8.136   1.651 -0.3899  0.4331 -0.3346
  637MOL0     C85864  11.064   8.155   1.674 -0.2651 -0.1063 -0.0794
  637MOL0     C85865  11.004   8.121   1.801  0.4396 -0.1195 -0.6620
  637MOL0     C85866  10.868   8.111   1.810  0.5978  0.6935 -0.3724
  637MOL0     C85867  10.793   8.168   1.707 -0.2011 -0.3887 -0.1679
  637MOL0     O85868  10.667   8.200   1.732 -0.3858 -0.7130 -0.2979
  637MOL0     C85869  10.573   8.094   1.749  0.2792 -0.0318 -0.0639
  637MOL0     C85870  10.559   7.991   1.632  1.4664  0.2029 -0.0034
  637MOL0     C85871  10.453   7.889   1.667  0.2419 -0.4180 -0.0302
  637MOL0     C85872  10.339   7.884   1.558 -0.2242  0.8723 -0.4007
  637MOL0     C85873  10.231   7.781   1.609 -0.2477  0.3801  0.1057
  637MOL0     C85874  10.144   7.738   1.488 -0.1647 -0.5863 -0.4457
  637MOL0     C85875  10.015   7.667   1.517  0.6501  0.2615 -0.3569
  637MOL0     C85876   9.901   7.728   1.615 -0.4921  0.2213 -0.0502
  637MOL0     N85877   9.869   7.870   1.585 -0.8357 -0.4304  0.5380
  637MOL0     C85878   9.934   7.987   1.627 -0.5909  0.6954  0.3821
  637MOL0     C85879   9.877   8.080   1.540  0.4220 -0.5325 -1.0307
  637MOL0     C85880   9.926   8.226   1.528 -0.3961  0.6092  1.1077
  637MOL0     C85881  10.080   8.239   1.520  0.2668 -0.3226  0.3084
  637MOL0     C85882  10.134   8.197   1.382 -0.1110  0.3057  0.1487
  637MOL0     C85883  10.119   8.284   1.251 -0.4935  0.4794  0.6317
  637MOL0     O85884  10.202   8.247   1.144  0.4303  0.2460 -0.6406
  637MOL0     C85885  10.341   8.250   1.154 -0.7350  0.1778  1.2058
  637MOL0     C85886  10.410   8.183   1.063 -0.8637  0.3382  0.6791
  637MOL0     C85887  10.552   8.188   1.061 -0.0586  0.6927  1.4861
  637MOL0     C85888  10.621   8.268   1.143 -0.0405 -0.0202  0.9737
  637MOL0     C85889  10.768   8.274   1.129  0.2346  0.6898 -0.0424
  637MOL0     O85890  10.831   8.367   1.210 -0.0990  0.2202  0.4669
  637MOL0     C85891  10.967   8.388   1.229  0.3353 -0.7354 -0.2617
  637MOL0     C85892  11.069   8.315   1.169  0.5477  0.2059  0.9552
  637MOL0     C85893  11.195   8.343   1.185  0.0431 -0.3477  0.4320
  637MOL0     C85894  11.233   8.443   1.277  0.8718 -1.1464  0.2464
  637MOL0     O85895  11.361   8.471   1.330  0.2891 -0.2452  0.0707
  637MOL0     C85896  11.470   8.403   1.269  0.6115  0.7095  0.7456
  637MOL0     C85897  11.558   8.350   1.381 -0.0501  0.2268  0.5717
  637MOL0     C85898  11.685   8.286   1.332 -0.7864  0.4981 -0.0510
  637MOL0     C85899  11.787   8.279   1.447 -1.1136  1.3252  0.5950
  637MOL0     C85900  11.905   8.196   1.404  0.3280 -0.0015 -0.1379
  637MOL0     C85901  11.982   8.263   1.290 -0.1273 -0.0459 -1.1766
  637MOL0     C85902  12.118   8.200   1.269 -0.1068  0.3708  0.3980
  637MOL0     C85903  12.215   8.220   1.398 -0.9885 -0.3365  0.2981
  637MOL0    Cl85904  12.385   8.228   1.346 -0.1158 -0.3452 -0.6426
  637MOL0     C85905  11.134   8.520   1.339  0.3202  0.0962  0.6128
  637MOL0     C85906  11.006   8.495   1.308 -0.2763  1.2528  0.2475
  637MOL0     O85907  10.830   8.190   1.060 -0.2118 -0.4580 -0.1153
  637MOL0     C85908  10.547   8.345   1.223 -0.1773 -0.4842  0.3515
  637MOL0     C85909  10.412   8.337   1.234  0.5121  0.2339  0.4779
  637MOL0     N85910   9.779   8.018   1.466 -0.0540  0.0887 -1.0414
  637MOL0     N85911   9.772   7.895   1.492 -0.2849  0.4105 -0.0268
  637MOL0     C85912  10.849   8.209   1.587  0.4547  0.5420 -0.3121
  637MOL0     C85913  10.982   8.194   1.564 -0.9391 -0.0871 -0.4153
  637MOL0     C85914  11.379   8.001   1.582  0.4792  0.3403 -0.2609
  637MOL0     C85915  11.436   8.006   1.701 -0.3861 -1.0642 -0.7544
  637MOL0     C85916  11.571   7.980   1.715  0.4627  0.5403 -0.3640
  637MOL0     C85917  11.654   7.959   1.616 -0.7906  0.1927 -0.1128
  637MOL0     O85918  11.788   7.908   1.618  0.0471 -0.0524  0.1757
  637MOL0     C85919  11.856   7.913   1.740  0.5919  0.1395  0.3571
  637MOL0     C85920  11.998   7.892   1.704 -0.4918 -0.0862 -0.3577
  637MOL0     C85921  12.083   7.908   1.825  1.3540  0.7806 -0.2203
  637MOL0     C85922  12.234   7.902   1.801 -0.1505  0.5714  0.1364
  637MOL0     C85923  12.302   8.020   1.749  0.4351 -0.1258  0.9536
  637MOL0     C85924  12.361   8.114   1.704 -0.4901  0.0997  0.5899
  637MOL0     C85925  11.597   7.958   1.483 -0.0843  0.5933 -1.8542
  637MOL0     C85926  11.459   7.980   1.466  0.7170  0.2332  0.2809
  637MOL0     C85927  11.401   7.969   1.328 -0.3224 -0.1932 -0.2894
  637MOL0     H85928  11.065   8.106   1.889 -0.8958 -1.0153  0.1503
  637MOL0     H85929  10.828   8.075   1.904  1.2429 -1.7372 -0.9370
  637MOL0     H85930  10.613   8.028   1.826 -1.0204 -0.4733  0.2582
  637MOL0     H85931  10.469   8.118   1.773 -0.2706 -0.5630 -1.7661
  637MOL0     H85932  10.649   7.931   1.617  0.2651 -1.6460 -0.0602
  637MOL0     H85933  10.530   8.041   1.539  0.5281  0.8853  0.6382
  637MOL0     H85934  10.411   7.906   1.766 -0.6544 -0.3324 -0.4150
  637MOL0     H85935  10.495   7.789   1.683  1.5537 -0.3424 -2.4427
  637MOL0     H85936  10.295   7.984   1.547 -0.4656  1.3918  3.6946
  637MOL0     H85937  10.385   7.847   1.466  1.3435  0.1413  0.6225
  637MOL0     H85938  10.281   7.696   1.657 -2.4347 -1.1893 -0.2925
  637MOL0     H85939  10.170   7.828   1.686  1.8429  1.5921  1.1313
  637MOL0     H85940  10.113   7.825   1.430  2.8855  1.3038  0.4938
  637MOL0     H85941  10.198   7.671   1.420 -2.0804 -2.0209 -0.6478
  637MOL0     H85942  10.046   7.566   1.546 -0.5413  0.5723  2.3500
  637MOL0     H85943   9.962   7.659   1.421 -0.3348  1.0049  0.0976
  637MOL0     H85944   9.813   7.665   1.630 -0.2479 -0.0357  0.3208
  637MOL0     H85945   9.950   7.731   1.713 -0.2301  0.1704 -0.1797
  637MOL0     H85946  10.014   8.007   1.698  0.1566 -0.1106 -0.1990
  637MOL0     H85947   9.885   8.263   1.433 -1.8109 -0.3643  1.3042
  637MOL0     H85948   9.894   8.288   1.612 -3.1537  2.0813 -0.8514
  637MOL0     H85949  10.114   8.342   1.532 -1.1944  0.2519 -0.1934
  637MOL0     H85950  10.126   8.198   1.610  0.0391  2.8250  1.9903
  637MOL0     H85951  10.094   8.100   1.350 -2.3280  1.6780 -1.4875
  637MOL0     H85952  10.241   8.185   1.404 -0.8438 -2.7844  2.9238
  637MOL0     H85953  10.127   8.389   1.281 -1.5690  0.3015  1.6247
  637MOL0     H85954  10.018   8.268   1.212 -0.4613 -3.4134  1.7674
  637MOL0     H85955  10.351   8.126   0.992 -0.5536  0.7862  0.0429
  637MOL0     H85956  10.612   8.128   0.994 -0.7029 -0.3543  1.8332
  637MOL0     H85957  11.038   8.224   1.118 -1.3584  0.6089  1.3435
  637MOL0     H85958  11.261   8.271   1.137  0.4414  0.4495 -0.2390
  637MOL0     H85959  11.447   8.313   1.211  2.0625  0.5347  0.3840
  637MOL0     H85960  11.523   8.469   1.200  0.0426 -0.2588 -0.6572
  637MOL0     H85961  11.591   8.441   1.432  1.5599  0.5569 -0.9635
  637MOL0     H85962  11.504   8.275   1.440 -0.9416  0.2206 -0.2353
  637MOL0     H85963  11.667   8.183   1.300  0.7422 -0.5819  2.3008
  637MOL0     H85964  11.742   8.343   1.258  1.6015 -1.6966 -0.0663
  637MOL0     H85965  11.748   8.229   1.536  0.3682 -0.6257  0.2305
  637MOL0     H85966  11.825   8.378   1.472 -1.8391  1.9346 -0.6514
  637MOL0     H85967  11.897   8.091   1.373  4.1250 -0.1017 -1.2611
  637MOL0     H85968  11.959   8.189   1.499 -0.6049  4.2230  0.8943
  637MOL0     H85969  11.934   8.263   1.192  1.4911 -1.4403 -2.0088
  637MOL0     H85970  11.987   8.370   1.313 -0.7776 -0.0237 -1.1086
  637MOL0     H85971  12.163   8.253   1.184  0.7002  0.7600  1.0534
  637MOL0     H85972  12.116   8.095   1.236  0.5476  0.6708 -0.6354
  637MOL0     H85973  12.191   8.321   1.432 -1.4919 -0.7182  1.0980
  637MOL0     H85974  12.190   8.138   1.466  0.7653  0.3571  1.8683
  637MOL0     H85975  11.163   8.599   1.407 -0.6177  0.2170  0.8878
  637MOL0     H85976  10.922   8.541   1.360 -0.4363  2.0279 -0.6492
  637MOL0     H85977  10.597   8.422   1.282 -0.5825 -0.1813  0.3039
  637MOL0     H85978  10.368   8.405   1.306 -1.8693  1.1040 -1.6793
  637MOL0     H85979  10.787   8.256   1.511 -2.4049 -0.6621  1.1391
  637MOL0     H85980  11.028   8.230   1.472 -0.7577  3.1592  0.8038
  637MOL0     H85981  11.368   8.034   1.780 -2.1062 -2.3711 -1.7078
  637MOL0     H85982  11.598   7.962   1.818  2.4315 -3.0076 -1.3171
  637MOL0     H85983  11.818   7.841   1.813 -3.0074  0.8330 -0.6497
  637MOL0     H85984  11.849   8.014   1.782 -0.4243 -0.1985  1.0352
  637MOL0     H85985  12.040   7.957   1.627 -0.3689 -1.1043 -1.1607
  637MOL0     H85986  12.004   7.786   1.679  0.6885 -0.0645 -0.2370
  637MOL0     H85987  12.062   7.823   1.891 -0.4605  0.1048 -1.6051
  637MOL0     H85988  12.058   7.998   1.883 -1.5552 -0.3681  0.4709
  637MOL0     H85989  12.287   7.882   1.894 -1.5874  0.6247  1.0027
  637MOL0     H85990  12.266   7.818   1.738  1.2970  0.3556  1.1125
  637MOL0     H85991  12.409   8.202   1.668  2.6196 -1.4637  0.5402
  637MOL0     H85992  11.655   7.938   1.394  2.0416  0.2477 -0.4614
  637MOL0     H85993  11.473   7.968   1.245 -0.5532  3.4929 -0.7028
  637MOL0     H85994  11.333   7.884   1.327 -1.3598  0.5834  1.2031
  637MOL0     H85995  11.344   8.054   1.289 -0.0151 -0.7464 -2.0545
  638MOL0     O85996   3.616   5.596  11.291  0.3867  0.3890  0.2366
  638MOL0     C85997   3.514   5.521  11.264  0.9513 -0.2345 -0.9157
  638MOL0     O85998   3.527   5.385  11.248 -0.3346  0.5299  0.3255
  638MOL0     C85999   3.649   5.321  11.256 -0.8339 -0.2738 -0.0237
  638MOL0     C86000   3.744   5.307  11.145  0.1949 -0.1239  0.6141
  638MOL0     C86001   3.865   5.234  11.154 -0.0488  0.8472 -0.7350
  638MOL0     C86002   3.895   5.168  11.276 -0.2766 -0.3550 -0.0940
  638MOL0     O86003   4.014   5.092  11.284  0.4914  0.1522  0.0884
  638MOL0     C86004   4.031   4.973  11.205  0.9171 -0.0929  0.6287
  638MOL0     C86005   4.152   4.893  11.233 -0.3220 -0.5028  0.7509
  638MOL0     C86006   4.159   4.846  11.378 -0.1630  0.3089  0.4156
  638MOL0     C86007   4.224   4.696  11.399 -0.0180 -0.2863  0.1532
  638MOL0     C86008   4.262   4.650  11.537  0.1566 -0.5793  0.8445
  638MOL0     C86009   4.127   4.661  11.618  0.1967 -0.7907 -0.9746
  638MOL0     C86010   4.131   4.572  11.747  0.7932 -0.1747 -0.4517
  638MOL0     C86011   4.231   4.616  11.850  0.0925 -0.1252  0.3720
  638MOL0     N86012   4.253   4.505  11.944 -0.1808  0.8634 -0.6450
  638MOL0     C86013   4.244   4.363  11.917  0.0978 -1.2588 -0.1837
  638MOL0     C86014   4.226   4.301  12.031 -1.1169  0.0507 -0.3996
  638MOL0     C86015   4.234   4.151  12.059 -0.3240 -0.4285 -0.6642
  638MOL0     C86016   4.146   4.085  11.949  0.4806  0.3075 -0.8628
  638MOL0     C86017   4.000   4.106  11.973 -0.0262 -0.2135  0.1364
  638MOL0     C86018   3.941   4.209  11.871 -0.0781  0.1215  0.4960
  638MOL0     O86019   3.963   4.160  11.737 -0.7711  1.0116  0.2117
  638MOL0     C86020   3.907   4.046  11.704 -0.1548  0.1354  0.4164
  638MOL0     C86021   3.767   4.028  11.691 -1.1165  0.2742 -0.5435
  638MOL0     C86022   3.704   3.907  11.645  0.6955 -0.5535  0.1798
  638MOL0     C86023   3.790   3.803  11.602  0.1567 -0.4479 -0.1849
  638MOL0     C86024   3.739   3.673  11.564 -0.1607 -0.5215  0.0863
  638MOL0     O86025   3.829   3.569  11.583  0.9136 -0.2366  0.5376
  638MOL0     C86026   3.799   3.443  11.532  0.0886 -0.6922  0.0140
  638MOL0     C86027   3.810   3.342  11.630  0.2553  0.0229 -0.7655
  638MOL0     C86028   3.791   3.209  11.595  0.0068  0.2324 -0.1705
  638MOL0     C86029   3.759   3.177  11.465 -0.2822 -0.7540  0.7722
  638MOL0     O86030   3.750   3.046  11.421 -0.4384  0.0707  0.3565
  638MOL0     C86031   3.703   3.001  11.292  0.5599 -0.1298  0.3641
  638MOL0     C86032   3.548   3.002  11.295 -0.2385  0.2283 -0.7749
  638MOL0     C86033   3.499   2.925  11.176 -0.4759 -0.7070  0.6319
  638MOL0     C86034   3.509   2.773  11.185  0.6915 -0.2172  0.2343
  638MOL0     C86035   3.422   2.720  11.304  0.7261 -0.0610 -0.1259
  638MOL0     C86036   3.277   2.690  11.274 -0.8266  0.9531 -0.3082
  638MOL0     C86037   3.265   2.615  11.142 -0.4599  0.4979 -0.3453
  638MOL0     C86038   3.141   2.541  11.121 -0.0897 -0.5140 -0.0125
  638MOL0    Cl86039   3.122   2.456  10.968 -0.1026 -0.5102 -0.1009
  638MOL0     C86040   3.738   3.287  11.371 -0.2409 -0.0878 -1.2521
  638MOL0     C86041   3.758   3.420  11.402 -0.9095 -0.1803 -0.2078
  638MOL0     O86042   3.623   3.664  11.529  0.0285 -0.6550 -1.1339
  638MOL0     C86043   3.933   3.825  11.609  0.7668 -0.0936 -0.5076
  638MOL0     C86044   3.984   3.931  11.680 -0.2443 -0.8668  0.7551
  638MOL0     N86045   4.231   4.399  12.130 -0.2609 -0.5551  0.6668
  638MOL0     N86046   4.248   4.523  12.080 -0.1249 -0.1405  0.2264
  638MOL0     C86047   3.798   5.169  11.377  0.2337 -0.8921 -0.3634
  638MOL0     C86048   3.679   5.248  11.370 -0.3815  0.3143  0.4395
  638MOL0     C86049   3.393   5.600  11.247 -0.2221 -0.3435 -0.5900
  638MOL0     C86050   3.415   5.746  11.244 -1.1834  0.1518 -0.3555
  638MOL0     C86051   3.307   5.827  11.216 -0.1800 -0.6620 -0.0503
  638MOL0     C86052   3.185   5.786  11.181  0.3318 -0.0300  1.0545
  638MOL0     O86053   3.089   5.876  11.152  0.0210 -0.6846  0.6655
  638MOL0     C86054   3.084   5.931  11.018  0.0346  0.0087  0.1208
  638MOL0     C86055   2.949   5.952  10.974 -0.4358  0.7618 -0.2606
  638MOL0     C86056   2.871   6.051  11.057 -0.1616 -1.0271 -0.2409
  638MOL0     C86057   2.734   6.085  11.013  0.1966 -0.5056 -0.6189
  638MOL0     C86058   2.732   6.177  10.900 -0.0325  0.5021  0.0504
  638MOL0     C86059   2.734   6.250  10.809 -0.5002 -0.4759  0.0934
  638MOL0     C86060   3.163   5.650  11.187 -0.4941  0.9263  0.2848
  638MOL0     C86061   3.268   5.550  11.211 -0.3308 -0.2099  0.8627
  638MOL0     C86062   3.241   5.393  11.216  0.8171 -0.6741  0.8599
  638MOL0     H86063   3.722   5.357  11.051 -1.3172 -0.4056  0.7977
  638MOL0     H86064   3.917   5.229  11.059 -0.9793 -2.5174 -1.1940
  638MOL0     H86065   3.950   4.906  11.238  1.7337 -0.6802  1.4792
  638MOL0     H86066   4.022   5.003  11.100  1.0973 -1.1983  0.2824
  638MOL0     H86067   4.239   4.949  11.200 -0.1711 -2.3058 -2.2518
  638MOL0     H86068   4.140   4.800  11.177  0.7396  1.1178 -2.3541
  638MOL0     H86069   4.058   4.841  11.418  0.4627  0.0829  2.0655
  638MOL0     H86070   4.220   4.915  11.437  3.1285 -3.6121  2.1019
  638MOL0     H86071   4.167   4.618  11.347 -1.0642  1.7819 -2.0279
  638MOL0     H86072   4.320   4.702  11.347  0.0205  1.8124  0.3997
  638MOL0     H86073   4.291   4.547  11.558  1.6979 -0.0601  1.4432
  638MOL0     H86074   4.343   4.712  11.576 -0.9320  0.4006  1.6143
  638MOL0     H86075   4.103   4.763  11.648  2.6660 -0.8536  1.5040
  638MOL0     H86076   4.046   4.617  11.558  0.4379 -0.5260 -1.4975
  638MOL0     H86077   4.144   4.470  11.710  0.9902 -0.2047 -0.3023
  638MOL0     H86078   4.029   4.569  11.786  0.1784 -1.6076 -2.0411
  638MOL0     H86079   4.323   4.656  11.807  2.0310 -1.5864  2.8622
  638MOL0     H86080   4.182   4.698  11.903  4.5228  2.6264  0.7440
  638MOL0     H86081   4.261   4.308  11.825  2.6257 -0.3235 -0.3586
  638MOL0     H86082   4.335   4.110  12.046  0.1595  0.6652 -0.4491
  638MOL0     H86083   4.189   4.133  12.157  0.3955  2.0452  0.1840
  638MOL0     H86084   4.193   4.107  11.853  1.1154  1.7406 -0.2671
  638MOL0     H86085   4.158   3.977  11.952 -1.5834  0.0456  0.5353
  638MOL0     H86086   3.983   4.137  12.077  1.3896  0.8014  0.0944
  638MOL0     H86087   3.954   4.008  11.958 -1.3435  0.6631 -1.9353
  638MOL0     H86088   3.978   4.310  11.886 -1.8383  0.8324  0.2838
  638MOL0     H86089   3.835   4.222  11.894  0.4060 -1.2016  4.2335
  638MOL0     H86090   3.715   4.122  11.707  0.4467  1.4593 -2.0835
  638MOL0     H86091   3.596   3.911  11.643  0.6327 -1.8059 -1.2473
  638MOL0     H86092   3.845   3.368  11.729  1.2126 -0.6921 -0.8996
  638MOL0     H86093   3.809   3.126  11.663  1.0746 -1.0684 -1.9412
  638MOL0     H86094   3.740   3.056  11.204 -1.1935 -0.7525 -0.8148
  638MOL0     H86095   3.742   2.900  11.278 -1.8314 -0.9458 -0.9559
  638MOL0     H86096   3.510   2.958  11.388  1.2869 -0.5482 -0.4760
  638MOL0     H86097   3.520   3.107  11.288  1.9144  0.8784 -0.2543
  638MOL0     H86098   3.394   2.950  11.160 -0.9306 -2.8641 -0.0461
  638MOL0     H86099   3.558   2.963  11.092  0.8500 -1.3962  1.2349
  638MOL0     H86100   3.612   2.741  11.196  2.3941  4.2730 -0.4666
  638MOL0     H86101   3.476   2.729  11.090  1.1021 -3.0761  1.3222
  638MOL0     H86102   3.431   2.782  11.393 -0.3799  1.5392 -1.0815
  638MOL0     H86103   3.476   2.628  11.329 -0.1546 -0.1560  1.5968
  638MOL0     H86104   3.239   2.629  11.356 -1.1720  1.7378  0.1194
  638MOL0     H86105   3.225   2.786  11.271 -0.5949  1.1033  0.4352
  638MOL0     H86106   3.339   2.537  11.122 -0.3860  0.8456 -1.5544
  638MOL0     H86107   3.268   2.689  11.061 -1.3930 -0.0655 -0.9184
  638MOL0     H86108   3.142   2.460  11.195  1.5432 -2.0612 -1.6181
  638MOL0     H86109   3.056   2.605  11.143  0.5608  0.9692 -1.5813
  638MOL0     H86110   3.691   3.259  11.278 -1.9784  2.3649 -1.1902
  638MOL0     H86111   3.743   3.499  11.329  0.6229  0.1023 -0.2621
  638MOL0     H86112   4.002   3.750  11.572  1.1325 -0.3834  0.7487
  638MOL0     H86113   4.090   3.949  11.695 -0.1151  1.3528 -2.0345
  638MOL0     H86114   3.815   5.121  11.474 -0.9803  2.6742  1.7898
  638MOL0     H86115   3.603   5.238  11.448  0.0962 -1.6738  0.6993
  638MOL0     H86116   3.503   5.797  11.281 -2.0682  0.3719  1.6047
  638MOL0     H86117   3.313   5.933  11.239  0.5160 -0.9264  1.0359
  638MOL0     H86118   3.132   5.871  10.940  1.0609  0.7575  0.1541
  638MOL0     H86119   3.137   6.026  11.027 -0.5596  0.1533  5.7105
  638MOL0     H86120   2.914   5.848  10.982 -1.3172  0.8564 -2.2802
  638MOL0     H86121   2.950   5.962  10.865 -3.6132  3.4710 -0.1976
  638MOL0     H86122   2.930   6.143  11.066  1.5127 -2.1785  1.6571
  638MOL0     H86123   2.871   6.027  11.164  0.2889  2.8255  0.7977
  638MOL0     H86124   2.669   5.999  10.992 -0.5520 -0.6930  2.1407
  638MOL0     H86125   2.686   6.128  11.101 -1.4335  0.3625 -1.8804
  638MOL0     H86126   2.732   6.322  10.729 -1.2077 -0.9824 -0.3545
  638MOL0     H86127   3.065   5.608  11.166 -0.9126  1.6101  0.8312
  638MOL0     H86128   3.141   5.364  11.184  0.7263 -2.0831  2.3056
  638MOL0     H86129   3.307   5.334  11.153  1.7177  0.5596  0.6177
  638MOL0     H86130   3.250   5.372  11.323  1.5006  1.4198  1.2514
  639MOL0     O86131   3.257  10.671  10.838 -0.8636  0.7660  0.0530
  639MOL0     C86132   3.325  10.574  10.793  0.0027 -0.4438  0.1004
  639MOL0     O86133   3.463  10.591  10.768 -1.2423 -0.2865 -0.9742
  639MOL0     C86134   3.532  10.712  10.762  0.0379 -0.5834  0.5237
  639MOL0     C86135   3.629  10.730  10.860  0.0165 -0.5859  0.2730
  639MOL0     C86136   3.691  10.860  10.862  0.9404 -0.0894  0.1623
  639MOL0     C86137   3.652  10.963  10.781  0.1916  0.1356  0.9947
  639MOL0     O86138   3.716  11.079  10.814  0.2281 -0.5720  0.6165
  639MOL0     C86139   3.658  11.197  10.768 -0.3361  0.4960  0.2887
  639MOL0     C86140   3.716  11.313  10.839  0.0986 -0.0986 -0.6291
  639MOL0     C86141   3.859  11.336  10.788  0.3187  0.0546 -0.8349
  639MOL0     C86142   3.932  11.458  10.850  0.3998  0.3951 -0.1775
  639MOL0     C86143   4.068  11.482  10.788  0.6049  0.0161  0.7266
  639MOL0     C86144   4.177  11.532  10.885  0.1923  0.2496 -0.3356
  639MOL0     C86145   4.213  11.681  10.846 -0.2057  0.3026 -0.4813
  639MOL0     C86146   4.290  11.697  10.717  0.8130 -0.1042 -0.2993
  639MOL0     N86147   4.401  11.791  10.719 -0.6751  0.1431  0.3156
  639MOL0     C86148   4.512  11.782  10.809 -0.2153  0.3020 -0.1847
  639MOL0     C86149   4.575  11.893  10.778 -0.0816 -0.2377 -0.2607
  639MOL0     C86150   4.703  11.940  10.844 -0.0272  0.1406 -0.4609
  639MOL0     C86151   4.813  11.957  10.738 -0.2420  0.1334  0.0746
  639MOL0     C86152   4.958  11.944  10.791  0.3584 -0.0715 -0.1595
  639MOL0     C86153   4.986  12.051  10.894  0.3983  0.0128  0.6510
  639MOL0     O86154   4.950  12.188  10.860 -0.6597 -0.1272 -0.6602
  639MOL0     C86155   5.039  12.254  10.778 -0.3251  0.7834  0.1182
  639MOL0     C86156   4.990  12.374  10.729 -0.2332 -0.2623 -0.7561
  639MOL0     C86157   5.069  12.434  10.638 -0.6040 -0.6035 -0.4845
  639MOL0     C86158   5.193  12.383  10.590 -0.6057 -0.3305  0.8674
  639MOL0     C86159   5.277  12.464  10.503  0.0612  0.7216  0.3459
  639MOL0     O86160   5.396  12.415  10.451 -0.0503  0.1402 -1.2408
  639MOL0     C86161   5.470  12.488  10.367 -0.7505 -0.8641  0.5509
  639MOL0     C86162   5.533  12.411  10.265  0.4111  0.4034  0.3125
  639MOL0     C86163   5.617  12.473  10.174  0.3637  0.3280  0.5485
  639MOL0     C86164   5.643  12.612  10.184  0.3207  1.0865 -1.1093
  639MOL0     O86165   5.727  12.686  10.108 -0.0966 -0.1420  0.6317
  639MOL0     C86166   5.842  12.610  10.068  0.0229 -0.4956  0.1675
  639MOL0     C86167   5.969  12.693  10.052  1.5222  0.0319 -0.5474
  639MOL0     C86168   5.981  12.824   9.979 -0.7175 -0.7015  0.1508
  639MOL0     C86169   5.894  12.936  10.017 -0.3876 -0.0030  0.3843
  639MOL0     C86170   5.899  12.984  10.162 -0.0750  0.4244 -0.2242
  639MOL0     C86171   5.783  13.069  10.192 -0.0042 -0.7768 -0.4350
  639MOL0     C86172   5.815  13.150  10.324  0.9022  0.3942  0.6664
  639MOL0     C86173   5.690  13.227  10.358 -0.2579 -0.7168  0.2593
  639MOL0    Cl86174   5.715  13.314  10.509 -0.3612 -0.3913  0.4084
  639MOL0     C86175   5.575  12.686  10.278  0.7523  0.5309  0.5684
  639MOL0     C86176   5.488  12.629  10.373 -0.6963  0.0241  0.3093
  639MOL0     O86177   5.225  12.573  10.465 -0.5066  0.4656 -0.8337
  639MOL0     C86178   5.234  12.256  10.635  0.1357  0.0947  0.0222
  639MOL0     C86179   5.152  12.195  10.725 -0.4840  0.0340 -1.2282
  639MOL0     N86180   4.507  11.967  10.685  0.2831 -0.5168 -0.4342
  639MOL0     N86181   4.407  11.906  10.654  0.5025 -0.4791 -0.0063
  639MOL0     C86182   3.565  10.939  10.674  0.5533  0.5282  0.2164
  639MOL0     C86183   3.514  10.812  10.663  0.9056 -0.5399 -0.1027
  639MOL0     C86184   3.265  10.435  10.794 -1.1030 -0.0588  0.1828
  639MOL0     C86185   3.136  10.424  10.853  0.1937 -1.1867 -1.0370
  639MOL0     C86186   3.070  10.297  10.864 -0.1772 -0.0408 -0.4552
  639MOL0     C86187   3.127  10.184  10.804 -1.0443  0.5828  0.3720
  639MOL0     O86188   3.070  10.059  10.784  0.5682  0.7918 -0.6377
  639MOL0     C86189   2.990  10.008  10.892 -0.2714 -0.2022 -0.6439
  639MOL0     C86190   2.982   9.855  10.867 -0.9188 -1.4687  1.2140
  639MOL0     C86191   3.091   9.778  10.939 -0.0126 -0.7103 -0.2098
  639MOL0     C86192   3.080   9.630  10.893  0.4215  0.7027 -0.3003
  639MOL0     C86193   2.981   9.564  10.974 -0.5701  0.0535  0.5702
  639MOL0     C86194   2.915   9.485  11.040 -0.2832  0.1701 -0.0637
  639MOL0     C86195   3.244  10.195  10.728 -0.2139 -0.3268 -0.5404
  639MOL0     C86196   3.320  10.316  10.733  0.7336  0.3352  0.3872
  639MOL0     C86197   3.440  10.330  10.647  0.9581 -0.2875  0.6052
  639MOL0     H86198   3.646  10.650  10.932 -1.1732  0.4302  1.7667
  639MOL0     H86199   3.762  10.882  10.941  0.2214  0.6416  0.6310
  639MOL0     H86200   3.684  11.216  10.663  2.6285 -1.7319  0.4997
  639MOL0     H86201   3.551  11.197  10.790 -0.0047  0.5932  2.0435
  639MOL0     H86202   3.723  11.290  10.946 -0.4024  4.9535  0.7689
  639MOL0     H86203   3.648  11.397  10.823 -0.6047 -0.5478 -0.0740
  639MOL0     H86204   3.849  11.364  10.682  2.6690 -1.6084 -1.5682
  639MOL0     H86205   3.921  11.246  10.793  0.3848 -0.0145 -2.3394
  639MOL0     H86206   3.880  11.548  10.816  0.2099 -0.6507 -2.8880
  639MOL0     H86207   3.940  11.461  10.959  2.0880  0.0983 -0.2687
  639MOL0     H86208   4.105  11.390  10.741  3.8654  2.0522 -1.1009
  639MOL0     H86209   4.063  11.553  10.705  2.0350  2.0091  2.2485
  639MOL0     H86210   4.139  11.529  10.987 -1.6861 -1.4334 -1.0216
  639MOL0     H86211   4.267  11.471  10.879  0.8558  1.0333  1.1639
  639MOL0     H86212   4.282  11.711  10.925  1.0866 -1.9106 -0.6877
  639MOL0     H86213   4.123  11.743  10.849 -0.3767  0.0998 -1.0840
  639MOL0     H86214   4.330  11.599  10.691  5.3789  1.6848 -1.1548
  639MOL0     H86215   4.214  11.742  10.653 -0.1061  1.1825  1.5937
  639MOL0     H86216   4.529  11.703  10.882 -0.7566  0.4948  0.1576
  639MOL0     H86217   4.663  12.036  10.878 -4.3773 -1.3758 -0.6554
  639MOL0     H86218   4.720  11.877  10.932  0.0978  0.5678 -0.1733
  639MOL0     H86219   4.804  11.873  10.668 -3.8845  0.0939  0.4427
  639MOL0     H86220   4.816  12.051  10.683  2.4215  0.3175  0.3738
  639MOL0     H86221   5.018  11.962  10.701  0.1254 -0.7285 -0.4524
  639MOL0     H86222   4.980  11.845  10.833  3.2482  0.4203 -0.2873
  639MOL0     H86223   5.089  12.049  10.933  0.5769  1.3938  0.3060
  639MOL0     H86224   4.922  12.021  10.977  1.4270 -1.5421  0.9222
  639MOL0     H86225   4.894  12.416  10.758  2.4634  3.7769  3.9493
  639MOL0     H86226   5.023  12.521  10.593 -3.2288 -1.2639  0.7718
  639MOL0     H86227   5.514  12.305  10.255 -1.5120  0.8954 -2.5825
  639MOL0     H86228   5.671  12.414  10.100  1.0227  2.7565 -1.0352
  639MOL0     H86229   5.868  12.525  10.131  0.3316 -1.0097 -0.6362
  639MOL0     H86230   5.814  12.573   9.969 -0.5415 -0.6015  0.3615
  639MOL0     H86231   5.992  12.716  10.157  0.3150  0.4948 -0.3645
  639MOL0     H86232   6.047  12.635  10.002  1.3347  1.9957 -3.3227
  639MOL0     H86233   6.083  12.860   9.989 -1.0873  0.2791  0.5619
  639MOL0     H86234   5.965  12.807   9.872 -1.1137 -0.8719  0.2324
  639MOL0     H86235   5.790  12.905  10.006 -0.8290  1.1420  1.1513
  639MOL0     H86236   5.920  13.025   9.959 -0.6992  0.3565  0.7885
  639MOL0     H86237   5.992  13.039  10.180  1.1411 -1.8924  1.0151
  639MOL0     H86238   5.900  12.902  10.235 -1.7876 -0.2279 -0.8665
  639MOL0     H86239   5.774  13.147  10.116 -0.7389 -1.1311 -0.7295
  639MOL0     H86240   5.688  13.014  10.192 -1.4325  1.5392  0.0964
  639MOL0     H86241   5.907  13.207  10.310  1.6194 -0.9821 -0.4351
  639MOL0     H86242   5.835  13.081  10.407  1.3696 -0.2294  0.0462
  639MOL0     H86243   5.665  13.298  10.278  2.2446 -1.7285 -1.5365
  639MOL0     H86244   5.612  13.152  10.372 -0.4092 -0.4878  0.6821
  639MOL0     H86245   5.593  12.793  10.282 -0.2345  0.6559  2.0103
  639MOL0     H86246   5.434  12.688  10.446  0.4890  0.1652  1.0851
  639MOL0     H86247   5.330  12.213  10.608 -0.7592 -0.7090 -2.0921
  639MOL0     H86248   5.177  12.094  10.756  2.5193  2.0606  4.1958
  639MOL0     H86249   3.552  11.012  10.595  1.6999 -0.2836 -0.7688
  639MOL0     H86250   3.440  10.796  10.585  1.5743 -0.6993 -0.7131
  639MOL0     H86251   3.086  10.509  10.897  1.0625 -1.5179  0.6475
  639MOL0     H86252   2.974  10.292  10.914 -0.5698  3.3711 -0.6276
  639MOL0     H86253   2.887  10.040  10.875  0.3137  0.6510 -2.9487
  639MOL0     H86254   3.021  10.025  10.996 -1.9616 -3.2114  0.4751
  639MOL0     H86255   2.984   9.852  10.757 -0.7076 -2.2142  1.2342
  639MOL0     H86256   2.884   9.815  10.896 -1.9159 -2.0166 -2.3703
  639MOL0     H86257   3.075   9.781  11.047  0.6210 -1.7617 -0.0696
  639MOL0     H86258   3.184   9.830  10.914 -1.1846  1.7420  0.2631
  639MOL0     H86259   3.051   9.621  10.787 -1.5576  0.7646  0.1975
  639MOL0     H86260   3.176   9.581  10.906  0.1295  0.3852  0.7681
  639MOL0     H86261   2.865   9.410  11.098 -1.9119  0.6151 -0.8657
  639MOL0     H86262   3.280  10.111  10.670 -2.0869 -0.8543 -1.0107
  639MOL0     H86263   3.529  10.354  10.705  1.0041  0.6460  0.1689
  639MOL0     H86264   3.462  10.233  10.601 -1.4614 -1.1528  1.1072
  639MOL0     H86265   3.432  10.408  10.571  0.6407  0.7517  1.6613
  640MOL0     O86266  10.552   1.351   1.848 -0.5590  1.0389  0.2066
  640MOL0     C86267  10.498   1.436   1.913 -0.5318  0.2192 -0.7449
  640MOL0     O86268  10.556   1.509   2.013 -0.4914 -0.0697  0.2529
  640MOL0     C86269  10.683   1.477   2.064 -0.4017  0.0597  0.5348
  640MOL0     C86270  10.796   1.431   1.986 -0.5602  0.2231 -0.4186
  640MOL0     C86271  10.911   1.399   2.047 -0.0732 -0.5543 -0.1840
  640MOL0     C86272  10.924   1.412   2.187  0.4720 -0.2451  0.6498
  640MOL0     O86273  11.041   1.373   2.244  0.0064 -0.1212  1.0981
  640MOL0     C86274  11.126   1.464   2.317  0.7761 -0.9359  0.1790
  640MOL0     C86275  11.236   1.387   2.378 -0.6627 -0.5454  0.0985
  640MOL0     C86276  11.327   1.467   2.486 -0.5621 -0.1352 -0.1434
  640MOL0     C86277  11.254   1.503   2.621 -1.0379  0.5765  0.0797
  640MOL0     C86278  11.346   1.575   2.721 -0.6157  0.0462 -0.0634
  640MOL0     C86279  11.460   1.500   2.788  0.2031  0.6894 -0.1720
  640MOL0     C86280  11.555   1.597   2.856 -0.4566  0.5792  0.6550
  640MOL0     C86281  11.657   1.652   2.759  0.1036 -0.5942  0.2875
  640MOL0     N86282  11.769   1.731   2.818 -0.2359 -0.0425 -0.6991
  640MOL0     C86283  11.794   1.865   2.816  0.3091  0.3174  0.1002
  640MOL0     C86284  11.922   1.886   2.853  1.0273 -0.0135 -0.4610
  640MOL0     C86285  11.995   2.021   2.848  0.4334  0.7798 -0.8972
  640MOL0     C86286  12.142   2.004   2.862  0.6796 -0.7853 -1.1351
  640MOL0     C86287  12.215   2.121   2.782  0.4363  0.6730 -0.7524
  640MOL0     C86288  12.204   2.104   2.631 -0.7428 -0.5239 -0.1504
  640MOL0     O86289  12.263   2.220   2.565  0.2745 -0.1957 -0.7954
  640MOL0     C86290  12.385   2.269   2.615  0.1805 -0.2164 -0.6102
  640MOL0     C86291  12.393   2.400   2.631 -0.7256 -0.1275  0.3146
  640MOL0     C86292  12.509   2.464   2.679  0.2930  0.2576  0.0562
  640MOL0     C86293  12.617   2.379   2.717  0.7227  0.0807 -0.2140
  640MOL0     C86294  12.740   2.442   2.762 -0.5493  0.2376 -0.0510
  640MOL0     O86295  12.829   2.361   2.821 -0.2701 -0.0730  0.5923
  640MOL0     C86296  12.960   2.403   2.844 -0.0026 -0.0292  1.1496
  640MOL0     C86297  13.003   2.420   2.972  0.5639 -0.4240 -0.0595
  640MOL0     C86298  13.141   2.446   2.994  0.3239  0.3022 -0.9771
  640MOL0     C86299  13.222   2.472   2.886  0.7795  0.7072 -0.8022
  640MOL0     O86300  13.360   2.500   2.894 -0.2591 -0.2716 -0.3971
  640MOL0     C86301  13.429   2.499   3.016 -0.0981 -0.1777  0.0399
  640MOL0     C86302  13.554   2.578   2.996 -0.4542  0.2132  0.2421
  640MOL0     C86303  13.674   2.483   2.965 -0.1254  1.1798 -1.2019
  640MOL0     C86304  13.819   2.535   2.961 -0.2496 -0.8590 -0.1342
  640MOL0     C86305  13.925   2.446   2.898 -0.0420  0.0087  0.1900
  640MOL0     C86306  13.941   2.320   2.981  1.3480  0.2088 -0.3256
  640MOL0     C86307  14.066   2.240   2.956  0.4310 -0.3066  0.1238
  640MOL0     C86308  14.071   2.120   3.051 -0.3700 -0.0861 -0.1302
  640MOL0    Cl86309  13.968   1.984   2.981 -0.0343 -0.7736  0.0423
  640MOL0     C86310  13.188   2.454   2.751  0.6420 -0.8052  0.2943
  640MOL0     C86311  13.052   2.419   2.731  0.4367 -0.6533 -0.7106
  640MOL0     O86312  12.759   2.562   2.733 -0.3647  0.4058  0.1944
  640MOL0     C86313  12.604   2.238   2.707 -0.2829 -0.3192  0.3233
  640MOL0     C86314  12.494   2.188   2.644 -0.1288  0.2575 -0.5391
  640MOL0     N86315  11.964   1.764   2.891 -0.2539  0.8852  0.8534
  640MOL0     N86316  11.878   1.670   2.864  0.4725 -0.6284 -0.5225
  640MOL0     C86317  10.823   1.467   2.266 -0.2458 -0.1593 -0.4004
  640MOL0     C86318  10.706   1.494   2.201  0.7104 -0.3303  0.4126
  640MOL0     C86319  10.347   1.457   1.887  0.2452 -0.1946  0.8276
  640MOL0     C86320  10.266   1.530   1.979  0.2554  0.9053  0.1829
  640MOL0     C86321  10.135   1.559   1.948 -0.3766 -0.5611 -0.0717
  640MOL0     C86322  10.065   1.510   1.839  0.4120 -0.2211 -0.5978
  640MOL0     O86323   9.937   1.556   1.806  0.8324  0.3909 -0.3585
  640MOL0     C86324   9.865   1.517   1.687  0.1658  0.0877  0.4206
  640MOL0     C86325   9.792   1.376   1.704  0.7583 -0.2627  0.4143
  640MOL0     C86326   9.697   1.371   1.827 -0.3147 -0.7950  0.1619
  640MOL0     C86327   9.645   1.222   1.832  0.6990 -0.5144  0.8884
  640MOL0     C86328   9.547   1.180   1.927 -0.1918  0.4213 -0.8462
  640MOL0     C86329   9.470   1.165   2.024  0.5309  0.0994 -0.2104
  640MOL0     C86330  10.143   1.442   1.747 -0.1454  0.2542  0.3625
  640MOL0     C86331  10.280   1.408   1.773  0.4810 -0.5040 -0.5303
  640MOL0     C86332  10.345   1.330   1.659 -0.4715  0.0965  0.5764
  640MOL0     H86333  10.781   1.430   1.878  0.9976  1.3525 -0.6887
  640MOL0     H86334  10.997   1.367   1.990  0.4235  0.1028  0.1757
  640MOL0     H86335  11.170   1.535   2.246  2.0782 -0.7242  1.1605
  640MOL0     H86336  11.058   1.524   2.379 -0.4828  0.5048 -2.4136
  640MOL0     H86337  11.297   1.352   2.294 -3.1746 -1.1632 -1.5827
  640MOL0     H86338  11.210   1.291   2.423  2.9932 -1.0571  1.4433
  640MOL0     H86339  11.360   1.563   2.445  0.3625 -0.5561 -0.4257
  640MOL0     H86340  11.415   1.403   2.494  0.8535  1.9065  1.4673
  640MOL0     H86341  11.176   1.577   2.601 -3.3416 -1.7040  0.1025
  640MOL0     H86342  11.208   1.413   2.665  1.5557 -2.9259 -3.5888
  640MOL0     H86343  11.384   1.657   2.659 -0.7247 -0.0580 -0.2696
  640MOL0     H86344  11.291   1.611   2.808  1.7999 -2.2273  2.6184
  640MOL0     H86345  11.414   1.431   2.859 -1.3368  1.1540 -0.6891
  640MOL0     H86346  11.506   1.442   2.708 -1.0688  1.0891 -1.2287
  640MOL0     H86347  11.600   1.541   2.938 -0.9121 -2.0155 -0.7412
  640MOL0     H86348  11.492   1.673   2.902 -1.4253 -1.2012  2.4316
  640MOL0     H86349  11.702   1.563   2.714 -2.3468 -1.6628 -0.2383
  640MOL0     H86350  11.608   1.712   2.682  0.0427 -2.7257 -1.4503
  640MOL0     H86351  11.727   1.946   2.790 -0.5201  0.3252  2.0526
  640MOL0     H86352  11.972   2.075   2.756  0.2261  0.5728 -0.9696
  640MOL0     H86353  11.961   2.072   2.939 -1.8780  2.4264 -2.5586
  640MOL0     H86354  12.161   2.003   2.969 -1.0152 -2.3075 -0.7944
  640MOL0     H86355  12.176   1.911   2.816  2.0713 -0.9196  0.1031
  640MOL0     H86356  12.318   2.126   2.819  1.4259  0.4939 -3.2808
  640MOL0     H86357  12.167   2.215   2.811  1.3193  0.3159  2.1678
  640MOL0     H86358  12.098   2.094   2.606 -0.8210 -0.1497  0.0287
  640MOL0     H86359  12.248   2.006   2.612 -3.2677 -1.8264  0.3022
  640MOL0     H86360  12.306   2.458   2.604  1.4422  3.5863  0.5313
  640MOL0     H86361  12.506   2.569   2.707  1.0363  0.4008 -0.3634
  640MOL0     H86362  12.950   2.402   3.064 -1.5199 -1.5501 -1.4009
  640MOL0     H86363  13.173   2.425   3.096 -1.3613  0.9871 -0.2662
  640MOL0     H86364  13.371   2.547   3.095 -1.5754 -1.7181 -0.0472
  640MOL0     H86365  13.441   2.396   3.049 -0.8694 -0.0787  0.6455
  640MOL0     H86366  13.534   2.655   2.921  1.0946  1.3996  0.9801
  640MOL0     H86367  13.566   2.641   3.085 -1.3363  2.8004 -1.3884
  640MOL0     H86368  13.688   2.408   3.043 -0.1186 -0.4924 -2.7466
  640MOL0     H86369  13.652   2.437   2.868  2.5677 -0.4469 -1.1545
  640MOL0     H86370  13.862   2.568   3.057  2.9873 -0.2014 -1.6582
  640MOL0     H86371  13.809   2.628   2.903 -1.3014 -1.7131 -1.3734
  640MOL0     H86372  14.015   2.507   2.909 -0.3670  0.4725  0.3072
  640MOL0     H86373  13.907   2.434   2.791  2.7983  1.1446 -0.5206
  640MOL0     H86374  13.928   2.333   3.089  0.6481 -1.7449 -0.1347
  640MOL0     H86375  13.851   2.260   2.960  0.1110  0.8187  2.7030
  640MOL0     H86376  14.151   2.302   2.985 -1.2839  2.0570  0.3496
  640MOL0     H86377  14.084   2.209   2.853  2.2270  0.3910  0.1860
  640MOL0     H86378  14.174   2.094   3.076  0.9054  3.4611 -1.1169
  640MOL0     H86379  14.033   2.148   3.150 -0.1317 -0.6590  0.1266
  640MOL0     H86380  13.260   2.474   2.673  2.8701  3.1547  3.0188
  640MOL0     H86381  13.005   2.402   2.635 -0.2180 -4.6682  0.1070
  640MOL0     H86382  12.685   2.169   2.725 -1.0896 -1.4296 -0.1751
  640MOL0     H86383  12.482   2.081   2.630 -0.9269  0.6308 -3.4420
  640MOL0     H86384  10.855   1.481   2.368 -1.6153  1.6858 -0.1693
  640MOL0     H86385  10.632   1.539   2.267  0.7615 -0.7216  0.7410
  640MOL0     H86386  10.302   1.572   2.073  0.7828  2.3448 -0.6330
  640MOL0     H86387  10.072   1.617   2.014  0.9906  0.5104  0.3408
  640MOL0     H86388   9.932   1.512   1.600  2.3205  1.8034  1.8733
  640MOL0     H86389   9.790   1.592   1.662 -1.3812 -0.6413  2.5923
  640MOL0     H86390   9.866   1.298   1.721  3.0364  2.0527  1.7943
  640MOL0     H86391   9.730   1.360   1.615 -1.4282  4.1220  0.9165
  640MOL0     H86392   9.617   1.445   1.815  1.9633  1.8065  0.2040
  640MOL0     H86393   9.754   1.399   1.916  0.9994 -0.1410 -0.8710
  640MOL0     H86394   9.601   1.208   1.733  0.5617  2.1467  0.5215
  640MOL0     H86395   9.731   1.156   1.848  0.5910 -0.5526  1.3187
  640MOL0     H86396   9.383   1.163   2.086 -1.2296  0.7983 -2.5075
  640MOL0     H86397  10.087   1.414   1.659 -1.2386  1.1505  0.7454
  640MOL0     H86398  10.378   1.234   1.699 -1.6720 -1.5238 -2.0974
  640MOL0     H86399  10.274   1.310   1.579 -0.2542  2.5910 -0.3288
  640MOL0     H86400  10.426   1.393   1.619 -0.5096  0.1684  0.6136
  641MOL0     O86401   1.840   8.907  10.321 -0.1359 -0.3223 -0.3613
  641MOL0     C86402   1.856   8.865  10.435  0.0765 -0.4932 -1.1538
  641MOL0     O86403   1.762   8.821  10.515  1.0362  0.1067 -0.2194
  641MOL0     C86404   1.632   8.820  10.482 -0.3025  0.5981  0.0046
  641MOL0     C86405   1.582   8.707  10.415 -0.1760  0.7052 -0.6171
  641MOL0     C86406   1.453   8.704  10.359  0.3772  0.4579  0.4249
  641MOL0     C86407   1.371   8.816  10.365 -0.1429 -0.6036  0.0541
  641MOL0     O86408   1.238   8.828  10.325 -0.0354  0.2326 -0.7289
  641MOL0     C86409   1.224   8.779  10.185 -0.0219 -0.1520 -0.6777
  641MOL0     C86410   1.072   8.787  10.151  0.0045  0.1304  0.3280
  641MOL0     C86411   1.034   8.751  10.008  0.8094  0.3119  0.6995
  641MOL0     C86412   0.975   8.618   9.993 -0.0848  0.8236  0.4896
  641MOL0     C86413   0.932   8.585   9.851  0.8232  0.5073  0.0795
  641MOL0     C86414   0.886   8.443   9.836  0.3495 -0.3027  0.6835
  641MOL0     C86415   0.826   8.400   9.699  0.4123 -0.1068 -0.2193
  641MOL0     C86416   0.738   8.274   9.728 -0.5780 -0.6761 -0.0520
  641MOL0     N86417   0.814   8.158   9.759 -0.5581 -0.1780  0.6865
  641MOL0     C86418   0.843   8.119   9.891  0.6327 -0.5037 -0.0821
  641MOL0     C86419   0.928   8.012   9.877 -0.0998  0.1546 -1.1456
  641MOL0     C86420   1.012   7.946   9.991 -0.5681 -0.5217  0.8538
  641MOL0     C86421   1.132   8.035  10.012  0.6216  0.0400  0.7080
  641MOL0     C86422   1.184   8.005  10.147 -0.4131  0.0844  0.3068
  641MOL0     C86423   1.321   7.942  10.134 -0.7017 -0.1618 -0.7657
  641MOL0     O86424   1.366   7.926  10.269  0.2079  0.3033 -0.2008
  641MOL0     C86425   1.501   7.894  10.287 -0.0485  0.0123 -0.6349
  641MOL0     C86426   1.579   7.854  10.182  0.8873 -0.6419  0.2915
  641MOL0     C86427   1.713   7.814  10.203  0.1928  0.0933 -0.1125
  641MOL0     C86428   1.769   7.817  10.333  0.1197 -0.0252  0.7528
  641MOL0     C86429   1.910   7.773  10.358  0.1083  0.4696  0.1254
  641MOL0     O86430   1.938   7.720  10.484  1.1580 -0.0780 -0.6125
  641MOL0     C86431   2.066   7.661  10.510 -0.1622 -0.2102 -0.5799
  641MOL0     C86432   2.197   7.724  10.476  0.3907  0.5058 -0.0948
  641MOL0     C86433   2.319   7.671  10.517  0.0913 -1.0621 -0.6271
  641MOL0     C86434   2.321   7.551  10.584 -0.6067  0.3269  0.8782
  641MOL0     O86435   2.433   7.490  10.624 -0.1886 -0.2649 -0.1706
  641MOL0     C86436   2.513   7.569  10.724  0.3487 -0.1153  0.3730
  641MOL0     C86437   2.642   7.490  10.762 -0.8658 -1.0681 -1.1457
  641MOL0     C86438   2.709   7.421  10.638 -0.1801  0.6607 -0.9414
  641MOL0     C86439   2.849   7.383  10.662 -0.6707  0.0956 -0.0065
  641MOL0     C86440   2.898   7.285  10.564 -0.5278 -0.4707  1.1180
  641MOL0     C86441   3.049   7.269  10.573 -0.5130  0.1948  0.9707
  641MOL0     C86442   3.102   7.172  10.472 -0.1049  0.3179  0.8441
  641MOL0     C86443   3.250   7.153  10.471  0.8878 -0.4762 -0.2317
  641MOL0    Cl86444   3.327   7.283  10.371  0.0851  0.0578 -0.2959
  641MOL0     C86445   2.205   7.483  10.608  0.2258 -0.0177  0.1856
  641MOL0     C86446   2.076   7.525  10.576 -0.3493 -0.3547  0.0343
  641MOL0     O86447   1.984   7.770  10.263 -0.2979  0.3209  0.5647
  641MOL0     C86448   1.692   7.861  10.442 -0.0765  0.3212 -0.0419
  641MOL0     C86449   1.555   7.897  10.415 -0.5319 -0.9427 -0.4558
  641MOL0     N86450   0.937   7.981   9.739  0.3606  0.5508  0.0914
  641MOL0     N86451   0.873   8.069   9.671  0.5253 -0.4234  0.0970
  641MOL0     C86452   1.416   8.931  10.433 -1.6436 -0.1393  0.7922
  641MOL0     C86453   1.550   8.935  10.487  0.5032  0.1358 -1.1699
  641MOL0     C86454   1.992   8.874  10.496 -0.2507  0.9340 -0.0164
  641MOL0     C86455   2.015   8.874  10.635  0.1192 -1.1490  0.2237
  641MOL0     C86456   2.143   8.879  10.678 -0.8677 -0.0315  0.1887
  641MOL0     C86457   2.253   8.866  10.593 -0.4019 -0.5791 -0.7594
  641MOL0     O86458   2.388   8.863  10.634  0.0052  0.8406  0.4725
  641MOL0     C86459   2.427   8.895  10.769  0.7527 -0.3064 -0.3117
  641MOL0     C86460   2.433   9.048  10.798  0.0588 -0.7719  0.2232
  641MOL0     C86461   2.498   9.081  10.934  0.6017  0.3765  0.6031
  641MOL0     C86462   2.652   9.064  10.915  0.3257 -0.8288  0.6782
  641MOL0     C86463   2.719   9.085  11.040  0.3986  1.2561  0.5065
  641MOL0     C86464   2.760   9.105  11.153  0.0043 -0.9243  0.7099
  641MOL0     C86465   2.233   8.847  10.460 -0.5352 -0.6318  0.2805
  641MOL0     C86466   2.102   8.862  10.405  0.0616  1.1999 -0.8829
  641MOL0     C86467   2.111   8.847  10.259 -0.1674 -0.7119  0.0960
  641MOL0     H86468   1.634   8.613  10.430 -0.9861  0.1538 -1.1438
  641MOL0     H86469   1.418   8.606  10.327  0.8522  0.4412 -0.0488
  641MOL0     H86470   1.294   8.844  10.133  2.9724  0.3129  3.4619
  641MOL0     H86471   1.266   8.678  10.183  2.1928  0.7335 -1.1966
  641MOL0     H86472   1.043   8.889  10.178 -3.3875 -0.8431  0.8403
  641MOL0     H86473   1.023   8.714  10.216 -0.0057  2.0601  2.5953
  641MOL0     H86474   1.115   8.769   9.936 -0.1427  4.2901  0.3762
  641MOL0     H86475   0.957   8.817   9.968 -0.1896 -0.1638  1.7891
  641MOL0     H86476   1.061   8.557  10.020 -0.7991  0.9459  3.2988
  641MOL0     H86477   0.889   8.595  10.057 -2.7038  1.4782 -2.4704
  641MOL0     H86478   0.847   8.648   9.825 -0.9980 -0.6602  2.8079
  641MOL0     H86479   1.015   8.611   9.784 -0.4238  4.4408 -0.1850
  641MOL0     H86480   0.969   8.376   9.859  1.2710  0.9249  1.0386
  641MOL0     H86481   0.800   8.424   9.901 -0.5857  0.7395 -0.2018
  641MOL0     H86482   0.907   8.385   9.627 -0.4435  2.7604 -1.9254
  641MOL0     H86483   0.768   8.477   9.649 -1.1119 -0.2147  1.2803
  641MOL0     H86484   0.671   8.295   9.812 -3.4353 -1.8419 -1.9050
  641MOL0     H86485   0.674   8.254   9.642  1.0330  1.2038 -1.7731
  641MOL0     H86486   0.812   8.167   9.983  1.2093  0.4486 -0.3744
  641MOL0     H86487   0.952   7.944  10.083 -0.4856 -2.2557  0.9092
  641MOL0     H86488   1.034   7.840   9.975 -3.9538 -1.2762  0.5005
  641MOL0     H86489   1.202   8.004   9.934 -0.4294  0.3364 -0.3792
  641MOL0     H86490   1.103   8.137   9.985 -3.5789 -1.4830 -1.5596
  641MOL0     H86491   1.129   7.939  10.215  1.2878 -0.7071  0.9661
  641MOL0     H86492   1.202   8.106  10.186 -0.6193  1.4069 -2.7664
  641MOL0     H86493   1.391   8.001  10.075 -2.2717  0.0001 -2.5178
  641MOL0     H86494   1.306   7.845  10.086 -0.1685 -0.1371 -0.9841
  641MOL0     H86495   1.542   7.863  10.081  3.5210  1.0081 -0.6426
  641MOL0     H86496   1.758   7.777  10.111 -1.3840  1.0152 -1.2964
  641MOL0     H86497   2.187   7.826  10.442  3.1399  2.3209  3.8734
  641MOL0     H86498   2.407   7.730  10.495 -0.1338  0.0572  1.2715
  641MOL0     H86499   2.538   7.661  10.670  1.3328 -0.4751  0.1995
  641MOL0     H86500   2.451   7.595  10.810  0.3697 -5.0478  2.2310
  641MOL0     H86501   2.706   7.558  10.819 -3.2385 -0.2431  0.7234
  641MOL0     H86502   2.613   7.412  10.834 -0.0328 -0.6190 -0.3050
  641MOL0     H86503   2.664   7.323  10.619 -1.5438  1.2497 -0.8191
  641MOL0     H86504   2.697   7.488  10.552 -1.3500  2.6577  0.6907
  641MOL0     H86505   2.849   7.329  10.757  3.0542  2.7177  1.7379
  641MOL0     H86506   2.918   7.467  10.653  1.3706 -1.6967 -3.0925
  641MOL0     H86507   2.885   7.321  10.462  2.0150 -1.5461  0.3508
  641MOL0     H86508   2.839   7.193  10.572  0.8390 -1.5884 -0.9681
  641MOL0     H86509   3.100   7.366  10.568  0.4335 -0.3192  0.5407
  641MOL0     H86510   3.065   7.228  10.673 -1.4525  0.0996  1.0948
  641MOL0     H86511   3.079   7.213  10.373  1.0422 -0.4096  0.2527
  641MOL0     H86512   3.051   7.075  10.475 -1.2382  0.8380 -0.3393
  641MOL0     H86513   3.298   7.167  10.568  0.8203 -0.3842 -0.2098
  641MOL0     H86514   3.283   7.059  10.427  1.9901 -0.5668  0.7522
  641MOL0     H86515   2.214   7.381  10.643 -2.2293 -1.7425 -3.6303
  641MOL0     H86516   1.984   7.476  10.608 -0.9733 -0.1087 -1.3135
  641MOL0     H86517   1.752   7.868  10.532  3.2269 -2.2687 -1.8101
  641MOL0     H86518   1.496   7.935  10.498 -0.2220 -0.7903 -0.3059
  641MOL0     H86519   1.349   9.015  10.439  0.0112  1.1400  2.7668
  641MOL0     H86520   1.584   9.025  10.538 -1.7907  0.5987 -0.3384
  641MOL0     H86521   1.926   8.859  10.695 -0.0806  0.2694  0.3128
  641MOL0     H86522   2.155   8.887  10.786 -2.2542 -0.8026  0.4241
  641MOL0     H86523   2.519   8.847  10.806  0.1637 -0.7768  0.5666
  641MOL0     H86524   2.357   8.851  10.840  1.3650  0.9048  1.0866
  641MOL0     H86525   2.334   9.093  10.782  0.3848 -0.4628 -0.9926
  641MOL0     H86526   2.490   9.093  10.717  1.9828  0.8262  2.3248
  641MOL0     H86527   2.463   9.018  11.016  1.7551 -0.1438  0.7160
  641MOL0     H86528   2.475   9.186  10.956 -4.6863 -0.1150 -1.0730
  641MOL0     H86529   2.682   8.971  10.865 -1.1546  0.0675 -2.1222
  641MOL0     H86530   2.685   9.142  10.845 -1.2983 -0.8316 -0.1501
  641MOL0     H86531   2.816   9.132  11.240  2.6438  0.6494 -1.3000
  641MOL0     H86532   2.330   8.834  10.413  0.3649  3.8454  0.5050
  641MOL0     H86533   2.101   8.944  10.210 -2.7188 -1.8960 -2.0090
  641MOL0     H86534   2.198   8.796  10.218  0.9014 -0.8577  2.3815
  641MOL0     H86535   2.030   8.781  10.227  0.1455 -2.2731  2.2706
  642MOL0     O86536   2.644   9.314   2.722 -0.7986 -0.7369  0.0274
  642MOL0     C86537   2.718   9.362   2.807  0.1954  0.0908 -0.6445
  642MOL0     O86538   2.797   9.474   2.788  0.0678 -0.1828 -0.5760
  642MOL0     C86539   2.819   9.536   2.667 -1.8458 -0.0817 -0.1035
  642MOL0     C86540   2.806   9.670   2.658  0.0822  1.0498 -0.2532
  642MOL0     C86541   2.818   9.730   2.534  0.2628 -1.5644 -0.3121
  642MOL0     C86542   2.854   9.656   2.421 -0.1907 -0.3752  0.1283
  642MOL0     O86543   2.871   9.734   2.309  0.0852 -0.1869  0.1981
  642MOL0     C86544   2.940   9.684   2.197 -0.2401 -0.2964  0.0223
  642MOL0     C86545   3.030   9.788   2.153 -0.0021 -0.8982  0.6457
  642MOL0     C86546   3.084   9.750   2.014 -0.4671  0.5330 -0.0263
  642MOL0     C86547   3.177   9.858   1.981 -0.3180 -0.8609 -0.2464
  642MOL0     C86548   3.241   9.836   1.845  0.0763 -0.0930  0.5258
  642MOL0     C86549   3.335   9.952   1.815  0.8494 -1.2800 -0.0029
  642MOL0     C86550   3.414   9.922   1.688 -0.5795  0.7740 -0.0405
  642MOL0     C86551   3.497  10.039   1.652  0.7207  0.5716 -0.4351
  642MOL0     N86552   3.550  10.039   1.510 -0.0511 -0.3437  0.2377
  642MOL0     C86553   3.667  10.105   1.483 -0.3845  0.1713 -0.3936
  642MOL0     C86554   3.710  10.057   1.370  1.2549 -0.0084  0.1868
  642MOL0     C86555   3.820  10.112   1.293 -0.4224  0.0971  0.2526
  642MOL0     C86556   3.779  10.161   1.154  1.0574  0.4662 -0.9894
  642MOL0     C86557   3.899  10.193   1.074 -0.1006  0.4795  0.6474
  642MOL0     C86558   3.864  10.294   0.975 -0.4228 -1.0523 -0.4375
  642MOL0     O86559   3.977  10.324   0.885 -0.7196 -0.4713 -0.2944
  642MOL0     C86560   4.069  10.414   0.923 -0.1317  0.1011  0.1592
  642MOL0     C86561   4.147  10.468   0.822 -0.0728  0.5021 -0.5040
  642MOL0     C86562   4.221  10.583   0.831  1.0387 -0.1409  0.0176
  642MOL0     C86563   4.229  10.641   0.953  1.1850  0.8263 -0.2698
  642MOL0     C86564   4.314  10.761   0.970  0.0813  0.8799  0.3927
  642MOL0     O86565   4.374  10.807   0.852 -0.2507  0.6154  0.0921
  642MOL0     C86566   4.466  10.907   0.857 -0.1421 -0.5625 -0.2303
  642MOL0     C86567   4.442  11.045   0.827 -0.1631 -0.2702 -0.0610
  642MOL0     C86568   4.551  11.137   0.820  0.4666  0.3339  0.3103
  642MOL0     C86569   4.682  11.102   0.853 -0.0160 -0.0676 -0.1181
  642MOL0     O86570   4.792  11.183   0.841  0.2662 -0.2443 -1.0365
  642MOL0     C86571   4.773  11.317   0.800 -0.8089 -0.5119 -0.4194
  642MOL0     C86572   4.902  11.392   0.794 -0.3907  0.1755 -0.2772
  642MOL0     C86573   5.000  11.352   0.688 -0.3080 -0.0737  0.4327
  642MOL0     C86574   5.092  11.458   0.657 -0.7357  0.2471  0.2829
  642MOL0     C86575   5.202  11.401   0.569 -0.5869  0.2244 -0.0222
  642MOL0     C86576   5.299  11.517   0.534 -0.3704  0.3387 -0.8493
  642MOL0     C86577   5.433  11.465   0.477  1.1888  0.3074 -0.1404
  642MOL0     C86578   5.522  11.426   0.601 -0.4746 -0.2692  0.6862
  642MOL0    Cl86579   5.692  11.414   0.569 -0.2283 -0.1720  0.0588
  642MOL0     C86580   4.706  10.975   0.893 -0.5157  1.0078 -0.2310
  642MOL0     C86581   4.601  10.870   0.887  0.0393  0.5413 -0.6184
  642MOL0     O86582   4.342  10.794   1.086 -0.1001 -0.5764  0.3564
  642MOL0     C86583   4.159  10.592   1.066 -0.0815 -0.3849 -0.2409
  642MOL0     C86584   4.084  10.482   1.049  0.0880 -0.0469 -0.9706
  642MOL0     N86585   3.624   9.955   1.328 -0.9017 -0.2283 -0.1047
  642MOL0     N86586   3.534   9.938   1.424  0.2326 -0.4257  0.6901
  642MOL0     C86587   2.860   9.520   2.430  0.1739  0.8094  0.4864
  642MOL0     C86588   2.847   9.458   2.552 -0.9709  0.4911  0.2501
  642MOL0     C86589   2.711   9.308   2.943  0.4931 -0.5734  0.4006
  642MOL0     C86590   2.706   9.393   3.057  0.3375 -0.4906  0.7821
  642MOL0     C86591   2.669   9.351   3.185 -0.1546  1.1658  0.8852
  642MOL0     C86592   2.659   9.213   3.209 -0.3758 -0.5037  0.4366
  642MOL0     O86593   2.629   9.145   3.326  1.0365  0.6364 -0.1880
  642MOL0     C86594   2.524   9.193   3.418 -0.1453  0.7451 -0.3735
  642MOL0     C86595   2.396   9.192   3.346  1.0422  1.0439 -0.4737
  642MOL0     C86596   2.277   9.237   3.434 -0.7071 -0.1841 -0.0049
  642MOL0     C86597   2.136   9.205   3.377 -0.4867  0.2084 -0.6651
  642MOL0     C86598   2.115   9.064   3.374 -0.5817 -0.1979 -0.1791
  642MOL0     C86599   2.080   8.947   3.376  1.1475  0.8428  0.1098
  642MOL0     C86600   2.688   9.121   3.102 -0.1681 -0.0210  0.9757
  642MOL0     C86601   2.707   9.169   2.972 -0.3595  0.0947  0.1950
  642MOL0     C86602   2.739   9.070   2.868  0.4784 -0.6210  0.0671
  642MOL0     H86603   2.780   9.742   2.735 -0.7275  0.7539 -0.2458
  642MOL0     H86604   2.800   9.836   2.525  0.9991 -1.4240 -0.1871
  642MOL0     H86605   3.008   9.605   2.231 -1.8744 -0.5516  3.0450
  642MOL0     H86606   2.883   9.642   2.114  3.4948 -2.5636 -1.6101
  642MOL0     H86607   3.108   9.797   2.229 -0.7143  1.6875  1.1872
  642MOL0     H86608   2.979   9.885   2.145  0.3224 -0.8494 -1.1734
  642MOL0     H86609   3.001   9.756   1.942  0.1403  0.1421 -0.7692
  642MOL0     H86610   3.123   9.648   2.023 -1.3735 -0.0207 -1.8431
  642MOL0     H86611   3.126   9.955   1.976  1.9991  0.4429  0.3258
  642MOL0     H86612   3.253   9.861   2.059 -0.3354  1.9428 -0.2569
  642MOL0     H86613   3.293   9.741   1.840  1.1495  0.2360  3.6796
  642MOL0     H86614   3.162   9.846   1.769 -0.6104 -2.3484  0.8854
  642MOL0     H86615   3.281  10.047   1.804  2.7357  0.2203  2.4792
  642MOL0     H86616   3.415   9.967   1.889  1.4538 -0.9749 -0.7043
  642MOL0     H86617   3.353   9.874   1.612  1.3950 -1.5388 -0.3162
  642MOL0     H86618   3.479   9.840   1.720 -1.2032  0.4985  0.5416
  642MOL0     H86619   3.447  10.135   1.659  0.7482  0.7381 -2.1554
  642MOL0     H86620   3.588  10.035   1.713 -0.4796 -0.5631  1.4007
  642MOL0     H86621   3.723  10.189   1.523  1.2930 -0.3168 -1.6154
  642MOL0     H86622   3.866  10.190   1.355  0.2633  0.8882 -1.2146
  642MOL0     H86623   3.895  10.036   1.275  1.4395  1.5191  1.6221
  642MOL0     H86624   3.732  10.076   1.104  1.1113  0.6095 -1.2865
  642MOL0     H86625   3.711  10.244   1.178  0.4552  0.2658 -1.9676
  642MOL0     H86626   3.937  10.098   1.035 -0.4184  0.7033 -0.2281
  642MOL0     H86627   3.976  10.233   1.141  2.8146  0.8817 -2.6374
  642MOL0     H86628   3.811  10.380   1.017 -1.6725 -0.9357 -2.1371
  642MOL0     H86629   3.796  10.240   0.909 -0.8411 -0.2382 -0.6886
  642MOL0     H86630   4.131  10.422   0.724 -1.5092 -0.8959  0.3285
  642MOL0     H86631   4.268  10.623   0.741 -1.0752  0.9886 -0.6448
  642MOL0     H86632   4.340  11.074   0.803  0.4524  0.2982 -2.2127
  642MOL0     H86633   4.518  11.236   0.792 -2.0419 -0.5012  0.0891
  642MOL0     H86634   4.726  11.324   0.702  1.1153 -0.1021 -1.3505
  642MOL0     H86635   4.706  11.367   0.870 -0.4186 -0.9938  0.3113
  642MOL0     H86636   4.895  11.499   0.773  0.9360  0.2649 -0.3409
  642MOL0     H86637   4.950  11.376   0.891 -1.1555 -2.2914 -0.2270
  642MOL0     H86638   5.053  11.259   0.712 -1.3414 -1.0670 -0.9996
  642MOL0     H86639   4.956  11.320   0.594 -0.6948  2.6752 -0.3994
  642MOL0     H86640   5.129  11.501   0.751  4.4240 -1.1669 -0.7686
  642MOL0     H86641   5.052  11.534   0.589  0.7150  1.1910  0.4269
  642MOL0     H86642   5.175  11.365   0.470  2.2509  1.8923 -1.5754
  642MOL0     H86643   5.272  11.334   0.621  2.1933  3.4546  0.8147
  642MOL0     H86644   5.249  11.580   0.460 -2.1328 -1.5926 -1.3807
  642MOL0     H86645   5.320  11.576   0.624  0.0675 -0.3700 -0.4805
  642MOL0     H86646   5.492  11.538   0.422  1.4746 -0.9626 -1.5740
  642MOL0     H86647   5.431  11.379   0.410  0.6048 -1.1286  1.6218
  642MOL0     H86648   5.508  11.505   0.675  3.2025  1.2441 -0.0217
  642MOL0     H86649   5.492  11.325   0.629 -2.6689 -0.4280 -1.8164
  642MOL0     H86650   4.807  10.948   0.922 -0.9031 -1.5425 -0.9967
  642MOL0     H86651   4.619  10.765   0.906  0.9583  1.1196  2.3617
  642MOL0     H86652   4.168  10.646   1.160 -2.0112 -0.1864 -0.1273
  642MOL0     H86653   4.024  10.438   1.127  4.1666 -2.8902  0.9042
  642MOL0     H86654   2.882   9.458   2.343 -0.0432  0.1285  0.9039
  642MOL0     H86655   2.860   9.350   2.557  1.7084  0.7528  0.6238
  642MOL0     H86656   2.705   9.498   3.027 -1.2876 -0.6597  0.1702
  642MOL0     H86657   2.640   9.429   3.254  0.5061  2.3584 -0.1327
  642MOL0     H86658   2.559   9.289   3.457 -1.3852  1.0671 -0.0234
  642MOL0     H86659   2.502   9.129   3.503  0.1538 -3.3274 -3.0872
  642MOL0     H86660   2.377   9.088   3.320  0.0940  1.6890 -2.5237
  642MOL0     H86661   2.400   9.249   3.253 -2.3930  0.6278 -1.0008
  642MOL0     H86662   2.283   9.344   3.451  0.0614 -0.3246  0.6685
  642MOL0     H86663   2.281   9.187   3.531  0.3583  1.8602  1.0727
  642MOL0     H86664   2.064   9.243   3.449 -1.8265 -2.8359 -0.2622
  642MOL0     H86665   2.119   9.246   3.277  0.7226 -0.5820 -1.2154
  642MOL0     H86666   2.055   8.844   3.389  1.9487  0.3131 -2.1489
  642MOL0     H86667   2.698   9.015   3.125  0.6402  0.1807  1.5851
  642MOL0     H86668   2.810   9.129   2.809  0.2870  0.5614  0.9867
  642MOL0     H86669   2.796   8.984   2.902  0.7993 -0.0953  0.8953
  642MOL0     H86670   2.654   9.025   2.816 -0.2638 -1.7871  2.1970
  643MOL0     O86671   8.370   5.785   3.552 -0.5305 -0.0088 -0.0225
  643MOL0     C86672   8.275   5.749   3.478  0.6912 -0.4136  0.0875
  643MOL0     O86673   8.286   5.718   3.346 -0.4784 -0.2769  0.2566
  643MOL0     C86674   8.413   5.738   3.294 -0.6982  0.1659 -0.7692
  643MOL0     C86675   8.503   5.636   3.291 -0.0278  0.5767 -0.3352
  643MOL0     C86676   8.637   5.664   3.259 -0.3008  0.2280  0.0606
  643MOL0     C86677   8.680   5.793   3.222 -0.1312 -0.2130  0.4406
  643MOL0     O86678   8.798   5.831   3.175  0.3108 -0.3334 -0.0199
  643MOL0     C86679   8.881   5.734   3.113  1.2282  0.1385 -1.3640
  643MOL0     C86680   9.004   5.791   3.067 -0.1889 -0.3541  0.0684
  643MOL0     C86681   9.123   5.704   3.040  0.1199 -0.3692 -0.4101
  643MOL0     C86682   9.103   5.568   2.977  0.4184  0.8722  0.1111
  643MOL0     C86683   9.231   5.518   2.935 -0.3378  0.5984 -0.0209
  643MOL0     C86684   9.220   5.381   2.872 -0.7889  0.2214  0.4588
  643MOL0     C86685   9.362   5.318   2.862  0.2555 -0.0252 -1.0253
  643MOL0     C86686   9.356   5.196   2.764 -0.6960  0.6343 -0.1359
  643MOL0     N86687   9.479   5.116   2.765 -0.4274  0.0816  0.3229
  643MOL0     C86688   9.531   5.030   2.859 -0.0197  0.7716  0.4323
  643MOL0     C86689   9.654   5.001   2.808 -0.1970  0.6445 -0.2846
  643MOL0     C86690   9.759   4.921   2.876 -0.0008 -0.9727  0.2095
  643MOL0     C86691   9.722   4.777   2.883  0.2150  0.0603 -0.9258
  643MOL0     C86692   9.801   4.742   3.020  0.8274 -0.2711 -1.4329
  643MOL0     C86693   9.779   4.590   3.044  0.1646  0.5406  0.4470
  643MOL0     O86694   9.644   4.548   3.050  0.7787 -1.0131  0.2768
  643MOL0     C86695   9.628   4.416   3.026  0.3550 -0.8531  0.0825
  643MOL0     C86696   9.567   4.385   2.912  0.6593 -0.3901  1.1183
  643MOL0     C86697   9.556   4.247   2.873  0.5014  0.5360  0.7676
  643MOL0     C86698   9.602   4.142   2.951  0.1877 -0.4923 -0.1910
  643MOL0     C86699   9.596   4.008   2.890  0.5390 -0.1457 -0.4200
  643MOL0     O86700   9.502   3.983   2.796 -0.5077  0.4123  0.4965
  643MOL0     C86701   9.491   3.858   2.733  0.8343  0.1026  0.0067
  643MOL0     C86702   9.494   3.852   2.597 -0.2875  0.1059 -0.0070
  643MOL0     C86703   9.501   3.727   2.534 -0.0079 -0.2080  0.4213
  643MOL0     C86704   9.490   3.609   2.606 -0.3535 -0.7800  0.5217
  643MOL0     O86705   9.465   3.479   2.556 -0.0092  1.2593 -0.3279
  643MOL0     C86706   9.489   3.462   2.414 -0.0172 -0.1565 -0.0569
  643MOL0     C86707   9.438   3.320   2.381 -0.1954  1.0355  0.4085
  643MOL0     C86708   9.472   3.283   2.239 -0.9799  0.1128 -0.4293
  643MOL0     C86709   9.403   3.156   2.203 -0.1872  0.3721 -0.5192
  643MOL0     C86710   9.476   3.102   2.076  0.3765 -0.6079  0.7980
  643MOL0     C86711   9.408   2.976   2.013 -0.0584 -0.0396  0.9340
  643MOL0     C86712   9.463   2.845   2.077  0.0328  0.5075 -0.2840
  643MOL0     C86713   9.429   2.716   2.000  0.6061  1.4844  1.4078
  643MOL0    Cl86714   9.257   2.699   2.027 -0.0064  0.1168 -0.2758
  643MOL0     C86715   9.482   3.629   2.746  0.3518  0.4691  0.3098
  643MOL0     C86716   9.474   3.747   2.814 -0.2286 -0.6516 -0.1548
  643MOL0     O86717   9.680   3.931   2.931  1.0097  0.5982 -0.5241
  643MOL0     C86718   9.663   4.183   3.073  0.3330  0.0076 -0.6115
  643MOL0     C86719   9.668   4.320   3.109 -0.7315  0.3860 -0.2700
  643MOL0     N86720   9.675   5.067   2.694  0.5097  0.2920 -0.0073
  643MOL0     N86721   9.568   5.125   2.664  0.3303  0.2621  0.0190
  643MOL0     C86722   8.596   5.900   3.224  0.8475  0.0103 -0.3167
  643MOL0     C86723   8.469   5.865   3.276  0.3822 -0.8721  0.6372
  643MOL0     C86724   8.138   5.715   3.535  0.7801 -0.6479  0.9444
  643MOL0     C86725   8.080   5.606   3.468 -0.1650  0.2064 -0.4865
  643MOL0     C86726   7.958   5.557   3.501  0.0185 -0.6781 -0.6058
  643MOL0     C86727   7.887   5.622   3.604  0.5780 -0.0431 -0.0126
  643MOL0     O86728   7.766   5.580   3.649  0.6069  0.3561  0.2064
  643MOL0     C86729   7.763   5.443   3.683  0.4782  0.1132 -0.7915
  643MOL0     C86730   7.844   5.397   3.811  0.2063 -0.7632 -0.2813
  643MOL0     C86731   7.820   5.489   3.929  0.3243 -0.3849 -0.1293
  643MOL0     C86732   7.945   5.469   4.010 -0.3125 -0.9060 -0.7801
  643MOL0     C86733   7.923   5.510   4.144  0.2444  0.3448 -0.4373
  643MOL0     C86734   7.914   5.555   4.259  0.0702  0.0090  0.4332
  643MOL0     C86735   7.939   5.730   3.663 -0.1645 -0.9802 -0.0802
  643MOL0     C86736   8.069   5.776   3.636  0.2346 -0.1235 -1.0838
  643MOL0     C86737   8.125   5.868   3.732  0.6269  0.1404  0.4229
  643MOL0     H86738   8.487   5.532   3.319  2.4663  0.1526 -0.1817
  643MOL0     H86739   8.707   5.581   3.260  0.8705  1.1284  2.6798
  643MOL0     H86740   8.893   5.652   3.186  3.2515  2.1390  0.7333
  643MOL0     H86741   8.842   5.690   3.021  0.0546 -2.6629  0.3239
  643MOL0     H86742   9.036   5.861   3.145  1.6582  0.5663 -1.4300
  643MOL0     H86743   8.981   5.851   2.979  1.0000  1.2596  0.7862
  643MOL0     H86744   9.169   5.682   3.137 -0.2882 -1.0212 -0.3624
  643MOL0     H86745   9.194   5.771   2.991 -1.5252  0.4462 -1.7810
  643MOL0     H86746   9.050   5.502   3.046  2.5001 -0.7925  0.2461
  643MOL0     H86747   9.051   5.584   2.882  1.7690  2.3800 -0.4275
  643MOL0     H86748   9.282   5.595   2.875  0.8537 -0.2315 -0.1240
  643MOL0     H86749   9.287   5.501   3.027  0.4950  0.9827 -0.4388
  643MOL0     H86750   9.152   5.318   2.929  0.2949 -1.7666 -0.3327
  643MOL0     H86751   9.182   5.388   2.770  3.5138 -1.2016 -1.4915
  643MOL0     H86752   9.384   5.276   2.961  1.0815 -2.6349 -2.2254
  643MOL0     H86753   9.442   5.389   2.839  0.9827 -0.9007 -1.2823
  643MOL0     H86754   9.268   5.136   2.790 -1.2587  1.6487  0.3452
  643MOL0     H86755   9.333   5.231   2.663 -1.7129 -0.7978 -0.4476
  643MOL0     H86756   9.489   4.989   2.950  1.4723  1.3437  1.4123
  643MOL0     H86757   9.858   4.943   2.836  0.6226  0.9337  2.6201
  643MOL0     H86758   9.755   4.970   2.974 -0.3360  2.3997 -1.3478
  643MOL0     H86759   9.614   4.759   2.887  0.1356 -0.6024 -3.8889
  643MOL0     H86760   9.766   4.723   2.799  0.9007 -0.7522 -0.0669
  643MOL0     H86761   9.754   4.788   3.107  2.3607  0.2347 -0.8420
  643MOL0     H86762   9.904   4.776   3.016  0.1518  2.6090  1.8928
  643MOL0     H86763   9.827   4.567   3.140 -1.7781  0.7726  1.5249
  643MOL0     H86764   9.827   4.534   2.963  0.8374 -1.2061  1.9754
  643MOL0     H86765   9.522   4.468   2.859  1.8792 -0.0848  0.5244
  643MOL0     H86766   9.499   4.215   2.787 -0.5996  1.5658  1.0937
  643MOL0     H86767   9.505   3.935   2.527 -1.1599 -0.1652 -0.4806
  643MOL0     H86768   9.520   3.715   2.428  0.8008  2.6582  0.1784
  643MOL0     H86769   9.434   3.537   2.356 -1.8091 -0.3536  1.3068
  643MOL0     H86770   9.596   3.468   2.393  0.2462  1.8169  1.5709
  643MOL0     H86771   9.494   3.247   2.440  1.3474  0.5956 -1.4827
  643MOL0     H86772   9.329   3.315   2.380 -0.1630 -1.0613 -1.5998
  643MOL0     H86773   9.447   3.363   2.168 -1.3158  0.6033  0.2385
  643MOL0     H86774   9.581   3.276   2.232 -1.0052  0.5398 -1.5248
  643MOL0     H86775   9.295   3.163   2.191 -0.0414  2.4251 -0.8960
  643MOL0     H86776   9.427   3.096   2.291  2.8863 -1.4752 -2.4088
  643MOL0     H86777   9.583   3.091   2.094  0.3589  1.8016  3.0681
  643MOL0     H86778   9.465   3.183   2.003 -0.5680 -1.5414 -0.1230
  643MOL0     H86779   9.299   2.983   2.019  0.0680  2.5430  1.6026
  643MOL0     H86780   9.436   2.982   1.907  1.3346  1.2019  1.3266
  643MOL0     H86781   9.443   2.836   2.185  0.6100  3.3217  0.1409
  643MOL0     H86782   9.572   2.843   2.073  0.0652 -1.3415  0.5027
  643MOL0     H86783   9.453   2.708   1.893 -0.8783 -1.0239  1.1875
  643MOL0     H86784   9.489   2.632   2.038  0.2421  0.4067 -0.2965
  643MOL0     H86785   9.471   3.541   2.809 -2.5968 -0.4601 -1.3098
  643MOL0     H86786   9.464   3.755   2.922 -0.4804  3.3698 -0.3085
  643MOL0     H86787   9.702   4.102   3.134 -2.2027  0.1972  1.4459
  643MOL0     H86788   9.705   4.352   3.206 -0.6792 -0.8273  0.1248
  643MOL0     H86789   8.637   5.999   3.210  0.2330  0.1763 -0.9749
  643MOL0     H86790   8.414   5.956   3.299  0.1431 -0.8697  0.0703
  643MOL0     H86791   8.140   5.548   3.399  1.6475 -3.2386  3.5131
  643MOL0     H86792   7.920   5.466   3.456 -0.1194  0.5101 -3.0286
  643MOL0     H86793   7.788   5.373   3.603  0.0434  0.1720 -0.9811
  643MOL0     H86794   7.657   5.434   3.709 -0.1528  1.0069 -2.8642
  643MOL0     H86795   7.948   5.393   3.777  0.6466  1.2136  0.6803
  643MOL0     H86796   7.818   5.294   3.834 -3.2978 -0.3681 -1.7766
  643MOL0     H86797   7.737   5.454   3.991  0.9535  2.1009  2.2816
  643MOL0     H86798   7.816   5.595   3.905 -0.9587 -0.2398  0.6386
  643MOL0     H86799   7.966   5.362   4.008  2.2772 -0.4668 -0.5437
  643MOL0     H86800   8.030   5.529   3.976  0.2410 -1.4519 -0.3862
  643MOL0     H86801   7.897   5.606   4.352 -2.9723  1.1557 -0.6458
  643MOL0     H86802   7.879   5.783   3.736  1.0114 -1.6361  1.4140
  643MOL0     H86803   8.146   5.822   3.830 -0.1027 -0.5031  0.2898
  643MOL0     H86804   8.221   5.910   3.702  1.0129 -1.0564 -0.0587
  643MOL0     H86805   8.053   5.947   3.753 -3.1064 -2.7586 -0.3193
  644MOL0     O86806  10.618   0.123   5.059  0.5094  0.4147  0.0058
  644MOL0     C86807  10.604   0.020   4.997 -1.0832  0.4020  1.4665
  644MOL0     O86808  10.644  -0.100   5.031 -0.2022  0.0906 -0.4199
  644MOL0     C86809  10.696  -0.107   5.160  0.1187 -0.2325  0.7515
  644MOL0     C86810  10.828  -0.061   5.179 -0.2623  0.2630  0.2191
  644MOL0     C86811  10.889  -0.077   5.303 -0.2631 -0.4783  0.8201
  644MOL0     C86812  10.817  -0.132   5.415 -0.9260 -0.2385  0.4572
  644MOL0     O86813  10.902  -0.153   5.522  0.1534  0.5289  0.0540
  644MOL0     C86814  10.847  -0.159   5.656 -0.2066  0.7483  0.4568
  644MOL0     C86815  10.839  -0.284   5.738 -0.7586 -0.4639  0.1471
  644MOL0     C86816  10.757  -0.404   5.677  0.3585  0.1707  0.0112
  644MOL0     C86817  10.739  -0.519   5.777  0.2080 -0.1804 -0.4454
  644MOL0     C86818  10.647  -0.634   5.723  0.1255  0.2565 -0.6219
  644MOL0     C86819  10.495  -0.603   5.738 -0.1895 -0.4544  0.0133
  644MOL0     C86820  10.404  -0.695   5.648 -0.3993 -0.1242  0.0777
  644MOL0     C86821  10.257  -0.648   5.665  0.2904 -0.5907  0.1365
  644MOL0     N86822  10.165  -0.730   5.598  0.3074  0.8383 -0.2506
  644MOL0     C86823  10.132  -0.760   5.465  0.0820  0.4760 -0.5723
  644MOL0     C86824  10.032  -0.852   5.472  0.1670  0.8723  0.1500
  644MOL0     C86825   9.946  -0.905   5.355 -0.2668 -0.3002  0.3690
  644MOL0     C86826  10.034  -1.015   5.285 -0.2461 -0.2431  0.7096
  644MOL0     C86827   9.959  -1.077   5.163  0.3413  0.9462  0.1636
  644MOL0     C86828  10.054  -1.196   5.116  0.3767  0.0344 -0.3105
  644MOL0     O86829   9.996  -1.282   5.018  0.5960 -0.3068 -0.2171
  644MOL0     C86830  10.058  -1.389   4.960 -0.4019 -0.4032  0.1331
  644MOL0     C86831  10.001  -1.455   4.854 -0.0877  0.2766 -0.5378
  644MOL0     C86832  10.042  -1.571   4.789  0.5808  0.1642  0.9978
  644MOL0     C86833  10.169  -1.620   4.824  0.5270 -0.1613  0.4338
  644MOL0     C86834  10.227  -1.743   4.743 -0.2331 -0.4045 -0.4478
  644MOL0     O86835  10.342  -1.803   4.795 -0.0391  0.5442 -0.1894
  644MOL0     C86836  10.403  -1.904   4.717 -0.1990 -0.6606 -0.1795
  644MOL0     C86837  10.433  -1.887   4.580  1.2741  0.8661 -0.0697
  644MOL0     C86838  10.507  -1.980   4.516  0.5190  0.2213 -0.4998
  644MOL0     C86839  10.559  -2.089   4.585 -0.3365 -0.1710  0.0487
  644MOL0     O86840  10.643  -2.182   4.526  0.3386  0.4094  0.1371
  644MOL0     C86841  10.744  -2.128   4.436 -0.2919 -0.2852 -0.4940
  644MOL0     C86842  10.844  -2.242   4.414 -0.0894  0.4645 -1.4098
  644MOL0     C86843  10.954  -2.184   4.322  0.0570 -0.1970  1.1645
  644MOL0     C86844  10.943  -2.242   4.180 -0.1549  0.4408 -0.6255
  644MOL0     C86845  11.003  -2.147   4.078  0.6412  0.1491 -0.3805
  644MOL0     C86846  10.986  -2.209   3.937  0.0481  0.0677 -0.1509
  644MOL0     C86847  11.021  -2.101   3.833 -0.0623  0.1695 -0.3195
  644MOL0     C86848  11.013  -2.149   3.690  0.2759 -0.2943  0.1504
  644MOL0    Cl86849  10.852  -2.222   3.643 -0.3232 -0.0379 -0.3401
  644MOL0     C86850  10.522  -2.105   4.718 -0.3037 -0.0067  0.0597
  644MOL0     C86851  10.446  -2.015   4.789 -0.4673  0.1521  0.0577
  644MOL0     O86852  10.167  -1.777   4.644 -0.5864  0.0292  0.2022
  644MOL0     C86853  10.234  -1.563   4.929  0.6600  0.0224  0.1269
  644MOL0     C86854  10.183  -1.446   4.996 -0.0354 -0.6281  0.1556
  644MOL0     N86855  10.004  -0.886   5.600  0.0843 -0.6753  0.4999
  644MOL0     N86856  10.075  -0.808   5.678 -0.7053 -0.7189  0.5158
  644MOL0     C86857  10.697  -0.180   5.399  0.9056 -0.0961  0.1843
  644MOL0     C86858  10.632  -0.169   5.275 -0.6799  0.8609  0.0752
  644MOL0     C86859  10.527   0.030   4.868  0.4703  0.0126 -0.3026
  644MOL0     C86860  10.424   0.127   4.852 -0.0896 -0.1827  0.3225
  644MOL0     C86861  10.361   0.139   4.729  0.4594 -0.1640  0.3740
  644MOL0     C86862  10.387   0.058   4.622  0.0692  0.2330 -0.2486
  644MOL0     O86863  10.311   0.085   4.511 -0.8420  0.4752 -0.6586
  644MOL0     C86864  10.341  -0.001   4.400 -0.0525 -0.6513  0.0422
  644MOL0     C86865  10.297   0.088   4.284 -0.4395 -0.0294 -0.1427
  644MOL0     C86866  10.162   0.166   4.296 -0.7952  0.1254 -0.4303
  644MOL0     C86867  10.111   0.250   4.180 -0.9071  0.5536  0.2478
  644MOL0     C86868  10.207   0.350   4.134  0.3267  0.8043  0.1730
  644MOL0     C86869  10.282   0.426   4.090 -0.0484 -0.1498  0.4141
  644MOL0     C86870  10.476  -0.049   4.643 -0.5604  0.2495  0.1542
  644MOL0     C86871  10.544  -0.065   4.766  0.3834  0.1315  0.1016
  644MOL0     C86872  10.659  -0.173   4.770 -0.7155  0.3097 -0.0553
  644MOL0     H86873  10.878  -0.027   5.089 -1.7271 -0.2135 -0.8239
  644MOL0     H86874  10.987  -0.031   5.317  0.0343  0.2411 -2.7616
  644MOL0     H86875  10.909  -0.084   5.706  1.2736 -0.5309  0.6205
  644MOL0     H86876  10.745  -0.120   5.653 -0.5470  0.1180  2.2967
  644MOL0     H86877  10.788  -0.256   5.831 -2.3031  0.9811 -1.0643
  644MOL0     H86878  10.940  -0.315   5.763  0.4021  1.5600 -1.6936
  644MOL0     H86879  10.792  -0.428   5.577  1.5930 -1.3911  0.7794
  644MOL0     H86880  10.653  -0.374   5.658 -0.5276 -3.4297 -1.5943
  644MOL0     H86881  10.836  -0.566   5.798 -0.1474 -2.1652 -2.8051
  644MOL0     H86882  10.698  -0.481   5.871 -0.2671  1.1864 -1.1870
  644MOL0     H86883  10.661  -0.655   5.616 -1.2167 -0.5878 -0.6626
  644MOL0     H86884  10.670  -0.725   5.779 -2.1816  0.6730  1.1498
  644MOL0     H86885  10.456  -0.612   5.839 -1.8587  0.3702 -0.5106
  644MOL0     H86886  10.477  -0.497   5.717 -0.9748 -0.2588  1.5040
  644MOL0     H86887  10.418  -0.799   5.680  2.1840 -0.3575 -1.5676
  644MOL0     H86888  10.436  -0.692   5.544  1.1654  1.3865  0.5563
  644MOL0     H86889  10.231  -0.652   5.771  0.1890 -4.8041  0.1380
  644MOL0     H86890  10.252  -0.549   5.619  0.8382 -0.7420 -0.2593
  644MOL0     H86891  10.173  -0.725   5.371  0.5515  1.3201 -0.0647
  644MOL0     H86892   9.850  -0.948   5.385 -0.8736 -0.8546 -2.1043
  644MOL0     H86893   9.929  -0.821   5.287  3.5264  0.0698 -0.3381
  644MOL0     H86894  10.124  -0.967   5.247 -0.0816 -0.9159  0.2361
  644MOL0     H86895  10.061  -1.096   5.354 -0.5184 -1.7106 -0.8317
  644MOL0     H86896   9.940  -1.001   5.087 -2.9170  2.3505  2.1582
  644MOL0     H86897   9.865  -1.120   5.200  1.8447 -4.1653 -1.1528
  644MOL0     H86898  10.073  -1.263   5.201 -1.7525 -0.1623  0.0496
  644MOL0     H86899  10.137  -1.146   5.065 -2.9182  1.1533 -5.2293
  644MOL0     H86900   9.906  -1.412   4.824  0.3312  0.0464 -2.3110
  644MOL0     H86901   9.985  -1.598   4.701  2.7503  3.2116 -1.5602
  644MOL0     H86902  10.385  -1.805   4.528 -0.3493 -0.2193 -0.3266
  644MOL0     H86903  10.524  -1.965   4.410 -0.2721 -0.0517 -0.6720
  644MOL0     H86904  10.710  -2.078   4.345  0.9375  3.0465  0.6835
  644MOL0     H86905  10.800  -2.047   4.484  1.6213 -2.5063  1.2708
  644MOL0     H86906  10.890  -2.261   4.512  1.5444  2.7468 -1.6480
  644MOL0     H86907  10.803  -2.337   4.380  1.5870 -0.4771 -0.9382
  644MOL0     H86908  10.951  -2.075   4.315  1.3028 -0.1475  1.1332
  644MOL0     H86909  11.054  -2.222   4.345  1.8013  0.0219 -4.4843
  644MOL0     H86910  10.841  -2.269   4.150 -0.0998 -1.7644  0.9228
  644MOL0     H86911  10.994  -2.338   4.191 -0.9468  0.2755  3.1468
  644MOL0     H86912  11.106  -2.118   4.099 -0.1187  1.5150  1.7200
  644MOL0     H86913  10.962  -2.046   4.075  1.4787  0.4673 -2.5893
  644MOL0     H86914  11.052  -2.295   3.925  0.0403 -0.2295  1.5768
  644MOL0     H86915  10.882  -2.240   3.921 -0.2229  0.1851  1.2406
  644MOL0     H86916  11.126  -2.070   3.831  0.8105 -2.4856 -0.1991
  644MOL0     H86917  10.945  -2.025   3.849  0.1103  0.2181  0.3167
  644MOL0     H86918  11.018  -2.063   3.623  0.5612 -0.1119  0.4069
  644MOL0     H86919  11.091  -2.218   3.657  0.1310  0.5333 -2.0924
  644MOL0     H86920  10.548  -2.204   4.756  0.7500  0.3183  0.2128
  644MOL0     H86921  10.427  -2.026   4.895 -1.0002 -0.5411 -0.1054
  644MOL0     H86922  10.328  -1.611   4.952  0.3630  0.0293  1.4436
  644MOL0     H86923  10.235  -1.388   5.071  1.1332  1.5976 -2.2445
  644MOL0     H86924  10.634  -0.227   5.474 -0.4279 -0.2470 -0.9721
  644MOL0     H86925  10.534  -0.211   5.253  0.0652 -1.1296  0.3330
  644MOL0     H86926  10.410   0.191   4.938  1.4322 -1.5910  1.6871
  644MOL0     H86927  10.294   0.225   4.720 -0.5406 -0.8354  1.1781
  644MOL0     H86928  10.289  -0.097   4.396 -0.3703 -0.5588 -5.2027
  644MOL0     H86929  10.449  -0.011   4.388  0.4411  3.9662 -1.4552
  644MOL0     H86930  10.299   0.019   4.200 -3.1423 -3.5145  2.3584
  644MOL0     H86931  10.376   0.159   4.256  0.6790 -1.8926 -1.9286
  644MOL0     H86932  10.154   0.240   4.376  0.7533  1.7387 -1.7001
  644MOL0     H86933  10.077   0.096   4.298 -1.3734  0.8366  0.5300
  644MOL0     H86934  10.073   0.190   4.097 -0.1691 -4.0795  2.9396
  644MOL0     H86935  10.018   0.302   4.207 -2.0204  1.2372 -4.0574
  644MOL0     H86936  10.354   0.492   4.047 -2.2419  1.6563 -0.7244
  644MOL0     H86937  10.490  -0.128   4.571 -2.6377  0.7551 -0.8871
  644MOL0     H86938  10.690  -0.220   4.676 -1.4873  0.7931 -0.5775
  644MOL0     H86939  10.751  -0.127   4.805  0.3082 -1.2096 -0.6747
  644MOL0     H86940  10.635  -0.256   4.837 -0.2422  0.7555  0.6795
  645MOL0     O86941   3.715   1.429   9.507  0.5098  0.0234  0.3401
  645MOL0     C86942   3.735   1.312   9.526 -0.2753  0.8451 -0.1297
  645MOL0     O86943   3.829   1.236   9.460  0.3957  0.3304  0.0057
  645MOL0     C86944   3.897   1.298   9.365 -0.0749 -1.4297  0.2639
  645MOL0     C86945   3.859   1.296   9.230 -0.2029  0.2424 -1.1496
  645MOL0     C86946   3.940   1.376   9.137 -0.4775  0.8567  0.1469
  645MOL0     C86947   4.043   1.456   9.184  0.5238  0.1730  0.1071
  645MOL0     O86948   4.124   1.524   9.092 -1.0195  0.7987  0.0919
  645MOL0     C86949   4.169   1.653   9.117  0.7218  0.1798 -0.2492
  645MOL0     C86950   4.232   1.713   8.989 -0.4786 -0.3875  0.2428
  645MOL0     C86951   4.141   1.712   8.860 -0.7289 -0.1918 -0.3781
  645MOL0     C86952   4.023   1.806   8.875 -0.5103  0.6101 -0.1276
  645MOL0     C86953   3.911   1.757   8.782 -0.3910  0.0347 -0.3127
  645MOL0     C86954   3.796   1.859   8.791 -0.5125  0.6428 -0.3320
  645MOL0     C86955   3.692   1.841   8.680  0.3908  0.1697  0.2054
  645MOL0     C86956   3.601   1.719   8.689 -0.4525 -0.2069  0.6671
  645MOL0     N86957   3.495   1.736   8.785  0.2552  0.2298  0.0746
  645MOL0     C86958   3.376   1.664   8.792  0.5802 -0.6226 -0.3708
  645MOL0     C86959   3.297   1.728   8.880 -0.9631 -1.2291 -0.4823
  645MOL0     C86960   3.157   1.689   8.906  0.8066 -0.5225  0.2734
  645MOL0     C86961   3.067   1.736   8.787  0.7319  0.6571  0.1864
  645MOL0     C86962   2.940   1.637   8.790 -0.1053 -0.1864  0.0786
  645MOL0     C86963   2.829   1.689   8.699 -0.6428  0.1132 -0.5043
  645MOL0     O86964   2.724   1.602   8.681 -0.8004 -0.0202  0.1266
  645MOL0     C86965   2.624   1.605   8.769 -0.1888  0.6438 -0.2281
  645MOL0     C86966   2.509   1.530   8.722  0.2268 -0.2534 -0.5861
  645MOL0     C86967   2.391   1.526   8.805  0.1533  0.1101 -0.6972
  645MOL0     C86968   2.386   1.604   8.928 -0.6138 -0.4243  0.4942
  645MOL0     C86969   2.276   1.606   9.019  0.4065  0.2973 -0.2569
  645MOL0     O86970   2.206   1.493   9.024  0.5958 -0.2956  0.5220
  645MOL0     C86971   2.077   1.482   9.073 -0.3081  0.9230 -0.2618
  645MOL0     C86972   1.988   1.588   9.076  0.8564  0.4500  0.5634
  645MOL0     C86973   1.858   1.568   9.129  0.3186  0.2521 -0.3550
  645MOL0     C86974   1.816   1.442   9.180 -0.3461  0.7693  0.1296
  645MOL0     O86975   1.694   1.403   9.228 -0.0876  0.2573  0.5131
  645MOL0     C86976   1.581   1.496   9.212  0.4579 -0.2142  0.1545
  645MOL0     C86977   1.542   1.506   9.059  0.0296 -0.1925  0.1538
  645MOL0     C86978   1.420   1.597   9.032  0.4858 -0.1987 -1.1146
  645MOL0     C86979   1.304   1.597   9.138 -0.6450 -0.8762  0.5527
  645MOL0     C86980   1.199   1.716   9.115 -0.4151  0.7044 -0.0419
  645MOL0     C86981   1.065   1.659   9.175  0.0857  0.6792  0.0907
  645MOL0     C86982   0.970   1.775   9.202 -0.1485  1.3694  0.1875
  645MOL0     C86983   0.840   1.701   9.232  0.3695  0.6083  0.5079
  645MOL0    Cl86984   0.711   1.830   9.208  0.0433 -0.2180 -0.2278
  645MOL0     C86985   1.910   1.336   9.174  0.1177 -0.9488 -0.3226
  645MOL0     C86986   2.038   1.358   9.132  0.0187  0.8156 -0.1170
  645MOL0     O86987   2.245   1.705   9.087 -0.2468  0.8795 -0.3336
  645MOL0     C86988   2.499   1.684   8.965 -0.2686  0.1107  0.5242
  645MOL0     C86989   2.618   1.682   8.895 -0.5049 -0.0802  0.1386
  645MOL0     N86990   3.383   1.815   8.947  0.4009 -0.4904  0.1344
  645MOL0     N86991   3.491   1.823   8.886  0.4381  0.8952 -1.0352
  645MOL0     C86992   4.082   1.451   9.320  0.2144  0.6417 -0.3574
  645MOL0     C86993   4.003   1.369   9.408 -0.4819  0.0535  0.2819
  645MOL0     C86994   3.632   1.241   9.623  0.0433 -0.9593  0.8460
  645MOL0     C86995   3.600   1.106   9.590 -1.0453 -0.6113 -0.8715
  645MOL0     C86996   3.517   1.030   9.666 -0.1451  0.5453  0.2864
  645MOL0     C86997   3.451   1.088   9.774 -1.2139 -0.2261 -0.4590
  645MOL0     O86998   3.352   1.035   9.854  0.4699  0.3301  0.6270
  645MOL0     C86999   3.306   0.896   9.841  0.6403 -0.1770 -0.2932
  645MOL0     C87000   3.192   0.882   9.728 -0.9793 -0.1863  0.1677
  645MOL0     C87001   3.062   0.952   9.756  0.0680  0.8375 -1.2109
  645MOL0     C87002   2.947   0.941   9.659  0.7064  0.5823  0.6530
  645MOL0     C87003   2.830   1.016   9.688 -0.0495  0.5819 -0.0461
  645MOL0     C87004   2.739   1.103   9.696  0.7186  0.4490 -0.6463
  645MOL0     C87005   3.470   1.223   9.796 -0.2590 -0.4561 -0.6716
  645MOL0     C87006   3.565   1.304   9.729 -0.0865  0.2214 -0.3886
  645MOL0     C87007   3.587   1.437   9.777 -0.7265 -0.3277  0.6256
  645MOL0     H87008   3.779   1.230   9.199  1.2763 -2.3849  0.3079
  645MOL0     H87009   3.934   1.371   9.029 -2.4985  0.7881  0.2195
  645MOL0     H87010   4.090   1.719   9.155  1.5809  0.9119  0.3118
  645MOL0     H87011   4.242   1.645   9.198 -0.9163  0.7635  1.3472
  645MOL0     H87012   4.329   1.665   8.973 -1.1677 -2.0789  0.8645
  645MOL0     H87013   4.251   1.819   9.004 -3.3331  0.3097 -0.5497
  645MOL0     H87014   4.097   1.612   8.851 -0.3495 -0.4816  0.7528
  645MOL0     H87015   4.200   1.735   8.771 -2.8434 -1.2162 -2.1472
  645MOL0     H87016   3.986   1.812   8.978 -0.4850  1.4074 -0.1581
  645MOL0     H87017   4.046   1.912   8.859 -0.8416  0.5724 -0.8837
  645MOL0     H87018   3.948   1.776   8.681 -0.3366  1.7811  0.0074
  645MOL0     H87019   3.872   1.657   8.804 -2.7596  0.6585 -1.3447
  645MOL0     H87020   3.743   1.843   8.886  1.6825 -0.8347  0.7402
  645MOL0     H87021   3.841   1.959   8.787 -0.4867  0.6910  0.8263
  645MOL0     H87022   3.744   1.840   8.583  0.7966  1.9476  0.3666
  645MOL0     H87023   3.622   1.923   8.692 -3.6187 -3.3768  5.1746
  645MOL0     H87024   3.567   1.708   8.586  0.4549 -1.0323  0.4546
  645MOL0     H87025   3.663   1.631   8.706  3.3362  1.5969 -2.2935
  645MOL0     H87026   3.343   1.586   8.724 -4.7485  1.0153 -0.0898
  645MOL0     H87027   3.142   1.582   8.923 -1.6839 -0.0087  1.8870
  645MOL0     H87028   3.103   1.733   8.991 -1.3578 -1.8666 -0.3008
  645MOL0     H87029   3.033   1.836   8.814 -0.6186 -0.5435  3.4924
  645MOL0     H87030   3.113   1.734   8.688  2.3733 -1.6913  0.9210
  645MOL0     H87031   2.903   1.613   8.890 -1.6789 -1.1245 -0.6857
  645MOL0     H87032   2.974   1.539   8.756  0.2306 -0.7135  1.8624
  645MOL0     H87033   2.873   1.701   8.600 -1.1790  0.8189 -0.6631
  645MOL0     H87034   2.803   1.789   8.736  3.6503  2.9051 -4.0717
  645MOL0     H87035   2.516   1.453   8.646 -0.1831 -2.0956  1.1593
  645MOL0     H87036   2.298   1.472   8.790 -0.0476  0.8130 -2.2092
  645MOL0     H87037   2.010   1.684   9.030 -0.6823  0.4837 -0.1817
  645MOL0     H87038   1.794   1.655   9.120  2.1203  1.7220  0.2473
  645MOL0     H87039   1.491   1.453   9.257  0.9508 -1.7219 -0.2307
  645MOL0     H87040   1.601   1.598   9.246  3.7313 -0.4326 -0.7309
  645MOL0     H87041   1.627   1.531   8.995  1.8008  1.3531  2.9208
  645MOL0     H87042   1.519   1.407   9.020  1.7872 -0.0634 -1.3415
  645MOL0     H87043   1.457   1.700   9.026  2.3024 -0.4713  2.5331
  645MOL0     H87044   1.376   1.560   8.939  0.7945  0.6772 -1.6162
  645MOL0     H87045   1.350   1.615   9.236  2.4124 -3.9762 -0.1160
  645MOL0     H87046   1.259   1.497   9.136 -3.1961  0.1670  1.3203
  645MOL0     H87047   1.187   1.734   9.008 -1.9112 -3.5735 -0.7953
  645MOL0     H87048   1.228   1.809   9.164  1.3196  0.6082 -0.8042
  645MOL0     H87049   1.022   1.575   9.118  0.6852  1.2152 -1.1997
  645MOL0     H87050   1.090   1.625   9.276 -2.8763 -1.1097  0.3449
  645MOL0     H87051   0.963   1.858   9.131 -0.0018  2.1244  1.0385
  645MOL0     H87052   0.998   1.829   9.292  1.6278 -1.2014  1.2846
  645MOL0     H87053   0.816   1.622   9.160  1.3840  1.7485 -1.1612
  645MOL0     H87054   0.837   1.657   9.332 -0.2714 -1.2702 -0.2837
  645MOL0     H87055   1.882   1.247   9.229 -2.1295  1.9727  3.9317
  645MOL0     H87056   2.104   1.271   9.130 -1.5417 -0.4895 -3.9613
  645MOL0     H87057   2.511   1.727   9.064 -1.1817  0.1890  0.6135
  645MOL0     H87058   2.701   1.739   8.935 -0.0681 -0.1755 -0.6288
  645MOL0     H87059   4.174   1.502   9.346 -0.0307  0.7431  0.3121
  645MOL0     H87060   4.032   1.369   9.513 -0.9783  1.5258  0.4442
  645MOL0     H87061   3.653   1.049   9.514 -1.4630 -4.9901  1.7875
  645MOL0     H87062   3.498   0.924   9.659 -1.4266  0.6540  1.8014
  645MOL0     H87063   3.256   0.871   9.935  1.1338 -0.3845 -0.0784
  645MOL0     H87064   3.384   0.821   9.825 -0.4717 -1.2754 -0.7832
  645MOL0     H87065   3.178   0.774   9.724 -0.1102 -0.2671 -1.4186
  645MOL0     H87066   3.239   0.912   9.633 -3.2016 -1.1662 -1.3267
  645MOL0     H87067   3.088   1.059   9.759 -0.6944  1.0554  2.4385
  645MOL0     H87068   3.033   0.922   9.857  1.0065  2.0040 -0.5648
  645MOL0     H87069   2.988   0.969   9.561  0.8386  1.6161  0.9881
  645MOL0     H87070   2.919   0.836   9.655  1.3031  0.3832 -3.6932
  645MOL0     H87071   2.677   1.189   9.717  0.0532 -0.8545  3.7923
  645MOL0     H87072   3.419   1.277   9.875 -2.1260 -2.0919 -0.6652
  645MOL0     H87073   3.536   1.514   9.719  0.2297 -0.1176  0.0347
  645MOL0     H87074   3.551   1.458   9.878 -0.9014  0.6515  0.3635
  645MOL0     H87075   3.695   1.455   9.777 -0.7554 -0.1213  1.4169
  646MOL0     O87076   8.113   9.005   0.815 -0.1755  0.9621 -0.1784
  646MOL0     C87077   8.072   9.117   0.834 -0.4763 -0.5775 -0.3663
  646MOL0     O87078   8.147   9.230   0.828 -0.8645  0.5394 -0.4979
  646MOL0     C87079   8.283   9.231   0.801 -0.1154  0.6328  0.1309
  646MOL0     C87080   8.327   9.347   0.744 -0.2534  0.4411  0.5239
  646MOL0     C87081   8.466   9.374   0.722 -0.5716  0.0867 -0.1326
  646MOL0     C87082   8.562   9.283   0.776  0.0659 -0.2698  0.3864
  646MOL0     O87083   8.694   9.300   0.774 -0.2689  0.2167  1.1221
  646MOL0     C87084   8.758   9.418   0.726 -1.0022  0.2794  0.1255
  646MOL0     C87085   8.898   9.431   0.785  0.0686 -0.7628  0.5132
  646MOL0     C87086   8.896   9.483   0.924  0.4555  0.9010  0.0335
  646MOL0     C87087   9.023   9.437   1.002  0.7521  0.8206  0.6263
  646MOL0     C87088   9.028   9.475   1.147 -1.2294 -0.0532  0.4912
  646MOL0     C87089   9.123   9.375   1.215  0.2537 -0.6273 -0.7673
  646MOL0     C87090   9.148   9.413   1.369 -0.6664 -0.3682 -0.4147
  646MOL0     C87091   9.228   9.542   1.389  0.7488  0.2681 -0.7341
  646MOL0     N87092   9.372   9.547   1.350  0.3087 -0.3847  0.8426
  646MOL0     C87093   9.473   9.475   1.404 -0.3752 -0.6661 -0.1715
  646MOL0     C87094   9.583   9.491   1.326  0.2755  0.8436  0.1168
  646MOL0     C87095   9.706   9.400   1.339  0.8265  0.3333 -0.4113
  646MOL0     C87096   9.775   9.361   1.210  0.5399  0.2434  0.8759
  646MOL0     C87097   9.668   9.286   1.118 -0.0172  0.4299 -0.1631
  646MOL0     C87098   9.717   9.149   1.056 -1.1322 -0.0652 -0.2030
  646MOL0     O87099   9.848   9.188   0.992  0.4544 -0.1938  0.2494
  646MOL0     C87100   9.946   9.104   1.020  0.1825  0.1551 -0.0929
  646MOL0     C87101   9.949   8.982   0.959  0.6314  0.2021 -0.0350
  646MOL0     C87102  10.044   8.888   1.003 -1.0045 -0.2277 -0.2649
  646MOL0     C87103  10.141   8.927   1.107 -0.0850  1.5951 -0.8610
  646MOL0     C87104  10.248   8.840   1.160  0.3084  0.5000  0.9777
  646MOL0     O87105  10.349   8.891   1.231 -0.1566 -0.0991 -0.2653
  646MOL0     C87106  10.425   8.800   1.300  0.0841  0.5871  0.7817
  646MOL0     C87107  10.563   8.818   1.281 -0.2125 -0.3611  0.1810
  646MOL0     C87108  10.645   8.732   1.345 -0.8838 -0.8753  0.1695
  646MOL0     C87109  10.602   8.646   1.442  0.3834  0.1880 -0.2287
  646MOL0     O87110  10.687   8.578   1.522 -0.1063 -0.0630 -0.4948
  646MOL0     C87111  10.669   8.615   1.660  1.0169 -0.8576 -0.8027
  646MOL0     C87112  10.787   8.563   1.745  0.2738 -0.2312  0.3361
  646MOL0     C87113  10.932   8.599   1.703  0.4477 -0.3584 -0.9895
  646MOL0     C87114  10.973   8.752   1.722 -0.0490 -0.3575 -0.3400
  646MOL0     C87115  11.114   8.783   1.660  0.5656 -0.2265 -0.6447
  646MOL0     C87116  11.228   8.730   1.748 -0.5619 -0.3831  0.6730
  646MOL0     C87117  11.372   8.753   1.690  0.2047  0.7041 -1.0026
  646MOL0     C87118  11.457   8.749   1.815 -0.3290 -0.6424  1.1664
  646MOL0    Cl87119  11.632   8.700   1.780  0.2971 -0.1502  0.2392
  646MOL0     C87120  10.465   8.629   1.457  0.3657  0.5928 -0.6751
  646MOL0     C87121  10.373   8.699   1.388 -0.1842 -0.8303  0.4136
  646MOL0     O87122  10.233   8.724   1.122 -0.0385 -0.2813 -0.1766
  646MOL0     C87123  10.134   9.051   1.161  0.2748  0.2415 -0.9425
  646MOL0     C87124  10.041   9.140   1.117 -0.1242 -0.4576  0.7161
  646MOL0     N87125   9.556   9.562   1.216  0.4166 -0.0697  0.1137
  646MOL0     N87126   9.424   9.599   1.231  0.6541  0.1402 -0.0050
  646MOL0     C87127   8.507   9.164   0.832 -0.7367  0.2142 -0.7099
  646MOL0     C87128   8.376   9.130   0.835  1.2591 -0.0938 -0.0742
  646MOL0     C87129   7.933   9.138   0.887 -0.0781  0.2069  0.3471
  646MOL0     C87130   7.911   9.242   0.987  0.2225 -0.2759 -1.7421
  646MOL0     C87131   7.787   9.249   1.059 -0.5894 -0.4856 -0.4560
  646MOL0     C87132   7.688   9.165   1.020  0.0894  1.2980 -0.4471
  646MOL0     O87133   7.563   9.191   1.074  0.4983 -0.8384  0.4156
  646MOL0     C87134   7.455   9.171   0.982 -0.2000 -0.2795  0.6633
  646MOL0     C87135   7.334   9.259   1.018  1.2101 -0.3186 -0.0252
  646MOL0     C87136   7.209   9.236   0.928  0.3548 -0.3770  0.2662
  646MOL0     C87137   7.220   9.326   0.807  1.1483  0.0267  0.4877
  646MOL0     C87138   7.175   9.469   0.831  0.5274  0.1872 -0.6725
  646MOL0     C87139   7.132   9.578   0.851 -0.3487 -0.1845  0.8763
  646MOL0     C87140   7.712   9.052   0.932  0.2423  0.3175  0.6391
  646MOL0     C87141   7.826   9.040   0.866 -0.4670 -0.1209 -0.2350
  646MOL0     C87142   7.849   8.929   0.755 -0.7692  0.0090 -0.0351
  646MOL0     H87143   8.265   9.434   0.725  0.5751  0.5437 -2.1248
  646MOL0     H87144   8.495   9.462   0.666  2.4418 -1.4907 -1.2950
  646MOL0     H87145   8.771   9.407   0.618  1.9673 -2.8043  0.6208
  646MOL0     H87146   8.691   9.498   0.758 -1.3138 -1.0505  3.1501
  646MOL0     H87147   8.960   9.491   0.717 -1.6914  0.7288  0.1059
  646MOL0     H87148   8.951   9.336   0.791  0.0211 -0.8641 -0.4913
  646MOL0     H87149   8.806   9.441   0.968  1.6573 -0.9444  0.8562
  646MOL0     H87150   8.895   9.593   0.931  0.4665  0.8892  0.1975
  646MOL0     H87151   9.038   9.329   0.988 -0.3584  0.1278  3.8428
  646MOL0     H87152   9.102   9.489   0.947  0.5671  0.1444 -0.3154
  646MOL0     H87153   9.062   9.579   1.159  3.1355 -0.7860 -3.0186
  646MOL0     H87154   8.925   9.467   1.183 -1.5503 -1.0322 -0.5836
  646MOL0     H87155   9.077   9.277   1.203 -1.3336 -0.1296  0.8381
  646MOL0     H87156   9.215   9.370   1.157 -0.1057  0.3067 -1.4590
  646MOL0     H87157   9.202   9.330   1.415  1.8340  0.4034 -1.7486
  646MOL0     H87158   9.054   9.420   1.424 -0.2956  1.8086  0.0275
  646MOL0     H87159   9.171   9.624   1.345  0.5122  0.4799 -0.0419
  646MOL0     H87160   9.222   9.563   1.496  1.0027  2.2448 -1.0678
  646MOL0     H87161   9.463   9.417   1.496 -1.0615 -2.7144 -1.4550
  646MOL0     H87162   9.778   9.449   1.406  0.3890  1.8721 -1.0123
  646MOL0     H87163   9.684   9.303   1.384  0.2226  0.5497 -0.2385
  646MOL0     H87164   9.813   9.450   1.160  0.9733  0.4894  1.6250
  646MOL0     H87165   9.858   9.294   1.234  0.9112 -0.2143 -1.4866
  646MOL0     H87166   9.641   9.344   1.030  1.8082  0.5662 -0.6778
  646MOL0     H87167   9.580   9.259   1.178 -1.2098  0.3452 -1.9028
  646MOL0     H87168   9.647   9.105   0.984 -1.4008  0.7000 -0.4210
  646MOL0     H87169   9.729   9.068   1.128  1.2363  0.7313  0.3777
  646MOL0     H87170   9.868   8.967   0.888 -2.0765  2.9505  2.2126
  646MOL0     H87171  10.057   8.798   0.945  2.6239 -0.5038  0.7030
  646MOL0     H87172  10.602   8.883   1.204  0.2717  0.0445  0.7583
  646MOL0     H87173  10.753   8.742   1.339 -1.0915  1.5477 -0.2345
  646MOL0     H87174  10.672   8.724   1.668 -0.2410 -0.9415  4.4393
  646MOL0     H87175  10.572   8.578   1.693  0.0944  0.0687 -2.3774
  646MOL0     H87176  10.765   8.589   1.849  0.6969 -2.2463  0.9770
  646MOL0     H87177  10.787   8.454   1.751  1.8036 -0.4202 -1.6925
  646MOL0     H87178  10.993   8.527   1.759  2.2728  0.5043 -1.7651
  646MOL0     H87179  10.944   8.584   1.595  0.1372  0.6422 -1.1795
  646MOL0     H87180  10.968   8.782   1.828 -2.1383 -4.1737  0.8423
  646MOL0     H87181  10.908   8.815   1.660  1.7108  0.0550 -1.8437
  646MOL0     H87182  11.145   8.888   1.654  2.1355 -0.6676 -0.8690
  646MOL0     H87183  11.118   8.732   1.563  0.6718 -0.6669 -0.4098
  646MOL0     H87184  11.220   8.766   1.851  2.9190  0.1657  0.8626
  646MOL0     H87185  11.218   8.621   1.755 -1.3822 -0.4521 -1.0828
  646MOL0     H87186  11.373   8.849   1.638  0.5789  0.6245 -1.1441
  646MOL0     H87187  11.395   8.673   1.619  3.0897  1.4390 -1.0268
  646MOL0     H87188  11.462   8.848   1.861 -0.8067  1.2549 -2.5081
  646MOL0     H87189  11.429   8.671   1.887  2.8241 -0.8840  2.2725
  646MOL0     H87190  10.431   8.556   1.528 -2.1332  0.7869 -1.5881
  646MOL0     H87191  10.266   8.700   1.408 -0.4586 -0.9570 -0.9378
  646MOL0     H87192  10.201   9.077   1.242  0.5653  0.3008 -1.1994
  646MOL0     H87193  10.041   9.239   1.161  1.3379  0.7921 -1.8304
  646MOL0     H87194   8.582   9.100   0.878  1.3059  2.1497 -1.1744
  646MOL0     H87195   8.361   9.036   0.887  0.7427  0.6704  1.1941
  646MOL0     H87196   7.979   9.319   1.019  1.1390 -1.8764  0.4064
  646MOL0     H87197   7.751   9.329   1.123 -0.9151 -0.6465 -0.4361
  646MOL0     H87198   7.433   9.068   0.954 -0.7299  0.3698 -1.5299
  646MOL0     H87199   7.493   9.215   0.889 -2.5554 -1.1931 -0.8394
  646MOL0     H87200   7.369   9.363   1.013  3.3102 -0.9450  0.7454
  646MOL0     H87201   7.308   9.250   1.124  1.0598 -0.1332 -0.0443
  646MOL0     H87202   7.115   9.255   0.981 -0.8185 -3.5933 -0.4189
  646MOL0     H87203   7.207   9.129   0.902 -1.0870 -0.6782  1.4380
  646MOL0     H87204   7.324   9.327   0.772  0.8249  0.6008 -0.4746
  646MOL0     H87205   7.146   9.290   0.735  0.4047 -0.0116  1.2561
  646MOL0     H87206   7.100   9.678   0.871 -0.8510  0.0123 -0.7415
  646MOL0     H87207   7.637   8.975   0.918  1.9351 -1.5530  1.4192
  646MOL0     H87208   7.895   8.983   0.672 -0.5979  0.3442  0.2787
  646MOL0     H87209   7.926   8.854   0.776  1.7383  2.6914  0.9230
  646MOL0     H87210   7.757   8.875   0.727 -0.4644 -1.2577  1.2601
  647MOL0     O87211   5.587   3.057  11.320 -0.6723 -0.2003 -0.6390
  647MOL0     C87212   5.585   3.006  11.428  0.3349  0.6720  0.4069
  647MOL0     O87213   5.684   2.947  11.488  0.6761 -0.1600 -1.2627
  647MOL0     C87214   5.800   2.930  11.417 -1.5670  0.0697  0.3220
  647MOL0     C87215   5.818   2.837  11.313  0.7581  0.4115  0.3940
  647MOL0     C87216   5.948   2.796  11.265 -0.7473 -0.3385 -0.0182
  647MOL0     C87217   6.057   2.851  11.340  0.4289  0.2009 -0.2616
  647MOL0     O87218   6.187   2.823  11.315 -0.6054 -0.4729 -0.0286
  647MOL0     C87219   6.220   2.744  11.202 -0.4725  0.0609  0.0890
  647MOL0     C87220   6.367   2.695  11.221  0.1573  0.0501  0.8137
  647MOL0     C87221   6.480   2.802  11.223  0.3673 -0.1181  0.4655
  647MOL0     C87222   6.621   2.752  11.214  0.0132  1.1073 -0.4738
  647MOL0     C87223   6.722   2.860  11.169 -0.0323 -0.1393 -0.2657
  647MOL0     C87224   6.862   2.803  11.207  0.0901 -0.0724  0.2447
  647MOL0     C87225   6.970   2.910  11.205  0.5159 -0.3745  0.0600
  647MOL0     C87226   6.996   2.971  11.066 -0.6192 -0.3975 -0.5312
  647MOL0     N87227   7.126   3.042  11.082 -0.7212  0.6897  0.7676
  647MOL0     C87228   7.255   2.987  11.076  0.1653 -0.6572 -0.5779
  647MOL0     C87229   7.339   3.092  11.078 -0.2618  0.0246  0.8741
  647MOL0     C87230   7.489   3.089  11.082  0.5769 -0.5068 -0.7661
  647MOL0     C87231   7.556   3.191  11.001 -0.1084  0.1570  0.9400
  647MOL0     C87232   7.569   3.143  10.861 -0.9787 -0.4642  0.6142
  647MOL0     C87233   7.670   3.234  10.784  0.2722  0.2509  0.3116
  647MOL0     O87234   7.806   3.212  10.839  0.9258  0.2965  0.2074
  647MOL0     C87235   7.914   3.224  10.755 -0.0217  0.8424 -1.3537
  647MOL0     C87236   7.920   3.282  10.628  0.2710 -0.5459  0.0618
  647MOL0     C87237   8.042   3.309  10.573  0.2925 -0.9870  0.5565
  647MOL0     C87238   8.159   3.276  10.627 -0.2357 -0.0415  0.6355
  647MOL0     C87239   8.292   3.289  10.565  0.1137 -0.0248 -0.1660
  647MOL0     O87240   8.403   3.271  10.642 -0.3396 -0.1124 -0.2332
  647MOL0     C87241   8.538   3.268  10.603  0.4621  0.1290 -0.5738
  647MOL0     C87242   8.606   3.180  10.684 -1.1795 -0.7001  0.2077
  647MOL0     C87243   8.742   3.158  10.660  0.5996  0.1831 -0.3930
  647MOL0     C87244   8.810   3.218  10.554 -0.3357 -0.1250  0.5775
  647MOL0     O87245   8.938   3.197  10.512 -0.3796  0.0476  0.0970
  647MOL0     C87246   9.019   3.078  10.552  1.1501 -0.0282 -0.0700
  647MOL0     C87247   9.165   3.085  10.512  0.4015  0.3899 -0.8111
  647MOL0     C87248   9.190   3.086  10.360 -0.2123 -0.2890 -0.1105
  647MOL0     C87249   9.150   2.959  10.283  0.1299  0.3345  0.4069
  647MOL0     C87250   9.133   2.982  10.130  0.1193  0.6058 -0.2791
  647MOL0     C87251   9.085   2.852  10.052 -0.2087 -0.9047 -0.5490
  647MOL0     C87252   9.024   2.874   9.916  0.5339  0.2895  0.2981
  647MOL0     C87253   8.947   2.739   9.887 -0.4476 -0.4360  1.0030
  647MOL0    Cl87254   9.063   2.609   9.838  0.5026 -0.6301  0.2904
  647MOL0     C87255   8.730   3.297  10.462  0.1320 -1.3257 -0.0629
  647MOL0     C87256   8.594   3.322  10.491 -0.3962 -0.1249  0.7711
  647MOL0     O87257   8.291   3.314  10.445  0.0138  0.3001 -0.1597
  647MOL0     C87258   8.149   3.203  10.749 -0.7163 -0.1688 -0.1400
  647MOL0     C87259   8.029   3.183  10.815  0.0225  0.0274  1.0445
  647MOL0     N87260   7.267   3.209  11.086  0.0726  0.6496 -0.2050
  647MOL0     N87261   7.149   3.173  11.081  1.0020  0.0525  0.3427
  647MOL0     C87262   6.040   2.952  11.426  0.2162 -0.5604  0.0732
  647MOL0     C87263   5.918   2.992  11.472 -0.1275  1.0378 -0.1737
  647MOL0     C87264   5.457   3.006  11.504 -0.1443  0.1015  0.3894
  647MOL0     C87265   5.448   2.944  11.632  0.1827  0.0143  0.2489
  647MOL0     C87266   5.331   2.917  11.695  0.1535  0.9720 -0.5021
  647MOL0     C87267   5.210   2.951  11.639 -0.2675 -1.0991 -0.3707
  647MOL0     O87268   5.106   2.924  11.729 -0.9210 -1.0276 -0.4176
  647MOL0     C87269   4.977   2.934  11.668  0.4696 -0.0572 -0.2742
  647MOL0     C87270   4.888   2.829  11.727 -0.1543  0.2183 -0.9637
  647MOL0     C87271   4.859   2.871  11.871  0.1758  0.4307  0.4825
  647MOL0     C87272   4.875   2.751  11.967 -0.0561  0.5055  0.1679
  647MOL0     C87273   4.796   2.784  12.091 -0.3869  0.2185  0.6136
  647MOL0     C87274   4.734   2.802  12.193 -0.2158 -0.3285 -0.7122
  647MOL0     C87275   5.212   3.034  11.529 -0.1178  0.1895  1.0687
  647MOL0     C87276   5.333   3.041  11.451  0.1515  0.1579 -0.1363
  647MOL0     C87277   5.310   3.105  11.313  0.3384  0.2980  0.5393
  647MOL0     H87278   5.729   2.787  11.278 -1.5101  3.5340  1.2411
  647MOL0     H87279   5.960   2.722  11.187  2.5975  1.4677 -1.4243
  647MOL0     H87280   6.157   2.656  11.190 -0.2726  0.1236 -1.6956
  647MOL0     H87281   6.208   2.805  11.112 -0.1730 -0.5961 -0.4012
  647MOL0     H87282   6.392   2.617  11.148 -1.5951 -3.0403  3.2809
  647MOL0     H87283   6.371   2.645  11.318  0.7769 -0.0403  0.7430
  647MOL0     H87284   6.477   2.854  11.319 -0.5758 -0.1002  0.4396
  647MOL0     H87285   6.465   2.871  11.139  2.6223 -0.3018 -0.1622
  647MOL0     H87286   6.641   2.708  11.312 -2.7371 -3.5384 -1.7249
  647MOL0     H87287   6.639   2.668  11.147  1.3688 -0.7441  2.0405
  647MOL0     H87288   6.719   2.861  11.060  1.9873 -1.1185 -0.3909
  647MOL0     H87289   6.704   2.959  11.212  3.1174  0.9635 -1.1953
  647MOL0     H87290   6.850   2.758  11.306 -1.3443  0.0621  0.1561
  647MOL0     H87291   6.885   2.721  11.138  0.8507  1.0976 -0.9498
  647MOL0     H87292   7.059   2.861  11.246 -1.4492 -2.8964  1.6281
  647MOL0     H87293   6.931   2.979  11.279 -1.8434 -0.6846 -0.7918
  647MOL0     H87294   6.993   2.896  10.986 -0.9551 -0.4893 -0.4359
  647MOL0     H87295   6.924   3.052  11.050 -0.8976 -0.7845 -1.2839
  647MOL0     H87296   7.275   2.882  11.059 -2.7799 -1.4839  0.4635
  647MOL0     H87297   7.511   3.101  11.188 -1.1667 -0.0611 -0.4184
  647MOL0     H87298   7.516   2.988  11.052 -0.4447  0.0326 -3.8132
  647MOL0     H87299   7.500   3.285  11.012 -1.6437 -0.6692  0.4984
  647MOL0     H87300   7.655   3.200  11.046 -0.6089 -0.4742  2.2232
  647MOL0     H87301   7.465   3.154  10.829 -1.5367 -1.9498  1.7980
  647MOL0     H87302   7.597   3.039  10.845 -2.9326 -0.8539 -0.5528
  647MOL0     H87303   7.645   3.340  10.794  3.3362  1.3461 -2.0825
  647MOL0     H87304   7.672   3.209  10.677  0.5040 -1.5415  0.6976
  647MOL0     H87305   7.833   3.323  10.577  0.6483 -1.8562 -1.7412
  647MOL0     H87306   8.051   3.372  10.486  2.6122 -0.6579  0.9743
  647MOL0     H87307   8.565   3.140  10.777  2.0858 -2.0417  1.2196
  647MOL0     H87308   8.801   3.108  10.737 -1.9118 -0.0590  1.5018
  647MOL0     H87309   9.010   3.061  10.660 -0.4640 -0.9859 -0.3174
  647MOL0     H87310   8.975   2.996  10.495 -3.4702  1.1318  1.4263
  647MOL0     H87311   9.197   3.183  10.550 -0.0211 -0.0371  0.7452
  647MOL0     H87312   9.223   3.010  10.566 -1.2043  0.0735  0.6003
  647MOL0     H87313   9.134   3.168  10.315  0.6420  0.5220  0.2607
  647MOL0     H87314   9.299   3.094  10.347  0.0731 -3.5581 -0.3929
  647MOL0     H87315   9.058   2.914  10.322 -0.8610 -1.7395 -3.7073
  647MOL0     H87316   9.234   2.890  10.287 -0.1091 -0.4366 -3.5559
  647MOL0     H87317   9.213   3.029  10.072 -0.5850 -0.0122 -1.7945
  647MOL0     H87318   9.053   3.056  10.139  0.9959  1.3644  2.2812
  647MOL0     H87319   9.172   2.785  10.057 -0.3927 -1.1462 -0.5324
  647MOL0     H87320   9.010   2.812  10.121  0.9636 -0.1473  1.2254
  647MOL0     H87321   9.103   2.887   9.841  0.8240 -0.0669  0.5377
  647MOL0     H87322   8.954   2.958   9.914 -0.1237 -0.2478 -1.5322
  647MOL0     H87323   8.880   2.704   9.965 -1.9660 -0.9746 -0.4898
  647MOL0     H87324   8.891   2.768   9.798  0.3015  3.2409  1.5548
  647MOL0     H87325   8.770   3.329  10.366 -3.2841 -2.8288 -2.1709
  647MOL0     H87326   8.540   3.395  10.432  2.9335  3.3323  1.6225
  647MOL0     H87327   8.234   3.151  10.794 -1.1813 -0.2203  0.7178
  647MOL0     H87328   8.029   3.144  10.916 -0.5516 -0.3784  0.8923
  647MOL0     H87329   6.129   3.007  11.453  1.8444 -1.4904 -2.8877
  647MOL0     H87330   5.923   3.053  11.562  0.1278 -1.4592  1.6061
  647MOL0     H87331   5.541   2.921  11.683 -0.4180 -0.6065  1.0950
  647MOL0     H87332   5.343   2.857  11.785  0.8342 -0.2001 -1.3435
  647MOL0     H87333   4.968   2.910  11.561 -0.7409 -1.3721  0.0859
  647MOL0     H87334   4.931   3.032  11.685  2.3753  0.6587  1.0571
  647MOL0     H87335   4.930   2.729  11.713  2.2979  1.2779 -1.6225
  647MOL0     H87336   4.791   2.832  11.676 -1.0934 -0.0046  0.7458
  647MOL0     H87337   4.751   2.885  11.879  0.3231  2.3721 -0.2960
  647MOL0     H87338   4.923   2.951  11.909  1.9006 -0.3123 -0.7007
  647MOL0     H87339   4.818   2.670  11.921 -3.4278  1.5098  2.2604
  647MOL0     H87340   4.980   2.730  11.987  0.3608  1.4701 -0.8731
  647MOL0     H87341   4.684   2.791  12.287  0.4827 -2.3695 -0.5132
  647MOL0     H87342   5.120   3.079  11.494 -1.3049 -1.5961  1.7749
  647MOL0     H87343   5.206   3.129  11.289  0.3835  0.5179  0.5644
  647MOL0     H87344   5.367   3.198  11.314 -0.4321  0.7762  1.1797
  647MOL0     H87345   5.341   3.036  11.234  3.0956  1.0938  0.8245
  648MOL0     O87346   9.823   4.433   0.626 -0.4272  0.3192 -0.2763
  648MOL0     C87347   9.858   4.552   0.622  0.1624 -0.0476 -0.1801
  648MOL0     O87348   9.875   4.626   0.513 -0.8602  0.4239 -0.5180
  648MOL0     C87349   9.883   4.564   0.389  0.2036 -0.2394 -0.1235
  648MOL0     C87350   9.780   4.485   0.335 -0.2226  1.1829 -0.7156
  648MOL0     C87351   9.787   4.430   0.209  0.2078 -0.2749  0.5694
  648MOL0     C87352   9.908   4.448   0.146  0.5681 -0.8816  0.1689
  648MOL0     O87353   9.933   4.392   0.019 -0.3307 -0.5471  0.3871
  648MOL0     C87354   9.920   4.248   0.014 -0.2003 -0.5211 -0.3293
  648MOL0     C87355   9.910   4.209  -0.139 -0.0742  1.0698 -0.1534
  648MOL0     C87356   9.898   4.051  -0.161 -0.3012 -0.8651 -0.1448
  648MOL0     C87357   9.932   4.029  -0.315  0.1358 -0.1749 -0.0871
  648MOL0     C87358   9.881   3.885  -0.355  0.8196  0.6474 -0.3636
  648MOL0     C87359   9.729   3.858  -0.333 -0.6625  0.0073  0.4256
  648MOL0     C87360   9.638   3.947  -0.428  0.5788  0.3800 -1.3386
  648MOL0     C87361   9.496   3.888  -0.438  0.9503  0.5050  0.3059
  648MOL0     N87362   9.399   3.952  -0.527  0.2316 -0.4981  1.2887
  648MOL0     C87363   9.371   3.903  -0.651 -0.6090  0.1456 -0.2306
  648MOL0     C87364   9.280   3.991  -0.699  0.6988 -0.2692  1.5318
  648MOL0     C87365   9.200   3.967  -0.824 -0.5284 -0.9435 -0.1806
  648MOL0     C87366   9.075   3.878  -0.811 -0.8375  0.4966  0.0984
  648MOL0     C87367   9.001   3.836  -0.938  0.4252 -0.2988  0.3475
  648MOL0     C87368   8.866   3.761  -0.916  0.4363 -0.2964 -0.0581
  648MOL0     O87369   8.806   3.731  -1.042  0.1622  0.5760  0.0393
  648MOL0     C87370   8.846   3.631  -1.126 -0.5452  0.6553  0.3265
  648MOL0     C87371   8.943   3.538  -1.091 -0.6463 -0.0459 -0.0892
  648MOL0     C87372   8.980   3.437  -1.178  0.5337 -0.1015 -0.4691
  648MOL0     C87373   8.923   3.431  -1.309  0.3354  0.0926  0.7824
  648MOL0     C87374   8.967   3.333  -1.407 -0.1579 -0.1094 -0.7814
  648MOL0     O87375   8.875   3.298  -1.511  0.3844 -0.9825  0.0884
  648MOL0     C87376   8.906   3.210  -1.614  0.6135 -0.0317 -0.3464
  648MOL0     C87377   9.032   3.211  -1.668 -0.1637  0.4205  0.1824
  648MOL0     C87378   9.073   3.100  -1.749 -0.1907  0.2552 -0.9323
  648MOL0     C87379   8.975   3.008  -1.803 -0.2887 -1.5706  0.2887
  648MOL0     O87380   9.001   2.897  -1.876 -0.5174  0.0727 -0.5098
  648MOL0     C87381   9.143   2.869  -1.891 -0.2647 -0.3832 -0.9443
  648MOL0     C87382   9.163   2.763  -2.008  0.4192 -0.6355  1.2500
  648MOL0     C87383   9.085   2.633  -1.984 -0.3751  1.6128  0.3785
  648MOL0     C87384   9.061   2.553  -2.107 -0.0451 -0.2424  0.0227
  648MOL0     C87385   9.189   2.524  -2.186 -1.4163  0.8983 -0.4914
  648MOL0     C87386   9.139   2.422  -2.302 -0.9344 -0.3277  0.4321
  648MOL0     C87387   9.219   2.453  -2.434 -0.8022 -0.3663 -0.5132
  648MOL0     C87388   9.156   2.398  -2.564 -1.0245  0.7659 -0.8345
  648MOL0    Cl87389   9.149   2.216  -2.557 -0.1169 -0.1153  0.4100
  648MOL0     C87390   8.841   3.020  -1.753  0.5434  0.7347 -0.4544
  648MOL0     C87391   8.806   3.118  -1.659  0.1379 -0.1161  1.1665
  648MOL0     O87392   9.080   3.284  -1.388  0.6643  0.1329 -0.5316
  648MOL0     C87393   8.817   3.521  -1.337 -0.2061  0.8365 -0.1996
  648MOL0     C87394   8.780   3.619  -1.242  0.5187  0.5507  0.6255
  648MOL0     N87395   9.255   4.093  -0.603  0.4629 -0.3639  0.6210
  648MOL0     N87396   9.327   4.060  -0.506 -0.2862  0.0425 -0.4416
  648MOL0     C87397  10.006   4.538   0.190  0.3558  0.5837  0.4614
  648MOL0     C87398   9.991   4.596   0.316 -0.6350 -0.1498 -0.9357
  648MOL0     C87399   9.861   4.628   0.755  0.1479  0.3969  0.1881
  648MOL0     C87400   9.821   4.554   0.872 -0.1627 -0.1368  0.2661
  648MOL0     C87401   9.839   4.613   1.001 -0.1695  0.3070  0.1577
  648MOL0     C87402   9.864   4.754   1.015  0.4949 -0.1385  0.2146
  648MOL0     O87403   9.878   4.819   1.132  0.2840  1.3943 -0.4000
  648MOL0     C87404   9.846   4.745   1.253 -0.3257 -0.2515  0.0118
  648MOL0     C87405   9.867   4.833   1.380  0.9453  0.2285  0.7209
  648MOL0     C87406   9.746   4.935   1.397  0.2356 -0.1463 -0.2154
  648MOL0     C87407   9.772   5.024   1.522 -0.1242  0.4504 -0.4362
  648MOL0     C87408   9.784   4.950   1.642 -0.6908  0.1498  0.7960
  648MOL0     C87409   9.792   4.881   1.746 -1.1878 -0.0685  0.2943
  648MOL0     C87410   9.896   4.826   0.898 -0.0265  0.2650 -0.2329
  648MOL0     C87411   9.903   4.761   0.775 -0.5888  0.5126  0.0594
  648MOL0     C87412   9.935   4.849   0.663 -0.2479 -0.5337  0.5518
  648MOL0     H87413   9.704   4.443   0.400  0.8375  1.8057  0.9748
  648MOL0     H87414   9.718   4.349   0.186 -0.0652  0.1567 -0.1620
  648MOL0     H87415  10.003   4.196   0.063 -0.4095 -2.2239 -1.6857
  648MOL0     H87416   9.823   4.225   0.058 -1.0630  1.0648 -1.2782
  648MOL0     H87417   9.999   4.242  -0.192  1.2007 -1.1544  0.4712
  648MOL0     H87418   9.818   4.254  -0.178 -1.7235 -2.0636 -0.2720
  648MOL0     H87419   9.796   4.021  -0.137  0.3180 -1.8859  1.3448
  648MOL0     H87420   9.957   3.988  -0.093 -0.7183  1.0043  2.0443
  648MOL0     H87421   9.876   4.102  -0.375 -0.3373 -1.0472 -0.7218
  648MOL0     H87422  10.038   4.042  -0.335  0.1576 -0.9461 -0.5157
  648MOL0     H87423   9.911   3.858  -0.457 -3.5803  0.2146 -1.7354
  648MOL0     H87424   9.923   3.811  -0.286 -2.0966 -2.1678 -1.3625
  648MOL0     H87425   9.710   3.756  -0.366 -0.8082  0.1321  0.1145
  648MOL0     H87426   9.692   3.864  -0.230 -2.4535  2.1924 -0.2604
  648MOL0     H87427   9.682   3.955  -0.528  0.0848 -1.9107 -1.7933
  648MOL0     H87428   9.629   4.050  -0.391 -1.6619  0.2358 -1.3407
  648MOL0     H87429   9.496   3.782  -0.466 -3.1440  0.6199 -0.7399
  648MOL0     H87430   9.459   3.882  -0.336  0.8281  0.1242  0.2395
  648MOL0     H87431   9.417   3.821  -0.704 -0.7144 -1.6193  2.2436
  648MOL0     H87432   9.171   4.068  -0.856  0.3102 -1.1338 -1.6401
  648MOL0     H87433   9.266   3.931  -0.904  0.3312 -0.6202  0.3739
  648MOL0     H87434   9.101   3.782  -0.766 -1.6121 -1.3319 -3.0586
  648MOL0     H87435   9.000   3.927  -0.749 -0.0063 -2.3908  3.7725
  648MOL0     H87436   9.074   3.779  -0.996 -1.1626 -0.8185 -1.1966
  648MOL0     H87437   8.977   3.931  -0.988 -1.7692 -2.1828 -2.5035
  648MOL0     H87438   8.805   3.830  -0.857  2.2090  1.2781  0.0221
  648MOL0     H87439   8.877   3.671  -0.855  1.0066  0.3691  0.8496
  648MOL0     H87440   8.987   3.546  -0.992 -2.2640  0.5766  0.6104
  648MOL0     H87441   9.058   3.366  -1.152  0.2900 -0.1570  0.1061
  648MOL0     H87442   9.111   3.275  -1.629  3.5645 -3.2938 -0.4690
  648MOL0     H87443   9.178   3.109  -1.772  0.5886 -1.1415  1.6932
  648MOL0     H87444   9.208   2.951  -1.923  1.4984 -1.0033  0.8126
  648MOL0     H87445   9.191   2.824  -1.804 -1.8288  1.8966  1.2183
  648MOL0     H87446   9.123   2.811  -2.098  2.9349 -0.5367  0.1026
  648MOL0     H87447   9.271   2.747  -2.007  0.5665  0.3270  2.2533
  648MOL0     H87448   9.145   2.565  -1.921 -0.8181  0.6802 -0.1945
  648MOL0     H87449   8.990   2.658  -1.937 -0.5160  0.3851  0.7786
  648MOL0     H87450   8.995   2.621  -2.162  1.4113  1.5909  0.4290
  648MOL0     H87451   9.022   2.454  -2.084  0.4124 -1.0345 -2.3254
  648MOL0     H87452   9.266   2.474  -2.126 -1.3242 -1.7658 -2.6479
  648MOL0     H87453   9.232   2.613  -2.232  1.6578 -1.5550 -2.7508
  648MOL0     H87454   9.160   2.323  -2.259  0.5493  1.2992  3.7489
  648MOL0     H87455   9.035   2.443  -2.326 -0.0326  2.3879 -1.6201
  648MOL0     H87456   9.325   2.427  -2.425 -0.5414  0.8757  0.3003
  648MOL0     H87457   9.216   2.562  -2.427 -0.3602 -0.3862  5.3982
  648MOL0     H87458   9.060   2.448  -2.578 -1.5751  0.9417  2.6073
  648MOL0     H87459   9.218   2.427  -2.649 -0.8588  0.8146 -0.6997
  648MOL0     H87460   8.770   2.945  -1.787  1.7890 -1.2804  1.1284
  648MOL0     H87461   8.700   3.126  -1.634 -0.0143  0.1463  0.4575
  648MOL0     H87462   8.761   3.511  -1.430 -1.5611  1.2465  0.5416
  648MOL0     H87463   8.697   3.684  -1.267  0.7638 -0.4661 -3.6213
  648MOL0     H87464  10.090   4.556   0.124 -0.6891  3.3405 -0.2653
  648MOL0     H87465  10.062   4.671   0.348 -0.4928 -0.4686 -0.4868
  648MOL0     H87466   9.795   4.449   0.873  2.6592 -0.9345  1.4466
  648MOL0     H87467   9.822   4.562   1.096  2.1554 -0.5758  0.1600
  648MOL0     H87468   9.905   4.655   1.269 -1.7756 -1.2412 -0.0460
  648MOL0     H87469   9.740   4.719   1.243  0.4138 -4.3101  1.2838
  648MOL0     H87470   9.965   4.880   1.373  0.2244  1.5019 -2.0651
  648MOL0     H87471   9.859   4.767   1.467 -0.2728 -0.3536  0.1863
  648MOL0     H87472   9.646   4.891   1.405 -2.3276  4.8730 -0.5837
  648MOL0     H87473   9.738   5.004   1.312  0.8372  0.9297  0.5836
  648MOL0     H87474   9.863   5.081   1.502 -0.5923  1.7862  1.0184
  648MOL0     H87475   9.691   5.093   1.548  0.6269 -0.2683  5.0369
  648MOL0     H87476   9.812   4.831   1.839 -2.3966 -3.1264 -0.9480
  648MOL0     H87477   9.920   4.931   0.904  2.5249 -0.3136  1.4431
  648MOL0     H87478   9.863   4.834   0.583 -2.9263  0.3329  2.6477
  648MOL0     H87479   9.938   4.952   0.700  2.2718 -0.0194 -0.8208
  648MOL0     H87480  10.036   4.824   0.627  1.4254  1.7484  3.2590
  649MOL0     O87481   6.980   5.592   8.939 -0.0258 -1.3552 -0.1919
  649MOL0     C87482   6.857   5.568   8.919 -0.2262 -1.3278  0.4487
  649MOL0     O87483   6.782   5.586   8.807 -1.0871  0.4912  0.2383
  649MOL0     C87484   6.858   5.622   8.703  0.2252 -0.0005 -0.6782
  649MOL0     C87485   6.881   5.757   8.679 -0.5628  0.4318  0.4211
  649MOL0     C87486   6.950   5.806   8.567 -0.4374 -0.1809  0.9130
  649MOL0     C87487   7.000   5.713   8.469 -1.0856  0.1514  0.8686
  649MOL0     O87488   7.094   5.749   8.368  1.0818 -0.3568  1.1035
  649MOL0     C87489   7.173   5.865   8.383  0.4521 -0.7012 -0.1714
  649MOL0     C87490   7.289   5.867   8.286  0.0279 -0.4392 -0.3392
  649MOL0     C87491   7.395   5.775   8.337 -0.6524 -0.4233 -0.1799
  649MOL0     C87492   7.499   5.762   8.227 -0.8167 -0.7832  0.0823
  649MOL0     C87493   7.633   5.706   8.283  0.4896 -0.3119  0.3140
  649MOL0     C87494   7.646   5.557   8.327 -0.3805  0.6572  0.3258
  649MOL0     C87495   7.798   5.521   8.324  0.4438 -0.5515 -0.1795
  649MOL0     C87496   7.825   5.387   8.398 -0.1853 -0.7709  0.8248
  649MOL0     N87497   7.969   5.354   8.376  0.0334 -0.1372 -0.8754
  649MOL0     C87498   8.080   5.416   8.437 -0.0171  0.6310 -0.0339
  649MOL0     C87499   8.186   5.341   8.399 -0.0036  0.7372 -0.0132
  649MOL0     C87500   8.331   5.368   8.423 -0.6664  0.1877  0.3999
  649MOL0     C87501   8.416   5.238   8.428 -0.0224 -0.4363 -0.1750
  649MOL0     C87502   8.376   5.132   8.521 -0.5935 -0.4319 -0.4452
  649MOL0     C87503   8.481   5.019   8.522  0.6608 -0.2064  0.7511
  649MOL0     O87504   8.451   4.926   8.637  0.4855 -0.6547 -0.2355
  649MOL0     C87505   8.549   4.827   8.664  0.3244 -0.7175  0.2864
  649MOL0     C87506   8.668   4.816   8.587  0.2904 -0.2741  0.4213
  649MOL0     C87507   8.769   4.722   8.609  0.3199  0.0253  1.0318
  649MOL0     C87508   8.749   4.631   8.716 -0.3634  1.3763  0.4107
  649MOL0     C87509   8.840   4.521   8.740  1.1329 -0.3934 -0.1350
  649MOL0     O87510   8.822   4.431   8.838  0.3943  0.1144 -0.4793
  649MOL0     C87511   8.884   4.312   8.820  0.7139  0.5977 -0.6379
  649MOL0     C87512   8.950   4.258   8.930  0.2106  0.9325 -0.6054
  649MOL0     C87513   8.982   4.121   8.926 -1.0157 -0.4324 -0.3115
  649MOL0     C87514   8.980   4.054   8.811  0.0753  0.0319  0.1339
  649MOL0     O87515   9.032   3.925   8.813  0.1865 -0.0571  0.9097
  649MOL0     C87516   9.028   3.836   8.702  0.6297  0.8221  0.8502
  649MOL0     C87517   9.142   3.729   8.725 -0.1733 -0.0891  0.2808
  649MOL0     C87518   9.145   3.625   8.617  0.0740 -0.6551 -0.2711
  649MOL0     C87519   9.059   3.505   8.620  0.4833  0.0672 -0.1054
  649MOL0     C87520   9.102   3.382   8.537 -0.1578  0.6411  0.0182
  649MOL0     C87521   9.228   3.329   8.607  0.2290 -1.0655 -0.6211
  649MOL0     C87522   9.283   3.201   8.549 -0.0839  0.8670  0.7156
  649MOL0     C87523   9.409   3.162   8.610 -0.0343  0.3812 -0.6710
  649MOL0    Cl87524   9.400   3.127   8.789  0.2603 -0.0634  0.5609
  649MOL0     C87525   8.910   4.112   8.703  0.7133  0.3630  0.2720
  649MOL0     C87526   8.862   4.232   8.711  0.3039 -0.9652  0.4315
  649MOL0     O87527   8.931   4.511   8.653  0.1168 -0.9357  0.4992
  649MOL0     C87528   8.630   4.640   8.785 -0.2680 -0.6479  0.4484
  649MOL0     C87529   8.524   4.741   8.767  0.6626  0.1278  0.6823
  649MOL0     N87530   8.141   5.231   8.326 -0.1588  0.2724 -0.7693
  649MOL0     N87531   8.008   5.247   8.308 -0.3993  0.2890  0.6007
  649MOL0     C87532   6.974   5.578   8.493 -0.7091 -0.0200 -0.6856
  649MOL0     C87533   6.912   5.536   8.607 -0.2435 -0.3525 -1.2027
  649MOL0     C87534   6.774   5.550   9.040  0.1673 -0.0959 -0.2856
  649MOL0     C87535   6.650   5.616   9.039  0.4524 -0.1660 -0.4217
  649MOL0     C87536   6.564   5.615   9.146  0.2299 -1.1113  0.1345
  649MOL0     C87537   6.601   5.552   9.262 -0.5394  0.9434  0.4641
  649MOL0     O87538   6.532   5.543   9.380  0.1537  0.4457 -0.1285
  649MOL0     C87539   6.407   5.613   9.388  0.0887 -0.1382  1.0700
  649MOL0     C87540   6.374   5.627   9.535  0.3984 -0.6895 -0.2785
  649MOL0     C87541   6.232   5.691   9.559 -0.3824  0.0460  0.1467
  649MOL0     C87542   6.233   5.847   9.536  0.1429  0.1130 -0.1967
  649MOL0     C87543   6.098   5.885   9.562  0.1039  0.0991  0.2120
  649MOL0     C87544   5.979   5.915   9.580 -1.4249  0.3194  0.2700
  649MOL0     C87545   6.723   5.483   9.269  0.4608  0.7446  0.0225
  649MOL0     C87546   6.804   5.474   9.154  0.0110  1.0862 -0.4632
  649MOL0     C87547   6.933   5.391   9.162 -0.7708 -0.2685  0.3083
  649MOL0     H87548   6.852   5.818   8.764  0.8726 -0.9978  2.0151
  649MOL0     H87549   6.978   5.910   8.556 -1.2076  0.0435  1.0283
  649MOL0     H87550   7.109   5.954   8.376 -0.7112 -1.2851  1.8862
  649MOL0     H87551   7.217   5.867   8.483 -0.1204  1.0938  0.0882
  649MOL0     H87552   7.328   5.969   8.291  0.5198 -0.5542 -1.5177
  649MOL0     H87553   7.259   5.830   8.187  0.2608  0.4867 -0.7699
  649MOL0     H87554   7.356   5.677   8.365 -0.9303 -0.4288 -0.5721
  649MOL0     H87555   7.437   5.818   8.428 -2.1120  2.9215 -0.9630
  649MOL0     H87556   7.460   5.698   8.147 -1.9741  1.7359 -1.5144
  649MOL0     H87557   7.523   5.862   8.190  1.2257  0.1215  3.4336
  649MOL0     H87558   7.707   5.732   8.207 -0.7670  2.0685 -0.2003
  649MOL0     H87559   7.648   5.765   8.373 -2.0474  1.0555 -0.0776
  649MOL0     H87560   7.580   5.547   8.414 -2.7863 -0.6774 -1.5110
  649MOL0     H87561   7.608   5.486   8.253 -1.7543  2.5073 -0.8175
  649MOL0     H87562   7.861   5.598   8.369 -1.1496  0.5030  0.3372
  649MOL0     H87563   7.820   5.496   8.220 -3.1619 -2.2223 -0.7248
  649MOL0     H87564   7.802   5.401   8.504 -3.6020  3.5620 -0.1713
  649MOL0     H87565   7.760   5.309   8.357  1.2531 -1.4661 -0.2425
  649MOL0     H87566   8.081   5.493   8.513  1.8951  0.6070  0.0143
  649MOL0     H87567   8.376   5.436   8.350 -0.4443 -1.1254 -0.7196
  649MOL0     H87568   8.336   5.408   8.525 -1.7479 -1.2835  1.0749
  649MOL0     H87569   8.420   5.198   8.326  0.1573 -1.9278  0.3989
  649MOL0     H87570   8.521   5.260   8.450 -0.7410  3.0903  0.2612
  649MOL0     H87571   8.279   5.092   8.490 -0.1762 -1.5569 -0.3204
  649MOL0     H87572   8.355   5.167   8.623 -0.9427  1.9083 -1.2409
  649MOL0     H87573   8.579   5.068   8.525  0.8634 -0.6458  2.3875
  649MOL0     H87574   8.474   4.966   8.426 -1.1376 -0.5309  1.0168
  649MOL0     H87575   8.675   4.862   8.489 -5.8786 -0.7344 -0.5818
  649MOL0     H87576   8.852   4.706   8.541 -1.9891  0.8436 -2.1842
  649MOL0     H87577   8.980   4.317   9.015  1.5956  2.2501 -1.9439
  649MOL0     H87578   9.031   4.069   9.008 -0.5576 -2.7466 -1.9665
  649MOL0     H87579   8.930   3.788   8.692  0.4911  0.9457  1.5587
  649MOL0     H87580   9.043   3.876   8.602  2.9791  0.3220  0.9397
  649MOL0     H87581   9.234   3.789   8.725 -1.4123  1.9298  0.5478
  649MOL0     H87582   9.112   3.685   8.821 -0.2589  0.0229  0.3059
  649MOL0     H87583   9.124   3.678   8.523  2.7336  0.7951 -0.1557
  649MOL0     H87584   9.252   3.604   8.615  0.4878  1.0604  1.0385
  649MOL0     H87585   8.961   3.527   8.575  1.2177  2.6405 -0.6119
  649MOL0     H87586   9.036   3.474   8.722 -0.3918  0.5387 -0.1443
  649MOL0     H87587   9.125   3.401   8.432  1.6761 -3.5846 -0.5234
  649MOL0     H87588   9.015   3.316   8.541 -1.1860  1.4916 -3.9214
  649MOL0     H87589   9.308   3.405   8.604 -1.1441  0.4135 -2.3566
  649MOL0     H87590   9.199   3.316   8.711 -3.1481  0.3775 -1.2417
  649MOL0     H87591   9.303   3.216   8.442 -2.3101 -2.9475 -0.4353
  649MOL0     H87592   9.206   3.124   8.559 -1.4908  2.2994  1.3305
  649MOL0     H87593   9.441   3.071   8.559 -1.1423  0.2162 -1.1005
  649MOL0     H87594   9.477   3.248   8.610  0.1094  0.3664 -3.5776
  649MOL0     H87595   8.901   4.063   8.607 -0.1453 -0.5585  0.8072
  649MOL0     H87596   8.811   4.260   8.619 -1.4443 -3.2389  0.6393
  649MOL0     H87597   8.616   4.569   8.865  4.6272 -0.6969  1.5792
  649MOL0     H87598   8.438   4.744   8.832 -0.0425  3.9468 -0.1689
  649MOL0     H87599   7.028   5.506   8.433  1.6728 -0.2870  1.6155
  649MOL0     H87600   6.909   5.429   8.622 -0.4738 -0.0532  1.4298
  649MOL0     H87601   6.618   5.663   8.947 -0.7907 -2.3367 -1.1866
  649MOL0     H87602   6.470   5.670   9.142 -0.4984 -2.0017  2.6138
  649MOL0     H87603   6.330   5.551   9.343  1.3199  0.6571 -2.4596
  649MOL0     H87604   6.413   5.709   9.335  1.7223 -0.4252  0.6583
  649MOL0     H87605   6.446   5.686   9.591 -0.1007 -1.2305  0.9608
  649MOL0     H87606   6.373   5.526   9.577  1.8576 -1.5296 -2.0835
  649MOL0     H87607   6.192   5.662   9.657 -2.7160  0.4526 -0.6311
  649MOL0     H87608   6.166   5.642   9.487  0.0198 -1.1297  0.5449
  649MOL0     H87609   6.300   5.889   9.612  0.7128 -3.2071  1.3496
  649MOL0     H87610   6.244   5.863   9.428  1.9299 -0.4205 -0.1208
  649MOL0     H87611   5.874   5.935   9.584 -1.0915  4.6385 -3.9998
  649MOL0     H87612   6.748   5.420   9.353  2.7089  2.2035  0.5344
  649MOL0     H87613   7.015   5.442   9.212 -2.0179  2.0705  0.1253
  649MOL0     H87614   6.917   5.311   9.236  1.3432  0.4089  1.5847
  649MOL0     H87615   6.971   5.368   9.062 -1.5252 -0.1484 -0.0126
  650MOL0     O87616   6.152   8.637   8.259  0.7821 -0.6671  0.3692
  650MOL0     C87617   6.099   8.745   8.281  0.6676  0.1363 -0.5080
  650MOL0     O87618   6.114   8.819   8.395 -0.6934 -0.3981  0.2007
  650MOL0     C87619   6.231   8.799   8.460  0.7788  0.8863  0.2948
  650MOL0     C87620   6.343   8.877   8.427  0.5018  0.3070  1.4621
  650MOL0     C87621   6.462   8.857   8.490 -0.7328 -0.1641 -0.5827
  650MOL0     C87622   6.489   8.751   8.578  0.3151  0.4081 -0.0840
  650MOL0     O87623   6.611   8.722   8.633 -0.1018 -0.6831 -0.2393
  650MOL0     C87624   6.690   8.659   8.529 -0.2519 -0.5218  0.8270
  650MOL0     C87625   6.817   8.606   8.601 -0.1611  0.4106  0.4985
  650MOL0     C87626   6.926   8.573   8.502 -0.4225 -1.1119  0.1348
  650MOL0     C87627   7.055   8.519   8.558 -0.1127 -0.0681 -0.0385
  650MOL0     C87628   7.135   8.617   8.633 -0.0148 -0.4639  0.0079
  650MOL0     C87629   7.264   8.576   8.711  0.2066  0.5380 -0.7716
  650MOL0     C87630   7.363   8.519   8.597 -0.1106  0.6574  0.7794
  650MOL0     C87631   7.500   8.476   8.668  0.0750  0.6385  0.1787
  650MOL0     N87632   7.572   8.589   8.734  0.1282  0.0888  0.1000
  650MOL0     C87633   7.599   8.592   8.862  0.1565  0.8928 -0.7826
  650MOL0     C87634   7.670   8.708   8.869  0.9185 -0.2689 -0.1734
  650MOL0     C87635   7.738   8.758   8.989 -0.2853 -0.1965 -0.3685
  650MOL0     C87636   7.746   8.915   9.009  0.0574  0.2883  0.2732
  650MOL0     C87637   7.840   8.948   9.123  0.7362 -0.1720 -0.1865
  650MOL0     C87638   7.990   8.940   9.086 -0.5468  0.7436  0.1179
  650MOL0     O87639   8.078   8.826   9.117 -0.1802  0.1583  0.8984
  650MOL0     C87640   8.210   8.855   9.090 -0.8611 -0.0922 -0.5895
  650MOL0     C87641   8.303   8.805   9.181 -0.3530  1.2496 -0.8162
  650MOL0     C87642   8.445   8.816   9.159 -0.0919 -0.6472 -0.8550
  650MOL0     C87643   8.484   8.903   9.053  0.4491  0.6842  0.2990
  650MOL0     C87644   8.625   8.931   9.030 -0.4961 -0.4730 -0.2510
  650MOL0     O87645   8.676   8.930   8.902  1.2133 -0.2485  0.4841
  650MOL0     C87646   8.810   8.920   8.880 -0.7172 -0.3001  0.0039
  650MOL0     C87647   8.866   9.029   8.814 -0.5021 -0.8205 -1.1796
  650MOL0     C87648   9.010   9.043   8.798  0.3437  0.2306  0.0429
  650MOL0     C87649   9.086   8.933   8.840 -0.5889  0.3044  0.9468
  650MOL0     O87650   9.216   8.938   8.796 -0.1814 -0.2185 -0.4090
  650MOL0     C87651   9.306   8.842   8.846 -0.0719 -0.7376  0.5868
  650MOL0     C87652   9.443   8.910   8.877 -0.1130 -0.3746  1.1315
  650MOL0     C87653   9.553   8.801   8.856 -0.5971  0.1087  0.1738
  650MOL0     C87654   9.686   8.856   8.897 -0.6346  0.4867  0.2784
  650MOL0     C87655   9.782   8.734   8.924 -0.1801 -0.0439  0.6138
  650MOL0     C87656   9.925   8.789   8.966 -0.5215 -0.7917 -0.5881
  650MOL0     C87657  10.024   8.688   8.923 -0.1952 -0.6923 -0.4813
  650MOL0     C87658  10.174   8.729   8.953  0.3078  0.3996 -0.4459
  650MOL0    Cl87659  10.201   8.742   9.135  0.5403  0.1606 -0.3499
  650MOL0     C87660   9.021   8.823   8.905 -1.0402 -0.3967 -0.5214
  650MOL0     C87661   8.890   8.822   8.929  0.7949  0.6890 -0.5298
  650MOL0     O87662   8.700   8.938   9.128  0.0112  0.5890  0.4217
  650MOL0     C87663   8.393   8.948   8.961  0.6938  0.5585  0.6196
  650MOL0     C87664   8.254   8.930   8.979 -0.5660 -0.1185  0.3525
  650MOL0     N87665   7.669   8.777   8.751  0.3757 -0.3818  0.1474
  650MOL0     N87666   7.607   8.706   8.661  0.1975  0.0148 -0.3267
  650MOL0     C87667   6.376   8.675   8.616 -0.2833  0.1905  0.1055
  650MOL0     C87668   6.251   8.700   8.560  0.5467 -0.6627  0.5488
  650MOL0     C87669   6.008   8.803   8.185  0.1934  0.3269 -0.2800
  650MOL0     C87670   5.955   8.712   8.099  0.7188 -0.5024  0.2332
  650MOL0     C87671   5.865   8.741   8.002 -0.0396 -0.0733 -0.8128
  650MOL0     C87672   5.808   8.870   8.001 -0.2947 -0.7623  0.7996
  650MOL0     O87673   5.698   8.910   7.927  0.2708  0.3058 -0.3961
  650MOL0     C87674   5.654   8.819   7.818 -0.1216 -0.7047  0.5438
  650MOL0     C87675   5.575   8.913   7.706 -0.1786  0.2588 -0.9431
  650MOL0     C87676   5.664   9.032   7.649 -0.5071 -0.0443 -0.7122
  650MOL0     C87677   5.738   8.991   7.517 -0.1354  0.6250 -0.0456
  650MOL0     C87678   5.797   9.100   7.451 -0.1269  0.6928  0.4716
  650MOL0     C87679   5.814   9.194   7.379  0.3411  1.0530 -0.3478
  650MOL0     C87680   5.863   8.965   8.093  0.9497 -0.5501 -0.0090
  650MOL0     C87681   5.968   8.935   8.183 -0.2020  0.3844 -0.1437
  650MOL0     C87682   6.017   9.053   8.267 -0.9038  0.6039  0.6945
  650MOL0     H87683   6.333   8.962   8.361 -0.7384 -0.4930  0.5878
  650MOL0     H87684   6.552   8.913   8.464 -0.4203  0.4134  1.5912
  650MOL0     H87685   6.632   8.572   8.496  0.5165 -1.2950  1.4488
  650MOL0     H87686   6.706   8.727   8.445 -0.1530 -1.1038  0.3642
  650MOL0     H87687   6.798   8.522   8.669  2.0249 -1.8536 -1.4838
  650MOL0     H87688   6.858   8.681   8.670 -0.4238 -0.1095  1.2380
  650MOL0     H87689   6.962   8.664   8.454 -0.0580 -1.1182  0.3925
  650MOL0     H87690   6.891   8.502   8.426  1.0983  0.5401 -2.2163
  650MOL0     H87691   7.034   8.432   8.622  2.6236 -0.3617  0.5805
  650MOL0     H87692   7.108   8.480   8.470 -1.3237  1.1178 -1.3328
  650MOL0     H87693   7.148   8.706   8.569  1.6021  1.0366  2.2470
  650MOL0     H87694   7.068   8.646   8.714 -0.4953 -0.5782 -0.3482
  650MOL0     H87695   7.311   8.658   8.767  0.7733 -0.9825  1.0924
  650MOL0     H87696   7.241   8.489   8.773  0.1107 -0.1939 -1.8179
  650MOL0     H87697   7.384   8.584   8.512 -2.0617  0.0323 -0.2511
  650MOL0     H87698   7.324   8.425   8.555 -1.2745  1.3024  0.3681
  650MOL0     H87699   7.475   8.405   8.747  0.7189 -2.3095 -2.0742
  650MOL0     H87700   7.567   8.423   8.600 -0.8990  0.2399 -0.5048
  650MOL0     H87701   7.561   8.528   8.940 -1.8864  0.2673 -2.2095
  650MOL0     H87702   7.705   8.726   9.089  3.7509 -0.1089  1.1806
  650MOL0     H87703   7.838   8.715   8.983 -0.0197 -0.2049  2.6180
  650MOL0     H87704   7.795   8.963   8.924  0.1653  0.5178  0.4648
  650MOL0     H87705   7.647   8.961   9.009  0.6354  1.5972  1.6708
  650MOL0     H87706   7.823   8.880   9.207  0.9707  4.4642  4.1164
  650MOL0     H87707   7.809   9.046   9.159 -3.7511 -1.2376 -0.5571
  650MOL0     H87708   8.041   9.025   9.132  2.9993  0.0261 -2.0856
  650MOL0     H87709   8.003   8.964   8.980 -2.4468  1.3795 -0.0132
  650MOL0     H87710   8.255   8.766   9.270 -0.5882  3.0023 -0.1299
  650MOL0     H87711   8.514   8.765   9.225  1.1777  1.2616 -0.6507
  650MOL0     H87712   8.796   9.108   8.788  1.0117  1.2013  0.5713
  650MOL0     H87713   9.046   9.138   8.760 -2.7877  2.3014  1.7741
  650MOL0     H87714   9.272   8.792   8.937 -1.1361  1.7115  1.6187
  650MOL0     H87715   9.319   8.762   8.772  2.6023 -1.3453  1.5965
  650MOL0     H87716   9.461   8.997   8.812 -1.9368  0.4411  1.6701
  650MOL0     H87717   9.451   8.941   8.982 -0.1554  1.8236  0.5453
  650MOL0     H87718   9.517   8.714   8.911  0.4679 -0.6451 -0.3030
  650MOL0     H87719   9.549   8.779   8.749  4.5000  0.3705 -0.3410
  650MOL0     H87720   9.681   8.912   8.991  3.7162  2.8627 -0.6183
  650MOL0     H87721   9.717   8.923   8.816 -0.9057 -1.3254 -1.4031
  650MOL0     H87722   9.787   8.677   8.831 -0.9820  1.6508 -0.5377
  650MOL0     H87723   9.751   8.662   9.000  2.3915 -0.9818  0.8407
  650MOL0     H87724   9.951   8.880   8.911  1.3683 -0.6900  0.4168
  650MOL0     H87725   9.922   8.816   9.072  1.0352  1.7908 -1.1228
  650MOL0     H87726  10.003   8.666   8.818  0.0489  0.6353 -0.8297
  650MOL0     H87727  10.002   8.596   8.977 -2.8376  0.8778  1.3185
  650MOL0     H87728  10.233   8.653   8.901 -1.9597 -0.9627 -1.1699
  650MOL0     H87729  10.188   8.831   8.915 -0.6796  1.8521  2.7055
  650MOL0     H87730   9.079   8.732   8.920 -0.5978 -0.0994 -0.4188
  650MOL0     H87731   8.848   8.724   8.950  2.3622  0.3258  1.2494
  650MOL0     H87732   8.427   9.008   8.877 -1.0102 -1.7148 -1.8767
  650MOL0     H87733   8.193   8.965   8.897 -0.7542 -0.3052  0.4134
  650MOL0     H87734   6.403   8.591   8.679 -0.2797 -0.4926 -0.7931
  650MOL0     H87735   6.168   8.647   8.605  0.6931 -2.4360 -1.1393
  650MOL0     H87736   5.982   8.607   8.084  0.2822 -0.7541  1.1697
  650MOL0     H87737   5.825   8.657   7.945 -3.7421  0.3990  0.8442
  650MOL0     H87738   5.596   8.733   7.852 -0.2144 -0.8194  0.1026
  650MOL0     H87739   5.742   8.781   7.765 -0.2852  1.8558 -1.7520
  650MOL0     H87740   5.485   8.958   7.748  0.0458 -1.5558  1.7143
  650MOL0     H87741   5.545   8.853   7.620 -2.4921  2.8448 -2.1012
  650MOL0     H87742   5.742   9.068   7.716  0.5819  0.5758 -2.2362
  650MOL0     H87743   5.591   9.107   7.616 -1.3882 -0.2463  0.7072
  650MOL0     H87744   5.818   8.919   7.532  0.6959  1.2218 -1.3816
  650MOL0     H87745   5.662   8.946   7.451 -0.6200 -1.9049  2.0975
  650MOL0     H87746   5.803   9.270   7.304 -2.6553  1.6741  0.5994
  650MOL0     H87747   5.839   9.071   8.091  1.5077 -0.0706  5.1284
  650MOL0     H87748   6.126   9.046   8.279 -0.6522 -4.7339 -1.9035
  650MOL0     H87749   6.000   9.141   8.204 -1.5784  0.2962  0.4359
  650MOL0     H87750   5.962   9.056   8.361 -2.5541 -2.9436 -0.0010
  651MOL0     O87751   1.727   9.832   2.131  0.2540 -0.0778 -0.1090
  651MOL0     C87752   1.706   9.784   2.246  0.1904 -0.3388 -0.2249
  651MOL0     O87753   1.692   9.861   2.361 -0.3071  0.1616  1.0825
  651MOL0     C87754   1.765   9.985   2.367  0.1169  0.2313  1.0992
  651MOL0     C87755   1.887  10.017   2.302 -0.0404  0.9210 -0.0573
  651MOL0     C87756   1.943  10.143   2.319  0.3315 -0.8112 -0.5459
  651MOL0     C87757   1.891  10.235   2.417  0.1287  0.1154  1.5332
  651MOL0     O87758   1.960  10.349   2.428 -0.0996  0.6271  0.4229
  651MOL0     C87759   1.959  10.432   2.546  0.1247  1.1546  0.7063
  651MOL0     C87760   2.021  10.353   2.653  0.4871 -0.1975 -0.6051
  651MOL0     C87761   2.015  10.431   2.794 -0.1457  0.5828 -0.9472
  651MOL0     C87762   2.115  10.364   2.895  0.8144  0.4163 -0.2033
  651MOL0     C87763   2.125  10.429   3.035  0.9017 -0.4232  0.2099
  651MOL0     C87764   2.180  10.347   3.148 -0.0044  0.2859  0.0483
  651MOL0     C87765   2.328  10.330   3.124 -0.5506  0.1054  0.9611
  651MOL0     C87766   2.408  10.296   3.252 -0.3740 -0.4549  0.7261
  651MOL0     N87767   2.554  10.277   3.238  0.0805  0.1216  0.8599
  651MOL0     C87768   2.641  10.240   3.337 -0.5655  0.4343  0.4719
  651MOL0     C87769   2.763  10.276   3.296  0.2163 -0.6934 -0.4919
  651MOL0     C87770   2.895  10.255   3.366  0.5439  0.2946  1.9257
  651MOL0     C87771   2.914  10.347   3.485 -0.4874 -0.5423  0.0307
  651MOL0     C87772   3.042  10.296   3.560  0.5013 -0.5331  0.9220
  651MOL0     C87773   3.041  10.319   3.703 -0.1147 -0.5493  0.1462
  651MOL0     O87774   3.021  10.456   3.732 -0.0416 -0.1486  0.3985
  651MOL0     C87775   3.021  10.491   3.868 -0.0787  1.4358  0.4019
  651MOL0     C87776   2.993  10.398   3.973 -0.5437 -0.5159 -0.1457
  651MOL0     C87777   3.003  10.434   4.105  0.5708 -0.1187 -0.4651
  651MOL0     C87778   3.027  10.567   4.141 -0.1493  0.0086  0.3498
  651MOL0     C87779   3.033  10.607   4.278  0.2884  0.3883 -0.3700
  651MOL0     O87780   3.086  10.523   4.364 -0.3019 -0.0493 -0.3164
  651MOL0     C87781   3.098  10.539   4.496  0.8445  0.5325  0.6054
  651MOL0     C87782   3.011  10.459   4.564 -0.0410  0.4526  0.1598
  651MOL0     C87783   3.022  10.453   4.702 -1.1325 -0.3211 -0.5837
  651MOL0     C87784   3.107  10.542   4.773 -0.5736 -0.3264 -0.1356
  651MOL0     O87785   3.110  10.551   4.910 -0.0277  0.1545  0.1654
  651MOL0     C87786   3.134  10.437   4.994 -0.0774  0.7299 -0.8027
  651MOL0     C87787   3.037  10.439   5.127 -0.8323  0.6784  0.4873
  651MOL0     C87788   3.032  10.577   5.195  0.2786  0.0530  0.9884
  651MOL0     C87789   2.950  10.561   5.316 -0.4735 -0.7911 -0.3131
  651MOL0     C87790   2.918  10.701   5.375  1.1802  0.0984 -0.0099
  651MOL0     C87791   2.816  10.770   5.289  0.7300  0.4278 -0.2426
  651MOL0     C87792   2.751  10.892   5.349  0.9519 -0.0731 -0.1914
  651MOL0     C87793   2.686  10.981   5.242 -0.0152 -0.6899 -0.1551
  651MOL0    Cl87794   2.536  10.904   5.211  0.2857  0.1661  0.0483
  651MOL0     C87795   3.166  10.637   4.697  0.4778  0.4327 -0.7536
  651MOL0     C87796   3.177  10.634   4.555  0.2773 -0.1080 -0.2870
  651MOL0     O87797   2.974  10.709   4.306  0.5459  0.3570 -0.5271
  651MOL0     C87798   3.044  10.666   4.035 -0.2829 -0.1947 -0.1457
  651MOL0     C87799   3.046  10.623   3.902  0.6603 -0.6378  0.3801
  651MOL0     N87800   2.755  10.342   3.173 -0.3599 -0.9272 -0.4754
  651MOL0     N87801   2.622  10.339   3.148  0.3557 -0.2336 -0.0355
  651MOL0     C87802   1.769  10.206   2.474 -0.1399 -0.6737 -0.3168
  651MOL0     C87803   1.707  10.082   2.450 -0.3101  0.5774  0.2309
  651MOL0     C87804   1.670   9.639   2.257 -0.4862  0.3766  0.4634
  651MOL0     C87805   1.594   9.603   2.368  0.4904  0.2098 -0.4173
  651MOL0     C87806   1.563   9.467   2.408  0.1917 -0.8256  0.3149
  651MOL0     C87807   1.598   9.360   2.318 -0.8399 -0.6600  0.7609
  651MOL0     O87808   1.582   9.225   2.334  0.6680  0.3671 -0.0480
  651MOL0     C87809   1.508   9.178   2.446 -0.0869 -0.3619 -0.4464
  651MOL0     C87810   1.456   9.042   2.413 -0.2299 -0.6561 -0.6856
  651MOL0     C87811   1.342   8.978   2.490  0.7072 -0.8276  0.1343
  651MOL0     C87812   1.317   8.829   2.460 -0.4699  0.1264  0.1104
  651MOL0     C87813   1.193   8.799   2.518  0.2616 -0.0500 -0.8660
  651MOL0     C87814   1.092   8.752   2.572 -0.0962 -0.4862  0.3663
  651MOL0     C87815   1.645   9.405   2.189 -0.6420 -0.0866  0.2466
  651MOL0     C87816   1.682   9.536   2.157 -0.2731  0.5855  0.4728
  651MOL0     C87817   1.749   9.566   2.023 -0.6512  0.9621  0.1451
  651MOL0     H87818   1.929   9.941   2.236 -1.0033 -0.1409  0.4968
  651MOL0     H87819   2.037  10.167   2.271  0.9105 -1.8871  0.0174
  651MOL0     H87820   2.014  10.525   2.530 -0.9698  1.7058  0.0174
  651MOL0     H87821   1.852  10.447   2.566 -0.9331 -3.7148  0.0774
  651MOL0     H87822   2.127  10.346   2.628  0.7255 -3.6392  0.8894
  651MOL0     H87823   1.993  10.247   2.656 -0.2169 -0.0817 -1.9624
  651MOL0     H87824   1.911  10.421   2.827 -0.2933  0.6220 -1.3890
  651MOL0     H87825   2.039  10.537   2.784  0.1788  0.4367 -1.7729
  651MOL0     H87826   2.076  10.264   2.916  0.7103  0.1489 -1.5918
  651MOL0     H87827   2.215  10.352   2.853  1.3101 -1.4990  1.3787
  651MOL0     H87828   2.171  10.528   3.020  0.7632 -0.7570 -3.2832
  651MOL0     H87829   2.023  10.465   3.054  1.6885  3.5861 -1.9576
  651MOL0     H87830   2.163  10.398   3.243  1.8753  0.7412  0.1900
  651MOL0     H87831   2.131  10.250   3.143 -0.1346  0.3898 -0.9795
  651MOL0     H87832   2.364  10.426   3.086 -0.8765  0.2604  1.0383
  651MOL0     H87833   2.353  10.259   3.045  2.5050  2.0575 -0.0127
  651MOL0     H87834   2.390  10.363   3.337  0.8482  1.4575 -0.4391
  651MOL0     H87835   2.385  10.199   3.296  0.0856 -1.8912 -2.0051
  651MOL0     H87836   2.620  10.186   3.429  3.5237 -0.4768  1.0975
  651MOL0     H87837   2.898  10.150   3.398 -0.0997 -0.8984 -1.4740
  651MOL0     H87838   2.971  10.274   3.290 -1.2511  0.6342  0.1103
  651MOL0     H87839   2.927  10.452   3.459  0.7010 -0.7803 -0.4125
  651MOL0     H87840   2.829  10.345   3.554  0.0779 -1.3423  0.7245
  651MOL0     H87841   3.123  10.356   3.518 -0.3694  0.6508  0.8927
  651MOL0     H87842   3.053  10.190   3.537  2.0772 -0.1202 -0.3741
  651MOL0     H87843   3.137  10.287   3.746 -0.0476 -0.2352  0.2357
  651MOL0     H87844   2.959  10.268   3.753 -1.0974  1.6286  0.8942
  651MOL0     H87845   2.973  10.294   3.953 -0.4572 -0.7616  0.9551
  651MOL0     H87846   2.989  10.360   4.184  2.0076  1.3455  1.2453
  651MOL0     H87847   2.939  10.390   4.521 -0.3408 -0.1294  1.5408
  651MOL0     H87848   2.958  10.389   4.763 -1.8787  0.4094 -0.5812
  651MOL0     H87849   3.148  10.341   4.943  0.5071  0.2960  0.1319
  651MOL0     H87850   3.234  10.451   5.036  0.9496 -0.4201 -2.7453
  651MOL0     H87851   2.935  10.409   5.102 -0.6754 -1.1587  1.8951
  651MOL0     H87852   3.088  10.373   5.197 -2.4316  0.5892  1.6143
  651MOL0     H87853   3.132  10.617   5.215  1.1148 -1.2553 -0.2705
  651MOL0     H87854   2.981  10.643   5.124  1.6244  0.8924  0.7550
  651MOL0     H87855   3.018  10.503   5.379  1.7262  2.1239  0.1939
  651MOL0     H87856   2.854  10.509   5.306 -1.0335 -0.2381  1.6534
  651MOL0     H87857   3.010  10.761   5.368  0.5159  1.4473  2.0950
  651MOL0     H87858   2.887  10.697   5.479  1.2884  1.9249  0.1237
  651MOL0     H87859   2.857  10.782   5.188 -0.2255 -3.4618 -1.2905
  651MOL0     H87860   2.736  10.696   5.274  0.8996  0.3956 -1.0376
  651MOL0     H87861   2.822  10.942   5.415  0.3752 -0.8178  1.0185
  651MOL0     H87862   2.674  10.862   5.421  1.1428  2.9506  1.4757
  651MOL0     H87863   2.667  11.077   5.290  0.6880 -1.0500  0.9001
  651MOL0     H87864   2.739  10.985   5.147  0.3013 -1.8431 -0.0447
  651MOL0     H87865   3.228  10.706   4.753 -1.0229  0.7747  0.5777
  651MOL0     H87866   3.222  10.717   4.501 -2.7961  1.6271 -0.4088
  651MOL0     H87867   3.053  10.772   4.055  4.0444 -0.0808 -1.6817
  651MOL0     H87868   3.076  10.693   3.825  1.1506 -0.6918  0.5194
  651MOL0     H87869   1.718  10.289   2.522 -1.3052 -1.5297 -0.0327
  651MOL0     H87870   1.608  10.068   2.491 -0.2289 -0.0674  0.2237
  651MOL0     H87871   1.561   9.681   2.437 -0.2545 -0.9231  0.5408
  651MOL0     H87872   1.521   9.439   2.504  1.5569 -0.2066  1.1199
  651MOL0     H87873   1.413   9.229   2.463 -0.0713 -1.2613  3.0639
  651MOL0     H87874   1.573   9.170   2.534  2.7637  0.3870 -2.3239
  651MOL0     H87875   1.541   8.973   2.417  2.3653  2.3560  1.4934
  651MOL0     H87876   1.421   9.060   2.311 -0.8579  2.8348  0.0377
  651MOL0     H87877   1.256   9.041   2.465  2.8827  2.1453 -0.4544
  651MOL0     H87878   1.353   9.002   2.597 -0.7434  0.1198  0.0968
  651MOL0     H87879   1.313   8.802   2.355  2.7630 -3.3313  0.6750
  651MOL0     H87880   1.395   8.760   2.492  0.7499  0.4694 -1.9635
  651MOL0     H87881   1.001   8.715   2.615 -0.1310  0.9145  1.5830
  651MOL0     H87882   1.660   9.332   2.111  0.7529  1.7951 -1.3495
  651MOL0     H87883   1.678   9.616   1.956 -1.5437 -1.2992 -0.6867
  651MOL0     H87884   1.837   9.631   2.031 -1.0357  1.2266  3.7502
  651MOL0     H87885   1.774   9.469   1.981 -1.1196  1.0626 -0.3789
  652MOL0     O87886  11.424   8.132   2.396  0.4489 -0.1502 -0.7274
  652MOL0     C87887  11.395   8.250   2.378  0.5957  0.5586  0.6946
  652MOL0     O87888  11.266   8.312   2.392 -0.1628  0.1950  0.4680
  652MOL0     C87889  11.151   8.243   2.362  0.1930 -0.2106 -0.0435
  652MOL0     C87890  11.145   8.155   2.254  0.0835 -0.5368 -0.3866
  652MOL0     C87891  11.027   8.093   2.212  0.2278 -0.7862  0.1531
  652MOL0     C87892  10.915   8.112   2.294  0.1964  0.2058 -1.0985
  652MOL0     O87893  10.798   8.047   2.275 -0.3027  0.2713  0.1955
  652MOL0     C87894  10.798   7.924   2.199  0.2273 -0.2392 -0.4482
  652MOL0     C87895  10.657   7.872   2.200 -0.4814  0.1920 -0.1761
  652MOL0     C87896  10.547   7.969   2.134 -0.8274  0.4935 -0.4069
  652MOL0     C87897  10.491   8.059   2.241  0.0227 -0.5331  0.6190
  652MOL0     C87898  10.386   8.163   2.176 -0.3630 -0.2918 -0.2097
  652MOL0     C87899  10.254   8.091   2.135 -0.4466  0.5659  0.3106
  652MOL0     C87900  10.167   8.030   2.250 -0.4176  0.1831  0.9516
  652MOL0     C87901  10.059   7.928   2.218  0.2603  0.1535 -0.4824
  652MOL0     N87902  10.092   7.829   2.115 -1.0089 -0.2815  0.2509
  652MOL0     C87903  10.169   7.722   2.135 -0.8761  0.8915  0.2057
  652MOL0     C87904  10.172   7.647   2.018 -0.8277 -0.2513  0.0078
  652MOL0     C87905  10.252   7.528   1.978  0.2300 -0.8595 -0.9966
  652MOL0     C87906  10.397   7.553   2.000  0.1149  0.4232  0.5574
  652MOL0     C87907  10.482   7.457   1.914 -0.0590 -0.1490  0.0474
  652MOL0     C87908  10.619   7.456   1.981  0.5886  0.5941  0.9402
  652MOL0     O87909  10.668   7.594   1.983  0.6332 -0.4504  0.7316
  652MOL0     C87910  10.805   7.625   1.981  0.5012  0.3821  0.1283
  652MOL0     C87911  10.854   7.690   1.866  0.0732 -1.1854  0.0176
  652MOL0     C87912  10.989   7.736   1.868 -0.6609  0.8532  0.4128
  652MOL0     C87913  11.070   7.711   1.979  0.8129  0.0020 -0.1015
  652MOL0     C87914  11.215   7.770   1.996 -0.3206  0.2215 -0.6253
  652MOL0     O87915  11.298   7.712   2.100 -0.7194 -0.0086 -0.0585
  652MOL0     C87916  11.425   7.762   2.108  0.7825 -0.1390 -0.2229
  652MOL0     C87917  11.521   7.685   2.047  0.1834 -1.1221 -0.6467
  652MOL0     C87918  11.656   7.723   2.058 -0.1933  1.0326  0.2984
  652MOL0     C87919  11.696   7.835   2.126  0.2866  0.1893 -0.5864
  652MOL0     O87920  11.825   7.871   2.141  0.0251 -0.1984 -0.3071
  652MOL0     C87921  11.890   7.806   2.252  1.0635  0.3263 -0.0372
  652MOL0     C87922  12.010   7.894   2.306  0.0014  0.7950  0.2101
  652MOL0     C87923  11.963   8.037   2.343  0.8223  0.1416  0.0754
  652MOL0     C87924  12.066   8.134   2.279 -0.2329 -0.3107  0.7578
  652MOL0     C87925  12.019   8.274   2.284  0.5378  0.4765 -0.1535
  652MOL0     C87926  12.111   8.351   2.194 -0.1427  0.6266  0.3439
  652MOL0     C87927  12.070   8.493   2.214 -0.1780 -0.1399  0.1562
  652MOL0     C87928  12.191   8.587   2.235 -0.6239 -0.9821  0.2295
  652MOL0    Cl87929  12.272   8.624   2.069 -0.0060 -0.2745  0.2696
  652MOL0     C87930  11.591   7.920   2.167  0.1731 -0.0270 -0.2225
  652MOL0     C87931  11.457   7.882   2.154  0.3445  0.5918 -0.4601
  652MOL0     O87932  11.248   7.870   1.928  0.2595 -0.1026 -0.2806
  652MOL0     C87933  11.019   7.643   2.094  0.9683  0.2410  0.3561
  652MOL0     C87934  10.881   7.608   2.099 -1.0002 -0.2009  0.1490
  652MOL0     N87935  10.115   7.731   1.923  0.3133  0.1470 -0.1087
  652MOL0     N87936  10.071   7.834   1.981  0.2976  0.0539 -0.6299
  652MOL0     C87937  10.923   8.201   2.406 -0.3968 -0.0862  0.7646
  652MOL0     C87938  11.039   8.272   2.443  0.7243  0.2169 -0.2083
  652MOL0     C87939  11.504   8.352   2.369  0.4267 -0.7890 -0.0223
  652MOL0     C87940  11.482   8.476   2.303 -0.3982  0.2659  0.6154
  652MOL0     C87941  11.583   8.567   2.278 -0.9060 -0.5365  0.4782
  652MOL0     C87942  11.707   8.551   2.325 -0.0433  0.0435  0.3546
  652MOL0     O87943  11.810   8.641   2.319 -0.0014 -0.0831 -0.0250
  652MOL0     C87944  11.771   8.778   2.315 -0.0590 -0.7396 -0.3656
  652MOL0     C87945  11.800   8.842   2.174  0.0140 -0.1577  0.5198
  652MOL0     C87946  11.950   8.852   2.161 -0.4084  0.1926 -0.1500
  652MOL0     C87947  11.990   8.848   2.011 -0.1997 -0.6723  0.1639
  652MOL0     C87948  11.990   8.982   1.951 -0.6834  0.4042  0.7789
  652MOL0     C87949  11.986   9.073   1.875 -0.4695 -0.2630 -0.2698
  652MOL0     C87950  11.741   8.443   2.403 -0.4331  0.7831 -0.3755
  652MOL0     C87951  11.633   8.344   2.423 -1.6467 -0.3048 -0.4649
  652MOL0     C87952  11.668   8.228   2.510 -1.1342  0.0222  1.0188
  652MOL0     H87953  11.242   8.127   2.213  0.0380 -2.8730  0.9467
  652MOL0     H87954  11.030   8.016   2.135 -0.3262 -0.8727  0.2181
  652MOL0     H87955  10.829   7.936   2.095 -0.2425 -1.7227 -0.7852
  652MOL0     H87956  10.856   7.838   2.234  0.4032 -0.4217 -1.1590
  652MOL0     H87957  10.622   7.851   2.301  0.5867  0.8555  0.3517
  652MOL0     H87958  10.649   7.778   2.145 -1.1535 -0.0486  0.3186
  652MOL0     H87959  10.467   7.903   2.097 -0.3134  0.2728 -1.1465
  652MOL0     H87960  10.579   8.029   2.049 -0.4517  4.6429  2.3816
  652MOL0     H87961  10.453   7.992   2.318 -1.3255 -2.2336 -1.4130
  652MOL0     H87962  10.572   8.114   2.290  0.6206  0.7806 -1.6661
  652MOL0     H87963  10.360   8.241   2.249  0.9820 -0.7849  0.8449
  652MOL0     H87964  10.434   8.221   2.097 -1.2628  2.1404  0.9095
  652MOL0     H87965  10.194   8.163   2.079 -0.1252  1.0148  0.5473
  652MOL0     H87966  10.279   8.015   2.060 -3.5542 -0.1540 -0.1697
  652MOL0     H87967  10.129   8.117   2.304 -0.6013 -0.1312  1.3327
  652MOL0     H87968  10.236   7.978   2.316 -1.7590 -2.7958  0.1436
  652MOL0     H87969  10.038   7.870   2.309 -0.6486  1.9646  0.5418
  652MOL0     H87970   9.967   7.986   2.204  0.7006  1.4797  1.6419
  652MOL0     H87971  10.235   7.700   2.219  0.6228  1.4566 -0.7831
  652MOL0     H87972  10.212   7.451   2.045 -0.7822 -0.0839 -0.6769
  652MOL0     H87973  10.242   7.503   1.872  1.1247 -3.4773 -0.5507
  652MOL0     H87974  10.419   7.655   1.969  1.6455 -0.5763 -1.9820
  652MOL0     H87975  10.405   7.536   2.108 -0.6179 -1.5365  0.3490
  652MOL0     H87976  10.499   7.498   1.814  2.8210  1.0986  0.9620
  652MOL0     H87977  10.442   7.355   1.907  2.7631 -1.6224  2.8803
  652MOL0     H87978  10.692   7.394   1.928  1.4983  1.7801  0.7432
  652MOL0     H87979  10.603   7.421   2.083  1.2653 -2.8860 -0.0153
  652MOL0     H87980  10.787   7.708   1.782 -1.3920 -1.1783  1.1464
  652MOL0     H87981  11.024   7.798   1.786 -0.4938 -2.0733 -1.9098
  652MOL0     H87982  11.489   7.588   2.008  1.1783 -1.5999 -0.3037
  652MOL0     H87983  11.725   7.651   2.015  1.1236  1.6955  1.2075
  652MOL0     H87984  11.820   7.771   2.328 -1.2682  0.7915 -1.8469
  652MOL0     H87985  11.936   7.711   2.224  1.3604  0.3230  0.4516
  652MOL0     H87986  12.057   7.847   2.393 -1.5960  0.2052  0.8059
  652MOL0     H87987  12.080   7.904   2.223 -1.5407  5.4629 -0.8791
  652MOL0     H87988  11.859   8.050   2.314  1.3243  0.7954 -1.5325
  652MOL0     H87989  11.959   8.060   2.450  1.2498  2.8893 -0.4099
  652MOL0     H87990  12.086   8.103   2.175 -1.4414 -1.9817  0.9772
  652MOL0     H87991  12.162   8.121   2.329  0.6173  1.7747 -0.2235
  652MOL0     H87992  12.005   8.303   2.389 -2.7630 -1.3643  0.0673
  652MOL0     H87993  11.920   8.277   2.236  1.5688  4.0377 -2.5162
  652MOL0     H87994  12.211   8.329   2.233 -0.7980  0.4675  2.0291
  652MOL0     H87995  12.104   8.322   2.089  0.4587 -1.3508  0.8018
  652MOL0     H87996  12.012   8.492   2.307  1.6350 -0.0768  1.3201
  652MOL0     H87997  12.000   8.525   2.136  0.9715  0.1430 -0.7902
  652MOL0     H87998  12.176   8.680   2.290  2.1548 -0.0709 -0.3911
  652MOL0     H87999  12.251   8.527   2.304 -0.4510 -2.1440 -0.8980
  652MOL0     H88000  11.614   8.012   2.220 -0.4469 -0.3888  0.7082
  652MOL0     H88001  11.378   7.946   2.191 -1.0656  0.0520 -2.3997
  652MOL0     H88002  11.068   7.629   2.190  1.4264 -1.6654 -0.1198
  652MOL0     H88003  10.848   7.569   2.195 -1.9671 -0.0445 -0.1139
  652MOL0     H88004  10.825   8.223   2.446 -1.5854  1.4369 -2.6023
  652MOL0     H88005  11.047   8.346   2.522  1.1801  0.2341 -0.2648
  652MOL0     H88006  11.395   8.507   2.245 -0.3560 -1.4895 -0.4396
  652MOL0     H88007  11.569   8.657   2.219  1.9524 -0.7011 -0.6146
  652MOL0     H88008  11.839   8.815   2.391 -1.0766 -0.7493  0.5796
  652MOL0     H88009  11.672   8.803   2.353 -0.3538 -1.8081 -0.3935
  652MOL0     H88010  11.763   8.944   2.164  4.5642  1.5636 -2.0535
  652MOL0     H88011  11.767   8.772   2.096  2.8148 -2.0674  0.9149
  652MOL0     H88012  11.996   8.764   2.207 -2.5558 -1.3362 -0.7786
  652MOL0     H88013  11.991   8.938   2.216  0.4821 -0.2030 -0.1781
  652MOL0     H88014  12.092   8.809   2.007  0.2834  0.3304  1.8755
  652MOL0     H88015  11.926   8.786   1.947 -0.3629  2.3666 -2.9240
  652MOL0     H88016  12.017   9.148   1.805  0.0455 -0.9850 -0.8342
  652MOL0     H88017  11.838   8.425   2.448 -0.6824  1.1295  0.3065
  652MOL0     H88018  11.596   8.212   2.590  0.3508 -1.7829  2.0859
  652MOL0     H88019  11.668   8.130   2.461 -0.5860  0.3805  0.2650
  652MOL0     H88020  11.761   8.247   2.565 -1.9060  2.0241  1.7211
  653MOL0     O88021   0.414   5.797   9.780 -0.7906  0.2232  0.7949
  653MOL0     C88022   0.367   5.822   9.887  0.3621 -0.1699 -0.2443
  653MOL0     O88023   0.244   5.776   9.939  0.1085 -0.0546 -0.4525
  653MOL0     C88024   0.181   5.687   9.856  0.8723 -0.4057  0.4893
  653MOL0     C88025   0.130   5.570   9.915  0.3281  0.2414 -0.3087
  653MOL0     C88026   0.028   5.492   9.852  0.3632  0.2836  0.9767
  653MOL0     C88027  -0.027   5.528   9.729  0.7187 -0.4569  0.6972
  653MOL0     O88028  -0.144   5.475   9.685 -0.4813  0.1445  0.0314
  653MOL0     C88029  -0.154   5.337   9.684 -0.7770  0.6864 -0.0918
  653MOL0     C88030  -0.296   5.314   9.690 -0.7913  0.0459  0.3228
  653MOL0     C88031  -0.323   5.169   9.702 -0.2894 -0.5707 -0.2153
  653MOL0     C88032  -0.397   5.135   9.839 -0.8619  0.1380 -0.1904
  653MOL0     C88033  -0.416   4.987   9.855 -0.2253 -1.0522  0.2203
  653MOL0     C88034  -0.499   4.924   9.738 -0.3860 -0.2518 -0.4079
  653MOL0     C88035  -0.565   4.791   9.781  1.0987 -0.4115  0.8339
  653MOL0     C88036  -0.660   4.752   9.669  0.1018  0.3190 -0.4155
  653MOL0     N88037  -0.703   4.607   9.688 -0.3044  0.0754 -0.7374
  653MOL0     C88038  -0.832   4.584   9.724  0.5260 -0.4605 -0.3195
  653MOL0     C88039  -0.837   4.450   9.710  0.1636  0.5040 -0.1162
  653MOL0     C88040  -0.951   4.357   9.729  0.3182 -0.2736  0.5743
  653MOL0     C88041  -1.015   4.361   9.872  0.2884  0.7178  0.4156
  653MOL0     C88042  -0.951   4.278   9.981  0.2201  0.0535  0.7328
  653MOL0     C88043  -0.818   4.336  10.027  0.1956  0.1507 -0.5470
  653MOL0     O88044  -0.831   4.478  10.060 -0.0634 -1.1072 -0.4377
  653MOL0     C88045  -0.718   4.541  10.101  0.6353  0.2754  0.0455
  653MOL0     C88046  -0.732   4.660  10.153 -0.4596 -0.5572 -0.5346
  653MOL0     C88047  -0.625   4.729  10.214 -0.0745 -0.4594  0.0272
  653MOL0     C88048  -0.494   4.674  10.219  0.2787 -0.0977 -1.1587
  653MOL0     C88049  -0.390   4.741  10.290  0.1094  0.2126 -0.4939
  653MOL0     O88050  -0.425   4.869  10.326 -0.0233 -0.0922  0.3731
  653MOL0     C88051  -0.325   4.953  10.370  0.8425 -0.1777 -0.0256
  653MOL0     C88052  -0.302   5.077  10.307  0.2088 -0.0384  0.3666
  653MOL0     C88053  -0.229   5.180  10.369 -0.0758  0.2682  0.9575
  653MOL0     C88054  -0.197   5.164  10.504  0.4847 -1.3421  0.4852
  653MOL0     O88055  -0.131   5.271  10.556  0.0421  0.1863  0.2692
  653MOL0     C88056  -0.058   5.235  10.671  0.7599  0.2981  0.1239
  653MOL0     C88057  -0.002   5.366  10.739 -0.7318 -0.0075  0.4541
  653MOL0     C88058  -0.109   5.416  10.839  0.0781 -0.1695 -0.1724
  653MOL0     C88059  -0.230   5.460  10.767  0.1474  0.5766  0.4113
  653MOL0     C88060  -0.338   5.515  10.861  0.4427  0.2791 -0.4787
  653MOL0     C88061  -0.471   5.543  10.799 -0.5738 -0.4418 -0.7701
  653MOL0     C88062  -0.566   5.600  10.905  0.8251  0.3296  0.3016
  653MOL0     C88063  -0.694   5.636  10.828 -0.1445 -0.5515  0.5837
  653MOL0    Cl88064  -0.762   5.501  10.735 -0.0967  0.1024  0.3555
  653MOL0     C88065  -0.240   5.047  10.572 -0.2682 -0.1989  0.7143
  653MOL0     C88066  -0.293   4.935  10.506  0.0798  0.4459 -0.6296
  653MOL0     O88067  -0.286   4.682  10.321  0.1746 -0.0214 -0.0914
  653MOL0     C88068  -0.475   4.552  10.153 -0.5038  0.3638 -0.1693
  653MOL0     C88069  -0.585   4.489  10.088  1.5397  0.2331 -0.1656
  653MOL0     N88070  -0.706   4.407   9.700  0.7798 -0.1232  0.3235
  653MOL0     N88071  -0.629   4.501   9.663 -0.0224 -1.0769 -1.1844
  653MOL0     C88072   0.016   5.652   9.675 -0.2049 -1.0609 -0.3611
  653MOL0     C88073   0.114   5.730   9.742  0.1039 -0.0552 -0.1277
  653MOL0     C88074   0.452   5.903   9.988 -0.0205  0.2278  0.1770
  653MOL0     C88075   0.563   5.968   9.932  0.1391 -0.9140 -0.5594
  653MOL0     C88076   0.647   6.050  10.005  0.3825 -0.7594  0.2713
  653MOL0     C88077   0.619   6.076  10.142 -0.4261  0.4035 -0.8125
  653MOL0     O88078   0.695   6.160  10.228  0.8230  0.1776 -0.4664
  653MOL0     C88079   0.828   6.209  10.188 -0.1645  0.4767  0.6617
  653MOL0     C88080   0.928   6.112  10.251 -0.4437 -0.5516  0.4023
  653MOL0     C88081   1.068   6.173  10.250 -0.2658  0.9273  1.0050
  653MOL0     C88082   1.115   6.228  10.107  1.0284 -0.4790 -0.0244
  653MOL0     C88083   1.104   6.124  10.001  0.1617  0.1913  0.4864
  653MOL0     C88084   1.088   6.038   9.911  0.3974 -0.7149  0.2404
  653MOL0     C88085   0.513   6.014  10.202 -0.0252 -0.2248  0.6684
  653MOL0     C88086   0.421   5.934  10.132  0.0370  0.2341  0.4314
  653MOL0     C88087   0.296   5.872  10.199 -0.0286  0.1243 -0.4011
  653MOL0     H88088   0.156   5.530  10.013  1.2457  0.7805 -0.3159
  653MOL0     H88089  -0.021   5.413   9.909  0.9548  0.3813  1.6348
  653MOL0     H88090  -0.093   5.306   9.598  0.7936  3.4165 -0.0864
  653MOL0     H88091  -0.108   5.293   9.773 -0.7291  4.0762  1.7032
  653MOL0     H88092  -0.329   5.340   9.589  4.2266 -2.9044 -2.5154
  653MOL0     H88093  -0.340   5.383   9.763 -2.8445  0.2786 -1.0326
  653MOL0     H88094  -0.229   5.113   9.706 -0.5595 -0.9939  0.3681
  653MOL0     H88095  -0.388   5.141   9.619 -2.7268 -0.3412  1.4812
  653MOL0     H88096  -0.341   5.167   9.928 -0.1766  1.1733 -0.9784
  653MOL0     H88097  -0.495   5.183   9.843  0.8438  3.9854 -0.6023
  653MOL0     H88098  -0.320   4.939   9.874  0.6842  0.9875  1.0595
  653MOL0     H88099  -0.466   4.985   9.953 -2.6693  0.6823 -0.9059
  653MOL0     H88100  -0.576   4.994   9.704  0.5979 -0.2005 -2.7017
  653MOL0     H88101  -0.434   4.900   9.654 -2.0039  2.3331 -2.5594
  653MOL0     H88102  -0.621   4.817   9.871  0.6363  3.1365 -0.3303
  653MOL0     H88103  -0.494   4.709   9.797  3.7086  0.7730 -3.1856
  653MOL0     H88104  -0.751   4.813   9.674  0.4430  0.7407  2.1019
  653MOL0     H88105  -0.617   4.768   9.570 -1.8871  1.9070 -1.0950
  653MOL0     H88106  -0.917   4.644   9.752  1.0016 -1.3101  3.5311
  653MOL0     H88107  -1.030   4.368   9.655  0.7121  0.0216  0.1950
  653MOL0     H88108  -0.913   4.254   9.734  2.6911  0.5576  1.1699
  653MOL0     H88109  -1.038   4.462   9.906  1.2481  1.1485 -0.1749
  653MOL0     H88110  -1.108   4.305   9.858  0.0824  1.1803 -0.1293
  653MOL0     H88111  -0.940   4.173   9.952  0.3191  0.1407  0.4484
  653MOL0     H88112  -1.020   4.279  10.066 -0.0775  1.0802  0.4904
  653MOL0     H88113  -0.747   4.313   9.947  0.0888 -0.8607 -0.3656
  653MOL0     H88114  -0.780   4.280  10.113  1.1128 -1.3126 -1.8472
  653MOL0     H88115  -0.832   4.702  10.159  0.6672  2.3011 -0.3566
  653MOL0     H88116  -0.631   4.832  10.249  0.3144  0.4917 -2.4832
  653MOL0     H88117  -0.347   5.087  10.209  2.7018 -1.6806 -1.0706
  653MOL0     H88118  -0.189   5.275  10.337 -1.0969  1.1795  2.2813
  653MOL0     H88119  -0.124   5.183  10.741  0.6088 -0.8169 -0.8211
  653MOL0     H88120   0.021   5.162  10.651 -0.0144 -1.4381  2.8714
  653MOL0     H88121   0.097   5.354  10.783 -0.1750  0.7586 -0.5334
  653MOL0     H88122   0.009   5.446  10.665  0.5069  0.1237  0.7499
  653MOL0     H88123  -0.130   5.340  10.915  2.7999  0.3326  1.1893
  653MOL0     H88124  -0.060   5.500  10.887  2.5657 -0.6944 -1.6055
  653MOL0     H88125  -0.273   5.374  10.715 -0.8649  0.1397  1.9000
  653MOL0     H88126  -0.203   5.531  10.688  5.1920 -3.3897 -2.0440
  653MOL0     H88127  -0.290   5.601  10.909  2.1065 -0.6869 -0.3423
  653MOL0     H88128  -0.353   5.443  10.941  0.6926  0.2368 -0.4687
  653MOL0     H88129  -0.456   5.614  10.717 -0.2872 -1.7517 -1.9086
  653MOL0     H88130  -0.513   5.452  10.755 -2.5285 -0.8100  1.6719
  653MOL0     H88131  -0.527   5.692  10.951 -0.5158  1.0796 -0.0095
  653MOL0     H88132  -0.569   5.532  10.990  2.3778 -1.9241 -1.3363
  653MOL0     H88133  -0.771   5.666  10.899 -0.3747  2.2086 -0.6904
  653MOL0     H88134  -0.669   5.716  10.758  1.8251 -2.1200 -0.6188
  653MOL0     H88135  -0.210   5.028  10.675  3.1243 -1.6458 -0.3807
  653MOL0     H88136  -0.321   4.841  10.552 -1.3222  1.1482  0.0116
  653MOL0     H88137  -0.380   4.501  10.167 -0.0015  1.8451  2.3645
  653MOL0     H88138  -0.577   4.395  10.035  1.0926 -0.2411  0.5800
  653MOL0     H88139  -0.037   5.693   9.590 -0.8333  1.5388  1.1856
  653MOL0     H88140   0.130   5.831   9.707  1.4621 -0.5592 -1.0234
  653MOL0     H88141   0.591   5.955   9.828  0.2128  1.2395 -0.8676
  653MOL0     H88142   0.745   6.071   9.965 -0.9119  1.6070 -1.9369
  653MOL0     H88143   0.845   6.305  10.236  1.6059 -0.7997  2.8300
  653MOL0     H88144   0.847   6.214  10.080 -1.7064 -1.1219  0.2639
  653MOL0     H88145   0.919   6.015  10.203  0.0992  0.3666 -1.6510
  653MOL0     H88146   0.911   6.102  10.359  2.8413 -2.0762  0.8960
  653MOL0     H88147   1.146   6.101  10.279 -1.3897  0.6950  3.7373
  653MOL0     H88148   1.084   6.261  10.312  1.7887 -0.8087  3.1305
  653MOL0     H88149   1.052   6.314  10.079 -0.3851 -0.8934  1.6806
  653MOL0     H88150   1.219   6.259  10.118  0.7965 -0.3948  2.6109
  653MOL0     H88151   1.072   5.973   9.827  0.0662  0.3105 -0.5087
  653MOL0     H88152   0.510   6.043  10.307 -1.0261  2.4872 -0.0257
  653MOL0     H88153   0.208   5.919  10.155 -2.0485 -0.4914  2.6307
  653MOL0     H88154   0.294   5.765  10.175 -0.8288  0.1548 -0.4779
  653MOL0     H88155   0.307   5.886  10.307 -0.4182  0.9130 -0.4555
  654MOL0     O88156   0.764  11.029   6.217  0.0559  0.3728 -0.3101
  654MOL0     C88157   0.842  10.936   6.245 -0.7362 -0.5739  0.8147
  654MOL0     O88158   0.910  10.930   6.366  0.5459  0.3385 -0.2654
  654MOL0     C88159   0.887  11.036   6.453  0.8039 -0.2588  0.5519
  654MOL0     C88160   0.911  11.170   6.416 -0.4079  0.0385  0.7938
  654MOL0     C88161   0.903  11.278   6.506  0.0355  0.5985 -1.0569
  654MOL0     C88162   0.860  11.247   6.633 -0.6688 -0.2246 -0.2749
  654MOL0     O88163   0.857  11.340   6.734  1.1396  0.0112  0.4723
  654MOL0     C88164   0.986  11.391   6.773 -0.3850  0.8031 -0.3436
  654MOL0     C88165   0.981  11.466   6.904  0.0126 -0.4118  0.0231
  654MOL0     C88166   1.024  11.610   6.899 -0.6315 -0.6592  0.1169
  654MOL0     C88167   1.181  11.626   6.917  0.1735 -0.5255 -1.1045
  654MOL0     C88168   1.272  11.588   6.801 -1.0723  0.3924  0.6510
  654MOL0     C88169   1.419  11.587   6.825 -0.0729 -0.2146  0.4556
  654MOL0     C88170   1.497  11.715   6.877  0.2361 -0.0004  0.4890
  654MOL0     C88171   1.546  11.807   6.766  0.0266  0.1055  0.5653
  654MOL0     N88172   1.654  11.896   6.810 -0.4034 -1.2268  0.5479
  654MOL0     C88173   1.717  11.994   6.739 -0.0675 -0.4226 -0.5341
  654MOL0     C88174   1.825  12.033   6.808 -0.4621  0.1746 -1.0426
  654MOL0     C88175   1.916  12.148   6.760  0.0591 -0.9022 -0.3058
  654MOL0     C88176   2.044  12.092   6.686 -0.3805 -0.1712 -1.3022
  654MOL0     C88177   2.145  12.016   6.784  1.2485 -0.5735 -0.2669
  654MOL0     C88178   2.293  12.030   6.740 -0.7045  0.6215  0.8547
  654MOL0     O88179   2.365  11.930   6.818  0.0696  0.2630 -0.2648
  654MOL0     C88180   2.497  11.963   6.857  0.6599 -0.6672 -0.3170
  654MOL0     C88181   2.587  12.050   6.797  0.1012 -0.0650 -0.4384
  654MOL0     C88182   2.707  12.077   6.863  0.2006  0.6943 -0.5019
  654MOL0     C88183   2.751  12.014   6.979 -0.3893 -1.0365 -0.2404
  654MOL0     C88184   2.878  12.041   7.037 -0.4354  0.0583 -0.3196
  654MOL0     O88185   2.971  12.092   6.960  0.0149 -0.4279 -0.3877
  654MOL0     C88186   3.091  12.135   7.008 -0.4738 -0.6690  0.2476
  654MOL0     C88187   3.190  12.152   6.908 -1.3668 -0.3587 -0.4791
  654MOL0     C88188   3.324  12.179   6.946  0.5813 -0.4353 -0.5981
  654MOL0     C88189   3.357  12.210   7.072  0.2854 -0.0170 -0.2027
  654MOL0     O88190   3.471  12.275   7.110 -1.6829  0.2424 -0.5623
  654MOL0     C88191   3.521  12.362   7.008 -0.3640 -0.2464 -0.0059
  654MOL0     C88192   3.644  12.432   7.059 -0.4390 -0.9181  0.2553
  654MOL0     C88193   3.601  12.543   7.162  0.4199  0.0832 -0.6626
  654MOL0     C88194   3.589  12.681   7.096  0.2228  1.0903 -0.7344
  654MOL0     C88195   3.565  12.796   7.194 -0.0289 -0.5516 -0.5172
  654MOL0     C88196   3.672  12.830   7.303  0.4949  0.4199 -0.5851
  654MOL0     C88197   3.808  12.871   7.253  0.6648 -0.2700  0.2073
  654MOL0     C88198   3.922  12.844   7.363 -0.1504  0.0732 -0.1386
  654MOL0    Cl88199   3.890  12.933   7.519  0.0093 -0.6216 -0.2785
  654MOL0     C88200   3.262  12.198   7.174  0.1134 -0.0647 -0.4111
  654MOL0     C88201   3.127  12.160   7.142  0.0073 -1.0315  0.5706
  654MOL0     O88202   2.895  12.003   7.151 -0.8629  0.0857  0.1268
  654MOL0     C88203   2.662  11.929   7.033  0.5605  0.2093 -1.1222
  654MOL0     C88204   2.537  11.900   6.975 -0.0348 -0.5486  0.1862
  654MOL0     N88205   1.826  11.967   6.928  0.0064  1.0759  0.2209
  654MOL0     N88206   1.731  11.881   6.920 -0.3826  0.5886  0.2377
  654MOL0     C88207   0.832  11.117   6.672  0.0146 -0.1322  1.2405
  654MOL0     C88208   0.849  11.010   6.586 -0.1158 -0.0035  0.1725
  654MOL0     C88209   0.890  10.843   6.143 -0.3518  0.2057  0.5918
  654MOL0     C88210   1.037  10.841   6.134  1.1571  0.6182  0.5446
  654MOL0     C88211   1.103  10.752   6.047  0.2253  0.4153  0.7331
  654MOL0     C88212   1.033  10.678   5.956  0.1181  0.0868  0.6255
  654MOL0     O88213   1.074  10.595   5.853  0.3034 -0.3670 -0.6381
  654MOL0     C88214   1.174  10.494   5.874 -0.2925 -0.3531  0.9514
  654MOL0     C88215   1.203  10.429   5.740 -0.1177 -0.3361  0.1722
  654MOL0     C88216   1.285  10.525   5.655 -0.8438 -0.2759 -0.2350
  654MOL0     C88217   1.360  10.463   5.531  0.6609 -0.0873 -0.1886
  654MOL0     C88218   1.259  10.417   5.439 -0.0603 -0.3670 -0.4837
  654MOL0     C88219   1.199  10.375   5.345 -0.7190 -0.0909  0.3493
  654MOL0     C88220   0.892  10.683   5.954  0.0088 -0.5120 -1.4421
  654MOL0     C88221   0.818  10.773   6.045 -0.0064 -1.1680  0.1707
  654MOL0     C88222   0.669  10.779   6.040  1.2411 -0.3877 -0.1770
  654MOL0     H88223   0.947  11.197   6.317  2.0036 -1.0551  1.2942
  654MOL0     H88224   0.934  11.381   6.491  1.7157  1.0332  3.5287
  654MOL0     H88225   1.056  11.307   6.774 -0.2770  0.8904  1.2920
  654MOL0     H88226   1.018  11.470   6.704  0.8706  1.9870  1.4836
  654MOL0     H88227   1.043  11.415   6.979 -1.8715  0.3618  2.2082
  654MOL0     H88228   0.882  11.454   6.948 -1.3100  1.8982 -2.1076
  654MOL0     H88229   0.981  11.663   6.985 -0.0068 -1.1271  0.7287
  654MOL0     H88230   0.995  11.664   6.808 -0.3882 -0.7391 -0.0069
  654MOL0     H88231   1.202  11.732   6.934  1.7675 -0.6048 -2.3710
  654MOL0     H88232   1.217  11.588   7.013  2.9354  3.1425 -0.4386
  654MOL0     H88233   1.244  11.491   6.760 -0.3349  0.3168  0.3094
  654MOL0     H88234   1.255  11.662   6.722  0.4365 -1.0508 -1.1383
  654MOL0     H88235   1.446  11.513   6.902  0.5216  2.2497  2.7644
  654MOL0     H88236   1.473  11.547   6.738 -0.0212  0.8899 -0.0353
  654MOL0     H88237   1.576  11.682   6.945 -0.8348  0.3090  1.9485
  654MOL0     H88238   1.438  11.782   6.940  0.1697  1.2078 -0.8186
  654MOL0     H88239   1.595  11.750   6.686 -0.8073  0.7661 -0.4333
  654MOL0     H88240   1.468  11.876   6.733  0.2866  0.0776 -0.1228
  654MOL0     H88241   1.700  12.031   6.638  3.9946 -0.5037 -1.4072
  654MOL0     H88242   1.855  12.203   6.687 -0.2025  0.3346  0.8015
  654MOL0     H88243   1.929  12.222   6.839 -0.9462 -1.2292  0.1792
  654MOL0     H88244   2.020  12.033   6.597  1.0293  0.8248 -2.3772
  654MOL0     H88245   2.091  12.182   6.645 -2.4962  1.7004  0.1000
  654MOL0     H88246   2.107  11.914   6.794 -1.6006  0.1830 -2.2005
  654MOL0     H88247   2.138  12.064   6.883  2.3492 -3.4740  1.3272
  654MOL0     H88248   2.330  12.133   6.744  1.8991  0.0700 -3.3739
  654MOL0     H88249   2.299  12.000   6.635  3.9953  3.3207  0.0773
  654MOL0     H88250   2.567  12.085   6.696  0.1468 -0.2148 -0.4998
  654MOL0     H88251   2.769  12.156   6.822 -0.8892  1.4345 -0.7656
  654MOL0     H88252   3.174  12.132   6.803  0.0096 -1.1101 -0.5630
  654MOL0     H88253   3.403  12.193   6.872 -0.0486 -1.0680 -1.4117
  654MOL0     H88254   3.551  12.300   6.923 -1.5549 -1.5823  0.5196
  654MOL0     H88255   3.456  12.441   6.968 -0.2640 -0.3726 -0.4196
  654MOL0     H88256   3.709  12.357   7.103  2.9493  1.4816 -0.2045
  654MOL0     H88257   3.702  12.476   6.977 -2.5002 -1.1432 -1.4107
  654MOL0     H88258   3.509  12.519   7.215  0.3628  2.9292  0.6597
  654MOL0     H88259   3.674  12.549   7.243 -0.7086 -0.7335  0.4516
  654MOL0     H88260   3.513  12.670   7.018 -0.5664 -0.2539  0.1944
  654MOL0     H88261   3.688  12.693   7.049  1.6500 -1.5572  1.3337
  654MOL0     H88262   3.469  12.773   7.242  1.5143 -3.1901  1.6270
  654MOL0     H88263   3.559  12.893   7.145  2.8555 -0.1358 -0.2385
  654MOL0     H88264   3.637  12.914   7.363 -1.2441  0.0903 -1.0710
  654MOL0     H88265   3.680  12.749   7.376  0.9726  0.8551 -0.1475
  654MOL0     H88266   3.792  12.976   7.229  0.2968  0.3525  2.9173
  654MOL0     H88267   3.838  12.823   7.159  0.8159  3.5503 -1.8835
  654MOL0     H88268   3.938  12.738   7.385  2.9294  1.3706  5.9871
  654MOL0     H88269   4.015  12.891   7.329 -0.3459  1.2922  0.9487
  654MOL0     H88270   3.290  12.223   7.276  1.3467  0.4069 -0.8450
  654MOL0     H88271   3.061  12.167   7.228  0.7392  3.6213  1.0450
  654MOL0     H88272   2.680  11.878   7.127 -2.2705 -1.0998 -1.1726
  654MOL0     H88273   2.457  11.843   7.021 -0.2589  0.9805  1.8143
  654MOL0     H88274   0.795  11.081   6.768 -0.4233 -3.0221  0.1042
  654MOL0     H88275   0.834  10.908   6.621  1.5767 -1.4452 -2.8771
  654MOL0     H88276   1.105  10.895   6.199  2.8700  1.1407 -1.5491
  654MOL0     H88277   1.212  10.748   6.045  0.1999 -0.0796 -0.1495
  654MOL0     H88278   1.129  10.415   5.934  1.4405 -2.0623  0.1378
  654MOL0     H88279   1.264  10.536   5.919 -0.6448 -1.0257  2.3308
  654MOL0     H88280   1.114  10.402   5.681  1.7566 -1.4426 -2.3168
  654MOL0     H88281   1.261  10.337   5.747 -2.6470 -1.9016  3.2078
  654MOL0     H88282   1.369  10.559   5.716  0.1845 -1.5906 -0.8732
  654MOL0     H88283   1.219  10.607   5.624 -0.8907 -0.9367 -1.9825
  654MOL0     H88284   1.406  10.536   5.464 -2.2436  0.4166 -1.7840
  654MOL0     H88285   1.437  10.386   5.546  2.4972  1.5571 -0.7947
  654MOL0     H88286   1.156  10.354   5.249  0.6038  0.1974 -0.3224
  654MOL0     H88287   0.832  10.628   5.882  0.4693  1.4285 -3.4051
  654MOL0     H88288   0.625  10.733   6.128  0.1853 -5.9910 -3.1868
  654MOL0     H88289   0.637  10.881   6.015  1.3782 -0.4559 -0.6476
  654MOL0     H88290   0.628  10.725   5.954  1.1033  0.5826 -0.7435
  655MOL0     O88291   1.542   2.421   0.087 -0.3684  0.6175  0.6603
  655MOL0     C88292   1.502   2.309   0.068  0.5566 -0.7245 -0.3605
  655MOL0     O88293   1.577   2.200   0.019 -0.2324  0.1226  0.6128
  655MOL0     C88294   1.718   2.214   0.008  0.3066  0.1984 -0.3158
  655MOL0     C88295   1.781   2.290  -0.087 -0.3587 -0.0015  0.7193
  655MOL0     C88296   1.924   2.296  -0.092  0.3703  0.6690  0.2809
  655MOL0     C88297   2.001   2.247   0.014  0.5740 -1.2403 -0.0860
  655MOL0     O88298   2.122   2.291   0.056  0.0222 -0.3701 -0.1753
  655MOL0     C88299   2.184   2.408  -0.015 -0.3305  0.4457  0.0650
  655MOL0     C88300   2.254   2.480   0.099  0.6697 -0.5004 -0.6187
  655MOL0     C88301   2.366   2.399   0.168  0.3097  0.0282 -0.9052
  655MOL0     C88302   2.391   2.448   0.319 -0.6145  0.0125  0.6486
  655MOL0     C88303   2.503   2.359   0.383 -0.1075 -0.6788 -1.0354
  655MOL0     C88304   2.575   2.431   0.514  0.9172 -0.3167  0.9104
  655MOL0     C88305   2.489   2.455   0.634 -0.0558  0.6160 -0.2501
  655MOL0     C88306   2.560   2.550   0.729  0.1051  0.1082 -0.3138
  655MOL0     N88307   2.524   2.693   0.707  0.5141  0.9216  0.5531
  655MOL0     C88308   2.602   2.789   0.637  0.5047  0.6246  0.3477
  655MOL0     C88309   2.549   2.908   0.671  0.3902 -1.0112 -0.3586
  655MOL0     C88310   2.597   3.042   0.629 -0.0674 -0.6725 -0.8273
  655MOL0     C88311   2.633   3.143   0.744 -0.6528  0.3626  0.1197
  655MOL0     C88312   2.741   3.232   0.686  0.9512 -0.0454 -0.2335
  655MOL0     C88313   2.752   3.363   0.775 -0.2056 -0.6479 -0.5543
  655MOL0     O88314   2.881   3.426   0.740 -0.0263  0.4506 -0.3578
  655MOL0     C88315   2.920   3.529   0.820  0.0843 -0.5594 -0.8694
  655MOL0     C88316   3.043   3.578   0.784 -0.1995 -1.2600  0.4731
  655MOL0     C88317   3.097   3.687   0.864 -0.8384  1.8870  0.2236
  655MOL0     C88318   3.032   3.742   0.976  0.0429  0.2185  0.2514
  655MOL0     C88319   3.090   3.854   1.052  0.8774 -0.0204 -0.2051
  655MOL0     O88320   3.024   3.897   1.160  0.3161  0.3572  0.3568
  655MOL0     C88321   3.067   4.015   1.218  0.2925 -0.4515 -0.0002
  655MOL0     C88322   3.164   4.007   1.319 -0.9095 -0.3111 -0.3551
  655MOL0     C88323   3.218   4.127   1.371  0.1144  0.1150  0.5559
  655MOL0     C88324   3.156   4.252   1.349 -1.1111 -0.4373  1.0393
  655MOL0     O88325   3.212   4.363   1.400 -0.3049 -0.1787 -0.7101
  655MOL0     C88326   3.183   4.501   1.363  0.7615 -0.0461 -0.9259
  655MOL0     C88327   3.233   4.608   1.465 -0.2068 -1.0176 -0.0849
  655MOL0     C88328   3.384   4.603   1.455  0.3730 -0.7997 -0.1395
  655MOL0     C88329   3.443   4.748   1.471  1.1752  0.2993 -0.0539
  655MOL0     C88330   3.591   4.738   1.498  0.2347 -0.0901 -0.5902
  655MOL0     C88331   3.689   4.632   1.413  1.5816  0.3165  0.4051
  655MOL0     C88332   3.835   4.658   1.441 -0.8307 -0.1479 -0.7208
  655MOL0     C88333   3.911   4.529   1.461 -0.1782 -1.1285 -0.3467
  655MOL0    Cl88334   4.071   4.559   1.517 -0.0654  0.2037  0.0133
  655MOL0     C88335   3.051   4.254   1.255 -0.2668  0.0613  0.4678
  655MOL0     C88336   3.019   4.137   1.176  0.0623  0.8288 -0.5480
  655MOL0     O88337   3.194   3.904   1.010  0.0084  0.4832 -0.0116
  655MOL0     C88338   2.901   3.695   1.001  0.1771  0.5047  0.1522
  655MOL0     C88339   2.840   3.587   0.924  0.4739 -0.2233 -0.0561
  655MOL0     N88340   2.428   2.880   0.738 -0.0784  0.4553  0.0293
  655MOL0     N88341   2.411   2.753   0.749 -0.3653  0.2852  0.7424
  655MOL0     C88342   1.933   2.167   0.111  1.1666 -0.1000 -0.6529
  655MOL0     C88343   1.796   2.137   0.093  0.6397 -0.1549 -0.2897
  655MOL0     C88344   1.356   2.294   0.089  0.1163 -0.2224 -0.5616
  655MOL0     C88345   1.277   2.408   0.101  0.5829 -0.3702  0.5679
  655MOL0     C88346   1.138   2.402   0.098  0.0587 -0.2928 -0.0740
  655MOL0     C88347   1.074   2.282   0.096  0.5381 -0.1868 -0.5922
  655MOL0     O88348   0.929   2.292   0.102 -0.4083 -0.5961 -0.0428
  655MOL0     C88349   0.859   2.172   0.152  0.8982  0.0623 -0.1036
  655MOL0     C88350   0.707   2.200   0.171 -0.0250 -0.3719 -0.9457
  655MOL0     C88351   0.678   2.319   0.256  0.5337 -0.7343 -0.1375
  655MOL0     C88352   0.731   2.315   0.404  0.4326  0.2800 -0.7194
  655MOL0     C88353   0.667   2.199   0.473 -0.3745  0.0135  0.7734
  655MOL0     C88354   0.603   2.117   0.532  0.2966 -0.0845 -0.3034
  655MOL0     C88355   1.149   2.169   0.083 -0.8669 -0.3115  0.2829
  655MOL0     C88356   1.290   2.172   0.077  0.6583  0.0046 -0.4880
  655MOL0     C88357   1.368   2.040   0.071 -0.1007 -0.1614  0.6468
  655MOL0     H88358   1.715   2.342  -0.155 -1.5369 -0.4506  1.4830
  655MOL0     H88359   1.967   2.362  -0.167  2.3695 -0.5809  0.2366
  655MOL0     H88360   2.244   2.370  -0.098  0.1282  0.6549  0.2996
  655MOL0     H88361   2.110   2.476  -0.059  1.5831  0.1717 -3.9900
  655MOL0     H88362   2.181   2.501   0.177 -0.5663 -4.1799 -0.6346
  655MOL0     H88363   2.286   2.580   0.068 -1.4507  0.1408 -0.9348
  655MOL0     H88364   2.464   2.402   0.119  1.0637  0.0365  0.5448
  655MOL0     H88365   2.324   2.298   0.178 -1.1508  0.4622 -2.2402
  655MOL0     H88366   2.436   2.548   0.316 -1.0186  0.2307  1.5929
  655MOL0     H88367   2.302   2.445   0.382 -1.6589  1.7156 -0.6314
  655MOL0     H88368   2.475   2.254   0.399  0.3154 -0.7086 -0.4449
  655MOL0     H88369   2.579   2.356   0.305  0.6766  1.3156 -0.3958
  655MOL0     H88370   2.650   2.358   0.544 -0.5301 -1.2095  2.5520
  655MOL0     H88371   2.623   2.527   0.495 -1.5343  0.7862 -0.2386
  655MOL0     H88372   2.476   2.370   0.702 -0.9806  0.1713 -0.9510
  655MOL0     H88373   2.389   2.491   0.610  0.1988  0.0525 -2.3694
  655MOL0     H88374   2.524   2.528   0.830  1.5785  0.9107  0.4139
  655MOL0     H88375   2.668   2.531   0.728 -0.3861 -3.2976 -0.2426
  655MOL0     H88376   2.696   2.778   0.583  0.4084 -0.1879  0.3334
  655MOL0     H88377   2.687   3.027   0.568  1.8311  1.3338  1.2884
  655MOL0     H88378   2.513   3.084   0.574  0.8786  2.0147 -0.3782
  655MOL0     H88379   2.553   3.204   0.786  1.0048  2.6278  0.1767
  655MOL0     H88380   2.682   3.083   0.821  3.5463  1.8368 -1.1194
  655MOL0     H88381   2.706   3.245   0.583 -0.6940  1.8209  0.5009
  655MOL0     H88382   2.836   3.178   0.676  2.4001  2.2057  0.5958
  655MOL0     H88383   2.761   3.329   0.879  0.9493 -0.0089 -0.4249
  655MOL0     H88384   2.666   3.428   0.761  2.1693  2.7124 -0.7875
  655MOL0     H88385   3.108   3.546   0.703  1.1551  3.8629 -0.8519
  655MOL0     H88386   3.190   3.734   0.834 -0.7811  1.3272 -0.5095
  655MOL0     H88387   3.195   3.907   1.348 -0.8797  0.8094  4.2539
  655MOL0     H88388   3.305   4.121   1.435  1.4824 -2.5143 -1.3621
  655MOL0     H88389   3.216   4.527   1.262 -0.2513 -0.3022 -1.3421
  655MOL0     H88390   3.074   4.511   1.361  0.6766 -0.8410 -0.7062
  655MOL0     H88391   3.196   4.707   1.435  0.3951 -0.5762  0.5935
  655MOL0     H88392   3.204   4.581   1.567  0.3836  1.1662  0.7124
  655MOL0     H88393   3.430   4.553   1.541  1.5235  3.4793  2.0250
  655MOL0     H88394   3.423   4.561   1.362  0.5350 -1.3526  0.1748
  655MOL0     H88395   3.397   4.801   1.555  3.1911  0.8590  0.7477
  655MOL0     H88396   3.425   4.804   1.379 -2.0570 -3.0489 -1.7351
  655MOL0     H88397   3.606   4.716   1.604 -2.5621 -0.8146 -0.2804
  655MOL0     H88398   3.622   4.842   1.479  0.8670 -0.2617 -0.5050
  655MOL0     H88399   3.664   4.527   1.430  0.8441  0.1301 -1.6318
  655MOL0     H88400   3.678   4.656   1.307  1.5016  0.2925  0.4078
  655MOL0     H88401   3.844   4.722   1.529 -0.6410  1.3499 -1.7991
  655MOL0     H88402   3.875   4.707   1.352 -0.4320  0.6993 -0.0802
  655MOL0     H88403   3.864   4.470   1.540 -2.4846 -0.9041 -1.4469
  655MOL0     H88404   3.914   4.468   1.371  1.8900 -2.6672  0.6920
  655MOL0     H88405   3.002   4.347   1.232  1.8094  1.5562  1.6944
  655MOL0     H88406   2.960   4.152   1.085 -0.7713  0.9451 -0.0015
  655MOL0     H88407   2.851   3.735   1.088  1.7334 -0.6986  1.6643
  655MOL0     H88408   2.734   3.569   0.936 -1.1685  5.1279 -2.9505
  655MOL0     H88409   1.993   2.123   0.191  1.3361  0.8070 -0.2607
  655MOL0     H88410   1.747   2.069   0.162  0.1690  0.9626  0.5024
  655MOL0     H88411   1.326   2.505   0.098  0.5035 -0.3478 -1.5383
  655MOL0     H88412   1.084   2.495   0.094 -0.8821 -0.6415  2.4532
  655MOL0     H88413   0.916   2.121   0.231 -0.3642 -2.1276 -0.5295
  655MOL0     H88414   0.868   2.090   0.079 -0.0268 -1.2411  1.2069
  655MOL0     H88415   0.650   2.119   0.216 -2.3790  1.9307  0.5357
  655MOL0     H88416   0.665   2.223   0.072  0.8465  1.5720 -0.9009
  655MOL0     H88417   0.569   2.333   0.254  0.6913  0.5677 -1.3032
  655MOL0     H88418   0.708   2.414   0.211 -3.1219  0.2314 -0.8552
  655MOL0     H88419   0.836   2.285   0.400  1.5315  2.3566  4.6060
  655MOL0     H88420   0.715   2.407   0.461  0.9126  0.1268 -0.3341
  655MOL0     H88421   0.536   2.043   0.570  0.2623  0.6230  1.0909
  655MOL0     H88422   1.104   2.075   0.052  0.0164 -0.9493  0.8786
  655MOL0     H88423   1.414   2.030  -0.027  1.2237 -1.0866  1.3342
  655MOL0     H88424   1.440   2.043   0.153  1.9759 -1.0286 -1.0480
  655MOL0     H88425   1.311   1.948   0.088  2.0916 -1.4542  1.4420
  656MOL0     O88426   3.404   1.251   1.948  0.1995 -0.1209 -0.2592
  656MOL0     C88427   3.341   1.350   1.898 -0.8273  0.7011 -0.0954
  656MOL0     O88428   3.382   1.479   1.876 -0.1111 -0.0249 -0.0401
  656MOL0     C88429   3.299   1.580   1.837  0.0027 -0.0643 -0.6612
  656MOL0     C88430   3.220   1.653   1.928  0.5493  0.4071 -0.8743
  656MOL0     C88431   3.139   1.762   1.886 -0.5857  0.5735  0.4781
  656MOL0     C88432   3.125   1.790   1.753 -0.0653 -0.1182 -0.4927
  656MOL0     O88433   3.032   1.881   1.714  0.4556 -0.2028  0.1972
  656MOL0     C88434   3.086   2.002   1.665  1.6008 -0.7252 -0.9068
  656MOL0     C88435   3.103   2.103   1.782  0.4822  0.0861  0.1361
  656MOL0     C88436   3.100   2.248   1.721 -0.5014 -0.0879  0.1466
  656MOL0     C88437   3.196   2.272   1.609 -0.0731 -0.1265  0.2106
  656MOL0     C88438   3.208   2.410   1.561 -1.1743 -0.5364 -0.0278
  656MOL0     C88439   3.323   2.428   1.456  0.5772  0.0727 -0.1253
  656MOL0     C88440   3.301   2.555   1.384  0.4913 -0.0990  0.5589
  656MOL0     C88441   3.413   2.593   1.281 -0.0648 -0.0353 -0.6122
  656MOL0     N88442   3.552   2.592   1.325 -0.3153 -0.8091  0.1638
  656MOL0     C88443   3.599   2.680   1.426  0.2424  0.0567 -0.3624
  656MOL0     C88444   3.715   2.620   1.467 -0.4516  0.4299  0.4272
  656MOL0     C88445   3.828   2.687   1.542 -0.1314  0.3449 -0.1250
  656MOL0     C88446   3.876   2.820   1.478 -0.7242 -0.7011 -0.0877
  656MOL0     C88447   3.989   2.802   1.373  0.2510 -0.2140  0.0023
  656MOL0     C88448   3.934   2.743   1.245 -0.3365  0.1837  0.1366
  656MOL0     O88449   3.915   2.848   1.148  0.1645  0.8551 -0.2956
  656MOL0     C88450   4.033   2.908   1.103  1.1412 -0.0442 -0.2294
  656MOL0     C88451   4.023   3.035   1.032 -0.7105 -0.5898 -0.6245
  656MOL0     C88452   4.145   3.101   0.990  0.4572  0.3430  0.0095
  656MOL0     C88453   4.269   3.040   1.017 -0.9482 -0.3476  0.2805
  656MOL0     C88454   4.389   3.118   0.974  0.1701 -0.2937  0.1915
  656MOL0     O88455   4.505   3.049   0.988 -0.1221 -1.0200 -0.2717
  656MOL0     C88456   4.629   3.110   0.955 -0.0091 -0.2185 -0.1439
  656MOL0     C88457   4.738   3.123   1.058 -1.1859  0.2260 -0.1069
  656MOL0     C88458   4.868   3.171   1.003 -0.0074 -0.1621  0.4003
  656MOL0     C88459   4.880   3.217   0.869  0.5109 -0.1311  0.4667
  656MOL0     O88460   4.989   3.289   0.822 -0.0519  0.0209  0.5631
  656MOL0     C88461   5.064   3.360   0.920 -0.3218 -1.2356 -0.7272
  656MOL0     C88462   5.121   3.500   0.863  1.4201  1.2268 -0.0391
  656MOL0     C88463   5.201   3.491   0.736 -0.2814  0.4926  0.2056
  656MOL0     C88464   5.279   3.628   0.718  0.3114  0.1009 -0.4087
  656MOL0     C88465   5.353   3.619   0.578  0.2612  0.2714 -0.7385
  656MOL0     C88466   5.456   3.731   0.576 -0.0600 -0.5185 -0.3216
  656MOL0     C88467   5.542   3.717   0.443 -0.2561 -0.8384 -0.6033
  656MOL0     C88468   5.611   3.858   0.409 -0.2025  0.3819 -0.4633
  656MOL0    Cl88469   5.737   3.903   0.524 -0.2741  0.3125 -0.1260
  656MOL0     C88470   4.771   3.204   0.780  1.1102 -0.7634 -0.7441
  656MOL0     C88471   4.654   3.143   0.816  0.4117  0.5553 -1.1741
  656MOL0     O88472   4.380   3.231   0.939 -0.6388 -0.5149 -0.0181
  656MOL0     C88473   4.280   2.917   1.088  0.1182  0.3559  0.2083
  656MOL0     C88474   4.163   2.849   1.117  1.2373 -0.9457  0.5198
  656MOL0     N88475   3.731   2.502   1.397  0.5228  0.3576 -0.3287
  656MOL0     N88476   3.636   2.484   1.319 -0.6914  0.7396 -0.8487
  656MOL0     C88477   3.213   1.718   1.667 -0.7403  0.6949  0.3489
  656MOL0     C88478   3.302   1.622   1.703  0.7984  0.4317 -0.5761
  656MOL0     C88479   3.206   1.306   1.855 -0.1205  0.0824 -0.7153
  656MOL0     C88480   3.197   1.269   1.721  0.1040 -0.4996 -0.6541
  656MOL0     C88481   3.074   1.235   1.671  0.1325  0.4400 -0.5027
  656MOL0     C88482   2.959   1.215   1.763 -0.6792 -0.4137  0.3948
  656MOL0     O88483   2.833   1.182   1.729  0.0258 -0.7744  0.4303
  656MOL0     C88484   2.804   1.135   1.590  1.4572 -0.1864  0.1996
  656MOL0     C88485   2.675   1.061   1.591  0.0566  0.3215 -0.7621
  656MOL0     C88486   2.611   1.055   1.451 -0.1666 -0.2151 -0.4489
  656MOL0     C88487   2.483   0.977   1.452 -0.4102 -0.1269  0.6770
  656MOL0     C88488   2.450   0.954   1.307  0.9076  0.1256 -0.1578
  656MOL0     C88489   2.406   0.918   1.201 -0.8660 -0.1961 -0.4665
  656MOL0     C88490   2.977   1.252   1.892 -0.7560  0.7434 -0.0591
  656MOL0     C88491   3.094   1.300   1.943  0.1883 -0.0757  1.2620
  656MOL0     C88492   3.099   1.361   2.082  0.7337 -0.4592  0.7293
  656MOL0     H88493   3.234   1.623   2.031  0.9523 -3.8629 -1.9790
  656MOL0     H88494   3.088   1.814   1.966  1.9018  0.3816  2.3331
  656MOL0     H88495   3.184   1.992   1.619  2.6053 -2.7673  1.4338
  656MOL0     H88496   3.014   2.044   1.594  2.1410  0.6022 -0.6841
  656MOL0     H88497   3.193   2.087   1.842  0.1258  0.1956  0.7071
  656MOL0     H88498   3.018   2.086   1.848 -0.4920  0.9498 -0.8633
  656MOL0     H88499   3.131   2.323   1.794 -1.3636 -1.3744  1.9111
  656MOL0     H88500   2.997   2.271   1.691  0.2604  2.4597 -0.8285
  656MOL0     H88501   3.291   2.221   1.630 -0.4253 -0.0631  2.2037
  656MOL0     H88502   3.156   2.235   1.514  0.3582  0.9691 -0.4110
  656MOL0     H88503   3.117   2.439   1.508 -0.2336  2.1447 -0.2856
  656MOL0     H88504   3.230   2.473   1.647  0.3163 -0.9007 -0.1099
  656MOL0     H88505   3.416   2.419   1.513 -0.6223  0.4568  1.9829
  656MOL0     H88506   3.320   2.355   1.374 -3.1393  1.9422 -1.9194
  656MOL0     H88507   3.282   2.628   1.463 -0.6707 -1.2375  1.3757
  656MOL0     H88508   3.214   2.539   1.320  1.8288 -3.7526 -0.6393
  656MOL0     H88509   3.405   2.516   1.204  0.4394 -1.0313  0.3052
  656MOL0     H88510   3.394   2.693   1.242  1.4919  1.3197  1.8598
  656MOL0     H88511   3.552   2.774   1.456 -1.8394 -1.1608  0.4299
  656MOL0     H88512   3.799   2.697   1.647 -0.7917 -2.6488  0.0719
  656MOL0     H88513   3.910   2.615   1.533  0.3152  0.8630 -0.2314
  656MOL0     H88514   3.797   2.877   1.428  1.1120  0.1475 -2.1753
  656MOL0     H88515   3.914   2.881   1.561 -1.0642  1.2677 -1.3174
  656MOL0     H88516   4.055   2.727   1.418  0.9965 -0.1286 -0.9060
  656MOL0     H88517   4.048   2.894   1.361  1.0568 -0.4321  1.9219
  656MOL0     H88518   3.832   2.706   1.260 -0.5183  0.4867 -0.3324
  656MOL0     H88519   3.983   2.650   1.217  0.8518  0.3646  1.5247
  656MOL0     H88520   3.928   3.069   0.991  0.7265 -0.3593 -4.1058
  656MOL0     H88521   4.136   3.192   0.932  0.9572  0.3910 -0.0031
  656MOL0     H88522   4.726   3.089   1.160 -0.2939  0.2936  0.0247
  656MOL0     H88523   4.958   3.145   1.057  0.0075 -1.7692 -0.3412
  656MOL0     H88524   5.004   3.370   1.011 -2.7702 -3.2420 -1.9836
  656MOL0     H88525   5.148   3.297   0.947  0.5491 -0.3913 -1.3985
  656MOL0     H88526   5.035   3.565   0.850 -2.4657 -3.0796  1.3200
  656MOL0     H88527   5.191   3.528   0.943  1.2385 -2.5983  1.6836
  656MOL0     H88528   5.259   3.398   0.729 -2.6900 -0.9866 -3.2269
  656MOL0     H88529   5.133   3.491   0.650 -1.1764  0.9257  0.9002
  656MOL0     H88530   5.336   3.626   0.811 -1.0856 -3.5383  0.5392
  656MOL0     H88531   5.220   3.721   0.723 -1.2721 -0.9014  0.2495
  656MOL0     H88532   5.279   3.627   0.498  1.5451 -1.6388 -2.2111
  656MOL0     H88533   5.396   3.520   0.561 -0.2322  0.1459 -1.2814
  656MOL0     H88534   5.402   3.825   0.590 -1.4121 -1.4406  0.9359
  656MOL0     H88535   5.530   3.718   0.656  1.5795  0.9209 -1.5221
  656MOL0     H88536   5.468   3.691   0.367  2.1685 -1.2259 -2.9671
  656MOL0     H88537   5.618   3.639   0.451  0.8036 -0.0727 -2.7090
  656MOL0     H88538   5.648   3.854   0.306 -1.8352 -3.6706 -1.0773
  656MOL0     H88539   5.534   3.936   0.412 -0.3672  0.2631 -1.4195
  656MOL0     H88540   4.768   3.262   0.688 -2.2409 -2.6167 -1.9591
  656MOL0     H88541   4.569   3.135   0.750 -0.3298  1.1843 -0.3206
  656MOL0     H88542   4.378   2.884   1.120  0.4120  1.4225  0.4756
  656MOL0     H88543   4.177   2.745   1.145  1.3904 -1.7016 -2.0867
  656MOL0     H88544   3.204   1.736   1.561  1.0015  1.1046  0.2417
  656MOL0     H88545   3.360   1.569   1.628  2.3258  2.2392 -0.7337
  656MOL0     H88546   3.284   1.269   1.657 -0.3956  1.7648 -1.4039
  656MOL0     H88547   3.064   1.204   1.568 -0.8732  2.9319 -1.2275
  656MOL0     H88548   2.877   1.072   1.539 -0.1309 -0.0682 -2.3544
  656MOL0     H88549   2.792   1.225   1.529 -0.0095  0.0915  0.8448
  656MOL0     H88550   2.598   1.103   1.656  1.0084  0.2367  0.4579
  656MOL0     H88551   2.689   0.963   1.637 -0.5480  1.2167  1.4601
  656MOL0     H88552   2.694   1.010   1.396  1.5464  2.4179 -0.1990
  656MOL0     H88553   2.599   1.159   1.420 -1.3391 -0.1132  0.2903
  656MOL0     H88554   2.504   0.885   1.506  1.3410 -1.1931 -1.6437
  656MOL0     H88555   2.402   1.038   1.493 -2.5259 -2.6957  0.5399
  656MOL0     H88556   2.386   0.863   1.111 -3.2919 -1.0771  0.5468
  656MOL0     H88557   2.891   1.240   1.957  1.8735  0.2334  3.6888
  656MOL0     H88558   3.044   1.295   2.150 -0.3734  0.4556  0.7448
  656MOL0     H88559   3.201   1.374   2.118  1.6430  1.1067 -2.1171
  656MOL0     H88560   3.051   1.458   2.094  2.6610  0.3353  2.6347
  657MOL0     O88561   2.119  10.487   3.751  0.0637  0.2659 -0.8847
  657MOL0     C88562   2.116  10.513   3.873 -0.9802  0.2058 -0.0399
  657MOL0     O88563   2.099  10.419   3.973  0.1534  0.1126  0.6711
  657MOL0     C88564   2.060  10.293   3.938  0.5703  0.3605  0.0570
  657MOL0     C88565   2.150  10.190   3.916 -0.9590 -0.1266 -0.5348
  657MOL0     C88566   2.113  10.053   3.933 -0.4543  0.1034  1.4247
  657MOL0     C88567   1.983  10.015   3.960  0.3287 -0.0374  0.6847
  657MOL0     O88568   1.939   9.880   3.967 -0.2828  0.3384 -0.0197
  657MOL0     C88569   2.016   9.772   3.922  0.0308 -0.0001  0.1703
  657MOL0     C88570   1.990   9.756   3.771 -0.1147 -0.5513  1.3505
  657MOL0     C88571   1.924   9.631   3.715  0.5475 -0.2199  0.2401
  657MOL0     C88572   1.776   9.625   3.761 -0.2044  0.7781  0.5475
  657MOL0     C88573   1.706   9.488   3.717  0.0258 -0.1798  0.0289
  657MOL0     C88574   1.603   9.448   3.828  0.6434  0.3581  0.6932
  657MOL0     C88575   1.676   9.382   3.946 -0.2219  0.0522  1.3641
  657MOL0     C88576   1.585   9.311   4.040  0.0615 -0.5960  0.0814
  657MOL0     N88577   1.653   9.280   4.177  0.4711 -0.4289 -0.6910
  657MOL0     C88578   1.723   9.170   4.215 -0.5764  0.2754  0.6558
  657MOL0     C88579   1.767   9.187   4.343 -0.1060 -0.3601 -0.3053
  657MOL0     C88580   1.848   9.113   4.447 -0.2004 -0.7891 -0.0351
  657MOL0     C88581   1.924   9.192   4.550 -0.2634 -0.0833  0.5900
  657MOL0     C88582   1.998   9.098   4.636 -0.3026 -0.2160 -0.4822
  657MOL0     C88583   2.133   9.067   4.589 -0.1456 -0.0920  0.5651
  657MOL0     O88584   2.117   8.950   4.514 -0.3307 -0.6897  0.2824
  657MOL0     C88585   2.227   8.932   4.431  0.4050  0.0909  0.4564
  657MOL0     C88586   2.215   8.890   4.304  0.5256  0.0188  0.3642
  657MOL0     C88587   2.325   8.853   4.222 -0.7467 -0.6150  0.3555
  657MOL0     C88588   2.453   8.884   4.263  0.1770 -0.5236  0.4646
  657MOL0     C88589   2.567   8.876   4.165  0.5102 -0.5078 -0.1773
  657MOL0     O88590   2.679   8.954   4.189 -0.6658 -0.9597  0.5843
  657MOL0     C88591   2.788   8.963   4.111 -0.5866 -0.2415 -0.6352
  657MOL0     C88592   2.792   8.947   3.969  0.1711  0.1687 -0.6956
  657MOL0     C88593   2.910   8.970   3.895 -0.1065 -0.3337  0.0759
  657MOL0     C88594   3.029   9.004   3.955  0.3795 -0.2358  0.4017
  657MOL0     O88595   3.130   9.030   3.868  0.7459  0.0946 -0.2436
  657MOL0     C88596   3.258   9.053   3.916  0.1269 -0.2898  0.0919
  657MOL0     C88597   3.325   8.916   3.948  0.8097 -0.5127 -0.2990
  657MOL0     C88598   3.449   8.885   3.873  0.1003  0.2403  0.9712
  657MOL0     C88599   3.570   8.954   3.951  1.0235  0.2595 -0.2785
  657MOL0     C88600   3.698   8.939   3.865 -0.4909 -0.4697  0.1961
  657MOL0     C88601   3.825   8.969   3.946  0.5644  0.0294 -0.5861
  657MOL0     C88602   3.954   8.932   3.863  0.0823  0.0814 -0.3320
  657MOL0     C88603   4.069   8.857   3.933 -0.3895 -0.0016  0.4816
  657MOL0    Cl88604   4.165   8.973   4.025  0.4529 -0.1772  0.0827
  657MOL0     C88605   3.035   9.008   4.092 -0.1687 -0.0645 -1.6327
  657MOL0     C88606   2.913   8.993   4.173 -0.5527 -0.0702  0.1949
  657MOL0     O88607   2.556   8.797   4.077 -0.3162  0.1820  0.1134
  657MOL0     C88608   2.467   8.932   4.391  0.5627 -0.7544 -0.1771
  657MOL0     C88609   2.357   8.948   4.476  0.1067 -0.5134  0.7734
  657MOL0     N88610   1.743   9.320   4.366 -0.4608  0.0801 -0.2778
  657MOL0     N88611   1.669   9.376   4.275 -0.3883  0.3856  0.5591
  657MOL0     C88612   1.894  10.112   3.971  0.2845 -1.4068  0.4291
  657MOL0     C88613   1.929  10.247   3.969  0.5158  0.8600  0.0517
  657MOL0     C88614   2.151  10.654   3.922 -0.4330 -0.9515  0.3197
  657MOL0     C88615   2.144  10.685   4.053  0.4274  0.6134  0.3471
  657MOL0     C88616   2.169  10.805   4.106 -0.3713  0.0106 -0.6573
  657MOL0     C88617   2.207  10.922   4.035  0.7226  0.0863  0.3657
  657MOL0     O88618   2.220  11.041   4.105  0.0404  0.1190 -0.1774
  657MOL0     C88619   2.302  11.142   4.051  1.1127 -0.3270 -0.0190
  657MOL0     C88620   2.448  11.096   4.030 -0.0029 -0.4726  0.6912
  657MOL0     C88621   2.534  11.192   3.954  0.0663 -0.2764  0.5050
  657MOL0     C88622   2.662  11.131   3.903 -0.4931 -0.9536  0.1542
  657MOL0     C88623   2.746  11.083   4.011 -0.6222  0.0161 -0.1567
  657MOL0     C88624   2.815  11.047   4.101  0.0572 -0.7800  0.0766
  657MOL0     C88625   2.220  10.898   3.893 -0.2169  0.9673 -0.0859
  657MOL0     C88626   2.192  10.769   3.834 -0.6086 -0.7273  0.5950
  657MOL0     C88627   2.193  10.775   3.679 -0.8583 -0.2391 -0.1735
  657MOL0     H88628   2.255  10.201   3.895 -1.3682 -0.8586 -3.4377
  657MOL0     H88629   2.195   9.983   3.920 -1.8670 -1.0668 -2.7117
  657MOL0     H88630   2.122   9.788   3.947  0.4059 -0.6836 -0.9130
  657MOL0     H88631   1.981   9.676   3.960 -2.5402  0.4208 -0.9398
  657MOL0     H88632   2.090   9.755   3.728 -0.1939  1.2251  1.0395
  657MOL0     H88633   1.939   9.843   3.728  2.3723 -0.6177 -2.1380
  657MOL0     H88634   1.982   9.544   3.747  2.2318  0.9860  0.5866
  657MOL0     H88635   1.935   9.636   3.607  0.5515 -0.8027  0.2068
  657MOL0     H88636   1.780   9.635   3.870  1.1324 -1.1812  0.7294
  657MOL0     H88637   1.720   9.706   3.715  1.6306  3.1047  2.1953
  657MOL0     H88638   1.641   9.517   3.634 -2.2047 -5.0974 -0.2221
  657MOL0     H88639   1.780   9.412   3.690  1.2429  1.2538 -0.9105
  657MOL0     H88640   1.544   9.537   3.854  0.0619  0.9343 -2.2753
  657MOL0     H88641   1.533   9.376   3.786 -0.5146  1.3858  0.8016
  657MOL0     H88642   1.735   9.461   3.995 -2.2776  4.9371 -3.0516
  657MOL0     H88643   1.742   9.303   3.909 -0.3473 -0.1429  1.5538
  657MOL0     H88644   1.501   9.380   4.057  0.1778  0.6422 -3.4861
  657MOL0     H88645   1.548   9.214   4.005 -1.3138  0.0492 -0.3374
  657MOL0     H88646   1.714   9.077   4.160  2.2118  1.0259 -1.2883
  657MOL0     H88647   1.779   9.040   4.491 -1.1680  0.4547  0.5719
  657MOL0     H88648   1.917   9.061   4.380  2.0553  2.0299 -0.0967
  657MOL0     H88649   1.977   9.278   4.509  0.1573 -0.6437 -0.0642
  657MOL0     H88650   1.848   9.245   4.609 -0.0564  1.0320 -0.1245
  657MOL0     H88651   1.938   9.009   4.655 -0.6633  0.1174 -0.0332
  657MOL0     H88652   2.001   9.146   4.734 -3.7313  0.4364 -0.5892
  657MOL0     H88653   2.206   9.057   4.669 -0.1452 -1.3296  0.4281
  657MOL0     H88654   2.168   9.149   4.524 -0.7588 -2.0235 -2.4102
  657MOL0     H88655   2.117   8.878   4.259  0.6143  1.2812 -0.1925
  657MOL0     H88656   2.307   8.803   4.127 -1.7272 -3.6524  2.0143
  657MOL0     H88657   2.690   8.929   3.938 -2.1578  0.3320  5.4910
  657MOL0     H88658   2.914   8.957   3.787 -1.7333  2.3146 -0.4091
  657MOL0     H88659   3.318   9.091   3.832  0.2640 -1.1943 -0.2332
  657MOL0     H88660   3.263   9.126   3.997 -0.6384  1.4650 -1.3672
  657MOL0     H88661   3.339   8.927   4.056 -2.4470  1.5779  0.0349
  657MOL0     H88662   3.246   8.844   3.926 -1.2638  2.2192 -2.4275
  657MOL0     H88663   3.473   8.779   3.870 -4.2439 -0.9242 -2.7480
  657MOL0     H88664   3.446   8.921   3.770 -1.6546 -0.9954  0.5682
  657MOL0     H88665   3.583   8.895   4.042 -2.4043  0.7014  0.6166
  657MOL0     H88666   3.549   9.059   3.975  0.5646 -0.5874  3.6411
  657MOL0     H88667   3.686   9.008   3.781 -1.3927 -1.0102 -0.1217
  657MOL0     H88668   3.710   8.836   3.830 -0.4987 -0.7435  0.9770
  657MOL0     H88669   3.834   9.073   3.979  3.3831 -0.1432 -0.5588
  657MOL0     H88670   3.825   8.902   4.032  0.4959  0.2631 -0.4020
  657MOL0     H88671   3.997   9.027   3.829  2.0284 -0.8243 -0.5681
  657MOL0     H88672   3.919   8.868   3.782 -1.2628  0.3737 -0.0029
  657MOL0     H88673   4.030   8.773   3.991 -3.4500  0.2746 -1.0164
  657MOL0     H88674   4.143   8.810   3.867  0.7831  0.4934  1.3873
  657MOL0     H88675   3.123   9.026   4.153 -3.1688  1.4164  2.8140
  657MOL0     H88676   2.915   9.003   4.281 -3.0103  0.3223  0.2516
  657MOL0     H88677   2.562   8.962   4.432 -0.9302  5.0195 -0.1420
  657MOL0     H88678   2.379   8.980   4.577 -0.5498  0.7671  0.5352
  657MOL0     H88679   1.787  10.093   3.968  0.0811 -0.8689  2.6198
  657MOL0     H88680   1.848  10.319   3.979 -0.1786  0.4192 -1.8973
  657MOL0     H88681   2.130  10.601   4.121  3.9724  0.5680  1.2582
  657MOL0     H88682   2.174  10.819   4.214  1.3021 -1.5853 -0.4770
  657MOL0     H88683   2.291  11.232   4.113  1.3761  1.9681 -3.0884
  657MOL0     H88684   2.264  11.165   3.951  2.9274 -1.8069 -1.1100
  657MOL0     H88685   2.449  11.002   3.976  0.8876  1.2151 -2.4696
  657MOL0     H88686   2.502  11.085   4.125 -0.0002  1.8626  1.0222
  657MOL0     H88687   2.569  11.280   4.008  1.0675 -1.4216  1.7748
  657MOL0     H88688   2.478  11.221   3.864  3.7521 -0.4075 -2.1091
  657MOL0     H88689   2.638  11.053   3.830 -1.9798  0.6168 -1.1295
  657MOL0     H88690   2.710  11.214   3.851  0.3080  0.2775  2.7008
  657MOL0     H88691   2.881  11.014   4.179  1.8681  0.2638 -0.9482
  657MOL0     H88692   2.259  10.971   3.823  1.3621 -2.0580 -2.6353
  657MOL0     H88693   2.264  10.853   3.651 -1.0551 -0.4394 -1.2730
  657MOL0     H88694   2.222  10.680   3.633  0.8887 -0.7148  1.7722
  657MOL0     H88695   2.097  10.805   3.636  0.2610  0.5310 -2.2612
  658MOL0     O88696   3.472   7.609  11.183  0.3182 -0.5258 -0.2788
  658MOL0     C88697   3.401   7.514  11.209  0.5135 -0.4732  0.2684
  658MOL0     O88698   3.443   7.385  11.205  0.1703 -0.5320 -0.7349
  658MOL0     C88699   3.577   7.364  11.195  0.6536  0.0065 -0.4969
  658MOL0     C88700   3.637   7.364  11.072  0.7847  0.2445  0.3963
  658MOL0     C88701   3.759   7.300  11.049  0.3338 -0.7925 -0.6615
  658MOL0     C88702   3.835   7.261  11.166  0.0568 -0.5909 -0.0845
  658MOL0     O88703   3.969   7.209  11.160  0.3659  0.0801 -0.8455
  658MOL0     C88704   4.058   7.304  11.083 -0.2801  0.0073  0.5861
  658MOL0     C88705   4.200   7.253  11.064  0.5774 -0.3956 -0.6423
  658MOL0     C88706   4.278   7.266  11.195  0.7592 -0.1647 -0.1422
  658MOL0     C88707   4.409   7.194  11.191  0.0650 -0.3478 -0.3413
  658MOL0     C88708   4.496   7.185  11.313  0.2245  0.0901 -0.4298
  658MOL0     C88709   4.571   7.309  11.346 -0.0053 -0.4047 -0.3237
  658MOL0     C88710   4.666   7.286  11.465 -1.1485 -0.1518 -0.1006
  658MOL0     C88711   4.734   7.426  11.491  1.1599 -0.1276 -0.2201
  658MOL0     N88712   4.834   7.402  11.585 -0.1438 -0.2952  0.1863
  658MOL0     C88713   4.809   7.402  11.716 -0.8752  0.0703 -0.2814
  658MOL0     C88714   4.922   7.349  11.767  0.0046 -0.9275  0.5011
  658MOL0     C88715   4.947   7.318  11.913  0.4895 -0.8108 -0.0688
  658MOL0     C88716   4.859   7.205  11.951 -0.1619 -0.4618  0.6252
  658MOL0     C88717   4.842   7.181  12.106 -0.0695  0.3584 -0.8550
  658MOL0     C88718   4.711   7.089  12.125 -0.4450  0.3946  0.8737
  658MOL0     O88719   4.585   7.159  12.078  0.1458  0.6055 -0.1519
  658MOL0     C88720   4.465   7.090  12.091 -0.0508  0.9555  0.5395
  658MOL0     C88721   4.351   7.159  12.051 -0.0193  0.1009  0.0462
  658MOL0     C88722   4.225   7.091  12.053 -0.8465 -0.1592 -0.2860
  658MOL0     C88723   4.217   6.956  12.085 -0.0956 -0.7755  0.4188
  658MOL0     C88724   4.083   6.885  12.078  0.0816 -0.2885 -0.0600
  658MOL0     O88725   3.991   6.935  11.993 -0.4293 -0.4137  0.2847
  658MOL0     C88726   3.870   6.881  11.975 -0.4551  0.2651  0.7866
  658MOL0     C88727   3.845   6.824  11.849 -0.3878 -0.8598  0.1187
  658MOL0     C88728   3.723   6.769  11.826 -0.6505 -0.8221 -0.7136
  658MOL0     C88729   3.622   6.791  11.916 -0.8821  0.4771  0.2538
  658MOL0     O88730   3.511   6.724  11.871  0.3388 -0.2326 -1.6937
  658MOL0     C88731   3.430   6.655  11.976  0.2878  0.1596 -0.2737
  658MOL0     C88732   3.346   6.538  11.924 -0.1945  1.4133  1.3658
  658MOL0     C88733   3.308   6.436  12.037 -0.1468  0.2343  0.2717
  658MOL0     C88734   3.236   6.320  11.976 -0.2450 -0.0465 -0.0899
  658MOL0     C88735   3.200   6.216  12.076  0.2717 -0.1107  0.1469
  658MOL0     C88736   3.142   6.088  12.006 -0.0626  0.2130 -0.8092
  658MOL0     C88737   3.003   6.107  11.939 -0.3494 -0.0409  0.0297
  658MOL0     C88738   2.976   5.990  11.857  0.1230  0.0740 -0.3381
  658MOL0    Cl88739   3.025   5.839  11.945 -0.2200  0.0313 -0.1708
  658MOL0     C88740   3.638   6.849  12.043 -1.0094 -0.5329  0.4156
  658MOL0     C88741   3.769   6.900  12.071  0.1718  0.4848 -1.2739
  658MOL0     O88742   4.060   6.779  12.141  0.8117  0.7555 -0.8660
  658MOL0     C88743   4.334   6.893  12.132 -0.1732  0.2598  0.1203
  658MOL0     C88744   4.457   6.955  12.138  0.4822 -0.8708 -0.0493
  658MOL0     N88745   5.012   7.313  11.666  0.4029  0.1655  0.2565
  658MOL0     N88746   4.955   7.340  11.557 -0.2763  0.6944 -0.2833
  658MOL0     C88747   3.772   7.267  11.286  0.3709  0.4310  0.1589
  658MOL0     C88748   3.645   7.315  11.303 -0.3629  0.4605  0.1737
  658MOL0     C88749   3.254   7.547  11.230 -0.2024 -0.1684  0.1972
  658MOL0     C88750   3.170   7.462  11.172  0.3936  0.3851 -0.4796
  658MOL0     C88751   3.031   7.494  11.167 -0.1434 -1.0003  0.7127
  658MOL0     C88752   2.982   7.612  11.216 -0.5434 -0.4900  0.5546
  658MOL0     O88753   2.850   7.649  11.215 -0.4708  0.3065 -0.0486
  658MOL0     C88754   2.754   7.549  11.257 -0.0169 -0.5432  0.2454
  658MOL0     C88755   2.751   7.521  11.409 -0.4546 -0.1389 -0.7880
  658MOL0     C88756   2.730   7.639  11.507  0.3190 -0.4179  0.2690
  658MOL0     C88757   2.860   7.654  11.594 -0.3245 -0.5286 -0.0746
  658MOL0     C88758   2.856   7.788  11.658  0.0633 -0.7126  0.0367
  658MOL0     C88759   2.847   7.897  11.716 -0.5087 -0.0894 -0.6116
  658MOL0     C88760   3.066   7.690  11.292 -0.4804  0.5846  1.2271
  658MOL0     C88761   3.206   7.663  11.292 -0.1924 -1.0523 -0.2996
  658MOL0     C88762   3.289   7.754  11.383  0.6567  0.2012  0.3785
  658MOL0     H88763   3.578   7.384  10.983  0.8841 -1.3752 -0.0808
  658MOL0     H88764   3.799   7.287  10.949  0.1588 -2.2969 -0.5506
  658MOL0     H88765   4.012   7.305  10.984 -0.5622 -1.5644  0.6792
  658MOL0     H88766   4.055   7.405  11.124  1.0394  0.9215 -1.4207
  658MOL0     H88767   4.246   7.306  10.980 -3.8265  0.9811 -2.4211
  658MOL0     H88768   4.193   7.146  11.042 -1.2456 -0.4964  0.3065
  658MOL0     H88769   4.218   7.236  11.281  1.0630  4.9475  2.2588
  658MOL0     H88770   4.295   7.372  11.218 -0.3999 -0.2103  1.0140
  658MOL0     H88771   4.391   7.093  11.155  2.6884 -0.3918 -1.7885
  658MOL0     H88772   4.469   7.235  11.109 -0.1409 -0.4036 -0.5185
  658MOL0     H88773   4.438   7.163  11.404  0.0922 -0.1295 -0.5651
  658MOL0     H88774   4.557   7.094  11.312  1.5224  0.7387  3.4576
  658MOL0     H88775   4.629   7.326  11.255  0.5550 -0.7537 -0.0358
  658MOL0     H88776   4.495   7.388  11.352 -2.1526 -2.3691 -0.5348
  658MOL0     H88777   4.738   7.206  11.445  0.7806  0.5503  3.2429
  658MOL0     H88778   4.609   7.265  11.556  1.1940  0.8261  1.7271
  658MOL0     H88779   4.783   7.450  11.396  1.2922 -3.3716 -1.0830
  658MOL0     H88780   4.653   7.495  11.518 -2.2225 -3.4817 -0.9611
  658MOL0     H88781   4.726   7.424  11.782  1.0390 -3.0096  3.5940
  658MOL0     H88782   5.054   7.298  11.931  1.1286  1.5894 -0.8093
  658MOL0     H88783   4.925   7.406  11.974 -0.6155 -1.9730  1.2988
  658MOL0     H88784   4.759   7.209  11.907  0.3690 -3.8338 -1.2800
  658MOL0     H88785   4.904   7.120  11.898 -1.1402  0.1896 -1.3577
  658MOL0     H88786   4.842   7.273  12.166  2.0642  1.0015 -1.7656
  658MOL0     H88787   4.931   7.127  12.138  1.3874  3.1596  0.0948
  658MOL0     H88788   4.703   7.047  12.226 -2.5470  0.2836  0.7076
  658MOL0     H88789   4.730   7.007  12.056 -2.3180  1.4436 -1.0102
  658MOL0     H88790   4.359   7.259  12.008  1.7186 -0.6972 -1.6537
  658MOL0     H88791   4.140   7.152  12.022  0.8020  2.0949 -0.6280
  658MOL0     H88792   3.909   6.812  11.761  1.2617 -3.7605  1.5684
  658MOL0     H88793   3.715   6.722  11.728  4.2115 -3.6991 -0.0926
  658MOL0     H88794   3.497   6.603  12.044 -1.8516 -0.4284  1.4898
  658MOL0     H88795   3.375   6.730  12.033  0.4994 -0.4177  0.6980
  658MOL0     H88796   3.251   6.583  11.894  1.2242  3.4660 -0.3371
  658MOL0     H88797   3.389   6.490  11.835  0.2035 -1.7421  3.1040
  658MOL0     H88798   3.404   6.393  12.066 -0.4647  0.1708  1.2573
  658MOL0     H88799   3.259   6.483  12.123 -0.7849  0.1962 -0.0685
  658MOL0     H88800   3.300   6.265  11.907  0.0735 -0.3564  0.4463
  658MOL0     H88801   3.144   6.347  11.923 -0.3519  0.6730  0.4457
  658MOL0     H88802   3.136   6.257  12.155  1.1936 -2.4085  2.2150
  658MOL0     H88803   3.291   6.196  12.133 -0.2317 -2.1119  0.3003
  658MOL0     H88804   3.203   6.042  11.927 -0.9984  0.8032 -1.9173
  658MOL0     H88805   3.138   6.016  12.087 -1.0146  0.7845 -0.3237
  658MOL0     H88806   2.999   6.198  11.878 -2.0116 -0.7752 -1.0255
  658MOL0     H88807   2.931   6.117  12.021 -0.9300  1.8858 -0.6525
  658MOL0     H88808   2.870   5.985  11.831  0.3871 -1.2291 -1.2723
  658MOL0     H88809   3.035   5.992  11.765  2.6055 -3.7277  0.9534
  658MOL0     H88810   3.555   6.865  12.110 -0.3338  3.8075  0.5120
  658MOL0     H88811   3.790   6.976  12.146  0.0603 -0.6784 -0.0371
  658MOL0     H88812   4.328   6.793  12.175  5.4094 -0.3734  0.1901
  658MOL0     H88813   4.536   6.894  12.181  2.0625 -0.1278 -1.7370
  658MOL0     H88814   3.835   7.239  11.369  0.0887 -0.1010  0.1942
  658MOL0     H88815   3.591   7.301  11.396  1.1124 -1.2666  0.8130
  658MOL0     H88816   3.197   7.369  11.123  3.0671  0.3362  0.8887
  658MOL0     H88817   2.968   7.455  11.087 -0.8727 -0.1629  0.8748
  658MOL0     H88818   2.761   7.457  11.197 -2.9259 -0.3801 -0.4665
  658MOL0     H88819   2.664   7.606  11.234 -0.8353 -1.4078  1.2495
  658MOL0     H88820   2.839   7.465  11.440  1.0531 -0.3294 -4.7835
  658MOL0     H88821   2.673   7.444  11.410 -2.0507  1.3649 -2.0341
  658MOL0     H88822   2.637   7.624  11.564 -1.3347  0.9297 -1.9036
  658MOL0     H88823   2.714   7.728  11.446 -0.7610 -2.0565 -2.0266
  658MOL0     H88824   2.860   7.567  11.660  1.2369 -0.9488 -0.5701
  658MOL0     H88825   2.951   7.642  11.535 -0.1435 -0.5315  0.2055
  658MOL0     H88826   2.847   7.988  11.772 -1.3178 -1.4442  1.7258
  658MOL0     H88827   3.037   7.780  11.346 -2.3118  2.2947 -2.2998
  658MOL0     H88828   3.340   7.696  11.461 -0.3773 -1.4397 -0.1146
  658MOL0     H88829   3.364   7.798  11.316 -1.0922 -2.2902 -3.5885
  658MOL0     H88830   3.230   7.829  11.435  0.2355 -1.0621  1.8222
  659MOL0     O88831   1.132   8.920   8.974 -0.0443  0.0387 -0.0613
  659MOL0     C88832   1.206   8.823   8.947  0.4302 -0.3236  0.6918
  659MOL0     O88833   1.170   8.702   8.895  0.6368  0.4325 -0.1666
  659MOL0     C88834   1.037   8.678   8.871  0.1178 -0.1750 -0.4339
  659MOL0     C88835   1.001   8.539   8.885 -1.1275 -0.7062 -0.1258
  659MOL0     C88836   0.872   8.505   8.852 -0.2252 -1.2040 -1.1893
  659MOL0     C88837   0.776   8.603   8.824 -0.4288 -0.3917 -0.2231
  659MOL0     O88838   0.643   8.581   8.820 -0.5644 -0.3145 -0.6766
  659MOL0     C88839   0.583   8.463   8.875 -1.2614  0.1263  0.5682
  659MOL0     C88840   0.433   8.486   8.893  0.0765 -1.3351 -0.8611
  659MOL0     C88841   0.366   8.522   8.764 -0.2144 -0.2967  0.3722
  659MOL0     C88842   0.221   8.589   8.778 -0.3418 -0.3182  0.0725
  659MOL0     C88843   0.135   8.525   8.887 -0.8856  0.8779  0.6080
  659MOL0     C88844  -0.009   8.564   8.862  0.1234 -1.0140  0.0552
  659MOL0     C88845  -0.101   8.533   8.980  0.0656 -0.3194 -0.3051
  659MOL0     C88846  -0.242   8.577   8.926 -0.6490  0.2960 -0.2238
  659MOL0     N88847  -0.337   8.544   9.026  0.1946  0.2336  0.4843
  659MOL0     C88848  -0.450   8.622   9.075 -0.4556  0.1171  0.5330
  659MOL0     C88849  -0.499   8.561   9.186  0.1958 -0.0334 -1.2407
  659MOL0     C88850  -0.603   8.620   9.280 -1.2564 -0.4573 -0.0995
  659MOL0     C88851  -0.541   8.725   9.368  0.2997 -0.0291  0.4844
  659MOL0     C88852  -0.432   8.682   9.468 -0.2421  0.2730 -0.2016
  659MOL0     C88853  -0.358   8.800   9.524  0.0417 -0.8689  0.0024
  659MOL0     O88854  -0.256   8.743   9.603 -0.7294 -0.1796 -0.4245
  659MOL0     C88855  -0.140   8.711   9.533  0.2286  1.3705 -1.0972
  659MOL0     C88856  -0.118   8.698   9.393  0.2249 -0.3022 -0.7178
  659MOL0     C88857   0.009   8.679   9.341 -0.1895  1.1557  0.2576
  659MOL0     C88858   0.124   8.689   9.425 -0.2696 -0.0001  1.1970
  659MOL0     C88859   0.249   8.677   9.364 -0.4700  0.4432 -0.5408
  659MOL0     O88860   0.353   8.698   9.447 -0.4485 -1.1405  0.4893
  659MOL0     C88861   0.485   8.698   9.418  0.0834  0.3913  0.4270
  659MOL0     C88862   0.543   8.668   9.295 -0.0099  0.6034 -1.2302
  659MOL0     C88863   0.679   8.646   9.290  0.0164 -0.5214  0.4967
  659MOL0     C88864   0.766   8.688   9.387 -0.6038 -1.0348 -1.3858
  659MOL0     O88865   0.906   8.679   9.391  0.5993  0.5380 -0.4765
  659MOL0     C88866   0.958   8.571   9.307 -0.1869  0.5077 -1.2776
  659MOL0     C88867   1.114   8.571   9.319 -0.1519  0.5253 -0.4714
  659MOL0     C88868   1.181   8.470   9.220 -0.5512 -0.4681 -0.0635
  659MOL0     C88869   1.314   8.428   9.278  0.0222  0.3474 -0.0356
  659MOL0     C88870   1.418   8.533   9.286  0.1996  0.3573 -0.4721
  659MOL0     C88871   1.520   8.489   9.400 -0.3555  0.0304 -0.9473
  659MOL0     C88872   1.634   8.584   9.431  0.1885 -0.5477 -0.1374
  659MOL0     C88873   1.721   8.610   9.315 -0.3330 -0.6252  0.0772
  659MOL0    Cl88874   1.798   8.469   9.228 -0.1861 -0.1164  0.2241
  659MOL0     C88875   0.709   8.741   9.500 -0.0755 -0.6971 -0.9851
  659MOL0     C88876   0.568   8.738   9.524 -0.0671 -0.0310 -0.6274
  659MOL0     O88877   0.260   8.650   9.243 -0.7744 -0.1466  0.6617
  659MOL0     C88878   0.107   8.678   9.560 -0.4535 -1.0601  0.5528
  659MOL0     C88879  -0.023   8.689   9.615 -0.6760 -0.9530  0.3637
  659MOL0     N88880  -0.431   8.443   9.194  0.3384  0.2231 -0.0873
  659MOL0     N88881  -0.348   8.430   9.096 -0.2649 -0.1899  0.0925
  659MOL0     C88882   0.809   8.739   8.811  0.2317  0.7978  0.4328
  659MOL0     C88883   0.939   8.765   8.831  0.6247 -0.4500  0.0303
  659MOL0     C88884   1.353   8.828   8.972  0.2025 -0.3495  0.6497
  659MOL0     C88885   1.427   8.787   8.865  0.1045 -1.4050  0.2692
  659MOL0     C88886   1.567   8.785   8.878 -0.2255 -0.3876  0.1835
  659MOL0     C88887   1.629   8.818   8.995  0.4348  0.5520 -0.0511
  659MOL0     O88888   1.764   8.799   8.998  0.0013  0.3992 -0.2376
  659MOL0     C88889   1.844   8.910   8.971 -0.1401 -0.0974 -0.7250
  659MOL0     C88890   1.952   8.904   9.070  0.3064  0.3471 -0.1993
  659MOL0     C88891   2.064   8.814   9.014 -0.0628  1.0480  0.2480
  659MOL0     C88892   2.024   8.670   9.000  0.0356 -0.0086 -0.3500
  659MOL0     C88893   2.133   8.573   8.989 -1.2057  0.9097  0.8906
  659MOL0     C88894   2.228   8.508   8.971  0.3656 -0.2233  0.8856
  659MOL0     C88895   1.554   8.871   9.100  0.2913  0.0395  0.5338
  659MOL0     C88896   1.417   8.874   9.089 -0.3760  0.5515 -1.0156
  659MOL0     C88897   1.347   8.922   9.210 -0.4737  0.4330  0.2804
  659MOL0     H88898   1.077   8.465   8.909 -1.1783 -1.7130 -2.6872
  659MOL0     H88899   0.857   8.398   8.836  0.3162 -1.4384 -0.2092
  659MOL0     H88900   0.602   8.382   8.804 -1.8370  0.5071 -0.0314
  659MOL0     H88901   0.633   8.449   8.971  0.7719 -3.3392 -0.8286
  659MOL0     H88902   0.421   8.566   8.967  0.6053 -2.8668  0.9787
  659MOL0     H88903   0.374   8.413   8.949 -0.9056  1.3202  1.8360
  659MOL0     H88904   0.360   8.426   8.711  0.0586 -0.6233  0.9229
  659MOL0     H88905   0.425   8.592   8.705  2.3984 -2.0160  0.7996
  659MOL0     H88906   0.234   8.695   8.800  0.5280 -0.2546 -0.6983
  659MOL0     H88907   0.176   8.594   8.679 -1.4954  3.4456  0.6538
  659MOL0     H88908   0.134   8.417   8.875 -2.6358  0.9398 -0.0791
  659MOL0     H88909   0.167   8.555   8.987 -2.1332  0.6391  1.1028
  659MOL0     H88910  -0.021   8.671   8.847 -1.8220 -1.3770 -1.4787
  659MOL0     H88911  -0.032   8.520   8.764  3.4499 -2.1448 -0.3597
  659MOL0     H88912  -0.082   8.588   9.073  1.5735 -0.2098 -0.6496
  659MOL0     H88913  -0.099   8.425   9.000 -1.0827 -0.2474  0.3035
  659MOL0     H88914  -0.241   8.684   8.900 -0.9888  0.3616  0.0231
  659MOL0     H88915  -0.252   8.516   8.835  1.6329 -1.4630  0.6088
  659MOL0     H88916  -0.474   8.725   9.049 -1.5969  0.8349  3.9072
  659MOL0     H88917  -0.679   8.674   9.223  0.9040  0.4525 -2.2722
  659MOL0     H88918  -0.642   8.542   9.346  2.2795 -1.2464  1.3177
  659MOL0     H88919  -0.509   8.813   9.313 -1.7121  0.4989  0.0727
  659MOL0     H88920  -0.623   8.762   9.431  1.0878  0.4624  1.2409
  659MOL0     H88921  -0.358   8.611   9.430 -0.3467 -0.2425  0.5401
  659MOL0     H88922  -0.479   8.640   9.557 -1.7326  0.9881 -0.6173
  659MOL0     H88923  -0.419   8.845   9.603 -0.4762 -1.7310  0.1073
  659MOL0     H88924  -0.315   8.876   9.458  0.5986 -1.2785 -0.1213
  659MOL0     H88925  -0.201   8.705   9.324 -0.8587 -1.1360  0.4526
  659MOL0     H88926   0.014   8.657   9.235 -0.7082 -2.6660  0.9050
  659MOL0     H88927   0.490   8.645   9.204  0.2772  2.2389 -1.8548
  659MOL0     H88928   0.709   8.587   9.204 -1.3820 -1.3262  0.5271
  659MOL0     H88929   0.917   8.474   9.338  1.0423  0.4100  0.2194
  659MOL0     H88930   0.929   8.578   9.202 -0.4042 -0.9588 -1.3365
  659MOL0     H88931   1.158   8.666   9.288  2.2277 -0.1795  0.5700
  659MOL0     H88932   1.144   8.556   9.423 -0.0601  2.9639 -0.0895
  659MOL0     H88933   1.126   8.375   9.221  1.3101 -1.6879  3.1561
  659MOL0     H88934   1.192   8.497   9.115  0.6208 -0.4547  0.0563
  659MOL0     H88935   1.344   8.339   9.222 -1.0055 -1.0506  1.5076
  659MOL0     H88936   1.287   8.389   9.377 -1.4301 -1.5703 -1.1016
  659MOL0     H88937   1.380   8.629   9.322  3.4028  1.0947  1.2876
  659MOL0     H88938   1.453   8.553   9.184 -1.9899 -0.2896 -1.4060
  659MOL0     H88939   1.469   8.467   9.495  1.4133  0.2947  0.1106
  659MOL0     H88940   1.566   8.396   9.368 -0.9126 -0.1547 -1.2220
  659MOL0     H88941   1.693   8.550   9.517  1.0818  0.6057 -0.2793
  659MOL0     H88942   1.592   8.681   9.460  2.4347  0.4310  0.0050
  659MOL0     H88943   1.668   8.667   9.238 -2.0406 -0.3893  1.3895
  659MOL0     H88944   1.797   8.679   9.353 -0.3072 -0.2388 -0.6619
  659MOL0     H88945   0.773   8.771   9.583 -1.9679 -2.8275  1.4294
  659MOL0     H88946   0.506   8.755   9.612 -0.7501  1.0237 -1.2960
  659MOL0     H88947   0.195   8.649   9.617  1.1451 -2.3870 -2.3600
  659MOL0     H88948  -0.034   8.683   9.722 -0.6305 -0.9564  0.3677
  659MOL0     H88949   0.753   8.816   8.759 -0.3082  0.9745  1.2574
  659MOL0     H88950   0.969   8.869   8.822  2.9692 -1.2208 -1.9611
  659MOL0     H88951   1.387   8.757   8.769 -1.2521 -2.2392  1.0566
  659MOL0     H88952   1.632   8.762   8.794  0.1600  2.5735 -0.4288
  659MOL0     H88953   1.781   8.997   8.988  0.3906 -0.0708  1.4134
  659MOL0     H88954   1.888   8.919   8.871  2.3517 -1.9520  0.0907
  659MOL0     H88955   1.916   8.856   9.162 -1.0698 -0.9154 -1.3368
  659MOL0     H88956   1.992   9.005   9.084  3.8280 -0.7692 -1.3115
  659MOL0     H88957   2.151   8.823   9.079  1.1976  0.9885 -1.3640
  659MOL0     H88958   2.104   8.833   8.914  1.2648  1.9891  0.9351
  659MOL0     H88959   1.959   8.639   9.082 -0.2409 -1.6745 -1.1471
  659MOL0     H88960   1.955   8.665   8.915 -1.4165  3.8984  0.3459
  659MOL0     H88961   2.313   8.445   8.956  0.7531 -0.2138  2.7891
  659MOL0     H88962   1.587   8.916   9.193 -1.3901  1.9978  0.2606
  659MOL0     H88963   1.371   9.024   9.241 -1.4136  0.5217  0.7442
  659MOL0     H88964   1.238   8.919   9.204 -0.9423  2.6842  4.1950
  659MOL0     H88965   1.366   8.855   9.294  3.4429 -1.4397 -1.8024
  660MOL0     O88966   2.926   2.233  10.167 -0.8371  0.2513 -0.3462
  660MOL0     C88967   2.986   2.130  10.136 -0.1879 -0.4333  0.0474
  660MOL0     O88968   3.123   2.120  10.148 -0.0513 -0.6929  0.9560
  660MOL0     C88969   3.204   2.220  10.183 -0.1324  0.1793 -0.1173
  660MOL0     C88970   3.236   2.311  10.088 -0.0843  0.2345 -0.4561
  660MOL0     C88971   3.316   2.419  10.115 -0.2808 -0.4168 -1.0605
  660MOL0     C88972   3.375   2.435  10.245  0.4907 -0.0715 -0.2520
  660MOL0     O88973   3.439   2.553  10.275 -0.1640 -0.5028 -0.3480
  660MOL0     C88974   3.523   2.567  10.397  0.7791 -0.2327 -0.3445
  660MOL0     C88975   3.594   2.705  10.388 -1.0108 -0.8818  0.3494
  660MOL0     C88976   3.707   2.724  10.486 -0.2868  0.3227 -0.2444
  660MOL0     C88977   3.842   2.662  10.439 -0.3206  0.4140  0.1208
  660MOL0     C88978   3.853   2.509  10.414 -0.4800  0.6074  0.3463
  660MOL0     C88979   4.000   2.460  10.397  0.6763 -0.6083 -0.7748
  660MOL0     C88980   4.001   2.306  10.357 -0.8661 -0.5636  0.1474
  660MOL0     C88981   4.142   2.238  10.358 -0.1944 -0.2937  0.3461
  660MOL0     N88982   4.237   2.314  10.287  0.2777  0.3430  0.9335
  660MOL0     C88983   4.221   2.354  10.152 -1.0014  0.3577  0.0922
  660MOL0     C88984   4.317   2.457  10.143 -0.5108  0.4075 -0.7856
  660MOL0     C88985   4.347   2.542  10.026 -0.9667 -0.8021 -0.1591
  660MOL0     C88986   4.323   2.702  10.039 -0.2034 -0.6919 -0.4422
  660MOL0     C88987   4.343   2.766   9.901  0.4020  0.4361 -0.1041
  660MOL0     C88988   4.297   2.908   9.894  0.7839  0.1418 -0.3198
  660MOL0     O88989   4.335   2.985   9.996 -0.2861 -1.4612 -0.6934
  660MOL0     C88990   4.466   3.036   9.997  0.6977  0.1973 -0.4976
  660MOL0     C88991   4.502   3.106  10.115  0.0102  0.5514  0.2986
  660MOL0     C88992   4.634   3.159  10.128  0.0195  0.0257  0.1617
  660MOL0     C88993   4.725   3.148  10.016  0.2760  0.1636  0.1239
  660MOL0     C88994   4.850   3.220  10.011 -0.1845 -0.3789  1.2694
  660MOL0     O88995   4.897   3.240   9.880  0.5527  0.3559  0.6098
  660MOL0     C88996   5.004   3.316   9.840 -0.8270 -0.8413  0.2282
  660MOL0     C88997   5.019   3.329   9.703 -0.3195  0.3604 -0.1907
  660MOL0     C88998   5.118   3.417   9.650  0.4303 -0.1808 -0.2511
  660MOL0     C88999   5.207   3.481   9.738 -0.4954  0.0877 -0.0754
  660MOL0     O89000   5.297   3.565   9.672 -0.7583 -0.1989  0.0428
  660MOL0     C89001   5.413   3.624   9.729 -0.3839  0.0106  0.1081
  660MOL0     C89002   5.486   3.733   9.639 -0.1319  0.3076 -0.1563
  660MOL0     C89003   5.387   3.825   9.581  0.4204  0.5643  0.1263
  660MOL0     C89004   5.462   3.931   9.495 -0.4548  0.3489 -0.3333
  660MOL0     C89005   5.387   3.977   9.366 -0.2380  0.8956 -1.3522
  660MOL0     C89006   5.437   4.106   9.311  0.4589  0.6071 -0.0074
  660MOL0     C89007   5.368   4.127   9.173 -0.6261  0.3021 -0.4086
  660MOL0     C89008   5.415   4.258   9.101  0.0695  0.6452  0.5016
  660MOL0    Cl89009   5.590   4.250   9.077 -0.5409 -0.3047  0.1662
  660MOL0     C89010   5.198   3.469   9.878  0.0641  1.7899 -0.1863
  660MOL0     C89011   5.099   3.383   9.922  0.2985  0.1387  0.1009
  660MOL0     O89012   4.897   3.254  10.118  0.0119 -0.7420 -0.2804
  660MOL0     C89013   4.676   3.089   9.898  0.5877  0.3072 -0.2938
  660MOL0     C89014   4.548   3.032   9.893  0.6298  0.6719  0.4653
  660MOL0     N89015   4.381   2.475  10.263 -0.0602  0.1811 -0.2064
  660MOL0     N89016   4.339   2.388  10.343  0.2551  0.5726 -0.0446
  660MOL0     C89017   3.352   2.335  10.345  0.7673  0.0045  0.3805
  660MOL0     C89018   3.262   2.225  10.311 -0.3798 -1.1069 -0.5331
  660MOL0     C89019   2.900   2.015  10.075 -0.7218 -0.5881  0.7574
  660MOL0     C89020   2.767   2.051  10.034 -1.2198  0.8859  0.1215
  660MOL0     C89021   2.692   1.948   9.972  0.9325 -0.0628 -0.1876
  660MOL0     C89022   2.735   1.819   9.939 -0.3354 -0.3246 -0.4691
  660MOL0     O89023   2.664   1.751   9.850  0.3305  0.9354 -0.0496
  660MOL0     C89024   2.729   1.626   9.803  0.2301 -0.7005 -0.2088
  660MOL0     C89025   2.616   1.538   9.749  0.0948 -0.7565  0.1918
  660MOL0     C89026   2.557   1.582   9.605  0.5917  0.0353 -0.0724
  660MOL0     C89027   2.406   1.538   9.583 -0.1970  0.7726  0.5948
  660MOL0     C89028   2.392   1.483   9.445  1.0164  0.5283 -0.1379
  660MOL0     C89029   2.367   1.420   9.339 -0.8849 -0.5485  0.6152
  660MOL0     C89030   2.866   1.797   9.983 -0.3417  0.1823  0.0684
  660MOL0     C89031   2.946   1.888  10.047 -0.8609  0.5981  0.3385
  660MOL0     C89032   3.089   1.845  10.075  0.2826 -1.3634  0.3872
  660MOL0     H89033   3.199   2.288   9.989  1.2788  0.2170 -0.9929
  660MOL0     H89034   3.350   2.491  10.041  0.7501  0.4907  0.2398
  660MOL0     H89035   3.461   2.548  10.485  0.8420 -1.1682 -0.4974
  660MOL0     H89036   3.604   2.494  10.401  2.1652  1.2273 -0.6072
  660MOL0     H89037   3.532   2.790  10.416  1.3780  0.9073  0.5156
  660MOL0     H89038   3.628   2.724  10.286 -2.0641  1.3084  0.3565
  660MOL0     H89039   3.683   2.678  10.582  0.9666 -1.6257 -0.7992
  660MOL0     H89040   3.728   2.829  10.507 -1.0813  0.5345 -0.4977
  660MOL0     H89041   3.879   2.701  10.344  1.6161  0.0919  0.7014
  660MOL0     H89042   3.924   2.679  10.510  0.1242 -1.5479  0.1261
  660MOL0     H89043   3.797   2.459  10.493 -0.6174  0.8310  0.3925
  660MOL0     H89044   3.798   2.474  10.326  0.3320  0.1586  0.0090
  660MOL0     H89045   4.037   2.532  10.324 -0.6781  0.7776 -0.1549
  660MOL0     H89046   4.053   2.471  10.491 -1.1791  0.8848  0.1717
  660MOL0     H89047   3.955   2.305  10.258 -3.6882  0.8360  1.3172
  660MOL0     H89048   3.947   2.257  10.439 -2.4454  1.5937  0.4856
  660MOL0     H89049   4.180   2.232  10.460  4.2396 -0.3908 -1.1033
  660MOL0     H89050   4.136   2.139  10.313  0.3878  0.3278 -1.1571
  660MOL0     H89051   4.147   2.319  10.081  0.4933 -0.1727 -1.2743
  660MOL0     H89052   4.454   2.529  10.008  0.2288  2.7031  2.9876
  660MOL0     H89053   4.304   2.497   9.936 -1.1969  0.2062 -0.5707
  660MOL0     H89054   4.223   2.733  10.069  0.7528  0.7057  1.5222
  660MOL0     H89055   4.389   2.744  10.115  2.5797 -0.6518 -2.7089
  660MOL0     H89056   4.281   2.704   9.836 -2.1688  1.8293  0.8502
  660MOL0     H89057   4.450   2.763   9.878  0.6320  0.1241  0.9560
  660MOL0     H89058   4.188   2.911   9.884  0.6802  2.0981  0.9042
  660MOL0     H89059   4.337   2.948   9.800  4.3338 -0.6990  0.6731
  660MOL0     H89060   4.427   3.111  10.194 -4.6345 -0.9380 -3.4902
  660MOL0     H89061   4.665   3.229  10.205  2.5584  2.3214 -2.7205
  660MOL0     H89062   4.950   3.282   9.635 -0.3422 -0.2842  0.2725
  660MOL0     H89063   5.120   3.452   9.548 -2.3070 -1.5765 -0.8956
  660MOL0     H89064   5.370   3.671   9.817 -2.3973 -1.4012 -0.0525
  660MOL0     H89065   5.481   3.541   9.751 -0.0055 -0.9227 -3.7804
  660MOL0     H89066   5.557   3.779   9.709  1.2380 -2.5588  0.4773
  660MOL0     H89067   5.543   3.680   9.562  0.4995 -1.1772  1.2820
  660MOL0     H89068   5.316   3.784   9.508  2.9877 -2.0702 -1.1192
  660MOL0     H89069   5.338   3.875   9.664  0.7860  2.3097 -0.6667
  660MOL0     H89070   5.560   3.892   9.468 -0.0320  1.1062  0.0678
  660MOL0     H89071   5.487   4.020   9.553 -0.0676  0.7542 -1.1191
  660MOL0     H89072   5.278   3.973   9.376 -0.1280  1.8727  0.7908
  660MOL0     H89073   5.420   3.897   9.299 -0.4661 -0.3574 -0.0138
  660MOL0     H89074   5.401   4.189   9.373 -1.1698  0.0176 -0.1139
  660MOL0     H89075   5.546   4.108   9.297  0.6144  0.5800  1.1104
  660MOL0     H89076   5.259   4.126   9.182 -0.7490  0.6261 -1.6224
  660MOL0     H89077   5.390   4.040   9.110 -0.0358 -0.1250  0.3775
  660MOL0     H89078   5.354   4.269   9.011 -3.4441  1.4119  2.7594
  660MOL0     H89079   5.400   4.348   9.161 -1.2030  1.6872 -1.2704
  660MOL0     H89080   5.268   3.512   9.949 -1.3732  1.5297  1.4930
  660MOL0     H89081   5.082   3.378  10.029 -4.3709  0.2251 -0.4559
  660MOL0     H89082   4.731   3.090   9.804 -1.1092  0.3926 -1.3496
  660MOL0     H89083   4.531   2.993   9.793  1.0332 -0.8802  0.9725
  660MOL0     H89084   3.405   2.327  10.439  0.2379 -4.6065  0.4981
  660MOL0     H89085   3.238   2.151  10.387  0.9706 -1.5562 -0.5137
  660MOL0     H89086   2.726   2.151  10.037 -0.2585  1.4492 -2.3920
  660MOL0     H89087   2.594   1.982   9.941  0.6609  0.3132  1.0526
  660MOL0     H89088   2.773   1.576   9.890 -1.5176  1.2095  1.8932
  660MOL0     H89089   2.801   1.651   9.724  2.1172  2.1056  2.1830
  660MOL0     H89090   2.536   1.544   9.822  0.8201 -2.9225  1.2297
  660MOL0     H89091   2.640   1.432   9.756  1.3685 -0.5072 -0.0402
  660MOL0     H89092   2.607   1.539   9.518 -1.2328 -0.7602 -0.7969
  660MOL0     H89093   2.560   1.691   9.605  3.0370  0.0554  2.0943
  660MOL0     H89094   2.384   1.459   9.655  1.3500 -1.3010 -1.0553
  660MOL0     H89095   2.334   1.620   9.586 -0.6460  0.3424  1.9945
  660MOL0     H89096   2.327   1.372   9.252  0.8399  2.2661 -1.9302
  660MOL0     H89097   2.913   1.701   9.964  2.6970  1.2876  1.3419
  660MOL0     H89098   3.166   1.898  10.018 -0.9187  1.0527  0.9022
  660MOL0     H89099   3.114   1.855  10.181  1.0436  0.0543  0.1027
  660MOL0     H89100   3.101   1.736  10.071 -2.7329 -1.8781  2.3582
  661MOL0     O89101   3.935  11.341   8.475 -0.0881  0.3670  0.8148
  661MOL0     C89102   3.999  11.430   8.532  0.2626  0.4379  0.3161
  661MOL0     O89103   4.101  11.493   8.478 -0.2327  0.4172  0.3987
  661MOL0     C89104   4.159  11.458   8.354  0.6067 -0.6512 -0.1607
  661MOL0     C89105   4.287  11.521   8.334 -0.9075 -0.1130 -0.4369
  661MOL0     C89106   4.374  11.483   8.229 -0.7008  0.2790  0.1453
  661MOL0     C89107   4.315  11.407   8.125 -0.3364  0.6033 -0.1720
  661MOL0     O89108   4.409  11.349   8.039  0.6398  0.0865 -0.0880
  661MOL0     C89109   4.421  11.206   8.024  0.4602 -0.4871  0.0539
  661MOL0     C89110   4.484  11.134   8.143  0.6406 -0.7597  0.4947
  661MOL0     C89111   4.625  11.194   8.177  0.1263  0.4488  0.7606
  661MOL0     C89112   4.736  11.155   8.076  0.1477 -1.0418  0.3846
  661MOL0     C89113   4.859  11.216   8.131 -1.0038 -0.0624 -0.0145
  661MOL0     C89114   4.963  11.238   8.022  0.5465 -0.1270 -0.7270
  661MOL0     C89115   5.086  11.316   8.088  0.5357 -0.1749  0.9874
  661MOL0     C89116   5.193  11.392   8.005  0.1248 -0.4939  0.7128
  661MOL0     N89117   5.278  11.288   7.937 -0.0916 -0.4930  0.3280
  661MOL0     C89118   5.403  11.251   7.967  0.1848  0.1343  0.7507
  661MOL0     C89119   5.439  11.164   7.874  0.4043 -0.1831 -0.2790
  661MOL0     C89120   5.583  11.119   7.859  0.1503  0.7536  0.2047
  661MOL0     C89121   5.606  10.973   7.919  0.2978 -0.6687  0.0523
  661MOL0     C89122   5.754  10.928   7.916  0.1961  0.0266 -0.1536
  661MOL0     C89123   5.779  10.789   7.961 -0.2609  0.4348  0.0625
  661MOL0     O89124   5.926  10.777   7.980 -0.0861 -0.0594 -0.5814
  661MOL0     C89125   5.997  10.709   7.886  0.2235  0.0980  0.6091
  661MOL0     C89126   6.123  10.752   7.845  0.1548 -0.4169 -0.2415
  661MOL0     C89127   6.203  10.669   7.771 -0.6398  0.2265  0.5394
  661MOL0     C89128   6.162  10.544   7.725 -0.7429 -0.4096 -0.4708
  661MOL0     C89129   6.219  10.468   7.613  0.6819  0.0845 -0.5411
  661MOL0     O89130   6.339  10.499   7.570 -0.0232 -0.4363 -0.5207
  661MOL0     C89131   6.392  10.453   7.453 -0.6430  0.4798  0.9557
  661MOL0     C89132   6.321  10.451   7.339  0.4927  0.2286 -0.8840
  661MOL0     C89133   6.379  10.396   7.222 -0.4823 -0.7398  0.0126
  661MOL0     C89134   6.510  10.352   7.217  0.8563  0.9455  0.5770
  661MOL0     O89135   6.547  10.304   7.089  0.0343  0.2774  0.0807
  661MOL0     C89136   6.681  10.261   7.074 -0.2667  0.8101 -0.1993
  661MOL0     C89137   6.703  10.232   6.936 -0.3144 -0.6774 -0.1182
  661MOL0     C89138   6.836  10.162   6.902 -0.7876  0.0284  0.4001
  661MOL0     C89139   6.886  10.185   6.753 -0.5658  0.6352 -0.2913
  661MOL0     C89140   7.005  10.100   6.724  0.3885 -0.4875 -0.8823
  661MOL0     C89141   7.087  10.159   6.606  0.2132 -0.1637  0.1861
  661MOL0     C89142   7.017  10.149   6.460 -1.1731 -0.1579 -0.4488
  661MOL0     C89143   7.054  10.282   6.391  0.2140 -1.3612  0.0767
  661MOL0    Cl89144   7.236  10.317   6.389 -0.2153  0.0011 -0.6603
  661MOL0     C89145   6.592  10.368   7.327 -0.2002  0.0096 -0.3400
  661MOL0     C89146   6.534  10.425   7.443 -0.0517 -0.1691  0.6454
  661MOL0     O89147   6.142  10.382   7.562 -0.1008 -0.5999 -0.6512
  661MOL0     C89148   6.038  10.502   7.774 -0.2580 -0.4091  0.7796
  661MOL0     C89149   5.960  10.575   7.871  0.0363 -0.6356 -0.0981
  661MOL0     N89150   5.340  11.145   7.781  0.1118  0.2832 -0.0586
  661MOL0     N89151   5.250  11.230   7.816 -0.0685  0.0988 -0.2939
  661MOL0     C89152   4.181  11.367   8.139 -0.0157 -0.0789  0.7029
  661MOL0     C89153   4.104  11.394   8.249  0.6274  0.5718  0.0592
  661MOL0     C89154   3.964  11.475   8.679  0.7304  0.4379  0.4693
  661MOL0     C89155   4.062  11.539   8.753 -0.6443 -0.1064  0.1188
  661MOL0     C89156   4.035  11.589   8.877 -1.0189 -0.3659  0.0739
  661MOL0     C89157   3.904  11.585   8.931 -0.9995 -0.2300 -0.8010
  661MOL0     O89158   3.866  11.628   9.056 -0.1126  0.2362 -1.0928
  661MOL0     C89159   3.840  11.759   9.081 -0.1235 -0.5664  0.1576
  661MOL0     C89160   3.957  11.822   9.165  0.7780  0.2129 -0.4783
  661MOL0     C89161   3.982  11.791   9.313  0.0815 -0.0662 -0.2986
  661MOL0     C89162   3.884  11.826   9.415  0.3648 -0.0935 -0.8313
  661MOL0     C89163   3.751  11.754   9.399 -0.0432  0.1259 -0.0633
  661MOL0     C89164   3.647  11.692   9.381  0.1716  0.2761  0.1786
  661MOL0     C89165   3.813  11.522   8.854 -0.7223  0.3746  0.9924
  661MOL0     C89166   3.837  11.468   8.731  0.9412  0.1298  0.4846
  661MOL0     C89167   3.712  11.434   8.652 -0.7514 -0.8173  0.4157
  661MOL0     H89168   4.331  11.579   8.415  1.2244  0.9692 -2.2670
  661MOL0     H89169   4.480  11.509   8.228 -0.2090 -1.4417 -2.1171
  661MOL0     H89170   4.325  11.154   8.030  0.9803 -1.4849 -0.0511
  661MOL0     H89171   4.464  11.187   7.925  0.9965  1.6517 -0.1785
  661MOL0     H89172   4.493  11.026   8.126  2.8001 -0.5332  0.0172
  661MOL0     H89173   4.416  11.158   8.225  2.9160  3.5225  1.4044
  661MOL0     H89174   4.654  11.154   8.274 -0.9664 -2.5390 -0.0340
  661MOL0     H89175   4.620  11.303   8.177  3.2318  0.7139 -1.2358
  661MOL0     H89176   4.728  11.046   8.073 -0.2008 -1.0085 -3.0371
  661MOL0     H89177   4.712  11.193   7.977 -0.9674  1.5104  1.5407
  661MOL0     H89178   4.841  11.310   8.183  3.1129  0.4247  0.8605
  661MOL0     H89179   4.914  11.154   8.202 -0.8915 -1.1993 -1.0584
  661MOL0     H89180   4.994  11.144   7.975  0.1990  1.0152 -3.4133
  661MOL0     H89181   4.922  11.314   7.954  0.5830  0.7251  0.1826
  661MOL0     H89182   5.151  11.247   8.142  1.8868  0.9260  0.8362
  661MOL0     H89183   5.037  11.396   8.144  0.4728 -0.4204  1.2852
  661MOL0     H89184   5.149  11.468   7.939  0.6861  0.6147  1.5825
  661MOL0     H89185   5.260  11.455   8.063  3.1966 -0.1231 -2.8882
  661MOL0     H89186   5.472  11.286   8.043  0.9809  0.1760  0.0255
  661MOL0     H89187   5.603  11.107   7.752  0.1980  0.3995  0.2529
  661MOL0     H89188   5.663  11.173   7.910  1.3776 -1.6431  0.9787
  661MOL0     H89189   5.571  10.969   8.022  2.8919 -1.5492  0.9613
  661MOL0     H89190   5.552  10.904   7.853  1.3338 -1.6780  0.2392
  661MOL0     H89191   5.812  10.999   7.975  1.4348 -0.3858 -0.8377
  661MOL0     H89192   5.773  10.931   7.808  2.4539  0.3271  0.2022
  661MOL0     H89193   5.740  10.716   7.889  0.6284 -0.1304  0.1347
  661MOL0     H89194   5.724  10.767   8.054  0.7676  1.4319  0.9256
  661MOL0     H89195   6.151  10.854   7.871  0.3557  0.1318 -2.3921
  661MOL0     H89196   6.298  10.704   7.732 -0.1293 -0.4383  1.1529
  661MOL0     H89197   6.219  10.489   7.337  0.6609  0.7093 -0.6496
  661MOL0     H89198   6.310  10.395   7.138  1.7459  0.5910 -1.9412
  661MOL0     H89199   6.753  10.337   7.106 -1.6941  1.4717  1.6198
  661MOL0     H89200   6.695  10.164   7.122 -0.5190 -0.0033 -1.6943
  661MOL0     H89201   6.620  10.169   6.903 -1.6171  1.7024 -1.7505
  661MOL0     H89202   6.699  10.325   6.878  1.4355  0.0621  0.8868
  661MOL0     H89203   6.903  10.199   6.981 -0.5572  0.2406  0.1086
  661MOL0     H89204   6.823  10.054   6.910 -0.0286  0.0043  1.5542
  661MOL0     H89205   6.909  10.291   6.738  1.6182  0.1132 -0.8783
  661MOL0     H89206   6.814  10.157   6.675  0.0620 -4.8176  0.6793
  661MOL0     H89207   6.983   9.995   6.699  0.0986 -1.8657  4.1467
  661MOL0     H89208   7.064  10.102   6.816  2.6968 -3.1959 -2.1436
  661MOL0     H89209   7.116  10.261   6.632  1.3324  0.0384 -1.6711
  661MOL0     H89210   7.173  10.092   6.591  1.4004  1.4799 -0.6804
  661MOL0     H89211   6.910  10.139   6.479 -0.7968 -0.7463  1.6870
  661MOL0     H89212   7.059  10.069   6.399  2.4923  0.5177  0.9371
  661MOL0     H89213   7.006  10.304   6.295 -1.1116 -0.2490  0.9381
  661MOL0     H89214   7.011  10.367   6.445 -1.8781  0.0085 -3.3681
  661MOL0     H89215   6.694  10.335   7.340  0.5833  2.9987  2.3759
  661MOL0     H89216   6.591  10.445   7.533  1.8188 -0.9349 -0.3219
  661MOL0     H89217   5.996  10.406   7.746  1.1624 -0.8801  0.1915
  661MOL0     H89218   5.876  10.544   7.932 -1.5123 -0.3956 -2.0015
  661MOL0     H89219   4.151  11.308   8.052 -0.8422  0.0022  0.9282
  661MOL0     H89220   4.011  11.338   8.241  0.6078  0.7326 -1.0124
  661MOL0     H89221   4.163  11.549   8.715 -1.4927 -1.7755 -2.8570
  661MOL0     H89222   4.105  11.638   8.944  2.2252 -1.2755 -2.3811
  661MOL0     H89223   3.744  11.772   9.132  0.1471  0.0858  0.5205
  661MOL0     H89224   3.829  11.811   8.985  2.2893 -2.8591 -1.5109
  661MOL0     H89225   3.954  11.931   9.155 -1.0846  0.0576 -2.1652
  661MOL0     H89226   4.039  11.785   9.102 -0.0152 -1.7679 -0.4161
  661MOL0     H89227   4.069  11.844   9.355 -1.0434  2.8923 -1.4047
  661MOL0     H89228   4.009  11.686   9.324 -0.7440 -0.0931  1.7784
  661MOL0     H89229   3.932  11.822   9.513  1.1052  2.8433 -0.9510
  661MOL0     H89230   3.866  11.934   9.403  4.5645  1.1009  1.4277
  661MOL0     H89231   3.558  11.633   9.373  1.0131 -1.1775  1.2764
  661MOL0     H89232   3.717  11.513   8.903 -1.1947  1.2311  0.2515
  661MOL0     H89233   3.710  11.328   8.624 -3.5358 -1.2486  1.8902
  661MOL0     H89234   3.620  11.464   8.703  0.0838  0.6165  1.1610
  661MOL0     H89235   3.717  11.498   8.563 -0.1045 -0.9359  0.3599
  662MOL0     O89236   7.907   6.908  11.123 -0.1779 -0.6903 -0.2564
  662MOL0     C89237   7.859   6.948  11.013 -0.2884  0.4185  0.1292
  662MOL0     O89238   7.806   7.066  10.983 -0.3515  0.5126 -0.3534
  662MOL0     C89239   7.801   7.171  11.081 -1.3670  0.5393  0.9605
  662MOL0     C89240   7.786   7.304  11.016  0.8815  0.4997 -0.1515
  662MOL0     C89241   7.788   7.412  11.105  0.0826  0.5077  0.0702
  662MOL0     C89242   7.817   7.402  11.245 -0.4951 -0.5304 -0.0451
  662MOL0     O89243   7.817   7.512  11.324 -0.4444  0.1142 -0.4566
  662MOL0     C89244   7.885   7.512  11.455 -0.2286 -0.3222  0.5712
  662MOL0     C89245   8.025   7.449  11.458  0.2286  0.0401 -1.0156
  662MOL0     C89246   8.141   7.521  11.385 -0.2814  0.7609  0.8383
  662MOL0     C89247   8.261   7.434  11.342 -0.2116  0.7921 -0.9806
  662MOL0     C89248   8.228   7.324  11.231 -0.2976 -0.3663  1.0140
  662MOL0     C89249   8.310   7.196  11.243  0.2138  0.6708  0.3074
  662MOL0     C89250   8.286   7.111  11.121 -0.1332  0.6716  0.3969
  662MOL0     C89251   8.353   7.166  10.998  0.0470 -0.6353  0.6152
  662MOL0     N89252   8.503   7.165  11.000  1.0473 -0.1074  0.1396
  662MOL0     C89253   8.571   7.047  10.968  1.1549 -0.8871  0.1879
  662MOL0     C89254   8.694   7.079  11.018 -0.0818  0.1726 -0.0865
  662MOL0     C89255   8.800   6.975  11.038 -0.6519 -0.4149  0.0203
  662MOL0     C89256   8.944   7.026  11.014  0.0279  0.4484 -0.6826
  662MOL0     C89257   8.972   7.107  10.880  0.2761  0.6776 -0.8138
  662MOL0     C89258   9.118   7.155  10.880 -0.3736  0.0685 -0.2909
  662MOL0     O89259   9.202   7.035  10.908  0.1245  0.5961 -0.1676
  662MOL0     C89260   9.321   7.029  10.842  0.0824  0.1056  0.5409
  662MOL0     C89261   9.363   6.906  10.792 -0.2659  0.1876  0.4472
  662MOL0     C89262   9.490   6.888  10.740  1.1560  0.1550 -0.4580
  662MOL0     C89263   9.579   6.996  10.740  0.9805  0.0221  0.2468
  662MOL0     C89264   9.731   6.974  10.715  0.3036 -0.0160 -0.8308
  662MOL0     O89265   9.810   7.083  10.707  0.3926  0.4084 -0.2503
  662MOL0     C89266   9.950   7.089  10.686  0.4047 -1.1630  0.4178
  662MOL0     C89267  10.044   6.990  10.659  0.7345  0.0001 -0.2349
  662MOL0     C89268  10.182   7.024  10.647  0.9269 -0.2566  0.7572
  662MOL0     C89269  10.225   7.162  10.664 -0.5103  0.9347  0.5053
  662MOL0     O89270  10.367   7.170  10.677 -0.2387  0.1690  0.4734
  662MOL0     C89271  10.421   7.281  10.604 -1.1086 -0.9092  0.8951
  662MOL0     C89272  10.563   7.308  10.650 -0.0238  0.7356  0.1791
  662MOL0     C89273  10.661   7.200  10.608 -0.6705  0.1646 -0.3866
  662MOL0     C89274  10.797   7.204  10.667 -0.1830 -0.0558 -0.3186
  662MOL0     C89275  10.880   7.301  10.579 -0.3568 -0.3955  0.3828
  662MOL0     C89276  11.014   7.341  10.649  0.3177 -0.0186 -0.0284
  662MOL0     C89277  11.114   7.424  10.557  0.4165  0.1750 -0.8461
  662MOL0     C89278  11.259   7.403  10.624  0.2480  0.0209  0.5174
  662MOL0    Cl89279  11.281   7.468  10.789 -0.4799  0.6144  0.0534
  662MOL0     C89280  10.133   7.256  10.663  0.1222  0.9345  0.1792
  662MOL0     C89281   9.992   7.226  10.680 -0.5259  0.5057 -0.4446
  662MOL0     O89282   9.764   6.858  10.696  0.2080  0.1411 -0.3515
  662MOL0     C89283   9.540   7.119  10.793  0.1913 -0.6102  0.9859
  662MOL0     C89284   9.408   7.139  10.837  0.3696 -0.2141 -0.2067
  662MOL0     N89285   8.698   7.206  11.069  0.2085 -0.2670  0.4537
  662MOL0     N89286   8.585   7.260  11.057  0.3946 -0.5483  0.7113
  662MOL0     C89287   7.812   7.275  11.297 -1.0482  0.6802  0.6175
  662MOL0     C89288   7.806   7.160  11.220  0.8174  0.4322  0.0936
  662MOL0     C89289   7.859   6.846  10.904  0.1391  0.2079 -0.2882
  662MOL0     C89290   7.987   6.790  10.858 -0.1453  0.8596 -0.4057
  662MOL0     C89291   7.988   6.705  10.747  0.3763 -0.2818  0.3089
  662MOL0     C89292   7.872   6.672  10.686 -1.0506 -0.0001 -1.0231
  662MOL0     O89293   7.885   6.581  10.580 -0.3365  0.3762 -0.9688
  662MOL0     C89294   7.805   6.458  10.582 -1.0748  0.5528  0.3390
  662MOL0     C89295   7.884   6.346  10.503 -0.7252 -0.8460  0.0922
  662MOL0     C89296   7.796   6.274  10.410  0.3516  0.1234 -0.0944
  662MOL0     C89297   7.655   6.228  10.474 -0.2953  1.7548 -0.4254
  662MOL0     C89298   7.685   6.138  10.588 -0.3734 -0.8330 -0.4800
  662MOL0     C89299   7.735   6.061  10.664 -0.3112 -0.0425  0.5199
  662MOL0     C89300   7.748   6.723  10.725 -0.5615 -0.2869 -0.2208
  662MOL0     C89301   7.742   6.810  10.836  0.1433  0.9786  0.2793
  662MOL0     C89302   7.602   6.873  10.876 -0.4731  0.6226 -0.4975
  662MOL0     H89303   7.782   7.312  10.908  0.7237 -5.2050 -0.8679
  662MOL0     H89304   7.777   7.514  11.069 -1.9684  0.5619  0.7203
  662MOL0     H89305   7.893   7.618  11.483 -1.3135 -0.5809  1.9754
  662MOL0     H89306   7.813   7.458  11.517 -1.8131  1.5331  0.4422
  662MOL0     H89307   8.029   7.342  11.435  2.2677  0.0895 -1.0316
  662MOL0     H89308   8.045   7.454  11.565  0.6714 -0.5289 -1.0663
  662MOL0     H89309   8.168   7.604  11.450  0.3512  3.2214 -2.3035
  662MOL0     H89310   8.093   7.570  11.300  2.1587 -0.3898 -1.3460
  662MOL0     H89311   8.342   7.503  11.318 -1.2639  1.6800 -2.0823
  662MOL0     H89312   8.292   7.374  11.429  0.5142  2.0397 -0.3504
  662MOL0     H89313   8.120   7.307  11.235 -0.9398  2.9682  1.1897
  662MOL0     H89314   8.240   7.368  11.132  0.7884  2.8803  2.4605
  662MOL0     H89315   8.414   7.229  11.257 -0.9386  3.9981  2.3440
  662MOL0     H89316   8.275   7.138  11.329  3.7605 -2.9893 -0.4197
  662MOL0     H89317   8.180   7.087  11.108  0.6043 -4.4443  1.6231
  662MOL0     H89318   8.334   7.013  11.133 -3.2440 -1.2857 -1.7080
  662MOL0     H89319   8.315   7.100  10.919 -0.1520 -1.0167  1.0295
  662MOL0     H89320   8.307   7.261  10.967  0.1137 -0.0290  2.2813
  662MOL0     H89321   8.538   6.949  10.936 -4.2148  1.0778 -1.3252
  662MOL0     H89322   8.799   6.939  11.141  0.6326 -1.6880 -0.3860
  662MOL0     H89323   8.775   6.890  10.974 -3.9035 -0.3144  0.9887
  662MOL0     H89324   8.973   7.096  11.092  0.3413  0.6933 -1.0160
  662MOL0     H89325   9.009   6.937  11.016 -1.7939 -0.9387 -0.0082
  662MOL0     H89326   8.915   7.200  10.877 -1.7585 -0.4126  1.0955
  662MOL0     H89327   8.933   7.051  10.795 -0.3013  0.2403 -0.2750
  662MOL0     H89328   9.130   7.224  10.964  2.0805 -2.3987  1.5911
  662MOL0     H89329   9.127   7.198  10.780 -3.0893 -0.0481 -0.6448
  662MOL0     H89330   9.299   6.819  10.806  1.2044 -1.0460 -0.2791
  662MOL0     H89331   9.526   6.796  10.695  2.0044  1.8387 -3.4551
  662MOL0     H89332  10.009   6.888  10.661  0.1719  0.1327  3.4547
  662MOL0     H89333  10.262   6.951  10.644  0.4268 -0.7870 -0.1048
  662MOL0     H89334  10.422   7.263  10.496 -2.8536 -2.0427  1.0318
  662MOL0     H89335  10.367   7.373  10.627 -0.4812 -0.4427  0.5517
  662MOL0     H89336  10.585   7.411  10.621 -1.4711  1.4093  1.3377
  662MOL0     H89337  10.567   7.310  10.759  0.2766 -0.2529  0.1999
  662MOL0     H89338  10.623   7.102  10.639  1.9857 -1.1786 -1.0973
  662MOL0     H89339  10.672   7.192  10.500 -0.0575 -1.9075 -0.1993
  662MOL0     H89340  10.839   7.104  10.658 -0.7554 -0.6786  2.8990
  662MOL0     H89341  10.784   7.214  10.775 -1.0626 -0.8582 -0.3319
  662MOL0     H89342  10.831   7.397  10.561  0.5835 -0.1367 -0.9974
  662MOL0     H89343  10.893   7.243  10.487 -3.6079  0.9065 -1.0558
  662MOL0     H89344  10.996   7.400  10.739  7.5099  0.6575  1.6371
  662MOL0     H89345  11.069   7.250  10.677 -0.5944 -0.8892 -1.0056
  662MOL0     H89346  11.108   7.533  10.567  0.6187  0.0781  0.6133
  662MOL0     H89347  11.085   7.399  10.455 -5.4619  1.7781  0.0461
  662MOL0     H89348  11.279   7.295  10.624 -1.5493 -0.3606 -0.3994
  662MOL0     H89349  11.342   7.440  10.563  1.3949 -1.5986  1.0285
  662MOL0     H89350  10.169   7.358  10.678  2.9639  0.1756 -0.8857
  662MOL0     H89351   9.922   7.305  10.704  0.4595  0.8272  1.5629
  662MOL0     H89352   9.610   7.202  10.797 -2.0021  1.4869 -0.6893
  662MOL0     H89353   9.377   7.238  10.870 -0.2783 -0.1789 -0.8977
  662MOL0     H89354   7.817   7.262  11.405 -2.8864 -0.3603  0.6126
  662MOL0     H89355   7.781   7.068  11.274 -2.9114  2.6250  2.6151
  662MOL0     H89356   8.075   6.819  10.915  1.6663 -2.1557 -1.4587
  662MOL0     H89357   8.079   6.663  10.705 -0.5894 -0.5392 -1.6590
  662MOL0     H89358   7.709   6.484  10.538 -1.6975  1.5390  2.1545
  662MOL0     H89359   7.785   6.423  10.684  3.6024  0.9311  1.6579
  662MOL0     H89360   7.934   6.285  10.578 -0.7857 -0.5071  0.4149
  662MOL0     H89361   7.967   6.397  10.453 -2.2438  2.1054  0.3425
  662MOL0     H89362   7.848   6.190  10.362  0.7054  1.0135 -1.2898
  662MOL0     H89363   7.777   6.341  10.326 -3.3148  1.2354  1.3957
  662MOL0     H89364   7.588   6.303  10.518  1.7763  2.2998  2.0705
  662MOL0     H89365   7.595   6.174  10.401  0.0306  1.9664 -0.8548
  662MOL0     H89366   7.764   5.975  10.721  2.4205 -0.2183 -0.9671
  662MOL0     H89367   7.661   6.681  10.676 -0.2831  2.0467 -2.9687
  662MOL0     H89368   7.602   6.886  10.985  0.4425 -0.8862 -0.2876
  662MOL0     H89369   7.593   6.972  10.832 -0.9946  1.9544  2.3458
  662MOL0     H89370   7.515   6.813  10.850 -1.9132  2.8598 -1.0791
  663MOL0     O89371   5.103   8.471  11.240 -0.3680  0.2779 -1.4535
  663MOL0     C89372   5.000   8.416  11.193  0.6613 -0.5431  0.2640
  663MOL0     O89373   4.991   8.313  11.107  0.3327  0.3593 -0.0200
  663MOL0     C89374   5.098   8.246  11.050  0.4830 -0.5099  0.0492
  663MOL0     C89375   5.058   8.130  10.991 -0.1266  0.4946 -0.6962
  663MOL0     C89376   5.151   8.045  10.922  0.5959 -0.1156  0.1298
  663MOL0     C89377   5.285   8.091  10.915 -0.6239 -0.5400 -0.6653
  663MOL0     O89378   5.372   8.027  10.830  0.5671  1.1247  0.7942
  663MOL0     C89379   5.367   7.887  10.800  0.4520 -0.0359 -0.4551
  663MOL0     C89380   5.509   7.855  10.754  0.2371  0.1340 -1.1660
  663MOL0     C89381   5.510   7.705  10.712 -0.1686  0.9984 -0.2977
  663MOL0     C89382   5.453   7.672  10.580 -0.1950  0.8066 -0.4771
  663MOL0     C89383   5.415   7.526  10.552 -0.4733  0.0137 -0.0614
  663MOL0     C89384   5.541   7.434  10.543  0.0377 -0.5896  0.0124
  663MOL0     C89385   5.538   7.333  10.431  0.1934 -0.4733 -0.2852
  663MOL0     C89386   5.456   7.212  10.473  0.1899 -1.3863 -0.6141
  663MOL0     N89387   5.517   7.089  10.419  0.0091  0.1372  0.3790
  663MOL0     C89388   5.590   6.993  10.492 -0.0603  0.2231 -0.6386
  663MOL0     C89389   5.616   6.904  10.405  0.0499  0.4777  0.1832
  663MOL0     C89390   5.661   6.753  10.413 -0.3787 -0.0802  0.6572
  663MOL0     C89391   5.801   6.749  10.482 -0.3121 -0.3547 -0.1366
  663MOL0     C89392   5.895   6.853  10.417  0.8249 -0.1385  0.3155
  663MOL0     C89393   5.915   6.836  10.270 -0.0857  1.0115  0.2318
  663MOL0     O89394   6.047   6.861  10.230  0.0112  0.6483 -0.1505
  663MOL0     C89395   6.110   6.983  10.236 -0.7368  0.2820 -0.3652
  663MOL0     C89396   6.243   6.971  10.202  0.3663  0.7579  0.1316
  663MOL0     C89397   6.328   7.077  10.192 -0.0119 -0.5798 -0.7399
  663MOL0     C89398   6.279   7.205  10.225  0.4227  0.4431 -0.6643
  663MOL0     C89399   6.381   7.323  10.222  0.3558 -0.2869  0.4250
  663MOL0     O89400   6.512   7.298  10.227  0.2027 -0.6815  0.7930
  663MOL0     C89401   6.607   7.403  10.245 -0.0360  0.4174  0.3225
  663MOL0     C89402   6.734   7.354  10.281 -0.2282  0.1989  0.4407
  663MOL0     C89403   6.845   7.439  10.289 -0.3946 -0.2347 -0.0929
  663MOL0     C89404   6.831   7.582  10.275 -0.0962 -0.2202  0.0205
  663MOL0     O89405   6.944   7.669  10.286 -0.2409  0.1402 -0.2675
  663MOL0     C89406   7.077   7.603  10.276 -0.1051  0.1989 -0.4602
  663MOL0     C89407   7.188   7.707  10.253  0.0800  0.2914  0.6293
  663MOL0     C89408   7.316   7.641  10.190 -0.2152  0.1676 -0.1979
  663MOL0     C89409   7.370   7.724  10.078 -0.5801  0.5095 -0.0713
  663MOL0     C89410   7.489   7.655  10.021  0.4719 -0.7670 -0.3936
  663MOL0     C89411   7.562   7.745   9.910  0.6289 -0.2450 -0.2326
  663MOL0     C89412   7.664   7.667   9.829  0.3672 -0.0709  0.5753
  663MOL0     C89413   7.729   7.763   9.729 -0.6418  0.6032  0.1607
  663MOL0    Cl89414   7.885   7.709   9.665 -0.1543 -0.0108  0.4941
  663MOL0     C89415   6.701   7.636  10.265 -0.6059 -0.0115  1.0200
  663MOL0     C89416   6.598   7.544  10.239 -0.2709 -0.3736  0.1057
  663MOL0     O89417   6.322   7.435  10.229  0.0430 -0.1868 -0.1204
  663MOL0     C89418   6.143   7.218  10.267  0.7938  0.4247 -0.0604
  663MOL0     C89419   6.060   7.105  10.279  0.1334  0.1596  0.4682
  663MOL0     N89420   5.591   6.953  10.277  0.8594  0.1377 -0.1955
  663MOL0     N89421   5.521   7.058  10.292  0.3494  0.4990  0.1585
  663MOL0     C89422   5.331   8.209  10.976  0.3359  0.2185 -0.6191
  663MOL0     C89423   5.240   8.296  11.033  0.7221 -0.0131  0.4332
  663MOL0     C89424   4.868   8.484  11.232 -0.5309  0.3576  0.7468
  663MOL0     C89425   4.772   8.485  11.132  0.3497 -0.2065 -0.3720
  663MOL0     C89426   4.646   8.539  11.164 -0.2196 -0.3353  0.2133
  663MOL0     C89427   4.609   8.579  11.289 -0.2903  0.1438  0.1164
  663MOL0     O89428   4.477   8.606  11.310  0.2063 -0.7759 -0.1747
  663MOL0     C89429   4.431   8.537  11.431  0.5919  0.3766 -1.3971
  663MOL0     C89430   4.271   8.536  11.433 -1.0186  0.3496 -0.8265
  663MOL0     C89431   4.213   8.519  11.288 -0.0934 -0.6955 -0.1311
  663MOL0     C89432   4.219   8.384  11.220 -0.7995 -0.2766 -0.5581
  663MOL0     C89433   4.358   8.329  11.197  0.2911  0.2827  0.6084
  663MOL0     C89434   4.468   8.290  11.158 -0.7170  0.0667  0.0811
  663MOL0     C89435   4.709   8.587  11.392 -0.6962  0.5393  0.0426
  663MOL0     C89436   4.840   8.544  11.359  0.3926 -0.0765  0.3218
  663MOL0     C89437   4.939   8.555  11.469 -0.5004  1.0327 -0.2289
  663MOL0     H89438   4.955   8.101  11.010 -0.6840  2.3516 -0.6327
  663MOL0     H89439   5.120   7.948  10.885 -1.5327  0.5906 -0.1167
  663MOL0     H89440   5.334   7.827  10.885  1.0063  0.2897  0.0011
  663MOL0     H89441   5.299   7.874  10.715  0.6751 -0.9173 -0.5063
  663MOL0     H89442   5.573   7.880  10.839  0.2885  2.6576 -1.8799
  663MOL0     H89443   5.540   7.922  10.674 -1.3600  1.2462 -0.8930
  663MOL0     H89444   5.459   7.642  10.785  1.4804 -0.9707 -0.7449
  663MOL0     H89445   5.614   7.673  10.718 -0.5355  0.0413  1.5127
  663MOL0     H89446   5.353   7.715  10.586 -1.5121 -2.1915  1.8783
  663MOL0     H89447   5.529   7.718  10.516 -0.1987  2.3977  0.5937
  663MOL0     H89448   5.355   7.496  10.638  2.5598 -1.2928  1.7760
  663MOL0     H89449   5.364   7.535  10.456 -2.5099  2.1549  1.1200
  663MOL0     H89450   5.622   7.505  10.520 -0.8781  0.8173  1.0076
  663MOL0     H89451   5.565   7.393  10.642  2.0655 -1.0335 -0.6017
  663MOL0     H89452   5.635   7.282  10.423 -0.9278 -2.5183 -1.8111
  663MOL0     H89453   5.519   7.367  10.329  0.2962  0.2214 -0.0752
  663MOL0     H89454   5.451   7.200  10.581 -3.9991  4.0256  0.2666
  663MOL0     H89455   5.352   7.225  10.442 -0.2015 -2.2250  0.3317
  663MOL0     H89456   5.598   6.997  10.600  1.2755  2.0028 -0.7434
  663MOL0     H89457   5.587   6.700  10.473 -2.3025 -0.2567 -1.7048
  663MOL0     H89458   5.671   6.713  10.312  3.4515  0.8128  0.5499
  663MOL0     H89459   5.799   6.764  10.590  2.8626  2.2238 -0.2846
  663MOL0     H89460   5.847   6.651  10.467 -0.4325 -0.3538 -0.5324
  663MOL0     H89461   5.987   6.838  10.474  0.3218  0.3142  1.2614
  663MOL0     H89462   5.853   6.953  10.431 -1.3488 -0.6138 -2.0832
  663MOL0     H89463   5.853   6.896  10.203  2.7074  1.8083 -1.8102
  663MOL0     H89464   5.905   6.732  10.238 -1.8436  0.3651  2.5577
  663MOL0     H89465   6.273   6.886  10.141  0.6479  1.0704 -0.1661
  663MOL0     H89466   6.430   7.067  10.157  0.6920  0.5262  0.8641
  663MOL0     H89467   6.747   7.246  10.286 -1.1597  0.0585 -0.0510
  663MOL0     H89468   6.938   7.388  10.314 -1.6995 -1.1681  3.4527
  663MOL0     H89469   7.108   7.548  10.365  1.7011 -1.1568 -1.8452
  663MOL0     H89470   7.074   7.536  10.189  0.7242 -0.4594  0.0045
  663MOL0     H89471   7.160   7.793  10.191  0.2756  0.4143  0.7087
  663MOL0     H89472   7.208   7.758  10.348 -1.2282 -1.1281  1.7008
  663MOL0     H89473   7.390   7.628  10.270 -1.8662 -1.3012  1.1725
  663MOL0     H89474   7.301   7.543  10.144 -2.9923  2.1640 -4.1159
  663MOL0     H89475   7.390   7.824  10.117  1.4827 -0.5268  1.6931
  663MOL0     H89476   7.294   7.733  10.000 -2.2745  0.3290  1.4811
  663MOL0     H89477   7.454   7.576   9.953 -0.6616  2.2845 -3.6795
  663MOL0     H89478   7.561   7.635  10.100 -0.7816  1.7587  1.5558
  663MOL0     H89479   7.483   7.771   9.839  1.0960 -0.7677 -0.9498
  663MOL0     H89480   7.598   7.840   9.952 -3.6592  1.4653  0.0945
  663MOL0     H89481   7.610   7.580   9.789 -2.0601  0.7996  1.7682
  663MOL0     H89482   7.741   7.627   9.895  1.2611 -0.0938 -0.4603
  663MOL0     H89483   7.657   7.765   9.646 -2.4579 -1.5104  1.6082
  663MOL0     H89484   7.741   7.864   9.771 -3.8729  0.9925  0.4098
  663MOL0     H89485   6.678   7.742  10.261  2.5009  0.7677  0.9056
  663MOL0     H89486   6.499   7.589  10.233  0.6634  1.5488 -2.6543
  663MOL0     H89487   6.100   7.313  10.297  0.5301  0.4300 -0.4494
  663MOL0     H89488   5.956   7.113  10.310 -0.4820 -1.3420 -1.0508
  663MOL0     H89489   5.432   8.244  10.958  0.3780  0.3050 -0.2140
  663MOL0     H89490   5.261   8.395  11.072 -0.7737  0.3685  0.3316
  663MOL0     H89491   4.785   8.444  11.032  1.9589 -1.4193  0.2884
  663MOL0     H89492   4.565   8.555  11.094 -1.1732  1.5904  1.6787
  663MOL0     H89493   4.470   8.593  11.517 -0.6142 -0.6375 -0.1330
  663MOL0     H89494   4.480   8.439  11.432  0.0404  0.0420  1.5151
  663MOL0     H89495   4.226   8.625  11.478 -0.8827  2.2373 -4.1152
  663MOL0     H89496   4.246   8.447  11.492  2.4270 -1.6672 -2.1096
  663MOL0     H89497   4.246   8.602  11.224 -2.8077  1.7421  1.3626
  663MOL0     H89498   4.105   8.536  11.298 -0.1400 -1.5699  0.9845
  663MOL0     H89499   4.167   8.307  11.277  0.3381 -1.5465 -1.1558
  663MOL0     H89500   4.165   8.383  11.125  2.0397  0.5654 -2.3070
  663MOL0     H89501   4.567   8.250  11.142  0.3898 -0.4694  6.0318
  663MOL0     H89502   4.690   8.613  11.495 -1.3805 -1.4747  0.4763
  663MOL0     H89503   4.901   8.570  11.570 -2.0184  0.6448 -0.7236
  663MOL0     H89504   4.994   8.460  11.470 -2.2377 -0.0269 -0.3857
  663MOL0     H89505   4.998   8.642  11.438 -0.2783  1.6945  1.8739
  664MOL0     O89506   6.875  10.457   4.119  0.0633 -0.4860  0.6858
  664MOL0     C89507   6.873  10.386   4.217  0.1977 -0.2826  0.1563
  664MOL0     O89508   6.876  10.428   4.342  0.1905 -0.6640 -0.4158
  664MOL0     C89509   6.842  10.564   4.361 -0.5251  0.6376 -1.2474
  664MOL0     C89510   6.925  10.625   4.458 -1.0825  0.9396  0.2972
  664MOL0     C89511   6.911  10.758   4.496  0.5524 -0.5059 -0.5773
  664MOL0     C89512   6.795  10.826   4.456 -0.5578 -0.5863 -0.3238
  664MOL0     O89513   6.753  10.954   4.487  0.3357  0.1551 -0.6634
  664MOL0     C89514   6.786  11.004   4.616 -0.1893 -0.0255  0.0396
  664MOL0     C89515   6.863  11.135   4.607  0.5391  0.1130 -0.2273
  664MOL0     C89516   6.890  11.201   4.748  0.2080 -0.4385 -0.6354
  664MOL0     C89517   6.952  11.340   4.734 -0.4352 -0.9037 -0.1075
  664MOL0     C89518   6.993  11.388   4.872  0.3636  0.4647 -0.0152
  664MOL0     C89519   6.873  11.398   4.966 -0.0126  0.1133 -0.4150
  664MOL0     C89520   6.908  11.434   5.108  0.1226  0.4031  0.2753
  664MOL0     C89521   6.948  11.295   5.176 -0.1218 -0.0555 -0.0872
  664MOL0     N89522   6.932  11.284   5.325  0.0332 -0.8405 -0.8197
  664MOL0     C89523   6.836  11.361   5.394  0.4519  0.8125  0.6003
  664MOL0     C89524   6.874  11.356   5.520 -0.3223  0.5359  0.0350
  664MOL0     C89525   6.784  11.404   5.627 -0.4947 -0.2022 -0.8059
  664MOL0     C89526   6.867  11.510   5.715  0.3617 -1.0245 -0.0315
  664MOL0     C89527   6.779  11.575   5.819 -0.1374 -0.0019  0.0139
  664MOL0     C89528   6.860  11.654   5.922  0.1298  0.7131 -0.0213
  664MOL0     O89529   6.770  11.727   5.997 -0.0162  0.6972 -0.5922
  664MOL0     C89530   6.807  11.841   6.066  0.6862  0.2623  0.8506
  664MOL0     C89531   6.729  11.960   6.044  1.0791 -0.7810 -0.9698
  664MOL0     C89532   6.752  12.076   6.126  0.3798  0.2270  1.6104
  664MOL0     C89533   6.843  12.066   6.231 -0.5169 -0.0346 -2.0138
  664MOL0     C89534   6.859  12.178   6.333 -0.0736 -0.6964  1.3788
  664MOL0     O89535   6.769  12.285   6.320 -0.6814  0.8488  0.1183
  664MOL0     C89536   6.798  12.408   6.363 -0.3283 -0.1039  0.1668
  664MOL0     C89537   6.686  12.476   6.418  0.0395  0.3914  0.3261
  664MOL0     C89538   6.699  12.595   6.478  0.0976 -2.0263  0.4252
  664MOL0     C89539   6.822  12.658   6.482  0.1932  0.2358  0.0775
  664MOL0     O89540   6.839  12.784   6.544  0.2482 -0.4440 -0.5302
  664MOL0     C89541   6.736  12.857   6.611 -0.1755 -0.3108 -0.9520
  664MOL0     C89542   6.778  13.003   6.617  0.1500 -1.0211 -0.7593
  664MOL0     C89543   6.910  13.021   6.703 -0.5119  0.0974 -0.4291
  664MOL0     C89544   6.931  13.167   6.711  0.0366 -0.7003  0.7029
  664MOL0     C89545   7.061  13.190   6.792 -0.2486  0.4111  0.5465
  664MOL0     C89546   7.066  13.340   6.816  0.3799  0.0721 -0.3434
  664MOL0     C89547   7.204  13.375   6.875  0.3803 -0.7905 -0.3923
  664MOL0     C89548   7.222  13.523   6.890 -0.3437 -0.0332 -0.2637
  664MOL0    Cl89549   7.375  13.542   6.968  0.0114  0.3924  0.1510
  664MOL0     C89550   6.931  12.598   6.426  0.9836  0.4877  0.4977
  664MOL0     C89551   6.921  12.475   6.356 -0.4094 -0.7041 -0.9140
  664MOL0     O89552   6.962  12.184   6.402 -0.3954 -0.7393 -0.3768
  664MOL0     C89553   6.932  11.956   6.240 -0.1940  0.2695 -0.0177
  664MOL0     C89554   6.913  11.854   6.155 -0.6458  0.0966 -0.1446
  664MOL0     N89555   7.001  11.290   5.527 -0.2912 -0.7719  0.2037
  664MOL0     N89556   7.032  11.246   5.411  0.4840  0.2671 -0.8320
  664MOL0     C89557   6.718  10.762   4.361 -0.0669  0.6157  0.2635
  664MOL0     C89558   6.731  10.632   4.323 -0.5356 -0.3403 -0.1319
  664MOL0     C89559   6.874  10.241   4.177  0.3512 -0.4846 -1.3113
  664MOL0     C89560   6.941  10.205   4.058 -0.0684  0.6958 -0.1333
  664MOL0     C89561   6.951  10.073   4.013  0.4164  0.4304 -0.4540
  664MOL0     C89562   6.884   9.981   4.093  0.7092  0.1180 -0.9162
  664MOL0     O89563   6.884   9.856   4.042  0.5088 -0.0406  1.1683
  664MOL0     C89564   6.764   9.778   4.063  0.0316  0.5182 -0.3857
  664MOL0     C89565   6.649   9.829   3.980  0.1598 -0.1453 -0.3280
  664MOL0     C89566   6.547   9.718   3.974 -0.0548 -0.1089 -0.2363
  664MOL0     C89567   6.401   9.765   3.953 -0.2317  0.4178 -0.2728
  664MOL0     C89568   6.382   9.850   3.841  0.0562  0.6464  0.2128
  664MOL0     C89569   6.356   9.904   3.735 -0.1873 -0.5944 -0.5536
  664MOL0     C89570   6.827  10.013   4.217 -0.0230  0.2196  0.1331
  664MOL0     C89571   6.835  10.144   4.265  0.1747  0.2614  1.1003
  664MOL0     C89572   6.768  10.170   4.392  0.3127 -0.7564 -1.3286
  664MOL0     H89573   7.010  10.568   4.493  0.2042  1.1951 -2.1583
  664MOL0     H89574   6.984  10.796   4.567  0.9910 -1.4692 -0.4867
  664MOL0     H89575   6.698  11.016   4.679 -2.1280 -6.5055 -0.6839
  664MOL0     H89576   6.852  10.938   4.674 -0.1464  1.9245  2.3429
  664MOL0     H89577   6.814  11.188   4.525 -0.0604  1.9544  1.2472
  664MOL0     H89578   6.960  11.106   4.564  1.0067 -1.5084  1.7741
  664MOL0     H89579   6.970  11.144   4.794  1.1018  0.4627 -1.0458
  664MOL0     H89580   6.801  11.189   4.810  2.7571 -4.5864  2.7797
  664MOL0     H89581   7.046  11.343   4.678 -0.5178 -1.1871 -0.2649
  664MOL0     H89582   6.878  11.408   4.692 -2.8529 -3.1913  0.1595
  664MOL0     H89583   7.056  11.314   4.921 -0.7722  0.1589  1.0250
  664MOL0     H89584   7.038  11.488   4.862 -2.1729  2.0435  2.7102
  664MOL0     H89585   6.806  11.475   4.925  0.5070 -0.3275 -2.1716
  664MOL0     H89586   6.807  11.311   4.964  1.2508 -0.8707 -0.1569
  664MOL0     H89587   6.819  11.476   5.155  0.5120  0.4046  1.0108
  664MOL0     H89588   6.990  11.505   5.116  1.7819 -1.3426 -0.3732
  664MOL0     H89589   6.890  11.210   5.138  0.7153  0.1029 -1.8209
  664MOL0     H89590   7.051  11.275   5.145  0.2082  0.4659  0.6537
  664MOL0     H89591   6.744  11.402   5.354  0.1013 -1.3789 -1.0508
  664MOL0     H89592   6.686  11.431   5.588 -1.1058 -1.0475  0.0949
  664MOL0     H89593   6.770  11.322   5.698  1.6682 -1.3047 -1.5424
  664MOL0     H89594   6.946  11.451   5.764 -0.3853 -2.4923 -0.5334
  664MOL0     H89595   6.905  11.595   5.657 -1.3243  0.8867  1.5267
  664MOL0     H89596   6.710  11.504   5.866  0.3749 -0.4645  0.0734
  664MOL0     H89597   6.719  11.645   5.760  1.6460  1.5210 -0.0958
  664MOL0     H89598   6.932  11.715   5.866  0.1712  0.3690 -0.3502
  664MOL0     H89599   6.918  11.582   5.980 -0.6710  0.3092  0.2937
  664MOL0     H89600   6.675  11.968   5.950  0.2713  1.6991 -0.3491
  664MOL0     H89601   6.704  12.171   6.109 -1.7352 -1.1010 -0.6395
  664MOL0     H89602   6.594  12.421   6.407 -1.2637  2.5160  0.1076
  664MOL0     H89603   6.609  12.641   6.519  1.2513  0.1105  0.6947
  664MOL0     H89604   6.644  12.860   6.552 -0.0400 -0.4169 -1.1698
  664MOL0     H89605   6.722  12.819   6.713  0.0200  2.8826  0.3756
  664MOL0     H89606   6.789  13.043   6.516 -0.8497 -0.8931 -0.8245
  664MOL0     H89607   6.710  13.062   6.679  1.2784  0.6935 -1.0806
  664MOL0     H89608   6.901  12.983   6.805  1.0921 -1.0797 -0.6943
  664MOL0     H89609   6.992  12.969   6.652 -1.0546  0.3134 -1.5387
  664MOL0     H89610   6.848  13.214   6.764  1.2999 -0.8696  2.9397
  664MOL0     H89611   6.941  13.215   6.613  3.8497 -4.0293 -0.8479
  664MOL0     H89612   7.142  13.146   6.734  0.0569  1.7245 -0.0480
  664MOL0     H89613   7.047  13.138   6.888 -0.0029 -0.6225  0.0293
  664MOL0     H89614   7.064  13.394   6.720  0.5968  2.9090  1.1354
  664MOL0     H89615   6.990  13.391   6.877  4.0691  4.2951  1.2535
  664MOL0     H89616   7.274  13.338   6.799  1.0020  1.7765 -1.1506
  664MOL0     H89617   7.222  13.322   6.970  1.4114  0.8829  0.3941
  664MOL0     H89618   7.223  13.584   6.799 -1.6910 -1.1034 -1.0303
  664MOL0     H89619   7.139  13.552   6.955 -0.3745  0.4372 -0.5045
  664MOL0     H89620   7.029  12.642   6.437  0.4076  1.4570  2.1737
  664MOL0     H89621   7.013  12.441   6.310 -1.2334 -2.1076 -1.5635
  664MOL0     H89622   7.021  11.946   6.301  0.1536 -0.3567 -0.6218
  664MOL0     H89623   6.979  11.767   6.159 -2.2683 -1.1781  0.2318
  664MOL0     H89624   6.631  10.824   4.342 -2.0009 -1.9500  0.1710
  664MOL0     H89625   6.652  10.597   4.258 -3.3504  2.8302  1.2842
  664MOL0     H89626   6.986  10.282   3.995  1.5638  1.1659  1.5089
  664MOL0     H89627   6.999  10.037   3.923  1.7888  1.4228 -0.1478
  664MOL0     H89628   6.738   9.776   4.169  2.4852  0.8782  0.2792
  664MOL0     H89629   6.792   9.674   4.045 -2.0144 -0.6886  2.5813
  664MOL0     H89630   6.684   9.854   3.880  3.2437 -0.9377  0.4383
  664MOL0     H89631   6.606   9.910   4.039  1.0020 -0.0104  0.1284
  664MOL0     H89632   6.559   9.658   4.065  4.3306  0.5766 -0.1164
  664MOL0     H89633   6.575   9.653   3.891 -2.9984 -3.4304  1.0991
  664MOL0     H89634   6.342   9.673   3.949  0.0312  0.2906 -2.0625
  664MOL0     H89635   6.370   9.828   4.037  1.9169  0.4455  0.5512
  664MOL0     H89636   6.316   9.952   3.648 -0.1154 -0.5081 -0.5393
  664MOL0     H89637   6.785   9.940   4.287  0.5491 -0.7509 -0.5143
  664MOL0     H89638   6.842  10.209   4.463  1.1609 -2.2827 -1.3386
  664MOL0     H89639   6.689  10.245   4.378 -0.0377 -0.8417 -0.0322
  664MOL0     H89640   6.714  10.088   4.441 -1.0399  1.6378  1.5744
  665MOL0     O89641   5.304   4.935   2.571  0.0390  0.1634 -0.1602
  665MOL0     C89642   5.290   4.813   2.572 -0.6061 -0.0263 -0.4195
  665MOL0     O89643   5.196   4.736   2.642 -0.3055  0.5839  0.2242
  665MOL0     C89644   5.120   4.813   2.726  0.0717 -1.0205  0.1869
  665MOL0     C89645   4.982   4.797   2.711  0.6511 -0.1527 -0.9218
  665MOL0     C89646   4.903   4.853   2.815  0.0280 -0.1236  0.2055
  665MOL0     C89647   4.960   4.918   2.928 -0.1388  0.8404  0.0335
  665MOL0     O89648   4.875   4.958   3.028 -0.4007 -0.6200  0.6174
  665MOL0     C89649   4.911   4.936   3.163  0.4828  0.0613  0.2994
  665MOL0     C89650   4.779   4.951   3.253  0.5192 -0.3892 -0.6259
  665MOL0     C89651   4.681   4.828   3.252 -0.3466 -0.2758 -0.6964
  665MOL0     C89652   4.555   4.860   3.333 -0.2366  0.7943  0.1559
  665MOL0     C89653   4.470   4.735   3.353  0.0704  0.2534 -0.8634
  665MOL0     C89654   4.410   4.676   3.224 -0.0026  0.1695 -0.4861
  665MOL0     C89655   4.329   4.772   3.136  0.5232  0.5094 -0.3827
  665MOL0     C89656   4.270   4.713   3.004  0.3012 -0.2235 -0.0012
  665MOL0     N89657   4.244   4.819   2.901 -0.6709  1.2771  0.1431
  665MOL0     C89658   4.333   4.888   2.828  0.1714  0.2196 -0.3207
  665MOL0     C89659   4.266   4.973   2.754 -0.2179  0.4480 -0.2701
  665MOL0     C89660   4.334   5.062   2.655  0.6247 -1.0384  0.2502
  665MOL0     C89661   4.266   5.205   2.639  0.3470 -0.0019 -0.6906
  665MOL0     C89662   4.224   5.278   2.767 -0.1318 -0.0486  0.2448
  665MOL0     C89663   4.135   5.391   2.726  0.0333 -0.0322 -0.3195
  665MOL0     O89664   4.075   5.454   2.841 -0.0026 -0.9022  0.1011
  665MOL0     C89665   4.132   5.545   2.924  0.2525 -0.7635  0.2299
  665MOL0     C89666   4.251   5.614   2.895  0.0612 -0.5764  0.0476
  665MOL0     C89667   4.299   5.703   2.993 -0.5532  0.3043 -0.4869
  665MOL0     C89668   4.236   5.715   3.122 -0.5488 -0.6301  0.6689
  665MOL0     C89669   4.282   5.813   3.214 -0.0596 -0.1406  0.0489
  665MOL0     O89670   4.416   5.840   3.214  0.0312  0.0629  0.1186
  665MOL0     C89671   4.498   5.868   3.318 -0.0510  0.7057 -0.0222
  665MOL0     C89672   4.472   5.836   3.450  0.4026  0.5789 -0.5325
  665MOL0     C89673   4.558   5.870   3.555  0.3264  0.6393 -0.2337
  665MOL0     C89674   4.684   5.919   3.532 -0.1568  1.0277  0.6190
  665MOL0     O89675   4.761   5.952   3.641  0.3177  0.4278  0.0792
  665MOL0     C89676   4.758   6.096   3.657 -0.2277 -0.5837 -0.8779
  665MOL0     C89677   4.779   6.136   3.801  0.2469  0.3602 -0.4553
  665MOL0     C89678   4.816   6.289   3.812  0.2886 -0.1399  0.6319
  665MOL0     C89679   4.935   6.325   3.899 -0.1300  0.1363 -0.4556
  665MOL0     C89680   4.973   6.477   3.898  0.6334 -0.8846 -0.6348
  665MOL0     C89681   4.867   6.570   3.954 -0.1519 -0.7830 -0.4542
  665MOL0     C89682   4.858   6.687   3.856  0.7475 -0.3141 -0.6141
  665MOL0     C89683   4.766   6.804   3.903 -1.0967 -0.2068 -0.5073
  665MOL0    Cl89684   4.609   6.722   3.892 -0.0788 -0.0689 -0.1597
  665MOL0     C89685   4.708   5.956   3.402 -0.0300 -0.5069  0.4794
  665MOL0     C89686   4.627   5.918   3.297 -0.0705 -0.3785 -0.2384
  665MOL0     O89687   4.211   5.856   3.295 -0.0984  0.3546  0.6320
  665MOL0     C89688   4.107   5.655   3.143 -0.1397  0.1925 -1.1115
  665MOL0     C89689   4.068   5.566   3.048  0.3051  0.4917  0.3958
  665MOL0     N89690   4.136   4.956   2.775  0.2874 -0.0406 -0.4515
  665MOL0     N89691   4.121   4.859   2.862  0.4940 -0.9963  1.0586
  665MOL0     C89692   5.102   4.918   2.942 -0.7847 -0.6841  0.0859
  665MOL0     C89693   5.185   4.866   2.842 -0.3291  0.4501 -0.0059
  665MOL0     C89694   5.398   4.746   2.499 -0.1095 -0.2298 -0.3301
  665MOL0     C89695   5.436   4.802   2.374  0.6788 -0.2798  0.1521
  665MOL0     C89696   5.539   4.752   2.289  0.8314 -0.1025  0.1044
  665MOL0     C89697   5.629   4.661   2.345  0.7124  0.1862 -0.6814
  665MOL0     O89698   5.752   4.643   2.283  0.2167  0.5532  0.3240
  665MOL0     C89699   5.853   4.575   2.351 -0.1912  0.0806  0.3120
  665MOL0     C89700   5.995   4.595   2.287  0.5124  0.6842  0.6756
  665MOL0     C89701   6.056   4.734   2.308 -0.5645  0.0144  0.0961
  665MOL0     C89702   6.203   4.730   2.286  0.7701 -0.5645 -0.2511
  665MOL0     C89703   6.268   4.861   2.282  0.6296  1.0430  0.0981
  665MOL0     C89704   6.321   4.971   2.292  0.6657  0.3427 -0.0279
  665MOL0     C89705   5.592   4.597   2.466  0.3782 -0.7545 -1.1380
  665MOL0     C89706   5.473   4.633   2.537 -0.1819 -0.0217 -0.8025
  665MOL0     C89707   5.461   4.565   2.672  0.1691  1.3249  0.2559
  665MOL0     H89708   4.938   4.729   2.639  1.2585 -0.9355 -0.5688
  665MOL0     H89709   4.796   4.832   2.814  0.0647 -0.3098  0.0910
  665MOL0     H89710   4.958   4.838   3.181  0.1347 -1.3093 -4.7892
  665MOL0     H89711   4.981   5.015   3.192  0.6928 -0.3404  0.9149
  665MOL0     H89712   4.725   5.042   3.224 -1.0120 -1.7761 -2.4146
  665MOL0     H89713   4.816   4.968   3.354  0.9372  2.6704 -1.1720
  665MOL0     H89714   4.722   4.733   3.289  0.3166  0.7008  1.2194
  665MOL0     H89715   4.647   4.813   3.149 -1.7267  0.8683 -0.4521
  665MOL0     H89716   4.591   4.894   3.431  0.8728  4.0562 -1.2351
  665MOL0     H89717   4.505   4.940   3.278  0.8443  1.8791  0.7054
  665MOL0     H89718   4.539   4.668   3.405 -0.0491  2.1423  1.9274
  665MOL0     H89719   4.385   4.757   3.418  1.6779  1.1114  1.0359
  665MOL0     H89720   4.490   4.638   3.159 -0.2241 -3.7989  1.2923
  665MOL0     H89721   4.353   4.587   3.250 -2.8723  2.1178  0.4106
  665MOL0     H89722   4.398   4.850   3.103  0.7865 -0.1902 -1.5375
  665MOL0     H89723   4.251   4.819   3.197 -1.0672 -0.4253 -1.6162
  665MOL0     H89724   4.342   4.642   2.961 -0.2732 -1.3043  0.7602
  665MOL0     H89725   4.181   4.653   3.026 -0.5478  0.8195 -0.5004
  665MOL0     H89726   4.441   4.891   2.835  0.0585  0.5913  2.1439
  665MOL0     H89727   4.440   5.076   2.681  0.5858 -0.5430  0.1400
  665MOL0     H89728   4.346   4.998   2.567  3.4071 -0.5914  0.2225
  665MOL0     H89729   4.336   5.272   2.587 -0.2701  0.7616 -0.5550
  665MOL0     H89730   4.180   5.190   2.573 -0.2423 -0.3192  0.1444
  665MOL0     H89731   4.310   5.303   2.830 -0.8981  3.5458  0.0552
  665MOL0     H89732   4.157   5.215   2.826 -1.2848  0.9028 -0.0017
  665MOL0     H89733   4.048   5.351   2.672 -0.9547  0.6043  0.7542
  665MOL0     H89734   4.184   5.470   2.668 -0.3123 -0.3132 -0.9992
  665MOL0     H89735   4.309   5.593   2.806  0.7631 -1.6860  0.7475
  665MOL0     H89736   4.393   5.755   2.979  1.0583 -2.7000 -1.7385
  665MOL0     H89737   4.370   5.800   3.461  1.2569 -3.1453 -2.7877
  665MOL0     H89738   4.518   5.834   3.650 -1.7610  0.4380 -1.1290
  665MOL0     H89739   4.833   6.141   3.591  1.7978 -0.1563  1.5123
  665MOL0     H89740   4.662   6.135   3.623  1.7205  3.4301 -2.4867
  665MOL0     H89741   4.684   6.110   3.849 -1.2116  3.9208 -1.0875
  665MOL0     H89742   4.864   6.086   3.848 -0.5118  1.5390  2.3505
  665MOL0     H89743   4.837   6.324   3.710 -2.1821 -1.4289 -0.3876
  665MOL0     H89744   4.726   6.345   3.839 -2.2068 -2.7522 -1.5513
  665MOL0     H89745   5.011   6.258   3.858 -1.0046 -0.5514 -0.9906
  665MOL0     H89746   4.907   6.293   4.000  1.5111  0.9385  0.3027
  665MOL0     H89747   4.993   6.503   3.794 -0.2069 -3.2369 -1.4744
  665MOL0     H89748   5.063   6.492   3.958  0.3808  0.7211 -0.6151
  665MOL0     H89749   4.767   6.524   3.955 -1.2129  1.3617 -1.0373
  665MOL0     H89750   4.900   6.597   4.054  0.3275 -0.0652 -0.7998
  665MOL0     H89751   4.819   6.647   3.762  0.9641 -0.3518 -0.6873
  665MOL0     H89752   4.958   6.729   3.844  0.4663  0.0998 -1.5872
  665MOL0     H89753   4.784   6.841   4.004 -1.2442  0.3554 -0.6858
  665MOL0     H89754   4.781   6.885   3.831  0.8239 -3.1734 -3.7759
  665MOL0     H89755   4.796   6.013   3.373  0.1230 -1.4217 -0.9390
  665MOL0     H89756   4.650   5.933   3.192 -0.1359 -0.3776 -0.2524
  665MOL0     H89757   4.051   5.677   3.233 -0.6358  0.7710 -1.5497
  665MOL0     H89758   3.968   5.527   3.063  0.5464 -0.2957  0.0321
  665MOL0     H89759   5.140   4.973   3.028 -1.2996 -4.9990  3.4315
  665MOL0     H89760   5.294   4.869   2.846 -0.2584 -0.2396 -1.0411
  665MOL0     H89761   5.382   4.892   2.346  2.7351  1.2237  0.7101
  665MOL0     H89762   5.557   4.779   2.185  0.5099 -0.9974 -0.2004
  665MOL0     H89763   5.820   4.470   2.352 -1.3939  0.4462  0.6804
  665MOL0     H89764   5.862   4.606   2.456  0.5372  0.1628  0.2294
  665MOL0     H89765   5.983   4.572   2.181  1.0126  0.1709  0.7273
  665MOL0     H89766   6.061   4.515   2.319  1.9828  0.9867 -1.3907
  665MOL0     H89767   6.052   4.758   2.415 -0.1379 -0.9415  0.3329
  665MOL0     H89768   6.006   4.811   2.248  0.3283 -1.3757 -2.5990
  665MOL0     H89769   6.254   4.678   2.367 -0.2287 -3.4721 -1.3618
  665MOL0     H89770   6.223   4.677   2.193 -0.0981 -1.5220  0.0903
  665MOL0     H89771   6.385   5.057   2.298  4.5187 -2.2102 -0.8391
  665MOL0     H89772   5.655   4.520   2.509 -1.2504 -2.2927 -1.4122
  665MOL0     H89773   5.467   4.649   2.742  0.1210  3.1418 -1.8351
  665MOL0     H89774   5.370   4.503   2.677  1.6770 -1.0479 -0.2133
  665MOL0     H89775   5.533   4.485   2.691 -0.5622  0.9496  1.6097
  666MOL0     O89776   8.411  11.197   5.004  0.7058  0.3468 -0.4630
  666MOL0     C89777   8.418  11.295   5.083  0.3025  0.0969 -0.4898
  666MOL0     O89778   8.482  11.298   5.205  0.2345  0.3828  0.1831
  666MOL0     C89779   8.545  11.179   5.244 -0.1969  0.4908  1.1672
  666MOL0     C89780   8.503  11.128   5.363  0.0638 -0.0224  0.1072
  666MOL0     C89781   8.546  11.003   5.406 -0.3057  0.3286  1.0423
  666MOL0     C89782   8.635  10.930   5.328 -0.1713 -0.0560 -0.1443
  666MOL0     O89783   8.689  10.802   5.354 -0.4744 -0.7047 -0.4287
  666MOL0     C89784   8.662  10.761   5.488 -0.9434 -0.2189  0.1228
  666MOL0     C89785   8.708  10.614   5.489 -0.0663  0.6435 -0.1482
  666MOL0     C89786   8.860  10.609   5.481 -0.3066 -0.4640  0.3155
  666MOL0     C89787   8.885  10.478   5.554  0.6691 -0.1628 -0.7391
  666MOL0     C89788   9.033  10.449   5.554  0.6764 -0.2026  0.0524
  666MOL0     C89789   9.051  10.373   5.418 -0.4829 -0.0093 -0.7854
  666MOL0     C89790   9.198  10.335   5.385 -0.0836 -0.6739  1.1243
  666MOL0     C89791   9.243  10.220   5.475 -0.2145 -0.3924 -0.0761
  666MOL0     N89792   9.378  10.174   5.446 -0.4389  0.4339 -0.1678
  666MOL0     C89793   9.497  10.231   5.490 -0.5268  0.0720 -0.6422
  666MOL0     C89794   9.593  10.143   5.463 -0.0067 -0.0337  0.1388
  666MOL0     C89795   9.741  10.148   5.500  0.0549  0.2718  0.6586
  666MOL0     C89796   9.773  10.069   5.628  0.8096 -0.4689 -0.2291
  666MOL0     C89797   9.924  10.087   5.670  0.1242 -0.4471 -0.1819
  666MOL0     C89798  10.033   9.986   5.608  0.5795 -0.0466 -0.9058
  666MOL0     O89799  10.042  10.019   5.468  0.0466  0.0296  0.0814
  666MOL0     C89800  10.069   9.912   5.382 -0.3944 -1.2589 -0.5489
  666MOL0     C89801  10.170   9.814   5.398 -1.3587  0.0205  0.3089
  666MOL0     C89802  10.176   9.702   5.306  0.2895 -0.9068 -0.6906
  666MOL0     C89803  10.094   9.688   5.193  0.2203 -1.3979 -0.4787
  666MOL0     C89804  10.084   9.565   5.116  0.9774 -0.1295  0.0250
  666MOL0     O89805   9.972   9.554   5.037 -0.8613  0.2035 -0.7224
  666MOL0     C89806   9.961   9.448   4.949 -0.4552  0.6161  0.6749
  666MOL0     C89807   9.841   9.371   4.932  0.2372 -0.2344 -0.6987
  666MOL0     C89808   9.833   9.261   4.848  0.6543  0.3152 -0.8019
  666MOL0     C89809   9.929   9.237   4.756  0.0353 -0.2383  0.7761
  666MOL0     O89810   9.904   9.142   4.663 -0.1608  0.2618 -0.0345
  666MOL0     C89811  10.018   9.058   4.637  0.2252 -0.7162 -0.5927
  666MOL0     C89812  10.026   9.040   4.488 -0.3304 -0.1021 -0.3394
  666MOL0     C89813  10.016   9.167   4.418  0.2214  1.2694  0.1424
  666MOL0     C89814  10.013   9.127   4.272 -1.0084  0.3887 -0.4779
  666MOL0     C89815   9.956   9.239   4.192 -0.3622 -0.0101 -0.4218
  666MOL0     C89816  10.052   9.361   4.197 -0.2364 -0.2673  0.3413
  666MOL0     C89817  10.009   9.489   4.126 -0.7992  0.3438 -0.7531
  666MOL0     C89818  10.047   9.612   4.200 -0.0151  0.1239  0.2545
  666MOL0    Cl89819   9.984   9.743   4.112 -0.2494 -0.3648 -0.6218
  666MOL0     C89820  10.048   9.322   4.757 -0.3173  0.1043 -0.2674
  666MOL0     C89821  10.056   9.419   4.854  0.1309  0.6894 -0.0584
  666MOL0     O89822  10.173   9.480   5.127  0.1804 -0.4690 -0.4749
  666MOL0     C89823  10.012   9.803   5.177 -0.6228 -0.1312  0.1629
  666MOL0     C89824   9.992   9.907   5.271  0.1450  0.8300  0.7251
  666MOL0     N89825   9.536  10.041   5.381 -0.5198 -0.3739 -0.0826
  666MOL0     N89826   9.405  10.058   5.373 -1.2038 -0.1566 -0.3701
  666MOL0     C89827   8.690  10.992   5.206  0.1402 -0.7266  0.3429
  666MOL0     C89828   8.643  11.106   5.166 -0.1467 -0.5405 -0.2062
  666MOL0     C89829   8.366  11.424   5.033 -0.0559  0.0556  0.6254
  666MOL0     C89830   8.446  11.539   5.058 -0.5151 -0.0731  0.6558
  666MOL0     C89831   8.414  11.656   4.994  0.2391 -0.1450  0.6501
  666MOL0     C89832   8.303  11.665   4.908  0.8366 -0.4700 -0.4917
  666MOL0     O89833   8.265  11.787   4.847  0.2313 -1.0087  0.1645
  666MOL0     C89834   8.244  11.775   4.704  1.4048  1.3459  0.5064
  666MOL0     C89835   8.322  11.887   4.635  0.1199 -0.3096 -0.3807
  666MOL0     C89836   8.470  11.856   4.611 -0.7204 -0.1209 -0.5157
  666MOL0     C89837   8.578  11.964   4.619  0.3720 -0.1607  0.7183
  666MOL0     C89838   8.702  11.909   4.555  0.1571 -0.5032 -0.9092
  666MOL0     C89839   8.796  11.860   4.507 -1.0591  0.1222 -0.0142
  666MOL0     C89840   8.226  11.552   4.888  0.9549 -0.4533  0.2582
  666MOL0     C89841   8.250  11.429   4.951  0.0363 -0.0136  0.1508
  666MOL0     C89842   8.153  11.305   4.957 -0.4513  0.2644  0.2560
  666MOL0     H89843   8.418  11.179   5.407 -0.3199  0.1460 -0.8251
  666MOL0     H89844   8.495  10.954   5.487 -0.1326 -0.3557  0.7424
  666MOL0     H89845   8.718  10.818   5.562  0.2105 -1.1101 -0.0445
  666MOL0     H89846   8.559  10.761   5.527 -0.3039  0.0435  1.8888
  666MOL0     H89847   8.662  10.571   5.400 -1.4552  4.2545 -1.3631
  666MOL0     H89848   8.664  10.553   5.568 -2.4736  2.0446 -0.3231
  666MOL0     H89849   8.906  10.697   5.526 -1.6415  1.0782 -1.2176
  666MOL0     H89850   8.892  10.611   5.376  1.8648  1.5406  0.9337
  666MOL0     H89851   8.858  10.502   5.657  0.6199 -3.8485  0.2499
  666MOL0     H89852   8.832  10.388   5.521  2.2335 -1.4019 -0.0636
  666MOL0     H89853   9.099  10.535   5.570  2.1358 -1.4719  0.9869
  666MOL0     H89854   9.058  10.377   5.631  0.6808 -1.6237 -1.2346
  666MOL0     H89855   8.989  10.284   5.431  0.6063 -0.8256 -1.0594
  666MOL0     H89856   9.015  10.440   5.340 -0.2556 -1.1150 -1.8737
  666MOL0     H89857   9.264  10.421   5.390 -2.5972  1.5097 -0.5541
  666MOL0     H89858   9.192  10.292   5.285  0.6216  0.8678  0.3929
  666MOL0     H89859   9.257  10.268   5.572 -0.3518 -1.1144  0.3070
  666MOL0     H89860   9.168  10.141   5.486  1.3797 -1.8941  0.4493
  666MOL0     H89861   9.502  10.322   5.549  1.9588 -0.9973  0.9311
  666MOL0     H89862   9.791  10.095   5.419  0.5435  1.4281  0.1863
  666MOL0     H89863   9.776  10.251   5.490  0.9663  0.0316  1.2137
  666MOL0     H89864   9.703  10.091   5.709  0.2664 -3.3402  0.1782
  666MOL0     H89865   9.761   9.962   5.613  1.5689 -0.3430 -1.9251
  666MOL0     H89866   9.924  10.067   5.778 -0.4599  2.0864  0.3428
  666MOL0     H89867   9.950  10.192   5.659  1.3914 -0.6564  0.5652
  666MOL0     H89868  10.018   9.879   5.621  0.6461  0.2013  1.6803
  666MOL0     H89869  10.133  10.012   5.644  1.2236 -1.4576 -1.6025
  666MOL0     H89870  10.235   9.808   5.484  0.6805 -0.1007 -1.1542
  666MOL0     H89871  10.244   9.625   5.341  0.1548 -0.9281 -0.4751
  666MOL0     H89872   9.757   9.388   4.998  1.4960 -2.9616  1.8553
  666MOL0     H89873   9.743   9.201   4.841  0.3972  0.2235  2.1431
  666MOL0     H89874  10.114   9.098   4.671 -0.0870  0.8225 -1.3999
  666MOL0     H89875  10.000   8.962   4.686  1.4588  0.4411  2.3432
  666MOL0     H89876  10.119   8.990   4.463 -0.4669 -0.5737  0.0767
  666MOL0     H89877   9.937   8.983   4.459 -1.3708  1.4165 -0.2559
  666MOL0     H89878   9.916   9.207   4.438 -1.7199 -3.9768  2.9249
  666MOL0     H89879  10.099   9.235   4.443  3.5593 -2.0755 -0.8650
  666MOL0     H89880   9.959   9.033   4.253 -0.0743  0.2539 -2.7096
  666MOL0     H89881  10.117   9.109   4.243 -0.4569 -0.0953  1.6525
  666MOL0     H89882   9.854   9.270   4.212 -0.4094  0.8514 -1.8072
  666MOL0     H89883   9.953   9.210   4.086 -0.9308  1.2635 -0.7753
  666MOL0     H89884  10.061   9.401   4.298  2.6054  0.8781 -0.2936
  666MOL0     H89885  10.145   9.329   4.149  0.5559  1.9587  0.2788
  666MOL0     H89886   9.902   9.476   4.108 -0.9360  2.0770 -1.2938
  666MOL0     H89887  10.066   9.497   4.034  0.7663 -0.1460  0.1288
  666MOL0     H89888  10.009   9.612   4.303  0.5187 -1.1353  0.4681
  666MOL0     H89889  10.155   9.624   4.212  0.0275 -1.8651  3.0159
  666MOL0     H89890  10.136   9.311   4.694  0.3912 -2.1352  0.9923
  666MOL0     H89891  10.147   9.478   4.852 -0.6704  2.0071 -2.6786
  666MOL0     H89892   9.950   9.806   5.088  0.3420  0.1162 -0.5105
  666MOL0     H89893   9.929   9.990   5.241  0.6962  1.1002  0.2847
  666MOL0     H89894   8.755  10.942   5.135  0.6649  3.4905 -2.5053
  666MOL0     H89895   8.672  11.146   5.070 -0.9507  0.8170  0.0794
  666MOL0     H89896   8.530  11.541   5.127 -1.1157  0.5912  1.3796
  666MOL0     H89897   8.475  11.745   5.007 -2.8589  2.6178 -1.9482
  666MOL0     H89898   8.137  11.788   4.689  0.8083 -0.7858  2.4245
  666MOL0     H89899   8.270  11.686   4.646 -2.0915  1.3788 -1.3943
  666MOL0     H89900   8.309  11.982   4.688  0.3973  0.3983 -1.5489
  666MOL0     H89901   8.288  11.908   4.533  0.3399  4.7919  0.3379
  666MOL0     H89902   8.482  11.801   4.517 -1.9155  0.0996 -0.8109
  666MOL0     H89903   8.500  11.777   4.681 -1.4940 -0.9616 -1.0936
  666MOL0     H89904   8.554  12.056   4.564  1.5591 -0.9870 -1.3005
  666MOL0     H89905   8.600  11.990   4.723  0.0383  1.3801  0.4247
  666MOL0     H89906   8.877  11.825   4.446  0.2161  2.4650  0.2195
  666MOL0     H89907   8.141  11.556   4.821  1.1642  2.9034 -0.0028
  666MOL0     H89908   8.200  11.215   4.917 -1.6894 -0.4268  0.3120
  666MOL0     H89909   8.126  11.289   5.062  1.3097  1.3965  0.9317
  666MOL0     H89910   8.056  11.320   4.908 -0.4868 -1.5652 -0.3293
  667MOL0     O89911  10.386   2.456   1.425  0.5343 -0.0521 -0.5213
  667MOL0     C89912  10.313   2.365   1.413 -0.3728  0.1229  0.0814
  667MOL0     O89913  10.342   2.238   1.357  0.5105 -0.5023 -0.1864
  667MOL0     C89914  10.467   2.214   1.336  0.0833  0.1851 -0.2918
  667MOL0     C89915  10.531   2.149   1.447 -0.6291  0.7703 -0.2236
  667MOL0     C89916  10.660   2.096   1.421 -0.8972  0.8683  0.3472
  667MOL0     C89917  10.717   2.101   1.290 -0.4363 -0.0901 -0.5419
  667MOL0     O89918  10.839   2.073   1.255  0.2112 -0.1568  0.0409
  667MOL0     C89919  10.905   1.982   1.345 -0.2001 -0.3897  0.1738
  667MOL0     C89920  11.035   1.932   1.292 -0.1431 -0.0532 -0.2625
  667MOL0     C89921  11.022   1.806   1.211  0.3868 -0.7006 -0.3999
  667MOL0     C89922  11.148   1.791   1.121  0.4482  0.2770 -0.1053
  667MOL0     C89923  11.162   1.645   1.075  0.3139  0.2950  0.1502
  667MOL0     C89924  11.223   1.540   1.179  0.1476  0.3353 -0.7157
  667MOL0     C89925  11.367   1.556   1.207 -1.2128 -0.6520 -0.2666
  667MOL0     C89926  11.412   1.473   1.327  0.7356 -0.2396  0.0263
  667MOL0     N89927  11.441   1.565   1.441  0.2611 -0.0404  0.0809
  667MOL0     C89928  11.566   1.623   1.460 -0.1804  0.3533  0.2284
  667MOL0     C89929  11.561   1.674   1.583  0.1313 -0.0621  0.0433
  667MOL0     C89930  11.670   1.754   1.650 -0.4354 -0.2922  0.3247
  667MOL0     C89931  11.766   1.658   1.725  0.4654  0.2818 -1.0158
  667MOL0     C89932  11.891   1.735   1.765 -0.8880 -0.6929 -0.5994
  667MOL0     C89933  12.010   1.638   1.789 -1.1357  0.3940  0.1186
  667MOL0     O89934  12.137   1.699   1.833  0.0984 -0.9438  0.1305
  667MOL0     C89935  12.199   1.784   1.741 -0.0552  1.5498 -0.4237
  667MOL0     C89936  12.294   1.873   1.790 -0.1761 -0.3015 -0.0601
  667MOL0     C89937  12.385   1.948   1.718 -0.1847 -0.1541  0.5312
  667MOL0     C89938  12.399   1.921   1.572 -0.6356 -1.1527  0.3636
  667MOL0     C89939  12.475   2.021   1.487  0.3516  0.5336 -0.4105
  667MOL0     O89940  12.448   2.022   1.353 -0.7219 -0.2984  0.3943
  667MOL0     C89941  12.541   2.084   1.285 -0.6886 -0.5645 -0.1443
  667MOL0     C89942  12.572   2.223   1.291 -0.7792  0.3120 -0.1129
  667MOL0     C89943  12.685   2.285   1.233 -0.2892 -0.6234 -0.6104
  667MOL0     C89944  12.769   2.213   1.155 -0.3652  0.4152  0.0196
  667MOL0     O89945  12.879   2.267   1.104  0.6816 -0.2798 -0.5950
  667MOL0     C89946  12.858   2.387   1.026 -0.4320 -0.4115 -0.2488
  667MOL0     C89947  12.928   2.378   0.887 -0.4238 -0.0510 -0.2557
  667MOL0     C89948  12.887   2.259   0.792  0.0959  0.2173  0.2533
  667MOL0     C89949  12.872   2.303   0.645 -0.2017  0.6668  0.0603
  667MOL0     C89950  13.010   2.365   0.598 -0.5415  0.8051 -0.2284
  667MOL0     C89951  12.995   2.436   0.458  1.3609  0.0041  0.2311
  667MOL0     C89952  13.130   2.490   0.425 -0.6383 -0.7040  0.4182
  667MOL0     C89953  13.211   2.392   0.336 -0.4595  0.4439  0.3908
  667MOL0    Cl89954  13.384   2.426   0.336 -0.3255 -0.0154 -0.3554
  667MOL0     C89955  12.740   2.079   1.123  0.8221 -0.0495  0.2344
  667MOL0     C89956  12.632   2.017   1.188 -0.3523  0.4933 -0.0501
  667MOL0     O89957  12.548   2.092   1.554  0.0584 -0.0472  0.0654
  667MOL0     C89958  12.306   1.828   1.521 -1.0218  0.0939 -0.4673
  667MOL0     C89959  12.211   1.757   1.601  0.5178  0.0474 -0.1298
  667MOL0     N89960  11.436   1.648   1.634  0.8501  0.4862 -0.4729
  667MOL0     N89961  11.354   1.584   1.549 -0.1118 -0.0757 -1.3394
  667MOL0     C89962  10.645   2.155   1.188  0.1104 -0.4742  0.5359
  667MOL0     C89963  10.514   2.209   1.207  0.0841  1.4227 -0.6253
  667MOL0     C89964  10.173   2.390   1.466  0.0995  0.3835 -0.0358
  667MOL0     C89965  10.090   2.274   1.495 -0.1161 -0.5733  0.3322
  667MOL0     C89966   9.965   2.286   1.548  0.1816  0.0724  0.4999
  667MOL0     C89967   9.910   2.416   1.578 -0.1600  0.3199 -0.4162
  667MOL0     O89968   9.787   2.444   1.640  0.1269 -0.0874  0.2505
  667MOL0     C89969   9.709   2.335   1.682 -0.9246  0.1021  0.8578
  667MOL0     C89970   9.587   2.370   1.756 -0.0241  0.3780  0.3143
  667MOL0     C89971   9.511   2.243   1.792  0.4554  0.6279 -0.2759
  667MOL0     C89972   9.413   2.251   1.902 -0.0474 -0.5155  0.3536
  667MOL0     C89973   9.299   2.338   1.864  0.3903 -0.2267 -0.2163
  667MOL0     C89974   9.230   2.432   1.825 -0.1673  0.2771 -0.2228
  667MOL0     C89975   9.993   2.525   1.555 -0.1875  0.8209 -0.4946
  667MOL0     C89976  10.122   2.516   1.494 -0.0020  0.9668 -0.7492
  667MOL0     C89977  10.186   2.653   1.491  0.0265 -0.3606 -0.2609
  667MOL0     H89978  10.475   2.151   1.540 -0.2953  2.4383 -0.0338
  667MOL0     H89979  10.711   2.049   1.505 -0.3929 -1.9651 -1.4048
  667MOL0     H89980  10.921   2.036   1.438 -1.6466 -3.0503  2.0950
  667MOL0     H89981  10.839   1.895   1.357 -0.3750 -0.4803 -1.2088
  667MOL0     H89982  11.091   1.912   1.384 -1.9561  2.0123  1.3835
  667MOL0     H89983  11.078   2.018   1.241 -0.2516 -0.7482 -1.5809
  667MOL0     H89984  10.944   1.798   1.135  0.2758 -1.0004 -0.2565
  667MOL0     H89985  11.008   1.726   1.285  1.3087  0.8480  1.5431
  667MOL0     H89986  11.138   1.858   1.035  2.0396  1.7631  0.7902
  667MOL0     H89987  11.238   1.825   1.175 -0.1737 -1.3360  2.1157
  667MOL0     H89988  11.062   1.615   1.041 -0.3468  0.2078  2.0151
  667MOL0     H89989  11.230   1.652   0.990 -0.9521  0.8386 -0.8561
  667MOL0     H89990  11.172   1.555   1.275 -1.1204 -2.6294 -0.8419
  667MOL0     H89991  11.216   1.435   1.150 -0.3674  0.3931 -0.8258
  667MOL0     H89992  11.393   1.660   1.225 -1.9472 -0.9302  2.8726
  667MOL0     H89993  11.422   1.522   1.118  1.1550  0.4487  0.6971
  667MOL0     H89994  11.331   1.403   1.351 -1.4087  2.1876  0.3585
  667MOL0     H89995  11.505   1.417   1.311  0.5431 -0.5693  0.0398
  667MOL0     H89996  11.637   1.641   1.380  1.9978  1.0719  2.2208
  667MOL0     H89997  11.726   1.796   1.566 -2.5574  1.5172 -0.3012
  667MOL0     H89998  11.639   1.830   1.723  3.2462 -0.0769  1.8378
  667MOL0     H89999  11.711   1.626   1.814  0.7007  0.7361 -0.7013
  667MOL0     H90000  11.794   1.573   1.663 -0.8330 -1.5965  0.8029
  667MOL0     H90001  11.871   1.804   1.847  1.3342  2.3803 -2.4525
  667MOL0     H90002  11.918   1.794   1.677 -2.7489 -0.0934 -0.8079
  667MOL0     H90003  12.029   1.583   1.697 -1.6605  1.6190 -0.7431
  667MOL0     H90004  11.981   1.568   1.869 -1.3588 -0.1310 -0.4149
  667MOL0     H90005  12.282   1.882   1.898 -2.2362  0.0361 -0.2753
  667MOL0     H90006  12.448   2.021   1.768  1.9140 -0.6724 -1.1735
  667MOL0     H90007  12.511   2.283   1.358  0.6470 -0.1331  1.6873
  667MOL0     H90008  12.705   2.391   1.244  0.7223 -0.8392 -0.2806
  667MOL0     H90009  12.754   2.418   1.014 -0.3529  1.1414  2.3221
  667MOL0     H90010  12.893   2.475   1.082 -0.5127  0.5995 -1.7467
  667MOL0     H90011  12.899   2.468   0.831 -2.0537  0.0820  0.7446
  667MOL0     H90012  13.036   2.392   0.898 -0.1088 -0.0186 -2.7797
  667MOL0     H90013  12.955   2.173   0.792  0.7683  0.7396 -0.0494
  667MOL0     H90014  12.789   2.220   0.822  0.9568 -2.1091  0.2433
  667MOL0     H90015  12.797   2.382   0.633  0.6374  1.6215  0.9648
  667MOL0     H90016  12.854   2.217   0.579  0.1966  0.4424  0.2452
  667MOL0     H90017  13.087   2.289   0.615 -0.4729  0.7800 -0.6485
  667MOL0     H90018  13.026   2.448   0.667  1.2344 -1.3274  2.1003
  667MOL0     H90019  12.956   2.369   0.381  1.3226  1.4846 -1.1054
  667MOL0     H90020  12.916   2.511   0.469  2.7805  1.7411 -0.7628
  667MOL0     H90021  13.186   2.520   0.514 -0.0733  0.8753 -0.4320
  667MOL0     H90022  13.107   2.581   0.369  0.0223 -1.2000 -0.6926
  667MOL0     H90023  13.201   2.298   0.391 -0.9830  0.9201  1.1403
  667MOL0     H90024  13.164   2.382   0.239  1.8484 -1.0412 -0.6696
  667MOL0     H90025  12.808   2.015   1.067 -0.0746  0.0819 -1.0463
  667MOL0     H90026  12.608   1.913   1.165  0.1486  0.6170 -1.1771
  667MOL0     H90027  12.310   1.794   1.419 -0.2572 -1.5051  0.0613
  667MOL0     H90028  12.150   1.684   1.549  1.2417 -0.9785  0.4347
  667MOL0     H90029  10.682   2.135   1.088 -2.1737 -4.2810  0.2531
  667MOL0     H90030  10.448   2.246   1.129 -0.3156 -0.5257 -1.2645
  667MOL0     H90031  10.122   2.172   1.476  0.9901 -0.1307 -0.2902
  667MOL0     H90032   9.905   2.197   1.557 -1.7025  1.4772  3.3254
  667MOL0     H90033   9.757   2.257   1.742 -2.8018 -1.1767  0.7833
  667MOL0     H90034   9.671   2.291   1.590 -3.4892  0.6305  1.5705
  667MOL0     H90035   9.532   2.441   1.693  3.1963  0.8751 -2.2277
  667MOL0     H90036   9.609   2.431   1.844  2.7007  2.6576 -1.7504
  667MOL0     H90037   9.592   2.176   1.822  2.5890  2.5433 -1.4614
  667MOL0     H90038   9.456   2.205   1.705 -0.0644  2.0772 -0.6185
  667MOL0     H90039   9.369   2.153   1.922 -0.6458 -0.1960  0.6131
  667MOL0     H90040   9.465   2.288   1.991  0.9937 -0.1047 -0.3950
  667MOL0     H90041   9.152   2.499   1.798 -0.4369  0.2322  0.4282
  667MOL0     H90042   9.965   2.620   1.601 -0.1413  0.4885  0.2372
  667MOL0     H90043  10.269   2.647   1.419 -0.5548 -2.1202 -0.8510
  667MOL0     H90044  10.112   2.724   1.454 -0.2273 -1.6196 -2.3041
  667MOL0     H90045  10.221   2.683   1.590 -3.0947  1.7470  0.3269
  668MOL0     O90046   8.851   0.162   5.782  0.5835  0.6845  0.1654
  668MOL0     C90047   8.950   0.138   5.722 -0.3689 -0.2149  0.0581
  668MOL0     O90048   9.048   0.231   5.710  0.4737 -0.3303  0.0663
  668MOL0     C90049   9.033   0.353   5.768  0.5262 -0.0884 -0.5554
  668MOL0     C90050   9.026   0.358   5.908  0.2814 -0.9047  0.9865
  668MOL0     C90051   9.016   0.480   5.980  0.7332  0.4979 -0.1801
  668MOL0     C90052   9.013   0.603   5.904  0.3408  0.5718 -0.3230
  668MOL0     O90053   9.021   0.732   5.960 -1.1935  0.7807  1.0117
  668MOL0     C90054   9.040   0.742   6.104  0.3220  0.2546  0.2209
  668MOL0     C90055   9.061   0.881   6.172  0.3570  0.0086 -0.9366
  668MOL0     C90056   9.197   0.951   6.140 -0.2400 -0.4815 -1.0334
  668MOL0     C90057   9.229   1.062   6.253  0.5560  0.4682 -0.1584
  668MOL0     C90058   9.372   1.109   6.238 -0.1506  0.4365  0.2256
  668MOL0     C90059   9.426   1.193   6.347 -0.5634 -0.4408 -0.5299
  668MOL0     C90060   9.581   1.199   6.351  0.5590 -0.3033  0.7119
  668MOL0     C90061   9.656   1.092   6.424  0.9439 -0.3167 -0.0668
  668MOL0     N90062   9.797   1.122   6.438 -0.0703  0.2433 -0.2422
  668MOL0     C90063   9.865   1.101   6.554 -0.5912 -0.2166  0.4964
  668MOL0     C90064   9.991   1.144   6.528  0.4251 -0.6586  0.6684
  668MOL0     C90065  10.104   1.176   6.627 -0.2916  0.2453 -0.2881
  668MOL0     C90066  10.073   1.234   6.762  0.2616 -0.5216 -0.1069
  668MOL0     C90067   9.995   1.371   6.744 -0.9399  0.1998  0.7383
  668MOL0     C90068   9.977   1.436   6.870 -0.3717  0.2092  0.7251
  668MOL0     O90069   9.889   1.368   6.958  0.2609  0.5120  0.2390
  668MOL0     C90070   9.763   1.357   6.912  1.3288  0.1380 -0.2495
  668MOL0     C90071   9.696   1.231   6.921  0.0937  0.8668  1.1282
  668MOL0     C90072   9.567   1.212   6.858  0.0922 -0.5116  0.4059
  668MOL0     C90073   9.503   1.317   6.784 -0.8334 -1.1271  0.3938
  668MOL0     C90074   9.362   1.312   6.744  0.6046 -0.1621  0.3031
  668MOL0     O90075   9.296   1.193   6.716 -0.9583  0.5862 -0.3031
  668MOL0     C90076   9.157   1.188   6.731 -1.1236  0.2151 -0.0400
  668MOL0     C90077   9.093   1.107   6.641 -0.0439 -0.0664  0.3921
  668MOL0     C90078   8.952   1.089   6.642 -0.3501  0.2615  0.0553
  668MOL0     C90079   8.878   1.150   6.743  0.0580 -0.4509 -0.5244
  668MOL0     O90080   8.747   1.113   6.767 -1.1950  0.6037 -0.3590
  668MOL0     C90081   8.679   1.181   6.871 -0.2571 -0.7458  0.1188
  668MOL0     C90082   8.540   1.118   6.882 -0.9136  0.3503  0.0003
  668MOL0     C90083   8.477   1.131   7.028  1.0511  0.5584  0.2999
  668MOL0     C90084   8.400   1.260   7.052 -0.1367 -0.0797 -0.8266
  668MOL0     C90085   8.359   1.276   7.197 -0.2950 -0.4495  0.5646
  668MOL0     C90086   8.244   1.192   7.229  0.3656  1.1488 -0.7738
  668MOL0     C90087   8.197   1.192   7.378  0.4355 -0.3381 -0.3478
  668MOL0     C90088   8.134   1.327   7.412  0.1577 -0.5778 -0.3864
  668MOL0    Cl90089   7.962   1.328   7.337  0.1119 -0.1584 -0.2083
  668MOL0     C90090   8.951   1.241   6.834  0.2217 -0.5861 -0.6304
  668MOL0     C90091   9.084   1.261   6.823  0.0032 -0.1907  0.1178
  668MOL0     O90092   9.303   1.421   6.739 -0.0675 -0.7952  0.7666
  668MOL0     C90093   9.575   1.439   6.784 -0.4581 -0.3067  0.4465
  668MOL0     C90094   9.702   1.456   6.835  0.2659  0.1123  0.3348
  668MOL0     N90095   9.997   1.170   6.390 -0.9352 -0.2759  0.5348
  668MOL0     N90096   9.885   1.155   6.338 -0.1690  0.0497  0.4346
  668MOL0     C90097   9.024   0.596   5.765 -0.0968  0.0298  0.1380
  668MOL0     C90098   9.037   0.473   5.701  0.1600  0.9303 -0.3634
  668MOL0     C90099   8.963   0.004   5.663 -0.4097  0.3574 -0.3979
  668MOL0     C90100   9.082  -0.069   5.702  0.1089 -0.5264 -0.1983
  668MOL0     C90101   9.115  -0.187   5.640  0.0411 -0.0965 -0.0536
  668MOL0     C90102   9.045  -0.241   5.542 -0.1958 -0.1975 -0.2604
  668MOL0     O90103   9.088  -0.358   5.486 -0.4154 -0.4572  0.1556
  668MOL0     C90104   8.987  -0.454   5.434 -0.6532 -0.5600 -0.8994
  668MOL0     C90105   9.032  -0.573   5.344 -0.9473 -0.4702 -0.0603
  668MOL0     C90106   9.127  -0.548   5.228  0.3333  0.4720 -0.0632
  668MOL0     C90107   9.148  -0.673   5.130 -0.1256 -0.1568 -0.2201
  668MOL0     C90108   9.260  -0.645   5.025  0.0049  0.2702  0.3995
  668MOL0     C90109   9.350  -0.639   4.946 -0.4484  0.4404  0.2117
  668MOL0     C90110   8.917  -0.188   5.514 -0.0929  0.9969  0.4065
  668MOL0     C90111   8.875  -0.065   5.579  0.7008 -0.1690 -1.1481
  668MOL0     C90112   8.743  -0.000   5.543 -0.3544  0.5052  0.3138
  668MOL0     H90113   9.050   0.266   5.962 -1.7198 -0.5595  2.5617
  668MOL0     H90114   9.014   0.484   6.089  1.1851  0.9450 -0.1874
  668MOL0     H90115   8.956   0.687   6.147 -0.7640  0.0544 -2.0343
  668MOL0     H90116   9.122   0.672   6.120 -1.4171 -1.7814  0.5959
  668MOL0     H90117   9.061   0.863   6.280 -0.9400  0.0189 -0.9215
  668MOL0     H90118   8.983   0.955   6.153 -1.0560 -1.1715  0.0280
  668MOL0     H90119   9.183   1.013   6.051  0.9098  0.0002 -0.8923
  668MOL0     H90120   9.283   0.884   6.127  0.2228  0.0113 -0.5240
  668MOL0     H90121   9.163   1.149   6.239  4.5103  3.4467 -2.1639
  668MOL0     H90122   9.213   1.016   6.351  2.1514  0.8389  0.2962
  668MOL0     H90123   9.433   1.019   6.227 -1.4140 -0.0906 -4.0968
  668MOL0     H90124   9.383   1.163   6.144 -0.3278  0.8332  0.4295
  668MOL0     H90125   9.387   1.292   6.324 -0.0610  0.8083  3.2530
  668MOL0     H90126   9.393   1.170   6.449  1.6379 -1.7499 -0.0318
  668MOL0     H90127   9.600   1.291   6.408 -3.1422  2.8048 -2.4633
  668MOL0     H90128   9.621   1.207   6.250 -0.1812  0.4404  0.4678
  668MOL0     H90129   9.618   1.091   6.526 -2.6064  0.0236 -1.2445
  668MOL0     H90130   9.619   0.997   6.384  2.4316  0.2756 -3.1284
  668MOL0     H90131   9.821   1.071   6.648  0.5507 -1.8963  0.5520
  668MOL0     H90132  10.165   1.085   6.625 -0.5442 -0.0112 -4.1579
  668MOL0     H90133  10.163   1.253   6.576  0.9437 -0.6704 -0.2850
  668MOL0     H90134  10.001   1.164   6.806 -2.7190  2.2415 -0.2106
  668MOL0     H90135  10.165   1.236   6.820 -0.0419 -3.1602  0.6311
  668MOL0     H90136   9.899   1.350   6.698  0.0335 -1.5464 -0.6045
  668MOL0     H90137  10.046   1.438   6.673 -1.7634  0.0414 -0.0107
  668MOL0     H90138   9.956   1.543   6.865  2.4006  0.8971  1.8902
  668MOL0     H90139  10.075   1.438   6.918  2.0407  0.9947 -3.7206
  668MOL0     H90140   9.741   1.152   6.981  3.2415 -0.2618 -2.3956
  668MOL0     H90141   9.529   1.111   6.867  0.9290 -0.7715  1.2634
  668MOL0     H90142   9.145   1.056   6.561  1.3010  0.5223  0.8711
  668MOL0     H90143   8.910   1.011   6.580  0.4131  0.2326 -0.4446
  668MOL0     H90144   8.742   1.165   6.959  2.7325 -0.3916 -1.8132
  668MOL0     H90145   8.652   1.287   6.865 -0.7093 -0.7939  0.9996
  668MOL0     H90146   8.469   1.170   6.818 -0.9533  0.5524  0.2049
  668MOL0     H90147   8.558   1.013   6.855  0.3959  0.5881 -0.0975
  668MOL0     H90148   8.413   1.042   7.034  3.5697 -1.3731  0.5567
  668MOL0     H90149   8.559   1.121   7.099  0.5569  1.0582  0.9472
  668MOL0     H90150   8.310   1.256   6.990  0.4772  1.6175 -1.8785
  668MOL0     H90151   8.467   1.337   7.013  2.1443 -1.3267  0.3830
  668MOL0     H90152   8.343   1.384   7.201  0.2574  0.0152 -4.2592
  668MOL0     H90153   8.442   1.246   7.262  0.0838  2.1173  1.3721
  668MOL0     H90154   8.167   1.224   7.158 -0.3387  0.0065 -0.5518
  668MOL0     H90155   8.275   1.089   7.212  3.0758  1.7146  0.2576
  668MOL0     H90156   8.277   1.160   7.445 -1.8314 -0.2595  2.6093
  668MOL0     H90157   8.121   1.115   7.388  2.5191 -2.3850  0.5045
  668MOL0     H90158   8.127   1.324   7.521  1.3532 -2.6497 -0.3092
  668MOL0     H90159   8.201   1.406   7.376  0.3701  0.2067  1.6276
  668MOL0     H90160   8.897   1.300   6.906 -1.4058 -1.4629 -1.0782
  668MOL0     H90161   9.120   1.337   6.890  0.5312  0.2114 -0.6084
  668MOL0     H90162   9.544   1.529   6.732  1.0906 -0.8029 -1.4564
  668MOL0     H90163   9.749   1.553   6.825  0.8516 -0.2261 -0.1883
  668MOL0     H90164   9.015   0.687   5.707  0.4003 -0.4014 -0.6287
  668MOL0     H90165   9.041   0.475   5.593  3.3310  1.4579 -0.3356
  668MOL0     H90166   9.158  -0.035   5.771 -0.3622  0.4298 -0.1403
  668MOL0     H90167   9.211  -0.238   5.646 -0.3743 -0.9073 -0.1037
  668MOL0     H90168   8.910  -0.405   5.375 -1.1989 -0.9568 -0.5289
  668MOL0     H90169   8.933  -0.494   5.521 -0.3680  1.3620  0.2288
  668MOL0     H90170   8.949  -0.628   5.299  0.6810 -1.9228 -1.4595
  668MOL0     H90171   9.083  -0.645   5.409 -3.0562 -1.2418  0.8177
  668MOL0     H90172   9.229  -0.523   5.259 -0.1377  0.6221  1.4354
  668MOL0     H90173   9.081  -0.466   5.174 -0.3795  0.0590 -0.1012
  668MOL0     H90174   9.163  -0.767   5.184  1.4633 -0.8669 -1.7833
  668MOL0     H90175   9.059  -0.695   5.071 -0.7847  1.1599  0.2499
  668MOL0     H90176   9.429  -0.642   4.873 -2.6157 -0.6892 -2.2318
  668MOL0     H90177   8.860  -0.215   5.426  0.1040  1.1722  0.2205
  668MOL0     H90178   8.684  -0.051   5.466 -0.6067 -0.3915  1.0708
  668MOL0     H90179   8.683  -0.007   5.635  1.7121  3.0870  1.9873
  668MOL0     H90180   8.750   0.108   5.532  0.6652  0.5786  1.4332
  669MOL0     O90181   5.298   5.732   3.914 -0.1117  0.1585 -0.3596
  669MOL0     C90182   5.277   5.835   3.842 -0.0498  0.5233 -0.5742
  669MOL0     O90183   5.175   5.929   3.864 -0.7102  0.0884  0.2408
  669MOL0     C90184   5.079   5.908   3.959  0.4438  0.3628  0.1154
  669MOL0     C90185   5.039   6.017   4.031 -0.7090  0.0484 -0.9676
  669MOL0     C90186   4.926   6.011   4.117  0.6852  0.3371 -0.6957
  669MOL0     C90187   4.858   5.890   4.136  0.4715  0.0734 -0.1866
  669MOL0     O90188   4.743   5.871   4.209  1.0709  0.3720  0.0392
  669MOL0     C90189   4.715   5.965   4.316 -0.1041  0.0694 -0.2348
  669MOL0     C90190   4.624   6.086   4.278  0.4024 -0.1535  0.3486
  669MOL0     C90191   4.473   6.056   4.265 -0.6913 -0.5054 -1.0622
  669MOL0     C90192   4.408   5.992   4.132 -0.4148  1.2101 -0.9236
  669MOL0     C90193   4.402   6.101   4.025 -0.3531  0.3296  0.3109
  669MOL0     C90194   4.383   6.047   3.885  0.1879 -0.1787  0.3434
  669MOL0     C90195   4.392   6.147   3.772  0.6030  0.3285 -0.4673
  669MOL0     C90196   4.271   6.253   3.778 -0.6981  0.2309 -1.0240
  669MOL0     N90197   4.140   6.179   3.777 -0.0574  0.3981  0.0443
  669MOL0     C90198   4.058   6.148   3.667 -0.9413 -0.3547 -0.1981
  669MOL0     C90199   3.939   6.112   3.717  0.1071 -0.4353  0.1574
  669MOL0     C90200   3.830   6.063   3.622 -0.5188 -0.3597  0.4774
  669MOL0     C90201   3.688   6.108   3.657  0.2829 -0.5885  0.2603
  669MOL0     C90202   3.585   6.053   3.563 -0.2271 -0.1558 -0.1255
  669MOL0     C90203   3.446   6.074   3.616 -0.6746 -0.6007  0.1807
  669MOL0     O90204   3.414   6.219   3.582 -0.3112  0.2723 -0.5305
  669MOL0     C90205   3.284   6.255   3.616  0.4007 -0.3543  0.5092
  669MOL0     C90206   3.273   6.384   3.678  0.1999  0.2146 -0.1687
  669MOL0     C90207   3.147   6.416   3.739  0.9375  0.0699  0.3714
  669MOL0     C90208   3.038   6.335   3.746  1.0892  0.3438  0.2344
  669MOL0     C90209   2.918   6.378   3.821 -0.7711  0.2489 -0.1982
  669MOL0     O90210   2.802   6.288   3.812 -0.0542 -0.7575 -0.7889
  669MOL0     C90211   2.679   6.348   3.855  0.7325  0.5530 -0.8528
  669MOL0     C90212   2.579   6.263   3.914  0.2525 -0.4301 -0.1255
  669MOL0     C90213   2.452   6.317   3.944 -0.7804 -0.6223 -0.3498
  669MOL0     C90214   2.427   6.453   3.926 -0.3698 -0.9743 -1.1990
  669MOL0     O90215   2.301   6.497   3.950  0.1981  0.4427 -0.3014
  669MOL0     C90216   2.242   6.585   3.854 -0.7834  0.7387  0.9734
  669MOL0     C90217   2.090   6.577   3.860  0.0493 -0.6888  0.3683
  669MOL0     C90218   2.025   6.684   3.944  0.6395 -0.7732  0.1466
  669MOL0     C90219   1.886   6.645   3.995 -0.6084 -0.3027 -0.0642
  669MOL0     C90220   1.832   6.748   4.097 -0.3000  0.2758  0.1883
  669MOL0     C90221   1.803   6.880   4.042  0.3542  0.5998  0.1065
  669MOL0     C90222   1.813   6.981   4.149 -0.2206  0.4706 -1.3556
  669MOL0     C90223   1.761   7.111   4.086  0.2330  1.0534 -0.0321
  669MOL0    Cl90224   1.582   7.105   4.060  0.1573 -0.0936  0.1416
  669MOL0     C90225   2.530   6.540   3.886 -0.7356  0.6951 -0.0987
  669MOL0     C90226   2.650   6.480   3.840 -0.4246 -0.6790  1.3843
  669MOL0     O90227   2.927   6.469   3.902  0.5582  0.3851  0.3740
  669MOL0     C90228   3.052   6.218   3.669 -0.1831 -0.2035 -0.3856
  669MOL0     C90229   3.169   6.183   3.606  0.7652  0.0302 -0.7451
  669MOL0     N90230   3.949   6.137   3.851  0.1644  0.1976  0.4762
  669MOL0     N90231   4.070   6.163   3.890  0.2104  0.2040  0.0857
  669MOL0     C90232   4.901   5.776   4.059 -0.8256 -0.6741 -0.1827
  669MOL0     C90233   5.011   5.788   3.971  0.0175 -0.0717 -0.2443
  669MOL0     C90234   5.382   5.843   3.737  0.1290  0.2306 -0.0907
  669MOL0     C90235   5.518   5.791   3.755  0.5934  0.2162 -0.1044
  669MOL0     C90236   5.614   5.810   3.657  0.1708 -0.2599 -0.4593
  669MOL0     C90237   5.585   5.869   3.536 -1.0466  0.8040  0.6336
  669MOL0     O90238   5.690   5.848   3.443 -0.0377 -0.1574 -0.1567
  669MOL0     C90239   5.674   5.892   3.310  0.0772 -0.0048 -0.7229
  669MOL0     C90240   5.710   6.041   3.294  0.3592  0.0515 -0.1348
  669MOL0     C90241   5.862   6.062   3.283  0.1233 -0.1171 -0.5032
  669MOL0     C90242   5.908   6.182   3.196 -0.0586  0.7496 -0.8782
  669MOL0     C90243   5.852   6.305   3.259 -1.7032  0.6714  0.2840
  669MOL0     C90244   5.815   6.418   3.294 -0.0331  0.7207 -0.0317
  669MOL0     C90245   5.459   5.920   3.513 -0.1416 -0.3414  0.7507
  669MOL0     C90246   5.362   5.914   3.614  0.0352 -0.0969 -0.5046
  669MOL0     C90247   5.225   5.961   3.581 -0.3663 -0.0544  0.6238
  669MOL0     H90248   5.089   6.111   4.010 -0.1226 -0.0275  0.0070
  669MOL0     H90249   4.891   6.102   4.165 -0.6918  0.0994 -1.2102
  669MOL0     H90250   4.665   5.909   4.396  1.0062  3.0590  2.7994
  669MOL0     H90251   4.799   6.013   4.367 -0.6444 -1.5922  2.4181
  669MOL0     H90252   4.656   6.122   4.180 -0.5275 -1.5566 -0.5012
  669MOL0     H90253   4.633   6.171   4.346 -1.3176 -0.4981  1.0431
  669MOL0     H90254   4.430   6.153   4.289 -0.5248 -0.4258 -1.0806
  669MOL0     H90255   4.446   5.985   4.344 -3.4606 -0.0196 -1.4879
  669MOL0     H90256   4.471   5.909   4.100  0.4415  2.2521 -2.0234
  669MOL0     H90257   4.309   5.946   4.148 -0.0030  0.3655 -0.7487
  669MOL0     H90258   4.327   6.177   4.048  0.2999  1.5804 -1.4763
  669MOL0     H90259   4.499   6.151   4.027 -0.3350  0.3516 -0.7190
  669MOL0     H90260   4.462   5.973   3.868 -0.0899 -0.5568  0.6537
  669MOL0     H90261   4.285   5.997   3.888 -0.0920  0.4022  1.2818
  669MOL0     H90262   4.391   6.104   3.672  3.1580  0.8085 -0.7655
  669MOL0     H90263   4.489   6.198   3.777 -0.5746  2.7481 -0.9504
  669MOL0     H90264   4.294   6.310   3.868  3.2190 -0.5506 -1.3393
  669MOL0     H90265   4.275   6.326   3.696 -1.4298  0.6437 -0.7020
  669MOL0     H90266   4.084   6.159   3.562 -1.2690 -2.8593 -0.6233
  669MOL0     H90267   3.840   6.104   3.521 -0.9367 -0.8919  0.2183
  669MOL0     H90268   3.847   5.956   3.606  2.1165  0.2257 -1.3571
  669MOL0     H90269   3.663   6.079   3.760 -1.4367  0.8674  0.2965
  669MOL0     H90270   3.685   6.217   3.660 -0.9035 -0.6158  0.8494
  669MOL0     H90271   3.611   5.947   3.554  1.2836  0.2079 -0.4770
  669MOL0     H90272   3.596   6.106   3.467  0.4623 -0.5600 -0.2817
  669MOL0     H90273   3.429   6.037   3.717 -2.2978  0.7276  0.4481
  669MOL0     H90274   3.374   6.014   3.559 -2.0009  1.5607 -0.5345
  669MOL0     H90275   3.362   6.446   3.675  1.6403 -1.5109  2.3980
  669MOL0     H90276   3.147   6.514   3.785 -1.4776  0.0422  0.5136
  669MOL0     H90277   2.599   6.157   3.928 -0.2973 -0.9111 -2.5565
  669MOL0     H90278   2.365   6.254   3.962 -0.2947 -0.5723  2.6101
  669MOL0     H90279   2.272   6.690   3.862  1.5570  0.2937 -0.9667
  669MOL0     H90280   2.270   6.552   3.754  0.0639 -0.0064  1.4460
  669MOL0     H90281   2.054   6.578   3.757  2.7211 -1.8794 -0.6618
  669MOL0     H90282   2.056   6.477   3.888 -3.7021 -0.2130 -1.8044
  669MOL0     H90283   2.082   6.723   4.028 -0.1309  4.0685 -1.2937
  669MOL0     H90284   2.017   6.769   3.875  1.8644 -0.9311 -0.2112
  669MOL0     H90285   1.901   6.551   4.049  1.4820 -0.2812 -0.5200
  669MOL0     H90286   1.820   6.640   3.908  2.8596  2.8858 -3.2511
  669MOL0     H90287   1.894   6.745   4.187  0.6878  0.0739 -0.4886
  669MOL0     H90288   1.740   6.709   4.141 -1.5126  1.8433 -0.8379
  669MOL0     H90289   1.874   6.908   3.964 -0.9660  0.0530 -1.3470
  669MOL0     H90290   1.706   6.865   3.994  0.5994 -0.5343 -0.0689
  669MOL0     H90291   1.919   6.998   4.170 -1.0034  0.6713  3.7098
  669MOL0     H90292   1.759   6.958   4.242 -1.5753  2.7421 -1.5060
  669MOL0     H90293   1.775   7.196   4.154 -1.4948  2.2476 -1.1011
  669MOL0     H90294   1.820   7.118   3.994 -0.1534 -1.6069 -0.5503
  669MOL0     H90295   2.516   6.645   3.866 -1.2688  0.4528 -1.0616
  669MOL0     H90296   2.705   6.540   3.768 -2.8347 -0.0732 -0.0434
  669MOL0     H90297   2.969   6.149   3.680  0.4306 -0.7664  0.9386
  669MOL0     H90298   3.162   6.086   3.556 -1.4885 -1.2676  1.7720
  669MOL0     H90299   4.853   5.681   4.036 -0.3517 -0.4957 -2.1115
  669MOL0     H90300   5.040   5.700   3.914  1.0988  0.2816 -0.2691
  669MOL0     H90301   5.539   5.738   3.847  0.5283 -0.1647 -0.3062
  669MOL0     H90302   5.716   5.773   3.661 -0.1385 -1.0363  1.9948
  669MOL0     H90303   5.570   5.872   3.282 -0.5903 -0.3323  1.7805
  669MOL0     H90304   5.728   5.833   3.235  0.0575  1.0665 -1.6042
  669MOL0     H90305   5.668   6.110   3.367 -1.5073  0.6590 -1.6724
  669MOL0     H90306   5.677   6.076   3.195  0.9612  0.5099 -0.1801
  669MOL0     H90307   5.908   5.965   3.262  2.0337  1.0698 -2.2093
  669MOL0     H90308   5.892   6.079   3.386 -2.4976 -2.3089  0.7347
  669MOL0     H90309   6.017   6.191   3.191 -0.0753  1.6366  0.1910
  669MOL0     H90310   5.873   6.173   3.092 -1.3365  1.2420 -0.4999
  669MOL0     H90311   5.785   6.519   3.310 -0.3366  0.5538  0.4774
  669MOL0     H90312   5.432   5.979   3.426  0.8372  0.8176  1.1947
  669MOL0     H90313   5.150   5.883   3.603 -0.3558 -0.4859 -0.7952
  669MOL0     H90314   5.194   6.046   3.643  1.2399 -0.0873  1.5141
  669MOL0     H90315   5.233   5.993   3.477  2.5395  3.7898  1.8189
  670MOL0     O90316   9.484   1.645   4.577  1.1932  0.0460  1.4139
  670MOL0     C90317   9.544   1.750   4.598 -0.4638 -0.3639  0.3028
  670MOL0     O90318   9.479   1.868   4.621  0.7988  0.1754 -0.2527
  670MOL0     C90319   9.338   1.883   4.621  0.4870 -0.0541  0.2751
  670MOL0     C90320   9.298   2.018   4.606  0.2000  0.0156  0.2891
  670MOL0     C90321   9.167   2.059   4.611  0.2938 -0.2085 -0.5177
  670MOL0     C90322   9.065   1.969   4.614  0.6048 -0.0150 -0.6300
  670MOL0     O90323   8.939   2.020   4.610  0.4770 -0.0448  0.4501
  670MOL0     C90324   8.836   1.933   4.557  0.2486  0.0022  0.2154
  670MOL0     C90325   8.693   1.993   4.575  0.1903  0.0630  0.2570
  670MOL0     C90326   8.661   2.127   4.504  0.0391 -0.8097  0.4755
  670MOL0     C90327   8.529   2.200   4.536 -0.1437  0.1405 -0.9510
  670MOL0     C90328   8.527   2.266   4.672 -0.0567 -0.5405  0.0971
  670MOL0     C90329   8.456   2.396   4.690 -0.0092 -0.9943  0.0520
  670MOL0     C90330   8.465   2.432   4.841  0.4278  0.4763  0.6264
  670MOL0     C90331   8.357   2.534   4.882  0.0083  0.7763 -0.4211
  670MOL0     N90332   8.369   2.657   4.811 -0.4916  1.1178 -0.0518
  670MOL0     C90333   8.426   2.766   4.855 -0.1576 -0.4537 -0.5556
  670MOL0     C90334   8.428   2.857   4.757 -1.0126  0.8226 -0.4937
  670MOL0     C90335   8.484   3.001   4.756  0.3316  0.9864  0.1226
  670MOL0     C90336   8.630   3.008   4.806 -0.3809 -0.3479 -0.4381
  670MOL0     C90337   8.728   2.939   4.717 -0.1356 -0.4775  0.1985
  670MOL0     C90338   8.809   3.033   4.625  0.3703  0.4734  0.2919
  670MOL0     O90339   8.717   3.078   4.525  0.1318  0.0966  0.4391
  670MOL0     C90340   8.755   3.110   4.399  0.1946  0.0919  0.9467
  670MOL0     C90341   8.893   3.098   4.345  0.7984  0.3594 -0.2198
  670MOL0     C90342   8.913   3.147   4.218  1.1205  0.7097  0.0380
  670MOL0     C90343   8.807   3.170   4.127  0.9074 -0.3771 -0.1919
  670MOL0     C90344   8.848   3.206   3.991  0.2752 -0.3962 -1.1043
  670MOL0     O90345   8.985   3.205   3.965  0.2424  0.9697 -0.3264
  670MOL0     C90346   9.025   3.214   3.832 -0.2194 -0.6781 -0.2817
  670MOL0     C90347   9.049   3.343   3.777  0.9022 -0.3939 -0.7744
  670MOL0     C90348   9.088   3.353   3.651 -0.7303  0.5188  0.4263
  670MOL0     C90349   9.110   3.243   3.567  0.6591  0.0153  0.6593
  670MOL0     O90350   9.148   3.248   3.440 -0.4662  0.1116 -0.3901
  670MOL0     C90351   9.279   3.205   3.412  0.3400 -0.7962 -0.1193
  670MOL0     C90352   9.379   3.309   3.479 -0.2541 -0.3572  0.4454
  670MOL0     C90353   9.529   3.276   3.449 -0.6594  0.0770  0.5989
  670MOL0     C90354   9.568   3.168   3.551 -0.7585 -0.2705  0.7824
  670MOL0     C90355   9.677   3.078   3.493 -0.7010  0.3198 -0.1728
  670MOL0     C90356   9.691   2.935   3.540  1.0974  0.2301  0.3177
  670MOL0     C90357   9.692   2.924   3.690 -0.3660 -0.0539  0.3869
  670MOL0     C90358   9.813   2.992   3.759  0.2523  1.4985  0.3544
  670MOL0    Cl90359   9.969   2.925   3.697 -0.4322  0.0406  0.2976
  670MOL0     C90360   9.093   3.114   3.620  0.5069  0.3734 -0.4975
  670MOL0     C90361   9.039   3.102   3.750 -0.4091 -0.6917  0.0798
  670MOL0     O90362   8.768   3.274   3.929  0.3142 -0.2146 -0.2686
  670MOL0     C90363   8.677   3.174   4.177  0.0868 -0.1118 -1.0073
  670MOL0     C90364   8.647   3.145   4.308 -0.3985 -0.4110 -0.4303
  670MOL0     N90365   8.343   2.807   4.652 -0.5638 -1.0112 -0.3150
  670MOL0     N90366   8.324   2.681   4.687  0.4757 -0.5944 -0.1126
  670MOL0     C90367   9.100   1.832   4.616  0.7962 -0.3106  0.4532
  670MOL0     C90368   9.233   1.786   4.624  0.1134 -0.2922  0.0226
  670MOL0     C90369   9.687   1.756   4.573  0.5313 -0.7454 -0.7291
  670MOL0     C90370   9.734   1.873   4.576 -0.3670 -0.4589 -0.6226
  670MOL0     C90371   9.877   1.890   4.570  0.3427 -0.2286 -0.1774
  670MOL0     C90372   9.969   1.781   4.559  0.1600 -0.1452  0.4580
  670MOL0     O90373  10.107   1.806   4.539  0.0183 -0.1841  0.2397
  670MOL0     C90374  10.201   1.692   4.524 -0.2101  0.1763  0.3040
  670MOL0     C90375  10.331   1.761   4.492  0.7226  1.0419  0.3591
  670MOL0     C90376  10.389   1.849   4.603 -0.6491 -0.0708  0.4866
  670MOL0     C90377  10.536   1.857   4.597  0.2013  0.1415 -0.3422
  670MOL0     C90378  10.599   1.940   4.490  0.7004  0.5009 -0.3782
  670MOL0     C90379  10.651   2.004   4.406  0.3101 -0.0641 -0.9220
  670MOL0     C90380   9.909   1.653   4.562  0.8840 -0.0879 -0.3546
  670MOL0     C90381   9.770   1.636   4.564  0.2636 -0.7484  0.1569
  670MOL0     C90382   9.722   1.494   4.554 -1.3224 -0.2673  0.2418
  670MOL0     H90383   9.365   2.103   4.593 -2.2370  1.7150 -2.2512
  670MOL0     H90384   9.138   2.164   4.610 -1.1248 -0.5514  0.3528
  670MOL0     H90385   8.852   1.906   4.452 -2.2883 -0.1345 -0.1968
  670MOL0     H90386   8.837   1.842   4.618  3.1108  0.0896  0.4254
  670MOL0     H90387   8.693   1.999   4.684  2.1407  1.9945  0.2340
  670MOL0     H90388   8.623   1.919   4.536  0.6935 -0.4675  0.3442
  670MOL0     H90389   8.649   2.114   4.396 -3.5558 -0.2565  0.6780
  670MOL0     H90390   8.743   2.194   4.532 -1.4790  1.8751 -1.0041
  670MOL0     H90391   8.509   2.276   4.460 -1.2217 -1.3725 -2.2291
  670MOL0     H90392   8.450   2.125   4.539  1.2517 -1.3978  1.1780
  670MOL0     H90393   8.459   2.198   4.725 -0.4193  1.7441  2.7913
  670MOL0     H90394   8.629   2.274   4.711  0.4794  0.8262 -1.4602
  670MOL0     H90395   8.498   2.476   4.629  0.4961 -0.6602  0.8169
  670MOL0     H90396   8.350   2.385   4.664 -0.1799  1.5120 -0.5633
  670MOL0     H90397   8.566   2.470   4.855  1.5623 -1.1674 -2.2186
  670MOL0     H90398   8.456   2.344   4.906  2.3287 -1.8475 -2.0029
  670MOL0     H90399   8.259   2.492   4.861  1.4657 -3.4373  0.2702
  670MOL0     H90400   8.364   2.552   4.989  0.8144 -0.0881 -0.3136
  670MOL0     H90401   8.479   2.788   4.948 -1.0767  3.8290 -0.8250
  670MOL0     H90402   8.489   3.052   4.659  4.4087 -0.2680 -0.5581
  670MOL0     H90403   8.417   3.064   4.815 -2.0621 -2.1999  1.0925
  670MOL0     H90404   8.670   3.108   4.824  0.4378 -0.4787 -1.4327
  670MOL0     H90405   8.622   2.961   4.904  2.2016  0.1042  0.0627
  670MOL0     H90406   8.678   2.864   4.654  1.4829 -0.0234 -1.7018
  670MOL0     H90407   8.803   2.882   4.773  0.8752  0.8303  0.2014
  670MOL0     H90408   8.900   2.983   4.590  2.4748  1.1681  4.2060
  670MOL0     H90409   8.856   3.117   4.676  1.6463 -1.1952  2.0292
  670MOL0     H90410   8.983   3.059   4.392  1.1259 -3.6463 -3.4928
  670MOL0     H90411   9.018   3.157   4.193  1.0680  2.4672  0.4451
  670MOL0     H90412   9.021   3.428   3.838 -2.4826 -0.8860 -1.4063
  670MOL0     H90413   9.103   3.454   3.614  1.2545  0.5840  1.2844
  670MOL0     H90414   9.295   3.108   3.460  1.7645  0.7506  2.9064
  670MOL0     H90415   9.296   3.191   3.305 -0.0050  1.0338 -0.4596
  670MOL0     H90416   9.370   3.402   3.422 -0.7272 -1.0867 -0.7107
  670MOL0     H90417   9.362   3.333   3.584 -1.5705  1.7509 -0.1833
  670MOL0     H90418   9.520   3.238   3.347 -2.3370 -1.5840  1.2937
  670MOL0     H90419   9.587   3.369   3.448 -1.2245  0.4579  1.5982
  670MOL0     H90420   9.488   3.094   3.565  0.1186 -1.4360 -0.1358
  670MOL0     H90421   9.589   3.213   3.648  1.8762  3.5023 -1.2845
  670MOL0     H90422   9.775   3.122   3.517 -0.9003 -0.4468  2.3502
  670MOL0     H90423   9.670   3.066   3.385  1.1676  1.3290 -0.4662
  670MOL0     H90424   9.602   2.885   3.500 -0.8266  3.5385  0.1120
  670MOL0     H90425   9.770   2.875   3.494  1.5282  0.2882  0.9666
  670MOL0     H90426   9.684   2.819   3.717  2.6731 -0.0844  1.5364
  670MOL0     H90427   9.604   2.951   3.749 -0.0815 -1.9789  1.7809
  670MOL0     H90428   9.797   3.096   3.732 -2.1877  1.5071  1.5188
  670MOL0     H90429   9.809   2.978   3.868  2.8361 -4.1064  0.0876
  670MOL0     H90430   9.105   3.010   3.590 -1.9253 -0.2387  0.3629
  670MOL0     H90431   9.021   3.004   3.795 -2.0423  0.7759  2.9244
  670MOL0     H90432   8.596   3.201   4.110 -1.7056 -2.0936  0.2158
  670MOL0     H90433   8.548   3.141   4.352 -0.5952 -0.6812 -0.8864
  670MOL0     H90434   9.034   1.750   4.591  0.9963 -0.8075  1.5125
  670MOL0     H90435   9.259   1.681   4.631  0.9479 -0.0752  0.2105
  670MOL0     H90436   9.678   1.964   4.597 -0.0286 -0.7623  1.8616
  670MOL0     H90437   9.923   1.989   4.567  1.2494 -0.6588 -0.9754
  670MOL0     H90438  10.162   1.635   4.439  0.1363  0.2413  0.0994
  670MOL0     H90439  10.204   1.625   4.611  2.0300 -0.8036 -0.4677
  670MOL0     H90440  10.318   1.807   4.394  1.0852 -0.1788 -0.2857
  670MOL0     H90441  10.394   1.673   4.476 -3.9517 -3.2550  2.6428
  670MOL0     H90442  10.356   1.797   4.694 -1.0750 -1.8237 -0.6109
  670MOL0     H90443  10.352   1.952   4.607  1.4061  0.7796 -0.9470
  670MOL0     H90444  10.572   1.893   4.694  1.0483 -1.4122 -0.0509
  670MOL0     H90445  10.569   1.755   4.576 -0.9594 -0.1460 -0.8244
  670MOL0     H90446  10.703   2.079   4.350  1.3007  1.2574  1.5714
  670MOL0     H90447   9.978   1.569   4.571  0.3040 -0.7637 -1.8446
  670MOL0     H90448   9.810   1.430   4.543 -0.4948  0.4934  2.0368
  670MOL0     H90449   9.675   1.466   4.649 -0.2385  3.2896  2.0038
  670MOL0     H90450   9.653   1.492   4.470 -0.7241 -2.1588 -0.2441
  671MOL0     O90451   0.730   5.668   1.482  0.2093 -0.2399  0.0397
  671MOL0     C90452   0.631   5.641   1.423 -0.4047  0.2390 -0.3084
  671MOL0     O90453   0.632   5.602   1.290  0.0865  0.0766 -0.4093
  671MOL0     C90454   0.753   5.555   1.239  0.1891  0.0666 -0.4807
  671MOL0     C90455   0.780   5.420   1.247 -0.3126  0.6128  1.1403
  671MOL0     C90456   0.903   5.372   1.190 -0.3749  0.1368 -0.3901
  671MOL0     C90457   0.985   5.467   1.117 -0.5827 -0.0023  0.1980
  671MOL0     O90458   1.104   5.434   1.050  0.0492  0.0041  0.0038
  671MOL0     C90459   1.217   5.397   1.132  0.0643 -0.2239 -0.6226
  671MOL0     C90460   1.352   5.410   1.073  0.0563 -0.3550 -0.5723
  671MOL0     C90461   1.351   5.330   0.941 -0.9628  1.0381  0.1454
  671MOL0     C90462   1.492   5.346   0.881 -0.1101  0.0921  0.2777
  671MOL0     C90463   1.507   5.297   0.727  0.2984 -0.9309 -0.1953
  671MOL0     C90464   1.509   5.143   0.713  1.1459 -0.3967 -0.1418
  671MOL0     C90465   1.551   5.131   0.569  0.3644 -0.1500 -0.5483
  671MOL0     C90466   1.595   4.987   0.545 -0.4276 -0.4904 -0.3944
  671MOL0     N90467   1.481   4.895   0.531 -0.4673 -0.3989 -0.4125
  671MOL0     C90468   1.393   4.905   0.429  0.3313  0.1980  1.6452
  671MOL0     C90469   1.310   4.802   0.457 -0.7179 -0.6828  0.0792
  671MOL0     C90470   1.194   4.749   0.374 -0.1267 -0.5619  0.2353
  671MOL0     C90471   1.065   4.844   0.372 -0.0643 -0.1300  0.5214
  671MOL0     C90472   1.015   4.869   0.513 -0.0727 -1.0287 -0.8894
  671MOL0     C90473   0.874   4.915   0.516  0.0498 -1.6770 -0.0634
  671MOL0     O90474   0.795   4.863   0.410  0.0977 -0.2858  0.6488
  671MOL0     C90475   0.667   4.903   0.372  0.0224  0.0329  0.2133
  671MOL0     C90476   0.615   4.887   0.242  0.3951  0.0831  0.0375
  671MOL0     C90477   0.478   4.909   0.218  0.1477 -0.3137  0.4950
  671MOL0     C90478   0.394   4.960   0.319 -0.2890 -0.2176  0.6019
  671MOL0     C90479   0.254   5.010   0.290  0.4409  0.1541  0.3125
  671MOL0     O90480   0.208   4.980   0.176 -0.0127 -0.1248 -0.2316
  671MOL0     C90481   0.075   5.018   0.144 -0.6673 -0.6322 -0.0143
  671MOL0     C90482   0.052   5.072   0.012  0.3470 -0.4657  0.4020
  671MOL0     C90483  -0.077   5.101  -0.040  0.5033 -0.1446  1.1876
  671MOL0     C90484  -0.194   5.088   0.038  0.0420 -0.1536  0.0275
  671MOL0     O90485  -0.303   5.112  -0.032  0.9019  0.0426 -0.0279
  671MOL0     C90486  -0.438   5.094   0.043 -1.6489 -0.0599  0.5258
  671MOL0     C90487  -0.541   5.123  -0.065 -1.3385  0.0347 -0.6984
  671MOL0     C90488  -0.685   5.105  -0.013  0.1119  0.2363  0.4600
  671MOL0     C90489  -0.734   4.963   0.004  0.1327  0.5315  0.4775
  671MOL0     C90490  -0.870   4.976   0.093 -0.0055 -1.2878  0.0064
  671MOL0     C90491  -0.912   4.832   0.130  0.1659  0.4995 -0.5323
  671MOL0     C90492  -1.046   4.832   0.213 -0.0660 -0.0122  0.3594
  671MOL0     C90493  -1.021   4.875   0.368  0.7283 -0.0394 -0.5774
  671MOL0    Cl90494  -1.162   4.838   0.477  0.2853 -0.0940  0.1164
  671MOL0     C90495  -0.174   5.044   0.167 -0.4496 -0.0412 -0.2478
  671MOL0     C90496  -0.041   5.000   0.214  0.7729 -0.4794 -0.3185
  671MOL0     O90497   0.197   5.061   0.386  0.8431  0.4602 -0.5124
  671MOL0     C90498   0.444   4.976   0.453 -0.0981 -0.2836  0.2040
  671MOL0     C90499   0.579   4.945   0.476  0.3054  0.2322  1.2452
  671MOL0     N90500   1.351   4.732   0.572 -0.8390 -0.6684  0.0889
  671MOL0     N90501   1.453   4.796   0.618  0.7837 -0.2283 -0.5616
  671MOL0     C90502   0.936   5.598   1.078 -0.8074 -0.9894 -0.0846
  671MOL0     C90503   0.823   5.642   1.149 -0.4123 -0.6288  0.8122
  671MOL0     C90504   0.502   5.623   1.497  0.4157 -0.2767  0.6267
  671MOL0     C90505   0.393   5.544   1.448 -0.7261  0.9637 -1.2412
  671MOL0     C90506   0.275   5.518   1.525  0.3118 -0.6558  1.4172
  671MOL0     C90507   0.263   5.558   1.654  1.6158  0.8738 -0.5991
  671MOL0     O90508   0.144   5.549   1.729  0.0954  0.2403  0.1761
  671MOL0     C90509   0.049   5.443   1.701  0.3398  0.0010  0.4790
  671MOL0     C90510  -0.091   5.462   1.769 -0.2941 -0.3579  1.0713
  671MOL0     C90511  -0.157   5.586   1.718 -0.3564  0.0057  0.4312
  671MOL0     C90512  -0.279   5.612   1.805 -0.3262 -0.5356 -0.0509
  671MOL0     C90513  -0.390   5.540   1.752  0.6036  0.1149  0.2440
  671MOL0     C90514  -0.485   5.472   1.711  0.3648 -0.6406  0.0491
  671MOL0     C90515   0.365   5.638   1.709  0.8761 -0.4373  0.2071
  671MOL0     C90516   0.477   5.681   1.633  0.7146  0.3140  0.1894
  671MOL0     C90517   0.584   5.759   1.708  0.4540  0.2839  0.0183
  671MOL0     H90518   0.718   5.340   1.285 -1.1642 -1.1866 -3.3623
  671MOL0     H90519   0.925   5.266   1.185  3.1485  0.7945 -2.5394
  671MOL0     H90520   1.211   5.474   1.209  2.5440 -1.2198  0.6691
  671MOL0     H90521   1.197   5.305   1.187  0.9214  0.4512  0.8771
  671MOL0     H90522   1.426   5.366   1.140  0.4620  2.3633  0.8973
  671MOL0     H90523   1.371   5.517   1.063  0.0323 -0.1611  1.1019
  671MOL0     H90524   1.284   5.359   0.860  1.1628  2.2001 -1.2990
  671MOL0     H90525   1.339   5.222   0.947 -2.0685  1.1310 -0.2221
  671MOL0     H90526   1.507   5.455   0.877 -2.7243  0.5356  1.0040
  671MOL0     H90527   1.566   5.297   0.946  0.0157 -0.4597 -0.2760
  671MOL0     H90528   1.434   5.344   0.660 -0.7225 -1.4906  0.4825
  671MOL0     H90529   1.605   5.338   0.701  0.1435  0.5541  1.3833
  671MOL0     H90530   1.583   5.097   0.778  2.9602 -0.9627 -2.4916
  671MOL0     H90531   1.406   5.108   0.724  0.7918  0.1346 -1.5154
  671MOL0     H90532   1.640   5.195   0.564  0.9095 -0.4639  2.8404
  671MOL0     H90533   1.480   5.161   0.491  3.4820  0.6556 -3.3762
  671MOL0     H90534   1.663   4.994   0.459  0.9116  0.6523  0.7033
  671MOL0     H90535   1.652   4.949   0.630 -0.8043 -3.8726 -1.4889
  671MOL0     H90536   1.391   4.964   0.337 -3.1692  0.1955  1.5948
  671MOL0     H90537   1.230   4.743   0.270  0.1930  1.1299  0.2134
  671MOL0     H90538   1.177   4.645   0.401  4.0272 -1.6818 -0.6611
  671MOL0     H90539   1.085   4.935   0.315 -0.2417  0.7700  1.8567
  671MOL0     H90540   0.994   4.803   0.299  0.3121 -0.0665  0.1121
  671MOL0     H90541   1.075   4.953   0.550 -1.4400  0.0987 -1.1383
  671MOL0     H90542   1.038   4.787   0.581  0.8391 -1.3924 -1.6201
  671MOL0     H90543   0.866   5.024   0.525 -0.8558 -1.6739 -0.7892
  671MOL0     H90544   0.821   4.874   0.603 -1.3267 -0.7665 -0.4396
  671MOL0     H90545   0.686   4.856   0.165  1.3146  1.5192  0.2783
  671MOL0     H90546   0.448   4.890   0.115 -0.6356 -2.4705  1.0799
  671MOL0     H90547   0.137   5.084  -0.053 -0.5029  2.1706 -0.3439
  671MOL0     H90548  -0.092   5.142  -0.140 -2.1691 -1.5261  0.9321
  671MOL0     H90549  -0.447   4.991   0.078 -1.7288 -0.5870 -0.9966
  671MOL0     H90550  -0.446   5.158   0.131 -0.2931 -0.4758  0.9644
  671MOL0     H90551  -0.539   5.229  -0.091 -3.4075  0.0078 -1.0884
  671MOL0     H90552  -0.520   5.066  -0.156  3.1760  1.3474 -0.7511
  671MOL0     H90553  -0.699   5.176   0.069 -1.4476  2.7038 -1.7929
  671MOL0     H90554  -0.741   5.151  -0.094  0.9468 -0.3917 -0.4908
  671MOL0     H90555  -0.657   4.909   0.061  1.8599  3.3064  0.9929
  671MOL0     H90556  -0.749   4.904  -0.087  2.0751 -0.4332  0.7149
  671MOL0     H90557  -0.953   5.031   0.046 -2.1696 -4.8561 -0.7659
  671MOL0     H90558  -0.852   5.027   0.188  2.7949  0.5752 -1.3918
  671MOL0     H90559  -0.921   4.769   0.041  0.6569 -3.5681  2.0302
  671MOL0     H90560  -0.829   4.781   0.181  1.3313  1.3299 -1.5308
  671MOL0     H90561  -1.100   4.737   0.207  1.5216 -0.9319  0.2094
  671MOL0     H90562  -1.106   4.919   0.182 -1.9894 -0.5373  2.3746
  671MOL0     H90563  -0.934   4.816   0.399 -0.0042 -0.4991  0.6851
  671MOL0     H90564  -0.992   4.978   0.388 -1.6369  1.0218 -2.0755
  671MOL0     H90565  -0.263   5.018   0.223  1.1616 -4.1250  0.7785
  671MOL0     H90566  -0.046   4.956   0.313 -3.9211  0.8105  0.2385
  671MOL0     H90567   0.372   5.000   0.530 -1.8402  1.0460 -1.7074
  671MOL0     H90568   0.607   4.956   0.581  0.9181  0.4444  1.0665
  671MOL0     H90569   0.991   5.656   1.004  1.2930 -1.0742  1.3416
  671MOL0     H90570   0.790   5.744   1.131  2.5008  0.0657 -1.5032
  671MOL0     H90571   0.402   5.488   1.355  0.6948 -0.9958 -0.0086
  671MOL0     H90572   0.206   5.455   1.470  0.0842  1.4568 -0.9418
  671MOL0     H90573   0.092   5.348   1.733 -1.5755 -1.3334 -0.7209
  671MOL0     H90574   0.028   5.440   1.594 -3.7563  1.3760  1.0891
  671MOL0     H90575  -0.078   5.453   1.877  0.3236 -1.6640  0.9099
  671MOL0     H90576  -0.163   5.385   1.738  1.3192 -0.8980 -1.7670
  671MOL0     H90577  -0.189   5.576   1.614  3.1696 -1.0601 -0.6950
  671MOL0     H90578  -0.081   5.664   1.710  0.8929 -1.3511 -2.0418
  671MOL0     H90579  -0.270   5.601   1.913  0.7051  0.1861 -0.0463
  671MOL0     H90580  -0.308   5.714   1.778 -3.1253 -1.4968 -1.1332
  671MOL0     H90581  -0.567   5.417   1.670  0.6441 -3.4464  2.9180
  671MOL0     H90582   0.350   5.668   1.812  3.8338 -0.2765  0.6800
  671MOL0     H90583   0.687   5.722   1.704  0.8384  1.2442  0.7937
  671MOL0     H90584   0.592   5.858   1.663  2.0988 -0.1476 -0.7120
  671MOL0     H90585   0.565   5.773   1.815 -0.2440  2.8998 -0.3726
  672MOL0     O90586   3.376   6.855   9.566  0.3214 -0.6134 -0.0128
  672MOL0     C90587   3.315   6.916   9.481  0.8880 -0.0716 -0.2800
  672MOL0     O90588   3.380   6.984   9.379  0.1650 -0.0503 -0.1402
  672MOL0     C90589   3.508   6.950   9.349 -0.0313 -0.7849  0.3581
  672MOL0     C90590   3.613   7.041   9.351 -1.0653  0.0605  0.3909
  672MOL0     C90591   3.745   6.999   9.306  0.4448  0.9408 -0.6173
  672MOL0     C90592   3.769   6.867   9.260  0.0004 -0.9375  0.6687
  672MOL0     O90593   3.893   6.825   9.217 -0.7630  0.1515 -0.4200
  672MOL0     C90594   3.932   6.692   9.256  0.3620 -0.3712  0.2246
  672MOL0     C90595   4.076   6.684   9.295 -0.1556  0.3375 -0.1609
  672MOL0     C90596   4.176   6.732   9.188  0.0863 -0.5583  0.0542
  672MOL0     C90597   4.154   6.673   9.046 -0.3568 -0.2343  0.7023
  672MOL0     C90598   4.286   6.673   8.959  0.2863 -0.0546  0.1499
  672MOL0     C90599   4.398   6.580   9.015  0.0089 -0.0066 -0.2721
  672MOL0     C90600   4.539   6.567   8.940  0.0417 -0.1986  0.1776
  672MOL0     C90601   4.611   6.440   8.975  0.1155 -0.2886  0.6139
  672MOL0     N90602   4.743   6.434   8.910 -0.7163  0.3685  0.3231
  672MOL0     C90603   4.853   6.471   8.979 -0.5422  0.5087 -0.3291
  672MOL0     C90604   4.959   6.448   8.894 -1.4954 -0.9855 -0.4280
  672MOL0     C90605   5.099   6.487   8.933 -0.3276 -0.1423 -0.0935
  672MOL0     C90606   5.205   6.441   8.828 -0.4345 -0.4706 -0.2383
  672MOL0     C90607   5.347   6.504   8.864 -0.3249  0.5295  1.2107
  672MOL0     C90608   5.468   6.420   8.807 -0.7835 -0.1141  0.1871
  672MOL0     O90609   5.487   6.463   8.671 -0.5492  0.1728  0.6978
  672MOL0     C90610   5.529   6.373   8.575  0.5057  0.0348 -0.1433
  672MOL0     C90611   5.457   6.364   8.461  0.6304  0.5301 -0.3189
  672MOL0     C90612   5.479   6.261   8.366 -0.4783 -1.0067 -0.8216
  672MOL0     C90613   5.561   6.149   8.396  0.3925 -0.6574 -0.9643
  672MOL0     C90614   5.578   6.042   8.301 -0.4384  0.8971 -0.0814
  672MOL0     O90615   5.698   5.968   8.295 -0.1898  0.6149  0.0840
  672MOL0     C90616   5.704   5.833   8.268 -1.3746 -0.4713 -0.5283
  672MOL0     C90617   5.600   5.749   8.236 -0.0897  0.4191 -0.8121
  672MOL0     C90618   5.624   5.608   8.223  0.4560  0.3670 -0.3218
  672MOL0     C90619   5.753   5.554   8.234  0.4733 -0.6258 -0.6622
  672MOL0     O90620   5.760   5.420   8.198 -0.0177 -0.2159  0.3391
  672MOL0     C90621   5.891   5.369   8.236  0.3008  0.3290 -0.4845
  672MOL0     C90622   5.894   5.231   8.290 -0.1434  0.0846  0.0283
  672MOL0     C90623   5.810   5.135   8.197 -0.2614  0.6098 -0.0121
  672MOL0     C90624   5.829   4.989   8.245 -0.5583  1.0908 -0.1333
  672MOL0     C90625   5.953   4.922   8.186 -0.2622 -0.2250  0.4127
  672MOL0     C90626   5.966   4.782   8.253  0.2875 -1.0870  0.3040
  672MOL0     C90627   6.078   4.702   8.203 -0.5375  0.9736  1.0644
  672MOL0     C90628   6.064   4.558   8.254 -1.0073 -0.5141 -0.2047
  672MOL0    Cl90629   6.100   4.567   8.429  0.2916 -0.0794  0.0842
  672MOL0     C90630   5.857   5.646   8.249 -0.2541  0.1654  0.3467
  672MOL0     C90631   5.837   5.781   8.272 -0.1471  0.1498 -0.4296
  672MOL0     O90632   5.487   6.027   8.226  0.4901  0.2826  0.0140
  672MOL0     C90633   5.636   6.153   8.519  0.7715  0.8711  0.0575
  672MOL0     C90634   5.618   6.260   8.605  0.6947  0.2452  0.4107
  672MOL0     N90635   4.903   6.398   8.775  0.4761  0.7371 -0.1638
  672MOL0     N90636   4.781   6.386   8.789  0.1154  0.3758  0.3438
  672MOL0     C90637   3.654   6.784   9.239  0.3029 -0.0337 -0.0659
  672MOL0     C90638   3.524   6.816   9.296 -0.0953 -0.5549 -0.4413
  672MOL0     C90639   3.168   6.949   9.477 -0.1003  0.1795  0.4317
  672MOL0     C90640   3.108   6.985   9.355 -0.0468 -1.0040 -0.3846
  672MOL0     C90641   2.968   6.992   9.333 -0.1678  0.0544 -0.2667
  672MOL0     C90642   2.884   6.981   9.437  0.1182  0.1831 -0.8692
  672MOL0     O90643   2.749   6.996   9.415 -0.3124  0.8348  0.3834
  672MOL0     C90644   2.666   7.063   9.514 -0.1567  0.3925  0.1724
  672MOL0     C90645   2.572   6.970   9.597 -0.0510  0.6804 -0.4254
  672MOL0     C90646   2.500   7.053   9.701  0.1182 -0.7426 -0.3232
  672MOL0     C90647   2.365   7.006   9.734 -0.2791  0.3354 -0.6263
  672MOL0     C90648   2.295   7.098   9.827 -0.8400  0.0154 -0.3726
  672MOL0     C90649   2.225   7.170   9.897 -0.7175 -0.6092 -0.3967
  672MOL0     C90650   2.936   6.945   9.563 -0.1730  0.0912  0.6156
  672MOL0     C90651   3.076   6.937   9.583 -0.0378 -0.2057 -0.0876
  672MOL0     C90652   3.129   6.919   9.717 -0.2477 -0.2396  0.6208
  672MOL0     H90653   3.594   7.135   9.401 -0.5947 -0.1778  1.0309
  672MOL0     H90654   3.823   7.076   9.301  0.7347  0.5986 -3.5484
  672MOL0     H90655   3.892   6.659   9.352  0.1884 -0.1620  0.2266
  672MOL0     H90656   3.906   6.634   9.167  1.3965  2.8897 -2.4517
  672MOL0     H90657   4.095   6.588   9.343  0.2710  0.4379 -0.1254
  672MOL0     H90658   4.084   6.765   9.369 -1.6873  1.1360 -0.8202
  672MOL0     H90659   4.272   6.701   9.229  1.2745 -2.3128 -3.6438
  672MOL0     H90660   4.168   6.841   9.180 -0.8830 -0.6220 -0.0209
  672MOL0     H90661   4.100   6.581   9.025 -0.8679  0.1942  0.0753
  672MOL0     H90662   4.083   6.744   9.001 -0.8285  0.9747  3.1679
  672MOL0     H90663   4.272   6.653   8.852  1.2149  0.8159 -0.1485
  672MOL0     H90664   4.334   6.771   8.965 -1.4768  0.8233  0.5345
  672MOL0     H90665   4.411   6.603   9.121  1.0821 -2.3813  0.1603
  672MOL0     H90666   4.341   6.487   9.006 -1.7739  1.2288 -3.6193
  672MOL0     H90667   4.593   6.662   8.942  1.5258 -0.9994  1.1087
  672MOL0     H90668   4.512   6.552   8.836  0.6785  1.2729 -0.2248
  672MOL0     H90669   4.627   6.426   9.082  0.6640 -0.1091  0.5569
  672MOL0     H90670   4.559   6.355   8.930  1.5109 -0.6826 -0.3251
  672MOL0     H90671   4.866   6.513   9.078  1.2112  1.7536 -1.0345
  672MOL0     H90672   5.101   6.593   8.958 -0.4861  0.0092 -0.7105
  672MOL0     H90673   5.115   6.440   9.031 -0.1733  1.5885  0.7510
  672MOL0     H90674   5.218   6.335   8.848  0.0825 -0.2990  0.3512
  672MOL0     H90675   5.174   6.454   8.724  2.1152  0.7325 -0.9130
  672MOL0     H90676   5.345   6.523   8.971 -1.9643  1.1376  1.0955
  672MOL0     H90677   5.347   6.598   8.808 -4.1170 -1.2097 -2.2524
  672MOL0     H90678   5.454   6.312   8.796  2.0762 -0.3354 -3.2748
  672MOL0     H90679   5.558   6.444   8.865  1.8321 -4.0558 -1.7152
  672MOL0     H90680   5.385   6.439   8.429 -0.6045  0.1813  1.5240
  672MOL0     H90681   5.427   6.267   8.271  1.2483 -0.2933 -1.7596
  672MOL0     H90682   5.497   5.784   8.226  0.0836  0.6152 -2.1184
  672MOL0     H90683   5.541   5.543   8.196  0.8087  0.5778 -2.0035
  672MOL0     H90684   5.953   5.385   8.148  0.7822 -1.4840 -0.5128
  672MOL0     H90685   5.935   5.423   8.320  1.2096 -1.0107 -0.0607
  672MOL0     H90686   5.996   5.193   8.305 -0.5575 -2.2708 -2.3232
  672MOL0     H90687   5.844   5.233   8.387 -3.7524  2.4900 -1.6810
  672MOL0     H90688   5.701   5.148   8.200 -0.8002 -2.6715  3.2802
  672MOL0     H90689   5.847   5.146   8.095 -0.4771 -2.0589 -0.4453
  672MOL0     H90690   5.748   4.924   8.211  1.5551 -1.2338 -0.9563
  672MOL0     H90691   5.843   4.982   8.353  2.5733 -3.5967 -0.5556
  672MOL0     H90692   6.041   4.978   8.216  0.3631 -1.2603  0.5482
  672MOL0     H90693   5.953   4.925   8.077  0.4907  0.7803  0.4215
  672MOL0     H90694   5.986   4.791   8.360 -2.0428 -3.8394  1.1306
  672MOL0     H90695   5.876   4.720   8.242  0.8484 -1.6648 -1.2826
  672MOL0     H90696   6.176   4.745   8.226  1.7693 -3.0415 -0.2838
  672MOL0     H90697   6.072   4.702   8.094 -0.5227  1.9791  1.0559
  672MOL0     H90698   5.963   4.524   8.230 -0.6458 -0.7928 -1.4230
  672MOL0     H90699   6.129   4.495   8.193 -1.1188  0.5791 -1.5055
  672MOL0     H90700   5.956   5.603   8.238 -0.2546  0.6650 -2.2322
  672MOL0     H90701   5.921   5.849   8.278  1.7932 -1.6772 -3.6294
  672MOL0     H90702   5.706   6.072   8.539  2.5005  1.7272 -2.1645
  672MOL0     H90703   5.673   6.252   8.698 -2.5558 -0.8216  2.4226
  672MOL0     H90704   3.666   6.694   9.180  2.2645  0.4531 -0.4697
  672MOL0     H90705   3.435   6.759   9.272 -1.2574  1.0811 -0.1880
  672MOL0     H90706   3.173   7.005   9.270  1.6205 -2.2869  0.5192
  672MOL0     H90707   2.919   7.032   9.245 -3.8081  4.3348  3.1802
  672MOL0     H90708   2.597   7.108   9.442 -0.9139 -0.2183  0.5116
  672MOL0     H90709   2.728   7.129   9.575  1.2640 -0.4167 -0.3564
  672MOL0     H90710   2.636   6.891   9.637 -0.1470 -0.0689 -1.7133
  672MOL0     H90711   2.494   6.929   9.532 -2.8188  2.4354  1.5400
  672MOL0     H90712   2.485   7.157   9.669  1.2304 -1.1285 -2.2395
  672MOL0     H90713   2.560   7.057   9.792  1.6021  1.9577 -1.2962
  672MOL0     H90714   2.307   6.997   9.641 -2.0639  0.0795  0.4535
  672MOL0     H90715   2.362   6.900   9.764 -0.0367 -0.7550 -3.9856
  672MOL0     H90716   2.182   7.245   9.961  0.2309  2.1461 -2.7507
  672MOL0     H90717   2.867   6.938   9.646  0.7636 -0.7972  1.3346
  672MOL0     H90718   3.042   6.927   9.783 -1.2351  2.5412 -0.8546
  672MOL0     H90719   3.180   6.822   9.713  0.1723 -0.0330  0.9401
  672MOL0     H90720   3.204   6.996   9.736  2.6826 -2.6459 -0.3615
  673MOL0     O90721   6.888   0.209   7.493 -0.4402 -0.3828  0.8897
  673MOL0     C90722   6.941   0.285   7.408 -0.2036 -0.2819  0.3577
  673MOL0     O90723   7.058   0.264   7.341  0.2927 -0.1335 -0.0817
  673MOL0     C90724   7.122   0.142   7.346 -1.2520 -0.1027 -1.0128
  673MOL0     C90725   7.087   0.019   7.392  0.1745  0.3752 -0.4819
  673MOL0     C90726   7.175  -0.090   7.399  0.2498 -0.3510 -0.4217
  673MOL0     C90727   7.306  -0.082   7.341  0.4245  0.8164  0.4505
  673MOL0     O90728   7.367  -0.205   7.317 -0.1723  0.3108 -0.1294
  673MOL0     C90729   7.472  -0.198   7.215  0.4042 -0.0111 -0.8240
  673MOL0     C90730   7.528  -0.341   7.216  0.0867 -0.5958 -0.1652
  673MOL0     C90731   7.642  -0.347   7.111  0.3466  0.2825  0.2803
  673MOL0     C90732   7.746  -0.460   7.136 -0.6003 -0.7503 -0.1351
  673MOL0     C90733   7.865  -0.464   7.033 -0.1782 -0.2779 -0.1310
  673MOL0     C90734   7.847  -0.542   6.903 -0.1077  0.1262 -0.4971
  673MOL0     C90735   7.969  -0.514   6.801 -0.2540 -0.5743  0.1324
  673MOL0     C90736   7.924  -0.555   6.661  0.2770  0.6167  0.1871
  673MOL0     N90737   7.929  -0.702   6.638 -1.9226 -0.2311 -0.2681
  673MOL0     C90738   7.828  -0.788   6.626 -0.1712  0.4623  0.6082
  673MOL0     C90739   7.885  -0.905   6.606 -0.5149  0.1409  0.6366
  673MOL0     C90740   7.811  -1.042   6.604  0.7705 -0.6364 -0.9887
  673MOL0     C90741   7.704  -1.038   6.716  0.0702  0.0234 -0.9758
  673MOL0     C90742   7.587  -1.142   6.687  0.0318 -0.2590  0.2433
  673MOL0     C90743   7.473  -1.116   6.778 -0.4935  0.0095  0.4620
  673MOL0     O90744   7.401  -1.007   6.723  0.2522  0.2550  0.1608
  673MOL0     C90745   7.279  -0.986   6.787 -0.4236 -0.3345 -0.2715
  673MOL0     C90746   7.206  -0.898   6.712 -0.9674  0.2601  0.1907
  673MOL0     C90747   7.093  -0.836   6.753  0.1701  1.1245  1.2624
  673MOL0     C90748   7.034  -0.885   6.872 -0.4947  0.2943 -1.0942
  673MOL0     C90749   6.905  -0.828   6.922 -0.5303  0.3304  0.0788
  673MOL0     O90750   6.850  -0.727   6.847 -0.3518  0.6978 -0.9559
  673MOL0     C90751   6.760  -0.643   6.911  0.7795  0.0369 -0.7293
  673MOL0     C90752   6.792  -0.583   7.035  0.0232 -0.0392 -0.5459
  673MOL0     C90753   6.699  -0.497   7.094  0.3977 -0.5786  0.9972
  673MOL0     C90754   6.577  -0.468   7.030 -0.0426  0.3312 -0.4897
  673MOL0     O90755   6.503  -0.376   7.098  0.0144 -0.6091  0.3935
  673MOL0     C90756   6.394  -0.304   7.043 -0.1484 -0.1380 -0.0906
  673MOL0     C90757   6.328  -0.227   7.161 -0.1711  1.3314  0.8269
  673MOL0     C90758   6.181  -0.175   7.136 -0.1507 -0.0191  0.1906
  673MOL0     C90759   6.199  -0.025   7.099  0.2398 -0.5009 -0.2101
  673MOL0     C90760   6.066   0.016   7.019 -0.5632  0.5404 -0.1595
  673MOL0     C90761   6.033   0.169   6.998 -0.7098 -0.1314 -0.6675
  673MOL0     C90762   5.893   0.169   6.938  0.0208  0.5147 -0.1510
  673MOL0     C90763   5.799   0.284   6.990  0.1181 -0.1068  0.4166
  673MOL0    Cl90764   5.749   0.268   7.164  0.1331 -0.1524  0.0204
  673MOL0     C90765   6.541  -0.532   6.909 -0.4001  1.0963  0.2851
  673MOL0     C90766   6.637  -0.623   6.848  0.7265 -0.8319  0.7035
  673MOL0     O90767   6.854  -0.875   7.021 -0.5519  0.2515 -0.1798
  673MOL0     C90768   7.108  -0.970   6.961  0.1392 -0.0689  1.2532
  673MOL0     C90769   7.229  -1.020   6.919 -0.1143 -0.8882 -0.0015
  673MOL0     N90770   8.023  -0.887   6.601 -0.0759 -0.5530  0.1988
  673MOL0     N90771   8.043  -0.762   6.591 -0.8801  0.4689  0.8986
  673MOL0     C90772   7.340   0.045   7.283  0.0614  0.3793  0.3687
  673MOL0     C90773   7.247   0.153   7.294  0.6286  0.2760  0.2135
  673MOL0     C90774   6.870   0.412   7.384  0.2397 -0.3815  0.6422
  673MOL0     C90775   6.784   0.461   7.480 -0.3092 -0.4510  0.1557
  673MOL0     C90776   6.690   0.568   7.454  0.3188 -0.4942 -0.2484
  673MOL0     C90777   6.684   0.621   7.322 -0.1374  0.4640 -0.3870
  673MOL0     O90778   6.596   0.709   7.283  0.3522 -0.6573 -0.3174
  673MOL0     C90779   6.470   0.728   7.345 -0.4592  1.0974  0.1850
  673MOL0     C90780   6.389   0.787   7.227  0.6451 -0.7226  0.5517
  673MOL0     C90781   6.258   0.849   7.275 -0.3840  0.5115 -0.6264
  673MOL0     C90782   6.153   0.879   7.168  0.2474  0.7401  1.2540
  673MOL0     C90783   6.100   0.747   7.138 -1.1869 -0.2381  1.2317
  673MOL0     C90784   6.049   0.644   7.108 -1.1736 -0.4680  0.4151
  673MOL0     C90785   6.780   0.578   7.235  0.1360  0.6967 -0.0529
  673MOL0     C90786   6.877   0.481   7.262 -0.3149  0.3867 -0.0847
  673MOL0     C90787   6.961   0.446   7.150  0.2265 -0.5984  0.4873
  673MOL0     H90788   6.989   0.002   7.435  0.1652  1.9398  0.1769
  673MOL0     H90789   7.137  -0.187   7.428  0.5421 -0.2635  0.2717
  673MOL0     H90790   7.434  -0.170   7.117 -2.6442  3.2157  1.0713
  673MOL0     H90791   7.553  -0.133   7.249  0.0171 -1.0776  2.5453
  673MOL0     H90792   7.451  -0.415   7.191 -1.6153  2.1308 -4.0262
  673MOL0     H90793   7.564  -0.354   7.318 -0.9246 -0.2840  0.2351
  673MOL0     H90794   7.698  -0.253   7.108 -0.2371  0.6564  0.8112
  673MOL0     H90795   7.608  -0.355   7.007  1.7950  0.7676 -0.2617
  673MOL0     H90796   7.790  -0.455   7.236 -0.1491 -2.1724 -0.2447
  673MOL0     H90797   7.690  -0.554   7.132 -0.8003 -0.5955 -1.8799
  673MOL0     H90798   7.887  -0.362   7.000 -0.6888  0.1523  0.7955
  673MOL0     H90799   7.952  -0.505   7.086 -0.0967 -2.4846 -1.8358
  673MOL0     H90800   7.840  -0.648   6.930 -1.1967 -0.3889 -2.5849
  673MOL0     H90801   7.750  -0.517   6.860 -0.1889  1.1775  0.2640
  673MOL0     H90802   8.062  -0.558   6.836 -1.1471 -0.5704  2.7366
  673MOL0     H90803   7.989  -0.407   6.793  2.0625 -0.9000  0.9764
  673MOL0     H90804   7.822  -0.521   6.639 -0.2360 -0.0903  1.3911
  673MOL0     H90805   7.991  -0.505   6.591 -1.4284  1.8869 -0.6132
  673MOL0     H90806   7.721  -0.767   6.631 -0.4233 -0.8632  1.3203
  673MOL0     H90807   7.770  -1.039   6.503  0.1638  1.0620 -0.7173
  673MOL0     H90808   7.876  -1.130   6.617  2.2964  0.5010 -0.7004
  673MOL0     H90809   7.746  -1.067   6.812  0.3104  0.3924 -0.9689
  673MOL0     H90810   7.660  -0.940   6.734 -0.4921 -0.3304 -0.3778
  673MOL0     H90811   7.625  -1.243   6.699  0.6330 -0.0713 -0.0192
  673MOL0     H90812   7.555  -1.134   6.582  0.1916 -2.7494 -0.0487
  673MOL0     H90813   7.509  -1.104   6.881  0.8041  0.7254 -0.0565
  673MOL0     H90814   7.411  -1.205   6.778 -1.2868  0.5513  0.6090
  673MOL0     H90815   7.257  -0.877   6.618 -2.1675 -0.5095 -0.6740
  673MOL0     H90816   7.049  -0.762   6.687 -1.7571 -0.4375  0.6816
  673MOL0     H90817   6.892  -0.611   7.067 -0.5212 -2.0594 -0.4295
  673MOL0     H90818   6.724  -0.460   7.193  0.4658 -2.3536  1.6691
  673MOL0     H90819   6.430  -0.222   6.980 -1.0091  0.3520  0.0356
  673MOL0     H90820   6.322  -0.362   6.985 -2.5060  2.4893 -0.0366
  673MOL0     H90821   6.318  -0.288   7.251 -0.0825 -1.3373 -0.8593
  673MOL0     H90822   6.388  -0.143   7.199 -1.3881  2.5480  0.1538
  673MOL0     H90823   6.127  -0.232   7.061 -3.7346  2.0648  0.9645
  673MOL0     H90824   6.122  -0.189   7.227  0.5311 -1.0634  0.4931
  673MOL0     H90825   6.291  -0.005   7.042  1.8261 -1.8569  1.7160
  673MOL0     H90826   6.218   0.035   7.188 -0.2273  1.9007 -1.6500
  673MOL0     H90827   5.980  -0.020   7.076  0.2460  0.0299  0.7574
  673MOL0     H90828   6.074  -0.034   6.922 -0.8493  1.4096 -0.6438
  673MOL0     H90829   6.047   0.217   7.095  1.2874 -1.7133 -0.1025
  673MOL0     H90830   6.102   0.213   6.925  0.2643  0.3222  0.4954
  673MOL0     H90831   5.831   0.082   6.963 -0.2273  0.1137 -2.0260
  673MOL0     H90832   5.901   0.165   6.829  0.3138 -0.7639 -0.0935
  673MOL0     H90833   5.861   0.371   6.967  0.8058  0.1804  3.0418
  673MOL0     H90834   5.709   0.282   6.928  1.0437 -0.1184 -0.9775
  673MOL0     H90835   6.460  -0.508   6.841 -0.0017 -1.9941 -1.5093
  673MOL0     H90836   6.607  -0.671   6.755 -1.6758  1.0605  0.4066
  673MOL0     H90837   7.069  -0.994   7.059 -1.4584 -0.1885  0.6103
  673MOL0     H90838   7.292  -1.085   6.979  0.2336 -0.9127 -0.3848
  673MOL0     H90839   7.429   0.058   7.222  0.3863  1.0944  0.9784
  673MOL0     H90840   7.294   0.245   7.262 -0.7755  0.8885 -0.1843
  673MOL0     H90841   6.788   0.411   7.576  3.3254 -2.2390 -0.7687
  673MOL0     H90842   6.624   0.611   7.529  0.8422  1.6314 -0.9431
  673MOL0     H90843   6.491   0.789   7.433  2.9862  2.1487 -1.1959
  673MOL0     H90844   6.437   0.627   7.369  0.3244 -0.2339 -3.6290
  673MOL0     H90845   6.362   0.713   7.151  0.6745  0.1746 -0.3390
  673MOL0     H90846   6.445   0.857   7.165  0.8017 -2.1436 -0.9646
  673MOL0     H90847   6.287   0.940   7.328 -0.1165 -0.1571  0.4049
  673MOL0     H90848   6.215   0.777   7.344  0.2486 -1.5541 -2.2786
  673MOL0     H90849   6.069   0.942   7.199 -2.7234 -1.7563 -1.0714
  673MOL0     H90850   6.187   0.920   7.073 -0.2036  1.1020  1.2417
  673MOL0     H90851   5.985   0.558   7.107  2.9457 -3.8699  0.1022
  673MOL0     H90852   6.768   0.627   7.139  1.0126  1.7520  0.3465
  673MOL0     H90853   6.948   0.514   7.065 -2.1405 -0.3830  0.9545
  673MOL0     H90854   7.067   0.439   7.176  0.3840  0.0594  0.0557
  673MOL0     H90855   6.930   0.347   7.116  0.5163 -0.3114 -0.6534
  674MOL0     O90856   2.835  10.188   8.767 -0.2547  0.0251  0.1583
  674MOL0     C90857   2.893  10.108   8.849  0.1555  0.3674 -0.2016
  674MOL0     O90858   3.022  10.101   8.888 -0.4023 -0.2878 -0.0091
  674MOL0     C90859   3.113  10.186   8.832  0.2648  1.0620 -0.0783
  674MOL0     C90860   3.214  10.223   8.913  0.4159 -0.4182 -0.2345
  674MOL0     C90861   3.297  10.325   8.874  0.4503 -0.2303  0.8497
  674MOL0     C90862   3.287  10.386   8.746 -0.7572 -0.5973 -0.4704
  674MOL0     O90863   3.389  10.484   8.718  0.0639 -0.0150 -0.0590
  674MOL0     C90864   3.367  10.549   8.594  0.4578  0.5071 -0.3558
  674MOL0     C90865   3.467  10.669   8.584  0.0148 -0.6280  0.7741
  674MOL0     C90866   3.477  10.731   8.442 -0.4148 -0.0452 -0.6295
  674MOL0     C90867   3.535  10.875   8.456 -0.7762  0.6577 -0.1779
  674MOL0     C90868   3.668  10.883   8.529  0.7169 -0.6488  0.1752
  674MOL0     C90869   3.717  11.029   8.558 -0.2829 -0.1151  0.3034
  674MOL0     C90870   3.848  11.023   8.634 -0.6593  0.2458 -0.3020
  674MOL0     C90871   3.964  10.939   8.576  0.8093  0.3312  0.0720
  674MOL0     N90872   4.097  10.973   8.629 -0.3025 -0.2868  0.7842
  674MOL0     C90873   4.168  11.082   8.590  0.0905  0.1721  0.8061
  674MOL0     C90874   4.293  11.050   8.600 -0.6798  0.0933 -0.6735
  674MOL0     C90875   4.412  11.131   8.560  0.2856 -1.0815 -0.1621
  674MOL0     C90876   4.425  11.242   8.658 -0.0660 -0.0993 -0.0142
  674MOL0     C90877   4.538  11.353   8.627  0.3248  0.3360 -0.4103
  674MOL0     C90878   4.677  11.303   8.639  0.3738  0.2917  0.5948
  674MOL0     O90879   4.768  11.409   8.601 -0.4454 -0.3039  0.1407
  674MOL0     C90880   4.900  11.373   8.580 -0.7090 -0.5745 -0.3788
  674MOL0     C90881   4.987  11.470   8.542 -0.2703 -0.6955 -0.8225
  674MOL0     C90882   5.117  11.440   8.506 -0.0832 -0.2625  0.3948
  674MOL0     C90883   5.170  11.309   8.519  0.1728  0.2532  0.7527
  674MOL0     C90884   5.315  11.266   8.493  0.1803  1.2185 -0.5287
  674MOL0     O90885   5.393  11.359   8.433 -0.2539 -0.8795  0.0337
  674MOL0     C90886   5.514  11.324   8.372 -0.8020  0.4280 -0.0860
  674MOL0     C90887   5.539  11.210   8.297  0.4503  0.7887 -0.4052
  674MOL0     C90888   5.666  11.182   8.253  0.0031  0.5809 -0.4367
  674MOL0     C90889   5.775  11.265   8.281 -0.1353 -0.2486 -0.3749
  674MOL0     O90890   5.894  11.213   8.252 -0.3585  0.4305  0.4915
  674MOL0     C90891   6.006  11.257   8.334  0.6543  0.1989  0.3698
  674MOL0     C90892   6.134  11.191   8.296 -0.7716  0.6940 -0.1720
  674MOL0     C90893   6.180  11.220   8.155 -0.0824  0.0515 -0.4776
  674MOL0     C90894   6.313  11.140   8.136  0.0696  0.2877  0.2921
  674MOL0     C90895   6.370  11.152   7.991 -1.0655 -0.3037  0.1770
  674MOL0     C90896   6.506  11.092   7.970  0.8278 -0.3451 -0.1827
  674MOL0     C90897   6.502  10.946   7.930  0.3523  0.4987  0.7385
  674MOL0     C90898   6.634  10.864   7.957 -0.0659  0.8372 -0.3782
  674MOL0    Cl90899   6.671  10.890   8.132  0.0908 -0.4848 -0.3628
  674MOL0     C90900   5.754  11.372   8.362  0.1786 -0.5900  0.5621
  674MOL0     C90901   5.625  11.407   8.400 -1.1523 -0.1450 -0.2349
  674MOL0     O90902   5.344  11.149   8.517 -0.6294  0.7175 -0.0194
  674MOL0     C90903   5.082  11.216   8.569  0.2870 -0.2746 -0.7102
  674MOL0     C90904   4.951  11.243   8.605  0.1689 -0.7948 -0.0704
  674MOL0     N90905   4.308  10.935   8.666 -0.1137 -0.7453  0.4289
  674MOL0     N90906   4.191  10.883   8.679  0.0491 -0.3705  0.0095
  674MOL0     C90907   3.189  10.345   8.653 -0.1859 -0.2455  0.4168
  674MOL0     C90908   3.104  10.237   8.694  0.2192 -0.4022  0.1635
  674MOL0     C90909   2.803  10.011   8.918 -0.8627 -0.0882  0.2889
  674MOL0     C90910   2.829   9.973   9.054  0.5531  0.1979  1.0220
  674MOL0     C90911   2.739   9.901   9.131 -0.2031 -0.3248 -0.8731
  674MOL0     C90912   2.624   9.851   9.070 -0.8425 -0.4982  0.9167
  674MOL0     O90913   2.550   9.789   9.159 -0.4179  0.6882  0.4170
  674MOL0     C90914   2.435   9.722   9.109 -0.6652 -0.0314  0.5356
  674MOL0     C90915   2.336   9.703   9.217  0.0778 -0.0997 -0.3097
  674MOL0     C90916   2.285   9.829   9.266 -0.2116  0.0939 -0.5930
  674MOL0     C90917   2.212   9.815   9.406 -0.6666 -0.1034 -0.7170
  674MOL0     C90918   2.086   9.740   9.390  0.6603 -0.0795  0.6469
  674MOL0     C90919   1.989   9.665   9.378  0.2058 -0.4814 -0.2850
  674MOL0     C90920   2.605   9.873   8.931  0.0759 -0.5804 -0.3999
  674MOL0     C90921   2.690   9.959   8.858  0.2191  0.2872 -0.0509
  674MOL0     C90922   2.648   9.995   8.723 -0.1000  0.1055 -0.2029
  674MOL0     H90923   3.215  10.178   9.011 -1.4028  0.2079  0.1076
  674MOL0     H90924   3.370  10.350   8.950  0.9064  0.7043  0.1233
  674MOL0     H90925   3.387  10.481   8.511 -2.3710 -1.0985  0.1644
  674MOL0     H90926   3.265  10.586   8.583 -0.6514 -2.9149 -3.6370
  674MOL0     H90927   3.568  10.642   8.616 -0.1508  0.8802  2.8394
  674MOL0     H90928   3.437  10.747   8.656  1.8371 -0.6740  1.6520
  674MOL0     H90929   3.378  10.734   8.395 -0.7934 -0.4075  0.1168
  674MOL0     H90930   3.541  10.670   8.378  1.9979  1.8276 -0.1417
  674MOL0     H90931   3.549  10.913   8.354  0.0149 -0.6418 -0.5698
  674MOL0     H90932   3.465  10.931   8.518  0.9332 -0.4737  2.9876
  674MOL0     H90933   3.662  10.836   8.627 -0.2632  0.1199  0.4977
  674MOL0     H90934   3.747  10.834   8.471  2.9617  1.1484  1.5066
  674MOL0     H90935   3.734  11.088   8.468 -0.4479 -2.1453 -1.1393
  674MOL0     H90936   3.650  11.089   8.620 -2.9131 -1.5895 -0.9803
  674MOL0     H90937   3.821  10.975   8.728 -1.9031 -1.6123 -1.5495
  674MOL0     H90938   3.878  11.128   8.648  0.9616 -0.3363  0.8385
  674MOL0     H90939   3.946  10.834   8.601  0.3544 -0.0756 -1.8154
  674MOL0     H90940   3.971  10.946   8.467  0.8521 -0.7558 -0.0033
  674MOL0     H90941   4.125  11.171   8.544 -0.8352 -1.3302 -1.4099
  674MOL0     H90942   4.503  11.073   8.541  0.9155 -0.5982  1.2841
  674MOL0     H90943   4.385  11.171   8.461  2.9631  2.3974  0.2953
  674MOL0     H90944   4.328  11.292   8.666 -3.6086 -5.4000 -3.3426
  674MOL0     H90945   4.445  11.196   8.756 -1.4383 -0.5230  0.0968
  674MOL0     H90946   4.529  11.426   8.708  1.7619 -0.1982  0.2580
  674MOL0     H90947   4.530  11.383   8.522  3.4220 -1.1943 -1.2002
  674MOL0     H90948   4.695  11.220   8.571  1.0443  1.1570 -0.3210
  674MOL0     H90949   4.694  11.277   8.744  1.4058  1.2289  0.6834
  674MOL0     H90950   4.955  11.573   8.533 -0.5424 -0.7934 -0.9694
  674MOL0     H90951   5.175  11.524   8.468 -2.2159  0.6693 -1.0247
  674MOL0     H90952   5.464  11.132   8.289 -0.2213  1.5501 -1.8228
  674MOL0     H90953   5.672  11.088   8.200 -0.4132  0.5986 -0.5180
  674MOL0     H90954   6.019  11.361   8.302 -0.9036 -0.1921 -1.7481
  674MOL0     H90955   5.988  11.251   8.442 -0.0973  3.1350  0.4923
  674MOL0     H90956   6.214  11.216   8.366  0.4641  0.0252 -1.3191
  674MOL0     H90957   6.123  11.082   8.304 -0.9032  0.4128 -3.0794
  674MOL0     H90958   6.107  11.175   8.086  2.6577 -1.5258 -2.5669
  674MOL0     H90959   6.200  11.325   8.131 -0.8058  0.8363  2.0554
  674MOL0     H90960   6.295  11.034   8.158  0.2259  0.4225  1.0863
  674MOL0     H90961   6.395  11.163   8.205  0.3163  1.0138 -0.2379
  674MOL0     H90962   6.367  11.257   7.962 -1.7013  0.5030  2.8706
  674MOL0     H90963   6.300  11.110   7.919  0.2553  1.9771 -2.6249
  674MOL0     H90964   6.560  11.140   7.887  2.9381 -2.4194 -0.0824
  674MOL0     H90965   6.565  11.108   8.060  0.3778  0.3517  0.0003
  674MOL0     H90966   6.481  10.933   7.824  0.4647 -4.2756  1.0769
  674MOL0     H90967   6.411  10.909   7.977  0.0264  2.2988  1.5942
  674MOL0     H90968   6.620  10.761   7.925 -3.8740  0.7916  0.8961
  674MOL0     H90969   6.723  10.895   7.902  0.6184 -0.3867  0.0098
  674MOL0     H90970   5.824  11.447   8.398  1.1443 -1.1133 -0.1789
  674MOL0     H90971   5.605  11.493   8.463  0.3674 -1.0637  1.6019
  674MOL0     H90972   5.115  11.120   8.608  2.8799  1.2811  1.2852
  674MOL0     H90973   4.892  11.177   8.667 -1.3112 -0.0823 -0.6675
  674MOL0     H90974   3.172  10.388   8.555  2.0686 -1.1887 -0.4578
  674MOL0     H90975   3.030  10.202   8.623 -1.4930  0.1806  1.5657
  674MOL0     H90976   2.916  10.017   9.102 -0.9684  3.2880  1.1968
  674MOL0     H90977   2.750   9.883   9.237 -2.8968 -1.7842 -0.7599
  674MOL0     H90978   2.450   9.634   9.046 -1.3643  1.6037 -2.0454
  674MOL0     H90979   2.384   9.785   9.036  3.6054  1.2660 -1.7289
  674MOL0     H90980   2.391   9.650   9.295  0.1580 -0.7070 -0.7768
  674MOL0     H90981   2.252   9.639   9.187  0.5149 -0.0801 -1.6577
  674MOL0     H90982   2.219   9.872   9.190 -3.5028 -0.8399  1.4825
  674MOL0     H90983   2.367   9.899   9.278 -0.0876 -0.1004 -0.2773
  674MOL0     H90984   2.267   9.762   9.484  0.4174 -0.5524 -1.7631
  674MOL0     H90985   2.193   9.913   9.451 -1.8251 -1.7841  2.8547
  674MOL0     H90986   1.920   9.589   9.348  3.3067 -2.9934 -1.7288
  674MOL0     H90987   2.515   9.837   8.883 -1.6416 -1.6160  3.2612
  674MOL0     H90988   2.571   9.931   8.679 -0.3987  2.1932 -2.9273
  674MOL0     H90989   2.618  10.100   8.719 -0.6496 -0.0459 -0.0827
  674MOL0     H90990   2.731   9.985   8.652  1.9569 -0.1313  2.1002
  675MOL0     O90991   0.922   7.977   6.960  0.8436 -0.0337 -0.4059
  675MOL0     C90992   0.908   8.094   6.985  0.2792 -0.0298 -0.6110
  675MOL0     O90993   0.999   8.174   7.052  0.0974  0.6039  0.1703
  675MOL0     C90994   1.127   8.120   7.075 -0.3038 -1.1276  0.2579
  675MOL0     C90995   1.141   8.001   7.134 -0.3451  0.2865  0.7128
  675MOL0     C90996   1.260   7.928   7.140  0.2464  0.8253  0.2173
  675MOL0     C90997   1.377   7.999   7.110 -0.7045  0.7558  0.0181
  675MOL0     O90998   1.498   7.952   7.149 -0.4335 -0.1601 -0.4277
  675MOL0     C90999   1.498   7.892   7.289 -0.5209 -0.2499  0.7383
  675MOL0     C91000   1.642   7.848   7.325  0.1837  0.4053 -0.2374
  675MOL0     C91001   1.717   7.971   7.369 -0.3942  0.3781  0.1815
  675MOL0     C91002   1.683   8.034   7.508 -0.0850 -0.2441  1.0845
  675MOL0     C91003   1.790   8.150   7.542  0.2743  1.6756 -0.1134
  675MOL0     C91004   1.798   8.207   7.687  0.6916  0.2323 -0.4841
  675MOL0     C91005   1.884   8.123   7.780  0.9253  0.5117 -0.7825
  675MOL0     C91006   2.026   8.176   7.777  0.2286  0.4411 -0.8199
  675MOL0     N91007   2.118   8.106   7.867 -0.6369  0.1653 -0.7637
  675MOL0     C91008   2.082   8.018   7.965 -1.0047 -0.3618  0.1166
  675MOL0     C91009   2.196   8.003   8.041  0.3286  0.6282  0.1300
  675MOL0     C91010   2.211   7.893   8.149 -0.0794  0.4580  0.5876
  675MOL0     C91011   2.181   7.946   8.281  0.0738  0.5137  0.6104
  675MOL0     C91012   2.033   7.993   8.289 -0.2887  0.5467 -0.4975
  675MOL0     C91013   2.014   8.138   8.338 -0.8161 -0.4365  0.1243
  675MOL0     O91014   2.085   8.227   8.241 -0.0371 -0.9905  0.0259
  675MOL0     C91015   2.008   8.316   8.162 -0.5563 -0.6205  1.0628
  675MOL0     C91016   1.874   8.294   8.129  0.5203 -0.7468  0.0606
  675MOL0     C91017   1.809   8.367   8.025 -0.0542  0.1572 -0.1827
  675MOL0     C91018   1.881   8.467   7.964 -0.2158 -0.9859  0.8161
  675MOL0     C91019   1.822   8.563   7.863 -0.3541  0.9950 -0.2531
  675MOL0     O91020   1.696   8.538   7.814 -1.1343  0.2844 -0.7255
  675MOL0     C91021   1.641   8.621   7.722 -0.4170  0.3265 -0.7292
  675MOL0     C91022   1.555   8.718   7.761  0.2500  0.0237 -0.3098
  675MOL0     C91023   1.512   8.824   7.671 -0.9612 -0.1960  0.0659
  675MOL0     C91024   1.547   8.820   7.535 -0.8128 -0.6926  0.6838
  675MOL0     O91025   1.489   8.917   7.451 -0.0561  0.1948  0.1132
  675MOL0     C91026   1.559   8.956   7.327 -0.1173  0.1300 -0.6588
  675MOL0     C91027   1.484   9.060   7.244  0.0671 -0.0784 -0.2795
  675MOL0     C91028   1.361   8.985   7.187  0.4279  0.5314  0.4296
  675MOL0     C91029   1.239   9.056   7.216 -0.0085 -0.2192 -0.2905
  675MOL0     C91030   1.107   8.992   7.158  0.7943 -0.2328 -0.9151
  675MOL0     C91031   0.979   9.071   7.187  0.2037 -0.5570  0.1328
  675MOL0     C91032   0.849   8.989   7.211 -0.8759 -0.0896 -0.3615
  675MOL0     C91033   0.814   8.872   7.114 -0.5298 -0.6532 -0.3772
  675MOL0    Cl91034   0.631   8.861   7.128  0.1514 -0.1290  0.1307
  675MOL0     C91035   1.641   8.727   7.493 -0.6029 -0.6161 -0.1253
  675MOL0     C91036   1.689   8.628   7.589 -0.4330  0.1255 -0.1318
  675MOL0     O91037   1.898   8.657   7.836  0.6373  0.9402  0.1522
  675MOL0     C91038   2.015   8.500   8.004  0.3053  1.0538 -0.5292
  675MOL0     C91039   2.079   8.418   8.097 -1.3070  0.3909  0.2157
  675MOL0     N91040   2.305   8.070   7.977  0.8517  0.4707 -0.4831
  675MOL0     N91041   2.253   8.136   7.879  0.2638  0.7831  0.4620
  675MOL0     C91042   1.367   8.127   7.063  0.8314  0.3009 -0.1970
  675MOL0     C91043   1.242   8.194   7.047 -0.2263 -0.6995 -0.5691
  675MOL0     C91044   0.785   8.166   6.956 -1.1656 -0.7077  0.5833
  675MOL0     C91045   0.777   8.297   6.993  0.0832  0.1037  0.0116
  675MOL0     C91046   0.665   8.373   6.969 -0.1230 -0.0254  0.3367
  675MOL0     C91047   0.548   8.327   6.902  0.0409 -0.1300 -0.5247
  675MOL0     O91048   0.429   8.396   6.885 -0.0537  0.0963 -0.5695
  675MOL0     C91049   0.426   8.538   6.894  0.5940  0.2173  0.5984
  675MOL0     C91050   0.378   8.581   7.033  0.0831  0.2211 -0.7117
  675MOL0     C91051   0.296   8.712   7.034  0.0121  0.1310 -1.0402
  675MOL0     C91052   0.282   8.778   7.168 -0.9260 -0.6523 -0.3384
  675MOL0     C91053   0.226   8.913   7.171  0.5660 -0.4260 -0.5967
  675MOL0     C91054   0.179   9.024   7.189  0.0295 -0.1912 -0.2320
  675MOL0     C91055   0.556   8.191   6.860  0.3850  0.1002 -0.6174
  675MOL0     C91056   0.667   8.113   6.892 -0.6307 -0.3164  0.4339
  675MOL0     C91057   0.654   7.966   6.849 -0.5783 -0.0429 -0.4221
  675MOL0     H91058   1.048   7.967   7.176  1.0228 -0.5422  3.2886
  675MOL0     H91059   1.248   7.831   7.189 -1.8271 -1.0928 -3.6243
  675MOL0     H91060   1.449   7.959   7.361 -1.9084  1.1112 -1.3598
  675MOL0     H91061   1.432   7.806   7.277 -0.8091  0.0908 -0.1913
  675MOL0     H91062   1.679   7.821   7.225 -0.4069  0.3666 -0.4554
  675MOL0     H91063   1.646   7.765   7.396 -2.9722  0.4184  0.0936
  675MOL0     H91064   1.702   8.048   7.294  0.2633  0.1053 -0.2424
  675MOL0     H91065   1.820   7.937   7.357  0.1986  2.6379 -1.6505
  675MOL0     H91066   1.581   8.075   7.507  0.2528  0.6325  1.6768
  675MOL0     H91067   1.676   7.948   7.576  0.2716 -1.4855 -0.3832
  675MOL0     H91068   1.882   8.096   7.517 -1.6569 -2.7428  1.4026
  675MOL0     H91069   1.781   8.241   7.481 -1.1770  2.0969  0.6731
  675MOL0     H91070   1.840   8.307   7.681 -1.4630  1.1679 -1.0733
  675MOL0     H91071   1.697   8.222   7.728  0.8423 -0.3698  0.1269
  675MOL0     H91072   1.895   8.015   7.761  1.0377  0.1500  1.1447
  675MOL0     H91073   1.840   8.127   7.880  0.5652 -3.0110 -0.6663
  675MOL0     H91074   2.069   8.176   7.676  1.2417  0.1827 -0.3984
  675MOL0     H91075   2.011   8.282   7.800 -4.3621 -0.4163  1.3395
  675MOL0     H91076   1.986   7.971   7.981 -1.5040 -0.6134 -3.0251
  675MOL0     H91077   2.155   7.804   8.120  3.6932 -0.6555 -4.8980
  675MOL0     H91078   2.318   7.871   8.146 -0.2136 -0.1502  0.2363
  675MOL0     H91079   2.192   7.865   8.354 -0.4426  0.5817  0.7699
  675MOL0     H91080   2.255   8.025   8.300  1.0549 -0.8771  2.9966
  675MOL0     H91081   1.982   7.926   8.359 -1.1748 -1.3574 -2.8076
  675MOL0     H91082   1.976   7.980   8.196 -1.9738 -0.1313  0.5841
  675MOL0     H91083   2.050   8.142   8.442 -0.8155  1.0966  0.0913
  675MOL0     H91084   1.906   8.152   8.348 -0.5477  0.7980  1.9215
  675MOL0     H91085   1.818   8.209   8.166  0.5489 -0.4427  0.8177
  675MOL0     H91086   1.709   8.342   7.991 -0.1482  1.6621 -1.0440
  675MOL0     H91087   1.509   8.720   7.859  1.4383 -0.9224  0.3024
  675MOL0     H91088   1.449   8.901   7.715  1.6790  1.2592  1.5964
  675MOL0     H91089   1.658   8.986   7.364 -0.6103  0.6544  0.2714
  675MOL0     H91090   1.573   8.865   7.268 -0.6645 -1.1143  1.0439
  675MOL0     H91091   1.454   9.135   7.318  0.4808 -2.2230  2.2028
  675MOL0     H91092   1.555   9.104   7.174  2.2004 -2.0332  0.5286
  675MOL0     H91093   1.373   8.991   7.079 -4.1318 -1.7411 -0.4235
  675MOL0     H91094   1.343   8.882   7.218  1.6302  0.0235 -0.4715
  675MOL0     H91095   1.245   9.164   7.202  1.1962  0.2385  2.9028
  675MOL0     H91096   1.232   9.039   7.324  1.5712 -2.0910 -0.4284
  675MOL0     H91097   1.098   8.888   7.192  2.3454 -1.0457 -2.7017
  675MOL0     H91098   1.126   8.993   7.050 -0.9785 -2.7167 -1.3440
  675MOL0     H91099   0.996   9.135   7.274  0.8754  0.7254 -0.9150
  675MOL0     H91100   0.958   9.138   7.103  3.4066  0.6119  0.1127
  675MOL0     H91101   0.771   9.065   7.203 -0.7821 -0.0598 -1.0447
  675MOL0     H91102   0.852   8.955   7.315  0.4695  3.3641  0.8606
  675MOL0     H91103   0.846   8.890   7.011 -1.8720 -0.1944 -0.7342
  675MOL0     H91104   0.856   8.774   7.135  1.1713  0.2400  0.5420
  675MOL0     H91105   1.688   8.733   7.395  2.0471 -2.2167  0.9347
  675MOL0     H91106   1.774   8.566   7.560 -1.6174 -0.5793 -2.2821
  675MOL0     H91107   2.067   8.587   7.964 -0.8130  1.9846 -0.0389
  675MOL0     H91108   2.185   8.424   8.120 -1.6695  1.1117  1.8879
  675MOL0     H91109   1.453   8.186   7.036 -0.5160  0.7699 -4.1466
  675MOL0     H91110   1.243   8.297   7.014 -1.4276  0.0695  1.5914
  675MOL0     H91111   0.849   8.351   7.054  0.0350 -1.0616  1.1451
  675MOL0     H91112   0.663   8.474   7.008 -2.0445  1.4814 -3.1965
  675MOL0     H91113   0.340   8.569   6.833 -0.0825  2.6500  2.6053
  675MOL0     H91114   0.518   8.583   6.856  0.3953 -0.9050 -1.3339
  675MOL0     H91115   0.467   8.585   7.097 -1.3568 -2.6101  1.7709
  675MOL0     H91116   0.322   8.506   7.091  0.0037  0.3828 -0.5785
  675MOL0     H91117   0.199   8.687   6.990 -0.4372  0.6970 -0.3954
  675MOL0     H91118   0.344   8.784   6.968  4.2863 -1.8918 -0.4524
  675MOL0     H91119   0.231   8.712   7.239  1.0516  0.7719  2.6260
  675MOL0     H91120   0.384   8.789   7.206 -2.0804  0.2697  2.8005
  675MOL0     H91121   0.140   9.120   7.216  1.2220 -0.5242  3.0605
  675MOL0     H91122   0.461   8.145   6.834 -1.3378  1.3370  2.9070
  675MOL0     H91123   0.636   7.914   6.944  3.2925 -1.6894 -0.3993
  675MOL0     H91124   0.568   7.969   6.782 -1.7251  1.1110  1.0086
  675MOL0     H91125   0.739   7.934   6.789  0.6472  0.9865  0.7060
  676MOL0     O91126   5.231   1.364   2.698 -0.5240  0.2013 -0.2992
  676MOL0     C91127   5.228   1.258   2.634  0.7829  0.2621 -0.6341
  676MOL0     O91128   5.119   1.221   2.554 -0.1808  0.5112  0.5901
  676MOL0     C91129   4.999   1.282   2.602  0.3110 -0.6803 -0.7470
  676MOL0     C91130   4.956   1.274   2.736 -0.2848 -0.5009  1.2955
  676MOL0     C91131   4.834   1.340   2.775 -0.3315 -0.3556  0.0066
  676MOL0     C91132   4.748   1.399   2.685 -0.4698  0.2641  0.4225
  676MOL0     O91133   4.636   1.477   2.710 -0.2847  0.2963 -0.7223
  676MOL0     C91134   4.546   1.424   2.805  0.1808 -0.5901  0.2781
  676MOL0     C91135   4.498   1.527   2.905 -0.3614 -0.0611 -0.3376
  676MOL0     C91136   4.413   1.475   3.013  0.1444 -0.3922 -0.6848
  676MOL0     C91137   4.275   1.422   2.961  0.3875  0.0967 -0.0308
  676MOL0     C91138   4.201   1.358   3.077 -0.5024 -0.2442  0.0833
  676MOL0     C91139   4.177   1.431   3.215  0.2688  0.1309  0.7106
  676MOL0     C91140   4.071   1.346   3.290 -0.1896 -0.0132  0.1078
  676MOL0     C91141   3.930   1.405   3.286  0.0766  0.5439 -0.2618
  676MOL0     N91142   3.861   1.405   3.155  0.4155 -0.4955 -0.1252
  676MOL0     C91143   3.770   1.310   3.108 -0.7269  0.1456  0.1017
  676MOL0     C91144   3.728   1.346   2.985  0.7396  0.8912 -0.3164
  676MOL0     C91145   3.625   1.273   2.894  0.1754  0.1535 -0.4364
  676MOL0     C91146   3.510   1.363   2.851 -0.8201  0.0948  0.1853
  676MOL0     C91147   3.400   1.284   2.790  0.0839 -0.2121  0.4093
  676MOL0     C91148   3.334   1.172   2.883 -0.1303  0.3483  0.3014
  676MOL0     O91149   3.340   1.208   3.021  0.5798  0.1667  0.3344
  676MOL0     C91150   3.292   1.130   3.124  0.3606 -0.0424  0.2612
  676MOL0     C91151   3.210   1.028   3.091  0.7863 -0.4213  0.3511
  676MOL0     C91152   3.165   0.942   3.191  0.3439 -0.0610  0.2566
  676MOL0     C91153   3.198   0.952   3.320  0.4217 -0.2674  0.0938
  676MOL0     C91154   3.152   0.844   3.419  0.5341  0.2512  0.3842
  676MOL0     O91155   3.120   0.717   3.371  0.5149 -0.2112  0.5689
  676MOL0     C91156   3.143   0.602   3.446 -0.2250 -0.2176 -0.4148
  676MOL0     C91157   3.095   0.583   3.578 -0.0518  0.8288 -0.3805
  676MOL0     C91158   3.101   0.458   3.650 -1.0144  0.2108 -0.9623
  676MOL0     C91159   3.150   0.343   3.580  0.7218 -0.3488  0.1917
  676MOL0     O91160   3.146   0.217   3.628 -0.0295  0.0720  0.0663
  676MOL0     C91161   3.120   0.182   3.762 -0.4406  0.3451 -0.5783
  676MOL0     C91162   3.219   0.240   3.863  0.0815  0.0301  0.7694
  676MOL0     C91163   3.198   0.160   3.994  0.2105 -0.3493 -0.2326
  676MOL0     C91164   3.309   0.199   4.088 -0.2639 -0.5190  0.1112
  676MOL0     C91165   3.275   0.168   4.230 -0.2428  0.6584 -0.3510
  676MOL0     C91166   3.394   0.206   4.319  0.0216 -0.2080 -0.5407
  676MOL0     C91167   3.388   0.185   4.467  0.0036 -0.3383 -0.2790
  676MOL0     C91168   3.519   0.224   4.533  0.1462 -0.2053 -0.8396
  676MOL0    Cl91169   3.574   0.388   4.516 -0.2842  0.4056  0.0903
  676MOL0     C91170   3.208   0.369   3.452 -1.1558 -0.2284  0.1360
  676MOL0     C91171   3.197   0.491   3.384  0.0738 -0.1489 -0.1168
  676MOL0     O91172   3.161   0.875   3.537  0.4279  0.2559 -0.2571
  676MOL0     C91173   3.275   1.066   3.356  0.1205  0.1326 -0.1293
  676MOL0     C91174   3.324   1.151   3.260 -0.1371  0.4029 -0.0446
  676MOL0     N91175   3.805   1.455   2.962  0.1347  0.7451 -0.5955
  676MOL0     N91176   3.878   1.501   3.061  0.7010  0.5063  0.1197
  676MOL0     C91177   4.780   1.385   2.547 -0.0349 -0.0575 -1.3564
  676MOL0     C91178   4.909   1.334   2.517  0.1659  0.1013  0.0168
  676MOL0     C91179   5.348   1.170   2.634  0.6885 -0.3511  0.1542
  676MOL0     C91180   5.361   1.073   2.531  0.5576  0.0507  0.1539
  676MOL0     C91181   5.465   0.981   2.529  0.5810  0.7220  0.4349
  676MOL0     C91182   5.562   0.982   2.632 -0.6569 -0.1014  0.0298
  676MOL0     O91183   5.682   0.905   2.635  0.3897  0.2942 -0.2388
  676MOL0     C91184   5.731   0.843   2.516  0.3197  0.2772  0.6048
  676MOL0     C91185   5.876   0.805   2.522 -0.7748 -0.3374  0.0642
  676MOL0     C91186   5.938   0.697   2.425 -0.8872 -0.0672  0.0391
  676MOL0     C91187   6.019   0.587   2.505 -0.4299 -0.2117 -0.3712
  676MOL0     C91188   6.133   0.630   2.589  0.8494  0.3139 -0.3819
  676MOL0     C91189   6.223   0.677   2.651  0.0640 -0.0518 -0.1578
  676MOL0     C91190   5.558   1.082   2.719  0.1398 -0.1655 -1.1347
  676MOL0     C91191   5.456   1.173   2.725 -0.9841  0.5487 -0.2922
  676MOL0     C91192   5.455   1.274   2.837 -0.4793 -0.4486 -0.6123
  676MOL0     H91193   5.011   1.217   2.811 -0.8911 -1.4704  1.0227
  676MOL0     H91194   4.804   1.358   2.877  0.3599  2.1993 -0.1635
  676MOL0     H91195   4.463   1.390   2.741  0.3233 -4.4583  1.8884
  676MOL0     H91196   4.577   1.330   2.852  1.9482 -0.2247 -0.0885
  676MOL0     H91197   4.447   1.612   2.859 -2.2790 -1.1289 -0.2974
  676MOL0     H91198   4.585   1.562   2.961  0.4975 -0.0184 -1.6581
  676MOL0     H91199   4.383   1.554   3.081  0.0078 -1.2256  0.2457
  676MOL0     H91200   4.465   1.405   3.079 -2.0659  0.1513  1.7844
  676MOL0     H91201   4.213   1.496   2.909  0.4294 -0.8689 -1.5233
  676MOL0     H91202   4.300   1.348   2.884  1.6677  1.0555 -0.5699
  676MOL0     H91203   4.110   1.316   3.034 -0.3786  2.1722 -2.8705
  676MOL0     H91204   4.263   1.276   3.113  1.8304  1.6016  0.5265
  676MOL0     H91205   4.268   1.450   3.272 -0.1057  0.1051  1.3188
  676MOL0     H91206   4.132   1.526   3.187  0.6724  0.1509  0.1102
  676MOL0     H91207   4.115   1.329   3.389  2.2497 -0.4721 -0.9764
  676MOL0     H91208   4.056   1.248   3.243  1.3816 -0.2853  0.1072
  676MOL0     H91209   3.865   1.342   3.348 -0.3290  0.7506 -0.4760
  676MOL0     H91210   3.927   1.506   3.330  0.4013 -0.9266  3.5190
  676MOL0     H91211   3.733   1.223   3.163 -0.2957  0.5242  1.0257
  676MOL0     H91212   3.690   1.240   2.812  3.9121  1.7573  1.6354
  676MOL0     H91213   3.588   1.182   2.943 -1.3946 -0.8886 -3.3012
  676MOL0     H91214   3.465   1.419   2.933  2.0980 -1.6554  3.2543
  676MOL0     H91215   3.552   1.436   2.782 -0.8004  0.3937  0.5102
  676MOL0     H91216   3.424   1.237   2.694 -2.9224  0.5897 -0.8720
  676MOL0     H91217   3.319   1.351   2.761 -0.0723 -0.4969  0.1687
  676MOL0     H91218   3.361   1.067   2.867  1.5398  1.0545 -1.9608
  676MOL0     H91219   3.227   1.169   2.861  0.4205 -2.5545 -2.8146
  676MOL0     H91220   3.185   0.999   2.989 -2.0732 -1.7205  1.3104
  676MOL0     H91221   3.110   0.852   3.165  2.3836 -1.2714 -0.0420
  676MOL0     H91222   3.047   0.675   3.609 -2.6299  0.0283 -1.7146
  676MOL0     H91223   3.083   0.445   3.756  0.8393 -0.3237 -0.6868
  676MOL0     H91224   3.018   0.201   3.796 -1.7619 -2.3290 -2.6880
  676MOL0     H91225   3.137   0.074   3.770  2.2786  0.8414  3.3556
  676MOL0     H91226   3.319   0.235   3.820 -0.4111  1.4627 -0.6579
  676MOL0     H91227   3.196   0.343   3.891 -3.3335 -1.0240  2.3830
  676MOL0     H91228   3.108   0.201   4.041  1.2807 -0.8244  2.4241
  676MOL0     H91229   3.188   0.051   3.986  2.4210 -0.7372  1.2368
  676MOL0     H91230   3.321   0.308   4.082 -1.3281 -0.1384  3.1734
  676MOL0     H91231   3.402   0.158   4.049 -1.9245 -1.9401 -2.6681
  676MOL0     H91232   3.272   0.059   4.227  4.2953  0.2853  0.7039
  676MOL0     H91233   3.177   0.212   4.251 -1.0250 -1.3852  0.5302
  676MOL0     H91234   3.486   0.155   4.289  1.0123  2.4967 -2.5640
  676MOL0     H91235   3.418   0.309   4.292  0.4966 -0.0348  0.4622
  676MOL0     H91236   3.374   0.078   4.486  2.3670 -0.6969 -0.2270
  676MOL0     H91237   3.306   0.242   4.511 -0.2139  0.7580 -1.9952
  676MOL0     H91238   3.505   0.201   4.639 -1.7401  0.7834 -0.8347
  676MOL0     H91239   3.594   0.159   4.488  0.8809  0.5441 -0.7240
  676MOL0     H91240   3.258   0.289   3.398  0.9571  1.0982 -0.0269
  676MOL0     H91241   3.233   0.488   3.281  1.8453 -1.3472  0.4831
  676MOL0     H91242   3.304   1.077   3.460 -2.2762  2.2391  0.4024
  676MOL0     H91243   3.384   1.236   3.287  4.5482 -2.3702 -0.5865
  676MOL0     H91244   4.709   1.433   2.482 -1.7204 -0.2369  0.2719
  676MOL0     H91245   4.924   1.329   2.409 -1.4561  1.3241 -0.3034
  676MOL0     H91246   5.291   1.071   2.448  1.2355  1.3833 -0.4659
  676MOL0     H91247   5.470   0.917   2.442 -1.8169 -2.2301  2.2843
  676MOL0     H91248   5.715   0.908   2.430  1.3253  0.8176  0.8118
  676MOL0     H91249   5.675   0.751   2.499 -0.3027  0.8567 -0.6548
  676MOL0     H91250   5.903   0.781   2.625  0.7319  0.1614 -0.1904
  676MOL0     H91251   5.923   0.901   2.496  1.2099 -1.2678  0.0694
  676MOL0     H91252   6.009   0.747   2.357 -0.5869 -1.3597 -0.6279
  676MOL0     H91253   5.863   0.645   2.365  0.4852 -2.1270  0.0293
  676MOL0     H91254   5.946   0.543   2.573 -1.4249 -0.5710 -1.6227
  676MOL0     H91255   6.052   0.506   2.439  0.2454  0.5349 -0.9624
  676MOL0     H91256   6.316   0.715   2.688 -0.9616  1.9424  0.4778
  676MOL0     H91257   5.644   1.093   2.784 -0.6021 -0.0316 -0.1490
  676MOL0     H91258   5.480   1.377   2.811  0.4128  0.7771  4.1633
  676MOL0     H91259   5.351   1.281   2.872  0.5640  0.9786  2.6376
  676MOL0     H91260   5.510   1.241   2.926 -3.5988 -1.5988  1.0447
  677MOL0     O91261   7.191   4.666   5.470  0.4524 -0.0184  0.1519
  677MOL0     C91262   7.213   4.745   5.553 -0.0149 -1.2683 -0.1367
  677MOL0     O91263   7.325   4.759   5.615 -0.9640 -0.1750  0.5372
  677MOL0     C91264   7.437   4.675   5.596  0.7364  0.0463  0.2044
  677MOL0     C91265   7.562   4.739   5.603  0.5479  0.0965  0.0633
  677MOL0     C91266   7.676   4.657   5.607 -0.0989 -0.9702  0.1814
  677MOL0     C91267   7.665   4.526   5.578 -0.1374  0.7676 -1.1905
  677MOL0     O91268   7.788   4.468   5.580 -0.0472 -0.2750 -0.8058
  677MOL0     C91269   7.823   4.347   5.511  0.3229  0.3431  0.2202
  677MOL0     C91270   7.965   4.343   5.453  0.0382  0.4228  0.0293
  677MOL0     C91271   8.052   4.250   5.532 -0.5712 -1.4386 -0.2947
  677MOL0     C91272   8.206   4.256   5.507  0.1389 -0.5482  0.4355
  677MOL0     C91273   8.256   4.258   5.361 -0.6849 -0.0316  0.4943
  677MOL0     C91274   8.396   4.304   5.345 -0.1342  0.7935 -0.8349
  677MOL0     C91275   8.480   4.247   5.228  0.4642 -0.8653 -0.5391
  677MOL0     C91276   8.624   4.299   5.212  0.6767 -0.5661 -0.6784
  677MOL0     N91277   8.714   4.202   5.152 -0.1490 -0.2215 -0.1866
  677MOL0     C91278   8.790   4.099   5.213  0.5307  0.2662 -0.4825
  677MOL0     C91279   8.798   4.001   5.110  0.0364 -0.2548  0.4749
  677MOL0     C91280   8.862   3.855   5.108  0.2233 -0.5476  0.2371
  677MOL0     C91281   8.917   3.825   5.241 -0.7797  0.6620 -1.2552
  677MOL0     C91282   8.989   3.690   5.236 -0.1648 -0.6687 -0.6056
  677MOL0     C91283   9.085   3.677   5.356  0.4331 -0.0575 -0.8208
  677MOL0     O91284   9.028   3.682   5.487  0.0049 -0.2400 -0.0413
  677MOL0     C91285   9.106   3.706   5.599  0.6051 -0.6828  0.7206
  677MOL0     C91286   9.241   3.700   5.609  0.2425 -1.3314  0.4884
  677MOL0     C91287   9.308   3.753   5.719 -0.3424 -0.6418 -0.2097
  677MOL0     C91288   9.240   3.800   5.835  0.3296  0.5257 -0.3752
  677MOL0     C91289   9.305   3.871   5.943 -0.4135 -0.2267 -0.2189
  677MOL0     O91290   9.241   3.917   6.054  0.6414  0.3731  0.3180
  677MOL0     C91291   9.314   3.929   6.170  0.4654 -0.0614 -0.6728
  677MOL0     C91292   9.255   4.009   6.276  0.7416  1.2830  0.1594
  677MOL0     C91293   9.322   4.033   6.393  0.4750 -0.4991 -0.6399
  677MOL0     C91294   9.442   3.964   6.421  0.6196 -0.3993  0.0823
  677MOL0     O91295   9.521   3.983   6.534  0.0021  0.4366  0.4057
  677MOL0     C91296   9.450   3.975   6.656  0.0216 -0.3766 -0.2454
  677MOL0     C91297   9.543   3.931   6.768 -0.2424  0.2735 -0.2679
  677MOL0     C91298   9.642   4.048   6.806  1.0311 -0.5476 -0.0552
  677MOL0     C91299   9.776   3.990   6.860  0.1515 -0.3552 -0.0031
  677MOL0     C91300   9.887   4.093   6.884 -0.0678  0.4003  0.0444
  677MOL0     C91301  10.027   4.030   6.917 -0.3349  0.4733 -0.5115
  677MOL0     C91302  10.140   4.130   6.887  0.4054  0.0097 -1.2007
  677MOL0     C91303  10.162   4.235   7.009 -0.1420 -0.1690  0.3491
  677MOL0    Cl91304  10.317   4.303   6.982 -0.1482  0.1980  0.2446
  677MOL0     C91305   9.494   3.872   6.328 -0.3539 -0.0449 -0.6475
  677MOL0     C91306   9.442   3.858   6.205  0.0480  0.0048 -0.4965
  677MOL0     O91307   9.432   3.876   5.927 -0.4914  0.3344 -0.6688
  677MOL0     C91308   9.102   3.778   5.827 -0.0896  0.6455  0.4440
  677MOL0     C91309   9.034   3.754   5.706 -0.2620  0.5496  0.2080
  677MOL0     N91310   8.752   4.062   4.994 -0.5870 -0.3588 -0.6094
  677MOL0     N91311   8.704   4.178   5.021 -0.0741 -0.6850 -0.1232
  677MOL0     C91312   7.538   4.463   5.556 -0.5647 -0.4319 -0.4617
  677MOL0     C91313   7.424   4.540   5.567 -0.1043 -0.0598  0.5284
  677MOL0     C91314   7.110   4.850   5.591 -1.5186 -0.0017  0.5082
  677MOL0     C91315   7.123   4.927   5.701  0.5236 -0.0632  0.2124
  677MOL0     C91316   7.037   5.026   5.745  0.2903  0.0732  0.0200
  677MOL0     C91317   6.924   5.055   5.663  0.4854  0.1428  0.2542
  677MOL0     O91318   6.845   5.169   5.692  0.0394  0.9452  0.0686
  677MOL0     C91319   6.701   5.154   5.682  0.4373 -0.0120 -0.1731
  677MOL0     C91320   6.644   5.042   5.780  0.0529  0.0738  0.4664
  677MOL0     C91321   6.488   5.063   5.793 -0.2795  0.0000 -0.6928
  677MOL0     C91322   6.423   4.941   5.864 -0.6716  0.1016 -0.3585
  677MOL0     C91323   6.470   4.922   6.000 -0.6575  1.3119 -0.1052
  677MOL0     C91324   6.502   4.893   6.112  0.3639 -0.5957  0.5895
  677MOL0     C91325   6.912   4.979   5.540  0.5966  0.6144 -0.0751
  677MOL0     C91326   7.011   4.897   5.496  0.1458 -0.4481 -0.2194
  677MOL0     C91327   6.984   4.824   5.368 -0.0629 -0.3640  0.2498
  677MOL0     H91328   7.567   4.847   5.612 -2.2426  0.3179 -0.1692
  677MOL0     H91329   7.773   4.703   5.621  0.2567 -1.1910 -1.3671
  677MOL0     H91330   7.815   4.268   5.586  0.1730 -1.7777 -1.9151
  677MOL0     H91331   7.744   4.320   5.440 -2.8857  0.6811  3.4007
  677MOL0     H91332   8.002   4.445   5.448  0.1991  0.3788  0.2949
  677MOL0     H91333   7.959   4.315   5.347 -0.2488 -3.0034  0.8244
  677MOL0     H91334   8.019   4.156   5.489 -0.4351 -0.6072 -2.3163
  677MOL0     H91335   8.033   4.266   5.638 -0.9157 -1.9919 -0.2697
  677MOL0     H91336   8.251   4.348   5.545 -1.7768  2.1764 -3.2607
  677MOL0     H91337   8.259   4.177   5.561 -1.2692 -0.5397  1.8637
  677MOL0     H91338   8.237   4.159   5.317 -3.4130 -0.2926  1.9830
  677MOL0     H91339   8.199   4.323   5.294  2.0090  0.6382 -1.3080
  677MOL0     H91340   8.398   4.413   5.336  4.7690  0.8467 -1.9556
  677MOL0     H91341   8.450   4.273   5.434  0.0017 -2.2160 -1.8603
  677MOL0     H91342   8.429   4.275   5.135 -1.8700 -1.2734  0.5440
  677MOL0     H91343   8.481   4.138   5.229 -1.9467 -1.0157  3.1041
  677MOL0     H91344   8.626   4.383   5.142 -1.0186 -2.8631 -3.7414
  677MOL0     H91345   8.658   4.346   5.304  0.3867 -1.2462 -0.2178
  677MOL0     H91346   8.820   4.082   5.315 -0.5321  1.1348 -0.0049
  677MOL0     H91347   8.786   3.782   5.081 -0.7812  0.4056  0.4154
  677MOL0     H91348   8.936   3.866   5.028  2.0464 -0.0077  1.9040
  677MOL0     H91349   8.976   3.909   5.278 -1.6624 -0.3185  2.7755
  677MOL0     H91350   8.837   3.820   5.315  0.7400 -1.8598  0.3357
  677MOL0     H91351   9.041   3.676   5.141 -0.1572 -4.1945 -0.2455
  677MOL0     H91352   8.911   3.617   5.260 -1.2973  0.7446  0.1175
  677MOL0     H91353   9.160   3.756   5.344  2.0943 -0.3034  4.9111
  677MOL0     H91354   9.132   3.579   5.344  1.7028  0.0507  2.3841
  677MOL0     H91355   9.303   3.667   5.526  3.0160 -0.1417  1.9537
  677MOL0     H91356   9.416   3.751   5.706 -0.3808 -2.6151 -0.4399
  677MOL0     H91357   9.155   4.047   6.260  0.5832  1.4843  1.5288
  677MOL0     H91358   9.293   4.091   6.480  3.8022 -2.6174  2.1443
  677MOL0     H91359   9.406   4.071   6.683  1.1366 -0.2914  1.4530
  677MOL0     H91360   9.373   3.898   6.650  0.4958 -1.0915  1.8604
  677MOL0     H91361   9.490   3.906   6.861  0.2367 -0.9551 -0.3032
  677MOL0     H91362   9.596   3.843   6.731 -2.4278 -1.3673  0.3266
  677MOL0     H91363   9.677   4.107   6.721  1.9993 -0.1864  0.5886
  677MOL0     H91364   9.588   4.100   6.886  0.2966  0.1655 -0.9941
  677MOL0     H91365   9.813   3.915   6.791 -1.1568 -0.5108 -0.5642
  677MOL0     H91366   9.749   3.931   6.948  1.1951  0.4952  0.9261
  677MOL0     H91367   9.864   4.157   6.969  0.5586 -0.5055  0.9232
  677MOL0     H91368   9.895   4.153   6.793 -3.6867  2.4084  0.8796
  677MOL0     H91369  10.022   4.002   7.023 -1.6470 -3.0881 -1.3755
  677MOL0     H91370  10.042   3.934   6.867 -1.9012 -0.5025  0.7855
  677MOL0     H91371  10.118   4.183   6.793 -0.3698 -0.4682 -1.3027
  677MOL0     H91372  10.234   4.076   6.878 -0.8890 -2.7625  0.5602
  677MOL0     H91373  10.092   4.319   7.003  0.3893  0.1544 -2.0379
  677MOL0     H91374  10.160   4.193   7.111  1.6952  0.9286  0.8874
  677MOL0     H91375   9.575   3.811   6.367 -1.2747 -0.2874  0.9924
  677MOL0     H91376   9.491   3.790   6.137  1.4907  2.0066 -1.5503
  677MOL0     H91377   9.032   3.801   5.908 -0.6807  1.7039 -0.3351
  677MOL0     H91378   8.926   3.754   5.703 -0.2513  1.7060 -2.2086
  677MOL0     H91379   7.539   4.357   5.535 -0.6176 -0.7218  0.9305
  677MOL0     H91380   7.325   4.499   5.553 -0.1612  0.2573  0.0038
  677MOL0     H91381   7.209   4.916   5.765  1.6942  0.8582 -1.1489
  677MOL0     H91382   7.053   5.088   5.832 -0.6450  4.0130 -2.3504
  677MOL0     H91383   6.658   5.141   5.583  0.2554 -0.3938 -0.0431
  677MOL0     H91384   6.665   5.250   5.719  2.6175  0.6815  0.3391
  677MOL0     H91385   6.700   5.053   5.873  0.0340  1.4427  0.3272
  677MOL0     H91386   6.667   4.942   5.741  0.3729  0.4083 -0.2121
  677MOL0     H91387   6.455   5.077   5.689  0.4639  3.3659 -0.5950
  677MOL0     H91388   6.463   5.155   5.847 -0.3291 -0.4201  0.0147
  677MOL0     H91389   6.315   4.955   5.868 -0.9405 -1.7687 -0.3715
  677MOL0     H91390   6.440   4.860   5.793 -1.9295 -0.1237 -0.4188
  677MOL0     H91391   6.535   4.858   6.208 -1.1138 -1.8628  0.6776
  677MOL0     H91392   6.819   4.984   5.485 -1.4243  0.9690  3.1563
  677MOL0     H91393   7.076   4.795   5.316 -0.5615  0.3177 -1.0576
  677MOL0     H91394   6.913   4.741   5.376 -1.6685  0.8216 -0.9973
  677MOL0     H91395   6.943   4.896   5.297  0.6360  0.5201  0.7128
  678MOL0     O91396   5.435   8.476   2.742 -0.2340  0.3191  0.2103
  678MOL0     C91397   5.329   8.474   2.684 -0.1350 -0.1913 -0.2869
  678MOL0     O91398   5.319   8.481   2.548  0.4160  0.0435  0.3332
  678MOL0     C91399   5.417   8.425   2.470 -0.7889  0.3935  1.2871
  678MOL0     C91400   5.499   8.316   2.504  0.7006 -0.1976  0.6845
  678MOL0     C91401   5.588   8.251   2.407  0.0034 -0.1275  0.2203
  678MOL0     C91402   5.607   8.316   2.285 -0.7129  0.2300  0.9155
  678MOL0     O91403   5.716   8.257   2.211 -0.2732  0.0585  0.7280
  678MOL0     C91404   5.799   8.360   2.142 -0.2613  0.6842 -0.6208
  678MOL0     C91405   5.936   8.306   2.086  0.2319 -0.0431 -0.1737
  678MOL0     C91406   6.018   8.417   2.011 -0.6131 -0.6668 -0.2175
  678MOL0     C91407   5.949   8.470   1.886  0.2476 -1.0356 -0.5542
  678MOL0     C91408   6.029   8.571   1.804 -0.2657 -0.2038 -0.0088
  678MOL0     C91409   5.933   8.634   1.704  0.9833  0.6900  0.5682
  678MOL0     C91410   6.002   8.743   1.632  0.1993  0.7809 -0.6220
  678MOL0     C91411   5.952   8.880   1.679 -1.4182 -1.0946 -0.2553
  678MOL0     N91412   5.828   8.917   1.613  0.6000 -0.3697  0.0587
  678MOL0     C91413   5.824   8.988   1.496  1.0828 -0.9734  0.6792
  678MOL0     C91414   5.693   9.004   1.472  1.2610  0.7855  0.5257
  678MOL0     C91415   5.637   9.105   1.369  0.5843  0.3455  0.2734
  678MOL0     C91416   5.486   9.101   1.355  0.3662  0.7992 -0.0680
  678MOL0     C91417   5.442   9.207   1.250  0.8666  0.6013 -1.2610
  678MOL0     C91418   5.422   9.344   1.313  0.3614 -0.8087  0.0904
  678MOL0     O91419   5.307   9.343   1.406 -0.7497 -0.4855  0.5474
  678MOL0     C91420   5.185   9.363   1.351  0.5671  0.1480 -0.0509
  678MOL0     C91421   5.074   9.363   1.436 -0.0226  0.4772 -0.0150
  678MOL0     C91422   4.945   9.348   1.382  0.0253 -0.0339 -0.5139
  678MOL0     C91423   4.920   9.361   1.244 -0.0522  0.6873 -0.5419
  678MOL0     C91424   4.784   9.357   1.190  0.8762 -0.2335 -0.0957
  678MOL0     O91425   4.677   9.387   1.282 -0.2647  0.1478 -0.0666
  678MOL0     C91426   4.559   9.400   1.215 -0.0934 -0.3722  0.8790
  678MOL0     C91427   4.497   9.301   1.140  0.6985  0.1933  0.8575
  678MOL0     C91428   4.366   9.306   1.092  0.2101  0.5851  0.3114
  678MOL0     C91429   4.282   9.415   1.136 -0.0714 -0.6700 -0.3702
  678MOL0     O91430   4.151   9.403   1.098 -0.3844 -0.1706  0.1148
  678MOL0     C91431   4.076   9.517   1.106 -0.2049 -0.5571  0.8211
  678MOL0     C91432   3.943   9.476   1.052  1.0204  1.1541  0.6232
  678MOL0     C91433   3.879   9.362   1.137 -0.9707  0.7386 -0.2858
  678MOL0     C91434   3.730   9.353   1.108  0.6463  0.8672 -0.1399
  678MOL0     C91435   3.658   9.249   1.199 -0.4676  0.0463 -0.0878
  678MOL0     C91436   3.501   9.250   1.183  0.3450  1.0978  0.0010
  678MOL0     C91437   3.446   9.143   1.281 -0.0980  0.7393 -0.0929
  678MOL0     C91438   3.297   9.155   1.297  0.3752  0.9722 -0.9026
  678MOL0    Cl91439   3.233   9.080   1.445  0.2517  0.2086  0.2893
  678MOL0     C91440   4.343   9.518   1.215  0.6331  1.3024 -1.2857
  678MOL0     C91441   4.481   9.509   1.247  0.3560  0.3378 -0.0228
  678MOL0     O91442   4.777   9.321   1.069  0.0932  0.2416 -0.0512
  678MOL0     C91443   5.026   9.383   1.163  0.3819  0.4442  0.4787
  678MOL0     C91444   5.150   9.386   1.213 -0.3366 -0.0284  0.0378
  678MOL0     N91445   5.621   8.949   1.579 -0.4480 -0.5970  0.1877
  678MOL0     N91446   5.707   8.891   1.659 -0.1505  0.0924 -1.1175
  678MOL0     C91447   5.525   8.425   2.247 -0.1097  0.1870 -0.6469
  678MOL0     C91448   5.440   8.479   2.342  0.8106  0.2567  0.3381
  678MOL0     C91449   5.204   8.496   2.765 -0.4736  0.1771  0.8565
  678MOL0     C91450   5.220   8.545   2.888 -0.0057  0.2243 -0.7259
  678MOL0     C91451   5.116   8.563   2.974  0.0136  0.8030 -0.5786
  678MOL0     C91452   4.989   8.525   2.940  0.0928  0.5813  0.6897
  678MOL0     O91453   4.883   8.529   3.027  0.0022 -0.4365  0.1263
  678MOL0     C91454   4.885   8.583   3.162  0.5583 -0.0554  0.2845
  678MOL0     C91455   4.812   8.721   3.174  0.1991  0.3384  0.4153
  678MOL0     C91456   4.901   8.828   3.126  0.1892  0.5770 -0.4804
  678MOL0     C91457   4.818   8.955   3.130  0.7248 -0.6313  0.0235
  678MOL0     C91458   4.903   9.071   3.108 -0.2489  0.3951 -0.7694
  678MOL0     C91459   4.975   9.165   3.102  0.5362 -0.4835  0.2209
  678MOL0     C91460   4.968   8.476   2.812 -0.1205  0.1669 -0.0103
  678MOL0     C91461   5.070   8.467   2.717  0.3278  0.3314  0.0418
  678MOL0     C91462   5.042   8.389   2.592  0.0257 -0.5214  0.0913
  678MOL0     H91463   5.476   8.267   2.598 -0.6975  0.7405  0.8694
  678MOL0     H91464   5.636   8.169   2.459 -2.3221 -0.8014  1.4692
  678MOL0     H91465   5.741   8.403   2.060 -1.8198 -1.3133 -0.6563
  678MOL0     H91466   5.820   8.433   2.220  1.1539 -0.6934  0.3460
  678MOL0     H91467   5.910   8.226   2.015 -1.4244  1.3246 -1.1841
  678MOL0     H91468   6.001   8.285   2.171 -0.1248 -0.7467 -0.0682
  678MOL0     H91469   6.120   8.384   1.992  1.1590  3.7525  0.4238
  678MOL0     H91470   6.025   8.504   2.076  0.6118 -0.2525 -0.8688
  678MOL0     H91471   5.925   8.386   1.821  2.8470 -3.0895  0.9427
  678MOL0     H91472   5.856   8.521   1.911 -0.1669 -1.8456 -0.4297
  678MOL0     H91473   6.064   8.650   1.872 -2.4744 -0.3523  1.3998
  678MOL0     H91474   6.112   8.524   1.750 -1.2013 -0.4489 -1.2843
  678MOL0     H91475   5.902   8.560   1.630  1.3841 -0.2458  1.3167
  678MOL0     H91476   5.837   8.672   1.741 -0.3922 -0.0572 -2.0211
  678MOL0     H91477   5.983   8.740   1.524 -0.8684 -2.9451 -0.4851
  678MOL0     H91478   6.106   8.727   1.662  0.0666 -2.4029 -1.4436
  678MOL0     H91479   5.943   8.875   1.788  0.1379 -3.0052 -0.1512
  678MOL0     H91480   6.027   8.953   1.647  1.8253 -5.1814 -3.0856
  678MOL0     H91481   5.909   9.035   1.448  0.5368  0.5531  1.1714
  678MOL0     H91482   5.654   9.210   1.395 -1.3857  0.0126  3.3411
  678MOL0     H91483   5.681   9.085   1.271 -2.5195  1.3360 -1.4772
  678MOL0     H91484   5.458   8.999   1.326  2.4447  0.0373  0.4413
  678MOL0     H91485   5.443   9.117   1.454 -1.8157 -1.8011 -0.4750
  678MOL0     H91486   5.347   9.186   1.200 -1.1870  0.5518  2.3198
  678MOL0     H91487   5.518   9.223   1.173  1.4607 -0.4400 -0.9121
  678MOL0     H91488   5.412   9.424   1.240  0.7871 -1.1037 -0.2945
  678MOL0     H91489   5.513   9.355   1.373  1.3230 -2.4619 -0.9862
  678MOL0     H91490   5.097   9.343   1.540  1.2506 -1.6471 -0.6284
  678MOL0     H91491   4.874   9.326   1.461  0.2830 -1.2399 -0.5981
  678MOL0     H91492   4.559   9.212   1.137 -0.0673 -0.3529  1.1227
  678MOL0     H91493   4.312   9.229   1.038  1.1759  1.0918 -1.4875
  678MOL0     H91494   4.068   9.562   1.205 -0.7671 -0.1965  0.6164
  678MOL0     H91495   4.106   9.584   1.024 -1.7606 -4.1946 -3.0967
  678MOL0     H91496   3.869   9.557   1.046 -1.5535 -0.9071  2.3311
  678MOL0     H91497   3.965   9.443   0.951  1.1657  1.2718  0.6148
  678MOL0     H91498   3.928   9.267   1.115  2.1176  1.9645  0.8481
  678MOL0     H91499   3.891   9.385   1.243  1.4229  0.4922 -0.4486
  678MOL0     H91500   3.705   9.331   1.004 -3.5335 -1.9835  1.2087
  678MOL0     H91501   3.683   9.448   1.137 -4.4291 -0.8413 -1.7137
  678MOL0     H91502   3.694   9.268   1.300  1.3791  0.7811 -0.8478
  678MOL0     H91503   3.690   9.148   1.171  0.5777 -0.3688  2.4140
  678MOL0     H91504   3.452   9.345   1.209  1.1015  1.5663 -0.2357
  678MOL0     H91505   3.470   9.227   1.081 -2.4376  1.0340  0.7913
  678MOL0     H91506   3.480   9.167   1.382 -1.7198  2.7960  0.0210
  678MOL0     H91507   3.479   9.045   1.245  1.8358  1.4152 -0.2898
  678MOL0     H91508   3.257   9.256   1.306  2.3558  1.6953  0.2426
  678MOL0     H91509   3.245   9.110   1.211  3.3795 -1.5927 -1.5473
  678MOL0     H91510   4.277   9.598   1.244  0.3652  0.5210  0.3955
  678MOL0     H91511   4.522   9.593   1.301 -2.4446  2.7980 -1.3987
  678MOL0     H91512   5.028   9.386   1.054  0.8020  1.2665  0.4993
  678MOL0     H91513   5.228   9.399   1.138  2.3686 -1.1546  2.4638
  678MOL0     H91514   5.541   8.463   2.147  1.1034  0.5282 -0.3368
  678MOL0     H91515   5.385   8.570   2.318 -0.6488 -0.8610 -0.7335
  678MOL0     H91516   5.320   8.572   2.920 -0.3245  1.2461 -0.5573
  678MOL0     H91517   5.148   8.597   3.072 -0.5906 -2.4493  0.8860
  678MOL0     H91518   4.980   8.598   3.213  0.4136 -0.3581  0.6488
  678MOL0     H91519   4.823   8.514   3.222 -0.6460  2.9062  2.6923
  678MOL0     H91520   4.786   8.744   3.278 -0.8170 -2.1713  0.7771
  678MOL0     H91521   4.721   8.718   3.113  0.2686  1.0224  0.2644
  678MOL0     H91522   4.942   8.804   3.027 -1.6741 -1.5472 -0.8221
  678MOL0     H91523   4.978   8.829   3.203 -1.4875 -0.5818  1.2927
  678MOL0     H91524   4.752   8.955   3.042  3.1462  0.4136 -1.9357
  678MOL0     H91525   4.752   8.952   3.217 -3.0324  1.5658 -2.4341
  678MOL0     H91526   5.027   9.258   3.089  0.8258 -0.8964 -2.0503
  678MOL0     H91527   4.871   8.440   2.779 -0.1221  1.8984 -2.1324
  678MOL0     H91528   5.075   8.439   2.501 -1.9686 -1.7463 -1.3985
  678MOL0     H91529   5.088   8.290   2.600 -0.8810 -0.8658  1.5400
  678MOL0     H91530   4.932   8.384   2.587  0.0871 -1.1044 -0.8736
  679MOL0     O91531   8.961   7.330  10.515  0.7344  0.1160  0.0534
  679MOL0     C91532   8.840   7.360  10.507 -0.4233 -0.0819 -0.4656
  679MOL0     O91533   8.735   7.271  10.535  0.2014 -0.1356 -0.3670
  679MOL0     C91534   8.750   7.138  10.514  0.5407 -0.7669 -0.3727
  679MOL0     C91535   8.721   7.058  10.626 -0.5337 -0.3620  0.8009
  679MOL0     C91536   8.759   6.931  10.639 -0.5971 -0.7302  0.3897
  679MOL0     C91537   8.832   6.877  10.532 -0.1914 -0.3718  0.3246
  679MOL0     O91538   8.883   6.750  10.545 -0.0008  0.0809 -0.2285
  679MOL0     C91539   8.952   6.711  10.666 -0.5668  0.8375 -0.2174
  679MOL0     C91540   8.900   6.574  10.720 -0.5444 -0.5568 -0.6535
  679MOL0     C91541   8.993   6.512  10.829 -0.2468  0.1662 -0.1402
  679MOL0     C91542   9.008   6.591  10.955  0.0669 -0.4228 -0.4320
  679MOL0     C91543   9.122   6.546  11.048 -0.1714 -0.9243 -0.5027
  679MOL0     C91544   9.103   6.611  11.183 -0.9359 -0.0252 -0.8852
  679MOL0     C91545   8.972   6.591  11.264  0.2721  0.0471  0.9617
  679MOL0     C91546   8.917   6.452  11.271  0.3242 -0.0065  0.0467
  679MOL0     N91547   8.994   6.368  11.362 -0.3699 -0.0414  0.2178
  679MOL0     C91548   9.122   6.317  11.339  0.6299  0.5806 -1.0034
  679MOL0     C91549   9.159   6.253  11.457 -0.0634  0.6071 -0.5214
  679MOL0     C91550   9.301   6.208  11.486 -0.5503 -0.4678 -0.3600
  679MOL0     C91551   9.354   6.094  11.410 -0.2286 -0.2165  0.3778
  679MOL0     C91552   9.277   5.960  11.450  0.0330 -0.4658  0.2236
  679MOL0     C91553   9.352   5.864  11.546  0.0055  0.1373  0.7185
  679MOL0     O91554   9.482   5.836  11.489  0.0023 -0.3536 -0.4109
  679MOL0     C91555   9.564   5.763  11.567  0.0390 -0.2292 -0.4480
  679MOL0     C91556   9.537   5.722  11.704  0.2530 -0.1529  0.0259
  679MOL0     C91557   9.627   5.633  11.781  0.0619  0.2359 -0.0539
  679MOL0     C91558   9.745   5.593  11.706  0.7625  0.2203 -0.8787
  679MOL0     C91559   9.845   5.508  11.764 -0.5335 -0.1460 -0.5942
  679MOL0     O91560   9.809   5.426  11.869  0.6126  0.2243 -0.2235
  679MOL0     C91561   9.906   5.364  11.936 -0.3378  0.5505  0.3415
  679MOL0     C91562   9.946   5.418  12.061 -0.3571  0.4199  0.3257
  679MOL0     C91563  10.061   5.361  12.123 -0.0604  0.5887  0.3959
  679MOL0     C91564  10.111   5.234  12.080 -0.1259  0.1226 -0.1171
  679MOL0     O91565  10.217   5.159  12.140  0.0038  0.3512  0.7503
  679MOL0     C91566  10.253   5.176  12.283  0.0585  0.2235 -0.3523
  679MOL0     C91567  10.393   5.125  12.299  0.2927  0.0301 -1.2974
  679MOL0     C91568  10.495   5.240  12.318 -0.3349 -0.4958 -0.1116
  679MOL0     C91569  10.631   5.182  12.363 -0.4678  0.5373  0.0781
  679MOL0     C91570  10.723   5.294  12.417 -0.2805 -0.3747 -0.0005
  679MOL0     C91571  10.852   5.252  12.493  0.3918  0.8006 -0.4106
  679MOL0     C91572  10.946   5.171  12.396  0.9570 -0.3738  0.2236
  679MOL0     C91573  11.091   5.176  12.441 -0.5924 -0.1174 -0.0689
  679MOL0    Cl91574  11.104   5.134  12.612 -0.1969  0.3601  0.2822
  679MOL0     C91575  10.061   5.185  11.966  0.7206  0.7986  0.4458
  679MOL0     C91576   9.963   5.243  11.886  0.6233  0.8561 -0.0431
  679MOL0     O91577   9.963   5.529  11.728 -1.0047 -0.1002  0.3172
  679MOL0     C91578   9.768   5.627  11.575 -0.0306  0.5000  0.2214
  679MOL0     C91579   9.679   5.710  11.505 -0.1222  0.2731 -0.1863
  679MOL0     N91580   9.056   6.267  11.553  0.0247  1.4511  0.7693
  679MOL0     N91581   8.963   6.331  11.492  0.1205  0.4090  0.0220
  679MOL0     C91582   8.846   6.949  10.409  0.1475 -1.2432  0.3367
  679MOL0     C91583   8.803   7.086  10.399 -0.1563  0.3646  0.4352
  679MOL0     C91584   8.811   7.494  10.459  0.3714  0.2395  0.6857
  679MOL0     C91585   8.704   7.507  10.372  0.9993 -0.3287  0.4512
  679MOL0     C91586   8.669   7.630  10.313  0.7943 -1.1434  0.2519
  679MOL0     C91587   8.736   7.745  10.346  0.0979  0.3256  0.1050
  679MOL0     O91588   8.696   7.872  10.319 -0.2173  1.0527  0.2180
  679MOL0     C91589   8.571   7.901  10.261 -0.7834  0.0660  0.1340
  679MOL0     C91590   8.576   7.876  10.111  0.5167  0.1232 -0.2953
  679MOL0     C91591   8.439   7.842  10.063 -0.1512 -0.3929  0.0834
  679MOL0     C91592   8.458   7.822   9.910  0.5405 -0.2054 -0.5871
  679MOL0     C91593   8.339   7.754   9.855 -0.3101 -0.1503  0.5793
  679MOL0     C91594   8.244   7.697   9.792  0.0248 -0.7223  0.1187
  679MOL0     C91595   8.854   7.730  10.417 -0.3170  0.1448 -0.0220
  679MOL0     C91596   8.887   7.608  10.479 -0.1644 -0.5699  0.4793
  679MOL0     C91597   9.022   7.608  10.554 -0.2018 -0.6726 -0.3516
  679MOL0     H91598   8.677   7.103  10.715 -4.7393 -1.8458 -0.3269
  679MOL0     H91599   8.745   6.884  10.736 -1.1924  0.1080  0.7149
  679MOL0     H91600   9.058   6.694  10.646 -1.0847  0.2785 -2.9904
  679MOL0     H91601   8.934   6.788  10.742 -0.6493  0.7522 -0.1517
  679MOL0     H91602   8.901   6.513  10.630  0.9715 -1.9186  0.2167
  679MOL0     H91603   8.797   6.572  10.756  0.3843 -0.1568  2.3385
  679MOL0     H91604   9.091   6.511  10.782 -0.2712 -0.4555 -0.1815
  679MOL0     H91605   8.958   6.410  10.846  2.1388 -0.2882  2.8836
  679MOL0     H91606   9.040   6.694  10.937  1.3286 -0.8440 -0.6272
  679MOL0     H91607   8.915   6.591  11.013  0.2297 -0.8706 -0.1659
  679MOL0     H91608   9.127   6.438  11.062 -0.8063 -0.7976  0.9094
  679MOL0     H91609   9.214   6.571  10.994 -1.4090 -0.0069 -2.2881
  679MOL0     H91610   9.187   6.579  11.245 -0.8078 -1.3464 -1.7020
  679MOL0     H91611   9.118   6.719  11.176 -0.0943 -0.1535 -1.0898
  679MOL0     H91612   8.893   6.664  11.243  0.6961  0.3957  0.5477
  679MOL0     H91613   8.999   6.619  11.366  1.2122 -1.9679  1.3066
  679MOL0     H91614   8.819   6.447  11.320  1.0041 -3.6159  1.3175
  679MOL0     H91615   8.912   6.410  11.170 -1.4310 -0.0458  0.1136
  679MOL0     H91616   9.185   6.307  11.251  4.6884 -1.6427  1.8360
  679MOL0     H91617   9.363   6.296  11.467 -2.8612  1.2153 -0.5272
  679MOL0     H91618   9.298   6.199  11.595 -0.9016  0.7414 -0.2558
  679MOL0     H91619   9.344   6.116  11.303  2.4715 -0.7518 -0.0542
  679MOL0     H91620   9.461   6.078  11.426  0.1900  0.3977 -1.5317
  679MOL0     H91621   9.260   5.896  11.363  0.2565 -2.0343  1.2856
  679MOL0     H91622   9.180   5.975  11.497  0.2016  2.5533 -0.1802
  679MOL0     H91623   9.303   5.770  11.575  1.7005 -0.6054  1.2972
  679MOL0     H91624   9.356   5.923  11.638 -2.1155  0.7950  0.4494
  679MOL0     H91625   9.450   5.767  11.751  0.1970  0.0509 -0.2756
  679MOL0     H91626   9.611   5.612  11.886 -0.2308  2.7393  0.4774
  679MOL0     H91627   9.892   5.507  12.093 -0.5280  1.4265 -2.4668
  679MOL0     H91628  10.101   5.410  12.212  1.5452  1.4593 -0.7429
  679MOL0     H91629  10.243   5.278  12.321 -0.8489 -0.1257  0.3689
  679MOL0     H91630  10.182   5.124  12.348  0.7447 -0.9796 -0.5234
  679MOL0     H91631  10.399   5.073  12.395  0.4843  1.7200 -0.3416
  679MOL0     H91632  10.432   5.065  12.217  2.4685  1.3633 -1.3186
  679MOL0     H91633  10.513   5.299  12.228 -1.2122 -1.4194 -0.9045
  679MOL0     H91634  10.457   5.313  12.390  2.8260  2.5291 -1.2284
  679MOL0     H91635  10.679   5.129  12.280  5.2730  2.9752  1.2992
  679MOL0     H91636  10.615   5.109  12.443 -0.3404 -1.7105 -1.8383
  679MOL0     H91637  10.659   5.355  12.481 -2.0105  0.3530 -2.2550
  679MOL0     H91638  10.756   5.356  12.333 -0.2617 -1.0642 -0.5122
  679MOL0     H91639  10.907   5.339  12.530  1.6787  0.4771 -1.4693
  679MOL0     H91640  10.832   5.182  12.574  0.3002  0.0338 -1.0797
  679MOL0     H91641  10.936   5.218  12.297 -1.0745  0.4472  0.7742
  679MOL0     H91642  10.928   5.063  12.399 -0.6023 -0.3516 -3.3716
  679MOL0     H91643  11.149   5.099  12.391 -0.0555  0.4436 -0.3234
  679MOL0     H91644  11.135   5.275  12.422  1.2265 -1.0350 -0.8513
  679MOL0     H91645  10.105   5.087  11.948 -0.5232  0.5284 -1.3878
  679MOL0     H91646   9.909   5.184  11.813 -2.0648  3.1753 -0.0996
  679MOL0     H91647   9.854   5.583  11.526 -0.4246  1.0295 -0.9875
  679MOL0     H91648   9.697   5.732  11.400 -1.4954  0.0113 -0.5025
  679MOL0     H91649   8.896   6.892  10.332  2.5646 -3.1462  3.0896
  679MOL0     H91650   8.819   7.146  10.310 -1.3570 -1.8797 -1.4161
  679MOL0     H91651   8.643   7.423  10.340 -2.9668  2.5869 -0.3625
  679MOL0     H91652   8.571   7.619  10.268  0.2470  0.0447  1.1078
  679MOL0     H91653   8.546   8.007  10.261 -1.5660 -0.0159 -2.7112
  679MOL0     H91654   8.496   7.840  10.312  1.9566 -4.5160 -0.7839
  679MOL0     H91655   8.637   7.789  10.087 -1.9571 -1.4473 -1.3388
  679MOL0     H91656   8.619   7.965  10.064  0.2740 -0.1324 -1.0237
  679MOL0     H91657   8.369   7.926  10.072  0.5470  0.4430 -1.8136
  679MOL0     H91658   8.400   7.757  10.119 -0.4926 -0.2355  0.0844
  679MOL0     H91659   8.468   7.916   9.856 -2.5653 -0.0759 -1.1118
  679MOL0     H91660   8.543   7.757   9.888  0.7398  0.9185 -3.5968
  679MOL0     H91661   8.161   7.673   9.728 -0.1380  0.5776 -0.1861
  679MOL0     H91662   8.917   7.814  10.446  0.7879 -1.5534  2.9147
  679MOL0     H91663   9.090   7.560  10.484  2.3193 -0.5715  1.8581
  679MOL0     H91664   9.062   7.708  10.571 -1.5539 -0.5289  2.6869
  679MOL0     H91665   9.021   7.562  10.653  4.7236 -1.7460 -0.5675
  680MOL0     O91666   7.210   3.222   9.225 -0.3783  0.2840  0.1820
  680MOL0     C91667   7.147   3.113   9.245  0.0932  0.1013 -0.3743
  680MOL0     O91668   7.199   2.979   9.209  0.2016 -0.1460 -0.3001
  680MOL0     C91669   7.299   2.977   9.125 -0.3199 -0.1989  0.3778
  680MOL0     C91670   7.414   2.912   9.165 -0.4051 -0.1578 -0.0078
  680MOL0     C91671   7.524   2.903   9.082 -1.5942  0.1287  0.5610
  680MOL0     C91672   7.535   2.988   8.970  0.0660  0.7696 -0.0510
  680MOL0     O91673   7.659   3.000   8.909 -0.3247 -0.2659  0.2874
  680MOL0     C91674   7.666   3.050   8.775 -0.3044  1.1217 -0.4581
  680MOL0     C91675   7.810   3.047   8.734 -0.2271 -0.0375  0.0012
  680MOL0     C91676   7.834   3.055   8.583 -0.6582  0.2231 -0.1992
  680MOL0     C91677   7.984   3.042   8.558  0.0010  0.1695  0.2436
  680MOL0     C91678   8.028   3.053   8.413  0.1589 -0.4420 -0.1646
  680MOL0     C91679   8.003   3.192   8.348  0.4375 -0.4138 -0.6993
  680MOL0     C91680   8.088   3.216   8.224  0.0975  0.7050  0.3952
  680MOL0     C91681   8.031   3.119   8.113  0.1125 -0.3801 -0.1926
  680MOL0     N91682   8.047   3.180   7.980 -1.1730  0.3087  0.2938
  680MOL0     C91683   7.956   3.251   7.907 -0.2110 -0.4034 -0.3334
  680MOL0     C91684   8.024   3.280   7.792  0.1562 -0.2608 -0.2157
  680MOL0     C91685   7.973   3.332   7.667  0.0357  0.9398 -0.4456
  680MOL0     C91686   7.944   3.484   7.667  1.1155 -0.1781 -0.2625
  680MOL0     C91687   7.856   3.520   7.542 -0.8765 -0.3184 -0.0536
  680MOL0     C91688   7.824   3.677   7.528 -0.2875 -0.1303 -0.5349
  680MOL0     O91689   7.728   3.727   7.621  0.0392 -0.1254 -0.3336
  680MOL0     C91690   7.594   3.715   7.609 -0.9285 -0.1238 -0.3489
  680MOL0     C91691   7.525   3.801   7.696  0.9662  0.7141  0.0685
  680MOL0     C91692   7.387   3.800   7.694 -0.1028  0.6385 -0.4755
  680MOL0     C91693   7.314   3.719   7.609 -0.8340 -0.4092  0.3520
  680MOL0     C91694   7.171   3.736   7.585  0.4239 -0.1623 -0.4699
  680MOL0     O91695   7.103   3.804   7.689  0.2961 -0.0169  0.2160
  680MOL0     C91696   6.966   3.836   7.674 -0.7054  0.2504  0.4241
  680MOL0     C91697   6.924   3.931   7.575 -0.4035 -0.6563 -0.2993
  680MOL0     C91698   6.792   3.965   7.563  0.3836 -0.9167  0.5663
  680MOL0     C91699   6.698   3.916   7.652 -0.9379 -0.1008 -0.4791
  680MOL0     O91700   6.573   3.962   7.625 -0.1464  0.0726 -0.6266
  680MOL0     C91701   6.466   3.938   7.727 -1.0911  0.2888 -0.3815
  680MOL0     C91702   6.337   3.992   7.665  0.2864 -0.2596 -0.1716
  680MOL0     C91703   6.278   3.903   7.555  0.1271 -0.4812 -0.0464
  680MOL0     C91704   6.146   3.841   7.598 -0.3206 -0.3700  0.2388
  680MOL0     C91705   6.088   3.724   7.514 -0.4327  0.3763  0.2780
  680MOL0     C91706   6.146   3.589   7.542 -0.2131  0.3661 -0.4441
  680MOL0     C91707   6.087   3.478   7.454  0.3009  0.6443 -0.2663
  680MOL0     C91708   6.102   3.337   7.509  0.2079  0.4013 -0.1568
  680MOL0    Cl91709   6.001   3.333   7.660  0.3526 -0.0229 -0.1452
  680MOL0     C91710   6.736   3.829   7.759  1.0151  0.4051  1.3647
  680MOL0     C91711   6.871   3.794   7.766 -0.5970  0.0137 -0.8493
  680MOL0     O91712   7.111   3.677   7.497  0.4268 -0.1032  0.0556
  680MOL0     C91713   7.393   3.644   7.510 -0.7684  0.5454 -0.1235
  680MOL0     C91714   7.530   3.646   7.511  0.1156  0.0657 -0.0889
  680MOL0     N91715   8.154   3.231   7.800  1.3029  0.0327  0.2762
  680MOL0     N91716   8.163   3.164   7.909 -0.7656 -0.0161  0.4863
  680MOL0     C91717   7.421   3.050   8.929  1.4376  0.5929 -0.5606
  680MOL0     C91718   7.299   3.046   8.999  0.3855  0.1091  0.1967
  680MOL0     C91719   7.016   3.109   9.317  0.4958 -0.3612  0.1210
  680MOL0     C91720   6.998   3.199   9.423 -0.2688 -0.7458  0.4315
  680MOL0     C91721   6.882   3.215   9.482 -0.1671 -0.2770  0.2301
  680MOL0     C91722   6.771   3.132   9.445 -0.6216 -0.6434 -0.1679
  680MOL0     O91723   6.650   3.150   9.510 -0.4183 -0.6314 -0.4372
  680MOL0     C91724   6.530   3.086   9.463 -0.2819  0.0371  0.1860
  680MOL0     C91725   6.517   2.951   9.531 -0.1507  0.1948 -0.6627
  680MOL0     C91726   6.382   2.884   9.487  0.8939  0.2477  0.7965
  680MOL0     C91727   6.367   2.848   9.340  0.7341 -0.8163 -0.2382
  680MOL0     C91728   6.485   2.772   9.305 -0.4573  0.4942  0.6516
  680MOL0     C91729   6.577   2.710   9.266  0.1376  1.0414 -0.4037
  680MOL0     C91730   6.786   3.035   9.347 -0.0207  0.2440 -0.2051
  680MOL0     C91731   6.907   3.030   9.272 -0.1801 -0.3509 -1.0019
  680MOL0     C91732   6.895   2.944   9.160 -0.3995  0.1045  0.7345
  680MOL0     H91733   7.436   2.864   9.260  4.1135 -2.2276 -1.7758
  680MOL0     H91734   7.615   2.853   9.115 -2.5080 -2.1084 -0.1344
  680MOL0     H91735   7.616   2.985   8.704  1.0269 -0.4436 -0.0161
  680MOL0     H91736   7.619   3.148   8.757 -1.0600  0.3365 -3.3634
  680MOL0     H91737   7.849   2.953   8.774 -1.0483  0.1662  1.3202
  680MOL0     H91738   7.872   3.119   8.789 -1.5786 -0.4257  2.1419
  680MOL0     H91739   7.802   3.155   8.553  0.0347  0.1407 -1.3024
  680MOL0     H91740   7.780   2.982   8.522  1.9919 -0.7104 -1.5865
  680MOL0     H91741   8.037   3.119   8.615  1.6797 -0.8624  0.1576
  680MOL0     H91742   8.008   2.943   8.598 -3.7759 -0.3909  1.5177
  680MOL0     H91743   8.137   3.042   8.413  0.6914  3.1661  2.3326
  680MOL0     H91744   7.983   2.973   8.354  2.3923 -1.3469 -0.7489
  680MOL0     H91745   7.897   3.208   8.326  0.7251 -3.1492 -5.4650
  680MOL0     H91746   8.043   3.269   8.415  0.0113 -1.4120  0.7376
  680MOL0     H91747   8.191   3.186   8.243  0.0996 -1.3527 -2.1953
  680MOL0     H91748   8.076   3.317   8.185 -0.5315 -0.8166 -3.9951
  680MOL0     H91749   8.086   3.024   8.111 -0.4921 -0.7349 -0.9729
  680MOL0     H91750   7.925   3.092   8.121 -0.2479  1.1773  0.4888
  680MOL0     H91751   7.854   3.277   7.933 -0.0111 -1.0249  1.1279
  680MOL0     H91752   8.046   3.308   7.589 -0.4800 -1.5408 -0.2500
  680MOL0     H91753   7.881   3.275   7.645  1.0120 -1.5940  1.5852
  680MOL0     H91754   7.882   3.512   7.753 -0.4956 -2.0588 -0.7607
  680MOL0     H91755   8.035   3.545   7.668  1.3411 -0.5060  0.6235
  680MOL0     H91756   7.763   3.463   7.552 -1.1460  0.5310  3.0739
  680MOL0     H91757   7.911   3.482   7.454  0.3566  0.4621  0.3453
  680MOL0     H91758   7.769   3.690   7.434  1.7465  0.4625 -1.6954
  680MOL0     H91759   7.907   3.747   7.541 -1.2949  1.1900 -0.9760
  680MOL0     H91760   7.573   3.878   7.756 -2.2353  2.5604  0.5033
  680MOL0     H91761   7.336   3.841   7.781 -1.2687 -2.2446  0.3005
  680MOL0     H91762   6.998   3.970   7.506 -2.9166 -1.5954 -3.8609
  680MOL0     H91763   6.763   4.041   7.491  1.3197 -0.2096  0.9158
  680MOL0     H91764   6.455   3.830   7.737  2.3294 -0.0180  1.4433
  680MOL0     H91765   6.483   3.981   7.826  3.1180 -2.1990  0.2311
  680MOL0     H91766   6.260   4.016   7.739  1.7037  3.4627  0.3206
  680MOL0     H91767   6.355   4.091   7.621  0.5834  0.2492  1.0333
  680MOL0     H91768   6.274   3.951   7.457  0.9193 -1.5014 -0.6009
  680MOL0     H91769   6.332   3.808   7.563  0.1639 -0.2996  2.9941
  680MOL0     H91770   6.080   3.927   7.615  4.0438  3.1150  1.2655
  680MOL0     H91771   6.157   3.796   7.697  0.3885  0.7764  0.7022
  680MOL0     H91772   6.082   3.746   7.407  0.3814  0.4547  0.2424
  680MOL0     H91773   5.984   3.707   7.543 -0.1997 -2.1813 -0.2028
  680MOL0     H91774   6.251   3.595   7.512 -0.1445  0.5368 -0.1742
  680MOL0     H91775   6.142   3.577   7.651  4.6218 -1.7226 -0.2469
  680MOL0     H91776   6.133   3.475   7.354 -1.0215  0.6226 -0.8910
  680MOL0     H91777   5.980   3.499   7.452 -0.4957 -2.5349  1.9074
  680MOL0     H91778   6.051   3.265   7.445  1.8342  1.0463 -2.3198
  680MOL0     H91779   6.207   3.316   7.531  0.1393  0.3471  0.1133
  680MOL0     H91780   6.653   3.794   7.821 -1.4134  1.2090 -1.1916
  680MOL0     H91781   6.890   3.720   7.843 -1.1831  0.7471  0.0338
  680MOL0     H91782   7.353   3.571   7.439  1.3824 -1.8866  0.9908
  680MOL0     H91783   7.591   3.576   7.454  0.2910  0.8102 -0.8282
  680MOL0     H91784   7.422   3.096   8.830 -0.5713  1.6835 -0.1339
  680MOL0     H91785   7.218   3.111   8.968 -0.3902 -1.7039 -1.8840
  680MOL0     H91786   7.079   3.265   9.451 -2.5961  2.3485  0.4348
  680MOL0     H91787   6.875   3.293   9.557  0.6791 -0.9760  1.0650
  680MOL0     H91788   6.528   3.080   9.353  0.8343  1.8169  0.0321
  680MOL0     H91789   6.443   3.146   9.489 -2.1692 -2.7848  0.8676
  680MOL0     H91790   6.519   2.946   9.640  2.3202 -3.2863 -0.6894
  680MOL0     H91791   6.606   2.895   9.499 -1.2154 -0.6731 -2.2389
  680MOL0     H91792   6.294   2.941   9.517 -0.7079 -1.6980  0.0332
  680MOL0     H91793   6.377   2.786   9.537  0.3614  0.2606  0.7747
  680MOL0     H91794   6.280   2.782   9.343  1.8322 -2.2990 -0.2112
  680MOL0     H91795   6.347   2.928   9.267  0.9493 -0.5658 -0.0229
  680MOL0     H91796   6.663   2.657   9.230  2.3889  2.3994  2.5907
  680MOL0     H91797   6.701   2.972   9.324  1.0542 -0.4617 -2.5404
  680MOL0     H91798   6.793   2.946   9.121 -0.1493 -1.3152 -0.0533
  680MOL0     H91799   6.962   2.973   9.078 -1.9993  0.4412 -0.5135
  680MOL0     H91800   6.919   2.845   9.198 -0.5063 -0.1185  0.2337
  681MOL0     O91801   7.368   9.004   4.119 -0.2978  0.1569 -0.3703
  681MOL0     C91802   7.367   9.012   3.996 -0.1828 -0.7251 -0.0726
  681MOL0     O91803   7.477   9.042   3.916  0.9898  0.6472 -0.3705
  681MOL0     C91804   7.592   9.064   3.983 -0.4824 -0.2396  0.5029
  681MOL0     C91805   7.660   8.959   4.046 -0.5036  0.8918 -0.6623
  681MOL0     C91806   7.785   8.971   4.103  0.2599 -0.2154  0.6192
  681MOL0     C91807   7.849   9.094   4.100 -0.2102 -0.5491  1.1827
  681MOL0     O91808   7.978   9.126   4.155 -0.1916 -0.2630 -0.1527
  681MOL0     C91809   8.031   9.023   4.232 -0.3754 -0.4412  0.8574
  681MOL0     C91810   8.130   9.070   4.334 -0.8494 -0.5107  0.2283
  681MOL0     C91811   8.246   9.174   4.279  0.1879  0.5029 -0.0098
  681MOL0     C91812   8.359   9.169   4.389 -0.2236 -0.3053  0.2990
  681MOL0     C91813   8.453   9.282   4.388 -0.7978 -0.8255  0.0515
  681MOL0     C91814   8.402   9.398   4.469 -0.6906 -0.5438 -0.5925
  681MOL0     C91815   8.497   9.525   4.467  0.1918  0.7733  0.3702
  681MOL0     C91816   8.408   9.643   4.513  0.3504 -0.5155  0.6118
  681MOL0     N91817   8.482   9.736   4.588 -0.4108 -0.6410  0.4478
  681MOL0     C91818   8.484   9.749   4.730  0.7209  0.0063 -0.1454
  681MOL0     C91819   8.560   9.860   4.753  0.3190 -0.7610 -0.7285
  681MOL0     C91820   8.570   9.940   4.879 -0.1801  0.1047 -0.5007
  681MOL0     C91821   8.427   9.979   4.924  0.2357 -0.3163  0.0315
  681MOL0     C91822   8.359  10.077   4.832  0.9805 -1.1686 -0.2730
  681MOL0     C91823   8.224  10.117   4.893  0.4934 -0.3911 -1.3096
  681MOL0     O91824   8.134  10.159   4.795  0.3037 -0.1751 -0.0504
  681MOL0     C91825   8.022  10.092   4.770 -0.3150 -0.4533  0.0162
  681MOL0     C91826   7.910  10.113   4.851 -0.1022  0.0598  0.2689
  681MOL0     C91827   7.798  10.029   4.843 -0.4800 -0.4090  0.5878
  681MOL0     C91828   7.798   9.927   4.741 -0.2271 -0.9285 -0.2191
  681MOL0     C91829   7.683   9.848   4.718  0.2493 -0.1573 -0.2833
  681MOL0     O91830   7.706   9.733   4.655  0.4151 -0.1171 -0.4789
  681MOL0     C91831   7.609   9.642   4.677  1.0964  0.5494  0.0622
  681MOL0     C91832   7.489   9.655   4.612 -0.1372 -0.1502 -0.3601
  681MOL0     C91833   7.382   9.572   4.632 -0.1027 -1.0887 -0.4127
  681MOL0     C91834   7.397   9.456   4.714 -0.4471  0.2823 -0.2163
  681MOL0     O91835   7.309   9.359   4.742  0.5482  0.0870  0.4246
  681MOL0     C91836   7.178   9.415   4.745  0.6959 -1.1747  0.6987
  681MOL0     C91837   7.083   9.323   4.830  0.0858 -0.0570  0.2807
  681MOL0     C91838   7.077   9.187   4.764 -0.4513 -0.4489  0.1305
  681MOL0     C91839   7.015   9.185   4.622  0.0621 -0.8196 -0.4699
  681MOL0     C91840   7.015   9.048   4.566  0.5677  0.4937  0.0229
  681MOL0     C91841   6.880   8.973   4.599 -0.3425  0.5093  0.2682
  681MOL0     C91842   6.880   8.831   4.520  0.9017 -0.1872 -1.2107
  681MOL0     C91843   6.974   8.737   4.599  0.2690  1.0647 -0.7444
  681MOL0    Cl91844   6.939   8.561   4.579 -0.4824 -0.1758 -0.3460
  681MOL0     C91845   7.519   9.450   4.792  0.4218  0.6817 -0.3624
  681MOL0     C91846   7.625   9.532   4.767 -0.4675 -0.3334  0.1382
  681MOL0     O91847   7.578   9.884   4.771 -0.0408  0.2344  0.1618
  681MOL0     C91848   7.910   9.910   4.661  0.3402  0.2134 -0.2915
  681MOL0     C91849   8.022   9.989   4.682  0.2854 -0.0170 -0.0176
  681MOL0     N91850   8.622   9.895   4.641  0.9578 -0.3948  0.5735
  681MOL0     N91851   8.573   9.828   4.544 -0.1329 -0.2693 -0.0201
  681MOL0     C91852   7.784   9.198   4.036 -0.8827 -1.2268 -0.3994
  681MOL0     C91853   7.655   9.189   3.984  1.0372 -0.8731 -0.2233
  681MOL0     C91854   7.234   9.031   3.925 -0.4678  0.6845  0.7803
  681MOL0     C91855   7.124   8.978   3.989  0.1949  0.7444  0.2442
  681MOL0     C91856   6.998   8.985   3.928  1.0274 -0.4315  0.4143
  681MOL0     C91857   6.979   9.042   3.808  0.2386  0.6305 -0.8540
  681MOL0     O91858   6.850   9.049   3.757  0.3668  0.4919  0.4381
  681MOL0     C91859   6.808   8.950   3.667 -0.4067  1.3440 -1.4231
  681MOL0     C91860   6.789   9.006   3.525 -0.6220  0.4996 -1.4368
  681MOL0     C91861   6.687   9.119   3.522 -0.0667  0.3567 -0.5575
  681MOL0     C91862   6.663   9.179   3.386 -0.0938 -0.1983  0.7662
  681MOL0     C91863   6.790   9.248   3.342  0.2477 -0.7054  0.8816
  681MOL0     C91864   6.884   9.289   3.272  0.5643 -0.5934  0.9991
  681MOL0     C91865   7.081   9.090   3.736 -0.3658  0.0691 -0.3291
  681MOL0     C91866   7.207   9.091   3.794  0.1851 -0.2125  0.1558
  681MOL0     C91867   7.314   9.152   3.716 -0.1124  0.0280 -0.0115
  681MOL0     H91868   7.636   8.855   4.029  4.0831 -0.0369 -3.5743
  681MOL0     H91869   7.829   8.888   4.158 -0.7391  0.0711  1.8934
  681MOL0     H91870   7.955   8.974   4.294 -1.6522  1.5980  0.9730
  681MOL0     H91871   8.085   8.959   4.162  0.9147  2.5364 -1.0790
  681MOL0     H91872   8.177   8.982   4.379 -0.1995 -0.2574  0.0583
  681MOL0     H91873   8.084   9.139   4.406  1.2834  0.6226  0.6024
  681MOL0     H91874   8.204   9.269   4.247 -1.0051  0.0758  0.2475
  681MOL0     H91875   8.288   9.124   4.190 -0.6509  2.7854 -1.7846
  681MOL0     H91876   8.313   9.157   4.487  0.1916 -0.4246  0.4833
  681MOL0     H91877   8.420   9.080   4.369  1.2004  0.5211  0.7696
  681MOL0     H91878   8.545   9.242   4.431  0.3981  1.8694  0.2254
  681MOL0     H91879   8.472   9.322   4.288  1.9504  1.1940  1.2738
  681MOL0     H91880   8.300   9.430   4.446 -0.1122  0.5768 -1.7096
  681MOL0     H91881   8.410   9.359   4.571  1.7599 -2.8288 -1.5272
  681MOL0     H91882   8.545   9.536   4.369 -1.0754  0.7565 -0.2665
  681MOL0     H91883   8.572   9.508   4.545 -1.1444  2.0128  1.9984
  681MOL0     H91884   8.355   9.683   4.427 -0.4713  3.2277  2.6142
  681MOL0     H91885   8.336   9.607   4.587 -0.5526 -0.0647 -0.0345
  681MOL0     H91886   8.420   9.690   4.795  0.7262 -0.7278 -0.7942
  681MOL0     H91887   8.615   9.873   4.952 -1.6368  0.0128  0.3502
  681MOL0     H91888   8.618  10.036   4.861  0.6459 -0.7500 -3.4999
  681MOL0     H91889   8.367   9.889   4.942 -0.3046 -0.4531 -2.1779
  681MOL0     H91890   8.436  10.039   5.014  1.1092  0.6380 -0.6581
  681MOL0     H91891   8.341  10.029   4.735  0.1783 -0.0134 -0.7137
  681MOL0     H91892   8.429  10.161   4.828 -0.0038 -0.1208  2.3690
  681MOL0     H91893   8.244  10.204   4.955 -1.4677  0.1544 -1.3617
  681MOL0     H91894   8.181  10.046   4.965  1.3492 -0.5585 -0.9493
  681MOL0     H91895   7.901  10.184   4.933  0.6361  0.9285 -0.3925
  681MOL0     H91896   7.713  10.045   4.907 -0.5697 -1.2444  0.6904
  681MOL0     H91897   7.495   9.731   4.535 -1.4839  1.0375  0.6651
  681MOL0     H91898   7.298   9.580   4.563 -1.1678  0.5633  1.0065
  681MOL0     H91899   7.184   9.518   4.782 -0.3077 -0.5587 -0.7631
  681MOL0     H91900   7.136   9.439   4.647  3.3739  2.2275  0.2004
  681MOL0     H91901   7.114   9.317   4.934 -2.5629  1.6377  1.2781
  681MOL0     H91902   6.981   9.360   4.818  0.2810 -0.0671 -1.7269
  681MOL0     H91903   7.179   9.147   4.764 -0.0081  0.6069  0.9624
  681MOL0     H91904   7.019   9.120   4.828  1.3050  0.2316  2.5892
  681MOL0     H91905   7.070   9.247   4.550 -3.0122  2.9051  0.0527
  681MOL0     H91906   6.912   9.221   4.621  0.3516  0.3691  2.5839
  681MOL0     H91907   7.101   8.988   4.596 -0.1905 -0.9742 -0.6255
  681MOL0     H91908   7.008   9.065   4.458 -2.2286  0.5133  0.1387
  681MOL0     H91909   6.870   8.963   4.707  0.3371  2.6194  0.5699
  681MOL0     H91910   6.797   9.038   4.568 -0.3784  0.1630 -0.3959
  681MOL0     H91911   6.902   8.837   4.413  0.5796  0.0277 -1.2651
  681MOL0     H91912   6.780   8.791   4.536  0.9528 -0.1690 -0.8104
  681MOL0     H91913   7.079   8.763   4.585  1.1378 -0.4622  2.0738
  681MOL0     H91914   6.945   8.764   4.701  1.4072  1.4215 -0.5098
  681MOL0     H91915   7.518   9.368   4.863 -1.7997 -1.0339 -2.2120
  681MOL0     H91916   7.708   9.520   4.835 -1.3912 -2.2280  1.0113
  681MOL0     H91917   7.925   9.828   4.592  0.7893  0.5162 -0.5651
  681MOL0     H91918   8.109   9.973   4.619  0.5165  0.7499  0.1002
  681MOL0     H91919   7.831   9.295   4.039 -1.7427 -0.8349  1.0659
  681MOL0     H91920   7.607   9.274   3.937  0.5587 -1.4218 -0.7381
  681MOL0     H91921   7.133   8.925   4.083  2.8730 -2.6433 -1.6826
  681MOL0     H91922   6.907   8.958   3.980 -1.3440  3.7754 -1.0715
  681MOL0     H91923   6.722   8.903   3.714 -0.1138  0.3233 -1.8885
  681MOL0     H91924   6.889   8.876   3.668 -0.7891  0.8599  1.1635
  681MOL0     H91925   6.767   8.925   3.455 -1.6838  0.9649 -1.6595
  681MOL0     H91926   6.886   9.038   3.485 -0.0588 -1.9223 -2.1959
  681MOL0     H91927   6.724   9.199   3.586  1.6143  0.0294 -1.0723
  681MOL0     H91928   6.592   9.090   3.568  0.1382 -1.2791 -1.0890
  681MOL0     H91929   6.638   9.100   3.314  0.0961  1.2021 -0.8868
  681MOL0     H91930   6.584   9.254   3.394 -0.6565 -0.6838 -0.0086
  681MOL0     H91931   6.970   9.329   3.223 -0.9873  1.9001  0.0666
  681MOL0     H91932   7.064   9.138   3.640 -3.1252 -0.8414 -0.3762
  681MOL0     H91933   7.370   9.217   3.783 -1.0618  0.5523  0.2931
  681MOL0     H91934   7.376   9.071   3.675 -0.7245  0.6084 -2.1674
  681MOL0     H91935   7.280   9.195   3.622  0.4371 -1.2112 -0.8041
  682MOL0     O91936   3.702   9.001   3.348 -0.5467 -0.4132  0.2060
  682MOL0     C91937   3.728   9.072   3.446  0.5161 -0.0494  0.0175
  682MOL0     O91938   3.849   9.077   3.508 -0.5199  0.3727 -0.2822
  682MOL0     C91939   3.961   9.053   3.432 -0.4142  0.9250 -0.6350
  682MOL0     C91940   4.053   9.150   3.404  0.8769 -0.7498 -0.0735
  682MOL0     C91941   4.162   9.136   3.319  0.1073 -0.0199 -0.5249
  682MOL0     C91942   4.188   9.018   3.247 -0.5611  0.6375  0.1120
  682MOL0     O91943   4.298   9.009   3.160  0.1320  0.5378  0.4927
  682MOL0     C91944   4.323   8.884   3.093  0.4293  0.1064 -0.1094
  682MOL0     C91945   4.426   8.905   2.985 -0.2644  0.4201 -0.1717
  682MOL0     C91946   4.427   8.786   2.888  0.7317  1.0746  0.4508
  682MOL0     C91947   4.453   8.655   2.954 -0.1104  0.8504  0.5348
  682MOL0     C91948   4.435   8.541   2.854 -0.0621  0.0150  0.3941
  682MOL0     C91949   4.516   8.420   2.898 -0.7907  0.5762 -0.4865
  682MOL0     C91950   4.457   8.344   3.015  0.3180  0.4024  0.1411
  682MOL0     C91951   4.526   8.220   3.056  0.6853 -0.8900  0.2284
  682MOL0     N91952   4.674   8.242   3.065  0.5868 -0.0990 -0.0125
  682MOL0     C91953   4.750   8.204   2.958 -0.6924  0.1063 -0.0772
  682MOL0     C91954   4.875   8.178   3.011  1.0530  0.4175  0.1058
  682MOL0     C91955   4.988   8.134   2.921  0.0512  1.2698 -0.1469
  682MOL0     C91956   5.126   8.164   2.979  0.1303  0.8605 -0.0630
  682MOL0     C91957   5.229   8.106   2.876 -0.6706 -0.2526 -0.5092
  682MOL0     C91958   5.376   8.136   2.911  0.0362  1.0192 -0.5601
  682MOL0     O91959   5.452   8.097   2.797 -0.9188  0.7062 -0.5970
  682MOL0     C91960   5.580   8.076   2.834 -0.0508  0.6911 -0.6757
  682MOL0     C91961   5.665   8.183   2.873  0.3191  0.6733  0.3469
  682MOL0     C91962   5.792   8.147   2.904 -0.4074 -1.0400 -0.0013
  682MOL0     C91963   5.831   8.012   2.940 -0.8970 -1.4378  0.1806
  682MOL0     C91964   5.964   7.978   2.990  0.3228 -0.1645 -0.1934
  682MOL0     O91965   6.007   8.047   3.102 -0.1544  0.7786 -0.0947
  682MOL0     C91966   6.122   8.005   3.158  0.7721  0.7473  0.0747
  682MOL0     C91967   6.159   7.866   3.159  0.1872  1.2634 -0.0493
  682MOL0     C91968   6.275   7.831   3.231 -0.3219  0.5959  0.4571
  682MOL0     C91969   6.370   7.927   3.282  0.0736 -0.4105 -0.3168
  682MOL0     O91970   6.483   7.904   3.346 -0.7040  1.3151  0.2390
  682MOL0     C91971   6.544   7.767   3.353  0.4818 -0.3933 -0.7110
  682MOL0     C91972   6.661   7.778   3.453 -0.0104 -0.9855 -0.4057
  682MOL0     C91973   6.776   7.877   3.421  0.6688  0.2676 -0.1348
  682MOL0     C91974   6.908   7.852   3.501  0.2933  0.8098 -0.0932
  682MOL0     C91975   6.996   7.977   3.480 -0.2120 -0.5565 -0.7781
  682MOL0     C91976   7.142   7.946   3.533  0.1329 -0.8441 -0.5377
  682MOL0     C91977   7.199   8.073   3.601  0.0507 -0.3691  0.4517
  682MOL0     C91978   7.352   8.072   3.591  0.4078 -0.3419 -0.0461
  682MOL0    Cl91979   7.424   8.211   3.672 -0.2345  0.0526  0.2733
  682MOL0     C91980   6.332   8.064   3.271  0.6679 -0.4102  0.0317
  682MOL0     C91981   6.212   8.099   3.207 -0.6869 -0.4245 -0.4751
  682MOL0     O91982   6.016   7.883   2.932  0.6590  0.4022  0.0006
  682MOL0     C91983   5.737   7.914   2.899  0.3461  0.5294  0.4155
  682MOL0     C91984   5.614   7.942   2.849 -0.6820  0.1064 -0.8415
  682MOL0     N91985   4.869   8.198   3.147 -0.4397 -0.1948  0.3193
  682MOL0     N91986   4.742   8.227   3.174 -0.5666  1.2254  0.4273
  682MOL0     C91987   4.098   8.917   3.272  1.3010  0.8643  0.5526
  682MOL0     C91988   3.993   8.922   3.370  0.0747 -0.5008 -0.3163
  682MOL0     C91989   3.617   9.151   3.504  0.4122  0.6620 -0.1687
  682MOL0     C91990   3.652   9.211   3.630 -0.3012 -0.0932 -0.3582
  682MOL0     C91991   3.547   9.273   3.700 -0.2209 -0.5125  0.6961
  682MOL0     C91992   3.416   9.293   3.647  0.3273 -0.7521  0.6907
  682MOL0     O91993   3.320   9.337   3.735 -0.2505  0.1895  0.3750
  682MOL0     C91994   3.193   9.364   3.680 -0.1016  0.1804  0.0530
  682MOL0     C91995   3.215   9.487   3.591  0.9100 -0.6083  0.3619
  682MOL0     C91996   3.251   9.611   3.676 -0.3303  0.1822  0.7131
  682MOL0     C91997   3.130   9.677   3.739  0.4248 -0.5222 -0.2815
  682MOL0     C91998   3.172   9.804   3.790 -0.1494  0.4143  1.2097
  682MOL0     C91999   3.209   9.910   3.835 -1.3268 -0.4217 -0.3736
  682MOL0     C92000   3.392   9.243   3.514  0.3680  0.7463 -0.2857
  682MOL0     C92001   3.491   9.169   3.438  0.6613 -0.1307 -0.1818
  682MOL0     C92002   3.450   9.113   3.300 -0.0748  0.3361 -0.4879
  682MOL0     H92003   4.038   9.245   3.453  1.2729 -0.5587 -0.3230
  682MOL0     H92004   4.244   9.207   3.317  1.5414 -1.6243 -0.4294
  682MOL0     H92005   4.355   8.808   3.164 -1.1061  0.1906  0.7155
  682MOL0     H92006   4.229   8.855   3.045 -0.3962  1.6304  0.4945
  682MOL0     H92007   4.519   8.908   3.043 -2.0677 -0.5359  2.9516
  682MOL0     H92008   4.404   8.991   2.922 -1.2355 -0.2728 -0.8161
  682MOL0     H92009   4.501   8.795   2.808 -0.6702 -1.9634 -1.3914
  682MOL0     H92010   4.324   8.789   2.850  0.9765  2.9016 -0.1530
  682MOL0     H92011   4.551   8.651   3.003 -0.6469 -0.4020  1.5715
  682MOL0     H92012   4.371   8.631   3.022 -0.6083  0.0956 -0.3135
  682MOL0     H92013   4.330   8.513   2.842  0.2877 -1.2106  0.1316
  682MOL0     H92014   4.471   8.580   2.759 -3.2499 -2.3283 -1.9941
  682MOL0     H92015   4.530   8.349   2.816  0.5432 -0.8500  0.9118
  682MOL0     H92016   4.610   8.463   2.933 -1.2805 -0.2784  2.0398
  682MOL0     H92017   4.352   8.314   3.022  0.3992  0.4144  1.7998
  682MOL0     H92018   4.454   8.423   3.090 -0.4149 -1.4262  2.1636
  682MOL0     H92019   4.480   8.189   3.150 -0.1205 -2.3939 -0.6273
  682MOL0     H92020   4.507   8.151   2.973  0.7355  1.0536 -1.4883
  682MOL0     H92021   4.715   8.203   2.855  0.2266  0.8056 -0.4128
  682MOL0     H92022   4.979   8.025   2.919  0.3848  1.2535 -1.0926
  682MOL0     H92023   4.976   8.176   2.821  3.0278  1.3671 -0.5757
  682MOL0     H92024   5.142   8.272   2.984  0.2157  0.8569 -0.2395
  682MOL0     H92025   5.140   8.124   3.079 -0.2731 -3.6781 -1.6063
  682MOL0     H92026   5.211   8.150   2.778 -0.6220  0.7084 -0.0970
  682MOL0     H92027   5.224   7.997   2.883  2.0458 -0.4618 -0.7381
  682MOL0     H92028   5.401   8.070   2.994 -0.6723 -0.4732 -1.4891
  682MOL0     H92029   5.398   8.239   2.941 -1.9331  2.1439 -2.6619
  682MOL0     H92030   5.634   8.286   2.857 -3.6947 -0.7969 -3.8177
  682MOL0     H92031   5.860   8.230   2.918  0.9111 -2.3666  1.9002
  682MOL0     H92032   6.088   7.791   3.126 -1.5244  2.9256 -0.3373
  682MOL0     H92033   6.286   7.723   3.233  0.5756  0.6534 -0.5192
  682MOL0     H92034   6.466   7.698   3.385  0.8554 -0.2255  0.6079
  682MOL0     H92035   6.584   7.728   3.259  0.1015 -3.2289  0.1935
  682MOL0     H92036   6.644   7.794   3.559  3.0449  2.4921 -0.2441
  682MOL0     H92037   6.716   7.684   3.460  3.9975  1.2862  3.8608
  682MOL0     H92038   6.803   7.871   3.315 -3.1557  1.5540 -1.3451
  682MOL0     H92039   6.739   7.979   3.437  2.7954  0.6738  3.4519
  682MOL0     H92040   6.965   7.766   3.467 -2.2331 -0.6060 -0.9787
  682MOL0     H92041   6.889   7.834   3.607  1.1499 -1.3515 -0.2481
  682MOL0     H92042   6.953   8.054   3.544 -2.9404 -2.2546 -0.3738
  682MOL0     H92043   6.986   8.021   3.381 -1.7236  0.7414 -0.0956
  682MOL0     H92044   7.130   7.864   3.605  0.1192  1.3639  2.1132
  682MOL0     H92045   7.202   7.927   3.444  0.6218  5.0269 -1.8843
  682MOL0     H92046   7.171   8.060   3.706 -0.6679 -0.7117  0.2200
  682MOL0     H92047   7.166   8.169   3.560  0.8655 -0.2614  0.0201
  682MOL0     H92048   7.379   7.980   3.644  0.9060 -0.5987 -0.7366
  682MOL0     H92049   7.386   8.059   3.488  0.0600 -1.9959  0.0202
  682MOL0     H92050   6.398   8.140   3.312 -1.3807  1.0946  0.7309
  682MOL0     H92051   6.188   8.202   3.181  1.3693 -0.4402 -2.7412
  682MOL0     H92052   5.767   7.814   2.930 -1.1482  0.5668  2.1125
  682MOL0     H92053   5.541   7.861   2.852  0.0671 -0.9482  6.4155
  682MOL0     H92054   4.086   8.825   3.215  1.8942 -1.5115  3.9470
  682MOL0     H92055   3.927   8.836   3.379 -3.8178  2.2551 -0.0802
  682MOL0     H92056   3.743   9.198   3.688 -1.7022 -3.0150  1.4439
  682MOL0     H92057   3.570   9.295   3.803 -0.2958  1.1024  0.3987
  682MOL0     H92058   3.114   9.387   3.752 -0.8592 -0.3100 -0.5991
  682MOL0     H92059   3.152   9.286   3.615  0.6843 -0.0444 -0.1834
  682MOL0     H92060   3.127   9.508   3.529 -1.3281 -1.1910  3.0679
  682MOL0     H92061   3.288   9.464   3.514 -1.0690 -4.1056 -0.6883
  682MOL0     H92062   3.308   9.687   3.622 -2.3761 -0.3790 -2.4598
  682MOL0     H92063   3.315   9.576   3.758  3.2935 -1.8787 -2.6209
  682MOL0     H92064   3.051   9.682   3.663 -2.6709 -2.6236  2.5481
  682MOL0     H92065   3.100   9.612   3.821  0.9218 -1.4250 -0.7954
  682MOL0     H92066   3.240  10.004   3.875  0.9884 -0.9184 -0.8487
  682MOL0     H92067   3.297   9.265   3.467 -1.4871 -1.3878  2.1639
  682MOL0     H92068   3.359   9.163   3.266  1.5372  3.9079  0.0246
  682MOL0     H92069   3.523   9.144   3.225  0.1282  0.1476 -0.3717
  682MOL0     H92070   3.448   9.003   3.303 -1.2269  0.3711  1.0391
  683MOL0     O92071   8.914   1.005   3.300  0.5921 -0.0902 -0.9657
  683MOL0     C92072   8.864   1.099   3.365 -0.7681  0.2083  0.6901
  683MOL0     O92073   8.842   1.102   3.498 -0.5373  0.3823  0.2535
  683MOL0     C92074   8.875   0.991   3.573 -0.4823 -0.4797  1.3273
  683MOL0     C92075   9.017   0.965   3.587  0.3669  0.2616  0.3027
  683MOL0     C92076   9.050   0.855   3.664 -0.2072 -0.6126 -0.1714
  683MOL0     C92077   8.949   0.772   3.726 -0.1222 -0.9822  0.4270
  683MOL0     O92078   9.012   0.676   3.798 -0.2995  0.3929 -0.5892
  683MOL0     C92079   8.925   0.566   3.839  0.4486  0.1751  0.4339
  683MOL0     C92080   8.992   0.447   3.891  0.4951  0.8330 -0.9762
  683MOL0     C92081   9.082   0.472   4.018 -0.5127  0.0938  0.1402
  683MOL0     C92082   9.079   0.342   4.117 -0.7407  0.2337  0.3447
  683MOL0     C92083   9.193   0.334   4.221  0.2894 -0.5821 -0.2245
  683MOL0     C92084   9.182   0.456   4.311 -0.0801 -0.7588 -0.0416
  683MOL0     C92085   9.301   0.488   4.389 -0.4125 -0.4340 -0.4160
  683MOL0     C92086   9.425   0.528   4.306 -0.3407 -0.4465  0.0552
  683MOL0     N92087   9.532   0.575   4.395  1.0178 -0.7816  0.3636
  683MOL0     C92088   9.527   0.678   4.484  0.6248 -0.1818 -0.1532
  683MOL0     C92089   9.657   0.692   4.533  0.4792 -0.1918  0.1359
  683MOL0     C92090   9.717   0.804   4.611 -0.4171  0.7722 -0.4022
  683MOL0     C92091   9.803   0.745   4.722 -0.0838 -0.9924  0.2180
  683MOL0     C92092   9.879   0.869   4.782  0.3380  0.5136  0.2632
  683MOL0     C92093   9.962   0.833   4.905 -0.0095 -0.3094  0.4816
  683MOL0     O92094  10.048   0.940   4.940  0.1390  0.5155 -0.8427
  683MOL0     C92095  10.153   0.919   5.022 -0.4576 -0.0449  0.1182
  683MOL0     C92096  10.214   0.801   5.050  0.4576 -0.5425  0.0917
  683MOL0     C92097  10.322   0.798   5.128  0.9632  0.0650 -0.1138
  683MOL0     C92098  10.384   0.915   5.182 -0.1852 -0.0088 -0.6864
  683MOL0     C92099  10.502   0.922   5.268 -0.5984 -0.5396 -0.6017
  683MOL0     O92100  10.526   0.806   5.337 -0.6744  0.7857 -0.8125
  683MOL0     C92101  10.624   0.790   5.422 -0.7979  0.4192 -0.7147
  683MOL0     C92102  10.688   0.889   5.501  0.5256  0.1223  0.1163
  683MOL0     C92103  10.779   0.860   5.601  0.9577 -0.5384 -1.3321
  683MOL0     C92104  10.819   0.723   5.631 -0.9482  0.0221  0.5214
  683MOL0     O92105  10.903   0.698   5.738 -0.2802  0.1909  0.0274
  683MOL0     C92106  11.013   0.622   5.704  0.7433  0.1273 -0.7409
  683MOL0     C92107  11.140   0.673   5.776 -0.1557  1.1720 -0.3690
  683MOL0     C92108  11.202   0.800   5.725 -0.5869 -0.2330  0.2401
  683MOL0     C92109  11.159   0.935   5.783 -0.4602  0.4921 -0.0211
  683MOL0     C92110  11.250   1.050   5.727  0.4430  0.3588 -1.3887
  683MOL0     C92111  11.400   1.042   5.751 -0.3574 -0.7430 -0.0260
  683MOL0     C92112  11.465   1.187   5.713  0.2165 -0.6856 -0.9295
  683MOL0     C92113  11.429   1.227   5.569  0.2304  0.2834 -0.7467
  683MOL0    Cl92114  11.524   1.366   5.545 -0.4240  0.1703 -0.3839
  683MOL0     C92115  10.749   0.621   5.551  0.8700  0.0224  0.0175
  683MOL0     C92116  10.659   0.665   5.445 -0.4039  0.2603 -0.6532
  683MOL0     O92117  10.580   1.017   5.260 -0.0998  0.3686 -0.6988
  683MOL0     C92118  10.321   1.038   5.154  0.2632 -0.0588 -0.7072
  683MOL0     C92119  10.213   1.036   5.067  0.0403 -0.1181  0.4533
  683MOL0     N92120   9.735   0.595   4.465 -0.1150 -0.0212 -0.1624
  683MOL0     N92121   9.656   0.524   4.392 -0.4060  0.2830 -0.3580
  683MOL0     C92122   8.813   0.792   3.700  0.5775 -0.6778 -0.0373
  683MOL0     C92123   8.771   0.908   3.627  0.4868 -0.7273 -0.1270
  683MOL0     C92124   8.815   1.222   3.285 -0.4173  0.6505  0.9420
  683MOL0     C92125   8.828   1.224   3.145 -0.8092 -0.9110  0.1019
  683MOL0     C92126   8.794   1.336   3.073  0.2468 -0.5847 -0.1254
  683MOL0     C92127   8.744   1.460   3.116 -0.3436  0.6094 -0.1607
  683MOL0     O92128   8.719   1.561   3.020  0.0736  0.1979 -0.1175
  683MOL0     C92129   8.679   1.691   3.070  0.0199  0.7803 -0.8733
  683MOL0     C92130   8.629   1.759   2.942 -0.1948  0.1451 -0.2150
  683MOL0     C92131   8.587   1.900   2.968  0.2311 -0.4300  0.4707
  683MOL0     C92132   8.519   1.962   2.838 -0.7105 -0.9688  0.7739
  683MOL0     C92133   8.589   1.946   2.709  0.0959  0.4650  0.0058
  683MOL0     C92134   8.630   1.920   2.595 -0.2355 -0.3595  0.4166
  683MOL0     C92135   8.726   1.461   3.258 -0.2789 -0.1828  0.1123
  683MOL0     C92136   8.759   1.342   3.337  0.2216  0.1252 -0.0618
  683MOL0     C92137   8.724   1.348   3.489 -0.1929  0.3132 -0.3054
  683MOL0     H92138   9.090   1.031   3.541 -0.0095 -1.3470 -2.8624
  683MOL0     H92139   9.150   0.814   3.676 -1.0885 -2.2722  2.1226
  683MOL0     H92140   8.857   0.593   3.921  0.3773  0.3560  0.3173
  683MOL0     H92141   8.854   0.530   3.764 -0.1629 -0.2564  1.2082
  683MOL0     H92142   9.064   0.403   3.822  1.0547 -1.5275  0.9907
  683MOL0     H92143   8.918   0.370   3.915 -1.9368  3.7237  1.7540
  683MOL0     H92144   9.042   0.558   4.074  1.6891  0.9341  0.5304
  683MOL0     H92145   9.182   0.498   3.981 -0.5040 -0.6601 -0.3649
  683MOL0     H92146   8.983   0.328   4.169  1.0007 -1.1997  3.4533
  683MOL0     H92147   9.091   0.256   4.050 -1.1302  0.0007  0.5676
  683MOL0     H92148   9.182   0.243   4.281 -1.1872 -0.7976 -0.7842
  683MOL0     H92149   9.287   0.333   4.165 -0.2520  0.7114 -1.2123
  683MOL0     H92150   9.166   0.552   4.261 -0.4596 -0.3040  0.9140
  683MOL0     H92151   9.101   0.442   4.382 -0.1067 -0.5254 -0.0254
  683MOL0     H92152   9.314   0.399   4.452  2.3403  2.2027  3.1478
  683MOL0     H92153   9.276   0.567   4.461 -0.6928 -0.9779  0.0947
  683MOL0     H92154   9.457   0.443   4.245  1.4934 -0.7713  1.3721
  683MOL0     H92155   9.397   0.608   4.237 -3.0679 -2.6466 -1.5831
  683MOL0     H92156   9.441   0.734   4.517  0.8446 -0.8622  1.7002
  683MOL0     H92157   9.774   0.868   4.542  1.0916 -0.1463 -0.0405
  683MOL0     H92158   9.652   0.872   4.668 -0.8123 -0.2654  0.4179
  683MOL0     H92159   9.750   0.705   4.809  1.1391  0.9805  1.9496
  683MOL0     H92160   9.877   0.672   4.687 -0.8987 -2.9158  2.2600
  683MOL0     H92161   9.812   0.952   4.805  1.7442  1.9213 -0.5433
  683MOL0     H92162   9.944   0.899   4.699 -1.1121 -2.9665 -2.4052
  683MOL0     H92163  10.004   0.732   4.894  0.6997  0.1755 -1.8492
  683MOL0     H92164   9.891   0.820   4.987  0.5276  2.4138  1.4566
  683MOL0     H92165  10.165   0.708   5.021 -0.6662 -0.0937  0.5067
  683MOL0     H92166  10.372   0.704   5.149 -0.7890 -1.3147 -1.7116
  683MOL0     H92167  10.663   0.995   5.495 -2.7766 -0.5779 -0.7384
  683MOL0     H92168  10.823   0.939   5.660  1.6438 -0.4277 -1.9768
  683MOL0     H92169  10.994   0.520   5.738 -3.0209  0.9665  0.1173
  683MOL0     H92170  11.039   0.609   5.599  0.1850  0.0525 -0.8710
  683MOL0     H92171  11.118   0.690   5.882  0.4773  0.9316 -0.1946
  683MOL0     H92172  11.217   0.596   5.765 -0.6195  1.0399 -3.6559
  683MOL0     H92173  11.309   0.786   5.742 -0.4854  0.8306  0.5354
  683MOL0     H92174  11.192   0.799   5.616 -1.9274 -2.6711  0.2970
  683MOL0     H92175  11.154   0.932   5.892  0.0215 -2.3893  0.0146
  683MOL0     H92176  11.059   0.949   5.742 -0.1274  2.1282 -0.3640
  683MOL0     H92177  11.219   1.145   5.773 -1.9056  0.0210 -2.1221
  683MOL0     H92178  11.227   1.062   5.621 -0.5508  0.1771 -1.2084
  683MOL0     H92179  11.435   1.014   5.851  3.0458 -1.9873 -1.3976
  683MOL0     H92180  11.438   0.968   5.679  1.3157 -0.8816  0.9566
  683MOL0     H92181  11.574   1.186   5.713  0.2278 -1.9600 -1.9275
  683MOL0     H92182  11.429   1.265   5.781 -0.5751 -3.0292  1.4960
  683MOL0     H92183  11.463   1.147   5.502 -0.7419 -1.2302  0.4999
  683MOL0     H92184  11.321   1.234   5.552  0.3861 -1.9866 -3.6107
  683MOL0     H92185  10.758   0.513   5.560 -0.4744 -0.0803  0.4924
  683MOL0     H92186  10.609   0.586   5.390  0.5864 -0.2685 -0.8087
  683MOL0     H92187  10.364   1.136   5.177  0.0411  0.1853 -1.3155
  683MOL0     H92188  10.169   1.128   5.031 -1.2196 -0.0382  2.0691
  683MOL0     H92189   8.744   0.727   3.753  1.8023  0.1402  2.7520
  683MOL0     H92190   8.667   0.936   3.614  1.1795  1.1700 -2.1158
  683MOL0     H92191   8.884   1.144   3.099 -1.1200 -0.2791 -1.4368
  683MOL0     H92192   8.814   1.339   2.966  0.3409  3.2581 -0.1310
  683MOL0     H92193   8.762   1.755   3.100 -0.8911  1.1112  1.1302
  683MOL0     H92194   8.601   1.682   3.147  0.6666  1.6759 -0.0918
  683MOL0     H92195   8.546   1.702   2.899  0.9247  0.7353 -3.4099
  683MOL0     H92196   8.703   1.748   2.863 -2.2617 -2.1413 -1.9796
  683MOL0     H92197   8.672   1.958   3.006 -1.8699  2.0455  1.6338
  683MOL0     H92198   8.507   1.911   3.041 -1.4486  1.1556 -1.4935
  683MOL0     H92199   8.425   1.909   2.818  0.6577 -2.1686 -3.4759
  683MOL0     H92200   8.499   2.068   2.858  1.3002 -0.5948  0.9296
  683MOL0     H92201   8.682   1.936   2.503 -0.4775 -0.0375  0.3323
  683MOL0     H92202   8.690   1.555   3.298 -2.9426 -0.4494 -1.4067
  683MOL0     H92203   8.683   1.440   3.532 -0.6112 -0.7510  1.6723
  683MOL0     H92204   8.650   1.271   3.515  3.3993 -3.0567  0.9839
  683MOL0     H92205   8.814   1.338   3.550  0.1162 -0.7538 -0.9010
  684MOL0     O92206   2.974   2.440   3.685  0.3840 -0.2111  0.1383
  684MOL0     C92207   3.047   2.343   3.697  0.1646  0.0852  0.5019
  684MOL0     O92208   3.163   2.317   3.620  0.1816  0.2210  0.1507
  684MOL0     C92209   3.213   2.424   3.546 -0.0968 -0.9979 -0.3621
  684MOL0     C92210   3.254   2.537   3.624  0.6707  0.5191 -0.1052
  684MOL0     C92211   3.329   2.636   3.562  0.2345  0.3010 -0.8057
  684MOL0     C92212   3.369   2.632   3.431  0.3462  0.4345  0.0855
  684MOL0     O92213   3.460   2.733   3.391  0.6067  0.1397 -0.3151
  684MOL0     C92214   3.546   2.707   3.281 -1.3100  0.2200  0.1706
  684MOL0     C92215   3.685   2.731   3.331 -0.5120  0.4172  0.4176
  684MOL0     C92216   3.690   2.872   3.382  0.0654 -0.1917 -0.2349
  684MOL0     C92217   3.834   2.907   3.411  0.4637  0.4282  0.1521
  684MOL0     C92218   3.867   3.050   3.464 -0.2674 -1.0035  0.1917
  684MOL0     C92219   3.799   3.082   3.599 -0.2186 -0.4345 -0.0801
  684MOL0     C92220   3.824   3.227   3.628  0.4510  0.0131  0.0114
  684MOL0     C92221   3.812   3.259   3.774  0.0813  0.4001 -0.6403
  684MOL0     N92222   3.699   3.206   3.849  0.8318  0.3511  0.5163
  684MOL0     C92223   3.568   3.211   3.799  0.0175  0.9073 -0.1684
  684MOL0     C92224   3.500   3.141   3.889  0.3841  1.2249 -0.3616
  684MOL0     C92225   3.354   3.104   3.886  0.0436 -0.3712  0.2154
  684MOL0     C92226   3.329   2.975   3.814 -0.5745 -0.6771  1.3706
  684MOL0     C92227   3.402   2.852   3.887 -0.1562  0.0415  0.1656
  684MOL0     C92228   3.535   2.815   3.836  0.0376  0.0576  0.7540
  684MOL0     O92229   3.580   2.685   3.893  0.1826  0.4273 -0.1793
  684MOL0     C92230   3.707   2.650   3.862 -0.3480 -0.1305 -0.3188
  684MOL0     C92231   3.761   2.556   3.945 -0.4871  0.3738 -0.1014
  684MOL0     C92232   3.891   2.512   3.939  0.2804 -0.4401 -0.1779
  684MOL0     C92233   3.970   2.542   3.831  0.3261 -0.8132 -0.4859
  684MOL0     C92234   4.113   2.510   3.823 -0.1576 -0.1141 -0.3919
  684MOL0     O92235   4.180   2.512   3.701 -0.1636 -0.2486  0.3093
  684MOL0     C92236   4.308   2.483   3.697  0.7418  0.0769  0.1119
  684MOL0     C92237   4.393   2.593   3.667  0.6822  0.3013 -0.0247
  684MOL0     C92238   4.530   2.570   3.663 -0.2322 -0.1739  0.4576
  684MOL0     C92239   4.576   2.438   3.661 -0.4824  0.0003 -0.6035
  684MOL0     O92240   4.712   2.414   3.650  0.1254  0.1385  0.5918
  684MOL0     C92241   4.784   2.378   3.764 -0.3142  0.5314 -0.0517
  684MOL0     C92242   4.833   2.501   3.846  0.2448  0.1761 -0.0906
  684MOL0     C92243   4.926   2.599   3.786  0.6210 -0.0396  0.6558
  684MOL0     C92244   5.029   2.667   3.882 -0.8060 -0.0762  0.7203
  684MOL0     C92245   4.975   2.754   3.996 -0.7569  0.4572 -0.3573
  684MOL0     C92246   5.088   2.826   4.075  0.0645  0.8074 -0.2401
  684MOL0     C92247   5.165   2.722   4.169  0.1523 -0.4009 -0.4674
  684MOL0     C92248   5.275   2.773   4.260 -0.1580  0.0733  0.2847
  684MOL0    Cl92249   5.210   2.901   4.372  0.3482 -0.3606 -0.3052
  684MOL0     C92250   4.490   2.334   3.689  0.5303  0.1113 -0.3623
  684MOL0     C92251   4.356   2.356   3.711  0.6519 -0.3486 -0.5511
  684MOL0     O92252   4.165   2.470   3.927 -0.1356  0.6768 -0.5022
  684MOL0     C92253   3.914   2.620   3.728  0.4071  0.8809 -0.7064
  684MOL0     C92254   3.791   2.686   3.753 -0.6036  0.6639 -0.2790
  684MOL0     N92255   3.585   3.096   3.993  0.3982  0.6098 -0.6930
  684MOL0     N92256   3.702   3.131   3.965  0.2417 -0.3609 -0.0744
  684MOL0     C92257   3.316   2.533   3.346  0.0050 -0.0995  0.1279
  684MOL0     C92258   3.242   2.436   3.406  0.6708  0.3739 -0.6342
  684MOL0     C92259   3.046   2.281   3.832  1.0129 -0.5153 -0.3698
  684MOL0     C92260   3.156   2.207   3.881  0.0100 -0.5504 -0.5896
  684MOL0     C92261   3.156   2.133   4.010  0.5672 -1.2642 -0.5146
  684MOL0     C92262   3.044   2.139   4.089 -0.3740 -0.3173  0.7312
  684MOL0     O92263   3.034   2.054   4.200 -0.1108 -0.3015  0.1155
  684MOL0     C92264   2.913   2.036   4.261  0.3690 -0.3201  0.3895
  684MOL0     C92265   2.928   1.935   4.374  0.4017 -0.3445  0.0348
  684MOL0     C92266   2.956   1.788   4.336 -0.5530 -0.1622  0.8382
  684MOL0     C92267   2.838   1.690   4.338  0.7458  0.0653  0.2343
  684MOL0     C92268   2.771   1.681   4.461  0.0012  0.1801  0.1265
  684MOL0     C92269   2.719   1.672   4.568 -1.3371  0.0835  0.0946
  684MOL0     C92270   2.944   2.220   4.040 -0.1536  0.2019 -0.3199
  684MOL0     C92271   2.932   2.286   3.919  0.1121  0.0676  0.0321
  684MOL0     C92272   2.805   2.355   3.890 -1.0417 -0.3893  0.1195
  684MOL0     H92273   3.220   2.554   3.726  0.1506  0.7572 -0.3184
  684MOL0     H92274   3.360   2.726   3.614  0.5825  0.6142 -1.5481
  684MOL0     H92275   3.540   2.607   3.239 -2.0013  1.4364 -2.9108
  684MOL0     H92276   3.512   2.782   3.209 -1.7307  0.6996  0.8555
  684MOL0     H92277   3.752   2.726   3.245 -2.6934  3.7326 -1.6820
  684MOL0     H92278   3.705   2.665   3.416  0.1255  0.0376 -0.0229
  684MOL0     H92279   3.631   2.879   3.474 -1.4089 -1.7780 -1.0034
  684MOL0     H92280   3.633   2.939   3.317  1.5203  3.4688  1.9745
  684MOL0     H92281   3.875   2.835   3.483 -0.4984 -1.5505 -1.1679
  684MOL0     H92282   3.884   2.885   3.315 -0.8401  1.5504 -0.8252
  684MOL0     H92283   3.974   3.069   3.457 -0.3733 -0.8805 -1.5549
  684MOL0     H92284   3.826   3.117   3.387 -0.2111 -2.6451 -1.3415
  684MOL0     H92285   3.692   3.064   3.592  0.0336 -1.8403 -0.6800
  684MOL0     H92286   3.849   3.020   3.675  3.4109  0.4709 -1.5321
  684MOL0     H92287   3.755   3.286   3.567 -0.8878 -1.2225  0.2726
  684MOL0     H92288   3.927   3.253   3.601 -0.0880  2.0450 -0.2446
  684MOL0     H92289   3.903   3.213   3.815  1.6067  2.5539 -1.4362
  684MOL0     H92290   3.824   3.363   3.805 -3.8282  0.3832  1.5937
  684MOL0     H92291   3.538   3.260   3.707 -0.7940  0.5223 -0.1236
  684MOL0     H92292   3.320   3.102   3.990  0.6157 -0.4299  0.4059
  684MOL0     H92293   3.304   3.186   3.833  1.5490 -1.5860 -3.3890
  684MOL0     H92294   3.221   2.962   3.808 -0.6595  0.6610 -0.7521
  684MOL0     H92295   3.367   2.987   3.712  1.8271  0.0826  2.2808
  684MOL0     H92296   3.326   2.774   3.889 -2.0713  1.8233  0.0531
  684MOL0     H92297   3.408   2.881   3.993 -4.3627 -0.3795  0.6822
  684MOL0     H92298   3.611   2.890   3.859  0.5024 -0.4173  0.8074
  684MOL0     H92299   3.545   2.811   3.727  0.6967 -0.6979  0.8262
  684MOL0     H92300   3.702   2.509   4.023 -2.7034  1.1358 -1.2239
  684MOL0     H92301   3.924   2.453   4.024  1.1909 -0.9907 -0.8984
  684MOL0     H92302   4.353   2.693   3.672 -1.9470 -0.7248  1.7919
  684MOL0     H92303   4.593   2.657   3.649  0.2274 -0.2158  2.1331
  684MOL0     H92304   4.733   2.302   3.824 -2.3739  1.8558 -0.0288
  684MOL0     H92305   4.871   2.323   3.726 -0.0498  1.4656 -0.8489
  684MOL0     H92306   4.740   2.556   3.867  0.4843  0.7752 -0.5849
  684MOL0     H92307   4.884   2.451   3.928 -0.1243 -1.5502 -0.8620
  684MOL0     H92308   4.974   2.542   3.706  0.5459  1.6012 -0.6261
  684MOL0     H92309   4.857   2.674   3.745  0.1221 -0.4847  0.6671
  684MOL0     H92310   5.102   2.726   3.827  0.7512  0.1414  2.8988
  684MOL0     H92311   5.087   2.581   3.916  0.6328 -0.2896 -1.9756
  684MOL0     H92312   4.904   2.697   4.057 -0.8596 -0.7081 -1.5316
  684MOL0     H92313   4.919   2.839   3.954 -0.9286  0.4216 -0.2034
  684MOL0     H92314   5.168   2.875   4.018  1.7138  1.8183  2.7065
  684MOL0     H92315   5.030   2.899   4.132 -0.3724  1.5522 -1.5898
  684MOL0     H92316   5.206   2.638   4.113 -1.0402 -1.6053  0.3911
  684MOL0     H92317   5.094   2.668   4.233  0.6993  0.6584  1.0930
  684MOL0     H92318   5.306   2.691   4.326 -1.2451  0.9966  2.0088
  684MOL0     H92319   5.356   2.797   4.191 -0.6046  0.4925 -0.0973
  684MOL0     H92320   4.515   2.229   3.695 -2.1543 -0.5684  0.1087
  684MOL0     H92321   4.283   2.277   3.722  0.7366 -0.2355  1.0344
  684MOL0     H92322   3.968   2.617   3.634  1.5101 -3.4663 -0.1327
  684MOL0     H92323   3.764   2.769   3.688 -3.2130 -1.3774 -2.0259
  684MOL0     H92324   3.343   2.530   3.241 -0.2829 -1.1322  0.0689
  684MOL0     H92325   3.193   2.361   3.344 -0.4995  0.6567 -0.0891
  684MOL0     H92326   3.238   2.204   3.811  0.5405  3.7194 -0.4051
  684MOL0     H92327   3.240   2.078   4.051  1.5877  2.0260  2.2922
  684MOL0     H92328   2.846   1.994   4.186 -1.7588  1.5241  1.1551
  684MOL0     H92329   2.865   2.130   4.289  1.9940  0.2367  1.5166
  684MOL0     H92330   2.835   1.937   4.432 -0.7788  1.6478 -1.7922
  684MOL0     H92331   3.010   1.968   4.438  0.6042 -0.1000 -0.3511
  684MOL0     H92332   3.039   1.757   4.400  2.6878  1.4399 -2.2325
  684MOL0     H92333   2.994   1.788   4.233  1.0227  0.3199  1.3915
  684MOL0     H92334   2.766   1.714   4.259 -0.2475 -2.7077  0.1633
  684MOL0     H92335   2.874   1.589   4.316  0.6195  0.2373 -0.7949
  684MOL0     H92336   2.678   1.674   4.667  1.0724  1.4585  1.1555
  684MOL0     H92337   2.866   2.226   4.114  3.4983  1.6754  3.8092
  684MOL0     H92338   2.739   2.327   3.973  0.0301 -1.2407  0.7215
  684MOL0     H92339   2.810   2.465   3.884 -2.6167 -0.2828  0.4559
  684MOL0     H92340   2.765   2.326   3.793 -1.3706  0.8287 -0.1261
  685MOL0     O92341   2.500   2.514   7.037 -0.0090  0.2444  0.7218
  685MOL0     C92342   2.530   2.613   7.098  0.2081 -0.0798 -0.5690
  685MOL0     O92343   2.439   2.709   7.140 -0.3034  0.5064  0.7688
  685MOL0     C92344   2.309   2.715   7.095 -0.0114  0.1133 -0.9309
  685MOL0     C92345   2.214   2.718   7.196 -0.6777 -0.6081 -0.2892
  685MOL0     C92346   2.079   2.698   7.174 -0.3438 -0.1373  0.1870
  685MOL0     C92347   2.042   2.693   7.037 -0.5796  0.4191 -0.6287
  685MOL0     O92348   1.912   2.701   7.024 -0.8950 -0.1694  0.6948
  685MOL0     C92349   1.865   2.776   6.911 -0.0642  0.0842  0.1488
  685MOL0     C92350   1.733   2.861   6.943 -0.9976  0.7027 -0.3715
  685MOL0     C92351   1.606   2.786   6.891 -0.3526  0.4386  0.7979
  685MOL0     C92352   1.477   2.864   6.894  0.3703  1.0597 -0.9949
  685MOL0     C92353   1.437   2.892   7.039 -0.0427  0.5524  0.6054
  685MOL0     C92354   1.294   2.958   7.049 -1.2697  0.6147 -0.5275
  685MOL0     C92355   1.286   3.028   7.185  0.5701 -0.4783  0.1060
  685MOL0     C92356   1.147   3.080   7.213 -0.3285 -0.1439 -0.3215
  685MOL0     N92357   1.131   3.157   7.339 -0.1042 -0.1034 -0.0488
  685MOL0     C92358   1.119   3.091   7.463 -0.8040 -0.4567 -0.0209
  685MOL0     C92359   1.088   3.189   7.553 -0.3716 -0.0696 -0.9615
  685MOL0     C92360   1.070   3.169   7.703 -0.3423  0.4765 -0.7544
  685MOL0     C92361   1.203   3.157   7.766 -0.6490 -0.1644  0.0668
  685MOL0     C92362   1.192   3.150   7.921 -0.3681 -0.3245 -0.4158
  685MOL0     C92363   1.151   3.288   7.986  0.3048 -0.3970 -0.2639
  685MOL0     O92364   1.169   3.284   8.128 -0.9294 -0.5689  0.3932
  685MOL0     C92365   1.293   3.321   8.172 -0.3442  0.3517  0.0363
  685MOL0     C92366   1.411   3.327   8.091  0.4763 -0.3772 -0.8402
  685MOL0     C92367   1.542   3.337   8.151 -0.2731  0.3847  0.7366
  685MOL0     C92368   1.553   3.354   8.287 -0.5459 -0.0432 -0.5515
  685MOL0     C92369   1.679   3.365   8.365 -0.0518 -0.3825 -1.8969
  685MOL0     O92370   1.781   3.419   8.288 -0.7782 -0.0952 -0.5150
  685MOL0     C92371   1.909   3.421   8.343  0.0603 -0.4209 -0.0991
  685MOL0     C92372   1.974   3.535   8.321 -0.5886 -0.9178 -0.0992
  685MOL0     C92373   2.107   3.566   8.364  1.1462 -0.6237  0.2974
  685MOL0     C92374   2.179   3.464   8.432 -0.4206  0.4749 -0.0692
  685MOL0     O92375   2.311   3.460   8.468 -0.0909 -0.0629 -0.3895
  685MOL0     C92376   2.385   3.579   8.427 -0.4795  0.8341 -0.0676
  685MOL0     C92377   2.536   3.537   8.421  0.8381  0.2236  0.3438
  685MOL0     C92378   2.610   3.659   8.406 -0.7513 -1.0987 -0.1706
  685MOL0     C92379   2.753   3.632   8.448  0.0166  0.3759 -0.0794
  685MOL0     C92380   2.857   3.735   8.435 -0.0373 -0.7580  0.4289
  685MOL0     C92381   2.841   3.848   8.328 -0.1819  0.3316 -0.3645
  685MOL0     C92382   2.958   3.940   8.326 -0.2117  0.4246 -0.3119
  685MOL0     C92383   2.900   4.075   8.264  0.7952  0.1531 -0.9427
  685MOL0    Cl92384   2.769   4.140   8.383 -0.1532 -0.3235  0.6196
  685MOL0     C92385   2.113   3.337   8.460 -0.3557 -0.8098  0.3606
  685MOL0     C92386   1.988   3.318   8.409  0.3047 -0.0620  1.1073
  685MOL0     O92387   1.695   3.324   8.484 -0.4524 -0.0755 -0.2999
  685MOL0     C92388   1.431   3.379   8.362  0.6012  0.0207 -0.2072
  685MOL0     C92389   1.305   3.348   8.307 -0.9537 -0.1127 -0.3513
  685MOL0     N92390   1.078   3.309   7.480  0.6978 -0.5859 -0.3308
  685MOL0     N92391   1.112   3.289   7.350  0.3131  0.5462  0.1216
  685MOL0     C92392   2.137   2.684   6.930 -0.3035 -0.2755 -0.6755
  685MOL0     C92393   2.271   2.686   6.965  0.2989 -0.5215 -1.1583
  685MOL0     C92394   2.673   2.626   7.130  0.5040  0.1562  0.8758
  685MOL0     C92395   2.707   2.735   7.211  0.0629  0.4804  0.2141
  685MOL0     C92396   2.837   2.768   7.239  0.6887  0.0589 -0.0555
  685MOL0     C92397   2.938   2.691   7.187  0.0004 -0.5018  0.1502
  685MOL0     O92398   3.066   2.735   7.213  0.1566  0.3736 -0.8674
  685MOL0     C92399   3.180   2.652   7.174  0.0201 -0.3106 -0.3012
  685MOL0     C92400   3.308   2.695   7.256  0.8072 -0.1740  0.4675
  685MOL0     C92401   3.326   2.849   7.256 -0.0372 -0.0674  0.1272
  685MOL0     C92402   3.395   2.891   7.392 -0.0036 -0.4457  0.3738
  685MOL0     C92403   3.540   2.841   7.384  0.7609  0.0410  0.2078
  685MOL0     C92404   3.658   2.835   7.366  0.0298  0.6913  0.0665
  685MOL0     C92405   2.912   2.585   7.104  0.1038 -0.2245  0.4658
  685MOL0     C92406   2.782   2.554   7.071  0.0798  0.0246 -0.0152
  685MOL0     C92407   2.762   2.442   6.980  0.0410  0.3413  0.8522
  685MOL0     H92408   2.259   2.727   7.294  2.5957 -2.3543 -1.4933
  685MOL0     H92409   2.006   2.706   7.253  0.6842 -1.8282  1.3859
  685MOL0     H92410   1.943   2.849   6.888 -0.6018  0.3608 -0.8310
  685MOL0     H92411   1.850   2.708   6.827 -1.6006  0.3930  0.1395
  685MOL0     H92412   1.736   2.968   6.920 -1.2422  0.5829 -0.9795
  685MOL0     H92413   1.730   2.857   7.052  1.3644  1.3745 -0.2298
  685MOL0     H92414   1.604   2.690   6.945 -0.1442  0.4161  0.7665
  685MOL0     H92415   1.616   2.770   6.784 -0.8628  2.6971  0.3693
  685MOL0     H92416   1.502   2.958   6.843 -0.9844  3.2846  2.1189
  685MOL0     H92417   1.387   2.817   6.854  0.7157  1.4013 -2.2449
  685MOL0     H92418   1.440   2.798   7.095 -0.4360 -0.8579 -1.6109
  685MOL0     H92419   1.515   2.956   7.081  1.9474  0.3398 -2.4704
  685MOL0     H92420   1.272   3.025   6.966 -2.4435  2.2182  1.0166
  685MOL0     H92421   1.223   2.875   7.058 -0.0198 -0.3680  0.9535
  685MOL0     H92422   1.346   3.119   7.176 -4.0825  3.0067  0.1552
  685MOL0     H92423   1.321   2.957   7.260 -0.8916 -0.1166  1.1857
  685MOL0     H92424   1.100   3.132   7.128 -2.1582  0.1564  0.8042
  685MOL0     H92425   1.092   2.985   7.213  3.8941 -2.8280  0.1038
  685MOL0     H92426   1.133   2.984   7.477  0.8396 -0.5244 -1.6996
  685MOL0     H92427   1.011   3.243   7.758 -0.0745 -0.5337  0.9642
  685MOL0     H92428   1.018   3.073   7.706  1.5188 -0.5776 -0.2807
  685MOL0     H92429   1.249   3.068   7.722 -0.2716  1.8824 -4.2174
  685MOL0     H92430   1.266   3.241   7.736 -0.3765 -0.5061 -0.3281
  685MOL0     H92431   1.287   3.114   7.959  0.5110  1.2527 -1.0221
  685MOL0     H92432   1.118   3.072   7.944 -0.7773 -0.7332 -2.7928
  685MOL0     H92433   1.045   3.297   7.959  0.3539  0.3468 -0.2223
  685MOL0     H92434   1.188   3.378   7.936  0.8899  0.1381  1.1104
  685MOL0     H92435   1.408   3.307   7.985  0.0128  1.2309 -1.1610
  685MOL0     H92436   1.622   3.332   8.078 -1.5504 -1.0312 -0.6265
  685MOL0     H92437   1.918   3.617   8.278 -1.3796 -2.6478 -2.5458
  685MOL0     H92438   2.149   3.664   8.345 -2.1888  0.8884 -0.0583
  685MOL0     H92439   2.356   3.618   8.329  0.2840 -0.0663 -0.6809
  685MOL0     H92440   2.369   3.657   8.502 -4.3061 -0.5525  0.7916
  685MOL0     H92441   2.564   3.489   8.515 -1.1119  0.5855  1.1586
  685MOL0     H92442   2.549   3.461   8.342 -4.7618 -1.2905  0.4659
  685MOL0     H92443   2.613   3.679   8.299  0.1716 -0.9468 -0.1293
  685MOL0     H92444   2.574   3.748   8.458  2.6664  0.5802 -0.3670
  685MOL0     H92445   2.807   3.553   8.395 -1.7313 -1.6252  0.9746
  685MOL0     H92446   2.743   3.597   8.551  4.1331 -2.2193 -0.3224
  685MOL0     H92447   2.960   3.697   8.430  0.9385  1.5910  1.1636
  685MOL0     H92448   2.856   3.789   8.530  0.1178  0.8116 -0.4153
  685MOL0     H92449   2.816   3.810   8.228 -0.1253  2.1712 -1.1137
  685MOL0     H92450   2.751   3.900   8.361 -0.5755 -1.8307  2.3759
  685MOL0     H92451   3.039   3.897   8.265  0.8484  0.5164  0.9767
  685MOL0     H92452   2.998   3.977   8.420  1.9826  0.5087 -1.2101
  685MOL0     H92453   2.981   4.146   8.242  2.5716 -1.6996 -0.6991
  685MOL0     H92454   2.848   4.064   8.168  1.2676  1.1397 -1.3303
  685MOL0     H92455   2.168   3.262   8.516  0.1911 -0.8548 -0.2261
  685MOL0     H92456   1.951   3.217   8.400 -1.0555  0.6219 -2.4634
  685MOL0     H92457   1.435   3.387   8.470  1.9628 -1.9889 -0.0592
  685MOL0     H92458   1.220   3.336   8.374 -1.9841 -2.1218 -1.9031
  685MOL0     H92459   2.101   2.689   6.828  1.0755  0.1753 -1.1555
  685MOL0     H92460   2.354   2.684   6.895 -0.3287  0.0441 -1.9432
  685MOL0     H92461   2.624   2.795   7.248  0.4890  1.3489 -0.2096
  685MOL0     H92462   2.872   2.861   7.284 -2.2180  3.0106 -3.3184
  685MOL0     H92463   3.197   2.661   7.066  2.1223  0.6033  0.0467
  685MOL0     H92464   3.149   2.551   7.204 -3.2436  1.0883  1.4832
  685MOL0     H92465   3.391   2.639   7.212 -0.4835 -0.1920 -2.1186
  685MOL0     H92466   3.295   2.658   7.359  0.2848  1.3230  0.9710
  685MOL0     H92467   3.235   2.909   7.247 -0.9889 -1.0770  2.4353
  685MOL0     H92468   3.386   2.879   7.169  0.1765  4.0623  1.4825
  685MOL0     H92469   3.389   2.999   7.411 -0.7366 -0.5197  0.5655
  685MOL0     H92470   3.342   2.849   7.478  0.2259  1.5124  1.5557
  685MOL0     H92471   3.765   2.829   7.368  0.0555  1.1064  0.1404
  685MOL0     H92472   2.989   2.519   7.066  1.5539  2.1300 -0.9248
  685MOL0     H92473   2.735   2.348   7.029 -0.5572 -0.4060 -0.8381
  685MOL0     H92474   2.688   2.472   6.906  0.7268  1.8364  0.7158
  685MOL0     H92475   2.849   2.426   6.916 -0.9182  1.0666 -0.6948
  686MOL0     O92476   1.730   7.923   9.400  0.1844 -0.7721 -0.2209
  686MOL0     C92477   1.720   8.004   9.308 -0.1746 -0.3005 -0.7557
  686MOL0     O92478   1.821   8.081   9.265  0.1516 -0.3935 -0.1985
  686MOL0     C92479   1.915   8.116   9.364  0.4761  0.2370 -0.8869
  686MOL0     C92480   2.051   8.129   9.337  0.3103  0.6359  0.0161
  686MOL0     C92481   2.147   8.162   9.429 -0.1432 -0.5141  0.0186
  686MOL0     C92482   2.114   8.182   9.561 -0.3420 -0.7227  0.9885
  686MOL0     O92483   2.205   8.205   9.655  0.1546 -0.3510 -0.1121
  686MOL0     C92484   2.273   8.330   9.638 -0.0144  0.3588 -0.1872
  686MOL0     C92485   2.355   8.371   9.769  0.2933  0.1887 -0.2952
  686MOL0     C92486   2.437   8.258   9.820 -0.3822  0.0506  0.3131
  686MOL0     C92487   2.524   8.308   9.935 -0.0846  0.1159 -0.2005
  686MOL0     C92488   2.628   8.191   9.968  1.2452 -0.5769 -0.8202
  686MOL0     C92489   2.699   8.226  10.099  1.2338  0.0878 -0.3132
  686MOL0     C92490   2.776   8.101  10.160  0.7222  0.3368 -1.2265
  686MOL0     C92491   2.908   8.050  10.097 -0.0294 -0.3549 -0.0367
  686MOL0     N92492   2.890   7.975   9.974  0.1831  0.3249 -0.0243
  686MOL0     C92493   2.956   8.009   9.854  0.2369  0.4110 -0.4237
  686MOL0     C92494   2.912   7.907   9.774 -0.1551 -0.6116 -0.0032
  686MOL0     C92495   2.933   7.888   9.625 -0.1053 -0.0187 -1.1638
  686MOL0     C92496   3.044   7.792   9.584  0.7197 -0.5155 -0.0993
  686MOL0     C92497   3.174   7.818   9.649 -0.0267 -0.3841 -0.0007
  686MOL0     C92498   3.285   7.718   9.597  0.3063  0.4022 -0.3403
  686MOL0     O92499   3.312   7.729   9.461 -0.7741 -0.2028 -0.7035
  686MOL0     C92500   3.404   7.649   9.405  0.5192 -0.2095  0.3701
  686MOL0     C92501   3.498   7.571   9.474 -0.8908  0.2106  0.0614
  686MOL0     C92502   3.602   7.506   9.405  0.5250 -0.1726  0.1204
  686MOL0     C92503   3.625   7.526   9.264  0.3012 -0.3045 -0.0120
  686MOL0     C92504   3.744   7.472   9.195 -0.7341 -1.1477 -0.5769
  686MOL0     O92505   3.803   7.368   9.262 -0.2625  0.7064  0.9849
  686MOL0     C92506   3.916   7.326   9.206  1.1946  0.3157  0.9651
  686MOL0     C92507   4.039   7.349   9.278  1.0992  0.4788  0.7794
  686MOL0     C92508   4.152   7.280   9.255 -0.3676 -0.2082  0.0780
  686MOL0     C92509   4.161   7.209   9.134  0.1328  0.3546  0.7293
  686MOL0     O92510   4.282   7.142   9.113 -0.4250  0.5103 -0.3915
  686MOL0     C92511   4.317   7.111   8.977 -0.8717 -0.2006 -0.0472
  686MOL0     C92512   4.474   7.078   8.971  1.1567 -0.2641  0.2616
  686MOL0     C92513   4.530   7.078   8.832 -0.9145  0.2170  0.8270
  686MOL0     C92514   4.608   7.209   8.795  0.3743 -0.2385 -0.4386
  686MOL0     C92515   4.688   7.182   8.661  0.0551  0.0976 -0.2566
  686MOL0     C92516   4.765   7.302   8.632  0.4606  0.1558 -0.0038
  686MOL0     C92517   4.844   7.293   8.498  0.3041 -0.5747  1.0306
  686MOL0     C92518   4.977   7.231   8.521 -0.5617 -0.5024  0.1973
  686MOL0    Cl92519   5.081   7.231   8.378 -0.0559  0.6372  0.3051
  686MOL0     C92520   4.049   7.187   9.044 -0.3661  0.0319 -0.7492
  686MOL0     C92521   3.929   7.235   9.100  0.0772  1.2078 -0.6066
  686MOL0     O92522   3.782   7.529   9.088  0.3101  0.0535  0.2789
  686MOL0     C92523   3.527   7.597   9.193  0.7426  0.5697  0.3183
  686MOL0     C92524   3.419   7.649   9.258 -0.6331 -0.3928 -0.6238
  686MOL0     N92525   2.818   7.826   9.840 -0.6320 -0.0841  0.5231
  686MOL0     N92526   2.806   7.864   9.961 -0.6378  0.3930 -0.4154
  686MOL0     C92527   1.977   8.174   9.597 -0.0578  0.1220 -0.0451
  686MOL0     C92528   1.882   8.141   9.499 -0.2532 -0.3511 -0.1231
  686MOL0     C92529   1.611   8.005   9.208  0.0557 -0.4735 -0.4636
  686MOL0     C92530   1.579   8.119   9.128 -0.9112  0.3548 -0.0531
  686MOL0     C92531   1.485   8.130   9.025  0.5428  0.3453 -0.6565
  686MOL0     C92532   1.393   8.023   9.019 -0.4848  0.2281  0.4796
  686MOL0     O92533   1.286   8.025   8.927 -0.0518 -0.2042 -0.2463
  686MOL0     C92534   1.252   8.134   8.839 -0.6764  0.9793 -0.1729
  686MOL0     C92535   1.155   8.100   8.722 -0.4654  0.5722 -0.0379
  686MOL0     C92536   1.008   8.103   8.764  0.6764 -0.2099 -0.5150
  686MOL0     C92537   0.922   8.044   8.650 -0.2894 -1.2683  0.3697
  686MOL0     C92538   0.792   8.122   8.634  0.1143  0.7912 -0.8836
  686MOL0     C92539   0.679   8.164   8.645  0.5201 -0.5005 -0.6701
  686MOL0     C92540   1.405   7.917   9.111  0.1869  0.3963 -0.6878
  686MOL0     C92541   1.512   7.903   9.207  0.3800 -0.1029 -0.5349
  686MOL0     C92542   1.507   7.784   9.292 -0.2996  0.3067  0.1813
  686MOL0     H92543   2.080   8.122   9.232  2.4445  0.4256  0.5648
  686MOL0     H92544   2.251   8.166   9.398 -0.4177 -1.7289 -1.1677
  686MOL0     H92545   2.343   8.325   9.554 -1.5823  3.3626 -1.8215
  686MOL0     H92546   2.204   8.413   9.626 -1.4196 -0.9155 -1.3754
  686MOL0     H92547   2.274   8.400   9.836 -0.6144 -0.8684 -0.8968
  686MOL0     H92548   2.418   8.456   9.741  0.4305 -0.1353 -1.0117
  686MOL0     H92549   2.496   8.213   9.740 -0.0381 -2.5055  1.8850
  686MOL0     H92550   2.361   8.187   9.855  0.4803 -0.3842  1.3572
  686MOL0     H92551   2.570   8.406   9.918  1.5828 -0.7095 -0.6766
  686MOL0     H92552   2.471   8.314  10.030 -1.3456  0.8530 -0.9249
  686MOL0     H92553   2.570   8.099   9.971  0.1713  0.0808  2.4619
  686MOL0     H92554   2.710   8.181   9.896  0.6129 -0.5474 -1.5513
  686MOL0     H92555   2.770   8.309  10.094  2.7352 -1.0924  0.6207
  686MOL0     H92556   2.615   8.247  10.167 -0.9916 -2.3660 -2.1159
  686MOL0     H92557   2.699   8.023  10.157  0.3575  0.7018 -3.0825
  686MOL0     H92558   2.791   8.128  10.265 -0.3700  2.1745 -1.4914
  686MOL0     H92559   2.976   8.132  10.074 -3.1886  2.2788 -0.7327
  686MOL0     H92560   2.953   7.981  10.169 -0.2987 -1.2115 -0.6629
  686MOL0     H92561   3.036   8.079   9.834  2.5685 -2.5338 -2.1896
  686MOL0     H92562   2.843   7.845   9.580 -0.6437  0.3785 -0.4854
  686MOL0     H92563   2.955   7.989   9.590  0.2269  0.6416  0.8549
  686MOL0     H92564   3.013   7.691   9.612 -0.9386 -0.0118  0.0025
  686MOL0     H92565   3.052   7.800   9.476 -1.2222  0.8179 -0.1860
  686MOL0     H92566   3.161   7.825   9.758  2.1972 -0.3623  0.3058
  686MOL0     H92567   3.208   7.920   9.626 -1.7890  0.9630  2.7628
  686MOL0     H92568   3.240   7.620   9.619  0.6549  1.1906  5.7430
  686MOL0     H92569   3.372   7.723   9.663 -0.5387  1.8316  0.7214
  686MOL0     H92570   3.495   7.541   9.578 -1.7880 -4.9874 -1.1806
  686MOL0     H92571   3.666   7.437   9.461  1.6322 -1.4441 -2.5314
  686MOL0     H92572   4.040   7.420   9.360  2.3848  0.8927  0.4343
  686MOL0     H92573   4.239   7.281   9.320 -0.8959  1.9930  0.8353
  686MOL0     H92574   4.254   7.033   8.932 -3.9747  2.5457 -0.9313
  686MOL0     H92575   4.300   7.198   8.912 -0.7961  0.5690  0.9334
  686MOL0     H92576   4.530   7.149   9.032 -2.0514  0.1510  3.0468
  686MOL0     H92577   4.471   6.978   9.016  0.6709 -1.0979 -1.5293
  686MOL0     H92578   4.600   6.995   8.832 -1.3889 -0.1878  0.8403
  686MOL0     H92579   4.463   7.058   8.747 -0.5966 -0.1862  0.6719
  686MOL0     H92580   4.691   7.234   8.863  2.7014  0.3290 -3.2726
  686MOL0     H92581   4.538   7.293   8.788 -0.1818 -0.8334 -4.2409
  686MOL0     H92582   4.614   7.154   8.586 -0.9426 -1.4727  1.2373
  686MOL0     H92583   4.759   7.098   8.666 -0.2497 -0.0766  1.9141
  686MOL0     H92584   4.693   7.384   8.621 -0.6074 -0.1204  3.7365
  686MOL0     H92585   4.832   7.328   8.714  1.8814 -1.7113 -0.4908
  686MOL0     H92586   4.857   7.397   8.470 -1.2630 -1.0437 -1.7549
  686MOL0     H92587   4.782   7.236   8.429 -2.0720  0.0594  2.5368
  686MOL0     H92588   5.034   7.292   8.592 -0.1622  0.2965 -0.7934
  686MOL0     H92589   4.965   7.126   8.552  2.4636 -1.6507 -1.9659
  686MOL0     H92590   4.059   7.125   8.956  2.3544  0.2930 -0.7268
  686MOL0     H92591   3.847   7.191   9.044  2.2171 -0.9926 -2.1980
  686MOL0     H92592   3.541   7.611   9.086  3.3441 -3.0383  0.0055
  686MOL0     H92593   3.341   7.706   9.208 -0.2397  2.7918  2.1135
  686MOL0     H92594   1.943   8.189   9.699  0.6838  1.4240  0.0259
  686MOL0     H92595   1.777   8.143   9.529 -0.0638  2.6291  0.6729
  686MOL0     H92596   1.649   8.202   9.142  2.1329 -1.9488 -0.4959
  686MOL0     H92597   1.477   8.226   8.976 -0.9973  1.5869  1.7907
  686MOL0     H92598   1.348   8.165   8.796  0.3928  1.5357  2.4362
  686MOL0     H92599   1.205   8.216   8.894 -0.1886  0.8756  0.4118
  686MOL0     H92600   1.171   7.998   8.687 -0.7977  0.2975  0.5948
  686MOL0     H92601   1.176   8.170   8.641  3.2691 -1.3175 -0.8960
  686MOL0     H92602   0.971   8.201   8.795  2.2519 -0.4389  2.4136
  686MOL0     H92603   0.992   8.041   8.853 -0.4063 -3.9257 -3.0273
  686MOL0     H92604   0.979   8.068   8.560  1.7093 -0.2228  1.8323
  686MOL0     H92605   0.911   7.935   8.641 -0.2347 -1.1230 -1.8631
  686MOL0     H92606   0.576   8.190   8.650 -0.0229 -2.5397 -0.0774
  686MOL0     H92607   1.326   7.843   9.119  0.1563  0.6110  2.5380
  686MOL0     H92608   1.464   7.813   9.388 -1.2242  0.5446 -0.2972
  686MOL0     H92609   1.447   7.702   9.253 -0.0790 -0.5404  1.5330
  686MOL0     H92610   1.604   7.736   9.312  1.0784  1.8055 -2.3676
  687MOL0     O92611   7.873   6.769   4.269  1.0625 -0.1962  0.6814
  687MOL0     C92612   7.854   6.646   4.254 -1.0558  0.6362  0.7384
  687MOL0     O92613   7.734   6.585   4.220 -0.4388 -0.1371 -0.4323
  687MOL0     C92614   7.633   6.666   4.179  0.1552 -0.0436  1.0740
  687MOL0     C92615   7.644   6.783   4.099  0.7575  0.5747 -0.0886
  687MOL0     C92616   7.527   6.853   4.061  0.5036 -0.5317  0.5937
  687MOL0     C92617   7.401   6.797   4.087 -0.8508 -0.1401 -0.1695
  687MOL0     O92618   7.296   6.857   4.022 -0.5106  0.1695 -0.5975
  687MOL0     C92619   7.168   6.780   4.031 -0.6635 -0.3857 -0.6191
  687MOL0     C92620   7.077   6.855   3.949  0.0118  0.9150 -0.2459
  687MOL0     C92621   7.114   6.883   3.800  0.5702 -0.7966  0.6344
  687MOL0     C92622   6.999   6.960   3.738  0.4747 -0.0189  0.1743
  687MOL0     C92623   6.877   6.872   3.709  0.5710  0.0240  0.9325
  687MOL0     C92624   6.771   6.957   3.620  0.2066 -0.7225  0.6674
  687MOL0     C92625   6.628   6.917   3.669 -1.2314 -0.2942  0.2077
  687MOL0     C92626   6.522   6.994   3.580  0.2533  0.5919 -0.7234
  687MOL0     N92627   6.385   6.931   3.603  0.3902 -0.1597  0.7788
  687MOL0     C92628   6.320   6.846   3.518  0.6906 -0.9389 -0.5765
  687MOL0     C92629   6.210   6.806   3.580 -0.2652 -0.5246 -0.3961
  687MOL0     C92630   6.130   6.690   3.543  0.2063 -0.7089 -0.6049
  687MOL0     C92631   6.209   6.578   3.486 -0.1580  0.0968 -0.1682
  687MOL0     C92632   6.287   6.492   3.586 -0.3881  0.8393  0.1776
  687MOL0     C92633   6.386   6.549   3.696  0.2366  0.0023  0.4676
  687MOL0     O92634   6.465   6.435   3.729  0.4822 -0.7318  0.3789
  687MOL0     C92635   6.569   6.455   3.821  0.3696 -0.0515 -0.8738
  687MOL0     C92636   6.679   6.527   3.778 -0.6301  0.5279  0.5088
  687MOL0     C92637   6.785   6.549   3.869 -0.5449  0.1211 -0.3562
  687MOL0     C92638   6.793   6.481   3.992 -0.1440 -0.7245  0.2919
  687MOL0     C92639   6.908   6.480   4.086  0.6353 -0.6672 -0.6597
  687MOL0     O92640   6.950   6.354   4.110 -0.0098 -0.3561  0.0257
  687MOL0     C92641   7.066   6.337   4.173 -0.2234  0.0019 -0.0612
  687MOL0     C92642   7.182   6.338   4.096 -0.1047 -0.0018  0.3951
  687MOL0     C92643   7.310   6.307   4.160  0.3661 -0.3045  0.9533
  687MOL0     C92644   7.324   6.294   4.298  0.8910  0.5796  0.6328
  687MOL0     O92645   7.452   6.266   4.344  0.0004  0.1242 -0.6161
  687MOL0     C92646   7.458   6.253   4.489  0.5889  0.3941 -0.0214
  687MOL0     C92647   7.600   6.229   4.540 -1.0988  0.7460  1.0328
  687MOL0     C92648   7.642   6.087   4.494  0.1686 -0.3493  0.2603
  687MOL0     C92649   7.781   6.055   4.557  0.1585 -0.4718 -0.2028
  687MOL0     C92650   7.838   5.919   4.507 -0.2724 -0.8908  0.2995
  687MOL0     C92651   7.983   5.924   4.561  0.0057 -0.9258  0.1493
  687MOL0     C92652   8.062   5.792   4.531 -0.3157 -0.3495  0.5556
  687MOL0     C92653   8.207   5.795   4.591  0.6064  0.6527 -0.0594
  687MOL0    Cl92654   8.190   5.849   4.763  0.0068  0.1754  0.6817
  687MOL0     C92655   7.205   6.281   4.368  0.5773  1.1426  1.5696
  687MOL0     C92656   7.077   6.315   4.314  0.5847  0.3087  0.0216
  687MOL0     O92657   6.964   6.579   4.123  0.1739  0.2725 -0.5615
  687MOL0     C92658   6.681   6.414   4.031  1.0523 -0.3510 -0.9021
  687MOL0     C92659   6.574   6.399   3.947  0.1066 -0.8691  0.5911
  687MOL0     N92660   6.207   6.874   3.700  0.6815 -0.9082 -0.9073
  687MOL0     N92661   6.313   6.945   3.716 -0.3947  0.0738  0.6942
  687MOL0     C92662   7.395   6.682   4.166  0.1166  0.0019 -0.8716
  687MOL0     C92663   7.512   6.616   4.211 -0.8669 -0.7169  0.3224
  687MOL0     C92664   7.969   6.558   4.284 -0.2241  0.7861 -0.1846
  687MOL0     C92665   7.946   6.416   4.297 -0.5565 -0.4291  0.1042
  687MOL0     C92666   8.049   6.326   4.308 -0.5000 -0.4952  0.4759
  687MOL0     C92667   8.181   6.369   4.309  0.0542 -0.0564 -1.3993
  687MOL0     O92668   8.290   6.292   4.346  0.8148  0.2060  0.8813
  687MOL0     C92669   8.268   6.171   4.431  0.2085  0.6479 -0.0153
  687MOL0     C92670   8.404   6.136   4.485 -0.5144 -1.0598 -0.2066
  687MOL0     C92671   8.481   6.248   4.568 -0.9527  0.8099 -0.1043
  687MOL0     C92672   8.595   6.182   4.649 -0.6784 -0.3067  0.6315
  687MOL0     C92673   8.545   6.181   4.788  0.3101 -0.9082  0.2594
  687MOL0     C92674   8.487   6.183   4.891 -0.3081  1.6929 -0.5105
  687MOL0     C92675   8.209   6.500   4.299 -0.2639 -0.0330  0.3533
  687MOL0     C92676   8.103   6.600   4.299  0.0600 -0.3368 -0.3829
  687MOL0     C92677   8.155   6.745   4.272 -0.2913  1.2388  0.2046
  687MOL0     H92678   7.740   6.819   4.064 -0.0232  0.0386 -2.9646
  687MOL0     H92679   7.545   6.942   4.001  2.7322 -0.8963  0.6345
  687MOL0     H92680   7.189   6.678   3.997  1.5427 -0.4847  0.7996
  687MOL0     H92681   7.132   6.784   4.134 -0.2723  2.0517 -0.5086
  687MOL0     H92682   7.057   6.949   4.000  0.7600  0.8199  0.2379
  687MOL0     H92683   6.983   6.798   3.944  0.3911  0.2551 -5.6328
  687MOL0     H92684   7.131   6.797   3.734  2.0952  0.2203 -0.3608
  687MOL0     H92685   7.201   6.949   3.792 -0.9477  1.1594 -0.9179
  687MOL0     H92686   6.969   7.053   3.787  2.5544  0.4598  0.6223
  687MOL0     H92687   7.024   7.005   3.641  0.7743  1.3142  0.8463
  687MOL0     H92688   6.915   6.779   3.665  0.8727  0.7496 -0.4230
  687MOL0     H92689   6.823   6.855   3.802  0.2720 -1.5663  0.4938
  687MOL0     H92690   6.773   7.063   3.647 -3.6941 -0.2584 -0.2480
  687MOL0     H92691   6.787   6.941   3.514 -0.8988  2.9613 -0.2014
  687MOL0     H92692   6.605   6.947   3.771  1.0175  3.0193 -0.1160
  687MOL0     H92693   6.615   6.809   3.660  0.1067 -0.4339 -0.3282
  687MOL0     H92694   6.529   7.100   3.606  1.6569  0.5458 -0.8638
  687MOL0     H92695   6.540   6.996   3.473 -1.4705 -1.3878 -1.1251
  687MOL0     H92696   6.368   6.822   3.424  1.7918 -0.5032 -0.1367
  687MOL0     H92697   6.082   6.659   3.635 -0.4738  0.9640 -0.3558
  687MOL0     H92698   6.056   6.716   3.466  0.0113 -1.4230 -0.6643
  687MOL0     H92699   6.141   6.506   3.440  2.1837 -1.8182 -0.8802
  687MOL0     H92700   6.278   6.613   3.408 -0.1438  0.5812  0.0637
  687MOL0     H92701   6.371   6.448   3.531  1.5696  3.5777  0.7112
  687MOL0     H92702   6.217   6.419   3.628  0.3505  0.3784  0.6302
  687MOL0     H92703   6.323   6.575   3.782  0.6650  1.3939  0.3746
  687MOL0     H92704   6.444   6.636   3.665 -0.0811  0.9490  2.3946
  687MOL0     H92705   6.672   6.558   3.674 -0.4205  2.7303  1.1194
  687MOL0     H92706   6.869   6.609   3.838 -1.2581 -0.4553 -3.7937
  687MOL0     H92707   7.181   6.364   3.991  1.9352  2.0166  0.7961
  687MOL0     H92708   7.388   6.302   4.085 -1.7565 -1.3380 -1.3195
  687MOL0     H92709   7.427   6.346   4.536  2.4034  1.7978 -1.4235
  687MOL0     H92710   7.392   6.170   4.515 -0.4828  0.9231 -0.9469
  687MOL0     H92711   7.670   6.308   4.512  1.5949 -2.3304 -1.8674
  687MOL0     H92712   7.606   6.230   4.649  0.1365 -0.4115  1.0008
  687MOL0     H92713   7.574   6.012   4.536  1.3271 -0.7970  1.4230
  687MOL0     H92714   7.648   6.071   4.386  1.4482 -2.0470  0.5396
  687MOL0     H92715   7.781   6.059   4.666 -0.8934  0.6190 -0.2256
  687MOL0     H92716   7.854   6.131   4.526  0.5676 -0.4123  0.8654
  687MOL0     H92717   7.828   5.890   4.402 -1.8538 -1.6969  0.6334
  687MOL0     H92718   7.763   5.852   4.551 -1.0354  0.7257  1.5423
  687MOL0     H92719   8.031   6.009   4.511 -0.6534 -0.5639  0.1247
  687MOL0     H92720   7.977   5.950   4.667  0.4057 -0.3284  0.0345
  687MOL0     H92721   8.067   5.768   4.424 -1.6071  1.7146 -0.0358
  687MOL0     H92722   8.014   5.711   4.587 -1.9394 -0.0579 -0.3549
  687MOL0     H92723   8.246   5.693   4.589  2.2243  1.1831  1.4649
  687MOL0     H92724   8.278   5.857   4.535 -0.2162  1.1206 -0.6097
  687MOL0     H92725   7.199   6.262   4.474 -3.3627  0.1541  1.3189
  687MOL0     H92726   6.986   6.315   4.374  0.6593  0.2578  0.1329
  687MOL0     H92727   6.667   6.381   4.133 -0.9263  1.0962 -0.6462
  687MOL0     H92728   6.494   6.336   3.985 -1.1535  1.8408  2.7428
  687MOL0     H92729   7.299   6.635   4.184  0.6415 -0.3841  1.1610
  687MOL0     H92730   7.515   6.520   4.261  1.4314  0.0982  1.9250
  687MOL0     H92731   7.846   6.376   4.295 -0.5441 -0.4345 -1.2363
  687MOL0     H92732   8.023   6.222   4.322  0.3072 -0.8461 -0.4636
  687MOL0     H92733   8.217   6.084   4.388 -2.3773  1.5388  1.0548
  687MOL0     H92734   8.210   6.194   4.520  0.8520 -1.0618  0.9016
  687MOL0     H92735   8.460   6.077   4.411 -2.0369 -2.1448 -0.5392
  687MOL0     H92736   8.380   6.051   4.550 -0.7984 -0.8261 -0.0050
  687MOL0     H92737   8.400   6.290   4.627 -1.0760  0.8762 -0.3202
  687MOL0     H92738   8.514   6.329   4.502  2.1603  0.7305  1.1626
  687MOL0     H92739   8.616   6.079   4.620  0.7611 -0.0856  0.8164
  687MOL0     H92740   8.690   6.236   4.653  0.5569 -2.4092  1.4586
  687MOL0     H92741   8.435   6.176   4.984 -1.4734  3.7638 -0.9315
  687MOL0     H92742   8.314   6.528   4.296 -0.5021  1.1951  1.9486
  687MOL0     H92743   8.105   6.792   4.186 -2.1894  1.4511  1.3722
  687MOL0     H92744   8.139   6.820   4.350 -0.3581  2.4244 -0.8981
  687MOL0     H92745   8.262   6.741   4.249  0.5441 -0.8110  3.6911
  688MOL0     O92746   3.214   1.744   3.117  0.7451  0.6185 -0.5281
  688MOL0     C92747   3.235   1.673   3.016  0.2254  0.1705 -0.5690
  688MOL0     O92748   3.348   1.693   2.937 -0.2334  1.0104 -0.7721
  688MOL0     C92749   3.427   1.800   2.978  0.9300 -0.2203 -0.1170
  688MOL0     C92750   3.394   1.933   2.965 -0.0839  0.5343  0.2623
  688MOL0     C92751   3.467   2.041   3.021  0.4275 -0.3559 -0.1295
  688MOL0     C92752   3.582   2.014   3.083 -0.4628  0.2942 -0.5141
  688MOL0     O92753   3.660   2.105   3.148 -0.9508  0.3684  0.5108
  688MOL0     C92754   3.576   2.174   3.248 -0.2509 -0.1167  1.5518
  688MOL0     C92755   3.654   2.265   3.339 -0.1893 -0.6070 -0.2077
  688MOL0     C92756   3.753   2.364   3.265  0.3049  0.2920  0.4083
  688MOL0     C92757   3.892   2.355   3.325  0.1746 -0.0707  0.3509
  688MOL0     C92758   3.992   2.449   3.248 -0.2940  0.2428 -0.6554
  688MOL0     C92759   4.100   2.488   3.354 -0.0111  0.7195  1.1899
  688MOL0     C92760   4.215   2.587   3.298  0.7234  0.3175 -0.0940
  688MOL0     C92761   4.289   2.531   3.183 -0.2741  1.7044 -0.5073
  688MOL0     N92762   4.342   2.396   3.206  0.6491 -0.1736 -0.2899
  688MOL0     C92763   4.430   2.371   3.309  0.2345 -0.9314  0.1313
  688MOL0     C92764   4.478   2.253   3.281  0.1021 -0.2855  0.4612
  688MOL0     C92765   4.595   2.185   3.343 -0.2708 -0.4625 -0.4318
  688MOL0     C92766   4.734   2.245   3.305  0.7736 -0.4469  0.5606
  688MOL0     C92767   4.848   2.167   3.354  0.3936 -1.0739  0.6986
  688MOL0     C92768   4.973   2.268   3.360  0.1788  0.1489 -0.0846
  688MOL0     O92769   5.087   2.192   3.326 -0.2680  0.4368 -0.1494
  688MOL0     C92770   5.215   2.247   3.353  0.3527  0.5094  0.1403
  688MOL0     C92771   5.308   2.162   3.318 -0.0336 -0.4081  0.4932
  688MOL0     C92772   5.442   2.183   3.357 -0.7354 -0.1354 -1.2286
  688MOL0     C92773   5.486   2.309   3.421 -0.3826  0.7597 -0.9042
  688MOL0     C92774   5.627   2.325   3.454  0.6336 -0.0084  0.5210
  688MOL0     O92775   5.718   2.236   3.398  0.2607  0.3925  0.5433
  688MOL0     C92776   5.847   2.281   3.412  0.3147  0.1736  0.0896
  688MOL0     C92777   5.933   2.226   3.513  0.1040  0.1967 -0.1250
  688MOL0     C92778   6.059   2.287   3.523  0.0444  0.4544 -0.3339
  688MOL0     C92779   6.111   2.390   3.441  0.7597  0.7808 -0.4596
  688MOL0     O92780   6.244   2.417   3.459  0.3153 -0.4889  0.1424
  688MOL0     C92781   6.309   2.512   3.371 -0.2264 -0.7855  0.2104
  688MOL0     C92782   6.458   2.488   3.381  0.7647  0.5359 -0.0967
  688MOL0     C92783   6.496   2.562   3.522  0.4956  0.4097 -0.5987
  688MOL0     C92784   6.645   2.573   3.539 -0.1120  1.0212 -0.6315
  688MOL0     C92785   6.698   2.433   3.568 -0.3096 -0.6618 -0.5516
  688MOL0     C92786   6.843   2.426   3.598 -0.5065  1.2139 -0.1469
  688MOL0     C92787   6.888   2.280   3.628 -0.3253 -0.6479 -0.1407
  688MOL0     C92788   7.032   2.276   3.686  1.0332 -0.5606  0.4717
  688MOL0    Cl92789   7.158   2.352   3.583  0.0084  0.1239 -0.8270
  688MOL0     C92790   6.020   2.441   3.342 -0.2585 -0.5941 -0.5715
  688MOL0     C92791   5.890   2.388   3.334  0.0303 -1.0363  0.8377
  688MOL0     O92792   5.656   2.423   3.521 -0.1792  0.0468  0.4114
  688MOL0     C92793   5.379   2.401   3.443 -0.2892  0.6037  0.4654
  688MOL0     C92794   5.242   2.372   3.415 -0.0568 -1.3452 -0.3675
  688MOL0     N92795   4.402   2.194   3.181 -0.0668  0.6621 -0.9807
  688MOL0     N92796   4.316   2.283   3.137 -0.0678  0.1960 -0.6124
  688MOL0     C92797   3.616   1.878   3.100 -1.5413  0.2589 -0.5372
  688MOL0     C92798   3.547   1.773   3.037  0.0117  0.4968 -0.8308
  688MOL0     C92799   3.145   1.562   2.987  0.2353  0.4708  1.0546
  688MOL0     C92800   3.140   1.460   3.082  0.5758 -0.6200  0.4405
  688MOL0     C92801   3.046   1.358   3.068 -0.1768 -0.5066  0.0609
  688MOL0     C92802   2.982   1.331   2.950  1.4080  0.0281 -0.2584
  688MOL0     O92803   2.899   1.219   2.939 -0.2710  0.0781  0.3868
  688MOL0     C92804   2.900   1.150   2.809  0.2503 -0.3263  0.0195
  688MOL0     C92805   2.846   1.011   2.836  0.0953 -0.3931  0.6654
  688MOL0     C92806   2.922   0.922   2.946 -0.2788  0.5640 -0.7319
  688MOL0     C92807   2.829   0.803   2.989 -0.3885  0.9459 -0.9736
  688MOL0     C92808   2.915   0.696   3.044  0.5970 -0.1856  0.1644
  688MOL0     C92809   2.985   0.614   3.103 -0.2047 -0.5012 -0.2853
  688MOL0     C92810   2.997   1.428   2.848 -0.4568  0.6210 -0.3200
  688MOL0     C92811   3.071   1.542   2.865  0.0343  0.0094 -0.3444
  688MOL0     C92812   3.074   1.639   2.749  0.3980 -0.2174 -0.5526
  688MOL0     H92813   3.305   1.957   2.909 -1.9159 -2.4145  1.6609
  688MOL0     H92814   3.429   2.143   3.023  0.7857 -0.1207 -2.5974
  688MOL0     H92815   3.507   2.242   3.196  0.9625  0.7194  0.9743
  688MOL0     H92816   3.518   2.118   3.321  0.0320 -0.9233  1.1688
  688MOL0     H92817   3.703   2.214   3.422  2.2577  2.3505  0.3232
  688MOL0     H92818   3.573   2.320   3.388 -0.8345 -0.2112 -1.6582
  688MOL0     H92819   3.728   2.470   3.279  2.5754  0.7022  1.8445
  688MOL0     H92820   3.746   2.346   3.157  0.6152  2.2170  0.0206
  688MOL0     H92821   3.889   2.377   3.432  0.4005  0.2662  0.2892
  688MOL0     H92822   3.923   2.250   3.326  1.4582  0.2852 -0.1650
  688MOL0     H92823   4.033   2.397   3.161 -1.0867 -0.5157 -0.5970
  688MOL0     H92824   3.933   2.534   3.213 -3.2379 -1.7589 -0.9759
  688MOL0     H92825   4.046   2.537   3.436  1.7284  0.4788  2.5360
  688MOL0     H92826   4.152   2.398   3.389  1.2183  1.0763  0.3343
  688MOL0     H92827   4.286   2.607   3.379  1.9550 -0.0955 -1.0381
  688MOL0     H92828   4.172   2.684   3.271 -5.7822 -1.3747  2.4157
  688MOL0     H92829   4.241   2.520   3.086 -1.8495 -0.2760  0.4152
  688MOL0     H92830   4.380   2.591   3.181 -0.1062  1.4507 -0.4736
  688MOL0     H92831   4.457   2.437   3.391 -0.5896 -2.7841  1.9869
  688MOL0     H92832   4.584   2.196   3.451  2.6682 -1.4509  0.0713
  688MOL0     H92833   4.595   2.077   3.329 -2.2555 -1.0317  2.9166
  688MOL0     H92834   4.744   2.255   3.196 -0.1082  0.3792  0.5453
  688MOL0     H92835   4.735   2.346   3.347 -1.7847 -0.3831  0.6080
  688MOL0     H92836   4.865   2.088   3.279  1.9020  2.1347 -2.6457
  688MOL0     H92837   4.825   2.121   3.451 -0.5246 -2.3120 -0.0644
  688MOL0     H92838   4.979   2.303   3.463 -0.9494  1.0279 -0.2960
  688MOL0     H92839   4.960   2.350   3.289  0.3021  0.2587  0.0198
  688MOL0     H92840   5.289   2.075   3.256  1.0532 -0.2906 -0.0244
  688MOL0     H92841   5.511   2.101   3.337 -0.4450  0.7275 -4.3230
  688MOL0     H92842   5.898   2.149   3.580  1.3686 -0.9906 -0.7965
  688MOL0     H92843   6.123   2.256   3.604 -3.4419 -0.2580  2.3556
  688MOL0     H92844   6.284   2.494   3.266  0.2252  1.8811 -0.4120
  688MOL0     H92845   6.281   2.614   3.397 -1.3196 -0.1559 -3.0036
  688MOL0     H92846   6.476   2.380   3.380 -0.0401  0.3905 -0.0304
  688MOL0     H92847   6.503   2.536   3.294  0.4302  1.4272  0.2089
  688MOL0     H92848   6.449   2.661   3.531 -1.1961 -0.1976 -2.1478
  688MOL0     H92849   6.459   2.513   3.612  0.2961  0.3491 -0.7115
  688MOL0     H92850   6.659   2.635   3.628  0.9322  1.5658 -1.1591
  688MOL0     H92851   6.696   2.626   3.458  0.2461  1.9821  0.1949
  688MOL0     H92852   6.689   2.370   3.479 -0.0489 -0.0506 -1.0162
  688MOL0     H92853   6.646   2.383   3.650 -1.6596 -3.5293 -2.9347
  688MOL0     H92854   6.900   2.465   3.514 -1.9783  0.5867 -1.4800
  688MOL0     H92855   6.863   2.491   3.684  0.3624  0.7610  0.0074
  688MOL0     H92856   6.881   2.226   3.533  0.6105 -0.4581 -0.3244
  688MOL0     H92857   6.817   2.235   3.699 -0.7875 -0.1479 -0.2829
  688MOL0     H92858   7.024   2.332   3.779 -0.8833  0.3642 -0.1938
  688MOL0     H92859   7.059   2.174   3.716  1.5340 -0.6288 -0.1836
  688MOL0     H92860   6.047   2.516   3.268  2.9221  0.1364  1.1434
  688MOL0     H92861   5.813   2.426   3.268  0.6585 -1.2090 -0.0073
  688MOL0     H92862   5.407   2.495   3.489 -1.0475  0.0242  2.2208
  688MOL0     H92863   5.164   2.444   3.437 -0.4136 -1.9469  0.3833
  688MOL0     H92864   3.710   1.863   3.151 -2.6079 -2.4962  0.8024
  688MOL0     H92865   3.588   1.673   3.051  1.3188  1.1826  0.4001
  688MOL0     H92866   3.191   1.472   3.177 -0.0906  0.0610  0.7303
  688MOL0     H92867   3.016   1.311   3.161 -1.0223  0.7925  0.4631
  688MOL0     H92868   3.003   1.147   2.771 -0.3543 -1.2975 -1.6305
  688MOL0     H92869   2.843   1.194   2.727 -0.7554 -2.1360 -0.2879
  688MOL0     H92870   2.845   0.962   2.738 -0.5275  3.9755 -1.7910
  688MOL0     H92871   2.740   1.022   2.863  0.0549  1.2549 -0.0567
  688MOL0     H92872   2.958   0.978   3.033 -2.3201  2.0883 -0.7993
  688MOL0     H92873   3.010   0.881   2.896 -1.1171 -1.4750 -0.6329
  688MOL0     H92874   2.770   0.850   3.068 -1.2955  0.4536 -1.3450
  688MOL0     H92875   2.783   0.764   2.898  1.0478 -2.3308 -0.4492
  688MOL0     H92876   3.038   0.537   3.154 -0.5926  0.1898  1.2259
  688MOL0     H92877   2.948   1.416   2.752  4.0886 -0.3168 -2.8357
  688MOL0     H92878   3.016   1.730   2.768 -1.4010 -1.6037  0.8046
  688MOL0     H92879   3.180   1.669   2.741  0.3540  0.8022  1.8673
  688MOL0     H92880   3.051   1.592   2.653  1.5008 -0.8364 -0.5332
  689MOL0     O92881   2.832  10.464   6.984  0.7678  0.3113  0.0444
  689MOL0     C92882   2.897  10.492   6.884 -0.3600  0.8952  0.4255
  689MOL0     O92883   2.868  10.459   6.754 -0.2777  0.7288 -0.2161
  689MOL0     C92884   2.757  10.376   6.733  0.1688  0.1399  0.0716
  689MOL0     C92885   2.773  10.276   6.639  0.0026  1.3288  0.2392
  689MOL0     C92886   2.669  10.197   6.593  0.1973  0.4419 -0.2422
  689MOL0     C92887   2.545  10.198   6.653  0.3793  0.0932 -0.2427
  689MOL0     O92888   2.451  10.107   6.618 -0.2967  0.0580 -0.7354
  689MOL0     C92889   2.354  10.157   6.520  0.1120  0.1965 -0.4194
  689MOL0     C92890   2.245  10.235   6.586  0.0297 -0.0053 -0.0733
  689MOL0     C92891   2.190  10.157   6.699 -0.1467 -0.2402 -0.6951
  689MOL0     C92892   2.034  10.177   6.707 -0.2937  0.2120 -0.4536
  689MOL0     C92893   1.982  10.053   6.774  0.6822 -0.4242 -0.3066
  689MOL0     C92894   1.834  10.080   6.826  0.5124 -0.3890  0.2896
  689MOL0     C92895   1.806   9.954   6.899 -0.1648 -0.9087  0.0695
  689MOL0     C92896   1.668   9.965   6.953  0.1388 -0.2355  0.4841
  689MOL0     N92897   1.623   9.836   7.011  0.1267 -0.7069  0.7277
  689MOL0     C92898   1.602   9.713   6.932  0.9294 -0.9763 -0.5509
  689MOL0     C92899   1.533   9.638   7.019  0.9277 -0.2001 -0.1805
  689MOL0     C92900   1.470   9.503   6.992 -0.4123  0.5120 -0.0055
  689MOL0     C92901   1.566   9.397   6.949 -0.1299  0.6348 -0.0752
  689MOL0     C92902   1.687   9.371   7.047  0.5952 -0.2410  0.9305
  689MOL0     C92903   1.809   9.321   6.986 -0.4437  0.3230  0.3997
  689MOL0     O92904   1.791   9.198   6.914  0.4427 -0.6785 -0.0619
  689MOL0     C92905   1.813   9.074   6.965 -0.3487 -0.3304  0.2170
  689MOL0     C92906   1.823   8.969   6.879 -1.0053  0.6334  0.4130
  689MOL0     C92907   1.854   8.843   6.927 -0.0745 -0.7526  0.0544
  689MOL0     C92908   1.856   8.813   7.062 -0.2273  0.2110 -0.0667
  689MOL0     C92909   1.872   8.671   7.107  0.1894  0.0099 -0.0517
  689MOL0     O92910   1.879   8.572   7.019 -0.7909 -0.7516 -0.1709
  689MOL0     C92911   1.887   8.439   7.051  0.6633 -0.0722 -0.6803
  689MOL0     C92912   1.976   8.387   7.151  0.1739 -0.1953  0.3478
  689MOL0     C92913   2.003   8.250   7.162  0.2977  0.1236  0.0621
  689MOL0     C92914   1.930   8.158   7.088 -0.3294 -0.0222  0.5581
  689MOL0     O92915   1.972   8.033   7.118  0.4051  1.0181  0.2596
  689MOL0     C92916   1.917   7.925   7.037  0.4087  0.2012 -0.0484
  689MOL0     C92917   1.984   7.795   7.058 -0.2246  0.2909  0.5337
  689MOL0     C92918   1.987   7.751   7.212 -0.1643 -0.9564 -0.4555
  689MOL0     C92919   2.075   7.625   7.226  0.5808 -0.1172  0.3727
  689MOL0     C92920   2.229   7.638   7.208  0.4071  0.1380 -0.4584
  689MOL0     C92921   2.303   7.509   7.247 -0.2687  0.2077 -0.5347
  689MOL0     C92922   2.450   7.529   7.231  0.4132 -0.7589  0.9903
  689MOL0     C92923   2.506   7.396   7.254 -0.2249 -0.0836  0.3769
  689MOL0    Cl92924   2.509   7.347   7.433 -0.0167 -0.1428  0.0383
  689MOL0     C92925   1.837   8.210   6.998  1.0658  0.2657 -0.0457
  689MOL0     C92926   1.815   8.349   6.976  0.1963  0.4882  1.2580
  689MOL0     O92927   1.859   8.659   7.229 -0.0596 -0.0709  0.4996
  689MOL0     C92928   1.852   8.921   7.152  0.0305  0.4760  0.7673
  689MOL0     C92929   1.828   9.050   7.100 -0.3688 -0.4672 -0.6301
  689MOL0     N92930   1.530   9.698   7.146  0.8231 -0.0480 -0.2914
  689MOL0     N92931   1.579   9.815   7.135 -0.5010 -0.0384 -0.7010
  689MOL0     C92932   2.525  10.295   6.749 -0.2445  0.3085 -0.9039
  689MOL0     C92933   2.631  10.380   6.793 -0.8696  0.1121 -0.0998
  689MOL0     C92934   3.019  10.578   6.906  0.7600 -0.4355  0.1651
  689MOL0     C92935   3.091  10.635   6.797  1.3916  0.8668  0.0290
  689MOL0     C92936   3.179  10.748   6.807 -0.1614 -0.0063  0.4586
  689MOL0     C92937   3.202  10.800   6.930  0.4350  0.0707 -0.6271
  689MOL0     O92938   3.275  10.910   6.968 -0.3232 -0.1711  0.2761
  689MOL0     C92939   3.200  11.033   6.953  0.8285 -0.2564  1.0670
  689MOL0     C92940   3.303  11.141   6.909  0.4453  0.1582  0.6095
  689MOL0     C92941   3.315  11.137   6.754 -0.4203  0.4802 -0.4730
  689MOL0     C92942   3.429  11.232   6.710 -1.1404  0.4925 -0.7215
  689MOL0     C92943   3.443  11.226   6.566  0.1117  0.8933 -0.2985
  689MOL0     C92944   3.448  11.211   6.449  0.0327  0.1130  0.5394
  689MOL0     C92945   3.152  10.727   7.044  0.3581  0.9338  0.3426
  689MOL0     C92946   3.061  10.622   7.037 -0.1568  0.8434  0.1643
  689MOL0     C92947   3.013  10.565   7.172  0.7239  0.6715  0.8307
  689MOL0     H92948   2.869  10.269   6.588 -0.0278 -2.0693  0.4617
  689MOL0     H92949   2.678  10.122   6.514  0.9192 -2.2432  2.1937
  689MOL0     H92950   2.406  10.221   6.448 -0.2702 -0.6610 -1.4866
  689MOL0     H92951   2.311  10.082   6.452 -0.0001 -1.2690  1.1860
  689MOL0     H92952   2.177  10.254   6.503 -0.0559  0.5001  0.1129
  689MOL0     H92953   2.273  10.333   6.626 -1.7945 -0.8316  3.6772
  689MOL0     H92954   2.228  10.183   6.798 -0.2876 -2.0883 -0.1086
  689MOL0     H92955   2.215  10.051   6.684 -0.8173 -0.8100  1.7432
  689MOL0     H92956   2.014  10.270   6.761 -0.8992 -0.1075 -0.1158
  689MOL0     H92957   1.983  10.179   6.610 -1.7177 -0.7561  0.2496
  689MOL0     H92958   1.985   9.974   6.699  2.0456 -2.9789  2.2510
  689MOL0     H92959   2.050  10.034   6.857  0.0068  0.7629  0.5511
  689MOL0     H92960   1.829  10.172   6.885 -1.8641  0.7871 -1.5629
  689MOL0     H92961   1.769  10.096   6.739  2.2679  2.1785 -0.7004
  689MOL0     H92962   1.874   9.942   6.984 -3.6458 -0.2165  3.2227
  689MOL0     H92963   1.801   9.867   6.832 -0.0175 -1.0929  0.2996
  689MOL0     H92964   1.668  10.038   7.034 -1.7972  2.8747 -2.0647
  689MOL0     H92965   1.589   9.983   6.880 -2.1807 -2.8602  2.1250
  689MOL0     H92966   1.621   9.696   6.827  0.4512 -0.0697 -0.7976
  689MOL0     H92967   1.414   9.470   7.080 -0.4962 -0.7804 -0.5182
  689MOL0     H92968   1.403   9.518   6.907 -0.5939  2.9886  0.5025
  689MOL0     H92969   1.499   9.312   6.939 -0.7409  1.2059 -1.1066
  689MOL0     H92970   1.608   9.423   6.851  1.7262  1.6493  0.9244
  689MOL0     H92971   1.660   9.293   7.118 -0.5561 -0.4396  0.3062
  689MOL0     H92972   1.713   9.464   7.099  1.9425 -0.4157  0.5893
  689MOL0     H92973   1.892   9.305   7.054 -0.8365 -1.2637  0.5423
  689MOL0     H92974   1.833   9.398   6.912  0.3624 -2.7055 -2.8104
  689MOL0     H92975   1.812   8.990   6.773  0.5891  2.7462  0.6139
  689MOL0     H92976   1.852   8.764   6.853 -1.7444 -1.2681  0.5967
  689MOL0     H92977   2.031   8.449   7.221  0.5060 -2.9687  2.7326
  689MOL0     H92978   2.064   8.210   7.242  0.1374 -1.1789 -0.4425
  689MOL0     H92979   1.812   7.906   7.060 -0.0148 -3.3140 -3.7367
  689MOL0     H92980   1.920   7.962   6.934 -1.2087  2.5271  0.6601
  689MOL0     H92981   1.922   7.719   7.009  1.6532 -1.5702  0.8928
  689MOL0     H92982   2.083   7.799   7.011 -0.8758  0.9228 -0.8488
  689MOL0     H92983   2.040   7.827   7.270  1.9098 -0.6914 -2.5463
  689MOL0     H92984   1.891   7.734   7.260  0.5741 -0.8655  1.1003
  689MOL0     H92985   2.050   7.546   7.155  2.3706 -0.9560  0.6137
  689MOL0     H92986   2.039   7.598   7.326 -0.4403  4.5944  1.5459
  689MOL0     H92987   2.264   7.720   7.272  0.9273 -2.5109  2.9498
  689MOL0     H92988   2.253   7.657   7.103  0.9590  0.7246 -0.2306
  689MOL0     H92989   2.282   7.507   7.354  0.7780 -0.4657 -0.3301
  689MOL0     H92990   2.270   7.416   7.199 -0.5456  0.3649 -0.6502
  689MOL0     H92991   2.483   7.613   7.293  1.0009 -1.1639  1.2426
  689MOL0     H92992   2.473   7.562   7.129 -0.7900  1.1338  1.2860
  689MOL0     H92993   2.453   7.320   7.196 -0.5725  1.3678 -1.2991
  689MOL0     H92994   2.611   7.403   7.227 -0.0121  2.0298  1.5423
  689MOL0     H92995   1.782   8.130   6.948  0.8299 -0.5866  1.5262
  689MOL0     H92996   1.739   8.366   6.900  1.4524 -2.1619 -0.7731
  689MOL0     H92997   1.857   8.899   7.259  0.6676  2.4655  1.1782
  689MOL0     H92998   1.817   9.134   7.168 -0.3936 -1.1612  0.2494
  689MOL0     H92999   2.433  10.291   6.805  0.0410 -0.9340 -0.4704
  689MOL0     H93000   2.610  10.451   6.873  1.1838 -1.8804  2.4237
  689MOL0     H93001   3.059  10.595   6.701 -1.2932  0.7960  0.8750
  689MOL0     H93002   3.225  10.785   6.716  1.2272 -0.3625  0.9999
  689MOL0     H93003   3.147  11.060   7.045 -0.3382  2.4144 -0.2715
  689MOL0     H93004   3.134  11.023   6.867  3.3150 -1.2975 -0.8592
  689MOL0     H93005   3.397  11.112   6.957 -0.4555 -2.4296  0.9424
  689MOL0     H93006   3.262  11.240   6.933  0.0995  0.1908 -0.1033
  689MOL0     H93007   3.221  11.171   6.709 -0.2561 -0.9264 -1.9870
  689MOL0     H93008   3.335  11.031   6.734 -2.3047  0.4466 -2.6500
  689MOL0     H93009   3.417  11.333   6.748  4.8827  2.1160 -2.1056
  689MOL0     H93010   3.524  11.205   6.756 -2.1115  0.4913  1.4176
  689MOL0     H93011   3.455  11.213   6.342 -0.9914  0.4927  0.4672
  689MOL0     H93012   3.180  10.750   7.147 -0.0902  0.4598  0.5772
  689MOL0     H93013   3.083  10.579   7.254  2.6081 -0.8048 -0.4349
  689MOL0     H93014   2.909  10.588   7.198  0.4223 -1.4890  1.7247
  689MOL0     H93015   3.002  10.456   7.163  2.6800  0.5829 -1.5037
  690MOL0     O93016   7.894   8.587   6.220  0.2556 -0.2753  0.0283
  690MOL0     C93017   7.914   8.547   6.334 -0.1552  0.5443 -0.5960
  690MOL0     O93018   7.860   8.432   6.390 -0.4647 -0.6852  0.0785
  690MOL0     C93019   7.750   8.386   6.329 -0.1927  0.1821  0.3786
  690MOL0     C93020   7.750   8.268   6.258  0.8053 -0.1314  0.2444
  690MOL0     C93021   7.629   8.210   6.215  0.1126 -0.6331 -0.2182
  690MOL0     C93022   7.504   8.271   6.237  0.3746  0.1173  0.5191
  690MOL0     O93023   7.385   8.221   6.188  0.2595  0.2375 -0.5962
  690MOL0     C93024   7.381   8.224   6.044  0.0032 -0.1919 -0.3554
  690MOL0     C93025   7.408   8.374   5.996 -0.6120 -0.1918  0.3082
  690MOL0     C93026   7.406   8.387   5.847  0.4135  0.6518 -1.3971
  690MOL0     C93027   7.410   8.531   5.799 -0.6131 -0.6884 -1.0996
  690MOL0     C93028   7.415   8.528   5.644 -0.4785  0.0470 -0.0672
  690MOL0     C93029   7.421   8.670   5.598  0.3604  0.0983  0.5194
  690MOL0     C93030   7.401   8.688   5.452  0.2913 -0.1280  0.1605
  690MOL0     C93031   7.494   8.618   5.356 -0.2329 -0.2269 -0.8351
  690MOL0     N93032   7.609   8.701   5.315  0.5840 -0.8217  0.4334
  690MOL0     C93033   7.725   8.729   5.392 -0.2968  0.5308  0.0321
  690MOL0     C93034   7.783   8.834   5.315  0.2137  0.5203 -0.3303
  690MOL0     C93035   7.904   8.905   5.353  0.6250 -0.0057  0.0505
  690MOL0     C93036   8.025   8.824   5.392  0.5814 -0.1380 -0.0698
  690MOL0     C93037   8.132   8.907   5.452 -0.2155  0.1855  0.4195
  690MOL0     C93038   8.269   8.841   5.440  1.2006  0.5243  0.4456
  690MOL0     O93039   8.379   8.913   5.497  0.4184  0.1398  0.7074
  690MOL0     C93040   8.395   8.927   5.630  0.1161 -0.4116  0.1557
  690MOL0     C93041   8.325   8.862   5.731 -0.1942  0.0897  0.9008
  690MOL0     C93042   8.361   8.891   5.866 -0.0575 -0.8809 -0.1335
  690MOL0     C93043   8.463   8.983   5.898  0.5038  0.5532 -0.6858
  690MOL0     C93044   8.485   9.007   6.039  0.7401 -0.5970  0.1272
  690MOL0     O93045   8.597   9.082   6.067 -0.4600 -0.1058  0.5161
  690MOL0     C93046   8.628   9.106   6.192  0.3146 -0.5438 -0.0849
  690MOL0     C93047   8.647   8.991   6.275  0.4440  0.3528 -0.1314
  690MOL0     C93048   8.662   9.004   6.406 -0.3990  0.3225 -0.5295
  690MOL0     C93049   8.680   9.132   6.467  0.5148  0.1029 -0.5269
  690MOL0     O93050   8.679   9.120   6.602 -1.3390  0.6496 -0.8936
  690MOL0     C93051   8.728   9.235   6.671  0.6262  0.1110 -0.4900
  690MOL0     C93052   8.611   9.317   6.717 -0.6405 -0.5985  1.2229
  690MOL0     C93053   8.664   9.455   6.758 -1.0447 -0.1955 -0.3602
  690MOL0     C93054   8.744   9.443   6.885 -0.2241 -0.5551  0.5403
  690MOL0     C93055   8.799   9.579   6.933  0.0386  0.0793 -0.0836
  690MOL0     C93056   8.921   9.565   7.031 -0.4301 -0.2699 -0.2138
  690MOL0     C93057   8.989   9.707   7.061 -0.4719  0.4631 -0.9461
  690MOL0     C93058   9.099   9.689   7.163 -0.3921  0.5900 -0.6341
  690MOL0    Cl93059   9.187   9.844   7.162 -0.0248 -0.0556  0.2827
  690MOL0     C93060   8.673   9.248   6.382  0.4738  0.3646 -0.8833
  690MOL0     C93061   8.663   9.231   6.242  0.5734  0.5557 -0.3824
  690MOL0     O93062   8.405   8.956   6.122  0.5008 -0.1153 -0.3396
  690MOL0     C93063   8.527   9.046   5.792  0.8287 -0.4423 -0.0458
  690MOL0     C93064   8.501   9.019   5.660  0.2871 -0.2262 -0.0680
  690MOL0     N93065   7.708   8.857   5.198 -0.6991 -0.9622  0.1846
  690MOL0     N93066   7.607   8.769   5.201 -0.7434 -0.0482  0.7935
  690MOL0     C93067   7.510   8.393   6.310 -0.5216 -0.5953 -0.3364
  690MOL0     C93068   7.626   8.446   6.358  0.0172  0.2295  0.3844
  690MOL0     C93069   8.013   8.626   6.411 -1.5433  0.2723  1.0862
  690MOL0     C93070   8.020   8.592   6.549  0.8201  0.6800  0.0590
  690MOL0     C93071   8.106   8.664   6.637 -0.8294 -0.1112  0.5151
  690MOL0     C93072   8.173   8.782   6.602 -0.0131  0.2834 -0.1485
  690MOL0     O93073   8.240   8.845   6.702  0.0033  0.0099  0.2029
  690MOL0     C93074   8.314   8.965   6.662  0.4686  0.3151  0.3374
  690MOL0     C93075   8.231   9.091   6.631  0.3515  0.2120  0.8482
  690MOL0     C93076   8.320   9.177   6.545 -0.0040 -0.8543 -0.8424
  690MOL0     C93077   8.272   9.324   6.533  0.5903  0.3094  0.1248
  690MOL0     C93078   8.265   9.386   6.671  0.3519 -0.3582  0.1998
  690MOL0     C93079   8.266   9.444   6.781 -0.6758 -0.5516 -0.5184
  690MOL0     C93080   8.167   8.814   6.467  0.6993  0.4892  1.3599
  690MOL0     C93081   8.085   8.743   6.372 -0.3099  0.0539  0.4841
  690MOL0     C93082   8.076   8.807   6.235  0.0863 -0.2834 -1.1821
  690MOL0     H93083   7.836   8.203   6.251  0.7791 -0.1304 -0.1229
  690MOL0     H93084   7.630   8.111   6.172  3.4554 -0.3810 -0.9553
  690MOL0     H93085   7.449   8.154   5.994  1.0200  0.2817  0.3302
  690MOL0     H93086   7.281   8.194   6.013 -2.2749  2.9728  3.0499
  690MOL0     H93087   7.509   8.407   6.023 -0.1591  2.5289 -3.7728
  690MOL0     H93088   7.334   8.436   6.047  1.4458  0.4754  2.6340
  690MOL0     H93089   7.318   8.340   5.803  0.1015 -0.7791  0.6399
  690MOL0     H93090   7.483   8.325   5.799 -0.1693 -0.7084 -0.6324
  690MOL0     H93091   7.331   8.597   5.839  1.1191  0.4794  0.5810
  690MOL0     H93092   7.504   8.575   5.835 -2.8399  3.4703  0.4006
  690MOL0     H93093   7.503   8.472   5.610  1.6533  2.2738  1.4437
  690MOL0     H93094   7.330   8.472   5.606  0.3298 -1.9202  0.8606
  690MOL0     H93095   7.337   8.714   5.651  0.0852 -1.7740  1.7632
  690MOL0     H93096   7.515   8.715   5.633 -0.6413  0.1795  3.3685
  690MOL0     H93097   7.400   8.797   5.444 -1.4939  0.0854  2.4772
  690MOL0     H93098   7.302   8.648   5.429  0.9107 -0.3434 -2.5468
  690MOL0     H93099   7.534   8.527   5.402 -0.8063  1.5177  3.5805
  690MOL0     H93100   7.425   8.591   5.275 -1.4997 -6.2724  1.6953
  690MOL0     H93101   7.766   8.686   5.483  0.7937  0.1149 -0.6338
  690MOL0     H93102   7.927   8.964   5.264  0.8844 -0.7250 -0.3765
  690MOL0     H93103   7.889   8.973   5.437  0.8018  0.8325 -0.5802
  690MOL0     H93104   7.997   8.757   5.474  1.1262 -1.0774 -0.6314
  690MOL0     H93105   8.060   8.771   5.303 -0.2188 -1.1143  0.1795
  690MOL0     H93106   8.101   8.936   5.553 -0.7468 -2.3021  1.0498
  690MOL0     H93107   8.144   8.999   5.394 -0.1365 -0.4756 -0.6406
  690MOL0     H93108   8.288   8.817   5.335  0.9883  0.5882  0.3928
  690MOL0     H93109   8.261   8.746   5.493  0.3200 -0.1356 -0.8155
  690MOL0     H93110   8.241   8.800   5.701 -0.3629  0.1819  1.1827
  690MOL0     H93111   8.303   8.843   5.944  0.8853  2.2704  2.7494
  690MOL0     H93112   8.639   8.891   6.233 -0.3380  1.1267 -1.9516
  690MOL0     H93113   8.675   8.913   6.464  0.3723 -0.0637 -1.2929
  690MOL0     H93114   8.781   9.195   6.758 -0.7198 -1.7910 -0.4749
  690MOL0     H93115   8.799   9.286   6.607  0.1279  0.8609 -0.4619
  690MOL0     H93116   8.564   9.325   6.619 -0.7041  1.2645  1.3712
  690MOL0     H93117   8.544   9.277   6.795 -0.8666 -0.6564  0.9987
  690MOL0     H93118   8.720   9.479   6.667 -0.8959 -0.2158 -0.2735
  690MOL0     H93119   8.593   9.536   6.772  0.7719  1.5852 -0.9802
  690MOL0     H93120   8.828   9.373   6.878  0.9739  0.9116 -0.1523
  690MOL0     H93121   8.669   9.416   6.960 -2.8869 -0.3775 -1.8814
  690MOL0     H93122   8.722   9.636   6.986  0.5664  0.0592  0.7185
  690MOL0     H93123   8.841   9.632   6.846  1.8719 -1.2399 -0.0588
  690MOL0     H93124   8.868   9.533   7.121 -1.6385  0.6440 -0.5676
  690MOL0     H93125   8.998   9.496   6.993  2.0972  3.6131 -2.8975
  690MOL0     H93126   8.920   9.783   7.099 -3.3141 -1.9126 -0.9947
  690MOL0     H93127   9.027   9.759   6.973 -0.2882  0.1612 -1.0470
  690MOL0     H93128   9.045   9.671   7.256 -1.3706  1.5523 -0.9932
  690MOL0     H93129   9.167   9.611   7.129 -0.4488  1.0310 -1.7938
  690MOL0     H93130   8.679   9.348   6.424  1.6562 -1.1318  2.9235
  690MOL0     H93131   8.683   9.302   6.163  2.8200  0.2215 -0.1898
  690MOL0     H93132   8.613   9.110   5.809  0.2093  0.2609  0.5074
  690MOL0     H93133   8.571   9.059   5.586 -1.2918  0.6563 -1.1497
  690MOL0     H93134   7.411   8.432   6.333 -1.5915 -3.0804 -0.3844
  690MOL0     H93135   7.619   8.532   6.423 -2.3766  1.1145 -0.8821
  690MOL0     H93136   7.952   8.513   6.577  1.3827 -0.2192 -1.0231
  690MOL0     H93137   8.112   8.633   6.740 -0.3806  3.4372  1.7106
  690MOL0     H93138   8.376   8.935   6.577 -1.3445 -1.4763 -0.4345
  690MOL0     H93139   8.377   8.983   6.750  1.5519  1.5199 -0.6491
  690MOL0     H93140   8.199   9.137   6.725  0.1411 -2.0127  1.9157
  690MOL0     H93141   8.133   9.080   6.583  0.8656 -1.2880  0.0779
  690MOL0     H93142   8.316   9.116   6.455  1.9092 -1.9837 -0.2383
  690MOL0     H93143   8.427   9.189   6.566 -0.5857  0.6897  1.6174
  690MOL0     H93144   8.341   9.384   6.474 -0.4520  0.8894 -0.5275
  690MOL0     H93145   8.173   9.332   6.487  0.1795  4.0302  1.3494
  690MOL0     H93146   8.233   9.495   6.870  0.2519 -0.7971 -0.0166
  690MOL0     H93147   8.234   8.892   6.432  0.6067  0.1001  0.2964
  690MOL0     H93148   7.978   8.850   6.212  0.0401 -0.0949 -0.6331
  690MOL0     H93149   8.148   8.889   6.230 -3.6813  3.6898  1.5286
  690MOL0     H93150   8.103   8.722   6.171 -0.9472 -0.9929 -0.7151
  691MOL0     O93151  10.340   3.743   5.473  0.1517 -0.6541  0.2652
  691MOL0     C93152  10.433   3.823   5.479  0.8700 -0.1759  0.5779
  691MOL0     O93153  10.445   3.936   5.552 -0.8866 -0.2511  0.7438
  691MOL0     C93154  10.342   3.973   5.640  0.0152 -0.7077  0.3722
  691MOL0     C93155  10.349   3.956   5.775 -0.3068  0.7943 -0.6133
  691MOL0     C93156  10.230   3.992   5.850 -0.2361  0.0311 -0.2395
  691MOL0     C93157  10.124   4.062   5.798  0.7947 -0.2771 -0.6953
  691MOL0     O93158  10.016   4.105   5.875 -0.2714  0.9214 -0.6141
  691MOL0     C93159   9.898   4.024   5.876  0.6952  1.1833 -0.3770
  691MOL0     C93160   9.898   3.921   5.996 -0.8844 -0.0705  0.1216
  691MOL0     C93161   9.896   4.009   6.129 -0.3349  0.7837 -0.2938
  691MOL0     C93162  10.023   3.976   6.217  0.0233 -0.2602 -0.4275
  691MOL0     C93163  10.019   4.048   6.359 -0.3717 -0.0627  0.1293
  691MOL0     C93164   9.904   4.011   6.442  0.3410 -0.0509  0.1840
  691MOL0     C93165   9.905   3.862   6.496 -0.2687 -0.4052  0.0599
  691MOL0     C93166  10.043   3.820   6.563 -0.1324  0.4983 -0.1339
  691MOL0     N93167  10.048   3.676   6.614  1.0775 -0.3625 -0.8084
  691MOL0     C93168  10.115   3.633   6.721 -0.3299 -0.6469 -0.4759
  691MOL0     C93169  10.149   3.504   6.696  0.5519 -0.4514  0.7588
  691MOL0     C93170  10.219   3.435   6.807 -0.5041  1.4043  0.1997
  691MOL0     C93171  10.212   3.269   6.810 -0.8302  0.2497  0.2310
  691MOL0     C93172  10.320   3.214   6.714  0.4846  0.0366 -0.3050
  691MOL0     C93173  10.343   3.062   6.721  0.2885  0.1800 -0.6098
  691MOL0     O93174  10.384   3.023   6.851 -0.2312 -0.6632  0.7049
  691MOL0     C93175  10.486   2.931   6.868 -0.0170  0.3202  0.3473
  691MOL0     C93176  10.519   2.833   6.774  0.2362  1.4857  0.6686
  691MOL0     C93177  10.617   2.740   6.808 -0.8056 -0.0172  0.8449
  691MOL0     C93178  10.685   2.749   6.934  0.2009  0.3571  0.2260
  691MOL0     C93179  10.793   2.652   6.973  1.0487  0.2461  0.1467
  691MOL0     O93180  10.858   2.689   7.084 -0.2636 -0.3900 -0.2859
  691MOL0     C93181  10.966   2.619   7.128  0.5409 -1.4293  0.5962
  691MOL0     C93182  10.953   2.478   7.142  0.1751 -0.9140 -0.9634
  691MOL0     C93183  11.069   2.411   7.188 -0.0005  0.5405  0.3265
  691MOL0     C93184  11.187   2.475   7.226 -0.3919  0.0990  0.3287
  691MOL0     O93185  11.287   2.399   7.280  0.2049 -0.2013 -0.1117
  691MOL0     C93186  11.410   2.458   7.309 -1.1624  0.1861 -0.0346
  691MOL0     C93187  11.470   2.353   7.390  0.5519  0.5866  0.2786
  691MOL0     C93188  11.615   2.380   7.411 -0.3674  0.0688 -0.4402
  691MOL0     C93189  11.663   2.267   7.503 -0.3024  0.2333 -0.5110
  691MOL0     C93190  11.808   2.288   7.529 -0.4891 -0.5097 -0.0072
  691MOL0     C93191  11.880   2.199   7.643  0.7019  0.1323  0.4702
  691MOL0     C93192  11.824   2.220   7.780 -0.2836  0.1470 -0.2746
  691MOL0     C93193  11.861   2.117   7.885 -0.7859 -0.3936  0.9604
  691MOL0    Cl93194  11.785   1.954   7.851  0.2174  0.1981 -0.7262
  691MOL0     C93195  11.198   2.613   7.194 -0.3790  1.1477  0.1337
  691MOL0     C93196  11.088   2.685   7.153  0.8028 -0.2840  0.4552
  691MOL0     O93197  10.827   2.566   6.891  0.7083  0.2200 -0.5348
  691MOL0     C93198  10.638   2.846   7.024 -0.3682  0.1347 -0.1168
  691MOL0     C93199  10.553   2.940   6.990  0.3521  0.2517  0.5564
  691MOL0     N93200  10.096   3.465   6.569  0.7046  0.1510  0.1170
  691MOL0     N93201  10.041   3.574   6.529  0.0541  1.3387 -0.1841
  691MOL0     C93202  10.117   4.066   5.662 -0.1143 -0.1492 -0.2632
  691MOL0     C93203  10.226   4.028   5.579  0.3566 -1.0208  0.3667
  691MOL0     C93204  10.552   3.773   5.406  0.9509 -0.4315 -0.0851
  691MOL0     C93205  10.529   3.718   5.287  0.6980 -0.0907  0.1361
  691MOL0     C93206  10.631   3.680   5.200 -0.3774 -0.5784  0.0534
  691MOL0     C93207  10.766   3.706   5.233 -0.6550 -0.0552 -0.1192
  691MOL0     O93208  10.866   3.689   5.136 -0.1491  0.1513  0.2624
  691MOL0     C93209  10.991   3.744   5.175  0.1093  0.1657 -0.6286
  691MOL0     C93210  11.093   3.740   5.063 -0.0033 -0.7458  0.0115
  691MOL0     C93211  11.076   3.831   4.938  0.6162 -0.3215 -0.6539
  691MOL0     C93212  11.202   3.834   4.849  0.2694 -0.2598  0.7610
  691MOL0     C93213  11.314   3.913   4.907  0.2285 -0.8192 -0.6269
  691MOL0     C93214  11.415   3.961   4.951 -0.1393 -0.7281 -0.4286
  691MOL0     C93215  10.787   3.747   5.367  0.0307 -0.2888 -0.0259
  691MOL0     C93216  10.685   3.791   5.453  0.8801 -0.0314  0.0482
  691MOL0     C93217  10.733   3.863   5.588 -0.4270 -0.1807  0.3704
  691MOL0     H93218  10.448   3.927   5.807  0.6834  1.6607 -2.7027
  691MOL0     H93219  10.241   3.976   5.957  1.1062  0.5387 -0.2840
  691MOL0     H93220   9.810   4.088   5.888 -1.1719 -0.9399 -1.9235
  691MOL0     H93221   9.889   3.974   5.780 -0.8735 -0.0633  0.3695
  691MOL0     H93222   9.980   3.848   5.989 -2.5781 -1.8957 -1.9305
  691MOL0     H93223   9.807   3.861   5.992  0.1578 -1.6783 -0.9318
  691MOL0     H93224   9.811   3.980   6.192 -0.6889 -1.0267 -1.5574
  691MOL0     H93225   9.899   4.115   6.101  1.4656  0.5407 -1.2054
  691MOL0     H93226  10.021   3.871   6.247 -3.1922 -0.0117  0.6402
  691MOL0     H93227  10.107   4.005   6.153 -0.8514  1.4635 -0.8670
  691MOL0     H93228  10.115   4.035   6.410 -1.4546  0.6942  2.4864
  691MOL0     H93229  10.017   4.155   6.336 -1.3466 -0.1138 -0.0456
  691MOL0     H93230   9.898   4.070   6.534 -0.9473 -1.2688  0.9266
  691MOL0     H93231   9.804   4.023   6.399  1.2685 -0.9747 -2.4018
  691MOL0     H93232   9.878   3.795   6.414 -2.0884  0.3174  0.0267
  691MOL0     H93233   9.821   3.860   6.566 -0.4102  1.9954  0.0591
  691MOL0     H93234  10.124   3.829   6.490  0.7978  2.1763  1.0372
  691MOL0     H93235  10.064   3.898   6.637  0.8442  0.3392 -0.2274
  691MOL0     H93236  10.140   3.693   6.808 -2.7156 -0.5464  0.2073
  691MOL0     H93237  10.324   3.468   6.808 -0.2812  0.7018  1.0132
  691MOL0     H93238  10.166   3.462   6.898  1.4859  0.1361  1.8349
  691MOL0     H93239  10.234   3.237   6.913  0.3995  0.2912 -0.0088
  691MOL0     H93240  10.108   3.243   6.789 -0.7265  1.2915 -1.7459
  691MOL0     H93241  10.408   3.272   6.738 -1.2628  1.8978  2.0191
  691MOL0     H93242  10.299   3.237   6.609  3.3517  1.2805 -0.6934
  691MOL0     H93243  10.419   3.031   6.648  2.0204  2.0105  0.3072
  691MOL0     H93244  10.249   3.008   6.708  0.5954 -0.2338 -1.1778
  691MOL0     H93245  10.459   2.820   6.685  0.0687  2.8380  0.5623
  691MOL0     H93246  10.656   2.678   6.728 -0.4788 -1.1512  1.8488
  691MOL0     H93247  10.863   2.425   7.116 -0.9505 -0.6686  2.0602
  691MOL0     H93248  11.068   2.303   7.201 -1.1819  0.1637 -2.2968
  691MOL0     H93249  11.456   2.478   7.212 -1.6313  2.0288  0.0800
  691MOL0     H93250  11.409   2.550   7.369  0.2491 -1.1008  2.0923
  691MOL0     H93251  11.422   2.350   7.488  1.5646  1.8534  0.8422
  691MOL0     H93252  11.449   2.257   7.342  1.5463  0.9368 -0.9261
  691MOL0     H93253  11.675   2.371   7.320 -1.9226 -0.5454 -1.4458
  691MOL0     H93254  11.630   2.477   7.461  2.1885  0.1154 -1.1556
  691MOL0     H93255  11.653   2.168   7.457  2.8996 -1.1619  1.4813
  691MOL0     H93256  11.612   2.261   7.600  1.1327 -0.9444  0.1932
  691MOL0     H93257  11.831   2.390   7.562 -1.0688 -0.3409 -0.1071
  691MOL0     H93258  11.859   2.279   7.433  1.0863  2.1735  0.4780
  691MOL0     H93259  11.856   2.097   7.613  2.1347 -0.4663  1.2585
  691MOL0     H93260  11.988   2.216   7.640  0.9162 -1.2852 -1.1667
  691MOL0     H93261  11.716   2.209   7.770 -0.0562 -1.1410 -1.6685
  691MOL0     H93262  11.851   2.322   7.809 -2.8949 -0.5309  6.2663
  691MOL0     H93263  11.969   2.113   7.899 -0.2873  2.1452 -1.3263
  691MOL0     H93264  11.811   2.158   7.973 -1.2371  0.1175  0.4788
  691MOL0     H93265  11.288   2.667   7.221  2.2195 -2.7129 -0.0967
  691MOL0     H93266  11.089   2.792   7.139 -0.9209 -0.4345 -1.0793
  691MOL0     H93267  10.695   2.860   7.115 -0.0688  0.9165 -0.4158
  691MOL0     H93268  10.524   3.017   7.061  1.4846  2.0953 -0.8944
  691MOL0     H93269  10.023   4.099   5.618 -0.6382  0.8266  1.5009
  691MOL0     H93270  10.215   4.030   5.471  0.8037 -3.3590  0.2182
  691MOL0     H93271  10.428   3.709   5.249  0.2097 -0.0621  1.3521
  691MOL0     H93272  10.605   3.640   5.103  1.6390  3.3417 -2.3745
  691MOL0     H93273  11.021   3.690   5.265 -4.6928 -0.7199  0.7403
  691MOL0     H93274  10.973   3.849   5.198 -0.7389  0.6849 -3.3372
  691MOL0     H93275  11.088   3.638   5.024 -1.5199  0.3695 -2.9750
  691MOL0     H93276  11.196   3.755   5.097  0.7139 -0.4556 -2.1309
  691MOL0     H93277  11.050   3.931   4.975 -0.2072 -1.1481  1.1721
  691MOL0     H93278  10.990   3.800   4.878 -0.1036 -1.9396  1.1111
  691MOL0     H93279  11.238   3.732   4.834  1.7773  0.5820 -2.0606
  691MOL0     H93280  11.162   3.869   4.753 -3.2625 -2.7255  1.1463
  691MOL0     H93281  11.506   4.005   4.988 -2.3318  1.9212  2.3102
  691MOL0     H93282  10.881   3.758   5.420 -0.5836 -0.4725  1.1427
  691MOL0     H93283  10.783   3.955   5.556 -1.1502 -0.1984 -0.8425
  691MOL0     H93284  10.648   3.882   5.655 -0.3164  2.2643 -0.0800
  691MOL0     H93285  10.803   3.795   5.639 -0.1272 -1.7280 -1.9386
  692MOL0     O93286   6.234  10.432   0.950  0.1918 -0.2251 -0.9103
  692MOL0     C93287   6.218  10.471   0.832 -0.1675 -0.9666 -0.2039
  692MOL0     O93288   6.280  10.425   0.717  0.2750 -0.1946  0.3171
  692MOL0     C93289   6.367  10.325   0.712 -0.1830  0.8256 -0.2060
  692MOL0     C93290   6.373  10.240   0.602  0.6294 -0.9413  0.2457
  692MOL0     C93291   6.476  10.152   0.580 -0.6732  0.0298  0.4361
  692MOL0     C93292   6.581  10.147   0.677  0.4739  0.0481  0.0055
  692MOL0     O93293   6.664  10.043   0.677  0.1291  0.1005 -0.3353
  692MOL0     C93294   6.791  10.046   0.740 -0.9567  0.0320  0.2959
  692MOL0     C93295   6.867   9.910   0.715  0.4738 -0.6128  0.4163
  692MOL0     C93296   6.885   9.885   0.560 -0.0263 -0.1494 -0.7065
  692MOL0     C93297   6.981   9.773   0.528  0.4475 -1.0104  0.0683
  692MOL0     C93298   7.002   9.750   0.371 -1.0209  0.6575 -0.6951
  692MOL0     C93299   7.096   9.634   0.358 -0.3937  0.4377  0.4351
  692MOL0     C93300   7.126   9.588   0.209  0.0203 -1.0145 -0.6668
  692MOL0     C93301   7.227   9.473   0.200 -0.1896  0.9181 -0.4844
  692MOL0     N93302   7.356   9.510   0.251 -0.4198  0.1852  0.5796
  692MOL0     C93303   7.433   9.600   0.188  0.0980 -0.6762  0.3912
  692MOL0     C93304   7.554   9.593   0.239  0.3000  0.1455 -0.3229
  692MOL0     C93305   7.677   9.681   0.203  0.1753  0.2780 -1.0339
  692MOL0     C93306   7.710   9.791   0.307  0.0178  0.3956  0.8264
  692MOL0     C93307   7.797   9.901   0.246 -1.0216 -0.0924  0.6248
  692MOL0     C93308   7.945   9.883   0.267  0.2783 -0.0811 -0.2453
  692MOL0     O93309   8.009   9.778   0.193 -0.0004 -0.8487 -0.4218
  692MOL0     C93310   8.129   9.753   0.243 -0.6795  0.1901  0.9343
  692MOL0     C93311   8.236   9.825   0.200 -0.4504  0.3283 -0.4547
  692MOL0     C93312   8.365   9.785   0.247 -1.1203 -0.9473  1.0157
  692MOL0     C93313   8.387   9.681   0.337  0.4167  0.6840  0.2807
  692MOL0     C93314   8.523   9.637   0.375 -0.5482 -0.1108 -0.0966
  692MOL0     O93315   8.633   9.699   0.321  0.2228  0.8975  0.0180
  692MOL0     C93316   8.748   9.644   0.363 -0.4561  0.1123  0.4207
  692MOL0     C93317   8.836   9.742   0.406 -0.2148 -0.2573  0.3461
  692MOL0     C93318   8.967   9.707   0.421 -0.6609 -0.1837  0.2763
  692MOL0     C93319   9.012   9.571   0.404  0.2653 -0.0935 -0.6314
  692MOL0     O93320   9.130   9.539   0.438 -0.3988 -0.5355 -0.9751
  692MOL0     C93321   9.189   9.413   0.383 -0.7929 -0.6778  0.5492
  692MOL0     C93322   9.334   9.404   0.426  0.1404  0.9336  0.0134
  692MOL0     C93323   9.353   9.382   0.575 -0.5749 -0.4972  0.6795
  692MOL0     C93324   9.298   9.245   0.624  0.0060 -0.3621 -0.1456
  692MOL0     C93325   9.323   9.222   0.772 -0.2416 -1.2513 -0.1425
  692MOL0     C93326   9.235   9.115   0.831 -0.3327 -0.1259 -0.3743
  692MOL0     C93327   9.274   9.064   0.969 -0.2375  0.3273 -0.1577
  692MOL0     C93328   9.165   9.016   1.056  1.0489  1.2587 -0.0759
  692MOL0    Cl93329   9.060   8.902   0.975 -0.1368  0.2257 -0.1235
  692MOL0     C93330   8.916   9.476   0.356 -0.6299  0.7545  0.2447
  692MOL0     C93331   8.790   9.512   0.323  0.6665 -1.2064  0.9227
  692MOL0     O93332   8.526   9.532   0.440  0.0178 -0.0313 -0.2394
  692MOL0     C93333   8.270   9.602   0.372  0.9078 -0.5393  0.1024
  692MOL0     C93334   8.150   9.641   0.322  0.7732  0.4866 -0.9931
  692MOL0     N93335   7.546   9.509   0.347 -0.3393 -0.1442 -0.1815
  692MOL0     N93336   7.427   9.457   0.358 -0.4497 -0.3212 -0.5835
  692MOL0     C93337   6.564  10.232   0.786 -0.6680  0.1859  0.1772
  692MOL0     C93338   6.467  10.328   0.800 -1.1327 -0.9177 -0.0933
  692MOL0     C93339   6.109  10.584   0.831  0.5374  0.6967 -0.5260
  692MOL0     C93340   6.114  10.676   0.937 -0.2841 -0.5634  0.4832
  692MOL0     C93341   6.017  10.774   0.947  0.4397 -0.4211 -0.2963
  692MOL0     C93342   5.920  10.791   0.852 -0.0531  0.2782 -0.6018
  692MOL0     O93343   5.829  10.891   0.848  0.6462  0.1705  0.1377
  692MOL0     C93344   5.788  10.971   0.962 -1.2870  0.1268 -0.5143
  692MOL0     C93345   5.657  11.044   0.927 -0.4189 -0.4566  0.4135
  692MOL0     C93346   5.577  11.104   1.046  0.3530 -0.0013  0.6278
  692MOL0     C93347   5.433  11.057   1.054  0.2960 -0.4989 -0.8917
  692MOL0     C93348   5.413  10.930   1.128 -0.7074  0.2680 -0.1497
  692MOL0     C93349   5.396  10.835   1.201  0.9380 -0.5814 -0.2312
  692MOL0     C93350   5.908  10.703   0.743  0.8050  0.4220 -0.1128
  692MOL0     C93351   5.990  10.590   0.743 -0.1552 -0.0320  0.2220
  692MOL0     C93352   5.981  10.493   0.628 -1.1290 -0.4844 -0.7297
  692MOL0     H93353   6.297  10.244   0.525  1.9996 -1.2216 -1.1877
  692MOL0     H93354   6.490  10.081   0.499  2.4977  1.1928 -0.1937
  692MOL0     H93355   6.842  10.127   0.686 -1.9498  0.0922 -0.5864
  692MOL0     H93356   6.787  10.063   0.848  0.3547 -1.9974  0.7109
  692MOL0     H93357   6.812   9.831   0.766  0.0944  0.2838  1.4311
  692MOL0     H93358   6.967   9.922   0.758  0.8239  1.6831 -0.8427
  692MOL0     H93359   6.908   9.969   0.495  0.5468 -2.3182 -3.5202
  692MOL0     H93360   6.786   9.852   0.526 -0.5368  2.1634 -1.6521
  692MOL0     H93361   7.075   9.801   0.578  0.9934  1.8041 -2.2500
  692MOL0     H93362   6.952   9.679   0.576  0.9352 -1.0551  0.2781
  692MOL0     H93363   6.905   9.730   0.325  0.4696  0.4799 -4.0621
  692MOL0     H93364   7.043   9.834   0.314  1.2827  0.1033  0.0346
  692MOL0     H93365   7.190   9.655   0.409  1.4499 -3.6907 -0.8646
  692MOL0     H93366   7.063   9.547   0.415  0.8561  0.1051  0.6747
  692MOL0     H93367   7.148   9.679   0.153 -1.1747 -0.9793 -1.1294
  692MOL0     H93368   7.022   9.563   0.183 -1.9809  3.9908  1.1778
  692MOL0     H93369   7.190   9.381   0.246 -0.3877  0.8652 -0.7490
  692MOL0     H93370   7.242   9.453   0.093 -1.6812 -0.7039 -0.4313
  692MOL0     H93371   7.402   9.655   0.100  2.4523  1.0146  0.5383
  692MOL0     H93372   7.766   9.619   0.190  0.2851  0.1659  0.1940
  692MOL0     H93373   7.655   9.718   0.103 -0.8855 -2.2289 -1.8239
  692MOL0     H93374   7.617   9.840   0.338  1.6690  2.5301  2.7943
  692MOL0     H93375   7.746   9.741   0.397 -0.4352 -0.9256  0.3063
  692MOL0     H93376   7.772   9.996   0.295 -0.5629 -0.6420  1.9637
  692MOL0     H93377   7.780   9.908   0.138  0.4334 -2.6173  0.1661
  692MOL0     H93378   7.963   9.890   0.374 -0.3227  3.3657 -0.2369
  692MOL0     H93379   7.989   9.972   0.220  3.3681 -1.1122  0.4756
  692MOL0     H93380   8.233   9.901   0.123  0.9824 -0.7475 -1.6342
  692MOL0     H93381   8.436   9.855   0.205  2.2632 -1.1072  5.6916
  692MOL0     H93382   8.800   9.845   0.406 -4.1709 -1.4537  1.4446
  692MOL0     H93383   9.032   9.788   0.453 -0.5012 -0.9531  2.0682
  692MOL0     H93384   9.131   9.324   0.411 -1.1161 -0.6107  0.0929
  692MOL0     H93385   9.200   9.418   0.275  1.2811 -2.2390  0.6139
  692MOL0     H93386   9.375   9.316   0.376 -2.1794  0.5451 -1.3825
  692MOL0     H93387   9.394   9.492   0.401  1.0702  0.2978 -0.0550
  692MOL0     H93388   9.454   9.404   0.608 -0.1140 -0.5968 -0.5965
  692MOL0     H93389   9.298   9.460   0.627  0.4608 -0.4617  1.7600
  692MOL0     H93390   9.346   9.166   0.566 -0.4045 -0.7761  0.0723
  692MOL0     H93391   9.190   9.239   0.609 -0.6635  3.9280  1.4034
  692MOL0     H93392   9.302   9.318   0.819 -1.1295 -1.2503 -0.5326
  692MOL0     H93393   9.431   9.208   0.787 -0.3538  0.5634  3.6828
  692MOL0     H93394   9.138   9.160   0.850 -1.9999 -3.9535  1.1834
  692MOL0     H93395   9.214   9.027   0.769  0.1842 -0.5310  0.0058
  692MOL0     H93396   9.328   9.140   1.026  0.2494  2.3316 -3.0780
  692MOL0     H93397   9.349   8.987   0.948  0.6193  0.4159  2.2515
  692MOL0     H93398   9.193   8.961   1.147  1.3375  0.1631 -0.8071
  692MOL0     H93399   9.087   9.089   1.082  0.3033  1.1936 -1.9761
  692MOL0     H93400   8.951   9.382   0.314  1.7264  2.8154 -2.9333
  692MOL0     H93401   8.727   9.438   0.273 -0.1151  0.8673 -1.3904
  692MOL0     H93402   8.268   9.511   0.431  0.5268 -0.7654 -0.2555
  692MOL0     H93403   8.068   9.574   0.346  2.7562 -1.4931  0.7508
  692MOL0     H93404   6.640  10.239   0.863 -0.2198  0.3337 -0.2696
  692MOL0     H93405   6.470  10.398   0.882  1.1474 -1.0737  0.0304
  692MOL0     H93406   6.203  10.666   0.997 -0.1157 -1.5698  0.0880
  692MOL0     H93407   6.020  10.841   1.032  0.2246 -0.8317  0.0387
  692MOL0     H93408   5.865  11.042   0.996 -1.2732 -0.3591  0.5124
  692MOL0     H93409   5.781  10.904   1.049  0.9807  1.7020  0.9964
  692MOL0     H93410   5.592  10.968   0.883 -1.2242  1.5919 -2.1803
  692MOL0     H93411   5.661  11.110   0.841 -3.4543 -1.4394 -0.6222
  692MOL0     H93412   5.562  11.209   1.017 -2.0299 -0.3523  0.4596
  692MOL0     H93413   5.631  11.104   1.141 -0.0727 -0.1931  0.8688
  692MOL0     H93414   5.381  11.134   1.112  0.2204  1.4197 -3.3550
  692MOL0     H93415   5.375  11.055   0.961 -1.4518  2.9220 -0.0498
  692MOL0     H93416   5.384  10.757   1.274 -2.8218  0.1824  0.1817
  692MOL0     H93417   5.826  10.716   0.673  0.2480 -0.0491  0.4469
  692MOL0     H93418   6.076  10.491   0.574  1.6208 -3.2472  3.5556
  692MOL0     H93419   5.962  10.393   0.667 -1.0802 -0.9316 -1.8181
  692MOL0     H93420   5.909  10.524   0.552  0.9545 -1.6323 -3.3423
  693MOL0     O93421   8.642   0.988   4.864 -0.8482  0.0834  0.3009
  693MOL0     C93422   8.677   0.878   4.826  0.3442  0.1322 -0.7721
  693MOL0     O93423   8.771   0.858   4.725  0.0563  0.2600 -0.5532
  693MOL0     C93424   8.785   0.962   4.638 -0.0443  0.2362 -0.4468
  693MOL0     C93425   8.710   0.941   4.516  0.0310 -0.5636  0.1240
  693MOL0     C93426   8.688   1.048   4.435 -0.4271  0.4081  0.0097
  693MOL0     C93427   8.749   1.168   4.449 -0.2814 -0.3813 -1.4350
  693MOL0     O93428   8.733   1.256   4.342  0.4570 -0.0876 -0.4840
  693MOL0     C93429   8.845   1.342   4.307  0.9722  0.5026  0.7053
  693MOL0     C93430   8.960   1.266   4.253 -0.7836  0.8018  0.5633
  693MOL0     C93431   9.084   1.347   4.211 -0.1255  1.0548 -0.0035
  693MOL0     C93432   9.200   1.364   4.312 -0.2679 -0.5429  0.0596
  693MOL0     C93433   9.326   1.446   4.256  0.3369 -0.1186  0.4909
  693MOL0     C93434   9.381   1.399   4.123  0.6782 -0.6212  0.5979
  693MOL0     C93435   9.534   1.447   4.108 -0.4102  0.3945  0.5669
  693MOL0     C93436   9.589   1.392   3.976 -0.6786 -0.7629  0.2389
  693MOL0     N93437   9.724   1.440   3.953 -0.5728 -0.5844 -0.5140
  693MOL0     C93438   9.835   1.416   4.029 -0.3312  0.3727 -0.8398
  693MOL0     C93439   9.944   1.482   3.968  0.0442  0.3080  0.5426
  693MOL0     C93440  10.089   1.451   3.976  0.7313 -0.1709  0.2718
  693MOL0     C93441  10.125   1.394   4.111  1.1901 -0.0943 -0.3495
  693MOL0     C93442  10.280   1.374   4.128  0.1074 -0.5240 -0.3168
  693MOL0     C93443  10.375   1.499   4.136 -0.0196  0.6170  0.1201
  693MOL0     O93444  10.498   1.474   4.207  0.4577  0.1899  0.2145
  693MOL0     C93445  10.591   1.572   4.214  0.1619 -0.2194  0.5697
  693MOL0     C93446  10.708   1.539   4.275 -0.5122  0.6440 -0.4894
  693MOL0     C93447  10.817   1.632   4.272 -0.3907  0.3707 -0.4735
  693MOL0     C93448  10.810   1.752   4.211  0.9550 -0.4849 -0.3327
  693MOL0     C93449  10.913   1.850   4.220 -0.5891 -0.4128  0.2396
  693MOL0     O93450  11.032   1.801   4.264  0.4499 -0.4666 -0.5072
  693MOL0     C93451  11.142   1.896   4.282  0.4096  0.3299  0.2047
  693MOL0     C93452  11.264   1.861   4.238 -0.2944 -0.7492 -0.7312
  693MOL0     C93453  11.377   1.941   4.256  0.0865 -0.5332  0.6122
  693MOL0     C93454  11.361   2.070   4.310 -0.0112  0.4630  0.9501
  693MOL0     O93455  11.469   2.152   4.293 -1.0488 -0.3731 -0.0046
  693MOL0     C93456  11.468   2.288   4.334  0.8929  0.0952  0.0146
  693MOL0     C93457  11.390   2.381   4.243  0.2640  0.0088 -0.2241
  693MOL0     C93458  11.308   2.499   4.307  0.3538 -0.1397 -0.6046
  693MOL0     C93459  11.236   2.582   4.197 -0.2231  0.1839 -0.0119
  693MOL0     C93460  11.128   2.678   4.251  1.0751  0.7537 -0.4027
  693MOL0     C93461  11.037   2.711   4.132  0.3218  0.4217  0.4565
  693MOL0     C93462  10.944   2.827   4.171  0.3760  0.7543 -1.1389
  693MOL0     C93463  10.874   2.868   4.048  0.3687 -0.4595 -1.1550
  693MOL0    Cl93464  10.736   2.753   4.030 -0.2142  0.0682 -0.4425
  693MOL0     C93465  11.232   2.106   4.361 -0.1032 -0.2576 -0.0280
  693MOL0     C93466  11.122   2.016   4.344 -0.2209 -0.0677  0.1754
  693MOL0     O93467  10.882   1.967   4.189  0.1963  0.2178 -0.4575
  693MOL0     C93468  10.686   1.788   4.156 -0.3629  0.3718  0.0480
  693MOL0     C93469  10.580   1.697   4.152  0.1488  0.1025 -0.7786
  693MOL0     N93470   9.883   1.556   3.864  0.3493 -0.2510 -0.2626
  693MOL0     N93471   9.756   1.531   3.860  0.1966 -0.8946  0.8889
  693MOL0     C93472   8.833   1.187   4.559  0.8225  0.0824  0.7206
  693MOL0     C93473   8.843   1.088   4.665  0.2709  0.2265  0.4101
  693MOL0     C93474   8.648   0.768   4.919 -0.4022  0.4339 -0.4602
  693MOL0     C93475   8.752   0.673   4.928 -0.2689  0.1535  0.2249
  693MOL0     C93476   8.740   0.564   5.010 -0.0966  0.1230  0.1500
  693MOL0     C93477   8.633   0.542   5.095 -0.4809  0.1602  1.0159
  693MOL0     O93478   8.636   0.426   5.171  0.4534  0.1024  0.3530
  693MOL0     C93479   8.533   0.397   5.268  0.2553  0.4575  0.9107
  693MOL0     C93480   8.523   0.485   5.389 -0.9628  0.3661 -0.5929
  693MOL0     C93481   8.654   0.480   5.472  0.4851  0.1882  0.5578
  693MOL0     C93482   8.656   0.565   5.601  0.4232 -0.5271  0.0380
  693MOL0     C93483   8.666   0.704   5.570 -0.7072  0.1489  0.2930
  693MOL0     C93484   8.670   0.825   5.572 -0.4999 -0.0476 -0.2509
  693MOL0     C93485   8.529   0.635   5.084  0.1469 -0.0254 -0.1336
  693MOL0     C93486   8.528   0.742   4.995 -0.2700 -1.0825 -0.2242
  693MOL0     C93487   8.394   0.821   4.973 -0.0668  0.3824  0.2691
  693MOL0     H93488   8.660   0.844   4.510 -3.0809  0.3850  5.0224
  693MOL0     H93489   8.637   1.024   4.342 -2.3873 -3.7523  1.8916
  693MOL0     H93490   8.815   1.402   4.221 -0.1639 -1.6165 -0.4666
  693MOL0     H93491   8.874   1.408   4.390  3.4924  0.0497  0.2488
  693MOL0     H93492   8.919   1.206   4.171  0.7130 -2.3915  1.9923
  693MOL0     H93493   8.984   1.191   4.329 -3.5610  0.9692  1.7476
  693MOL0     H93494   9.040   1.442   4.179 -2.9033  0.0809  0.7461
  693MOL0     H93495   9.117   1.296   4.120 -0.1694  1.0617 -0.0237
  693MOL0     H93496   9.163   1.414   4.402  1.0377 -2.6251  1.8562
  693MOL0     H93497   9.230   1.264   4.345  2.2823 -0.7112 -2.3902
  693MOL0     H93498   9.295   1.550   4.244  3.6244  0.8452 -1.0356
  693MOL0     H93499   9.409   1.444   4.328 -1.4336  1.3358  2.7083
  693MOL0     H93500   9.385   1.290   4.122 -0.2582 -0.6781  1.4015
  693MOL0     H93501   9.322   1.427   4.036  0.5326  0.2216  0.9562
  693MOL0     H93502   9.593   1.407   4.191 -2.5382 -0.7253  1.6539
  693MOL0     H93503   9.532   1.555   4.119  0.0493  0.4374  0.2490
  693MOL0     H93504   9.603   1.284   3.982  2.7596 -0.4497 -0.0693
  693MOL0     H93505   9.509   1.429   3.912 -0.7368 -1.7287 -0.2585
  693MOL0     H93506   9.858   1.361   4.120  1.1821  0.6539 -1.0204
  693MOL0     H93507  10.113   1.376   3.900 -1.3290  0.4168 -1.0445
  693MOL0     H93508  10.142   1.545   3.959 -0.2766 -0.0058 -2.3554
  693MOL0     H93509  10.071   1.455   4.184 -0.8052 -1.6999 -0.4239
  693MOL0     H93510  10.082   1.294   4.104 -0.3211  0.6643 -4.5725
  693MOL0     H93511  10.330   1.319   4.047  3.0562  0.5286  0.6270
  693MOL0     H93512  10.285   1.327   4.226 -3.7654 -0.2942  0.1445
  693MOL0     H93513  10.319   1.579   4.185 -0.4131  0.4862 -0.1190
  693MOL0     H93514  10.408   1.532   4.037  1.0274  0.3545  0.3642
  693MOL0     H93515  10.732   1.446   4.325 -0.7671  2.2279  2.8496
  693MOL0     H93516  10.909   1.609   4.324 -1.3162  0.5516  1.3168
  693MOL0     H93517  11.270   1.762   4.195  0.0217 -1.4767  0.9165
  693MOL0     H93518  11.472   1.913   4.213 -0.6307 -0.1571 -1.3306
  693MOL0     H93519  11.412   2.287   4.428  1.8372 -3.2692  0.6594
  693MOL0     H93520  11.569   2.327   4.352  0.2998  2.1897 -0.8697
  693MOL0     H93521  11.458   2.419   4.166 -0.5972  1.7932 -0.1590
  693MOL0     H93522  11.318   2.321   4.186 -0.9954 -1.6048  2.8601
  693MOL0     H93523  11.232   2.453   4.371  1.8621 -1.0120  0.6103
  693MOL0     H93524  11.370   2.554   4.379 -0.3194 -1.2058  0.8538
  693MOL0     H93525  11.186   2.504   4.139 -0.3407  0.5811 -0.4436
  693MOL0     H93526  11.314   2.632   4.139  1.4054  0.4176  2.2087
  693MOL0     H93527  11.173   2.769   4.293  0.9796  0.1537  1.0859
  693MOL0     H93528  11.073   2.640   4.338  1.2527  2.0759  0.3148
  693MOL0     H93529  11.101   2.740   4.048 -0.6446 -0.0699 -0.4702
  693MOL0     H93530  10.980   2.624   4.099  0.9279  0.7991 -1.7730
  693MOL0     H93531  11.002   2.910   4.213  0.7456  1.3997 -2.8344
  693MOL0     H93532  10.874   2.792   4.247  4.1083  0.2751  2.4428
  693MOL0     H93533  10.855   2.976   4.046 -0.5023 -0.6204 -1.8302
  693MOL0     H93534  10.944   2.866   3.964  1.6469 -0.5548 -0.1336
  693MOL0     H93535  11.215   2.209   4.392 -2.3404 -0.1317 -1.4687
  693MOL0     H93536  11.024   2.050   4.375  0.3331 -0.5378  2.6582
  693MOL0     H93537  10.671   1.873   4.090 -0.7414  0.0094 -0.3434
  693MOL0     H93538  10.490   1.709   4.093  0.5842 -2.2198 -2.0880
  693MOL0     H93539   8.879   1.286   4.565  0.7531  0.1759 -0.1110
  693MOL0     H93540   8.897   1.121   4.753 -2.3225  3.0559  1.1342
  693MOL0     H93541   8.845   0.690   4.874 -1.3650  2.9805 -0.9912
  693MOL0     H93542   8.827   0.500   5.024  0.1193  0.5740  1.0153
  693MOL0     H93543   8.534   0.294   5.305 -0.0565 -0.3899 -1.2437
  693MOL0     H93544   8.433   0.407   5.223  0.2298  0.4689  0.9701
  693MOL0     H93545   8.435   0.468   5.451 -1.4638 -3.2353 -2.0412
  693MOL0     H93546   8.515   0.586   5.348  0.0263  2.0239  2.9116
  693MOL0     H93547   8.740   0.496   5.406 -0.7322  0.8827 -0.9285
  693MOL0     H93548   8.663   0.375   5.501 -1.0400 -0.0792  0.1528
  693MOL0     H93549   8.581   0.539   5.676 -0.5454 -2.7664 -1.5663
  693MOL0     H93550   8.757   0.540   5.637  0.9033  1.7093  0.3589
  693MOL0     H93551   8.666   0.932   5.568 -1.3976  0.0638  2.0898
  693MOL0     H93552   8.433   0.620   5.134  0.6986  1.6370  1.5513
  693MOL0     H93553   8.336   0.756   4.906 -1.5839  1.9717 -0.0064
  693MOL0     H93554   8.339   0.843   5.065 -0.8234 -1.3806  0.2861
  693MOL0     H93555   8.401   0.921   4.931 -0.0182  1.1027  1.9178
  694MOL0     O93556   9.606  10.968   9.662 -0.1026 -0.8270 -0.1788
  694MOL0     C93557   9.583  10.868   9.599  0.5327  0.2667  0.9489
  694MOL0     O93558   9.676  10.768   9.575  0.4378  0.5092 -0.2601
  694MOL0     C93559   9.798  10.760   9.647 -0.4665  0.9122  0.0756
  694MOL0     C93560   9.918  10.757   9.571 -0.7264  0.6611 -0.9740
  694MOL0     C93561  10.050  10.764   9.626 -0.0402 -0.2707  1.4102
  694MOL0     C93562  10.049  10.778   9.767 -0.0164  0.2888  0.1462
  694MOL0     O93563  10.170  10.801   9.820  0.1350 -0.1122  0.4003
  694MOL0     C93564  10.190  10.789   9.961 -0.3498 -0.1033 -0.7923
  694MOL0     C93565  10.339  10.840  10.004  0.2313  0.5152 -0.3103
  694MOL0     C93566  10.382  10.982   9.956 -0.3714 -0.4307  0.4711
  694MOL0     C93567  10.521  11.015  10.006 -0.2278 -0.4849  0.6325
  694MOL0     C93568  10.567  11.153   9.945  1.0047 -0.0077  0.5390
  694MOL0     C93569  10.692  11.193  10.025  0.5001 -0.6771  0.2115
  694MOL0     C93570  10.724  11.335   9.991 -0.4472 -0.6280  0.0592
  694MOL0     C93571  10.853  11.385  10.055  0.6670  0.6456 -0.4037
  694MOL0     N93572  10.965  11.336   9.983 -0.0022 -0.2223  0.6205
  694MOL0     C93573  11.010  11.391   9.869 -0.6795  0.1306  0.3538
  694MOL0     C93574  11.120  11.312   9.844  0.6537  0.0212  1.0224
  694MOL0     C93575  11.202  11.361   9.727 -0.2174 -0.5855  0.5170
  694MOL0     C93576  11.163  11.267   9.613  0.4002 -0.7439 -0.2679
  694MOL0     C93577  11.232  11.313   9.478 -0.2054 -0.5828  0.2686
  694MOL0     C93578  11.189  11.216   9.374  0.0802 -0.0029  0.6487
  694MOL0     O93579  11.265  11.249   9.256  0.4010 -0.3277 -0.1203
  694MOL0     C93580  11.209  11.216   9.132  0.3632  0.4636  0.6117
  694MOL0     C93581  11.103  11.129   9.116  0.0900  0.4173 -0.3082
  694MOL0     C93582  11.038  11.115   8.996  0.1940  0.7967 -0.0532
  694MOL0     C93583  11.100  11.153   8.875  0.1385  0.1671  0.8792
  694MOL0     C93584  11.034  11.114   8.753 -0.1937 -0.3461  0.2596
  694MOL0     O93585  10.949  11.016   8.767 -0.6412  0.3009 -0.8095
  694MOL0     C93586  10.875  10.970   8.660 -0.4475 -0.1796 -0.2427
  694MOL0     C93587  10.736  11.000   8.652  0.6412  0.0712  0.0130
  694MOL0     C93588  10.656  10.960   8.547  0.2827  0.7068  0.5551
  694MOL0     C93589  10.717  10.879   8.441  0.0043 -0.6780  0.4434
  694MOL0     O93590  10.650  10.839   8.327 -0.6393  0.1557  0.1151
  694MOL0     C93591  10.532  10.909   8.283 -0.2782 -0.5688  0.2848
  694MOL0     C93592  10.528  10.877   8.134  0.4924 -0.6561 -0.2129
  694MOL0     C93593  10.390  10.910   8.068 -0.5554  0.4982 -0.9125
  694MOL0     C93594  10.399  10.895   7.918 -0.0228  0.4499 -0.2315
  694MOL0     C93595  10.256  10.910   7.858  0.3072  0.2379 -0.0654
  694MOL0     C93596  10.251  10.907   7.709  1.1317  1.2252  1.1970
  694MOL0     C93597  10.296  10.767   7.657  0.3217 -1.1676 -0.6296
  694MOL0     C93598  10.198  10.703   7.560  0.7871 -0.2531 -0.6086
  694MOL0    Cl93599  10.243  10.541   7.505  0.7299  0.3507 -0.0281
  694MOL0     C93600  10.854  10.855   8.439  0.1554 -0.8565  0.2437
  694MOL0     C93601  10.928  10.887   8.554 -1.4042  0.6392  0.0592
  694MOL0     O93602  11.070  11.178   8.648 -0.2491 -0.8941  0.2228
  694MOL0     C93603  11.216  11.231   8.891 -0.0335  0.5104 -0.0008
  694MOL0     C93604  11.272  11.266   9.016  0.4990 -0.0216 -0.7721
  694MOL0     N93605  11.145  11.212   9.937 -0.2750 -0.2128  0.6987
  694MOL0     N93606  11.044  11.227  10.021  1.2586 -0.6122  0.1375
  694MOL0     C93607   9.932  10.773   9.842 -0.4170 -0.3896 -0.4149
  694MOL0     C93608   9.805  10.764   9.782 -0.3487  0.1650 -0.8108
  694MOL0     C93609   9.452  10.849   9.527 -0.3881  0.1130  0.6715
  694MOL0     C93610   9.405  10.722   9.502 -0.6402  0.5238  0.2171
  694MOL0     C93611   9.292  10.683   9.437  0.4419 -0.4481 -0.0608
  694MOL0     C93612   9.200  10.781   9.409 -0.8484 -0.4405  0.5290
  694MOL0     O93613   9.085  10.763   9.344  0.6006  0.0409  1.1693
  694MOL0     C93614   9.039  10.637   9.314 -0.0988 -0.5807  0.2019
  694MOL0     C93615   8.889  10.634   9.273 -0.0342 -0.7653 -0.6131
  694MOL0     C93616   8.844  10.508   9.210 -0.2215 -0.9061  0.2802
  694MOL0     C93617   8.831  10.397   9.316 -0.4904  0.4407  0.3553
  694MOL0     C93618   8.807  10.266   9.256  0.3760  0.1368  0.1948
  694MOL0     C93619   8.791  10.157   9.205  0.0846  0.7064  0.4624
  694MOL0     C93620   9.235  10.918   9.428 -0.5678  0.2558  0.0952
  694MOL0     C93621   9.355  10.952   9.485 -0.7477  0.0649 -0.7031
  694MOL0     C93622   9.389  11.096   9.505 -0.8309  0.1114 -0.7132
  694MOL0     H93623   9.925  10.737   9.465  1.4673 -2.3455 -0.4163
  694MOL0     H93624  10.143  10.769   9.571 -1.5607  1.4059 -1.2199
  694MOL0     H93625  10.118  10.847  10.021  0.7472  0.2373  0.2353
  694MOL0     H93626  10.167  10.689   9.997 -0.9416  1.2938  3.1949
  694MOL0     H93627  10.413  10.770   9.964  0.3491  0.5802 -0.2068
  694MOL0     H93628  10.352  10.840  10.113 -2.3873  1.0356  0.0754
  694MOL0     H93629  10.318  11.056  10.005 -0.2197  1.5001 -2.0742
  694MOL0     H93630  10.372  10.996   9.848  0.7871 -2.5750  0.0311
  694MOL0     H93631  10.515  11.029  10.114  0.0613 -1.4701  0.7859
  694MOL0     H93632  10.596  10.947   9.965  2.3705  3.0334 -0.9555
  694MOL0     H93633  10.593  11.144   9.839 -1.3541 -0.4243 -0.0727
  694MOL0     H93634  10.486  11.227   9.949  3.4927  2.8877  0.6432
  694MOL0     H93635  10.682  11.182  10.134 -1.1289 -0.6656  0.0998
  694MOL0     H93636  10.768  11.126   9.984 -0.8173 -1.4810 -1.0434
  694MOL0     H93637  10.639  11.395  10.026 -0.6810 -1.4634  0.9762
  694MOL0     H93638  10.726  11.351   9.883 -1.8121 -0.1794  0.0832
  694MOL0     H93639  10.858  11.494  10.064 -2.0339  1.1082 -3.0535
  694MOL0     H93640  10.863  11.356  10.160 -2.3137 -1.6485 -0.6175
  694MOL0     H93641  10.966  11.474   9.814 -1.4369  0.8398  1.9611
  694MOL0     H93642  11.179  11.465   9.699 -0.5390 -0.2336  1.9969
  694MOL0     H93643  11.308  11.343   9.745  0.3071 -0.1921 -1.7811
  694MOL0     H93644  11.200  11.167   9.637 -1.7328 -1.3512  0.8293
  694MOL0     H93645  11.055  11.252   9.603  0.8681 -3.0532 -2.9813
  694MOL0     H93646  11.341  11.318   9.487 -0.2916  0.5320  0.9436
  694MOL0     H93647  11.196  11.412   9.449 -1.0697 -1.6101 -2.4194
  694MOL0     H93648  11.083  11.233   9.354  0.1089  0.4339  0.8581
  694MOL0     H93649  11.208  11.113   9.406  2.1638  0.5052  1.1659
  694MOL0     H93650  11.046  11.086   9.197 -2.8209  3.6063 -0.4513
  694MOL0     H93651  10.938  11.071   8.992  0.6929 -0.2950 -1.5662
  694MOL0     H93652  10.690  11.049   8.737 -2.7707 -3.9204  0.7822
  694MOL0     H93653  10.551  10.988   8.547  0.4513  1.4266 -1.0350
  694MOL0     H93654  10.435  10.877   8.321 -0.0003 -2.6316 -0.6140
  694MOL0     H93655  10.544  11.017   8.299 -2.6377 -0.3867  1.2113
  694MOL0     H93656  10.608  10.937   8.088  0.6394 -0.0537  0.8029
  694MOL0     H93657  10.544  10.770   8.119  0.2282 -0.7096 -0.1120
  694MOL0     H93658  10.319  10.834   8.103 -0.0929  0.6546  0.4118
  694MOL0     H93659  10.369  11.013   8.096  1.7561  1.2608 -1.7089
  694MOL0     H93660  10.453  10.801   7.907 -0.4073  0.0832  0.9166
  694MOL0     H93661  10.461  10.979   7.882 -2.5248  3.0022  1.0247
  694MOL0     H93662  10.208  11.004   7.887  0.9718  0.6480 -0.2668
  694MOL0     H93663  10.183  10.835   7.891  0.6467 -1.5072 -2.8793
  694MOL0     H93664  10.156  10.949   7.674  1.2706 -0.3206 -1.2286
  694MOL0     H93665  10.334  10.973   7.682  1.0272  0.4893 -1.1225
  694MOL0     H93666  10.325  10.708   7.744 -1.8226 -1.2079  0.1146
  694MOL0     H93667  10.386  10.789   7.598 -1.1136  1.4538 -2.0310
  694MOL0     H93668  10.103  10.693   7.614 -0.2000  0.4207 -2.1310
  694MOL0     H93669  10.186  10.756   7.464  0.4260 -1.1129 -1.0534
  694MOL0     H93670  10.891  10.798   8.354  0.2463 -0.6106  0.1176
  694MOL0     H93671  11.030  10.848   8.549 -2.3225 -1.8317 -0.9350
  694MOL0     H93672  11.254  11.272   8.798 -0.6262 -1.1045 -0.9953
  694MOL0     H93673  11.367  11.317   9.005  0.0655  0.2162 -5.2161
  694MOL0     H93674   9.921  10.784   9.950  1.9846  1.7707 -0.2883
  694MOL0     H93675   9.716  10.767   9.845  0.9228  1.8865  1.0207
  694MOL0     H93676   9.475  10.650   9.543 -1.0373 -1.1826 -1.9704
  694MOL0     H93677   9.283  10.576   9.424  0.9848 -0.8038  2.0988
  694MOL0     H93678   9.051  10.565   9.395 -1.2812 -2.3058 -1.0608
  694MOL0     H93679   9.101  10.612   9.227  0.5632  0.9053  0.2142
  694MOL0     H93680   8.873  10.722   9.210  0.5626 -1.2272 -1.4278
  694MOL0     H93681   8.829  10.653   9.362  1.5524  1.1824  0.1093
  694MOL0     H93682   8.911  10.474   9.131  0.8312 -0.3729  0.9334
  694MOL0     H93683   8.742  10.520   9.170 -0.7322  0.3566  1.8830
  694MOL0     H93684   8.916  10.398   9.385 -1.3143  1.8797  1.4315
  694MOL0     H93685   8.747  10.415   9.384 -0.9210  1.1238 -0.3300
  694MOL0     H93686   8.774  10.061   9.161  0.8561  0.6001  0.3840
  694MOL0     H93687   9.176  11.002   9.394 -1.1834  0.5178  1.7341
  694MOL0     H93688   9.312  11.154   9.454 -3.4948 -1.1620  1.5860
  694MOL0     H93689   9.379  11.115   9.612 -1.2812  0.6155 -0.8411
  694MOL0     H93690   9.489  11.119   9.467 -1.2138 -0.5982 -2.2450
  695MOL0     O93691   0.460   2.994   2.030  0.1203  0.1558 -0.4035
  695MOL0     C93692   0.523   2.967   2.131 -0.7348 -0.4730  0.6130
  695MOL0     O93693   0.489   2.878   2.223  0.7996  0.7706  0.0497
  695MOL0     C93694   0.352   2.846   2.240  0.6236 -0.1002 -1.0523
  695MOL0     C93695   0.318   2.734   2.309 -0.0832 -0.4883  0.2148
  695MOL0     C93696   0.189   2.708   2.351 -0.1203  0.2730 -0.3129
  695MOL0     C93697   0.082   2.781   2.316  0.6288 -0.6817 -0.2476
  695MOL0     O93698  -0.044   2.755   2.361  0.1381 -0.4700 -0.2737
  695MOL0     C93699  -0.153   2.841   2.375 -0.0938 -0.1359  0.4462
  695MOL0     C93700  -0.284   2.766   2.373 -0.6635 -0.5425 -0.7909
  695MOL0     C93701  -0.401   2.859   2.414 -0.6749  0.6032 -0.5509
  695MOL0     C93702  -0.537   2.801   2.369  0.0493 -0.5311 -0.0071
  695MOL0     C93703  -0.578   2.678   2.448  0.1509 -0.2431 -0.7796
  695MOL0     C93704  -0.602   2.715   2.597 -1.2267 -0.1654 -0.0603
  695MOL0     C93705  -0.673   2.605   2.679 -1.0158 -0.0965  0.4376
  695MOL0     C93706  -0.748   2.649   2.804  0.9157  0.1308  0.4039
  695MOL0     N93707  -0.892   2.620   2.785  0.0168 -0.7894 -0.1511
  695MOL0     C93708  -0.983   2.682   2.690 -0.5515  0.7389 -0.4992
  695MOL0     C93709  -1.102   2.615   2.707  0.0325  0.4350  0.2976
  695MOL0     C93710  -1.234   2.661   2.658  0.4619 -0.3059  0.2540
  695MOL0     C93711  -1.324   2.682   2.780 -0.0885  0.4696  0.7466
  695MOL0     C93712  -1.449   2.772   2.754  0.0747 -0.3192 -0.0205
  695MOL0     C93713  -1.550   2.691   2.672 -0.2744 -0.2091  0.9579
  695MOL0     O93714  -1.600   2.583   2.746 -0.1034 -0.5349 -0.0161
  695MOL0     C93715  -1.682   2.610   2.859 -0.0546  0.3636  0.1792
  695MOL0     C93716  -1.707   2.494   2.938 -0.3865 -0.7431  0.2690
  695MOL0     C93717  -1.774   2.509   3.057 -0.7538 -0.3941 -0.1302
  695MOL0     C93718  -1.810   2.641   3.109  0.1328  0.3080 -0.7636
  695MOL0     C93719  -1.857   2.661   3.249  0.0007 -0.3992  0.3903
  695MOL0     O93720  -1.858   2.560   3.343  0.2403 -0.0231  0.2423
  695MOL0     C93721  -1.892   2.578   3.477 -0.3984  0.4915  0.3633
  695MOL0     C93722  -1.848   2.474   3.567 -0.4287  0.5976  0.6493
  695MOL0     C93723  -1.872   2.472   3.708 -0.0294 -0.7865 -0.3210
  695MOL0     C93724  -1.944   2.582   3.761  0.4053  0.4808  0.4390
  695MOL0     O93725  -1.960   2.600   3.897 -0.0259 -0.6499  0.4298
  695MOL0     C93726  -1.884   2.531   3.991 -0.3355 -0.3520  0.6950
  695MOL0     C93727  -1.732   2.579   3.999 -0.4899  0.7006 -0.2488
  695MOL0     C93728  -1.661   2.555   4.137  0.2828  0.1320 -0.3394
  695MOL0     C93729  -1.639   2.405   4.184 -0.5536  0.1165 -0.1639
  695MOL0     C93730  -1.525   2.403   4.278 -0.1128  0.6297  0.2559
  695MOL0     C93731  -1.529   2.482   4.413 -0.6327  0.1907  1.1770
  695MOL0     C93732  -1.396   2.466   4.497  0.1094 -0.5068 -0.2475
  695MOL0     C93733  -1.442   2.455   4.638 -0.0688  0.1484 -0.9347
  695MOL0    Cl93734  -1.482   2.271   4.687  0.5462 -0.3787 -0.2144
  695MOL0     C93735  -1.994   2.681   3.674  0.0102 -0.4137  0.7755
  695MOL0     C93736  -1.972   2.675   3.534 -0.1938  0.6259 -0.4295
  695MOL0     O93737  -1.902   2.770   3.275  0.3927  0.1988  0.2395
  695MOL0     C93738  -1.786   2.749   3.023 -0.4953 -0.4335 -0.0383
  695MOL0     C93739  -1.724   2.742   2.897  0.4194  0.2661 -0.7061
  695MOL0     N93740  -1.073   2.510   2.793 -0.1830 -0.3476 -0.5787
  695MOL0     N93741  -0.949   2.515   2.837 -1.3597 -0.3194  0.7783
  695MOL0     C93742   0.112   2.898   2.241  0.2430  0.3330 -0.2971
  695MOL0     C93743   0.242   2.930   2.201 -0.7796  0.0576  0.2185
  695MOL0     C93744   0.662   3.028   2.135  0.1413  0.7562 -0.8364
  695MOL0     C93745   0.766   2.953   2.192 -0.6384 -0.2436 -0.1018
  695MOL0     C93746   0.888   3.009   2.210 -0.1413  0.3322 -0.3290
  695MOL0     C93747   0.923   3.143   2.177 -0.9088 -0.9715 -0.1275
  695MOL0     O93748   1.053   3.191   2.179  0.7313  0.2701  0.0556
  695MOL0     C93749   1.085   3.268   2.290  0.2902  0.3653 -0.1196
  695MOL0     C93750   1.217   3.218   2.347 -0.3467  0.3065 -0.6856
  695MOL0     C93751   1.210   3.079   2.417  0.4125 -0.0189  0.9057
  695MOL0     C93752   1.312   2.976   2.356 -0.4532 -0.2759 -0.6139
  695MOL0     C93753   1.279   2.834   2.406 -0.0520  0.4826  0.7376
  695MOL0     C93754   1.258   2.715   2.436 -0.1262  0.4919 -0.6139
  695MOL0     C93755   0.825   3.216   2.110  0.5674 -0.6710  0.6118
  695MOL0     C93756   0.695   3.159   2.091  0.3320 -0.2766 -0.2269
  695MOL0     C93757   0.600   3.238   2.016 -0.7528  0.5524 -0.5276
  695MOL0     H93758   0.399   2.663   2.321 -2.4989 -3.9946 -2.1618
  695MOL0     H93759   0.171   2.615   2.405  3.5391  1.3428  3.2703
  695MOL0     H93760  -0.137   2.906   2.462 -1.9097  2.0213 -0.7163
  695MOL0     H93761  -0.161   2.907   2.288 -1.8336 -0.0230  0.6645
  695MOL0     H93762  -0.274   2.674   2.430  1.0283 -0.7046 -1.2877
  695MOL0     H93763  -0.306   2.745   2.268 -1.6768 -0.5566 -0.5830
  695MOL0     H93764  -0.387   2.953   2.361  3.4937 -1.0985 -2.9734
  695MOL0     H93765  -0.402   2.867   2.523  0.5010  0.3996 -0.5146
  695MOL0     H93766  -0.610   2.880   2.388  0.3097 -0.9535  3.2687
  695MOL0     H93767  -0.530   2.766   2.265  1.0065  0.1158 -0.1758
  695MOL0     H93768  -0.673   2.642   2.408 -0.9837  1.1701  0.4785
  695MOL0     H93769  -0.497   2.605   2.440  2.3274  1.9320  0.1186
  695MOL0     H93770  -0.504   2.738   2.639 -0.0250 -1.3308 -2.0621
  695MOL0     H93771  -0.662   2.806   2.593 -1.9761 -0.6009  0.7415
  695MOL0     H93772  -0.586   2.548   2.714  0.8816  0.8316 -2.3675
  695MOL0     H93773  -0.737   2.547   2.612 -2.8301  1.6043  0.6220
  695MOL0     H93774  -0.717   2.601   2.898 -1.9890 -2.4708  0.1971
  695MOL0     H93775  -0.737   2.757   2.819  0.1579  0.4101 -0.9023
  695MOL0     H93776  -0.968   2.769   2.627  0.7535  0.2711 -0.8751
  695MOL0     H93777  -1.236   2.756   2.604 -5.5411 -0.5137 -0.5845
  695MOL0     H93778  -1.289   2.589   2.596  2.1321 -0.9282 -0.5883
  695MOL0     H93779  -1.352   2.586   2.826  2.0433 -1.4289 -1.6396
  695MOL0     H93780  -1.274   2.733   2.863  0.2648 -1.0357  1.4948
  695MOL0     H93781  -1.425   2.863   2.697  0.6734 -0.9819 -0.8741
  695MOL0     H93782  -1.495   2.799   2.849  0.9829 -1.2964  0.7215
  695MOL0     H93783  -1.519   2.645   2.578 -4.3528 -1.6808  0.1127
  695MOL0     H93784  -1.638   2.753   2.652  1.0473  2.4429  2.7696
  695MOL0     H93785  -1.677   2.396   2.904  4.5349  0.7457 -0.5209
  695MOL0     H93786  -1.798   2.426   3.122  0.2216 -1.3136 -0.9225
  695MOL0     H93787  -1.785   2.394   3.528  1.0925  1.4274  1.3183
  695MOL0     H93788  -1.818   2.395   3.762 -1.8290 -0.1968  2.5399
  695MOL0     H93789  -1.918   2.556   4.092  1.0200  1.0350  0.8452
  695MOL0     H93790  -1.885   2.423   3.974 -0.4076 -0.1921 -0.3849
  695MOL0     H93791  -1.683   2.539   3.909 -0.3671 -0.7543  0.4334
  695MOL0     H93792  -1.739   2.687   3.985 -2.6803  0.3878 -2.2364
  695MOL0     H93793  -1.563   2.603   4.129  0.4335 -0.3409 -1.7012
  695MOL0     H93794  -1.720   2.601   4.216 -2.0599  0.6794 -2.2974
  695MOL0     H93795  -1.622   2.346   4.093 -1.5720  1.8125 -1.5002
  695MOL0     H93796  -1.730   2.368   4.231 -0.7705  3.4677  2.4383
  695MOL0     H93797  -1.437   2.444   4.227 -0.7880  2.9955  0.8436
  695MOL0     H93798  -1.513   2.296   4.296 -0.2309  0.5773  0.0251
  695MOL0     H93799  -1.535   2.586   4.377 -1.7905 -0.3361 -0.2484
  695MOL0     H93800  -1.612   2.453   4.477 -1.1770  1.5729  1.1318
  695MOL0     H93801  -1.334   2.553   4.475  2.1280 -1.3571  1.6954
  695MOL0     H93802  -1.337   2.378   4.472  0.4519 -0.6041  0.8246
  695MOL0     H93803  -1.363   2.491   4.703  0.1577 -2.7073  0.5104
  695MOL0     H93804  -1.525   2.525   4.652  0.7758  1.3742 -1.8234
  695MOL0     H93805  -2.040   2.766   3.722 -1.0707 -0.8943  0.6147
  695MOL0     H93806  -2.021   2.751   3.474  0.7943 -0.1330 -2.2975
  695MOL0     H93807  -1.805   2.848   3.063  2.2504  0.8015 -1.5336
  695MOL0     H93808  -1.694   2.830   2.841  3.9874  2.3985  3.8724
  695MOL0     H93809   0.026   2.959   2.215 -1.0078 -1.7198 -1.1440
  695MOL0     H93810   0.250   3.014   2.133  0.3365 -2.1692 -2.6162
  695MOL0     H93811   0.740   2.852   2.223  0.7619 -0.8470 -0.8137
  695MOL0     H93812   0.972   2.944   2.233 -2.5279 -4.0525 -2.6737
  695MOL0     H93813   1.004   3.274   2.364  0.4350 -1.4149  0.2242
  695MOL0     H93814   1.092   3.365   2.241  3.8724  0.6418  0.6723
  695MOL0     H93815   1.260   3.282   2.424 -4.3301  0.6151  1.6114
  695MOL0     H93816   1.294   3.224   2.270  1.1361  1.4942  0.8092
  695MOL0     H93817   1.109   3.040   2.405 -1.0110  3.8254 -1.7754
  695MOL0     H93818   1.230   3.093   2.523 -0.7182  0.0748  1.1152
  695MOL0     H93819   1.309   2.986   2.247 -1.1123 -0.6112 -0.6348
  695MOL0     H93820   1.418   2.991   2.375 -0.1583 -2.6694 -0.0193
  695MOL0     H93821   1.241   2.613   2.463  1.0893  0.2965 -0.5321
  695MOL0     H93822   0.850   3.311   2.064  1.4461  0.6443  3.5266
  695MOL0     H93823   0.639   3.320   1.955  2.1021  3.3263  4.3986
  695MOL0     H93824   0.553   3.185   1.933  0.4371 -0.8531 -0.3575
  695MOL0     H93825   0.523   3.274   2.084 -0.7126 -0.7132  0.2228
  696MOL0     O93826   5.933   0.166   5.946  0.9827  0.4319 -0.3709
  696MOL0     C93827   6.025   0.179   5.870  1.1611  0.2642 -0.8364
  696MOL0     O93828   6.017   0.249   5.757 -0.2973  0.6407  0.7591
  696MOL0     C93829   5.891   0.274   5.704  0.5368  0.4826  0.7727
  696MOL0     C93830   5.889   0.384   5.605 -0.3939 -0.3889 -1.2562
  696MOL0     C93831   5.781   0.413   5.524 -0.5699 -0.1675  0.1795
  696MOL0     C93832   5.663   0.341   5.537  0.2987  0.1115 -0.1933
  696MOL0     O93833   5.558   0.371   5.452  0.2066 -0.3161  0.0912
  696MOL0     C93834   5.511   0.265   5.372  0.0631 -0.1767  1.0141
  696MOL0     C93835   5.600   0.247   5.252  0.6154 -0.0303  0.7188
  696MOL0     C93836   5.560   0.123   5.180  1.0989 -0.1172  0.1351
  696MOL0     C93837   5.428   0.144   5.101  0.1780  0.8431 -0.5853
  696MOL0     C93838   5.441   0.134   4.950 -0.4684 -0.3146  0.3023
  696MOL0     C93839   5.480  -0.005   4.911  0.0007 -0.6520  0.9461
  696MOL0     C93840   5.527  -0.003   4.765  0.1325  0.8297  0.9043
  696MOL0     C93841   5.422   0.040   4.655 -0.6511  0.2205 -0.7697
  696MOL0     N93842   5.311  -0.053   4.639 -0.2271  0.9279  0.3343
  696MOL0     C93843   5.329  -0.185   4.614 -0.3675  0.8527 -0.4180
  696MOL0     C93844   5.203  -0.236   4.624  0.0867  0.1946  0.2326
  696MOL0     C93845   5.172  -0.390   4.614  0.0252 -0.6890  0.1270
  696MOL0     C93846   5.173  -0.424   4.467 -0.3525  0.0856 -0.7991
  696MOL0     C93847   5.108  -0.565   4.446 -0.2842 -0.0436 -0.3225
  696MOL0     C93848   5.108  -0.639   4.310  0.0638 -0.4125  0.2857
  696MOL0     O93849   5.008  -0.587   4.220 -0.2396  0.1451 -0.4049
  696MOL0     C93850   5.025  -0.580   4.088  0.7198  0.1463  0.4324
  696MOL0     C93851   5.010  -0.453   4.032 -0.3318  0.5888 -0.1097
  696MOL0     C93852   5.037  -0.443   3.894  0.7935  0.0642  0.0488
  696MOL0     C93853   5.061  -0.552   3.814  0.0978  0.1333  0.3736
  696MOL0     C93854   5.101  -0.539   3.675 -0.9419  0.7452 -0.4168
  696MOL0     O93855   5.035  -0.436   3.614 -0.2992 -0.1031 -0.0574
  696MOL0     C93856   5.050  -0.399   3.483  0.5077  0.0635 -0.4558
  696MOL0     C93857   5.106  -0.476   3.381 -0.1710  0.2708 -0.4598
  696MOL0     C93858   5.088  -0.444   3.252 -0.0607  0.2961 -0.3978
  696MOL0     C93859   5.021  -0.320   3.219  0.0020 -0.0293  0.2141
  696MOL0     O93860   4.982  -0.296   3.090 -1.2692  0.2474  0.1760
  696MOL0     C93861   5.043  -0.181   3.031 -0.3542  0.5522 -0.1331
  696MOL0     C93862   4.947  -0.074   2.973 -0.9636  0.4953  0.3649
  696MOL0     C93863   5.026   0.026   2.881 -0.5876 -0.6696  0.9106
  696MOL0     C93864   4.942   0.153   2.829  0.3826  0.8960 -0.1269
  696MOL0     C93865   5.031   0.266   2.781 -0.3916 -0.1943  0.0835
  696MOL0     C93866   4.955   0.373   2.707  0.5786  0.0326  0.0433
  696MOL0     C93867   4.944   0.357   2.555  0.4816 -0.2786 -0.7197
  696MOL0     C93868   4.894   0.490   2.497  0.3129 -0.7565  0.4282
  696MOL0    Cl93869   4.721   0.508   2.542 -0.2585  0.2155 -0.0226
  696MOL0     C93870   4.968  -0.237   3.327 -0.3447  0.2733  0.6703
  696MOL0     C93871   4.989  -0.278   3.460  0.4171 -0.0256 -0.0698
  696MOL0     O93872   5.198  -0.602   3.627 -0.4919 -0.1248  0.7252
  696MOL0     C93873   5.072  -0.680   3.869  1.5235  0.1525  0.2431
  696MOL0     C93874   5.051  -0.691   4.005 -0.2538 -0.8382 -0.1217
  696MOL0     N93875   5.111  -0.130   4.657 -0.2933  0.8735  0.4337
  696MOL0     N93876   5.178  -0.023   4.650  0.5137 -0.2812  0.0068
  696MOL0     C93877   5.655   0.244   5.634  0.2541 -0.5442 -0.0491
  696MOL0     C93878   5.772   0.202   5.705  1.6066 -0.0633 -0.0589
  696MOL0     C93879   6.159   0.113   5.896  0.9087  0.1044 -0.6925
  696MOL0     C93880   6.165  -0.007   5.972  0.7172  0.3744  1.0820
  696MOL0     C93881   6.283  -0.086   5.977 -0.6680 -0.3941 -0.0522
  696MOL0     C93882   6.406  -0.047   5.918  0.8397 -0.4497 -0.3994
  696MOL0     O93883   6.535  -0.112   5.916 -0.1493  0.2411  0.1905
  696MOL0     C93884   6.532  -0.240   5.979 -0.9562  0.0813 -0.5065
  696MOL0     C93885   6.485  -0.356   5.877  0.1333  0.0773  0.2440
  696MOL0     C93886   6.607  -0.426   5.801  0.4928  0.5084 -0.6358
  696MOL0     C93887   6.558  -0.529   5.694 -1.0855  0.1958 -0.4068
  696MOL0     C93888   6.470  -0.636   5.737  0.3326  0.1310 -0.2969
  696MOL0     C93889   6.396  -0.717   5.794 -1.1751 -0.9491  0.0957
  696MOL0     C93890   6.397   0.077   5.855  0.2779 -0.1439 -0.3682
  696MOL0     C93891   6.277   0.151   5.834  0.2265 -0.3266 -0.6393
  696MOL0     C93892   6.293   0.279   5.748  0.0645  0.3492 -0.1389
  696MOL0     H93893   5.972   0.447   5.574 -2.3226  1.9739 -1.9361
  696MOL0     H93894   5.787   0.499   5.458  5.0184  2.4288  3.3535
  696MOL0     H93895   5.504   0.181   5.441  6.2804  0.3946  2.8871
  696MOL0     H93896   5.409   0.278   5.332  0.5622 -1.3385 -0.7746
  696MOL0     H93897   5.707   0.237   5.270  1.4465  4.9682  0.0939
  696MOL0     H93898   5.598   0.346   5.204  2.6972  0.0550  0.7360
  696MOL0     H93899   5.555   0.032   5.241 -0.1735 -3.1418 -4.0187
  696MOL0     H93900   5.643   0.107   5.111  0.0571  0.1740 -1.2408
  696MOL0     H93901   5.354   0.066   5.122  0.9869  0.6180  1.7059
  696MOL0     H93902   5.379   0.237   5.131 -2.8613 -0.4336 -1.1201
  696MOL0     H93903   5.345   0.157   4.902  0.0764 -2.4602 -2.0205
  696MOL0     H93904   5.516   0.208   4.920  0.2351 -2.8632 -5.4563
  696MOL0     H93905   5.561  -0.039   4.976  0.1589  0.1859  1.1940
  696MOL0     H93906   5.391  -0.069   4.914 -1.1357  0.9009  1.5863
  696MOL0     H93907   5.563  -0.101   4.731 -1.4705  0.1548  1.0473
  696MOL0     H93908   5.619   0.056   4.763 -0.3041  1.4937 -0.9156
  696MOL0     H93909   5.376   0.134   4.685 -3.6786 -1.0681 -1.0114
  696MOL0     H93910   5.460   0.058   4.554  0.8289  2.3956  0.0973
  696MOL0     H93911   5.423  -0.235   4.591 -0.6353  0.9689 -1.9118
  696MOL0     H93912   5.242  -0.458   4.662 -2.7660 -4.3497 -0.5059
  696MOL0     H93913   5.075  -0.401   4.664 -1.0501  1.4203 -1.3410
  696MOL0     H93914   5.111  -0.350   4.415 -2.4493 -0.5336  0.6634
  696MOL0     H93915   5.280  -0.424   4.448 -0.3254 -2.4820 -0.9760
  696MOL0     H93916   5.000  -0.561   4.463 -0.5951  2.1533 -2.2725
  696MOL0     H93917   5.165  -0.634   4.508  2.1019  1.3988 -0.7663
  696MOL0     H93918   5.078  -0.743   4.319  1.1843 -0.9924 -1.8848
  696MOL0     H93919   5.214  -0.629   4.284  0.7869 -1.1008  2.7545
  696MOL0     H93920   4.996  -0.365   4.092 -2.7806  2.1729 -2.7642
  696MOL0     H93921   5.043  -0.341   3.858  1.0306  0.7586  1.9726
  696MOL0     H93922   5.153  -0.571   3.405  1.7568 -0.0080 -4.5122
  696MOL0     H93923   5.122  -0.517   3.179  2.0306  1.5538 -0.7809
  696MOL0     H93924   5.109  -0.133   3.103  1.6006  1.6479 -2.5477
  696MOL0     H93925   5.109  -0.212   2.950 -1.7454  1.5367 -1.7070
  696MOL0     H93926   4.868  -0.124   2.917 -0.0907 -1.3784  0.7098
  696MOL0     H93927   4.910  -0.013   3.056 -1.7899 -0.3209  0.6128
  696MOL0     H93928   5.117   0.064   2.927  0.2378  0.7225 -1.6869
  696MOL0     H93929   5.057  -0.016   2.786  4.9343  1.0702  1.6079
  696MOL0     H93930   4.881   0.187   2.913 -0.4679 -5.3592  2.3139
  696MOL0     H93931   4.872   0.126   2.750  0.2494 -0.9868  0.5659
  696MOL0     H93932   5.096   0.231   2.701 -1.5154  0.0603 -0.9718
  696MOL0     H93933   5.088   0.301   2.868  1.0100 -2.4788  0.1726
  696MOL0     H93934   4.859   0.385   2.758  0.0499  0.2149 -0.9732
  696MOL0     H93935   5.019   0.460   2.722  1.4884 -0.7613  0.9847
  696MOL0     H93936   4.879   0.271   2.536 -3.8399  2.7054 -0.9116
  696MOL0     H93937   5.047   0.339   2.523  1.5299 -0.1371  2.3399
  696MOL0     H93938   4.949   0.572   2.545 -1.7867  1.1204 -0.1907
  696MOL0     H93939   4.902   0.499   2.388  0.5658 -0.0980  0.4920
  696MOL0     H93940   4.930  -0.139   3.299 -1.4555  0.1772  1.7436
  696MOL0     H93941   4.942  -0.215   3.535  2.6396  4.4942 -2.1182
  696MOL0     H93942   5.096  -0.765   3.806  2.1769  0.5251 -0.0216
  696MOL0     H93943   5.053  -0.780   4.068 -1.2807 -0.0843  1.0326
  696MOL0     H93944   5.567   0.183   5.654  0.7225 -0.2636  3.3980
  696MOL0     H93945   5.761   0.107   5.756 -3.1704  1.6945  2.8745
  696MOL0     H93946   6.072  -0.029   6.023 -0.0033 -0.7099 -0.6013
  696MOL0     H93947   6.275  -0.183   6.025  3.3019 -0.4294  0.9044
  696MOL0     H93948   6.462  -0.237   6.063 -0.6556  0.0152 -0.2536
  696MOL0     H93949   6.631  -0.256   6.022 -0.3033  0.4944 -1.8025
  696MOL0     H93950   6.415  -0.311   5.806  0.5003 -1.6432 -1.2673
  696MOL0     H93951   6.425  -0.432   5.927 -0.9513 -0.0059 -1.1325
  696MOL0     H93952   6.660  -0.487   5.875 -1.1987  2.1369  2.0883
  696MOL0     H93953   6.673  -0.352   5.755  1.9074 -0.7240 -0.6565
  696MOL0     H93954   6.516  -0.467   5.614 -2.3140 -1.4239 -1.0893
  696MOL0     H93955   6.648  -0.569   5.647 -1.9893 -2.2626 -0.1961
  696MOL0     H93956   6.312  -0.777   5.822 -1.9140 -0.2183 -0.4935
  696MOL0     H93957   6.492   0.101   5.808  1.3126 -1.9578  0.6651
  696MOL0     H93958   6.219   0.272   5.669  0.2582  1.1802 -0.4009
  696MOL0     H93959   6.250   0.356   5.813  0.9304 -2.2549  3.9273
  696MOL0     H93960   6.386   0.315   5.703 -0.3914  0.3992 -1.0649
  697MOL0     O93961   0.563   0.986  10.265  0.2507  0.1330  0.5025
  697MOL0     C93962   0.546   1.109  10.258  0.1852 -0.7480 -0.3525
  697MOL0     O93963   0.535   1.180  10.142  0.3696  1.5719  0.1470
  697MOL0     C93964   0.499   1.131  10.017  0.2465  0.5289 -0.6572
  697MOL0     C93965   0.533   1.204   9.907 -0.2188  1.0577  1.1754
  697MOL0     C93966   0.480   1.175   9.774  0.1678 -0.0626 -0.7329
  697MOL0     C93967   0.400   1.062   9.751 -0.1312  0.0086 -0.8756
  697MOL0     O93968   0.316   1.051   9.641 -0.1305  0.2312 -0.6609
  697MOL0     C93969   0.299   1.172   9.562 -0.1402 -0.0944  0.5218
  697MOL0     C93970   0.189   1.159   9.456 -0.0732 -0.4265  0.2847
  697MOL0     C93971   0.176   1.279   9.370 -0.5404 -0.5578 -0.1542
  697MOL0     C93972   0.031   1.324   9.358 -0.8245 -0.4279 -0.6840
  697MOL0     C93973   0.015   1.428   9.251  0.4008 -0.3133  0.0770
  697MOL0     C93974  -0.126   1.481   9.255  0.2007 -0.5348 -0.5576
  697MOL0     C93975  -0.233   1.404   9.164  0.2427  0.8937 -0.6017
  697MOL0     C93976  -0.335   1.497   9.092  0.3193  0.5561 -0.0181
  697MOL0     N93977  -0.386   1.579   9.202  0.0199 -0.0168  0.1097
  697MOL0     C93978  -0.348   1.709   9.238  0.1522 -0.2543  1.0977
  697MOL0     C93979  -0.450   1.760   9.313 -0.6284 -0.0586  0.0455
  697MOL0     C93980  -0.459   1.892   9.376 -0.4925  0.0902  0.5502
  697MOL0     C93981  -0.558   1.986   9.310  0.2783 -0.0456 -0.7711
  697MOL0     C93982  -0.575   2.118   9.386 -0.1534  0.5206 -0.0867
  697MOL0     C93983  -0.639   2.236   9.313 -0.4123  0.6628 -0.9151
  697MOL0     O93984  -0.588   2.275   9.190 -0.4619  0.3821  0.0496
  697MOL0     C93985  -0.656   2.366   9.108  0.3736  0.8587 -1.2181
  697MOL0     C93986  -0.788   2.420   9.142 -0.0840  0.1701  0.7493
  697MOL0     C93987  -0.851   2.510   9.071  0.0129 -0.7664  0.0666
  697MOL0     C93988  -0.793   2.552   8.949 -0.6033  0.0120  1.5672
  697MOL0     C93989  -0.866   2.640   8.856 -0.4928 -0.2742 -1.5564
  697MOL0     O93990  -0.991   2.679   8.888 -0.4274  0.1653 -0.1860
  697MOL0     C93991  -1.080   2.761   8.822 -0.8741  0.1815  0.8376
  697MOL0     C93992  -1.188   2.796   8.901  0.7896 -0.3207 -0.2762
  697MOL0     C93993  -1.283   2.889   8.864  0.8107  0.0076  0.8620
  697MOL0     C93994  -1.269   2.954   8.738  0.1851  0.5998 -0.2753
  697MOL0     O93995  -1.353   3.045   8.694 -0.3022  0.5270 -0.1859
  697MOL0     C93996  -1.447   3.105   8.788 -0.9717  0.2121 -0.5460
  697MOL0     C93997  -1.506   3.208   8.701  1.0906  0.9806  0.5028
  697MOL0     C93998  -1.606   3.290   8.793 -0.7197  0.3613  0.7495
  697MOL0     C93999  -1.661   3.418   8.729  0.5280 -0.1095  0.2157
  697MOL0     C94000  -1.741   3.487   8.839  0.2183 -0.7896  0.1476
  697MOL0     C94001  -1.866   3.408   8.886  0.0850  0.6589 -0.3958
  697MOL0     C94002  -1.942   3.478   8.995  0.7743  0.6193  0.3015
  697MOL0     C94003  -2.061   3.563   8.954  0.5135  0.2465  0.4962
  697MOL0    Cl94004  -2.110   3.665   9.097 -0.0735 -0.1972 -0.3227
  697MOL0     C94005  -1.156   2.933   8.656  0.1713  1.0659 -0.5052
  697MOL0     C94006  -1.064   2.834   8.700  0.4545 -0.0910  0.4915
  697MOL0     O94007  -0.807   2.675   8.757  0.6825  1.1080  0.4755
  697MOL0     C94008  -0.670   2.492   8.905 -0.3640 -0.4671 -0.5103
  697MOL0     C94009  -0.602   2.399   8.981  0.1204 -0.2058  0.0108
  697MOL0     N94010  -0.540   1.657   9.331  0.7340 -1.1249 -0.3034
  697MOL0     N94011  -0.501   1.549   9.276  0.1764 -0.3860  0.3256
  697MOL0     C94012   0.367   0.984   9.864  0.1396  0.4353 -0.1551
  697MOL0     C94013   0.425   1.013   9.991  0.5947  0.1563 -0.3539
  697MOL0     C94014   0.543   1.190  10.386  1.0254  0.8937 -0.7727
  697MOL0     C94015   0.550   1.331  10.369 -0.8831  0.5227 -0.5872
  697MOL0     C94016   0.538   1.413  10.483 -0.0033  0.1076  0.5183
  697MOL0     C94017   0.517   1.363  10.607  0.0042 -0.0577 -0.8844
  697MOL0     O94018   0.496   1.449  10.712  0.9071 -0.2147 -0.4175
  697MOL0     C94019   0.584   1.417  10.817 -0.0835 -0.2156 -0.1492
  697MOL0     C94020   0.565   1.513  10.927 -0.0951 -0.1442  0.2376
  697MOL0     C94021   0.622   1.648  10.878  0.0319  0.3644 -0.3399
  697MOL0     C94022   0.646   1.737  11.000 -0.2947  0.3833 -0.6838
  697MOL0     C94023   0.731   1.853  10.966 -0.5365 -0.5412  0.2539
  697MOL0     C94024   0.806   1.934  10.929 -0.1661  0.5385 -0.6014
  697MOL0     C94025   0.492   1.227  10.620  0.5799  0.8558  0.1809
  697MOL0     C94026   0.503   1.137  10.513 -0.4617 -0.1187 -0.5263
  697MOL0     C94027   0.487   0.992  10.550  0.0885  1.0594  0.9290
  697MOL0     H94028   0.596   1.289   9.930 -0.8940  0.9371  3.8874
  697MOL0     H94029   0.517   1.250   9.704  0.7338  1.1280  0.7614
  697MOL0     H94030   0.275   1.261   9.621  2.2518  0.1254  1.2573
  697MOL0     H94031   0.393   1.200   9.513 -1.4821  4.5192  0.1267
  697MOL0     H94032   0.091   1.145   9.503 -0.3558 -0.4757 -0.3053
  697MOL0     H94033   0.205   1.073   9.390 -0.9009 -0.9506  0.7457
  697MOL0     H94034   0.234   1.249   9.282  1.1280  0.2229  0.6252
  697MOL0     H94035   0.237   1.360   9.410  0.5057 -1.3023 -0.1989
  697MOL0     H94036  -0.035   1.239   9.339 -3.2389  0.7072  1.8365
  697MOL0     H94037   0.003   1.371   9.453 -1.4387  2.1782 -2.0548
  697MOL0     H94038   0.095   1.501   9.261  4.3007 -4.4086  2.2611
  697MOL0     H94039   0.024   1.378   9.154 -1.6783  2.7759 -1.8906
  697MOL0     H94040  -0.156   1.481   9.360 -1.4354 -0.3575 -0.9820
  697MOL0     H94041  -0.122   1.586   9.227 -0.6515 -0.2146  0.4361
  697MOL0     H94042  -0.283   1.329   9.227  1.2274  0.9652  0.2787
  697MOL0     H94043  -0.185   1.347   9.084  0.6542  0.1251  0.1676
  697MOL0     H94044  -0.291   1.561   9.015 -0.0369  1.5383  0.5729
  697MOL0     H94045  -0.405   1.436   9.035  0.8521  2.4910 -3.0002
  697MOL0     H94046  -0.259   1.763   9.208 -0.8566  1.0035  0.2528
  697MOL0     H94047  -0.476   1.876   9.483 -0.5836  0.7485  0.6392
  697MOL0     H94048  -0.362   1.943   9.380 -2.1577  3.8148 -1.1268
  697MOL0     H94049  -0.513   2.003   9.211 -0.2941 -0.1982 -1.0589
  697MOL0     H94050  -0.649   1.928   9.292  1.1935 -1.9578  0.5225
  697MOL0     H94051  -0.479   2.151   9.425 -0.8774  0.5582  1.7512
  697MOL0     H94052  -0.636   2.083   9.469  1.1552  2.6635  1.9149
  697MOL0     H94053  -0.637   2.324   9.378  1.3824 -0.8045  1.1778
  697MOL0     H94054  -0.745   2.211   9.306 -1.0047  1.1237  3.5371
  697MOL0     H94055  -0.841   2.395   9.234  1.2213  0.4666  1.6079
  697MOL0     H94056  -0.951   2.545   9.097  0.8100 -1.1405  4.1836
  697MOL0     H94057  -1.206   2.754   9.000  0.7654  1.2828  0.4232
  697MOL0     H94058  -1.373   2.904   8.923  0.1098 -0.5613 -0.0340
  697MOL0     H94059  -1.522   3.040   8.834  0.3673 -0.3760  0.9002
  697MOL0     H94060  -1.392   3.155   8.868  0.0567  2.3108 -2.4625
  697MOL0     H94061  -1.432   3.283   8.672 -0.7852  2.1226 -1.6251
  697MOL0     H94062  -1.567   3.175   8.617  0.7680  0.5749  0.8880
  697MOL0     H94063  -1.688   3.220   8.807  1.1027 -2.1564 -0.3525
  697MOL0     H94064  -1.553   3.321   8.884  1.5761 -0.4202 -0.2426
  697MOL0     H94065  -1.730   3.397   8.647 -1.2499  0.2530  1.5645
  697MOL0     H94066  -1.585   3.489   8.694  1.1173 -0.1976  1.2694
  697MOL0     H94067  -1.767   3.588   8.807 -0.1293 -1.8116 -3.1344
  697MOL0     H94068  -1.669   3.503   8.920  0.5531  1.2428 -0.5140
  697MOL0     H94069  -1.935   3.372   8.809  0.0897 -1.8284  0.6812
  697MOL0     H94070  -1.823   3.316   8.926  0.2829  0.8905 -0.0706
  697MOL0     H94071  -1.869   3.540   9.048 -0.0593 -0.3976  2.8077
  697MOL0     H94072  -1.972   3.406   9.072  0.0652  0.9812  0.3806
  697MOL0     H94073  -2.040   3.620   8.863 -0.4003  1.6032  1.1185
  697MOL0     H94074  -2.148   3.501   8.929 -0.7582  2.2392 -0.2047
  697MOL0     H94075  -1.152   3.002   8.573 -2.3275  0.5252 -1.1625
  697MOL0     H94076  -0.980   2.823   8.632  1.8157 -1.0690  2.2380
  697MOL0     H94077  -0.624   2.513   8.809 -2.0760  1.8545 -0.8980
  697MOL0     H94078  -0.508   2.353   8.953  0.4105 -0.2102  0.9407
  697MOL0     H94079   0.301   0.897   9.862  1.0412 -0.4357  2.7639
  697MOL0     H94080   0.387   0.957  10.076 -0.8537  0.5171 -0.7320
  697MOL0     H94081   0.574   1.375  10.273 -0.5929 -0.9580 -1.2078
  697MOL0     H94082   0.539   1.521  10.468 -1.7861  0.3513  1.7831
  697MOL0     H94083   0.689   1.427  10.786  0.1348  0.2087  0.6878
  697MOL0     H94084   0.564   1.315  10.851  0.0129 -0.4829 -0.8776
  697MOL0     H94085   0.621   1.482  11.015 -1.0589  0.3688  1.0573
  697MOL0     H94086   0.457   1.515  10.949 -0.2012  2.7101 -0.0787
  697MOL0     H94087   0.552   1.690  10.805 -1.4345 -1.3821 -0.0120
  697MOL0     H94088   0.718   1.636  10.827 -1.0542  1.7419 -2.8426
  697MOL0     H94089   0.547   1.770  11.034 -0.3828 -0.9593  0.4099
  697MOL0     H94090   0.709   1.689  11.075  0.0244  2.6818  0.6118
  697MOL0     H94091   0.871   2.013  10.897  1.2486 -0.0221  0.7481
  697MOL0     H94092   0.440   1.193  10.710 -3.1580  1.8248 -1.3905
  697MOL0     H94093   0.380   0.974  10.534  0.2560  0.6869  0.1705
  697MOL0     H94094   0.545   0.925  10.486  0.6077  2.7470 -0.4444
  697MOL0     H94095   0.534   0.983  10.649  1.3919  0.7912  0.3046
  698MOL0     O94096  11.330   9.106   4.103 -0.9986 -0.2334  0.7667
  698MOL0     C94097  11.267   9.005   4.127  0.2325 -0.6882 -0.2283
  698MOL0     O94098  11.251   8.959   4.250 -0.2984 -0.0278 -0.6456
  698MOL0     C94099  11.292   9.029   4.363 -0.7728 -0.0309  1.1221
  698MOL0     C94100  11.305   9.177   4.378 -0.1213  0.0370 -0.3250
  698MOL0     C94101  11.334   9.228   4.497  0.6463 -0.1958 -0.5064
  698MOL0     C94102  11.344   9.145   4.613 -0.7754  0.3213  0.9318
  698MOL0     O94103  11.349   9.199   4.735 -0.4779 -0.2145 -0.2724
  698MOL0     C94104  11.233   9.188   4.817  0.0822 -0.4638 -0.4169
  698MOL0     C94105  11.253   9.286   4.942 -0.4345 -0.8225  0.2134
  698MOL0     C94106  11.140   9.263   5.043 -0.4141 -0.6047  0.3093
  698MOL0     C94107  11.191   9.300   5.182 -0.0927 -0.7336 -0.2657
  698MOL0     C94108  11.092   9.265   5.292  0.2344  0.4985 -0.1062
  698MOL0     C94109  11.162   9.294   5.431 -0.0103  0.3799 -0.1592
  698MOL0     C94110  11.195   9.447   5.459  0.0480  0.0365  0.1158
  698MOL0     C94111  11.264   9.458   5.594  0.7752  0.5118 -0.2073
  698MOL0     N94112  11.394   9.384   5.599 -0.2956 -0.0454 -0.8257
  698MOL0     C94113  11.509   9.423   5.534  0.6409  0.4406  0.4117
  698MOL0     C94114  11.596   9.321   5.550 -0.7694 -0.3351  0.0170
  698MOL0     C94115  11.726   9.319   5.486 -0.1778  0.3392  0.2153
  698MOL0     C94116  11.722   9.273   5.340  0.4003 -0.1907  0.3708
  698MOL0     C94117  11.641   9.362   5.239 -0.6173  0.7780 -0.0618
  698MOL0     C94118  11.633   9.283   5.110  0.6978  0.2793 -0.0299
  698MOL0     O94119  11.765   9.255   5.065 -0.0710 -0.3438  0.4330
  698MOL0     C94120  11.775   9.224   4.925 -0.6193  0.3522 -0.4251
  698MOL0     C94121  11.674   9.158   4.853 -0.5668 -0.0545 -0.3534
  698MOL0     C94122  11.691   9.133   4.713 -0.5118 -0.1618 -0.8535
  698MOL0     C94123  11.809   9.172   4.649 -0.8220 -0.1850  0.1732
  698MOL0     C94124  11.829   9.116   4.511  0.0724  0.0437 -0.5139
  698MOL0     O94125  11.733   9.042   4.454 -0.9071  0.3724 -0.2087
  698MOL0     C94126  11.732   9.044   4.311 -0.5996  0.8698  0.1303
  698MOL0     C94127  11.638   9.109   4.235 -1.1245 -0.0628  0.1946
  698MOL0     C94128  11.636   9.094   4.093  0.1210 -0.5931  0.1681
  698MOL0     C94129  11.724   9.009   4.023  0.5591 -0.5915 -0.2041
  698MOL0     O94130  11.731   9.008   3.887  0.3696  0.1229 -0.6762
  698MOL0     C94131  11.862   8.975   3.835  0.4237 -0.6070 -0.8118
  698MOL0     C94132  11.864   8.839   3.776  0.0729 -0.7103  0.2139
  698MOL0     C94133  11.746   8.836   3.666 -0.0824  0.1872 -0.5183
  698MOL0     C94134  11.750   8.704   3.582  0.1446  0.0472 -0.0582
  698MOL0     C94135  11.644   8.711   3.472 -0.4125  0.6591  0.6138
  698MOL0     C94136  11.504   8.702   3.534 -0.8047  0.5847  0.2880
  698MOL0     C94137  11.400   8.703   3.425 -0.7171 -0.0359  0.3048
  698MOL0     C94138  11.367   8.563   3.356  0.0602  0.4589 -0.0269
  698MOL0    Cl94139  11.277   8.458   3.452  0.1726  0.1844  0.1548
  698MOL0     C94140  11.801   8.929   4.108 -0.3358  0.8373  0.3583
  698MOL0     C94141  11.806   8.950   4.248 -1.1542 -0.0186 -0.0224
  698MOL0     O94142  11.936   9.144   4.462  0.2111  0.0678  0.5412
  698MOL0     C94143  11.910   9.239   4.719 -0.3644  0.0456 -0.2004
  698MOL0     C94144  11.894   9.260   4.853  0.1371  0.0103 -1.0846
  698MOL0     N94145  11.537   9.216   5.619 -0.0385  0.7552 -0.2158
  698MOL0     N94146  11.418   9.260   5.651  0.0281  0.7302  0.0593
  698MOL0     C94147  11.325   9.009   4.602 -0.5257  0.6981  0.8795
  698MOL0     C94148  11.317   8.953   4.478 -0.4252  0.3246  0.7764
  698MOL0     C94149  11.217   8.932   4.013 -0.0728 -0.0557 -0.5276
  698MOL0     C94150  11.127   8.828   4.046 -0.5906 -0.5756 -0.5328
  698MOL0     C94151  11.069   8.733   3.964 -0.7221 -1.2730 -1.0705
  698MOL0     C94152  11.111   8.733   3.831 -0.1630  0.2731 -0.7956
  698MOL0     O94153  11.065   8.639   3.738 -0.4448 -0.5387 -0.5116
  698MOL0     C94154  10.934   8.585   3.749 -0.1337 -0.2601  0.2510
  698MOL0     C94155  10.915   8.470   3.651 -0.3936 -0.0330  0.0608
  698MOL0     C94156  10.886   8.506   3.500  0.0227 -0.5228  0.4952
  698MOL0     C94157  10.731   8.486   3.462  0.2590  0.2979  0.3700
  698MOL0     C94158  10.738   8.486   3.318 -0.4040  0.0253  0.0824
  698MOL0     C94159  10.730   8.484   3.193  0.9753 -0.8133  0.7751
  698MOL0     C94160  11.206   8.828   3.793 -0.6352 -0.2759 -0.4249
  698MOL0     C94161  11.267   8.923   3.876  0.1986  0.0282 -0.7762
  698MOL0     C94162  11.364   9.024   3.825 -0.3428  0.4519  1.1036
  698MOL0     H94163  11.291   9.256   4.304 -1.4043 -0.0086 -0.1560
  698MOL0     H94164  11.366   9.332   4.500  3.0197 -0.6644 -3.9842
  698MOL0     H94165  11.148   9.218   4.755  0.2933 -1.0246 -0.9891
  698MOL0     H94166  11.222   9.087   4.858 -2.8936 -0.1230 -0.1016
  698MOL0     H94167  11.261   9.389   4.906  2.5471 -1.5227 -1.3950
  698MOL0     H94168  11.350   9.256   4.981  0.8303  3.6092  1.0601
  698MOL0     H94169  11.124   9.155   5.040 -0.4714 -0.5742 -0.4808
  698MOL0     H94170  11.050   9.321   5.019 -1.2239 -2.8431 -2.7754
  698MOL0     H94171  11.287   9.253   5.205 -0.4563 -0.7292  1.3979
  698MOL0     H94172  11.199   9.409   5.191 -0.8081 -0.6719 -0.3347
  698MOL0     H94173  11.006   9.332   5.288  2.1326  3.1019 -0.0533
  698MOL0     H94174  11.062   9.160   5.279  0.9189  0.5638 -2.9946
  698MOL0     H94175  11.095   9.257   5.509  1.8746 -2.1547  0.3913
  698MOL0     H94176  11.259   9.245   5.441  1.4032  3.3392  1.9459
  698MOL0     H94177  11.101   9.503   5.460 -1.2340 -1.9492 -1.5919
  698MOL0     H94178  11.242   9.491   5.370  0.6793  1.3144  1.0491
  698MOL0     H94179  11.274   9.564   5.617  0.3037  0.8274 -1.3609
  698MOL0     H94180  11.196   9.421   5.671  1.5024 -1.2914 -0.3601
  698MOL0     H94181  11.525   9.514   5.478 -0.9354  0.7618  0.4539
  698MOL0     H94182  11.768   9.420   5.487  0.9051  0.0226 -2.5597
  698MOL0     H94183  11.795   9.253   5.540  1.5287  2.7692  1.1761
  698MOL0     H94184  11.825   9.289   5.306  0.0364 -1.1827 -1.3251
  698MOL0     H94185  11.696   9.167   5.331 -4.4091  0.8530 -0.6378
  698MOL0     H94186  11.691   9.455   5.212 -0.8272  0.4443 -1.7140
  698MOL0     H94187  11.536   9.376   5.268 -0.1225  2.0242  1.2541
  698MOL0     H94188  11.584   9.340   5.030  2.6609 -0.3754 -1.7950
  698MOL0     H94189  11.589   9.184   5.127  2.8055 -0.8125 -0.5826
  698MOL0     H94190  11.582   9.119   4.896 -1.0955  3.0931  1.6794
  698MOL0     H94191  11.610   9.096   4.650 -0.9240  0.7510 -0.8753
  698MOL0     H94192  11.570   9.183   4.276 -1.7741 -0.9453  0.7308
  698MOL0     H94193  11.579   9.167   4.036  1.5431  1.5803  1.3915
  698MOL0     H94194  11.888   9.047   3.755 -0.6189 -1.9697 -2.4426
  698MOL0     H94195  11.940   8.979   3.912 -1.9170 -0.1736  1.6607
  698MOL0     H94196  11.955   8.830   3.716 -0.9253  3.5137 -2.3871
  698MOL0     H94197  11.837   8.760   3.847 -0.9563 -0.3496  0.2532
  698MOL0     H94198  11.655   8.830   3.727  0.9622 -1.2663  0.9760
  698MOL0     H94199  11.753   8.929   3.608 -0.3228 -0.0644 -0.9503
  698MOL0     H94200  11.729   8.616   3.643 -0.7917  0.6610  0.5222
  698MOL0     H94201  11.849   8.700   3.535  1.3140  0.4465  2.2520
  698MOL0     H94202  11.676   8.629   3.406  2.5133  1.5773  0.7362
  698MOL0     H94203  11.662   8.806   3.420 -0.0874  0.6469  0.6986
  698MOL0     H94204  11.495   8.600   3.574 -0.5959  0.1868 -0.6511
  698MOL0     H94205  11.483   8.777   3.610 -0.1588 -1.7748  2.9759
  698MOL0     H94206  11.447   8.767   3.350 -1.1267 -0.3314 -0.2147
  698MOL0     H94207  11.303   8.749   3.448 -2.5693 -2.0970 -2.6801
  698MOL0     H94208  11.310   8.584   3.266 -1.5765 -2.5564  0.1908
  698MOL0     H94209  11.454   8.506   3.324  0.8542  2.7830 -2.2524
  698MOL0     H94210  11.862   8.845   4.076 -1.6322 -1.0392  2.5170
  698MOL0     H94211  11.872   8.892   4.311 -1.8054  0.3215  0.9898
  698MOL0     H94212  12.004   9.265   4.672 -0.0851 -0.6819 -0.0700
  698MOL0     H94213  11.979   9.294   4.911 -0.7544  0.9257 -0.2870
  698MOL0     H94214  11.329   8.940   4.685  0.6460  0.2806  0.4973
  698MOL0     H94215  11.306   8.847   4.462  0.9988  0.3951 -0.9319
  698MOL0     H94216  11.103   8.828   4.152 -0.5946  1.6095 -0.4828
  698MOL0     H94217  11.007   8.659   4.013 -1.2157  0.1266  0.4884
  698MOL0     H94218  10.849   8.654   3.757  0.5514  0.4533  2.0576
  698MOL0     H94219  10.932   8.546   3.851  4.2723  1.2910  1.1485
  698MOL0     H94220  10.834   8.405   3.685  0.1965 -0.0136  1.5453
  698MOL0     H94221  11.005   8.408   3.643 -1.0846 -1.2877  1.4741
  698MOL0     H94222  10.959   8.444   3.446  2.2634  0.6634  1.9967
  698MOL0     H94223  10.925   8.608   3.490  1.1698 -0.7313  2.3968
  698MOL0     H94224  10.702   8.386   3.496  3.0670 -0.7182 -0.0063
  698MOL0     H94225  10.663   8.567   3.491  3.1877  3.5726 -1.1402
  698MOL0     H94226  10.734   8.489   3.086 -1.1695  0.9572  0.6956
  698MOL0     H94227  11.241   8.828   3.690  1.6664  3.9264  0.1350
  698MOL0     H94228  11.454   9.025   3.887  2.3244  0.7276 -2.5002
  698MOL0     H94229  11.401   8.996   3.726  2.1546 -0.3024  2.1874
  698MOL0     H94230  11.318   9.123   3.820 -1.7941 -0.1535  1.7284
  699MOL0     O94231   6.599   2.262   2.489 -0.5858 -0.3396  0.6428
  699MOL0     C94232   6.600   2.183   2.388  0.2958 -0.6004 -0.7486
  699MOL0     O94233   6.582   2.226   2.257 -0.3330 -0.1901  0.0852
  699MOL0     C94234   6.609   2.358   2.224  0.7399  0.1332  0.9554
  699MOL0     C94235   6.735   2.412   2.236 -0.2287  0.6314 -0.1533
  699MOL0     C94236   6.769   2.544   2.189  0.2169  0.8558 -0.1924
  699MOL0     C94237   6.675   2.610   2.104  0.3971 -0.0968  0.3493
  699MOL0     O94238   6.684   2.733   2.038  0.2783 -0.0901  0.1740
  699MOL0     C94239   6.813   2.791   2.045 -0.6926  0.7025  0.8656
  699MOL0     C94240   6.810   2.926   1.965 -0.2834 -0.0989 -0.4182
  699MOL0     C94241   6.729   3.045   2.036 -0.5868  0.5986 -0.5749
  699MOL0     C94242   6.770   3.078   2.182 -0.0959  0.4566  0.7593
  699MOL0     C94243   6.726   3.218   2.234 -0.0881 -1.7401 -0.0883
  699MOL0     C94244   6.825   3.324   2.181  0.0842 -0.2535  0.1046
  699MOL0     C94245   6.761   3.454   2.220 -0.1369 -0.4436 -0.4991
  699MOL0     C94246   6.812   3.566   2.138 -0.2501  0.4296  0.6008
  699MOL0     N94247   6.743   3.691   2.180 -0.1154  0.4267  0.2757
  699MOL0     C94248   6.638   3.748   2.108 -0.7550  1.2148 -1.5000
  699MOL0     C94249   6.592   3.845   2.197 -0.6057  0.1685  0.3591
  699MOL0     C94250   6.483   3.942   2.158 -0.6995 -0.2982  0.0614
  699MOL0     C94251   6.505   4.090   2.199 -0.6283  0.6260 -0.0607
  699MOL0     C94252   6.361   4.153   2.210 -0.7666  0.5194  0.2346
  699MOL0     C94253   6.380   4.295   2.251  0.5108 -0.0540  0.2406
  699MOL0     O94254   6.454   4.351   2.136  0.3474 -0.8634  0.1357
  699MOL0     C94255   6.528   4.458   2.163 -0.3246 -0.1981 -0.3531
  699MOL0     C94256   6.514   4.532   2.275  0.2300 -1.5459 -0.1571
  699MOL0     C94257   6.604   4.638   2.302  0.3670 -0.8868  0.0396
  699MOL0     C94258   6.704   4.678   2.214 -0.2768 -0.8917  1.0341
  699MOL0     C94259   6.793   4.793   2.237 -0.6097 -0.3468 -0.3647
  699MOL0     O94260   6.920   4.778   2.188  0.9071 -0.4280 -0.1345
  699MOL0     C94261   7.021   4.870   2.189  0.0119  0.3303 -0.0589
  699MOL0     C94262   6.997   5.010   2.181 -0.6408  0.3035 -0.6634
  699MOL0     C94263   7.105   5.107   2.173  0.4192 -0.4587  0.4709
  699MOL0     C94264   7.236   5.071   2.156 -0.7351  0.1309 -0.5226
  699MOL0     O94265   7.344   5.156   2.127 -0.2371 -1.0218 -0.6516
  699MOL0     C94266   7.336   5.296   2.165  0.1270 -0.0765 -1.0500
  699MOL0     C94267   7.343   5.317   2.309 -0.5374  0.4298 -0.4770
  699MOL0     C94268   7.480   5.284   2.378 -0.2343 -0.6371 -0.7150
  699MOL0     C94269   7.488   5.348   2.520  1.0493 -0.1892 -0.1559
  699MOL0     C94270   7.619   5.314   2.588 -0.0929 -0.3685 -0.6395
  699MOL0     C94271   7.630   5.173   2.633 -0.1214 -0.0351 -0.3448
  699MOL0     C94272   7.765   5.139   2.703 -0.6620 -0.3256 -0.7846
  699MOL0     C94273   7.767   5.179   2.854  0.2883 -0.1376 -0.0588
  699MOL0    Cl94274   7.941   5.141   2.907 -0.3820  0.0397  0.5443
  699MOL0     C94275   7.263   4.929   2.168 -0.0576  0.7382  0.3300
  699MOL0     C94276   7.160   4.831   2.190  0.4304  0.5138  0.3945
  699MOL0     O94277   6.747   4.888   2.305 -0.0027  1.0105  0.3662
  699MOL0     C94278   6.704   4.608   2.087  0.4706 -0.8770 -0.0196
  699MOL0     C94279   6.616   4.504   2.063 -0.6923 -0.0308 -0.6583
  699MOL0     N94280   6.673   3.845   2.312 -0.3143 -0.1874 -0.1042
  699MOL0     N94281   6.767   3.753   2.300  0.5613  0.1060  0.1911
  699MOL0     C94282   6.547   2.554   2.086  0.1437  0.9543  0.0479
  699MOL0     C94283   6.513   2.430   2.149 -1.2879  0.2668  0.1433
  699MOL0     C94284   6.616   2.034   2.404  0.7431  0.6223 -0.2788
  699MOL0     C94285   6.564   1.951   2.300  0.1301 -0.6094 -0.2841
  699MOL0     C94286   6.543   1.814   2.324 -0.0242  0.5438 -0.9923
  699MOL0     C94287   6.609   1.750   2.430  0.3345  0.5874  0.2125
  699MOL0     O94288   6.608   1.612   2.455 -0.0705  0.3374  0.8000
  699MOL0     C94289   6.556   1.524   2.353 -0.1669  0.1076 -1.7879
  699MOL0     C94290   6.559   1.384   2.418  1.2045 -0.6814  0.2293
  699MOL0     C94291   6.702   1.320   2.440  0.1125  0.4753  0.5212
  699MOL0     C94292   6.760   1.265   2.314  0.1550  0.0488 -0.3550
  699MOL0     C94293   6.888   1.200   2.357  0.3764 -1.4164  0.6819
  699MOL0     C94294   6.990   1.148   2.388 -0.1153 -0.0327 -0.0678
  699MOL0     C94295   6.667   1.832   2.531 -0.0064 -0.8327 -0.8815
  699MOL0     C94296   6.676   1.972   2.511 -0.2622 -0.1145 -0.0535
  699MOL0     C94297   6.727   2.044   2.630 -0.0429 -0.2481  0.0607
  699MOL0     H94298   6.814   2.366   2.294  1.7267  0.2588 -2.9343
  699MOL0     H94299   6.862   2.594   2.213  1.6007 -0.9315 -1.5805
  699MOL0     H94300   6.852   2.817   2.144  1.2908  0.6670  0.1443
  699MOL0     H94301   6.881   2.725   1.990 -0.9207  2.0162 -1.0678
  699MOL0     H94302   6.764   2.919   1.866 -0.7737  0.3751 -0.2307
  699MOL0     H94303   6.914   2.960   1.963  0.5044 -1.6926  3.7770
  699MOL0     H94304   6.619   3.038   2.035 -0.5162 -0.9054 -0.6771
  699MOL0     H94305   6.747   3.140   1.985 -3.0144  1.4383 -0.0042
  699MOL0     H94306   6.725   3.000   2.244  1.3485 -0.2588  0.9437
  699MOL0     H94307   6.878   3.063   2.195  0.6500  2.4919 -2.0961
  699MOL0     H94308   6.625   3.238   2.197  0.7098  2.7647 -0.4135
  699MOL0     H94309   6.725   3.215   2.343 -1.2520 -0.3566 -0.0317
  699MOL0     H94310   6.920   3.313   2.235 -1.3922 -0.2972  2.8944
  699MOL0     H94311   6.836   3.321   2.072 -0.5605 -3.7057  0.0223
  699MOL0     H94312   6.771   3.476   2.327 -0.7934 -0.0392 -0.5129
  699MOL0     H94313   6.654   3.446   2.199 -0.6934  0.1695  1.8211
  699MOL0     H94314   6.921   3.568   2.141 -0.0104 -0.9276 -2.6374
  699MOL0     H94315   6.794   3.549   2.031  2.1750  0.7530  0.0704
  699MOL0     H94316   6.607   3.711   2.010 -0.2748  0.6406 -1.4408
  699MOL0     H94317   6.464   3.951   2.051 -0.9145  1.0971  0.2043
  699MOL0     H94318   6.385   3.921   2.202 -0.9441  1.4253  0.3958
  699MOL0     H94319   6.541   4.102   2.302 -0.6534  1.9513 -0.1823
  699MOL0     H94320   6.572   4.137   2.127  1.5290 -0.2774  1.2560
  699MOL0     H94321   6.300   4.104   2.286 -0.6595 -0.8249 -0.5247
  699MOL0     H94322   6.312   4.154   2.112 -2.5499  3.4909  1.0142
  699MOL0     H94323   6.454   4.291   2.331  3.4231  0.4175 -2.2179
  699MOL0     H94324   6.287   4.347   2.273  0.0840 -1.1959  1.2200
  699MOL0     H94325   6.443   4.503   2.352 -1.4906 -1.3583 -1.6131
  699MOL0     H94326   6.584   4.699   2.390  0.4025 -0.8699  0.0359
  699MOL0     H94327   6.892   5.029   2.202 -0.8211 -0.4653 -0.8449
  699MOL0     H94328   7.085   5.214   2.174  1.0717 -0.3049 -0.6963
  699MOL0     H94329   7.413   5.364   2.126 -0.7846  2.8747  1.8174
  699MOL0     H94330   7.247   5.333   2.114 -0.3789 -3.1556 -2.6471
  699MOL0     H94331   7.333   5.423   2.333  1.7604  0.5102  0.3569
  699MOL0     H94332   7.255   5.275   2.358 -0.8397  0.8087 -0.6890
  699MOL0     H94333   7.495   5.176   2.375  1.5127 -0.4698  0.5521
  699MOL0     H94334   7.560   5.337   2.325 -0.3536  0.4517  0.1541
  699MOL0     H94335   7.399   5.330   2.580 -1.1090  1.2465 -2.7318
  699MOL0     H94336   7.481   5.457   2.510 -1.5891 -0.1316  1.3543
  699MOL0     H94337   7.631   5.380   2.674  0.1451 -2.4287  1.0042
  699MOL0     H94338   7.704   5.304   2.519  0.0626 -5.2716 -0.1383
  699MOL0     H94339   7.554   5.145   2.707  0.9914 -0.9779  0.4768
  699MOL0     H94340   7.615   5.105   2.548  1.7743 -0.0902 -0.6709
  699MOL0     H94341   7.841   5.209   2.666 -1.4716  0.5350 -0.8606
  699MOL0     H94342   7.794   5.034   2.695  0.3640  0.0702 -3.0108
  699MOL0     H94343   7.746   5.285   2.867 -0.4258  0.6708 -5.4752
  699MOL0     H94344   7.695   5.115   2.905  0.7831 -0.3130  0.4369
  699MOL0     H94345   7.359   4.883   2.145 -1.2211 -0.8385 -1.7956
  699MOL0     H94346   7.182   4.728   2.162 -0.6770  1.1129 -3.1218
  699MOL0     H94347   6.770   4.649   2.011 -1.0468 -1.0822 -1.5067
  699MOL0     H94348   6.635   4.443   1.975  4.9865 -1.9683  1.5013
  699MOL0     H94349   6.472   2.610   2.032  1.0448  1.0278 -1.1600
  699MOL0     H94350   6.412   2.388   2.148 -1.4293  0.5561 -2.0604
  699MOL0     H94351   6.523   1.996   2.210  1.4075  1.8072  0.2515
  699MOL0     H94352   6.485   1.763   2.248 -0.4023 -0.1285 -0.2615
  699MOL0     H94353   6.619   1.515   2.264  0.2329 -0.9525 -1.4162
  699MOL0     H94354   6.453   1.551   2.331 -1.0134 -1.1682  0.3873
  699MOL0     H94355   6.513   1.314   2.348 -2.6542  1.4717  0.3215
  699MOL0     H94356   6.499   1.375   2.510  1.1824 -2.2551  0.0880
  699MOL0     H94357   6.704   1.231   2.503  1.5336 -0.3081 -0.5711
  699MOL0     H94358   6.773   1.395   2.476  3.1426 -0.7692 -2.3627
  699MOL0     H94359   6.693   1.189   2.274  0.8694 -1.2989  0.8730
  699MOL0     H94360   6.769   1.343   2.239  1.7671 -0.4613 -0.7463
  699MOL0     H94361   7.079   1.097   2.417  2.2563  3.4560 -0.5328
  699MOL0     H94362   6.707   1.789   2.622  2.3444 -0.0350 -1.4741
  699MOL0     H94363   6.786   1.977   2.693  1.1177 -1.1759 -1.8914
  699MOL0     H94364   6.793   2.126   2.600 -0.1243 -0.6524 -1.3239
  699MOL0     H94365   6.634   2.075   2.679  0.7008  1.7575  0.2875
  700MOL0     O94366   1.511  10.627   0.437 -0.2443  0.0167 -0.5813
  700MOL0     C94367   1.502  10.750   0.414  0.5514  0.8433 -0.0052
  700MOL0     O94368   1.599  10.838   0.445  0.0941 -0.3328  0.7871
  700MOL0     C94369   1.724  10.798   0.430  0.0792  0.1586 -0.1504
  700MOL0     C94370   1.767  10.724   0.318 -0.0384  0.2452  0.4695
  700MOL0     C94371   1.898  10.711   0.282 -0.7891  0.0022  0.6382
  700MOL0     C94372   1.997  10.744   0.378 -0.6948 -0.6886  1.2668
  700MOL0     O94373   2.130  10.719   0.355 -0.1879  0.0107 -0.1097
  700MOL0     C94374   2.170  10.618   0.262  0.7141  0.3852  0.2901
  700MOL0     C94375   2.216  10.687   0.130  0.7681 -0.4146  0.1068
  700MOL0     C94376   2.349  10.758   0.145  0.3223  0.6906  0.3713
  700MOL0     C94377   2.390  10.802   0.011 -0.1362 -0.7870 -0.3186
  700MOL0     C94378   2.533  10.852   0.009 -1.3034  0.4683 -1.0350
  700MOL0     C94379   2.567  10.914  -0.118 -0.8206  0.5214  0.2274
  700MOL0     C94380   2.713  10.964  -0.118  0.1983 -0.4429 -0.4485
  700MOL0     C94381   2.810  10.843  -0.150 -0.1185 -0.0481  0.2045
  700MOL0     N94382   2.873  10.804  -0.026  0.7603 -0.2189 -1.0213
  700MOL0     C94383   3.002  10.837   0.019  0.3273 -0.3731 -0.0854
  700MOL0     C94384   3.028  10.769   0.142 -0.1314 -0.7568 -0.4742
  700MOL0     C94385   3.138  10.796   0.240  0.2481 -0.4026  0.8707
  700MOL0     C94386   3.163  10.674   0.333  0.2781 -0.0162  0.1589
  700MOL0     C94387   3.086  10.671   0.468 -0.2964  0.0777 -0.3281
  700MOL0     C94388   2.932  10.658   0.464  0.2753  0.1628  0.1151
  700MOL0     O94389   2.881  10.647   0.595 -0.1447  0.0273  0.4949
  700MOL0     C94390   2.754  10.595   0.621  0.0039 -0.0278  0.2039
  700MOL0     C94391   2.714  10.601   0.754 -0.7316  0.5478  0.4064
  700MOL0     C94392   2.582  10.562   0.792 -0.1263  0.0494  0.3891
  700MOL0     C94393   2.497  10.509   0.698 -0.0276 -0.3453 -0.2855
  700MOL0     C94394   2.365  10.462   0.735  0.8151  0.4091  0.3217
  700MOL0     O94395   2.309  10.380   0.650  0.2154  0.1987  0.2425
  700MOL0     C94396   2.180  10.357   0.664  0.8325  0.2216 -0.0314
  700MOL0     C94397   2.140  10.236   0.722 -0.0850 -0.3632 -0.5521
  700MOL0     C94398   2.004  10.207   0.728  0.1801  0.0693 -0.0426
  700MOL0     C94399   1.903  10.291   0.682 -0.4514  1.1351  0.1636
  700MOL0     O94400   1.774  10.242   0.687 -1.1147 -0.2065 -0.2124
  700MOL0     C94401   1.684  10.316   0.597  0.5763  0.7941  0.1764
  700MOL0     C94402   1.565  10.221   0.569  0.0105  0.1569 -0.3553
  700MOL0     C94403   1.466  10.203   0.690 -0.2694  0.3337  0.3979
  700MOL0     C94404   1.376  10.092   0.680 -0.3516  1.0533 -0.1600
  700MOL0     C94405   1.308  10.059   0.813  0.0594 -0.6774 -0.3040
  700MOL0     C94406   1.249   9.916   0.817 -0.3239 -0.4407  0.3232
  700MOL0     C94407   1.217   9.880   0.965  0.6065  0.4449  0.4277
  700MOL0     C94408   1.072   9.890   1.017 -0.0533 -0.3080  0.3591
  700MOL0    Cl94409   1.058   9.864   1.201 -0.2480 -0.0147  0.1626
  700MOL0     C94410   1.952  10.409   0.640 -0.7479  0.8524  0.4177
  700MOL0     C94411   2.083  10.444   0.617 -0.6787  0.3697 -0.5420
  700MOL0     O94412   2.317  10.502   0.840 -0.9744 -0.1784  0.0665
  700MOL0     C94413   2.540  10.508   0.560 -0.5836 -0.1545 -1.0051
  700MOL0     C94414   2.664  10.558   0.519  0.7167 -0.5987 -0.5456
  700MOL0     N94415   2.903  10.715   0.171  0.1392  0.4343 -0.4911
  700MOL0     N94416   2.820  10.723   0.070  0.1218 -0.7815  0.5651
  700MOL0     C94417   1.961  10.823   0.490 -0.7596  0.6897  0.7722
  700MOL0     C94418   1.824  10.857   0.510  0.5892  0.1972  1.2315
  700MOL0     C94419   1.364  10.796   0.399 -0.0239 -0.6510  0.2602
  700MOL0     C94420   1.307  10.896   0.481  0.2381  0.5485 -1.6407
  700MOL0     C94421   1.168  10.913   0.497 -0.7962 -1.1845  0.3349
  700MOL0     C94422   1.086  10.842   0.410  0.5030 -0.4572  0.1260
  700MOL0     O94423   0.946  10.843   0.396  0.5951  0.1250 -0.0434
  700MOL0     C94424   0.887  10.973   0.433  0.7003  0.6991  0.2618
  700MOL0     C94425   0.760  10.978   0.365 -0.3637 -0.3643  0.1178
  700MOL0     C94426   0.693  11.101   0.419 -0.3429  1.0282  0.6464
  700MOL0     C94427   0.557  11.130   0.353 -0.1360 -0.2517  0.0012
  700MOL0     C94428   0.470  11.015   0.355  0.8600 -0.2926 -0.2410
  700MOL0     C94429   0.415  10.910   0.362 -0.4518  0.3984  0.4816
  700MOL0     C94430   1.135  10.756   0.308  0.7671 -0.8352 -0.8443
  700MOL0     C94431   1.274  10.735   0.305 -0.1998 -0.8792  0.1497
  700MOL0     C94432   1.320  10.629   0.201  0.7296 -0.6579  0.0586
  700MOL0     H94433   1.693  10.676   0.256 -0.9801  3.5560 -1.1966
  700MOL0     H94434   1.916  10.655   0.191  1.4799  0.9082  0.4505
  700MOL0     H94435   2.252  10.558   0.302 -1.5621 -2.6015  0.9017
  700MOL0     H94436   2.088  10.546   0.257 -0.4860  1.6407  1.1282
  700MOL0     H94437   2.142  10.760   0.097  2.5876  0.9097 -1.2538
  700MOL0     H94438   2.218  10.609   0.053 -2.2986 -1.1850  0.6810
  700MOL0     H94439   2.418  10.684   0.187 -0.4846  0.5209  1.4166
  700MOL0     H94440   2.335  10.838   0.218 -0.2003  0.1484  0.8680
  700MOL0     H94441   2.392  10.714  -0.054  0.9409 -0.1690 -1.1606
  700MOL0     H94442   2.325  10.881  -0.029  1.5215  1.2245  0.7525
  700MOL0     H94443   2.567  10.913   0.093  0.2115 -2.8067  0.9144
  700MOL0     H94444   2.591  10.760   0.018 -2.2407 -0.3554 -2.8981
  700MOL0     H94445   2.553  10.849  -0.206  0.5895 -1.0430  1.0979
  700MOL0     H94446   2.497  10.996  -0.136 -1.1191  0.1177 -0.5209
  700MOL0     H94447   2.727  11.006  -0.017  0.5603 -0.9492 -0.2875
  700MOL0     H94448   2.719  11.050  -0.186 -0.0513 -0.8614 -1.0075
  700MOL0     H94449   2.763  10.755  -0.195  0.4151 -1.4788  2.3134
  700MOL0     H94450   2.889  10.883  -0.213 -0.4369  1.0335  0.4732
  700MOL0     H94451   3.071  10.909  -0.024  1.4025 -2.5688 -2.2310
  700MOL0     H94452   3.228  10.803   0.178 -0.7544 -0.7854 -0.7113
  700MOL0     H94453   3.127  10.891   0.293  1.6670 -0.1118  0.6836
  700MOL0     H94454   3.137  10.586   0.273 -1.8456  0.4864  0.2778
  700MOL0     H94455   3.270  10.671   0.356  0.3235  0.2466 -0.0202
  700MOL0     H94456   3.125  10.753   0.528  0.4152  0.0986 -0.8154
  700MOL0     H94457   3.124  10.585   0.523 -1.1411  0.3592  0.7244
  700MOL0     H94458   2.909  10.568   0.405  0.3623 -0.2169  0.6566
  700MOL0     H94459   2.887  10.743   0.411  1.2223  0.2958 -0.5040
  700MOL0     H94460   2.775  10.643   0.834 -0.6340  0.3170  0.4544
  700MOL0     H94461   2.563  10.542   0.896 -2.1562 -0.8033 -0.0920
  700MOL0     H94462   2.215  10.168   0.759  2.9884  2.6986 -0.6374
  700MOL0     H94463   1.983  10.104   0.755  0.4279 -0.1412 -0.6252
  700MOL0     H94464   1.645  10.412   0.633  1.6413  1.6635 -0.9067
  700MOL0     H94465   1.728  10.335   0.499 -0.3776  0.6133 -0.3067
  700MOL0     H94466   1.511  10.247   0.477 -1.3037 -2.4221 -0.3952
  700MOL0     H94467   1.606  10.121   0.552  0.0693 -0.3671  2.4534
  700MOL0     H94468   1.527  10.199   0.781 -0.5369  0.0467  0.5653
  700MOL0     H94469   1.399  10.289   0.696  0.9137  1.2676  0.7834
  700MOL0     H94470   1.429  10.001   0.648  0.5560  0.6090  2.3995
  700MOL0     H94471   1.301  10.112   0.603 -0.6194  2.2202  0.3922
  700MOL0     H94472   1.232  10.136   0.828 -1.2761 -1.8534 -0.8258
  700MOL0     H94473   1.378  10.071   0.896  0.2720 -2.7114 -0.1591
  700MOL0     H94474   1.161   9.910   0.752  2.2779  0.6055 -3.6102
  700MOL0     H94475   1.324   9.847   0.778 -0.1438 -0.2699  0.3655
  700MOL0     H94476   1.273   9.939   1.038  0.3062  0.1810  0.8822
  700MOL0     H94477   1.251   9.777   0.974 -3.4678 -0.9642  2.3700
  700MOL0     H94478   1.025   9.984   0.986 -0.8992 -1.0839 -0.8070
  700MOL0     H94479   1.023   9.802   0.973  1.6016 -1.4156  0.6388
  700MOL0     H94480   1.881  10.476   0.593 -2.0072 -0.6514  0.0908
  700MOL0     H94481   2.105  10.539   0.568 -0.3079 -0.1071 -1.3086
  700MOL0     H94482   2.476  10.475   0.479 -0.0042  1.5190 -2.1886
  700MOL0     H94483   2.690  10.557   0.413  1.1467 -0.5490 -0.4387
  700MOL0     H94484   2.028  10.869   0.563  1.2131  1.6769 -1.5282
  700MOL0     H94485   1.794  10.917   0.595 -2.9473 -2.4810  2.1209
  700MOL0     H94486   1.351  10.959   0.557 -0.0545  0.9088 -1.7691
  700MOL0     H94487   1.126  10.980   0.571  1.6736  0.2829  0.5279
  700MOL0     H94488   0.954  11.052   0.397  2.1366 -1.3688 -1.9086
  700MOL0     H94489   0.869  10.982   0.541 -0.3294 -1.5980  0.3288
  700MOL0     H94490   0.704  10.884   0.373 -0.6999 -0.2001 -0.2712
  700MOL0     H94491   0.778  10.982   0.257 -2.9085 -0.9432 -0.3958
  700MOL0     H94492   0.756  11.190   0.404  1.2383 -0.5254 -3.4812
  700MOL0     H94493   0.675  11.089   0.526  4.0229  1.1503  1.5706
  700MOL0     H94494   0.522  11.220   0.405  0.2245 -0.8919  1.4036
  700MOL0     H94495   0.577  11.167   0.252 -1.6083  2.5885  0.6297
  700MOL0     H94496   0.360  10.821   0.387 -1.1371  0.9370  0.9319
  700MOL0     H94497   1.070  10.711   0.234 -0.0511  2.2053 -2.1422
  700MOL0     H94498   1.334  10.534   0.254 -0.2748 -0.9245 -0.1436
  700MOL0     H94499   1.251  10.599   0.121  0.7762 -2.8845  0.7721
  700MOL0     H94500   1.405  10.648   0.134 -1.1350  1.9706 -1.7391
  701MOL0     O94501   8.289   3.162   0.269 -0.3600 -0.1534  0.2696
  701MOL0     C94502   8.350   3.151   0.375 -0.1525 -0.0969  0.2854
  701MOL0     O94503   8.315   3.065   0.470 -0.8401  0.1436 -0.6181
  701MOL0     C94504   8.199   2.999   0.464  0.2711 -0.1126 -0.0973
  701MOL0     C94505   8.093   3.053   0.541 -0.6306  0.0434  0.0980
  701MOL0     C94506   7.965   2.993   0.538 -0.5567 -0.7941  0.1112
  701MOL0     C94507   7.950   2.871   0.470  1.2109  0.3148 -0.0741
  701MOL0     O94508   7.844   2.794   0.491 -0.0226  0.7035  0.5506
  701MOL0     C94509   7.780   2.760   0.368 -0.0992 -0.0612  0.0345
  701MOL0     C94510   7.630   2.735   0.397 -0.3583  0.4626 -0.3029
  701MOL0     C94511   7.609   2.612   0.489 -0.2889 -0.0136 -0.4639
  701MOL0     C94512   7.457   2.580   0.489 -1.2381  0.3351 -0.4810
  701MOL0     C94513   7.441   2.443   0.561 -0.5842 -0.1679  0.3351
  701MOL0     C94514   7.292   2.427   0.598  0.1210 -0.6601 -0.4176
  701MOL0     C94515   7.254   2.308   0.680 -0.2979 -0.1225 -0.2082
  701MOL0     C94516   7.230   2.320   0.839  0.4861  0.3856 -0.0119
  701MOL0     N94517   7.341   2.350   0.931 -0.7849 -0.7594  0.2487
  701MOL0     C94518   7.441   2.440   0.907 -0.0198 -0.0696  0.5050
  701MOL0     C94519   7.532   2.415   1.006 -0.9852  0.9131  0.5625
  701MOL0     C94520   7.673   2.475   0.998  1.2620  0.4427  0.1071
  701MOL0     C94521   7.776   2.361   0.967  0.5123 -0.1821  0.0961
  701MOL0     C94522   7.728   2.259   0.854 -0.4725  0.2087  0.4625
  701MOL0     C94523   7.843   2.174   0.803 -0.3635 -0.2589  0.2979
  701MOL0     O94524   7.947   2.272   0.758  0.0510  0.2205  0.7629
  701MOL0     C94525   8.068   2.258   0.801 -0.2068 -0.2863 -0.7728
  701MOL0     C94526   8.155   2.361   0.766  0.1896 -0.3850 -0.6668
  701MOL0     C94527   8.295   2.368   0.798  0.5653  0.2837 -0.0649
  701MOL0     C94528   8.345   2.269   0.880  0.1982  0.0059 -0.3025
  701MOL0     C94529   8.479   2.275   0.922 -0.1922 -0.4052 -0.4524
  701MOL0     O94530   8.551   2.397   0.916 -0.7818 -0.5621  0.0826
  701MOL0     C94531   8.687   2.406   0.889  0.1562  0.8612  0.4849
  701MOL0     C94532   8.761   2.315   0.809  1.3811  0.5225  0.3284
  701MOL0     C94533   8.898   2.323   0.794  0.4456  0.4834  0.4937
  701MOL0     C94534   8.965   2.423   0.858  0.2293 -0.8905 -0.4083
  701MOL0     O94535   9.108   2.421   0.850  0.7058 -0.0897 -1.2593
  701MOL0     C94536   9.201   2.518   0.894  0.3220 -0.3444 -0.3192
  701MOL0     C94537   9.237   2.605   0.778  0.4000  0.0638 -0.3957
  701MOL0     C94538   9.301   2.516   0.661 -0.3685 -0.0138  0.0016
  701MOL0     C94539   9.262   2.575   0.537 -0.3303 -0.2896  0.2402
  701MOL0     C94540   9.302   2.476   0.414 -0.1262 -0.5373  0.1932
  701MOL0     C94541   9.450   2.490   0.376  0.2646 -0.4339  0.3129
  701MOL0     C94542   9.474   2.448   0.226  0.9817 -0.2235  0.1237
  701MOL0     C94543   9.627   2.452   0.187  0.1699  0.0249  0.5140
  701MOL0    Cl94544   9.663   2.415   0.020 -0.0510  0.1553 -0.1588
  701MOL0     C94545   8.899   2.520   0.934 -0.3360  0.4788 -0.0445
  701MOL0     C94546   8.755   2.508   0.946  0.3577  0.4982  0.1014
  701MOL0     O94547   8.531   2.172   0.965  0.3561  0.6892 -0.6320
  701MOL0     C94548   8.260   2.168   0.929 -0.0409  0.4753 -0.7617
  701MOL0     C94549   8.126   2.165   0.890  0.5292  0.3667 -0.1723
  701MOL0     N94550   7.483   2.316   1.089  0.4049  0.2336  0.7723
  701MOL0     N94551   7.362   2.281   1.043  0.1707  0.0567  0.0508
  701MOL0     C94552   8.055   2.822   0.381  0.2966  0.0559 -0.1708
  701MOL0     C94553   8.179   2.887   0.386 -0.4123  0.1161 -0.7147
  701MOL0     C94554   8.458   3.248   0.400 -0.1456 -0.5258 -0.6660
  701MOL0     C94555   8.525   3.237   0.521  1.3052  0.0101 -1.1502
  701MOL0     C94556   8.630   3.320   0.557  0.1915 -0.8893  0.1204
  701MOL0     C94557   8.673   3.424   0.474  0.5266 -0.2492 -0.3924
  701MOL0     O94558   8.777   3.504   0.506  0.3794  0.0201 -0.7162
  701MOL0     C94559   8.908   3.453   0.546  0.8391 -0.1872  0.3546
  701MOL0     C94560   8.973   3.499   0.671  0.1980  0.2441 -0.4042
  701MOL0     C94561   8.914   3.450   0.800  0.3676 -0.6631 -0.3704
  701MOL0     C94562   9.026   3.405   0.894 -0.2012  0.4028 -0.3652
  701MOL0     C94563   9.105   3.521   0.942 -0.2650 -1.3857 -0.3246
  701MOL0     C94564   9.172   3.611   0.979  0.2148 -0.1436 -0.0897
  701MOL0     C94565   8.606   3.443   0.352  0.0091 -0.8118 -0.2265
  701MOL0     C94566   8.494   3.360   0.318 -0.7437 -0.7345  0.5862
  701MOL0     C94567   8.427   3.400   0.193  0.7490  0.2148  0.0197
  701MOL0     H94568   8.111   3.135   0.610 -0.0109  1.4193 -1.6045
  701MOL0     H94569   7.890   3.022   0.610  0.9859 -1.0268  1.8908
  701MOL0     H94570   7.780   2.844   0.298  2.0112 -0.5388 -0.6213
  701MOL0     H94571   7.827   2.681   0.309 -0.2227  1.1778 -1.7758
  701MOL0     H94572   7.573   2.738   0.303 -0.7238 -1.9451 -0.2408
  701MOL0     H94573   7.592   2.824   0.447  0.2128  0.2910  0.4520
  701MOL0     H94574   7.650   2.644   0.586  2.1099 -0.3179 -1.3212
  701MOL0     H94575   7.661   2.525   0.450  0.0650 -0.2951  0.6167
  701MOL0     H94576   7.407   2.653   0.552 -1.9897 -2.8548  2.9427
  701MOL0     H94577   7.416   2.589   0.388 -0.9988  0.6876 -0.5467
  701MOL0     H94578   7.460   2.354   0.500  0.7222  0.4150 -0.1416
  701MOL0     H94579   7.504   2.428   0.650 -0.5037  1.4336  0.5797
  701MOL0     H94580   7.267   2.514   0.658  3.1032  0.5360 -0.7456
  701MOL0     H94581   7.229   2.425   0.508 -0.7829 -2.6671  0.1865
  701MOL0     H94582   7.331   2.232   0.665 -0.8634 -0.3395 -2.2444
  701MOL0     H94583   7.154   2.279   0.648  0.1760 -0.8057 -1.1310
  701MOL0     H94584   7.158   2.401   0.857 -1.3365 -1.3016  0.6685
  701MOL0     H94585   7.178   2.233   0.879  1.9592 -0.7195 -0.4061
  701MOL0     H94586   7.449   2.499   0.817  2.6267  0.2988  0.9081
  701MOL0     H94587   7.666   2.547   0.915 -0.8513 -2.2764 -2.2882
  701MOL0     H94588   7.682   2.541   1.085 -1.1439  0.7782  0.1872
  701MOL0     H94589   7.859   2.425   0.938 -0.2759  0.0637 -1.7400
  701MOL0     H94590   7.803   2.301   1.055 -0.9096  1.0558  1.4389
  701MOL0     H94591   7.692   2.311   0.765 -1.5946  1.2558  1.4946
  701MOL0     H94592   7.647   2.195   0.892 -2.8224  2.9078  0.3329
  701MOL0     H94593   7.807   2.121   0.713 -0.7746 -0.0387  0.3277
  701MOL0     H94594   7.879   2.108   0.882  0.3277 -0.5335 -0.2332
  701MOL0     H94595   8.114   2.444   0.710 -1.8722  0.9908  2.5790
  701MOL0     H94596   8.357   2.453   0.771  1.6164  0.2809  2.1354
  701MOL0     H94597   8.716   2.224   0.771  0.8190  0.6702  0.6234
  701MOL0     H94598   8.939   2.239   0.738  0.6208 -1.3936  3.2485
  701MOL0     H94599   9.175   2.588   0.974 -2.1629  0.8506 -2.0482
  701MOL0     H94600   9.289   2.468   0.935 -1.4543 -5.1941 -1.7976
  701MOL0     H94601   9.156   2.663   0.732 -1.3382  0.0244  2.3740
  701MOL0     H94602   9.322   2.667   0.806  2.0216 -2.2842  0.1906
  701MOL0     H94603   9.409   2.528   0.678 -0.4968 -1.6467  2.6880
  701MOL0     H94604   9.270   2.412   0.675  0.1364 -0.1058  0.5035
  701MOL0     H94605   9.302   2.675   0.520 -3.1543  0.7532 -0.7163
  701MOL0     H94606   9.155   2.593   0.546  0.4392  3.7557  4.3610
  701MOL0     H94607   9.236   2.515   0.336  1.3310  0.1425 -0.7342
  701MOL0     H94608   9.273   2.371   0.414 -0.9795 -0.4763 -3.9388
  701MOL0     H94609   9.501   2.585   0.395 -1.4835  1.2828 -2.7230
  701MOL0     H94610   9.509   2.418   0.434  1.0923 -0.6619 -0.7553
  701MOL0     H94611   9.423   2.510   0.152  1.0864 -0.8893 -0.5194
  701MOL0     H94612   9.432   2.348   0.218 -0.4144  0.2953  0.6480
  701MOL0     H94613   9.671   2.548   0.215  0.4574  0.2198 -0.5523
  701MOL0     H94614   9.685   2.380   0.244  4.8398  1.8955 -1.3240
  701MOL0     H94615   8.948   2.609   0.973  1.3453  0.2648 -1.5458
  701MOL0     H94616   8.700   2.579   1.006  1.2689  0.0737  1.4816
  701MOL0     H94617   8.300   2.099   1.003 -2.1605  2.4453  2.5026
  701MOL0     H94618   8.063   2.094   0.943 -1.4454  2.4734  0.4661
  701MOL0     H94619   8.038   2.731   0.324 -2.0905 -0.7409  1.6134
  701MOL0     H94620   8.248   2.845   0.314 -1.9096 -2.4118 -0.8153
  701MOL0     H94621   8.497   3.162   0.594 -1.5751  1.2512 -0.8714
  701MOL0     H94622   8.683   3.314   0.652 -1.9584  1.8146  1.6506
  701MOL0     H94623   8.970   3.487   0.463 -1.0284  2.8787  0.0807
  701MOL0     H94624   8.908   3.344   0.533 -1.9440 -0.1480 -0.5994
  701MOL0     H94625   8.962   3.608   0.674  1.9347  0.5235 -1.8539
  701MOL0     H94626   9.080   3.487   0.651  0.0842  1.0260 -1.6115
  701MOL0     H94627   8.847   3.367   0.776  2.0196 -2.9034  2.1941
  701MOL0     H94628   8.866   3.534   0.851  6.0548  2.7529  0.3548
  701MOL0     H94629   8.986   3.361   0.986  0.7378  2.4507  1.1185
  701MOL0     H94630   9.078   3.325   0.841  0.6021  0.5392  0.1902
  701MOL0     H94631   9.218   3.706   0.997 -2.9531  2.1122 -2.7176
  701MOL0     H94632   8.631   3.535   0.301  0.2611  0.0775  1.4490
  701MOL0     H94633   8.338   3.457   0.219  0.6704  0.1927 -0.2007
  701MOL0     H94634   8.478   3.470   0.127 -2.3303  1.3247 -1.3476
  701MOL0     H94635   8.403   3.311   0.133  3.2047 -1.8166  1.7810
  702MOL0     O94636  10.698   3.603  11.356  0.0640  0.2223 -0.1341
  702MOL0     C94637  10.628   3.548  11.277  0.2202  0.0697  1.0540
  702MOL0     O94638  10.667   3.519  11.145 -0.1682  0.0967  0.0237
  702MOL0     C94639  10.770   3.597  11.097 -0.6243  0.2595 -0.6407
  702MOL0     C94640  10.727   3.731  11.072 -0.5247  0.2958 -1.1589
  702MOL0     C94641  10.823   3.820  11.015 -0.7195  0.1480  0.5200
  702MOL0     C94642  10.952   3.779  10.988  0.0070 -0.3938  0.4611
  702MOL0     O94643  11.026   3.859  10.904 -0.4047  0.3406  0.3695
  702MOL0     C94644  11.160   3.823  10.888  0.1283 -0.3644  0.4643
  702MOL0     C94645  11.229   3.950  10.830 -0.1125 -0.0437 -0.4224
  702MOL0     C94646  11.290   4.050  10.935  0.1472  0.1701 -0.5809
  702MOL0     C94647  11.365   4.170  10.875 -0.7583 -0.5562 -0.4784
  702MOL0     C94648  11.430   4.257  10.987 -0.1502 -0.0544 -0.0080
  702MOL0     C94649  11.433   4.413  10.947 -0.3019 -0.5451  0.0751
  702MOL0     C94650  11.444   4.504  11.066  0.0535  0.9625 -0.3142
  702MOL0     C94651  11.577   4.497  11.146  0.2644  0.1898  0.2676
  702MOL0     N94652  11.690   4.536  11.066  0.2884  0.1326 -0.1967
  702MOL0     C94653  11.717   4.661  10.998 -0.3082 -0.4297 -0.8134
  702MOL0     C94654  11.818   4.633  10.919 -0.0207 -1.2129  0.1444
  702MOL0     C94655  11.897   4.732  10.843 -0.6513  0.3891  0.9436
  702MOL0     C94656  12.051   4.715  10.858  0.8410 -0.7055 -0.0984
  702MOL0     C94657  12.081   4.744  11.004  0.3669 -0.9924 -0.3852
  702MOL0     C94658  12.232   4.763  11.037 -0.4972  0.0152  0.5066
  702MOL0     O94659  12.231   4.806  11.170  0.2188  0.1861 -0.0591
  702MOL0     C94660  12.349   4.850  11.230  0.4059  0.6935  0.1854
  702MOL0     C94661  12.469   4.843  11.166  0.4090  0.1527 -0.0015
  702MOL0     C94662  12.584   4.887  11.230  0.1147  0.5873  0.1838
  702MOL0     C94663  12.580   4.931  11.364 -1.8314 -0.3013  0.6623
  702MOL0     C94664  12.710   4.954  11.443  1.0329  0.3743  0.1408
  702MOL0     O94665  12.824   4.916  11.391  0.6408  0.1028 -0.1173
  702MOL0     C94666  12.932   4.922  11.474 -0.3073 -0.3099 -0.0675
  702MOL0     C94667  12.994   4.801  11.517  0.8333  0.3859  0.0954
  702MOL0     C94668  13.100   4.800  11.604  0.1215  0.3726  0.5964
  702MOL0     C94669  13.160   4.930  11.638 -0.0074  0.4943 -0.3299
  702MOL0     O94670  13.277   4.947  11.721 -0.0819 -0.0313  0.1914
  702MOL0     C94671  13.331   4.823  11.767 -0.6958  0.5093 -0.9593
  702MOL0     C94672  13.466   4.846  11.836  0.4166  0.4239  0.7815
  702MOL0     C94673  13.564   4.915  11.740  0.6072  0.3123  0.1282
  702MOL0     C94674  13.709   4.912  11.797 -0.4092 -0.7785  0.5284
  702MOL0     C94675  13.806   5.018  11.736  0.7141  0.6244 -0.0125
  702MOL0     C94676  13.778   5.163  11.780 -0.2254 -0.1013  0.5284
  702MOL0     C94677  13.813   5.294  11.697 -0.5954 -0.2102  0.4546
  702MOL0     C94678  13.964   5.339  11.686  0.1436 -0.1658  0.3265
  702MOL0    Cl94679  14.034   5.368  11.846  0.0846  0.6718 -0.3084
  702MOL0     C94680  13.114   5.045  11.580  0.0497  0.1417  0.0496
  702MOL0     C94681  12.998   5.047  11.503 -0.7067  0.0159  0.4295
  702MOL0     O94682  12.692   5.013  11.552 -0.3687 -0.2770  0.4179
  702MOL0     C94683  12.457   4.946  11.426  0.1304 -0.3801  0.4123
  702MOL0     C94684  12.337   4.911  11.357  0.1242  0.7322  0.8977
  702MOL0     N94685  11.848   4.508  10.923 -0.0354 -0.4303 -0.8320
  702MOL0     N94686  11.771   4.446  11.003  0.8913  0.0723 -0.7817
  702MOL0     C94687  10.989   3.645  11.023  0.7976 -0.1527 -0.6795
  702MOL0     C94688  10.897   3.552  11.082 -0.3428  0.0435  0.1249
  702MOL0     C94689  10.490   3.503  11.329 -0.2635  0.5328  0.5230
  702MOL0     C94690  10.428   3.591  11.421 -0.5874 -0.9100  0.4484
  702MOL0     C94691  10.306   3.551  11.480 -0.3249 -0.7212 -0.1763
  702MOL0     C94692  10.252   3.428  11.462 -0.0896 -0.0714  0.1273
  702MOL0     O94693  10.143   3.378  11.539  0.8117 -0.1702 -0.1780
  702MOL0     C94694  10.147   3.403  11.683  0.4508  0.9620 -0.7853
  702MOL0     C94695  10.101   3.282  11.772  0.3202  0.6364  0.1258
  702MOL0     C94696  10.179   3.146  11.751  0.4092 -0.4264 -0.3287
  702MOL0     C94697  10.194   3.080  11.895 -0.1715  0.5747 -0.9428
  702MOL0     C94698  10.310   3.145  11.969  0.4853 -0.7162  1.1300
  702MOL0     C94699  10.396   3.204  12.025 -0.0362  0.2094 -0.1573
  702MOL0     C94700  10.323   3.344  11.384 -0.2921 -0.1005 -0.1766
  702MOL0     C94701  10.445   3.375  11.313  0.2267 -0.0210 -0.0952
  702MOL0     C94702  10.524   3.268  11.244 -0.3879 -0.3154 -0.0222
  702MOL0     H94703  10.626   3.758  11.100  0.9836  2.5142  3.0303
  702MOL0     H94704  10.789   3.921  10.996  1.9137  0.6990 -1.8107
  702MOL0     H94705  11.201   3.780  10.980 -2.4262 -1.6924  1.0575
  702MOL0     H94706  11.163   3.739  10.818 -0.7260 -1.2585  1.4602
  702MOL0     H94707  11.163   4.014  10.770  0.8450  0.4675 -0.9660
  702MOL0     H94708  11.313   3.914  10.769 -0.3642 -1.2598 -0.0626
  702MOL0     H94709  11.361   3.994  10.996  1.1951  0.6305 -1.3398
  702MOL0     H94710  11.211   4.076  11.005  1.3393 -0.8728  1.2480
  702MOL0     H94711  11.436   4.129  10.802  0.5509  3.4983 -1.7657
  702MOL0     H94712  11.297   4.231  10.816 -1.1494 -0.7526 -0.2319
  702MOL0     H94713  11.362   4.242  11.071 -0.2446  0.0818 -0.0604
  702MOL0     H94714  11.524   4.210  11.017  0.9527  1.4603 -0.9939
  702MOL0     H94715  11.518   4.430  10.880 -1.0089 -0.4100 -0.8133
  702MOL0     H94716  11.341   4.430  10.890 -1.2814 -0.0512  1.7105
  702MOL0     H94717  11.365   4.489  11.140 -0.4023 -0.6221 -1.0794
  702MOL0     H94718  11.437   4.608  11.032 -0.9985  1.4321  1.2505
  702MOL0     H94719  11.564   4.551  11.241 -1.6751  0.4037 -0.0860
  702MOL0     H94720  11.603   4.395  11.176  1.2404  0.2241 -0.4197
  702MOL0     H94721  11.663   4.755  10.998  1.1269  0.4793 -2.9766
  702MOL0     H94722  11.886   4.724  10.734  0.5632  0.9062  0.7658
  702MOL0     H94723  11.870   4.833  10.877 -2.5503 -0.3507  1.7956
  702MOL0     H94724  12.054   4.609  10.832 -1.1619 -1.1103  1.0974
  702MOL0     H94725  12.114   4.777  10.793  0.7939  2.2564  2.4342
  702MOL0     H94726  12.053   4.656  11.062  0.7176 -1.5876 -1.1083
  702MOL0     H94727  12.021   4.831  11.034  1.0080  0.6037 -3.3617
  702MOL0     H94728  12.274   4.841  10.973 -1.9805 -0.3348 -0.9645
  702MOL0     H94729  12.293   4.674  11.025  2.7245  2.3508 -2.8387
  702MOL0     H94730  12.479   4.795  11.069  1.6315 -0.5334  0.4434
  702MOL0     H94731  12.677   4.888  11.173  0.8580 -2.4487  1.1450
  702MOL0     H94732  12.956   4.702  11.493  1.8358  0.6452 -2.9083
  702MOL0     H94733  13.132   4.707  11.649  1.8815  0.0193 -1.2139
  702MOL0     H94734  13.262   4.787  11.844 -0.5259 -1.9611 -1.8973
  702MOL0     H94735  13.344   4.740  11.698  0.6749 -1.5458  1.6100
  702MOL0     H94736  13.456   4.882  11.939 -1.7439 -1.8272  1.4511
  702MOL0     H94737  13.507   4.744  11.843  3.9936  1.5711 -1.2250
  702MOL0     H94738  13.567   4.863  11.645 -1.9152  0.3175 -0.0078
  702MOL0     H94739  13.545   5.021  11.718 -1.1349 -0.3585 -1.8975
  702MOL0     H94740  13.747   4.810  11.784  1.2990  0.0453 -1.3547
  702MOL0     H94741  13.705   4.935  11.904 -2.6355 -0.7536  0.4943
  702MOL0     H94742  13.800   5.007  11.627 -4.4809  1.9842 -0.1083
  702MOL0     H94743  13.910   4.998  11.763  0.7472  0.1358 -0.4688
  702MOL0     H94744  13.675   5.162  11.817 -0.3294 -2.9447  0.3675
  702MOL0     H94745  13.835   5.166  11.874  0.0815 -1.7782  0.4181
  702MOL0     H94746  13.756   5.371  11.750  0.5032  0.1853  1.0815
  702MOL0     H94747  13.765   5.292  11.599  1.5176  2.4598 -0.7494
  702MOL0     H94748  14.017   5.260  11.633 -2.7788 -1.5488 -0.7692
  702MOL0     H94749  13.959   5.431  11.626 -4.5062 -0.8640 -0.7611
  702MOL0     H94750  13.167   5.135  11.609 -1.0169  0.4606  1.0826
  702MOL0     H94751  12.961   5.142  11.465 -2.8863 -1.5705 -1.6559
  702MOL0     H94752  12.447   4.989  11.525 -3.5279 -0.3281  0.1521
  702MOL0     H94753  12.239   4.912  11.406 -0.5478  1.0091 -0.4184
  702MOL0     H94754  11.078   3.600  10.982  0.4953 -0.8583 -0.5860
  702MOL0     H94755  10.923   3.451  11.112 -2.8923  0.4004  4.3728
  702MOL0     H94756  10.477   3.681  11.457 -1.9440 -0.2119  0.5983
  702MOL0     H94757  10.253   3.612  11.552 -0.7839 -1.2411 -0.0633
  702MOL0     H94758  10.081   3.482  11.718  0.4717  0.6221  0.0646
  702MOL0     H94759  10.254   3.415  11.703  1.0487 -2.3116 -1.4368
  702MOL0     H94760   9.996   3.258  11.752  0.7652 -1.7850  0.2881
  702MOL0     H94761  10.118   3.318  11.874  5.1134 -1.0650  0.2205
  702MOL0     H94762  10.281   3.147  11.712  0.3542 -3.0803 -0.7078
  702MOL0     H94763  10.111   3.096  11.682 -0.3420  0.9697 -0.6583
  702MOL0     H94764  10.106   3.069  11.959 -1.6318  0.3682 -2.8914
  702MOL0     H94765  10.235   2.981  11.872  1.0315  0.7819  0.1826
  702MOL0     H94766  10.475   3.257  12.074  0.2589 -0.5186  0.1823
  702MOL0     H94767  10.299   3.238  11.388  1.1110 -0.4843 -0.8709
  702MOL0     H94768  10.527   3.279  11.135 -1.0631 -5.7564 -0.8789
  702MOL0     H94769  10.627   3.258  11.278 -0.2355 -0.6474 -0.5562
  702MOL0     H94770  10.496   3.163  11.255  0.8219 -0.9275 -2.1255
  703MOL0     O94771   0.613   6.103   6.510  0.6272  0.6861 -0.2646
  703MOL0     C94772   0.723   6.133   6.461  0.3534 -0.4142  0.4011
  703MOL0     O94773   0.749   6.248   6.401 -0.8287 -0.2573  0.8303
  703MOL0     C94774   0.662   6.355   6.396  0.2622 -0.0928  0.2641
  703MOL0     C94775   0.681   6.435   6.285 -0.3055 -0.3077  0.7242
  703MOL0     C94776   0.605   6.553   6.265  0.3762 -0.2246  0.9380
  703MOL0     C94777   0.510   6.594   6.360 -0.1623 -0.8027 -0.2025
  703MOL0     O94778   0.440   6.713   6.344  0.2709  0.3040 -1.2338
  703MOL0     C94779   0.347   6.751   6.450  0.1743  0.5956 -0.0238
  703MOL0     C94780   0.291   6.889   6.412  0.8208 -0.5950 -0.6597
  703MOL0     C94781   0.152   6.920   6.484 -0.2014  0.2934  0.1932
  703MOL0     C94782   0.021   6.879   6.418  0.2947  1.0631 -0.5006
  703MOL0     C94783   0.003   6.733   6.385 -0.3277 -0.7327  0.8907
  703MOL0     C94784  -0.138   6.721   6.335 -0.9797 -0.0485 -0.4999
  703MOL0     C94785  -0.175   6.568   6.337  0.9239  0.3404  0.6427
  703MOL0     C94786  -0.311   6.537   6.280 -0.2719 -1.0393  0.5631
  703MOL0     N94787  -0.311   6.582   6.139 -0.0816 -0.1629  0.0023
  703MOL0     C94788  -0.257   6.509   6.032 -0.7131  0.1969  0.0217
  703MOL0     C94789  -0.312   6.568   5.920 -0.8671 -0.4425 -1.0198
  703MOL0     C94790  -0.286   6.541   5.774  0.2943 -0.0256  0.3998
  703MOL0     C94791  -0.416   6.537   5.692 -0.7404 -0.5959 -0.3361
  703MOL0     C94792  -0.492   6.403   5.693 -0.0337 -0.4587 -0.8444
  703MOL0     C94793  -0.430   6.305   5.600  0.4814  0.9309 -0.3948
  703MOL0     O94794  -0.408   6.353   5.472  0.2364 -0.6084  0.1450
  703MOL0     C94795  -0.510   6.387   5.385 -0.5937  0.5609 -0.1465
  703MOL0     C94796  -0.470   6.446   5.264  0.6200 -0.1631 -0.3351
  703MOL0     C94797  -0.566   6.489   5.173 -0.4733  0.3660  0.5878
  703MOL0     C94798  -0.703   6.476   5.203  0.4776  0.8797  0.3720
  703MOL0     C94799  -0.804   6.518   5.104  0.4602 -0.1077 -0.2985
  703MOL0     O94800  -0.931   6.538   5.153 -0.5518  0.5494 -0.6070
  703MOL0     C94801  -1.042   6.576   5.080  0.1526  0.2778 -0.7007
  703MOL0     C94802  -1.162   6.558   5.151  0.3693 -0.8587  0.2649
  703MOL0     C94803  -1.294   6.605   5.102 -0.8208  0.9712  0.4958
  703MOL0     C94804  -1.298   6.664   4.980 -0.4401  0.2526  0.1733
  703MOL0     O94805  -1.425   6.700   4.935  0.1847 -0.7279 -0.6050
  703MOL0     C94806  -1.423   6.793   4.823 -0.3702 -0.2863  0.1106
  703MOL0     C94807  -1.562   6.850   4.798 -0.2610 -0.3800 -0.0844
  703MOL0     C94808  -1.669   6.743   4.769 -0.2583  0.2445  0.3144
  703MOL0     C94809  -1.803   6.800   4.772 -0.7063 -0.0865 -0.3023
  703MOL0     C94810  -1.916   6.696   4.769  0.0791 -1.3724 -0.4111
  703MOL0     C94811  -2.044   6.755   4.841 -0.1563 -0.1216 -0.3180
  703MOL0     C94812  -2.169   6.668   4.796  0.1159 -0.6506  1.0053
  703MOL0     C94813  -2.286   6.715   4.878  0.6241 -0.8910  0.5476
  703MOL0    Cl94814  -2.429   6.616   4.832 -0.4821  0.1642 -0.0755
  703MOL0     C94815  -1.180   6.685   4.907 -0.0835  0.2060 -1.2274
  703MOL0     C94816  -1.050   6.643   4.960  1.0858  0.2694  0.2450
  703MOL0     O94817  -0.768   6.554   4.991 -0.3027  0.3306  0.9602
  703MOL0     C94818  -0.737   6.427   5.328  0.6860  0.5121 -0.0877
  703MOL0     C94819  -0.642   6.370   5.413  0.3279 -1.0347  0.2253
  703MOL0     N94820  -0.377   6.682   5.967 -0.1197  0.3078 -0.0052
  703MOL0     N94821  -0.377   6.688   6.097 -0.2957  0.6660  0.3595
  703MOL0     C94822   0.497   6.514   6.472 -0.6219  0.1289 -0.4993
  703MOL0     C94823   0.567   6.399   6.487 -0.8484  0.3945  1.1267
  703MOL0     C94824   0.828   6.039   6.491  0.1792  0.7183  0.3040
  703MOL0     C94825   0.804   5.896   6.490  0.2557 -0.1956 -0.3842
  703MOL0     C94826   0.902   5.800   6.510  0.2775 -0.5395 -0.4958
  703MOL0     C94827   1.036   5.844   6.520  0.1829 -0.9874  0.4043
  703MOL0     O94828   1.138   5.757   6.534 -0.0468 -0.7114 -0.0534
  703MOL0     C94829   1.107   5.618   6.546 -1.0141 -0.2439  0.6557
  703MOL0     C94830   1.250   5.560   6.542 -0.1079 -0.2311 -0.0039
  703MOL0     C94831   1.313   5.565   6.403  0.4772  0.1621  0.0921
  703MOL0     C94832   1.262   5.440   6.323 -0.5184 -0.4743 -0.2783
  703MOL0     C94833   1.238   5.471   6.180  0.3623  0.1885  0.5514
  703MOL0     C94834   1.233   5.502   6.059 -0.2947  0.3192  0.4245
  703MOL0     C94835   1.058   5.980   6.536  0.4823 -0.8992 -1.0652
  703MOL0     C94836   0.960   6.078   6.516 -1.2048 -0.1702 -0.3650
  703MOL0     C94837   1.003   6.224   6.537  0.2433  0.5476 -0.1845
  703MOL0     H94838   0.762   6.414   6.216 -0.5364  0.3939  0.2296
  703MOL0     H94839   0.610   6.618   6.178 -1.3124  0.3932  1.2702
  703MOL0     H94840   0.269   6.674   6.457 -1.3433  2.1801  1.5533
  703MOL0     H94841   0.398   6.762   6.547  0.6508  3.5409 -0.5368
  703MOL0     H94842   0.285   6.878   6.303  3.4556 -1.8014 -0.7513
  703MOL0     H94843   0.358   6.973   6.431 -0.2375  0.3592 -1.0748
  703MOL0     H94844   0.142   7.028   6.478 -1.6474  0.1342 -0.9149
  703MOL0     H94845   0.151   6.894   6.590  1.6272  1.4056  0.5273
  703MOL0     H94846  -0.054   6.904   6.493  0.1697 -1.2288  0.2397
  703MOL0     H94847  -0.002   6.941   6.331  0.6987  3.2683  0.8867
  703MOL0     H94848   0.073   6.714   6.303  2.2213  4.8621  1.3038
  703MOL0     H94849   0.021   6.675   6.476  0.9262  0.3227  1.3436
  703MOL0     H94850  -0.203   6.782   6.398  1.1128  2.6246 -0.7454
  703MOL0     H94851  -0.144   6.760   6.233 -1.8237 -1.5641 -1.0668
  703MOL0     H94852  -0.190   6.534   6.439 -1.1922  1.9180  0.9267
  703MOL0     H94853  -0.108   6.505   6.278  0.0085 -1.3430  1.3450
  703MOL0     H94854  -0.331   6.430   6.284  3.8522 -1.9419  1.1732
  703MOL0     H94855  -0.391   6.592   6.330 -1.3625 -1.1602 -0.9795
  703MOL0     H94856  -0.202   6.416   6.041  1.4788  1.4491  0.3822
  703MOL0     H94857  -0.228   6.624   5.732 -1.2899 -1.3194 -5.1266
  703MOL0     H94858  -0.216   6.457   5.770  3.4728  2.3895  1.1141
  703MOL0     H94859  -0.472   6.618   5.739  2.5941  0.5803  2.0613
  703MOL0     H94860  -0.395   6.581   5.594  2.6566 -2.6355 -0.7034
  703MOL0     H94861  -0.599   6.419   5.674  0.4022  2.5511 -1.3566
  703MOL0     H94862  -0.492   6.366   5.796  0.5061  1.8548  0.0438
  703MOL0     H94863  -0.496   6.218   5.602  0.5500  0.8722 -0.6229
  703MOL0     H94864  -0.335   6.275   5.644 -0.1620 -0.7305 -0.0842
  703MOL0     H94865  -0.363   6.445   5.246  1.2333 -1.9291  2.7484
  703MOL0     H94866  -0.520   6.534   5.086 -0.4933 -0.8211 -0.0663
  703MOL0     H94867  -1.164   6.524   5.254  0.5867 -0.7082  0.3214
  703MOL0     H94868  -1.381   6.590   5.164 -0.8966  0.1110  0.1999
  703MOL0     H94869  -1.357   6.878   4.842 -0.4868  0.2404 -1.7170
  703MOL0     H94870  -1.378   6.747   4.735  2.3463  1.4110  0.4906
  703MOL0     H94871  -1.598   6.879   4.897  0.1256 -3.6075  1.1383
  703MOL0     H94872  -1.566   6.929   4.723 -0.4810 -0.0921  0.2279
  703MOL0     H94873  -1.647   6.710   4.667 -1.6688  2.2490 -0.7092
  703MOL0     H94874  -1.661   6.655   4.833 -0.9714 -1.5048 -1.8862
  703MOL0     H94875  -1.821   6.873   4.693 -0.3020 -0.4088 -0.6948
  703MOL0     H94876  -1.809   6.851   4.869  0.2134  0.7653 -0.6719
  703MOL0     H94877  -1.892   6.604   4.824 -4.6613 -1.4624  2.0311
  703MOL0     H94878  -1.944   6.672   4.666 -1.3496 -1.7760  0.0548
  703MOL0     H94879  -2.015   6.746   4.946  3.1808  2.4686 -0.8680
  703MOL0     H94880  -2.063   6.859   4.814 -0.2707 -0.5823 -2.1481
  703MOL0     H94881  -2.145   6.563   4.815  1.6956 -0.3669  0.7755
  703MOL0     H94882  -2.184   6.673   4.688  0.7590 -1.4037  0.8727
  703MOL0     H94883  -2.271   6.701   4.986 -3.7829 -0.2303  1.4356
  703MOL0     H94884  -2.310   6.820   4.860  2.6248 -0.8651 -3.0691
  703MOL0     H94885  -1.171   6.732   4.809 -0.5535 -0.5582 -1.6523
  703MOL0     H94886  -0.966   6.670   4.896 -0.4197 -1.5889 -2.7694
  703MOL0     H94887  -0.837   6.424   5.370  1.3932  0.9665  1.7632
  703MOL0     H94888  -0.682   6.327   5.504  0.1504 -0.1566  0.5740
  703MOL0     H94889   0.424   6.534   6.550 -1.7794 -1.0655 -1.2518
  703MOL0     H94890   0.542   6.339   6.574 -0.5485  0.7430  1.4528
  703MOL0     H94891   0.705   5.857   6.468  0.1145 -0.8111  1.1957
  703MOL0     H94892   0.874   5.695   6.499 -1.9600  0.0186 -0.5759
  703MOL0     H94893   1.056   5.582   6.456  3.7702  1.1850 -3.0621
  703MOL0     H94894   1.055   5.597   6.639  2.1903 -1.4350  2.3095
  703MOL0     H94895   1.237   5.454   6.568  1.4720 -0.1714  1.1909
  703MOL0     H94896   1.319   5.610   6.610 -0.3472 -2.1041  1.7213
  703MOL0     H94897   1.419   5.541   6.416  0.3902 -1.7962 -2.0444
  703MOL0     H94898   1.299   5.656   6.344 -1.0946 -0.5831 -0.7634
  703MOL0     H94899   1.341   5.365   6.322  1.4811  1.3695  2.6790
  703MOL0     H94900   1.168   5.404   6.367 -0.9605 -1.5883 -2.0012
  703MOL0     H94901   1.227   5.523   5.954 -2.1885 -0.3937  0.3431
  703MOL0     H94902   1.160   6.009   6.558  0.0469 -0.9054  1.2160
  703MOL0     H94903   0.912   6.272   6.573  0.1615  0.2417  0.0205
  703MOL0     H94904   1.074   6.226   6.621  0.3204 -2.3873 -0.0743
  703MOL0     H94905   1.036   6.272   6.445 -0.3006  2.4254  0.5528
  704MOL0     O94906   9.731   6.903   6.817  0.0712  0.0797 -0.5886
  704MOL0     C94907   9.660   6.967   6.731 -1.3742  0.1954  0.0313
  704MOL0     O94908   9.586   6.908   6.633  0.4076 -0.0872  0.4165
  704MOL0     C94909   9.579   6.771   6.629  0.2119  0.1063  0.8363
  704MOL0     C94910   9.476   6.697   6.690  0.4570 -0.6304 -0.7381
  704MOL0     C94911   9.465   6.561   6.667  0.8684  0.2614 -0.6701
  704MOL0     C94912   9.553   6.488   6.587  0.2789 -0.6720  0.3162
  704MOL0     O94913   9.530   6.355   6.559 -0.3809 -0.6830 -0.0344
  704MOL0     C94914   9.466   6.277   6.657  0.6290  0.4486  0.4900
  704MOL0     C94915   9.484   6.129   6.622  0.4373  0.2657 -0.9041
  704MOL0     C94916   9.634   6.092   6.634  0.2374 -0.0869 -0.1778
  704MOL0     C94917   9.694   5.997   6.527  0.8821 -0.1748  0.5903
  704MOL0     C94918   9.849   5.980   6.528  0.1491 -0.0654  0.0249
  704MOL0     C94919   9.891   5.909   6.399 -0.5944 -0.2041 -0.0331
  704MOL0     C94920   9.870   5.757   6.421  0.8631 -0.2503  0.4104
  704MOL0     C94921   9.997   5.686   6.449  0.0568 -0.6226 -0.3284
  704MOL0     N94922  10.070   5.664   6.323  0.3216 -0.1208  0.0126
  704MOL0     C94923  10.189   5.722   6.293  0.0633  0.5834  1.0034
  704MOL0     C94924  10.205   5.683   6.159  0.9006  0.1620 -0.1730
  704MOL0     C94925  10.312   5.699   6.071 -0.0908  0.0942  0.1205
  704MOL0     C94926  10.404   5.581   6.062 -0.6250  0.2611 -0.2624
  704MOL0     C94927  10.352   5.468   5.963 -0.0328  0.3042 -0.0729
  704MOL0     C94928  10.467   5.362   5.951 -0.5252 -0.5160  0.0491
  704MOL0     O94929  10.443   5.290   5.830 -0.1498  0.3704  0.0495
  704MOL0     C94930  10.531   5.202   5.777  0.5019 -0.0452  0.2009
  704MOL0     C94931  10.500   5.158   5.645 -0.6462  0.7820 -1.0368
  704MOL0     C94932  10.592   5.078   5.580  0.5655  0.9753 -0.7529
  704MOL0     C94933  10.710   5.034   5.645 -0.5850 -0.1731 -0.9845
  704MOL0     C94934  10.807   4.948   5.578  0.7394  0.4503 -0.6774
  704MOL0     O94935  10.772   4.895   5.451 -0.3097  0.1398  0.4965
  704MOL0     C94936  10.815   4.776   5.397 -0.0806 -0.5846 -0.1802
  704MOL0     C94937  10.826   4.764   5.258  1.0010  0.6859  0.1103
  704MOL0     C94938  10.867   4.650   5.189  0.5267  1.1863  0.2372
  704MOL0     C94939  10.915   4.543   5.267  0.9252  1.1258  0.0406
  704MOL0     O94940  10.967   4.424   5.202  0.3283 -0.2223 -0.3654
  704MOL0     C94941  10.940   4.297   5.250 -0.8691  0.8093 -0.5740
  704MOL0     C94942  11.058   4.204   5.215  0.0011 -0.1628  0.6313
  704MOL0     C94943  11.171   4.227   5.322 -0.4013 -0.5040  0.0743
  704MOL0     C94944  11.135   4.166   5.457 -0.0420 -0.1876  0.3228
  704MOL0     C94945  11.220   4.225   5.568  0.1583  0.2441 -0.1788
  704MOL0     C94946  11.186   4.365   5.604  0.4639 -0.3656 -0.2827
  704MOL0     C94947  11.259   4.393   5.732 -0.0073 -0.6694  0.0626
  704MOL0     C94948  11.228   4.539   5.774 -0.4151 -0.5661 -0.3147
  704MOL0    Cl94949  11.060   4.558   5.797  0.3869  0.1782 -0.7775
  704MOL0     C94950  10.925   4.561   5.406 -0.3366  0.3058 -0.8538
  704MOL0     C94951  10.880   4.674   5.466 -0.1892  1.3280 -0.1095
  704MOL0     O94952  10.894   4.901   5.651  0.0384  0.1909  0.2957
  704MOL0     C94953  10.750   5.087   5.772  0.2337 -0.3878 -0.8380
  704MOL0     C94954  10.654   5.169   5.834 -0.9808  0.3979  0.0461
  704MOL0     N94955  10.093   5.604   6.123 -0.4050 -0.2496  0.2655
  704MOL0     N94956  10.018   5.592   6.223 -0.4140  0.0683  0.0085
  704MOL0     C94957   9.656   6.560   6.512  0.2248  0.1659 -0.7045
  704MOL0     C94958   9.661   6.702   6.532 -0.7464  0.5574  0.3050
  704MOL0     C94959   9.673   7.111   6.734 -0.2207  0.3676  0.4650
  704MOL0     C94960   9.647   7.174   6.857 -0.0339  0.6441 -0.4096
  704MOL0     C94961   9.634   7.312   6.865 -0.2623 -0.8326 -0.4358
  704MOL0     C94962   9.674   7.396   6.749  0.4640  0.1977 -0.1477
  704MOL0     O94963   9.695   7.533   6.754  0.0499  0.5242  0.4059
  704MOL0     C94964   9.733   7.589   6.879 -0.4380  0.0607  0.0575
  704MOL0     C94965   9.768   7.734   6.868 -0.0452 -0.7493  0.6379
  704MOL0     C94966   9.639   7.809   6.809 -0.5216  0.2062  1.2479
  704MOL0     C94967   9.687   7.940   6.766 -0.1163 -0.0780 -1.1480
  704MOL0     C94968   9.584   8.025   6.703  0.2444  0.6671 -0.3029
  704MOL0     C94969   9.487   8.086   6.672  0.3761  0.5840 -0.2213
  704MOL0     C94970   9.699   7.334   6.629  0.8399  0.7579 -0.6674
  704MOL0     C94971   9.694   7.190   6.617  0.9397  0.3030 -0.1273
  704MOL0     C94972   9.729   7.143   6.484 -0.5527 -0.4491 -0.3391
  704MOL0     H94973   9.397   6.750   6.743  0.9836  2.0126 -2.3810
  704MOL0     H94974   9.386   6.514   6.726  0.2643 -1.1193 -2.5080
  704MOL0     H94975   9.511   6.290   6.755  0.7599 -1.2238  0.6936
  704MOL0     H94976   9.359   6.299   6.668  0.7050  0.6449  0.8301
  704MOL0     H94977   9.426   6.101   6.533 -0.2369  0.8484 -0.6597
  704MOL0     H94978   9.423   6.074   6.695 -1.9297  0.8257 -2.3372
  704MOL0     H94979   9.657   6.041   6.728  5.6180 -0.2667 -1.2330
  704MOL0     H94980   9.701   6.177   6.621  0.3270 -0.0124  0.7272
  704MOL0     H94981   9.642   5.902   6.545  1.1163 -0.2465  0.9134
  704MOL0     H94982   9.662   6.043   6.434 -0.1987  0.0337  1.0529
  704MOL0     H94983   9.894   6.079   6.538 -1.7440  0.9196 -0.7160
  704MOL0     H94984   9.875   5.925   6.619 -0.0167 -1.7273 -0.8865
  704MOL0     H94985   9.830   5.937   6.312 -4.0130 -2.6507  1.3733
  704MOL0     H94986   9.998   5.925   6.379 -1.0547  0.9467 -1.8549
  704MOL0     H94987   9.809   5.703   6.348 -0.3337  0.0575  1.1350
  704MOL0     H94988   9.819   5.744   6.517 -0.2592  0.9189 -0.0031
  704MOL0     H94989  10.049   5.752   6.519 -1.5658 -0.1127  0.4468
  704MOL0     H94990   9.967   5.589   6.489  1.9849 -1.2471 -0.2999
  704MOL0     H94991  10.257   5.779   6.355  1.7678 -1.8002  1.4383
  704MOL0     H94992  10.277   5.730   5.972 -1.5279  0.4352  0.7138
  704MOL0     H94993  10.375   5.782   6.106  2.4207 -2.4573  2.0558
  704MOL0     H94994  10.502   5.608   6.022  0.2826 -2.0325  0.2360
  704MOL0     H94995  10.421   5.536   6.161  1.2163  0.7955 -0.2944
  704MOL0     H94996  10.345   5.504   5.860  0.0310 -3.4972 -1.5564
  704MOL0     H94997  10.254   5.424   5.985  0.0781  0.1460  0.1121
  704MOL0     H94998  10.473   5.305   6.045  2.2517 -0.3722  0.0474
  704MOL0     H94999  10.558   5.423   5.944 -0.9755  0.3715  1.4622
  704MOL0     H95000  10.402   5.182   5.604 -1.0668 -0.8879 -1.0898
  704MOL0     H95001  10.573   5.053   5.476  0.3303  2.1119 -1.0004
  704MOL0     H95002  10.794   4.850   5.200  0.9267 -0.8205 -2.2316
  704MOL0     H95003  10.870   4.650   5.080 -0.7420  0.8598  0.1865
  704MOL0     H95004  10.905   4.299   5.353 -2.8327  0.3143 -1.1899
  704MOL0     H95005  10.852   4.260   5.197 -0.4501  2.4005 -2.5036
  704MOL0     H95006  11.023   4.101   5.212  0.3426 -0.2542 -1.1302
  704MOL0     H95007  11.098   4.234   5.118  0.0190  0.0167  0.6930
  704MOL0     H95008  11.259   4.172   5.287  0.8099 -0.3815  2.6711
  704MOL0     H95009  11.183   4.335   5.334 -2.8484 -0.3180  1.7390
  704MOL0     H95010  11.157   4.058   5.456  1.9534  0.1778  0.5909
  704MOL0     H95011  11.029   4.183   5.477  0.0594  1.6310 -0.5648
  704MOL0     H95012  11.328   4.225   5.553  0.3180  0.9071  0.8492
  704MOL0     H95013  11.204   4.164   5.658  0.5805  1.5071  0.7795
  704MOL0     H95014  11.213   4.435   5.524  1.4088  1.0201  1.1905
  704MOL0     H95015  11.079   4.378   5.622  0.4976 -0.0194 -0.3332
  704MOL0     H95016  11.367   4.385   5.712 -0.4371 -1.0662 -2.3458
  704MOL0     H95017  11.224   4.326   5.811 -2.7487 -1.1296 -1.4179
  704MOL0     H95018  11.291   4.551   5.863 -2.3770 -0.4511  1.1008
  704MOL0     H95019  11.261   4.610   5.698 -0.9346 -0.3826 -0.3666
  704MOL0     H95020  10.965   4.492   5.480 -1.0560  0.3777 -0.3885
  704MOL0     H95021  10.871   4.670   5.574  0.3484 -4.1688  0.0077
  704MOL0     H95022  10.848   5.077   5.818 -0.8760 -1.7596  1.3917
  704MOL0     H95023  10.679   5.217   5.928  2.2405  0.4590 -0.7426
  704MOL0     H95024   9.706   6.507   6.431  1.2955  3.2292 -2.2343
  704MOL0     H95025   9.731   6.761   6.474  0.9689 -1.3350  0.3563
  704MOL0     H95026   9.614   7.113   6.941 -2.0826  1.7949 -0.2958
  704MOL0     H95027   9.606   7.364   6.956 -0.5043  1.1906 -1.6239
  704MOL0     H95028   9.817   7.533   6.920 -0.1945  0.4410  0.0907
  704MOL0     H95029   9.649   7.579   6.949  0.3876 -0.1482  1.0315
  704MOL0     H95030   9.850   7.746   6.797 -0.6635 -2.7664 -0.4818
  704MOL0     H95031   9.805   7.783   6.959 -2.3195  1.7111  0.3663
  704MOL0     H95032   9.577   7.825   6.898 -0.0427  2.0203  1.2910
  704MOL0     H95033   9.585   7.755   6.731  1.4820  0.1192 -0.1247
  704MOL0     H95034   9.721   7.991   6.857 -0.6647 -2.2971  0.3737
  704MOL0     H95035   9.763   7.930   6.687  0.0037  2.1126 -1.3971
  704MOL0     H95036   9.398   8.136   6.641  0.1325 -0.2364 -0.8492
  704MOL0     H95037   9.718   7.387   6.537  3.1839 -2.0421 -1.9778
  704MOL0     H95038   9.777   7.217   6.420  0.6857 -0.4465  0.5496
  704MOL0     H95039   9.776   7.045   6.504 -2.6055 -1.2141  1.0676
  704MOL0     H95040   9.634   7.128   6.433 -0.9065  1.0187 -0.1430
  705MOL0     O95041   7.011   8.160   5.681  0.1691  0.3108 -0.6040
  705MOL0     C95042   7.073   8.077   5.612  1.3769 -0.4025  0.7518
  705MOL0     O95043   7.051   7.944   5.613 -0.2773  0.5078 -0.5527
  705MOL0     C95044   6.927   7.898   5.623  0.2963 -0.1821  0.2535
  705MOL0     C95045   6.914   7.774   5.684 -0.1664  0.8352  0.4561
  705MOL0     C95046   6.783   7.712   5.701 -1.2443 -0.2893 -0.7124
  705MOL0     C95047   6.673   7.782   5.655  0.4064  0.1229  0.9969
  705MOL0     O95048   6.544   7.738   5.686  0.2897 -0.2633 -0.1681
  705MOL0     C95049   6.442   7.757   5.594 -0.6478  0.0432 -0.3816
  705MOL0     C95050   6.334   7.651   5.593 -0.1593 -0.5550 -0.4762
  705MOL0     C95051   6.403   7.511   5.588 -0.2451 -0.7082  0.3422
  705MOL0     C95052   6.317   7.395   5.541  0.7635 -0.5576  0.3410
  705MOL0     C95053   6.389   7.281   5.462  0.4888  0.4483  0.4412
  705MOL0     C95054   6.502   7.218   5.534 -0.5365  0.3200  0.1738
  705MOL0     C95055   6.645   7.273   5.505 -0.0327  0.5421 -0.8954
  705MOL0     C95056   6.753   7.178   5.555  0.3095  0.6981 -0.0898
  705MOL0     N95057   6.881   7.241   5.536  0.2308  0.3102 -0.3159
  705MOL0     C95058   6.958   7.309   5.627  0.0568  0.3200  0.7878
  705MOL0     C95059   7.062   7.360   5.560  0.9264  0.4526 -0.1374
  705MOL0     C95060   7.173   7.439   5.619 -0.3662  0.0566  0.0154
  705MOL0     C95061   7.282   7.352   5.686  0.8579 -0.3662  0.4163
  705MOL0     C95062   7.326   7.408   5.820  0.8316  0.2593  0.0625
  705MOL0     C95063   7.460   7.339   5.867  0.0086  0.3312 -0.1605
  705MOL0     O95064   7.515   7.413   5.977  0.6284 -0.3793  0.0534
  705MOL0     C95065   7.650   7.393   5.990 -0.0354  0.1593 -0.6477
  705MOL0     C95066   7.724   7.508   5.973 -0.0422 -0.4208  0.6491
  705MOL0     C95067   7.866   7.503   5.987  0.2706 -0.6310  0.1355
  705MOL0     C95068   7.931   7.382   6.026  1.1592  0.4644  0.3569
  705MOL0     C95069   8.079   7.390   6.048  0.5587 -0.5974  0.2220
  705MOL0     O95070   8.138   7.511   6.064  0.8476  0.5553  0.4484
  705MOL0     C95071   8.274   7.529   6.080 -0.2593  0.7435 -0.1119
  705MOL0     C95072   8.320   7.649   6.019 -0.2930 -0.7041  0.1724
  705MOL0     C95073   8.458   7.682   6.024  0.5407  0.4052 -0.4044
  705MOL0     C95074   8.543   7.600   6.094 -0.1776 -0.3811  0.5692
  705MOL0     O95075   8.676   7.621   6.087 -0.0003  0.4322 -0.1177
  705MOL0     C95076   8.733   7.727   6.167  0.5711 -0.2349 -1.2329
  705MOL0     C95077   8.868   7.665   6.219  0.3793 -0.1878  1.1069
  705MOL0     C95078   8.877   7.674   6.370 -0.5205  0.2568  1.0917
  705MOL0     C95079   9.013   7.614   6.414 -0.5911 -0.0099  0.2004
  705MOL0     C95080   9.027   7.607   6.574  0.8850  0.6089  0.1906
  705MOL0     C95081   9.169   7.573   6.603  0.0848  0.2767 -0.1522
  705MOL0     C95082   9.222   7.603   6.743  0.6065  0.3354  0.3406
  705MOL0     C95083   9.348   7.536   6.805  0.7035  0.1327 -0.4094
  705MOL0    Cl95084   9.377   7.642   6.951  0.3535 -0.1603  0.4251
  705MOL0     C95085   8.507   7.475   6.147  0.7523  0.5778 -0.1720
  705MOL0     C95086   8.366   7.447   6.150 -0.1144  0.2101 -0.2707
  705MOL0     O95087   8.138   7.284   6.038  0.5750 -0.7344  0.4031
  705MOL0     C95088   7.848   7.264   6.056  0.0744  0.7183 -0.1375
  705MOL0     C95089   7.712   7.271   6.037  0.2788  0.0836  0.2069
  705MOL0     N95090   7.060   7.312   5.430 -0.5143 -0.1497 -0.7611
  705MOL0     N95091   6.956   7.238   5.419 -0.0212 -0.2503 -0.6448
  705MOL0     C95092   6.689   7.912   5.594 -0.7229  0.0226  0.2703
  705MOL0     C95093   6.815   7.967   5.575  0.4272  0.6910  0.6207
  705MOL0     C95094   7.180   8.121   5.518 -0.2051 -0.1277  0.1898
  705MOL0     C95095   7.276   8.025   5.469  0.3229  0.4479 -0.6916
  705MOL0     C95096   7.368   8.065   5.373  0.1301  0.5835 -0.2482
  705MOL0     C95097   7.368   8.192   5.317  0.3744 -0.3080 -1.0653
  705MOL0     O95098   7.469   8.243   5.230  0.5904  0.3306  0.2692
  705MOL0     C95099   7.506   8.142   5.137  0.2299  0.0379  0.6824
  705MOL0     C95100   7.654   8.126   5.155 -0.0808 -0.7571  0.0672
  705MOL0     C95101   7.713   8.043   5.039  0.2687 -1.9803 -0.6139
  705MOL0     C95102   7.832   7.975   5.087 -0.2028  0.9150  0.3265
  705MOL0     C95103   7.933   8.072   5.121 -0.0185 -0.0016 -0.1468
  705MOL0     C95104   8.013   8.165   5.142 -0.2657 -0.3508 -0.5873
  705MOL0     C95105   7.278   8.285   5.363 -0.2973  0.2304 -0.4822
  705MOL0     C95106   7.186   8.251   5.467 -0.7826 -1.2325  0.1192
  705MOL0     C95107   7.086   8.357   5.496 -0.4442 -0.1358  0.6260
  705MOL0     H95108   7.006   7.723   5.711  0.9161  0.4582 -3.3811
  705MOL0     H95109   6.760   7.614   5.742  1.4274 -1.0692 -0.8697
  705MOL0     H95110   6.390   7.847   5.629  0.3920 -0.4813  2.9087
  705MOL0     H95111   6.482   7.762   5.493 -1.4925 -3.3634 -1.0109
  705MOL0     H95112   6.272   7.665   5.504  0.3797  1.6119 -0.5741
  705MOL0     H95113   6.279   7.652   5.688  2.4511  3.1791  1.2387
  705MOL0     H95114   6.453   7.490   5.683 -1.2915 -2.2496  0.5851
  705MOL0     H95115   6.485   7.517   5.516 -0.6280 -0.6687 -0.0964
  705MOL0     H95116   6.266   7.350   5.627  2.1492 -1.0523  0.9420
  705MOL0     H95117   6.234   7.426   5.477  2.4797  3.2234 -0.3341
  705MOL0     H95118   6.321   7.199   5.435 -0.5573  1.3140  0.3863
  705MOL0     H95119   6.435   7.332   5.377  2.3561  1.1294  1.8029
  705MOL0     H95120   6.480   7.194   5.638  1.4820  0.1034  0.5953
  705MOL0     H95121   6.499   7.116   5.494  0.7562  0.5535 -0.5622
  705MOL0     H95122   6.661   7.367   5.557  0.0122  1.0455 -1.8007
  705MOL0     H95123   6.665   7.286   5.398  2.9827 -2.6591 -0.8760
  705MOL0     H95124   6.755   7.166   5.664  4.6265  1.2970  0.0339
  705MOL0     H95125   6.739   7.081   5.508  2.3521 -0.0148  0.6933
  705MOL0     H95126   6.942   7.319   5.734  4.0367 -0.1319  1.5672
  705MOL0     H95127   7.205   7.504   5.536 -2.8881  0.8973 -0.3631
  705MOL0     H95128   7.117   7.505   5.685 -2.7165 -0.3234 -1.4786
  705MOL0     H95129   7.243   7.252   5.707 -3.8788  0.6696 -2.0314
  705MOL0     H95130   7.363   7.350   5.614 -0.0526  0.9236 -0.6808
  705MOL0     H95131   7.247   7.391   5.894  1.0966 -0.5675  0.1617
  705MOL0     H95132   7.325   7.517   5.809  0.3250  0.1720 -0.7482
  705MOL0     H95133   7.532   7.332   5.785  0.6567 -2.7039  0.5370
  705MOL0     H95134   7.429   7.237   5.891 -1.7432  1.1472  1.2407
  705MOL0     H95135   7.690   7.611   5.963 -0.3261 -0.5832 -0.1814
  705MOL0     H95136   7.922   7.594   5.970 -4.5797  2.2221 -3.1038
  705MOL0     H95137   8.251   7.716   5.967  1.1808 -0.7621 -1.9594
  705MOL0     H95138   8.498   7.772   5.978 -0.9384  0.0291 -2.6110
  705MOL0     H95139   8.752   7.816   6.106 -0.3540  0.1138 -1.0342
  705MOL0     H95140   8.667   7.748   6.252 -1.5498  0.0844 -2.8751
  705MOL0     H95141   8.872   7.560   6.188 -3.3598  0.5030 -2.6684
  705MOL0     H95142   8.948   7.725   6.176 -0.0914  1.1663  2.0409
  705MOL0     H95143   8.875   7.776   6.412 -0.7742  1.0572 -0.7943
  705MOL0     H95144   8.793   7.625   6.420 -0.7871 -0.1910  0.2042
  705MOL0     H95145   9.101   7.658   6.368 -0.1520 -0.9481  0.1175
  705MOL0     H95146   9.013   7.516   6.366  0.9857  0.7833 -1.5472
  705MOL0     H95147   8.965   7.532   6.624  1.2435 -0.2336 -0.5846
  705MOL0     H95148   9.005   7.708   6.609 -0.3773  0.4364 -0.0686
  705MOL0     H95149   9.179   7.464   6.595  0.5078  0.2711  0.3617
  705MOL0     H95150   9.236   7.622   6.532  2.9604 -0.1371  2.0793
  705MOL0     H95151   9.130   7.597   6.802 -0.9734 -0.6738 -2.0338
  705MOL0     H95152   9.223   7.710   6.768 -3.7995  0.1192  2.4413
  705MOL0     H95153   9.322   7.434   6.836 -1.6393 -0.0267 -2.5696
  705MOL0     H95154   9.423   7.528   6.726 -0.3288 -1.1727 -1.2911
  705MOL0     H95155   8.587   7.412   6.185 -0.7452 -2.4735 -1.7271
  705MOL0     H95156   8.309   7.363   6.190 -1.1394 -1.0234 -3.9131
  705MOL0     H95157   7.890   7.170   6.091  0.5198  1.0056  0.1103
  705MOL0     H95158   7.647   7.187   6.054  0.2381 -0.3338 -1.8518
  705MOL0     H95159   6.604   7.971   5.561 -0.8843  0.9889  2.2702
  705MOL0     H95160   6.830   8.070   5.546 -0.1501  0.2976 -1.1807
  705MOL0     H95161   7.278   7.926   5.513  0.2127  0.0855 -1.4907
  705MOL0     H95162   7.444   7.991   5.353 -0.9201 -1.0471  1.5306
  705MOL0     H95163   7.480   8.169   5.035  1.0968  0.0022  0.4470
  705MOL0     H95164   7.459   8.045   5.157  2.2972 -0.7450  2.0389
  705MOL0     H95165   7.659   8.077   5.252 -3.1415 -1.1463  0.1289
  705MOL0     H95166   7.698   8.225   5.169 -2.8182  0.4143  1.2805
  705MOL0     H95167   7.743   8.094   4.947  2.8522  2.9002  2.4742
  705MOL0     H95168   7.643   7.965   5.007 -1.1985 -1.6619  1.6110
  705MOL0     H95169   7.798   7.930   5.181 -1.4050 -0.8947 -0.9045
  705MOL0     H95170   7.853   7.891   5.020 -1.1640 -0.8825  2.1723
  705MOL0     H95171   8.087   8.243   5.147 -1.1893  0.9864 -4.3621
  705MOL0     H95172   7.267   8.384   5.321 -1.4308  0.2030 -0.2855
  705MOL0     H95173   7.109   8.407   5.591  1.0983  0.1310  0.1483
  705MOL0     H95174   7.099   8.444   5.431  0.0719  0.1239  1.0691
  705MOL0     H95175   6.983   8.321   5.504 -0.6608  0.6202  1.4471
  706MOL0     O95176   0.080   3.351   6.533 -0.2032  0.2391  0.7782
  706MOL0     C95177  -0.030   3.337   6.576 -0.3580 -0.1702 -0.8801
  706MOL0     O95178  -0.062   3.233   6.665  0.1171 -0.1967 -0.2432
  706MOL0     C95179   0.027   3.129   6.673 -0.1003  0.7010 -0.2008
  706MOL0     C95180   0.071   3.108   6.796  0.3405 -0.2026  0.3003
  706MOL0     C95181   0.159   3.012   6.830 -0.3420 -0.3391 -0.5599
  706MOL0     C95182   0.208   2.921   6.743 -0.6433 -0.0624  0.2270
  706MOL0     O95183   0.296   2.831   6.791  0.2896 -0.1710  0.6953
  706MOL0     C95184   0.365   2.750   6.699 -1.1455 -0.5086 -0.4500
  706MOL0     C95185   0.442   2.646   6.783 -0.0855 -0.1546  0.0855
  706MOL0     C95186   0.560   2.581   6.706  0.2880 -0.5017 -0.3163
  706MOL0     C95187   0.519   2.525   6.568 -0.1816  0.0823 -0.0485
  706MOL0     C95188   0.626   2.453   6.494 -0.1785  0.0340 -0.6559
  706MOL0     C95189   0.766   2.531   6.474  0.4927  0.4797  0.4465
  706MOL0     C95190   0.883   2.440   6.435  0.7249 -0.6591 -0.5216
  706MOL0     C95191   0.860   2.357   6.306 -0.7602  0.1887  0.4978
  706MOL0     N95192   0.978   2.275   6.265  0.0846  0.0732 -0.9555
  706MOL0     C95193   1.001   2.240   6.137 -0.0886 -0.1666  0.2418
  706MOL0     C95194   1.126   2.178   6.147  0.0928  0.2170 -0.3040
  706MOL0     C95195   1.210   2.126   6.028  0.2318 -0.7527 -0.2951
  706MOL0     C95196   1.324   2.225   5.999 -0.5629  0.0702 -0.2136
  706MOL0     C95197   1.407   2.187   5.873  0.3503  0.3282  0.0242
  706MOL0     C95198   1.430   2.032   5.854 -0.1755  0.2290 -0.1311
  706MOL0     O95199   1.505   2.002   5.733  0.5895 -0.0200  0.5719
  706MOL0     C95200   1.641   1.995   5.736  0.1910 -0.2714  0.2408
  706MOL0     C95201   1.694   1.935   5.626  0.4115 -0.9588  0.4736
  706MOL0     C95202   1.832   1.924   5.603  0.1952 -0.6446  0.4277
  706MOL0     C95203   1.918   1.965   5.712  0.3084  0.1306  0.0112
  706MOL0     C95204   2.064   1.954   5.693 -0.6023  0.2895 -0.9422
  706MOL0     O95205   2.140   1.959   5.808  0.6924 -0.4664  0.7583
  706MOL0     C95206   2.276   1.988   5.804 -0.8818 -0.6207 -0.6121
  706MOL0     C95207   2.365   1.902   5.873 -0.7744  0.1069  0.7620
  706MOL0     C95208   2.501   1.933   5.883  0.9357  1.1335  0.6804
  706MOL0     C95209   2.561   2.044   5.811 -0.1130 -0.6623 -0.1228
  706MOL0     O95210   2.693   2.078   5.828 -0.3016  1.0940 -0.1966
  706MOL0     C95211   2.776   1.990   5.886  0.2693 -0.1122 -1.0636
  706MOL0     C95212   2.917   2.045   5.886  0.6203  0.3352 -0.4066
  706MOL0     C95213   2.970   2.047   5.737  0.1060 -0.0844 -0.5242
  706MOL0     C95214   3.118   2.090   5.738  0.2911 -0.1761 -0.1177
  706MOL0     C95215   3.208   2.039   5.628 -0.8955  0.1774  0.0862
  706MOL0     C95216   3.353   2.080   5.626 -0.1760 -0.1827 -0.0981
  706MOL0     C95217   3.385   2.222   5.664 -0.8596  1.1278 -0.2208
  706MOL0     C95218   3.535   2.236   5.634  1.3340  0.0819  0.3309
  706MOL0    Cl95219   3.575   2.187   5.467  0.2853  0.5602  0.1240
  706MOL0     C95220   2.475   2.129   5.740 -0.6279  0.1952 -0.2332
  706MOL0     C95221   2.339   2.106   5.741  0.7678 -0.1078 -0.4003
  706MOL0     O95222   2.102   1.933   5.581  0.3386  0.0847  0.2733
  706MOL0     C95223   1.862   2.028   5.829 -0.3788  1.0570 -0.6912
  706MOL0     C95224   1.724   2.047   5.842 -0.6199  0.1753 -0.5565
  706MOL0     N95225   1.167   2.182   6.288  0.0989  0.6004  0.0137
  706MOL0     N95226   1.077   2.255   6.346 -0.0069  0.8158  0.4549
  706MOL0     C95227   0.163   2.938   6.606 -0.0833  0.2136 -0.6049
  706MOL0     C95228   0.088   3.051   6.565  0.7705 -0.7993  0.3353
  706MOL0     C95229  -0.142   3.417   6.529  0.1962  0.3867 -0.4899
  706MOL0     C95230  -0.275   3.373   6.544  0.0952 -0.5878 -0.1012
  706MOL0     C95231  -0.383   3.461   6.523  0.4442 -0.7623 -0.4725
  706MOL0     C95232  -0.367   3.592   6.466 -0.3375  0.0863 -0.2211
  706MOL0     O95233  -0.471   3.684   6.447 -0.4614 -0.0639 -0.0622
  706MOL0     C95234  -0.468   3.761   6.328  0.9298  0.2625  0.7495
  706MOL0     C95235  -0.565   3.699   6.215 -0.0191  0.5917  0.0056
  706MOL0     C95236  -0.699   3.658   6.275  0.6537 -0.4413 -0.8764
  706MOL0     C95237  -0.780   3.774   6.334  0.3470 -0.5161  0.4444
  706MOL0     C95238  -0.785   3.888   6.246 -0.7863  0.8158  0.0696
  706MOL0     C95239  -0.767   3.977   6.169 -0.5106 -0.0900 -0.3859
  706MOL0     C95240  -0.234   3.640   6.463 -0.1270 -0.3125 -0.2957
  706MOL0     C95241  -0.127   3.554   6.502  0.2826 -0.3561 -0.6344
  706MOL0     C95242   0.010   3.623   6.494  0.4628  0.2386 -0.2016
  706MOL0     H95243   0.033   3.168   6.879 -1.1834  0.1266 -0.5934
  706MOL0     H95244   0.190   3.009   6.934 -0.9298  2.5350 -0.2270
  706MOL0     H95245   0.302   2.702   6.623  1.1916 -1.0847 -2.1519
  706MOL0     H95246   0.440   2.811   6.648  1.6180 -1.7876  1.7833
  706MOL0     H95247   0.367   2.573   6.815  0.0661 -1.9547 -3.1855
  706MOL0     H95248   0.488   2.695   6.869 -0.1929  0.3089 -0.1194
  706MOL0     H95249   0.600   2.497   6.763  2.6369  0.2000 -0.8415
  706MOL0     H95250   0.637   2.655   6.685 -0.6524  0.2340 -1.3169
  706MOL0     H95251   0.438   2.452   6.578  0.1407 -0.1482  0.9380
  706MOL0     H95252   0.480   2.608   6.508  2.0038  0.6463 -0.7725
  706MOL0     H95253   0.648   2.367   6.559  2.3905  0.4709 -0.8368
  706MOL0     H95254   0.591   2.418   6.396  0.2576 -0.8878 -0.5017
  706MOL0     H95255   0.758   2.613   6.402  0.4199 -2.2655 -2.9334
  706MOL0     H95256   0.794   2.580   6.568  1.7648  2.7276 -1.0142
  706MOL0     H95257   0.894   2.376   6.523 -0.8743 -1.0171 -0.5509
  706MOL0     H95258   0.970   2.505   6.425 -1.1712  1.8450 -1.9018
  706MOL0     H95259   0.772   2.291   6.312 -0.9689  0.4756  0.5847
  706MOL0     H95260   0.841   2.423   6.221  0.6343  1.7769  1.3858
  706MOL0     H95261   0.940   2.264   6.051 -0.5646  2.1724  1.1563
  706MOL0     H95262   1.252   2.028   6.054 -1.4064 -0.9927  1.6459
  706MOL0     H95263   1.149   2.128   5.937 -1.9294 -0.8964  1.0970
  706MOL0     H95264   1.276   2.322   5.983  0.2767  0.0789 -3.5664
  706MOL0     H95265   1.401   2.223   6.077 -1.2446  0.5652  0.4949
  706MOL0     H95266   1.508   2.226   5.891  1.5520 -2.5354  0.0776
  706MOL0     H95267   1.368   2.240   5.786 -0.9432 -2.0655 -0.9537
  706MOL0     H95268   1.334   1.982   5.837 -1.1035  2.3836 -1.7898
  706MOL0     H95269   1.486   1.995   5.939  2.5072  0.4822 -1.6691
  706MOL0     H95270   1.624   1.901   5.552  2.1801 -2.4391 -0.5984
  706MOL0     H95271   1.871   1.883   5.510  1.3032  2.8931 -0.8170
  706MOL0     H95272   2.333   1.822   5.939  3.7411 -1.4302  1.3931
  706MOL0     H95273   2.557   1.868   5.949 -0.6357 -0.6688  0.3083
  706MOL0     H95274   2.745   1.988   5.991  1.8588  1.9107 -0.4827
  706MOL0     H95275   2.784   1.897   5.830  0.0705  0.8084 -2.6597
  706MOL0     H95276   2.913   2.142   5.937 -0.6602 -0.4956  1.1669
  706MOL0     H95277   2.974   1.976   5.949 -3.2093 -0.6443  2.3519
  706MOL0     H95278   2.966   1.946   5.697 -1.1656 -0.7103  1.0868
  706MOL0     H95279   2.904   2.113   5.679 -1.0123 -0.9081 -0.2132
  706MOL0     H95280   3.163   2.050   5.829 -1.8192 -4.0937 -0.5963
  706MOL0     H95281   3.119   2.200   5.735  1.0846 -0.1720  0.1198
  706MOL0     H95282   3.177   2.063   5.526  2.4220  1.4637 -0.7262
  706MOL0     H95283   3.203   1.930   5.640  2.1192 -0.0433  0.1242
  706MOL0     H95284   3.408   2.016   5.695  2.7574  1.1936 -1.0071
  706MOL0     H95285   3.379   2.057   5.522  2.2049  1.1539  0.1374
  706MOL0     H95286   3.369   2.241   5.771 -3.0761 -2.2408  0.1795
  706MOL0     H95287   3.333   2.296   5.604  1.2796  2.5510 -0.4397
  706MOL0     H95288   3.565   2.339   5.657  3.4857 -1.3193  5.3355
  706MOL0     H95289   3.588   2.179   5.711  1.2279  1.7421  1.6866
  706MOL0     H95290   2.521   2.212   5.688 -2.7937  2.7432  1.6910
  706MOL0     H95291   2.279   2.182   5.692  1.3436  1.5439  1.3025
  706MOL0     H95292   1.926   2.044   5.915 -0.5777  2.0149 -0.7107
  706MOL0     H95293   1.707   2.096   5.937  2.3115 -1.5391  1.0003
  706MOL0     H95294   0.188   2.872   6.524  0.4478  0.1856 -0.4254
  706MOL0     H95295   0.067   3.086   6.465 -0.4869  0.7156  1.0879
  706MOL0     H95296  -0.293   3.274   6.586  0.5888 -0.9925 -0.8276
  706MOL0     H95297  -0.486   3.427   6.531  0.1955  0.1346  0.2679
  706MOL0     H95298  -0.370   3.750   6.280  0.6387 -1.4166  0.4814
  706MOL0     H95299  -0.472   3.869   6.345 -1.5534  0.1717  1.0266
  706MOL0     H95300  -0.524   3.608   6.172 -1.0241 -0.5585  1.3997
  706MOL0     H95301  -0.572   3.766   6.128 -0.9023 -0.3027 -0.6361
  706MOL0     H95302  -0.684   3.583   6.353  0.6232 -0.0784 -0.5185
  706MOL0     H95303  -0.755   3.603   6.198 -0.8183 -2.2757  1.3874
  706MOL0     H95304  -0.883   3.743   6.356 -0.5208  1.2057 -0.9815
  706MOL0     H95305  -0.729   3.800   6.428  1.9035 -0.2627 -0.4343
  706MOL0     H95306  -0.731   4.055   6.105  2.5118 -0.1986  1.0392
  706MOL0     H95307  -0.208   3.741   6.433 -0.3857  0.0624  0.6830
  706MOL0     H95308   0.084   3.584   6.565  0.9902  0.9595 -0.3419
  706MOL0     H95309   0.056   3.602   6.397  1.8394 -1.2730  0.7169
  706MOL0     H95310   0.003   3.730   6.517  0.4225 -0.3027  2.7088
  707MOL0     O95311   4.578   5.275   4.014  0.0359 -0.1469 -0.0455
  707MOL0     C95312   4.552   5.392   4.029  0.5085 -0.2712 -0.4044
  707MOL0     O95313   4.634   5.504   4.010 -0.0966 -0.6016  0.2491
  707MOL0     C95314   4.741   5.482   3.935 -0.9021  0.1164  0.5219
  707MOL0     C95315   4.852   5.410   3.988  0.3972 -0.0719  0.1849
  707MOL0     C95316   4.958   5.385   3.902 -0.3438 -0.3036 -0.1542
  707MOL0     C95317   4.956   5.431   3.768  0.1707  1.1263 -0.0492
  707MOL0     O95318   5.065   5.398   3.686  0.2321 -0.0896  0.5732
  707MOL0     C95319   5.198   5.387   3.727 -0.5388 -0.4598 -0.3082
  707MOL0     C95320   5.280   5.436   3.603  0.6145 -0.0520 -0.7924
  707MOL0     C95321   5.409   5.359   3.559 -0.9896  0.1698 -0.6676
  707MOL0     C95322   5.474   5.435   3.442  0.2150 -0.5004 -1.3074
  707MOL0     C95323   5.610   5.367   3.416 -0.9260 -0.1893  0.5855
  707MOL0     C95324   5.727   5.398   3.519 -0.6891  0.0369 -0.2117
  707MOL0     C95325   5.789   5.528   3.477 -0.8071 -0.2397 -0.1028
  707MOL0     C95326   5.925   5.563   3.546  0.7737  0.0829 -0.4790
  707MOL0     N95327   6.022   5.461   3.512  0.1893 -0.3066 -0.9712
  707MOL0     C95328   6.074   5.367   3.601  0.2903 -0.3694  0.0955
  707MOL0     C95329   6.181   5.305   3.538  0.1031 -1.0304 -0.8123
  707MOL0     C95330   6.277   5.209   3.607 -0.3871  0.0976 -0.3139
  707MOL0     C95331   6.319   5.086   3.514  0.2643 -0.3644 -0.0611
  707MOL0     C95332   6.420   4.991   3.571  1.0343  0.5600  0.0672
  707MOL0     C95333   6.478   4.889   3.469  0.4180  0.1480 -0.5423
  707MOL0     O95334   6.372   4.802   3.412 -0.0535  0.1714 -0.0000
  707MOL0     C95335   6.345   4.689   3.486  0.9734 -1.0787  0.5470
  707MOL0     C95336   6.384   4.656   3.619 -0.1276  0.1809  0.1622
  707MOL0     C95337   6.339   4.537   3.682 -0.1914  0.1166 -0.5792
  707MOL0     C95338   6.269   4.442   3.604 -0.4413  0.2924  0.7980
  707MOL0     C95339   6.248   4.310   3.656 -1.3840  0.2560 -0.2126
  707MOL0     O95340   6.262   4.291   3.798 -0.1145  0.0695  0.5319
  707MOL0     C95341   6.272   4.165   3.847  0.5830  1.1099  0.0976
  707MOL0     C95342   6.401   4.106   3.856  0.4316  0.0553 -0.3342
  707MOL0     C95343   6.411   3.978   3.917  0.2515 -0.5125 -0.3957
  707MOL0     C95344   6.290   3.916   3.963  0.5358 -0.5287 -0.2144
  707MOL0     O95345   6.319   3.802   4.039  0.0652 -1.1966  0.6278
  707MOL0     C95346   6.204   3.752   4.109  1.0464  0.8357  0.4955
  707MOL0     C95347   6.245   3.666   4.227 -0.5711  0.1661 -0.1658
  707MOL0     C95348   6.354   3.735   4.311  1.0979  0.0408 -0.2340
  707MOL0     C95349   6.491   3.667   4.278 -0.2623  0.3605 -0.0462
  707MOL0     C95350   6.618   3.736   4.337 -0.1896 -0.4479 -0.1748
  707MOL0     C95351   6.605   3.792   4.487 -0.1435  0.4499  1.2330
  707MOL0     C95352   6.737   3.763   4.567 -1.4510  0.0586  0.1403
  707MOL0     C95353   6.738   3.789   4.717 -0.1458 -0.9605 -0.4564
  707MOL0    Cl95354   6.598   3.710   4.790  0.1346  0.9212 -0.0198
  707MOL0     C95355   6.167   3.973   3.930  0.2492  0.0066 -0.0434
  707MOL0     C95356   6.156   4.095   3.877  0.0861  0.4452 -0.6952
  707MOL0     O95357   6.240   4.221   3.569 -0.1210  0.2536 -0.4868
  707MOL0     C95358   6.232   4.475   3.473 -0.6918  1.2602 -0.1306
  707MOL0     C95359   6.270   4.597   3.416  0.7373 -0.9251 -1.6323
  707MOL0     N95360   6.187   5.357   3.410  0.3280 -0.7229 -0.4270
  707MOL0     N95361   6.104   5.448   3.395 -0.1552 -0.4224 -0.1619
  707MOL0     C95362   4.848   5.501   3.718 -0.0078  0.9351  0.0896
  707MOL0     C95363   4.743   5.535   3.804 -0.3806  0.6955 -0.1385
  707MOL0     C95364   4.434   5.432   4.102  0.2471  0.5243  0.3045
  707MOL0     C95365   4.309   5.462   4.044  0.0448 -0.1487  0.5129
  707MOL0     C95366   4.203   5.492   4.120  1.0042 -0.0122  0.0267
  707MOL0     C95367   4.217   5.498   4.262  0.1742  0.8481 -0.3311
  707MOL0     O95368   4.099   5.536   4.335 -0.0189 -0.2842  0.4664
  707MOL0     C95369   4.046   5.435   4.408  1.0056 -0.3143  0.3904
  707MOL0     C95370   3.903   5.463   4.471  0.3509 -0.2840  0.7378
  707MOL0     C95371   3.797   5.500   4.370 -0.0589 -0.3068  0.2187
  707MOL0     C95372   3.659   5.450   4.390 -0.3452 -0.5570  0.3833
  707MOL0     C95373   3.563   5.476   4.281 -0.9016  0.7049  0.5408
  707MOL0     C95374   3.476   5.508   4.209 -0.1762 -0.8759  0.3492
  707MOL0     C95375   4.338   5.480   4.319  0.7852 -0.8305  0.7358
  707MOL0     C95376   4.445   5.442   4.244 -0.1076  0.0749 -0.1601
  707MOL0     C95377   4.569   5.409   4.314  0.1516  0.4111  0.2646
  707MOL0     H95378   4.833   5.379   4.090  0.1809 -0.2055  0.1036
  707MOL0     H95379   5.042   5.332   3.946 -1.8904 -0.5422  2.6940
  707MOL0     H95380   5.230   5.438   3.818  2.5403 -1.4439 -0.7418
  707MOL0     H95381   5.232   5.283   3.733  2.0224 -0.0147 -4.0191
  707MOL0     H95382   5.297   5.544   3.610  2.7738 -0.1689 -3.0320
  707MOL0     H95383   5.205   5.446   3.523 -0.7435  1.6795  0.6018
  707MOL0     H95384   5.371   5.258   3.544 -0.5467  0.1964 -2.1365
  707MOL0     H95385   5.487   5.363   3.636 -0.5066  0.0545 -1.1445
  707MOL0     H95386   5.414   5.433   3.351 -0.8170  0.8021 -0.7076
  707MOL0     H95387   5.482   5.542   3.467 -1.5535 -0.9805  1.8631
  707MOL0     H95388   5.599   5.259   3.422  1.1168 -0.4386  0.8966
  707MOL0     H95389   5.644   5.391   3.315  1.8613  1.4031  1.7606
  707MOL0     H95390   5.678   5.400   3.617 -0.1692 -2.1353  0.1379
  707MOL0     H95391   5.804   5.320   3.521  1.2712  1.8323 -1.7701
  707MOL0     H95392   5.713   5.607   3.481 -2.8576 -1.7655 -3.8882
  707MOL0     H95393   5.811   5.531   3.369 -1.1181  1.0789 -0.1488
  707MOL0     H95394   5.974   5.654   3.510 -0.6238 -0.3989 -4.0475
  707MOL0     H95395   5.897   5.567   3.651  2.1506 -0.5608 -0.0633
  707MOL0     H95396   6.035   5.358   3.702 -1.0290 -0.5005 -0.4084
  707MOL0     H95397   6.363   5.246   3.663 -2.1066 -0.6918  3.1027
  707MOL0     H95398   6.224   5.161   3.690  0.8760  0.9104  0.9945
  707MOL0     H95399   6.225   5.034   3.492 -1.2247  1.6692  1.2119
  707MOL0     H95400   6.359   5.127   3.421  0.4083  1.6216  0.8409
  707MOL0     H95401   6.383   4.927   3.651  1.5662 -1.6577 -1.3802
  707MOL0     H95402   6.499   5.054   3.613  3.8506 -0.8396 -2.7620
  707MOL0     H95403   6.563   4.836   3.513 -1.4460  0.7819  4.5054
  707MOL0     H95404   6.516   4.939   3.379 -0.3921 -2.7361 -2.6049
  707MOL0     H95405   6.451   4.715   3.682  0.4845  1.3619 -1.5344
  707MOL0     H95406   6.360   4.506   3.784  3.1370 -1.6908 -1.6783
  707MOL0     H95407   6.490   4.153   3.817 -0.4521  0.6808 -1.6583
  707MOL0     H95408   6.505   3.925   3.921  0.9797  0.4564 -3.0707
  707MOL0     H95409   6.138   3.833   4.142  0.5940  1.2077 -1.1824
  707MOL0     H95410   6.142   3.679   4.055 -0.3190  2.3804 -0.1070
  707MOL0     H95411   6.162   3.643   4.295  0.0621 -0.6793  0.3429
  707MOL0     H95412   6.283   3.570   4.190 -1.9686 -0.6293  0.3636
  707MOL0     H95413   6.356   3.841   4.287 -2.2243 -0.1385 -1.7911
  707MOL0     H95414   6.332   3.725   4.418  0.9906  0.0509 -0.2556
  707MOL0     H95415   6.503   3.640   4.173 -1.6122 -2.0849  0.3241
  707MOL0     H95416   6.472   3.568   4.323  0.2731  1.0103  1.7077
  707MOL0     H95417   6.651   3.818   4.272  0.5228 -0.2122  0.4634
  707MOL0     H95418   6.693   3.658   4.344 -1.3921 -1.5203  1.4923
  707MOL0     H95419   6.572   3.897   4.491 -0.0428  0.7693 -2.6698
  707MOL0     H95420   6.532   3.723   4.531 -0.6526 -1.3266 -2.1089
  707MOL0     H95421   6.812   3.817   4.509 -1.7735  2.1733  1.5801
  707MOL0     H95422   6.753   3.655   4.556 -0.7074 -0.0375  1.8643
  707MOL0     H95423   6.822   3.752   4.775 -0.1674  1.4696  1.2759
  707MOL0     H95424   6.719   3.894   4.740  1.5870 -0.6889 -0.1730
  707MOL0     H95425   6.075   3.930   3.969  1.0920 -1.3796  0.4709
  707MOL0     H95426   6.057   4.139   3.875 -0.6531 -1.1643 -1.5144
  707MOL0     H95427   6.172   4.414   3.407  0.6610 -0.1964 -0.0718
  707MOL0     H95428   6.253   4.629   3.314 -0.0934  1.0635 -0.9247
  707MOL0     H95429   4.844   5.528   3.613  4.4153  4.1124  0.4771
  707MOL0     H95430   4.655   5.593   3.781 -0.8655  1.4156  3.0820
  707MOL0     H95431   4.294   5.454   3.937  3.8217 -0.0139 -0.1283
  707MOL0     H95432   4.105   5.511   4.077  0.7531 -0.5226  0.3571
  707MOL0     H95433   4.115   5.404   4.487  3.0965 -1.2806 -1.6989
  707MOL0     H95434   4.034   5.357   4.333 -0.6915 -0.1669  0.4649
  707MOL0     H95435   3.920   5.543   4.543 -0.8518  1.1364 -0.4794
  707MOL0     H95436   3.864   5.380   4.531 -2.8376  0.4972 -0.0302
  707MOL0     H95437   3.822   5.457   4.272  1.2311  1.0669 -0.0764
  707MOL0     H95438   3.789   5.608   4.358 -1.5107 -0.6083 -2.4740
  707MOL0     H95439   3.648   5.342   4.399 -0.3919 -0.5673  0.2106
  707MOL0     H95440   3.615   5.500   4.476 -1.3141 -0.4741 -0.1424
  707MOL0     H95441   3.402   5.534   4.136 -0.3409 -2.5800 -0.1513
  707MOL0     H95442   4.343   5.489   4.427 -1.0788  0.1893  0.7930
  707MOL0     H95443   4.541   5.377   4.415 -1.4370 -1.7927 -0.7690
  707MOL0     H95444   4.625   5.326   4.268 -1.7739 -1.1754  0.6022
  707MOL0     H95445   4.631   5.497   4.329  2.5295 -0.7115 -2.0011
  708MOL0     O95446   2.833   3.746   7.556 -0.5698 -0.4026 -0.4150
  708MOL0     C95447   2.907   3.668   7.501  0.2350 -0.2224 -0.2701
  708MOL0     O95448   2.866   3.560   7.425  0.5413  0.2163  0.1993
  708MOL0     C95449   2.731   3.524   7.434 -0.8952  0.5795  0.4434
  708MOL0     C95450   2.634   3.588   7.373 -0.4419  0.0888  0.6397
  708MOL0     C95451   2.503   3.540   7.395 -0.7051  0.2574  0.8495
  708MOL0     C95452   2.472   3.436   7.485 -0.7614  0.2802 -0.3623
  708MOL0     O95453   2.338   3.401   7.503  0.6544 -0.8485 -0.1785
  708MOL0     C95454   2.300   3.295   7.580  0.7838  0.3994  0.3931
  708MOL0     C95455   2.152   3.304   7.624 -0.2400 -0.4986 -0.0869
  708MOL0     C95456   2.133   3.395   7.750  0.1019 -0.1232  0.6912
  708MOL0     C95457   1.996   3.374   7.812  0.1351 -0.7180  0.1558
  708MOL0     C95458   1.976   3.458   7.950 -0.1197  0.6297  0.5380
  708MOL0     C95459   1.874   3.580   7.930 -0.5795 -0.9176  0.2415
  708MOL0     C95460   1.737   3.536   7.869 -0.8264 -0.6870  0.2579
  708MOL0     C95461   1.635   3.648   7.893  0.3624 -0.5275 -0.0702
  708MOL0     N95462   1.515   3.610   7.815 -0.7860  0.6770 -0.1512
  708MOL0     C95463   1.414   3.696   7.803  0.1086  0.1568  0.4550
  708MOL0     C95464   1.324   3.622   7.738  0.1177  0.4148 -0.7848
  708MOL0     C95465   1.205   3.675   7.679  0.2367  0.5234 -0.1771
  708MOL0     C95466   1.078   3.591   7.703 -0.6483 -0.3638  0.5944
  708MOL0     C95467   0.996   3.633   7.828 -0.8911  0.1305 -0.0462
  708MOL0     C95468   0.857   3.587   7.807  0.0570 -0.0495  0.1241
  708MOL0     O95469   0.782   3.690   7.736  0.3012  0.1603 -0.0539
  708MOL0     C95470   0.657   3.653   7.692  0.0961  0.4049 -0.2373
  708MOL0     C95471   0.545   3.705   7.765 -0.4239  1.2411 -0.0856
  708MOL0     C95472   0.418   3.664   7.739  1.2222 -0.3621  0.5678
  708MOL0     C95473   0.386   3.583   7.635  0.4423 -0.0181  0.2954
  708MOL0     C95474   0.243   3.565   7.580  0.3121  0.2197  0.1523
  708MOL0     O95475   0.150   3.666   7.615  0.4753 -0.1311 -0.2720
  708MOL0     C95476   0.022   3.655   7.569 -1.1287  0.2059  0.4749
  708MOL0     C95477  -0.006   3.654   7.431  0.1729  0.7177  0.7079
  708MOL0     C95478  -0.135   3.648   7.383 -0.0825 -0.0298 -0.1182
  708MOL0     C95479  -0.244   3.660   7.468  1.2263  0.1377  0.3903
  708MOL0     O95480  -0.368   3.655   7.404 -0.9451  0.3791  0.1250
  708MOL0     C95481  -0.467   3.742   7.451 -0.0938 -0.2605 -0.0804
  708MOL0     C95482  -0.535   3.805   7.335 -0.1543 -0.4235  0.4922
  708MOL0     C95483  -0.621   3.931   7.359  0.3637  0.5710 -0.1716
  708MOL0     C95484  -0.665   3.981   7.220 -0.3235 -1.0713  0.0625
  708MOL0     C95485  -0.703   4.136   7.212 -0.2202 -0.5099  0.2694
  708MOL0     C95486  -0.764   4.190   7.082 -0.2616  0.3411  0.3422
  708MOL0     C95487  -0.662   4.211   6.971 -0.0749  0.0981 -1.2309
  708MOL0     C95488  -0.749   4.240   6.852 -0.3243  0.4014  0.0475
  708MOL0    Cl95489  -0.802   4.407   6.865 -0.0711  0.4688  0.2018
  708MOL0     C95490  -0.219   3.675   7.602 -0.8379 -1.2143 -0.3635
  708MOL0     C95491  -0.091   3.673   7.652  0.4388 -0.0230  0.6230
  708MOL0     O95492   0.217   3.455   7.524 -0.1143 -0.5629  0.3468
  708MOL0     C95493   0.488   3.517   7.562 -0.2363 -0.5438 -0.2545
  708MOL0     C95494   0.622   3.562   7.591 -0.6909  0.1685 -0.7490
  708MOL0     N95495   1.361   3.492   7.734  0.4643 -0.0414 -0.2305
  708MOL0     N95496   1.477   3.486   7.779 -0.2820  0.0418 -0.2875
  708MOL0     C95497   2.579   3.361   7.540 -0.9432 -1.9787  0.2955
  708MOL0     C95498   2.715   3.408   7.517 -0.5434 -0.2009  0.4002
  708MOL0     C95499   3.050   3.701   7.483 -0.5386 -0.0773 -0.0119
  708MOL0     C95500   3.103   3.676   7.356  0.1764 -0.6947  0.8215
  708MOL0     C95501   3.226   3.729   7.325  0.2775  0.3514 -1.0222
  708MOL0     C95502   3.305   3.805   7.419  0.3820  0.4441  0.2433
  708MOL0     O95503   3.423   3.860   7.374 -0.1133 -0.2862  0.0394
  708MOL0     C95504   3.516   3.906   7.480  0.8059 -0.5904  0.0152
  708MOL0     C95505   3.647   3.928   7.406  0.2256  0.6004  0.2078
  708MOL0     C95506   3.619   4.009   7.268 -0.9079  0.2332 -0.0482
  708MOL0     C95507   3.739   4.092   7.228 -0.3340 -0.7593  0.1084
  708MOL0     C95508   3.820   4.018   7.129  0.5486 -0.0417  0.2643
  708MOL0     C95509   3.891   3.949   7.066 -0.4361  0.4690  0.5569
  708MOL0     C95510   3.256   3.815   7.545 -0.8941 -0.4368 -0.2183
  708MOL0     C95511   3.126   3.769   7.574 -0.0047 -0.0180 -0.2689
  708MOL0     C95512   3.081   3.796   7.712 -0.3978  0.5423 -0.5100
  708MOL0     H95513   2.658   3.662   7.297 -1.9231 -0.4254 -0.3610
  708MOL0     H95514   2.424   3.602   7.354 -1.6509 -0.8242  0.9589
  708MOL0     H95515   2.299   3.209   7.512 -0.1425 -0.7902  1.8393
  708MOL0     H95516   2.365   3.280   7.666  0.8944  3.3741  0.9439
  708MOL0     H95517   2.112   3.205   7.652 -0.0349 -0.7722 -0.7406
  708MOL0     H95518   2.093   3.337   7.538  0.5126 -1.2638 -0.9253
  708MOL0     H95519   2.149   3.494   7.705  3.8574  0.3500  2.6975
  708MOL0     H95520   2.213   3.398   7.824 -0.3707  2.4095  1.1942
  708MOL0     H95521   1.918   3.392   7.736  0.1743  4.4788  0.9733
  708MOL0     H95522   1.978   3.270   7.838 -2.0900 -0.4226  0.0501
  708MOL0     H95523   1.940   3.392   8.030  0.4465  0.6851  0.8474
  708MOL0     H95524   2.079   3.479   7.982  0.3090 -0.2809 -0.2161
  708MOL0     H95525   1.854   3.619   8.030  1.1049 -1.8997  1.0095
  708MOL0     H95526   1.928   3.656   7.874  0.5322 -1.2684  0.8109
  708MOL0     H95527   1.707   3.443   7.917  0.6314 -1.5151 -0.3717
  708MOL0     H95528   1.762   3.528   7.763  1.2906  0.5428  0.5846
  708MOL0     H95529   1.618   3.656   8.000  0.6151  0.5372 -0.1047
  708MOL0     H95530   1.674   3.744   7.858  1.5195 -1.5507 -1.7475
  708MOL0     H95531   1.398   3.801   7.824 -1.1330  0.0709  0.0634
  708MOL0     H95532   1.195   3.779   7.712  2.2642  0.7543 -0.1415
  708MOL0     H95533   1.232   3.691   7.574  1.6784  1.1084  0.2526
  708MOL0     H95534   1.010   3.618   7.622 -0.5609 -1.5387  0.0970
  708MOL0     H95535   1.095   3.483   7.700  1.6612 -0.0314 -0.8674
  708MOL0     H95536   0.994   3.738   7.858  0.5121 -0.5031  2.5178
  708MOL0     H95537   1.025   3.580   7.919 -0.5658 -1.0121 -0.8037
  708MOL0     H95538   0.803   3.564   7.899  1.7892 -0.7158  1.0270
  708MOL0     H95539   0.861   3.493   7.751  0.5003 -1.0734  1.7918
  708MOL0     H95540   0.564   3.775   7.845  5.1692  2.3237 -1.9326
  708MOL0     H95541   0.329   3.692   7.794 -0.6171 -2.3216 -1.2195
  708MOL0     H95542   0.077   3.665   7.361 -0.5228  3.4010  0.1955
  708MOL0     H95543  -0.141   3.648   7.275 -1.7391  1.3289 -0.0718
  708MOL0     H95544  -0.547   3.694   7.507 -1.4508  3.4988  1.5507
  708MOL0     H95545  -0.428   3.820   7.517 -1.0553 -2.2921  3.1052
  708MOL0     H95546  -0.462   3.843   7.263  1.4936  3.1984  3.7644
  708MOL0     H95547  -0.585   3.722   7.283  0.4676  1.4645 -3.4555
  708MOL0     H95548  -0.707   3.914   7.425  1.4751  0.8928  1.4201
  708MOL0     H95549  -0.561   4.005   7.413  2.6762 -1.1904 -0.1479
  708MOL0     H95550  -0.754   3.927   7.186  0.2822 -2.0793  0.0544
  708MOL0     H95551  -0.588   3.968   7.143  3.3335  0.5776  3.1176
  708MOL0     H95552  -0.623   4.205   7.241 -1.3411  0.5839  0.8198
  708MOL0     H95553  -0.782   4.150   7.286  0.1418 -0.9739  0.7529
  708MOL0     H95554  -0.839   4.115   7.055  1.6914 -0.9272 -1.9281
  708MOL0     H95555  -0.805   4.287   7.110  1.0016  0.2741  2.7303
  708MOL0     H95556  -0.601   4.121   6.960 -0.1462 -0.4877  1.9944
  708MOL0     H95557  -0.595   4.296   6.990  0.8892 -0.6625 -1.1610
  708MOL0     H95558  -0.692   4.227   6.760  1.0065  0.9438  0.7711
  708MOL0     H95559  -0.835   4.172   6.849 -0.7982  0.8868  1.6869
  708MOL0     H95560  -0.298   3.701   7.671 -0.8595 -2.9539  0.3198
  708MOL0     H95561  -0.072   3.689   7.757  0.0145  0.2391  0.6618
  708MOL0     H95562   0.463   3.458   7.475  0.6630 -0.6423 -0.4573
  708MOL0     H95563   0.700   3.523   7.527  1.5248  1.6253  0.9426
  708MOL0     H95564   2.571   3.274   7.605 -1.5171 -2.9858 -1.0837
  708MOL0     H95565   2.799   3.358   7.564  1.5427  1.7394 -1.0497
  708MOL0     H95566   3.044   3.612   7.291 -1.2917  2.5165 -1.2693
  708MOL0     H95567   3.260   3.713   7.223  2.6726  3.3294 -0.8334
  708MOL0     H95568   3.539   3.831   7.556  2.0733  0.2408  0.4837
  708MOL0     H95569   3.481   3.998   7.528 -0.5007  0.0680 -2.0477
  708MOL0     H95570   3.691   3.832   7.378 -0.9997 -0.1398  0.7656
  708MOL0     H95571   3.711   3.982   7.477 -1.0233  0.5625  1.4034
  708MOL0     H95572   3.538   4.081   7.282 -3.2816 -2.4099  0.9200
  708MOL0     H95573   3.596   3.938   7.187  0.5253  1.4063 -1.5631
  708MOL0     H95574   3.704   4.188   7.189  2.2142  0.2992  0.1995
  708MOL0     H95575   3.798   4.113   7.318  0.1707 -1.5638 -0.0344
  708MOL0     H95576   3.965   3.903   7.003  1.1207 -1.2530  3.4501
  708MOL0     H95577   3.315   3.858   7.625 -1.1366 -0.1073 -0.2154
  708MOL0     H95578   3.128   3.880   7.765  1.2356 -2.1276  2.6186
  708MOL0     H95579   2.973   3.806   7.727 -0.5171 -0.6526 -0.5517
  708MOL0     H95580   3.121   3.712   7.769  1.5485  1.7498  0.0152
  709MOL0     O95581   8.039  10.093   4.141  0.1085  0.1875 -0.2209
  709MOL0     C95582   8.065  10.123   4.027  0.8609  0.4886  0.8533
  709MOL0     O95583   8.155  10.218   3.987 -0.2004 -0.3679 -0.5406
  709MOL0     C95584   8.244  10.271   4.077 -1.1809  0.5187 -0.2130
  709MOL0     C95585   8.325  10.201   4.168 -0.4643  0.1480 -0.2458
  709MOL0     C95586   8.419  10.266   4.249  0.0734 -0.2767 -0.3721
  709MOL0     C95587   8.417  10.408   4.248 -0.8889  0.2899  0.3683
  709MOL0     O95588   8.495  10.490   4.325 -0.1101  0.0525 -0.4635
  709MOL0     C95589   8.426  10.570   4.420  0.6574 -0.1892 -0.1029
  709MOL0     C95590   8.437  10.494   4.553 -0.4109 -0.2754  0.1678
  709MOL0     C95591   8.583  10.495   4.614  0.0852  0.1438  0.5325
  709MOL0     C95592   8.640  10.363   4.598 -0.0169  0.7212 -0.5228
  709MOL0     C95593   8.780  10.357   4.668  0.0562 -0.0415 -0.0731
  709MOL0     C95594   8.816  10.224   4.722  0.0475 -0.2153 -0.1051
  709MOL0     C95595   8.866  10.116   4.627  0.5480  0.6140 -0.5798
  709MOL0     C95596   8.945  10.011   4.709  0.7631  0.9696  0.8999
  709MOL0     N95597   9.013   9.909   4.632 -0.4981  0.4892  0.7426
  709MOL0     C95598   8.944   9.832   4.543  0.1459  0.0089 -0.5148
  709MOL0     C95599   9.037   9.756   4.483  0.6775 -0.2397 -0.8703
  709MOL0     C95600   9.010   9.654   4.372 -0.4574  0.7957 -0.1156
  709MOL0     C95601   8.947   9.523   4.410  0.0337  0.0133 -0.1451
  709MOL0     C95602   9.040   9.455   4.513 -0.1722  0.3036 -0.6846
  709MOL0     C95603   8.982   9.317   4.535 -0.6367 -0.7293  0.3183
  709MOL0     O95604   9.006   9.238   4.412  0.1998 -0.9471  0.2955
  709MOL0     C95605   8.926   9.132   4.375  0.3069 -0.5092 -1.1923
  709MOL0     C95606   8.966   9.055   4.271  0.3732 -0.4914 -0.1741
  709MOL0     C95607   8.883   8.970   4.208 -0.2257  0.2968 -0.4636
  709MOL0     C95608   8.757   8.937   4.266 -0.7753  0.5172  0.4569
  709MOL0     C95609   8.652   8.852   4.208 -0.6261  0.6675 -0.0676
  709MOL0     O95610   8.546   8.818   4.286  0.0769  0.5503 -0.0370
  709MOL0     C95611   8.428   8.771   4.235  0.1897 -0.1627  0.6369
  709MOL0     C95612   8.327   8.741   4.327  1.4790  0.8603 -0.1543
  709MOL0     C95613   8.200   8.702   4.292  0.1375  0.3012  0.7739
  709MOL0     C95614   8.165   8.692   4.161 -0.0745 -0.3024  0.0620
  709MOL0     O95615   8.032   8.660   4.127  0.5431 -0.2520 -0.2922
  709MOL0     C95616   8.003   8.555   4.036  0.4958 -0.3579 -0.4076
  709MOL0     C95617   7.851   8.555   4.008 -0.4864  0.0493 -0.7138
  709MOL0     C95618   7.758   8.528   4.118 -0.3886 -0.3991  0.2306
  709MOL0     C95619   7.752   8.382   4.147  0.6428 -0.8005 -0.1857
  709MOL0     C95620   7.624   8.352   4.233  0.7548  0.5248  0.5510
  709MOL0     C95621   7.631   8.216   4.291 -0.0469  0.1891 -0.3240
  709MOL0     C95622   7.610   8.111   4.190  0.0959 -0.4607 -0.6540
  709MOL0     C95623   7.484   8.109   4.095  0.1238  0.7986 -0.7165
  709MOL0    Cl95624   7.514   7.995   3.962 -0.1427 -0.1510  0.0395
  709MOL0     C95625   8.264   8.700   4.065 -0.2511 -0.2996 -0.5023
  709MOL0     C95626   8.396   8.743   4.099 -0.0454  0.8441 -0.3389
  709MOL0     O95627   8.668   8.816   4.090 -0.2164  0.1225 -0.1359
  709MOL0     C95628   8.722   9.003   4.385 -0.1542  0.5733  0.0929
  709MOL0     C95629   8.805   9.097   4.440  0.1481 -0.2340 -0.0054
  709MOL0     N95630   9.156   9.774   4.546 -0.4323 -0.2334  0.3058
  709MOL0     N95631   9.142   9.865   4.642 -0.7532  0.6961 -0.5085
  709MOL0     C95632   8.331  10.478   4.164  0.2369 -0.4524  0.5467
  709MOL0     C95633   8.256  10.413   4.075  0.6920  0.2216 -0.3998
  709MOL0     C95634   7.976  10.059   3.912 -0.1632 -0.3278  0.1941
  709MOL0     C95635   7.978  10.113   3.781  0.2718  0.2236  0.0709
  709MOL0     C95636   7.910  10.049   3.675  0.1097 -0.2519 -0.2121
  709MOL0     C95637   7.827   9.939   3.702  0.8017  0.0074  0.0764
  709MOL0     O95638   7.767   9.856   3.610  0.0462  0.3910  0.3567
  709MOL0     C95639   7.690   9.920   3.504  0.5682  0.7191  0.3280
  709MOL0     C95640   7.568   9.999   3.563  0.0768 -0.1938  0.0675
  709MOL0     C95641   7.469   9.890   3.617 -0.0333 -0.9693 -0.4406
  709MOL0     C95642   7.363   9.941   3.715  0.0386 -0.4290  1.2880
  709MOL0     C95643   7.291  10.051   3.641 -0.5964  0.2414 -0.4096
  709MOL0     C95644   7.246  10.155   3.600  0.2921 -0.0089 -0.0577
  709MOL0     C95645   7.838   9.878   3.819  0.6418 -0.0419 -0.2288
  709MOL0     C95646   7.908   9.933   3.929 -0.5309 -0.1954  0.9838
  709MOL0     C95647   7.898   9.855   4.057 -0.1364 -0.3463 -0.1342
  709MOL0     H95648   8.311  10.094   4.174  0.1838 -0.2527 -3.8281
  709MOL0     H95649   8.478  10.209   4.319  1.0681  3.0215  1.6953
  709MOL0     H95650   8.474  10.665   4.445  2.5262 -0.6116 -1.8402
  709MOL0     H95651   8.324  10.597   4.389  0.3298 -1.8243 -0.5492
  709MOL0     H95652   8.412  10.389   4.540  0.5346 -0.3026 -1.7424
  709MOL0     H95653   8.367  10.536   4.626 -2.0046  0.7778 -1.8513
  709MOL0     H95654   8.582  10.526   4.719 -0.8166 -1.3007  0.9779
  709MOL0     H95655   8.650  10.563   4.560  1.1811 -2.5212 -1.7786
  709MOL0     H95656   8.564  10.295   4.639  0.2750 -0.5035 -1.9107
  709MOL0     H95657   8.654  10.331   4.495  0.0571  0.8364 -0.5491
  709MOL0     H95658   8.857  10.406   4.607  1.0105  0.5439  1.5272
  709MOL0     H95659   8.776  10.419   4.757  3.2052 -0.4521  0.4846
  709MOL0     H95660   8.903  10.237   4.788 -0.3083 -0.0421  0.3319
  709MOL0     H95661   8.738  10.189   4.791  2.6476 -0.8133  2.7406
  709MOL0     H95662   8.918  10.156   4.539  1.3253  1.2048  0.1340
  709MOL0     H95663   8.777  10.073   4.580 -2.5298  2.7397  2.7856
  709MOL0     H95664   9.016  10.057   4.777 -0.3891  3.0894  0.7513
  709MOL0     H95665   8.872   9.960   4.772 -0.0696 -2.7582 -2.6144
  709MOL0     H95666   8.838   9.820   4.527  0.4967 -1.9684 -1.8112
  709MOL0     H95667   8.936   9.701   4.305 -0.7121  0.2099 -0.2551
  709MOL0     H95668   9.107   9.639   4.325 -0.0477  1.4627  0.4960
  709MOL0     H95669   8.844   9.533   4.445 -0.7821  0.9400 -2.5828
  709MOL0     H95670   8.930   9.464   4.319  0.4083 -0.1166 -0.1341
  709MOL0     H95671   9.049   9.511   4.606  0.1483  2.8200 -2.1225
  709MOL0     H95672   9.143   9.441   4.479  0.5635 -0.4187  1.6795
  709MOL0     H95673   8.873   9.324   4.548 -0.7761 -1.1801 -0.5193
  709MOL0     H95674   9.021   9.260   4.620  0.3290 -0.8751 -0.2031
  709MOL0     H95675   9.066   9.068   4.230 -0.1636 -3.9528 -3.0419
  709MOL0     H95676   8.908   8.926   4.112  1.5892 -3.8564  1.6567
  709MOL0     H95677   8.349   8.753   4.433 -0.7829 -1.6754  0.7081
  709MOL0     H95678   8.129   8.664   4.364 -0.6817  1.4343  0.5806
  709MOL0     H95679   8.047   8.577   3.938 -3.0704  1.0984 -1.8701
  709MOL0     H95680   8.032   8.453   4.063 -3.5331 -1.7186 -0.5378
  709MOL0     H95681   7.823   8.654   3.972  0.4644  1.4162  2.0378
  709MOL0     H95682   7.828   8.480   3.932 -0.6981  0.4549 -1.0574
  709MOL0     H95683   7.793   8.589   4.202  0.8840  1.2867 -1.4296
  709MOL0     H95684   7.655   8.563   4.110 -0.5122 -0.0860  2.5553
  709MOL0     H95685   7.839   8.363   4.211  0.4395 -0.1799  0.2921
  709MOL0     H95686   7.751   8.323   4.056  1.7829  0.6118 -1.1570
  709MOL0     H95687   7.525   8.368   4.191  0.2354  1.6456  2.0817
  709MOL0     H95688   7.621   8.400   4.332  0.0085 -0.0831  0.8294
  709MOL0     H95689   7.732   8.210   4.333 -0.4877  1.9194  1.1705
  709MOL0     H95690   7.565   8.198   4.377  0.0701 -1.1778 -0.5098
  709MOL0     H95691   7.597   8.018   4.248 -3.7086 -0.4385 -1.2197
  709MOL0     H95692   7.687   8.102   4.113 -0.8615  0.4664 -1.7472
  709MOL0     H95693   7.398   8.079   4.155 -0.6869  0.4718 -2.0175
  709MOL0     H95694   7.466   8.206   4.049  0.2167  2.0754  1.7436
  709MOL0     H95695   8.236   8.703   3.961  1.1200  2.1832 -0.8735
  709MOL0     H95696   8.461   8.761   4.014  2.6965 -1.4929  1.0894
  709MOL0     H95697   8.633   8.989   4.445 -0.1886  1.1675  0.1955
  709MOL0     H95698   8.754   9.149   4.521  0.5771  0.8969 -0.4424
  709MOL0     H95699   8.347  10.585   4.167  0.6978 -0.4270 -1.5381
  709MOL0     H95700   8.192  10.462   4.003  0.0205  0.1958  0.1668
  709MOL0     H95701   8.031  10.204   3.753  1.1014  0.1321  1.2660
  709MOL0     H95702   7.909  10.076   3.570 -3.2766 -1.7313 -0.6725
  709MOL0     H95703   7.665   9.840   3.434  0.1071  0.9478  0.2307
  709MOL0     H95704   7.750   9.992   3.448  0.2068  0.5065 -0.3361
  709MOL0     H95705   7.519  10.055   3.483  0.0179 -2.7684 -1.8396
  709MOL0     H95706   7.599  10.071   3.639 -3.0917 -0.5928  1.9453
  709MOL0     H95707   7.525   9.817   3.676  0.0940 -0.9715 -0.5635
  709MOL0     H95708   7.417   9.840   3.535 -0.0287  0.2197 -1.1972
  709MOL0     H95709   7.311   9.855   3.758  1.8164 -1.7343  0.9596
  709MOL0     H95710   7.410   9.988   3.801  2.3171  1.1332 -0.6946
  709MOL0     H95711   7.190  10.240   3.564 -0.7291 -0.2005  1.0118
  709MOL0     H95712   7.798   9.778   3.837  1.7411 -0.4048  0.2754
  709MOL0     H95713   7.858   9.919   4.136 -0.5142 -1.5648  0.6967
  709MOL0     H95714   7.827   9.771   4.062 -1.4505  0.8018  2.4879
  709MOL0     H95715   7.997   9.814   4.079  0.4962  1.9909  1.7908
  710MOL0     O95716   7.374   9.621   3.891 -0.4795 -0.1833  0.0937
  710MOL0     C95717   7.347   9.541   3.978  0.1637 -0.0951  0.2646
  710MOL0     O95718   7.239   9.464   3.979 -0.0692  0.7508  0.6378
  710MOL0     C95719   7.132   9.497   3.907  0.1736  0.3987  0.5324
  710MOL0     C95720   7.085   9.630   3.885 -1.1786  0.6801  0.6141
  710MOL0     C95721   6.976   9.647   3.805 -0.5440 -1.0302  0.0732
  710MOL0     C95722   6.905   9.542   3.749 -0.9854 -0.0608  0.0277
  710MOL0     O95723   6.809   9.580   3.660  0.1405 -0.1354  0.2816
  710MOL0     C95724   6.712   9.489   3.617  0.4457  0.2158  0.2004
  710MOL0     C95725   6.582   9.560   3.565  0.1462  0.4074 -0.0001
  710MOL0     C95726   6.579   9.581   3.411  0.1693  0.1045 -0.2147
  710MOL0     C95727   6.438   9.646   3.371  0.7264  0.2149 -0.4661
  710MOL0     C95728   6.448   9.725   3.245  0.6342 -0.4200  0.3499
  710MOL0     C95729   6.314   9.768   3.202  0.5837 -0.3991 -0.3898
  710MOL0     C95730   6.314   9.853   3.072  0.3954 -0.1525  0.1908
  710MOL0     C95731   6.182   9.923   3.034  0.3796 -0.1078 -0.2371
  710MOL0     N95732   6.168  10.053   3.103  0.1113 -0.0731 -0.2005
  710MOL0     C95733   6.206  10.177   3.052 -0.4843  0.2461  1.1581
  710MOL0     C95734   6.209  10.253   3.162  0.0907  0.3300 -0.6289
  710MOL0     C95735   6.231  10.399   3.177 -0.4434  0.4383 -0.5578
  710MOL0     C95736   6.380  10.439   3.172 -0.5214  0.1297  0.4843
  710MOL0     C95737   6.395  10.573   3.245  0.6560  0.3075  0.2704
  710MOL0     C95738   6.539  10.611   3.259 -0.4598 -0.2747 -0.2209
  710MOL0     O95739   6.612  10.507   3.336 -0.1457 -0.4450  0.4594
  710MOL0     C95740   6.737  10.544   3.379 -0.9519  0.2884  0.2737
  710MOL0     C95741   6.827  10.438   3.364 -1.0769  0.1171  0.7445
  710MOL0     C95742   6.962  10.453   3.399  0.2307  0.1624  0.0109
  710MOL0     C95743   7.007  10.574   3.452 -0.5073 -0.3583 -0.1616
  710MOL0     C95744   7.149  10.598   3.492  0.3545  0.9755  0.1630
  710MOL0     O95745   7.227  10.488   3.471 -0.3527  0.8460 -0.2002
  710MOL0     C95746   7.358  10.497   3.520  1.0570  0.1576 -0.0575
  710MOL0     C95747   7.380  10.490   3.663  0.0277  0.3119  0.1013
  710MOL0     C95748   7.513  10.484   3.708 -0.6478  0.0367 -0.1478
  710MOL0     C95749   7.621  10.491   3.630  0.1920  0.1014 -0.5656
  710MOL0     O95750   7.735  10.502   3.704  0.7129  0.6712 -0.1713
  710MOL0     C95751   7.856  10.509   3.634  0.1802 -0.6097 -1.0094
  710MOL0     C95752   7.963  10.547   3.736 -0.1415 -0.0607 -0.2458
  710MOL0     C95753   8.095  10.586   3.673 -0.1756  0.4419  0.7933
  710MOL0     C95754   8.185  10.465   3.637  0.3242  0.3144  0.5282
  710MOL0     C95755   8.292  10.513   3.532 -0.0575  1.3689 -0.8949
  710MOL0     C95756   8.402  10.586   3.606 -0.4072  0.0715 -0.0702
  710MOL0     C95757   8.507  10.659   3.519 -0.1824 -0.5337  0.5502
  710MOL0     C95758   8.655  10.638   3.551  0.3416  0.1634 -0.0042
  710MOL0    Cl95759   8.671  10.689   3.718  0.4328 -0.2811  0.1162
  710MOL0     C95760   7.602  10.494   3.490 -0.3589  0.6350  0.0816
  710MOL0     C95761   7.466  10.491   3.436 -0.3756 -0.3420  0.0167
  710MOL0     O95762   7.181  10.701   3.545 -0.1540 -0.2996  0.5038
  710MOL0     C95763   6.917  10.671   3.491  0.1521  0.1568  0.4310
  710MOL0     C95764   6.779  10.655   3.448  0.1940  0.0751 -0.2856
  710MOL0     N95765   6.158  10.190   3.266  0.3176  0.5343 -0.1975
  710MOL0     N95766   6.135  10.063   3.238 -0.0079 -0.0470 -0.0219
  710MOL0     C95767   6.949   9.413   3.778  0.7704  0.3590  0.7678
  710MOL0     C95768   7.060   9.390   3.862 -0.0770 -0.2056  0.7624
  710MOL0     C95769   7.452   9.520   4.092  0.2340 -0.0273  0.0539
  710MOL0     C95770   7.460   9.394   4.155 -0.0248 -0.6563  0.4907
  710MOL0     C95771   7.547   9.372   4.256  0.9420  0.1701  0.5468
  710MOL0     C95772   7.639   9.472   4.295 -0.9308  0.1633  0.1425
  710MOL0     O95773   7.739   9.446   4.384 -0.3519 -0.7897 -0.4211
  710MOL0     C95774   7.854   9.397   4.315  0.0362 -0.1719 -0.6424
  710MOL0     C95775   7.972   9.410   4.404 -0.4738 -0.0623 -1.0397
  710MOL0     C95776   8.004   9.552   4.442 -0.7372 -0.5594  0.5104
  710MOL0     C95777   8.051   9.632   4.317 -0.2004 -0.5682 -0.3145
  710MOL0     C95778   8.101   9.768   4.343  0.6009 -0.1354 -0.2653
  710MOL0     C95779   8.134   9.878   4.363  0.1807  0.1590 -0.0660
  710MOL0     C95780   7.632   9.600   4.228  0.5182 -0.4986 -0.1917
  710MOL0     C95781   7.538   9.626   4.128 -0.2368  0.5653  0.2735
  710MOL0     C95782   7.537   9.770   4.070 -0.8072 -0.2295 -0.0634
  710MOL0     H95783   7.130   9.719   3.926  1.4137  0.3901 -1.3712
  710MOL0     H95784   6.931   9.744   3.786 -0.8441 -0.9525  1.1668
  710MOL0     H95785   6.760   9.414   3.553 -0.5657 -1.1066  0.9366
  710MOL0     H95786   6.679   9.436   3.707  2.1763  0.1680  0.8636
  710MOL0     H95787   6.567   9.653   3.621  0.6144  1.6620 -1.8670
  710MOL0     H95788   6.490   9.511   3.599 -1.6784  3.6055  0.1059
  710MOL0     H95789   6.600   9.497   3.344  2.1863  2.3859 -2.6705
  710MOL0     H95790   6.659   9.651   3.386  0.2142 -0.1715 -0.8584
  710MOL0     H95791   6.362   9.567   3.365  0.6366  0.2708 -0.0529
  710MOL0     H95792   6.393   9.709   3.448 -1.0942 -1.0185 -0.4419
  710MOL0     H95793   6.519   9.809   3.251  1.6171 -1.2154  0.0652
  710MOL0     H95794   6.499   9.662   3.172  3.4156  0.6954  1.1650
  710MOL0     H95795   6.245   9.688   3.174  0.8156 -0.2661 -1.3565
  710MOL0     H95796   6.272   9.829   3.284 -2.5118  1.0180 -2.8071
  710MOL0     H95797   6.337   9.787   2.987  1.6038  2.7625 -1.9200
  710MOL0     H95798   6.395   9.926   3.067  1.9987 -1.8592 -0.0168
  710MOL0     H95799   6.201   9.944   2.929 -0.7139 -1.3561 -0.7055
  710MOL0     H95800   6.097   9.856   3.045  0.1687 -0.2255 -2.2517
  710MOL0     H95801   6.241  10.207   2.954  0.8156 -0.4768  1.3704
  710MOL0     H95802   6.172  10.452   3.102 -0.7125 -0.1761 -0.7901
  710MOL0     H95803   6.202  10.425   3.279 -0.0561 -3.9496  0.9013
  710MOL0     H95804   6.449  10.363   3.209  0.8987  2.0679  2.0843
  710MOL0     H95805   6.412  10.445   3.068 -0.6789  2.2983  0.5026
  710MOL0     H95806   6.361  10.561   3.348  2.2211 -0.0001  0.7753
  710MOL0     H95807   6.328  10.638   3.188 -0.4747 -0.6570  0.4801
  710MOL0     H95808   6.533  10.706   3.313  0.6645 -0.0506 -0.4645
  710MOL0     H95809   6.592  10.617   3.164  1.1760  0.6042  0.6913
  710MOL0     H95810   6.792  10.343   3.326  0.5634  0.5136 -2.0326
  710MOL0     H95811   7.020  10.364   3.376  0.2820 -0.0673  0.9690
  710MOL0     H95812   7.283  10.501   3.711 -0.1563  1.4787 -0.5044
  710MOL0     H95813   7.545  10.473   3.811  1.1693 -1.8957 -0.8699
  710MOL0     H95814   7.858  10.412   3.582 -6.6164 -0.8054 -1.7795
  710MOL0     H95815   7.844  10.594   3.566 -2.0265  0.3936  0.5432
  710MOL0     H95816   7.933  10.639   3.788 -1.6263 -0.2707 -0.6797
  710MOL0     H95817   7.972  10.460   3.801  0.7883 -0.2120 -0.5688
  710MOL0     H95818   8.071  10.645   3.584 -0.2338 -0.0573  0.4761
  710MOL0     H95819   8.149  10.653   3.741  3.6046 -0.9855 -0.5319
  710MOL0     H95820   8.128  10.385   3.589  1.9569 -0.3559 -0.4254
  710MOL0     H95821   8.235  10.413   3.719  0.0458 -0.2533  0.3441
  710MOL0     H95822   8.243  10.587   3.468 -2.3543  2.0487  1.4829
  710MOL0     H95823   8.331  10.427   3.476 -0.0845 -1.2388  2.7294
  710MOL0     H95824   8.371  10.661   3.680  3.7174 -0.4231  2.5040
  710MOL0     H95825   8.454  10.512   3.668 -0.9627  0.1814  0.5371
  710MOL0     H95826   8.489  10.767   3.521 -2.1118 -0.7731 -1.1311
  710MOL0     H95827   8.495  10.641   3.412 -0.2269  3.5876 -0.3271
  710MOL0     H95828   8.677  10.531   3.539  1.4470 -0.1322  3.5865
  710MOL0     H95829   8.714  10.686   3.472 -0.8645 -0.7533 -1.5173
  710MOL0     H95830   7.688  10.520   3.429  0.5864  1.1187  1.5464
  710MOL0     H95831   7.448  10.503   3.330 -0.3227 -1.1541 -0.0921
  710MOL0     H95832   6.937  10.773   3.523 -1.4297 -0.3345  3.3782
  710MOL0     H95833   6.704  10.729   3.472  2.2980  1.9453  0.8925
  710MOL0     H95834   6.904   9.320   3.746 -2.4926  0.7855  3.5591
  710MOL0     H95835   7.090   9.287   3.879 -1.4636 -0.9342 -0.9229
  710MOL0     H95836   7.394   9.310   4.135 -0.8860 -0.0013  0.5798
  710MOL0     H95837   7.552   9.274   4.303  1.2912  1.8793  4.4145
  710MOL0     H95838   7.869   9.435   4.214 -3.8615 -1.2031 -1.7926
  710MOL0     H95839   7.838   9.290   4.295  0.4291 -0.0366 -1.7352
  710MOL0     H95840   8.049   9.352   4.352 -1.7677  0.0265 -3.1802
  710MOL0     H95841   7.949   9.345   4.489  0.7463  0.1976 -0.4963
  710MOL0     H95842   8.080   9.569   4.519 -1.5349 -1.0263  1.4266
  710MOL0     H95843   7.919   9.613   4.475 -0.8235  0.0916 -0.8648
  710MOL0     H95844   8.131   9.578   4.266 -1.6440 -3.5667  0.3710
  710MOL0     H95845   7.975   9.636   4.239 -0.1265 -4.0784 -0.7307
  710MOL0     H95846   8.158   9.982   4.370 -0.5163  0.2631  0.9757
  710MOL0     H95847   7.709   9.675   4.247  0.0792  0.4992 -2.0374
  710MOL0     H95848   7.445   9.829   4.066 -0.3548  0.4476 -0.9631
  710MOL0     H95849   7.612   9.819   4.132  1.5364 -3.9850  0.3614
  710MOL0     H95850   7.569   9.775   3.965  0.7619 -3.4285  0.1523
  711MOL0     O95851   5.709   4.470   4.723  0.2646 -0.1187  0.4329
  711MOL0     C95852   5.738   4.483   4.605  0.4435 -0.0041 -0.0540
  711MOL0     O95853   5.678   4.576   4.516  0.2263  0.4333  0.4406
  711MOL0     C95854   5.552   4.608   4.542 -0.4270  0.0296  0.0688
  711MOL0     C95855   5.519   4.737   4.561  0.1939 -0.4552  0.2380
  711MOL0     C95856   5.386   4.782   4.567 -0.6802 -0.2209 -1.4327
  711MOL0     C95857   5.284   4.690   4.574  1.1604  0.5395  0.6576
  711MOL0     O95858   5.152   4.741   4.582 -0.1721 -0.9078 -0.8520
  711MOL0     C95859   5.044   4.643   4.610 -0.3457 -0.2489 -0.5399
  711MOL0     C95860   4.905   4.713   4.626  0.7665 -1.0613 -0.4581
  711MOL0     C95861   4.897   4.831   4.724 -0.2948 -0.0688 -0.7776
  711MOL0     C95862   4.976   4.811   4.856  0.0698  0.5679  0.6304
  711MOL0     C95863   4.954   4.891   4.989 -0.2118 -0.3456  0.0744
  711MOL0     C95864   4.956   5.048   4.972 -0.1127 -0.7557 -0.2892
  711MOL0     C95865   4.982   5.104   5.113  0.0550  0.5730  0.6821
  711MOL0     C95866   4.973   5.252   5.121  0.3335 -0.0460 -0.1176
  711MOL0     N95867   5.091   5.326   5.088  0.4623 -0.1602 -0.3717
  711MOL0     C95868   5.131   5.345   4.954  0.3640  0.1608 -0.2943
  711MOL0     C95869   5.245   5.418   4.971  1.0916 -0.9450 -0.1690
  711MOL0     C95870   5.322   5.490   4.866  0.4009  0.7736  0.3524
  711MOL0     C95871   5.414   5.391   4.792  0.3922 -0.6214  0.1570
  711MOL0     C95872   5.348   5.281   4.705 -0.5616 -0.6470  0.5904
  711MOL0     C95873   5.456   5.200   4.630 -0.5031 -0.4951 -0.9264
  711MOL0     O95874   5.548   5.280   4.559  0.4473 -0.4444 -0.2037
  711MOL0     C95875   5.642   5.228   4.472 -0.5410  0.0240 -0.4464
  711MOL0     C95876   5.736   5.318   4.428 -0.2941 -0.3322  0.0973
  711MOL0     C95877   5.834   5.282   4.330  0.6680 -0.4194 -0.3568
  711MOL0     C95878   5.835   5.159   4.277 -0.4407 -0.7639 -0.2785
  711MOL0     C95879   5.939   5.119   4.187 -0.1440  0.5645  0.2467
  711MOL0     O95880   6.035   5.214   4.156  0.2957  0.2827 -0.8850
  711MOL0     C95881   6.144   5.189   4.087 -0.8963  0.0118  0.4378
  711MOL0     C95882   6.211   5.060   4.058 -0.9000 -0.4178 -0.1073
  711MOL0     C95883   6.337   5.064   3.995  0.2019 -0.1816 -0.1535
  711MOL0     C95884   6.394   5.184   3.952  0.3840 -0.0068 -0.1267
  711MOL0     O95885   6.524   5.201   3.917 -0.4145 -0.2697 -0.3878
  711MOL0     C95886   6.592   5.092   3.863  0.3201 -0.2084 -0.3504
  711MOL0     C95887   6.684   5.040   3.965  0.1618 -0.7829  0.0948
  711MOL0     C95888   6.818   4.980   3.919 -0.1148 -0.0183  0.3883
  711MOL0     C95889   6.912   4.956   4.045 -0.4689 -0.2256  0.0512
  711MOL0     C95890   7.059   4.939   4.001 -0.1947 -0.3236  0.9713
  711MOL0     C95891   7.133   5.067   3.986  0.6143  0.7945 -0.6914
  711MOL0     C95892   7.267   5.062   3.907  0.5306 -0.2271  0.4579
  711MOL0     C95893   7.341   5.189   3.900 -0.4719  0.5545 -0.1843
  711MOL0    Cl95894   7.492   5.158   3.808 -0.4493  0.2847 -0.4465
  711MOL0     C95895   6.320   5.301   3.986  0.2484 -0.4700  0.1535
  711MOL0     C95896   6.205   5.303   4.058 -0.7979 -0.7157  0.9566
  711MOL0     O95897   5.951   5.003   4.167 -0.1299  0.4442 -0.4235
  711MOL0     C95898   5.737   5.066   4.324  0.3253  0.7278  0.2482
  711MOL0     C95899   5.643   5.101   4.420 -0.4998  0.2240  0.9001
  711MOL0     N95900   5.270   5.428   5.107  0.0699  0.9879  0.5049
  711MOL0     N95901   5.177   5.379   5.179 -0.3159 -0.2084  0.4085
  711MOL0     C95902   5.317   4.556   4.562  0.0717  0.4047 -0.5007
  711MOL0     C95903   5.449   4.513   4.539  0.0505 -0.0599  0.3423
  711MOL0     C95904   5.835   4.403   4.533 -0.0411 -0.6692  0.8496
  711MOL0     C95905   5.887   4.447   4.411 -0.1351 -0.5118  0.4726
  711MOL0     C95906   5.980   4.379   4.338 -0.4152 -0.7226 -0.4236
  711MOL0     C95907   6.016   4.250   4.374 -0.3422  0.0688 -0.9403
  711MOL0     O95908   6.085   4.165   4.296 -0.5658  0.6872 -0.0741
  711MOL0     C95909   6.197   4.211   4.224  0.4676 -0.2251  0.2123
  711MOL0     C95910   6.309   4.264   4.319 -0.0473 -0.6546 -0.2242
  711MOL0     C95911   6.455   4.250   4.264  0.1048 -0.0314  0.2120
  711MOL0     C95912   6.509   4.111   4.257  0.2409  1.6805 -0.9901
  711MOL0     C95913   6.657   4.104   4.244 -0.8939 -0.4879 -0.7673
  711MOL0     C95914   6.779   4.103   4.229  0.2355  0.3415 -0.2120
  711MOL0     C95915   5.961   4.204   4.500  0.4402  0.3020 -0.0670
  711MOL0     C95916   5.869   4.276   4.580 -0.0733  0.5785 -0.0857
  711MOL0     C95917   5.825   4.205   4.711 -0.4071 -1.2755 -0.1123
  711MOL0     H95918   5.591   4.818   4.556 -2.2602  1.8165 -1.9715
  711MOL0     H95919   5.365   4.888   4.576  1.4772  0.1356  0.3972
  711MOL0     H95920   5.042   4.577   4.523 -4.6263 -1.5040  0.2496
  711MOL0     H95921   5.049   4.585   4.702 -4.0848 -1.8705 -1.1853
  711MOL0     H95922   4.835   4.636   4.658  0.6966 -0.4076  1.0279
  711MOL0     H95923   4.876   4.743   4.525 -1.6311 -4.1857 -0.8327
  711MOL0     H95924   4.793   4.836   4.758 -1.2840 -2.1771 -3.1888
  711MOL0     H95925   4.913   4.922   4.667 -2.1980  0.0806 -1.1194
  711MOL0     H95926   4.966   4.704   4.879  0.8412  0.0939 -1.0651
  711MOL0     H95927   5.084   4.821   4.841  0.5781 -2.0049  1.9879
  711MOL0     H95928   4.855   4.863   5.024 -0.0709  1.2528  1.9801
  711MOL0     H95929   5.024   4.866   5.069  1.9799  1.3243 -1.2038
  711MOL0     H95930   5.025   5.077   4.892 -0.0326 -0.2674 -0.0496
  711MOL0     H95931   4.854   5.076   4.941 -0.0839  0.2371  0.4690
  711MOL0     H95932   5.083   5.080   5.148  0.2673 -0.5820 -0.6326
  711MOL0     H95933   4.919   5.062   5.192 -2.4656  2.3155 -0.2666
  711MOL0     H95934   4.885   5.284   5.064 -0.2537 -0.6390  0.4262
  711MOL0     H95935   4.940   5.269   5.225 -1.1875 -0.1455 -0.5556
  711MOL0     H95936   5.086   5.304   4.864 -1.4510 -0.4541  0.8526
  711MOL0     H95937   5.254   5.537   4.794 -2.2071  1.4175  3.0012
  711MOL0     H95938   5.376   5.574   4.909 -0.3734  0.1129  2.8155
  711MOL0     H95939   5.477   5.453   4.727 -0.5800  0.4225  0.1767
  711MOL0     H95940   5.475   5.347   4.871  2.0820  1.7192  0.2476
  711MOL0     H95941   5.284   5.329   4.630  1.1604  1.9442  0.6550
  711MOL0     H95942   5.303   5.209   4.774  1.3417 -1.2782  1.2171
  711MOL0     H95943   5.402   5.138   4.558  0.9094  0.8017 -3.2338
  711MOL0     H95944   5.506   5.136   4.703  0.4713 -1.5093 -2.4258
  711MOL0     H95945   5.721   5.413   4.478 -3.1111 -1.9277  2.6006
  711MOL0     H95946   5.905   5.360   4.304 -2.6758  2.8380 -0.6180
  711MOL0     H95947   6.173   4.962   4.081 -0.2559 -1.1680 -2.0521
  711MOL0     H95948   6.386   4.967   3.986 -0.0403 -0.1266 -3.5749
  711MOL0     H95949   6.528   5.011   3.827  1.7827 -2.4326  1.8246
  711MOL0     H95950   6.644   5.132   3.776 -3.0697 -0.0377 -2.4868
  711MOL0     H95951   6.691   5.116   4.044 -5.0264  1.2588 -1.0364
  711MOL0     H95952   6.636   4.956   4.016  0.9101 -1.6073 -0.5437
  711MOL0     H95953   6.803   4.891   3.857 -0.2715  2.4300 -3.4572
  711MOL0     H95954   6.851   5.056   3.847 -2.1005  1.4481  0.9233
  711MOL0     H95955   6.874   4.876   4.109  2.1343 -1.4580  0.1721
  711MOL0     H95956   6.918   5.047   4.107  0.1307 -1.7563  2.3780
  711MOL0     H95957   7.064   4.883   3.907  0.1010  0.3943  0.5446
  711MOL0     H95958   7.107   4.884   4.083 -3.0672 -2.8394  1.1410
  711MOL0     H95959   7.068   5.135   3.931 -0.7394  0.0887 -0.0168
  711MOL0     H95960   7.148   5.099   4.090 -0.0954  0.5091 -0.4923
  711MOL0     H95961   7.247   5.049   3.800  4.1219  1.0768 -0.5398
  711MOL0     H95962   7.327   4.975   3.936 -0.6633 -0.6932  1.6143
  711MOL0     H95963   7.280   5.272   3.863  0.4124  1.2443 -0.1110
  711MOL0     H95964   7.367   5.215   4.003  1.1473  1.0939 -0.6976
  711MOL0     H95965   6.377   5.391   3.964  0.9311 -1.4859 -2.7105
  711MOL0     H95966   6.153   5.394   4.086  1.2123  0.6122  0.6292
  711MOL0     H95967   5.742   4.964   4.287  1.2872  0.8263  0.0811
  711MOL0     H95968   5.564   5.028   4.436 -1.5772  0.7350 -1.6819
  711MOL0     H95969   5.244   4.476   4.549 -0.2204  0.3115  1.5039
  711MOL0     H95970   5.465   4.406   4.524  0.2289 -0.0921  0.7483
  711MOL0     H95971   5.862   4.542   4.365  0.4665 -1.3730 -1.7625
  711MOL0     H95972   6.021   4.415   4.243 -2.7227  4.6087  0.2473
  711MOL0     H95973   6.162   4.285   4.152  0.7633  1.4899  1.7599
  711MOL0     H95974   6.234   4.121   4.174 -2.7861 -1.1653 -0.7088
  711MOL0     H95975   6.293   4.221   4.418 -5.1396  1.5702  0.2570
  711MOL0     H95976   6.292   4.367   4.352 -3.7693 -1.3971  0.6745
  711MOL0     H95977   6.527   4.295   4.332  1.8909 -2.4305  0.0662
  711MOL0     H95978   6.465   4.296   4.165  2.8206 -1.6754 -0.3990
  711MOL0     H95979   6.484   4.051   4.344  0.6146  0.8934 -1.4175
  711MOL0     H95980   6.467   4.062   4.168  1.7962 -0.1886 -0.7515
  711MOL0     H95981   6.885   4.098   4.218  0.8742  3.6202  2.6501
  711MOL0     H95982   5.981   4.103   4.534 -0.8398  0.1487  0.2671
  711MOL0     H95983   5.716   4.202   4.701 -0.6654 -0.0619  1.8413
  711MOL0     H95984   5.844   4.098   4.723 -3.3269 -1.6006  3.1936
  711MOL0     H95985   5.858   4.254   4.803 -3.0305  0.3284  0.1003
  712MOL0     O95986   3.833   4.967   6.635  1.2109 -0.7443  1.1947
  712MOL0     C95987   3.860   4.858   6.588 -0.1269  1.5552 -0.2442
  712MOL0     O95988   3.971   4.831   6.513 -0.4165  0.0519 -0.6978
  712MOL0     C95989   4.052   4.936   6.467  0.8129  0.6430 -0.1491
  712MOL0     C95990   3.993   5.049   6.412 -0.3833 -0.1573 -0.2169
  712MOL0     C95991   4.073   5.148   6.351  0.0041 -0.1933 -0.3052
  712MOL0     C95992   4.214   5.133   6.340  0.7083 -0.3149 -0.3109
  712MOL0     O95993   4.279   5.231   6.279 -0.1672 -0.6916  0.0133
  712MOL0     C95994   4.407   5.258   6.334  0.7961 -0.1234  0.6292
  712MOL0     C95995   4.481   5.364   6.255  0.0671 -0.4183  1.2934
  712MOL0     C95996   4.610   5.400   6.315 -0.1016  0.0445 -0.4024
  712MOL0     C95997   4.680   5.522   6.251 -0.9180 -0.5172  0.3939
  712MOL0     C95998   4.605   5.649   6.259 -0.0076 -0.2294 -0.3531
  712MOL0     C95999   4.595   5.708   6.397 -0.4807  0.8349  0.0862
  712MOL0     C96000   4.511   5.831   6.396 -0.7374 -0.4652  0.4418
  712MOL0     C96001   4.500   5.884   6.532  0.3792  0.7220 -0.1978
  712MOL0     N96002   4.625   5.949   6.577 -0.8695  0.0391  0.9367
  712MOL0     C96003   4.682   5.931   6.699 -0.7376  0.2278  0.4421
  712MOL0     C96004   4.794   6.010   6.694 -0.0575 -0.5561  0.1224
  712MOL0     C96005   4.879   6.042   6.811 -0.4591  0.0618  0.5756
  712MOL0     C96006   5.010   5.970   6.795  0.3773  0.0115 -0.3508
  712MOL0     C96007   4.993   5.815   6.807 -0.8657  0.3618  0.1535
  712MOL0     C96008   5.123   5.753   6.852  0.1954 -0.0070 -0.4165
  712MOL0     O96009   5.229   5.785   6.762 -0.1689 -0.6599  0.7268
  712MOL0     C96010   5.355   5.788   6.827 -0.9062 -0.5861  0.7887
  712MOL0     C96011   5.454   5.760   6.736  0.6193  0.4355 -0.3977
  712MOL0     C96012   5.590   5.755   6.770  0.4770  0.1047  0.8287
  712MOL0     C96013   5.634   5.794   6.893 -0.0626 -0.8146 -0.2413
  712MOL0     C96014   5.773   5.791   6.920  0.0620  0.0383 -0.0182
  712MOL0     O96015   5.807   5.810   7.054 -0.0669  0.6560 -0.1490
  712MOL0     C96016   5.921   5.764   7.121 -0.9000 -0.2575 -0.3428
  712MOL0     C96017   5.950   5.821   7.246 -0.4876 -0.1986  0.0682
  712MOL0     C96018   6.063   5.777   7.314 -0.2022 -0.4184  0.1246
  712MOL0     C96019   6.160   5.694   7.249  0.0979 -0.2984  0.4660
  712MOL0     O96020   6.286   5.686   7.311  0.2715  0.2786  0.4118
  712MOL0     C96021   6.398   5.652   7.227  0.2149  0.5227  0.9905
  712MOL0     C96022   6.530   5.680   7.298 -0.7283  0.2343 -0.1624
  712MOL0     C96023   6.643   5.614   7.219  0.4232  0.6500  0.6577
  712MOL0     C96024   6.780   5.638   7.275 -0.0611 -0.0415  0.0227
  712MOL0     C96025   6.879   5.556   7.189 -0.5301 -0.4434 -0.6921
  712MOL0     C96026   7.016   5.568   7.247 -0.2733 -0.5053 -0.8702
  712MOL0     C96027   7.121   5.482   7.168  0.3415  0.0413 -0.3305
  712MOL0     C96028   7.222   5.570   7.110  0.3284  0.0431 -0.5442
  712MOL0    Cl96029   7.352   5.473   7.024  0.5896 -0.1413  0.5829
  712MOL0     C96030   6.126   5.639   7.119 -0.2680  0.6910  0.7447
  712MOL0     C96031   6.004   5.666   7.062 -0.3606 -0.1489  0.0228
  712MOL0     O96032   5.856   5.780   6.825 -0.4220  0.1447  0.4088
  712MOL0     C96033   5.536   5.833   6.986  0.0841 -0.4510  0.0853
  712MOL0     C96034   5.396   5.827   6.952  0.2297  0.5518  0.9371
  712MOL0     N96035   4.814   6.057   6.570 -0.9529 -0.0723 -0.0212
  712MOL0     N96036   4.708   6.033   6.504  0.3694  0.1674 -0.1992
  712MOL0     C96037   4.268   5.016   6.386  0.0516 -0.5541 -0.3657
  712MOL0     C96038   4.190   4.933   6.465 -0.1858 -0.7647 -0.4787
  712MOL0     C96039   3.792   4.729   6.641 -0.6852 -0.3275 -0.2174
  712MOL0     C96040   3.851   4.608   6.611 -0.2572  0.2307  0.8722
  712MOL0     C96041   3.784   4.488   6.638  0.4916  1.1337  0.1513
  712MOL0     C96042   3.664   4.484   6.688  0.2055 -0.1092  0.0195
  712MOL0     O96043   3.614   4.356   6.694  0.1397 -0.2254  0.0272
  712MOL0     C96044   3.472   4.351   6.693  0.4471  0.6531 -0.4136
  712MOL0     C96045   3.427   4.211   6.653 -0.2275  0.5396  0.7542
  712MOL0     C96046   3.281   4.206   6.683 -0.7288 -0.2474  0.6524
  712MOL0     C96047   3.189   4.293   6.590 -0.0386 -0.1287 -0.0494
  712MOL0     C96048   3.204   4.255   6.443 -0.8529  0.5447 -0.3937
  712MOL0     C96049   3.227   4.206   6.335 -0.4894  1.2520 -0.2971
  712MOL0     C96050   3.603   4.610   6.727  0.6708  0.8665 -0.2723
  712MOL0     C96051   3.671   4.732   6.714 -0.3818  1.5185 -0.2014
  712MOL0     C96052   3.599   4.852   6.756  0.0398 -0.7771 -0.0409
  712MOL0     H96053   3.889   5.074   6.431  0.4400  2.0793  1.8565
  712MOL0     H96054   4.036   5.245   6.321 -0.4165 -0.9693 -2.5128
  712MOL0     H96055   4.397   5.295   6.436  1.9567 -0.6328  0.9396
  712MOL0     H96056   4.464   5.165   6.337 -2.3169 -2.2091  0.1767
  712MOL0     H96057   4.406   5.442   6.246 -2.1533 -2.3483  2.0757
  712MOL0     H96058   4.499   5.323   6.155 -0.1591 -1.3579  1.6261
  712MOL0     H96059   4.677   5.313   6.320 -1.2395 -0.7797  2.2260
  712MOL0     H96060   4.599   5.418   6.422 -3.1501  1.2389 -0.8234
  712MOL0     H96061   4.782   5.537   6.288 -0.4068 -1.4909 -0.5493
  712MOL0     H96062   4.700   5.493   6.147 -1.0606 -0.5177  0.3665
  712MOL0     H96063   4.648   5.719   6.187 -0.5500 -1.7345 -2.2109
  712MOL0     H96064   4.506   5.630   6.215  0.6391 -0.1392 -1.9055
  712MOL0     H96065   4.541   5.635   6.458  0.2334  1.3741  1.4075
  712MOL0     H96066   4.692   5.719   6.446  0.8510 -1.5888 -1.7944
  712MOL0     H96067   4.409   5.806   6.366 -0.1995 -0.5804 -1.3935
  712MOL0     H96068   4.549   5.900   6.320  3.4998 -3.9209 -1.0248
  712MOL0     H96069   4.413   5.951   6.530 -2.9291 -3.1404  0.9993
  712MOL0     H96070   4.478   5.801   6.599 -1.5632  2.3243  1.2689
  712MOL0     H96071   4.660   5.878   6.791  3.5956 -0.8268  1.0848
  712MOL0     H96072   4.894   6.149   6.798 -1.5120  0.0987 -0.5199
  712MOL0     H96073   4.820   6.018   6.901 -5.7181  0.1078 -2.4341
  712MOL0     H96074   5.041   5.998   6.694 -3.4644 -1.8044 -2.2377
  712MOL0     H96075   5.076   6.009   6.873 -1.8207  1.5560  0.8146
  712MOL0     H96076   4.962   5.784   6.706 -1.0633  1.0699 -0.0097
  712MOL0     H96077   4.911   5.787   6.873 -1.7478  2.3845 -0.0178
  712MOL0     H96078   5.125   5.646   6.831 -1.3511 -0.2973  0.7882
  712MOL0     H96079   5.132   5.782   6.957  1.8068  0.5550 -0.6693
  712MOL0     H96080   5.422   5.750   6.633 -0.8452  0.3442  0.0431
  712MOL0     H96081   5.661   5.715   6.698  1.7835  3.2677  0.1663
  712MOL0     H96082   5.887   5.895   7.295 -0.4483  0.4839 -0.8912
  712MOL0     H96083   6.070   5.804   7.419 -3.7908  2.9106 -0.2680
  712MOL0     H96084   6.403   5.545   7.205  1.4738  1.0592 -1.6611
  712MOL0     H96085   6.373   5.704   7.134  0.5649  1.6087  1.4867
  712MOL0     H96086   6.549   5.788   7.307  0.5631 -0.0550  0.8183
  712MOL0     H96087   6.515   5.628   7.393 -2.4678  2.3861  0.8491
  712MOL0     H96088   6.625   5.506   7.213  0.3263  0.7684 -3.0557
  712MOL0     H96089   6.636   5.641   7.113 -2.0057  0.1264  0.6168
  712MOL0     H96090   6.774   5.608   7.380 -1.0346  0.3651  0.0949
  712MOL0     H96091   6.811   5.743   7.280  1.8934 -0.5973  0.2294
  712MOL0     H96092   6.864   5.603   7.092 -2.3708  2.8803  1.0275
  712MOL0     H96093   6.851   5.450   7.181 -0.4643 -0.4541 -0.7815
  712MOL0     H96094   7.045   5.670   7.274 -1.0846 -0.6274  0.6084
  712MOL0     H96095   7.004   5.520   7.345 -2.6949  0.1425 -0.7818
  712MOL0     H96096   7.064   5.428   7.092 -0.7710  2.5926 -1.4355
  712MOL0     H96097   7.161   5.411   7.241  0.7834 -1.4174 -1.9138
  712MOL0     H96098   7.175   5.650   7.052  0.5702  0.4292 -0.2137
  712MOL0     H96099   7.258   5.633   7.191 -2.3129  0.3045  0.5164
  712MOL0     H96100   6.192   5.561   7.081 -1.6153  0.2206 -0.7399
  712MOL0     H96101   5.970   5.630   6.966 -0.9713 -0.8915  0.5035
  712MOL0     H96102   5.560   5.867   7.087 -1.1108 -2.2220  1.0241
  712MOL0     H96103   5.334   5.859   7.036  0.4565 -1.0115  1.7397
  712MOL0     H96104   4.371   4.994   6.361  0.8965  1.6952  0.8303
  712MOL0     H96105   4.245   4.849   6.506  3.3970  0.4813 -2.2927
  712MOL0     H96106   3.941   4.583   6.556 -2.4500 -2.4515 -1.8313
  712MOL0     H96107   3.824   4.396   6.595  1.0028  0.3042  2.2399
  712MOL0     H96108   3.432   4.422   6.620  0.7573  0.0679 -1.1651
  712MOL0     H96109   3.428   4.381   6.789 -1.1177 -2.0573 -0.1839
  712MOL0     H96110   3.468   4.124   6.704 -3.2104 -0.7183  1.1961
  712MOL0     H96111   3.454   4.194   6.549 -0.3285  0.6826  0.7034
  712MOL0     H96112   3.261   4.238   6.785 -1.5611  0.9846  0.1340
  712MOL0     H96113   3.247   4.102   6.680  1.2151 -0.9501  1.7092
  712MOL0     H96114   3.092   4.259   6.629  0.4363 -1.9206 -0.3671
  712MOL0     H96115   3.203   4.401   6.604  1.2249 -0.6127  3.0514
  712MOL0     H96116   3.221   4.152   6.243  0.8854  0.0887  0.2652
  712MOL0     H96117   3.504   4.612   6.771  0.1081  1.2263 -1.4959
  712MOL0     H96118   3.558   4.898   6.666  2.3249 -2.2934 -2.0015
  712MOL0     H96119   3.518   4.842   6.828 -0.4797 -0.8807 -0.6279
  712MOL0     H96120   3.670   4.913   6.812  0.0668 -0.5719 -0.3000
  713MOL0     O96121   3.368   1.651   5.607  1.3184 -0.5374 -0.6180
  713MOL0     C96122   3.368   1.560   5.532  1.0289  0.0295  0.2960
  713MOL0     O96123   3.472   1.527   5.449  0.1128 -0.1029 -0.2228
  713MOL0     C96124   3.585   1.601   5.457  0.4658 -0.2355  0.0094
  713MOL0     C96125   3.584   1.748   5.443  0.0403  0.1037  1.0492
  713MOL0     C96126   3.707   1.817   5.470 -0.0984  0.8774 -0.0672
  713MOL0     C96127   3.829   1.744   5.488 -0.1191 -0.5714  0.1567
  713MOL0     O96128   3.956   1.808   5.502  1.1439 -0.4630 -0.1430
  713MOL0     C96129   3.942   1.939   5.553 -0.4310  0.2157  0.7918
  713MOL0     C96130   3.967   2.043   5.443 -0.0155 -0.0054  0.6800
  713MOL0     C96131   4.090   2.019   5.357  0.1605 -0.0060  0.8971
  713MOL0     C96132   4.121   2.110   5.235 -0.7639 -0.0302 -0.6485
  713MOL0     C96133   4.190   2.239   5.279 -0.2741 -0.0337 -0.4284
  713MOL0     C96134   4.210   2.347   5.176  0.0334 -0.4848 -0.7032
  713MOL0     C96135   4.086   2.451   5.156 -0.0659 -0.5618  0.2566
  713MOL0     C96136   4.125   2.581   5.072 -0.4670  0.0675 -0.4012
  713MOL0     N96137   4.076   2.581   4.931  0.1963 -0.0693  0.2239
  713MOL0     C96138   3.951   2.558   4.884  0.4655 -0.4446 -0.3788
  713MOL0     C96139   3.970   2.585   4.749  0.5344 -0.4974 -0.6566
  713MOL0     C96140   3.873   2.555   4.643 -0.6491  0.2165 -0.2590
  713MOL0     C96141   3.763   2.651   4.638  0.5569  0.3753  0.1575
  713MOL0     C96142   3.643   2.625   4.540 -0.3126  0.0240  0.1451
  713MOL0     C96143   3.667   2.674   4.400  0.9259 -0.2866 -0.1053
  713MOL0     O96144   3.798   2.627   4.353 -0.4950  0.3829  0.0244
  713MOL0     C96145   3.878   2.707   4.266  0.9778 -0.6815 -0.0510
  713MOL0     C96146   3.831   2.807   4.178  0.4169  0.1356  0.2083
  713MOL0     C96147   3.911   2.887   4.098 -0.6156  0.7693  0.2500
  713MOL0     C96148   4.046   2.856   4.089  0.5575  0.2938 -0.7878
  713MOL0     C96149   4.132   2.934   3.995 -0.2935 -0.2440 -0.4948
  713MOL0     O96150   4.078   3.048   3.932  0.1915 -0.4714 -0.7778
  713MOL0     C96151   4.166   3.108   3.849 -0.1773 -0.0651  0.5728
  713MOL0     C96152   4.208   3.042   3.733 -0.0475  0.2802  0.6273
  713MOL0     C96153   4.304   3.115   3.653  0.2949 -0.0899  0.8388
  713MOL0     C96154   4.351   3.246   3.685  0.0907  0.5906 -0.0309
  713MOL0     O96155   4.422   3.307   3.582  0.5341 -0.0902 -0.4667
  713MOL0     C96156   4.504   3.413   3.632  0.2901  0.6352 -0.1873
  713MOL0     C96157   4.601   3.454   3.517 -0.1649  0.0876 -0.8205
  713MOL0     C96158   4.686   3.572   3.554  0.6742  0.3535 -0.4119
  713MOL0     C96159   4.741   3.643   3.438  0.6115  0.2468  0.5064
  713MOL0     C96160   4.819   3.762   3.471  0.2395 -0.1860 -1.1880
  713MOL0     C96161   4.909   3.796   3.349 -0.1329  0.0841 -0.3155
  713MOL0     C96162   4.811   3.841   3.234 -0.5139 -0.1460  0.5694
  713MOL0     C96163   4.884   3.908   3.114 -0.2844  0.3650 -0.7155
  713MOL0    Cl96164   4.776   3.982   2.999  0.1095  0.3092  0.5039
  713MOL0     C96165   4.318   3.286   3.818  0.5922 -0.8364 -0.4196
  713MOL0     C96166   4.232   3.221   3.898  0.1946  0.8592  0.9028
  713MOL0     O96167   4.248   2.900   3.994  0.1412  0.4347 -0.0075
  713MOL0     C96168   4.096   2.742   4.162  0.4478 -0.1261  1.0766
  713MOL0     C96169   4.014   2.673   4.241 -0.0508  0.4232 -0.6591
  713MOL0     N96170   4.092   2.650   4.733 -0.1648  0.5477 -0.8891
  713MOL0     N96171   4.150   2.649   4.839 -0.2520 -0.1369 -0.5095
  713MOL0     C96172   3.829   1.613   5.465 -0.4249  0.8635  0.7361
  713MOL0     C96173   3.710   1.539   5.457  0.5006  0.1925  0.2608
  713MOL0     C96174   3.230   1.492   5.523 -0.0795 -0.1802  0.2452
  713MOL0     C96175   3.241   1.359   5.469 -0.2217  0.3420  0.6293
  713MOL0     C96176   3.125   1.285   5.447  0.4575  0.6193  1.1665
  713MOL0     C96177   3.001   1.317   5.493 -0.7733  0.3047 -0.5760
  713MOL0     O96178   2.901   1.229   5.491 -0.0487  0.1592  0.5597
  713MOL0     C96179   2.788   1.242   5.579 -0.3144 -0.2744  0.7524
  713MOL0     C96180   2.686   1.134   5.542  0.1149  0.6659 -0.1752
  713MOL0     C96181   2.546   1.151   5.595 -0.3378  0.3299  0.2804
  713MOL0     C96182   2.448   1.071   5.502  0.5260  0.6529 -0.6387
  713MOL0     C96183   2.468   0.933   5.466 -0.0861 -0.3157  0.8561
  713MOL0     C96184   2.487   0.822   5.420 -0.4525  0.7590 -0.4887
  713MOL0     C96185   2.992   1.445   5.558  0.3233  1.0382 -0.3349
  713MOL0     C96186   3.103   1.524   5.569 -0.5588 -0.3602  0.0485
  713MOL0     C96187   3.065   1.662   5.616  0.1321  0.2339 -0.0569
  713MOL0     H96188   3.494   1.808   5.436 -1.6623 -2.3828  0.4052
  713MOL0     H96189   3.719   1.925   5.466  1.6285  0.6955 -1.1394
  713MOL0     H96190   3.855   1.959   5.615  0.6435 -1.7183  3.1200
  713MOL0     H96191   4.023   1.950   5.626  0.1837 -3.7395  0.9194
  713MOL0     H96192   3.971   2.137   5.499 -1.2267  0.7606 -0.4604
  713MOL0     H96193   3.875   2.049   5.384 -0.1127  1.7634  0.9523
  713MOL0     H96194   4.082   1.917   5.319 -0.3807  0.9662 -1.8232
  713MOL0     H96195   4.177   2.035   5.421  2.4761  0.5272 -2.1928
  713MOL0     H96196   4.187   2.046   5.175  2.3314  2.3399 -0.0076
  713MOL0     H96197   4.022   2.123   5.190 -0.0697  0.3494 -2.1170
  713MOL0     H96198   4.127   2.281   5.358  0.5363  0.1489  0.1366
  713MOL0     H96199   4.286   2.214   5.325 -0.5733  0.5504  0.5378
  713MOL0     H96200   4.302   2.401   5.200 -0.0077 -0.5919 -0.3008
  713MOL0     H96201   4.229   2.295   5.082 -3.2223  0.7748 -2.2153
  713MOL0     H96202   4.040   2.484   5.250  0.0460  2.1467 -0.5619
  713MOL0     H96203   4.010   2.393   5.102  0.5625  0.1862 -1.5059
  713MOL0     H96204   4.074   2.668   5.114 -1.5427 -0.3468 -0.8018
  713MOL0     H96205   4.232   2.590   5.090 -0.4549  0.3048 -0.6002
  713MOL0     H96206   3.867   2.520   4.941 -0.6221 -0.8875 -2.1896
  713MOL0     H96207   3.924   2.532   4.549  2.2185  0.8258  1.0467
  713MOL0     H96208   3.826   2.460   4.670  0.6627 -0.1817  0.7098
  713MOL0     H96209   3.715   2.652   4.737 -1.1311  0.7779 -0.6357
  713MOL0     H96210   3.799   2.753   4.621 -1.2525  1.2030  0.9807
  713MOL0     H96211   3.549   2.661   4.581  0.1850  2.5326 -0.7401
  713MOL0     H96212   3.622   2.518   4.528  0.8690 -0.0238 -1.9155
  713MOL0     H96213   3.662   2.783   4.397 -0.2084 -0.3367 -3.3179
  713MOL0     H96214   3.584   2.640   4.337  0.0072 -2.3749  2.0657
  713MOL0     H96215   3.723   2.820   4.172  0.1257 -1.3419  1.3873
  713MOL0     H96216   3.876   2.962   4.027  0.0334 -0.6343 -1.6591
  713MOL0     H96217   4.156   2.954   3.696  0.9675 -0.1865  0.2802
  713MOL0     H96218   4.338   3.071   3.560 -0.6097 -1.1420  0.9707
  713MOL0     H96219   4.442   3.498   3.661  1.5381  1.0653  1.3516
  713MOL0     H96220   4.554   3.366   3.718 -3.7024 -0.5862  1.7344
  713MOL0     H96221   4.659   3.363   3.503 -0.9594 -0.7270  0.9063
  713MOL0     H96222   4.552   3.482   3.423  1.6796  1.9916 -1.2945
  713MOL0     H96223   4.627   3.646   3.610 -1.9785  0.5026 -3.1806
  713MOL0     H96224   4.764   3.538   3.624 -2.0162 -2.2626  1.5772
  713MOL0     H96225   4.658   3.692   3.385  1.5938  2.4443  0.9157
  713MOL0     H96226   4.800   3.571   3.380 -1.4064  1.1017 -2.9336
  713MOL0     H96227   4.884   3.737   3.555 -2.0147  0.4239  0.8797
  713MOL0     H96228   4.751   3.846   3.490  0.1143 -0.8399  1.6777
  713MOL0     H96229   4.976   3.874   3.384  1.2778 -1.1211 -0.2277
  713MOL0     H96230   4.975   3.712   3.326 -1.3843 -1.0790  0.2084
  713MOL0     H96231   4.735   3.911   3.271  0.9359  2.8023 -1.5498
  713MOL0     H96232   4.756   3.751   3.206 -1.7408  0.9377 -0.6965
  713MOL0     H96233   4.951   3.987   3.148 -0.6071  0.4005 -0.1565
  713MOL0     H96234   4.937   3.839   3.048 -2.8428 -2.1799 -0.3053
  713MOL0     H96235   4.346   3.379   3.865 -1.3680 -1.3215  1.9062
  713MOL0     H96236   4.207   3.259   3.997  1.0708  1.2580  0.9826
  713MOL0     H96237   4.196   2.703   4.144  0.4827 -0.2482  1.5209
  713MOL0     H96238   4.062   2.597   4.302  2.4529  1.4677 -1.2130
  713MOL0     H96239   3.923   1.558   5.472  0.1799  1.5653 -1.2629
  713MOL0     H96240   3.711   1.431   5.446 -3.0304 -0.0560  1.2852
  713MOL0     H96241   3.337   1.314   5.447 -0.8701  0.4003 -2.9232
  713MOL0     H96242   3.135   1.185   5.404  0.0022  0.9957  0.1436
  713MOL0     H96243   2.736   1.339   5.582 -1.2643 -0.7936  3.4699
  713MOL0     H96244   2.832   1.229   5.678  0.7822  1.9173  0.6256
  713MOL0     H96245   2.730   1.035   5.555 -3.5874 -1.0170  0.9079
  713MOL0     H96246   2.672   1.146   5.434  0.1325  0.4973 -0.1949
  713MOL0     H96247   2.510   1.254   5.605 -0.2093  0.2597  1.6655
  713MOL0     H96248   2.539   1.103   5.693 -1.3065 -1.6806 -0.6975
  713MOL0     H96249   2.354   1.065   5.557  0.7845 -1.7895 -0.3537
  713MOL0     H96250   2.429   1.129   5.411 -0.4430 -2.2190 -2.3765
  713MOL0     H96251   2.484   0.723   5.378  1.5415 -0.0685  1.1321
  713MOL0     H96252   2.890   1.469   5.586 -0.4544 -3.9053  2.1674
  713MOL0     H96253   3.088   1.671   5.722  0.9308 -2.4319  0.0729
  713MOL0     H96254   3.134   1.729   5.564 -1.4372 -0.4563 -3.2864
  713MOL0     H96255   2.964   1.688   5.584  0.2107  1.9410  0.9855
  714MOL0     O96256   6.601   7.713   4.141  0.0562 -0.8521  0.0205
  714MOL0     C96257   6.613   7.729   4.015  0.3016 -0.0425  0.0925
  714MOL0     O96258   6.722   7.732   3.948 -0.2594 -0.5049 -0.1333
  714MOL0     C96259   6.844   7.753   4.004 -0.0001  0.7324 -0.0942
  714MOL0     C96260   6.884   7.703   4.122  0.0727  0.7569 -0.3100
  714MOL0     C96261   7.018   7.712   4.163  0.8754  0.8683  0.3452
  714MOL0     C96262   7.107   7.790   4.084  0.3557  0.8323  0.3822
  714MOL0     O96263   7.229   7.816   4.124 -0.2978  0.6257 -0.0381
  714MOL0     C96264   7.277   7.740   4.233  0.1892  0.5169 -0.2708
  714MOL0     C96265   7.424   7.736   4.253  0.8076 -0.0036 -0.5316
  714MOL0     C96266   7.517   7.686   4.136 -0.1622  0.7578  0.4943
  714MOL0     C96267   7.658   7.722   4.170 -0.5301 -0.0727  0.6788
  714MOL0     C96268   7.755   7.641   4.086 -0.2890 -0.1315  0.4202
  714MOL0     C96269   7.891   7.639   4.157 -1.0132 -0.3116 -0.8856
  714MOL0     C96270   7.990   7.543   4.095 -0.7865 -0.4101 -0.6160
  714MOL0     C96271   8.125   7.553   4.156  0.0989  1.3220  0.3865
  714MOL0     N96272   8.226   7.471   4.093 -0.2500  0.0919  0.1546
  714MOL0     C96273   8.316   7.391   4.151  0.6362  0.0615 -0.3875
  714MOL0     C96274   8.393   7.328   4.058  1.0673  0.6687 -0.4890
  714MOL0     C96275   8.505   7.228   4.071  0.4861  0.2343 -0.0156
  714MOL0     C96276   8.453   7.094   4.112  0.6079 -0.2539 -0.3424
  714MOL0     C96277   8.553   7.030   4.215 -0.0904  0.8224  0.3415
  714MOL0     C96278   8.512   6.881   4.226  0.3975 -0.8109 -0.8754
  714MOL0     O96279   8.602   6.810   4.312  0.3789 -1.1160  0.1362
  714MOL0     C96280   8.731   6.804   4.278 -0.8697  1.2286 -0.4122
  714MOL0     C96281   8.816   6.771   4.383 -0.5382 -0.0233 -0.1838
  714MOL0     C96282   8.953   6.773   4.352 -0.9331  0.5295  0.3205
  714MOL0     C96283   9.006   6.788   4.224 -0.2844  0.1846 -0.9190
  714MOL0     C96284   9.147   6.803   4.203 -0.8008 -0.1203 -0.0537
  714MOL0     O96285   9.211   6.867   4.301  0.3874  0.5817  0.1389
  714MOL0     C96286   9.347   6.884   4.286  0.2528 -0.3220  0.5339
  714MOL0     C96287   9.422   6.821   4.383 -0.1540 -0.3515 -0.5862
  714MOL0     C96288   9.566   6.847   4.380 -0.2607  0.3182  0.3275
  714MOL0     C96289   9.625   6.929   4.282 -0.5853 -0.3367 -0.4635
  714MOL0     O96290   9.761   6.959   4.294  0.0327  0.1043 -0.2246
  714MOL0     C96291   9.824   6.958   4.422  0.4638 -0.0085 -0.3204
  714MOL0     C96292   9.941   7.056   4.423 -0.2112  0.0535 -1.0803
  714MOL0     C96293   9.905   7.204   4.432 -0.2813  0.2244 -0.1730
  714MOL0     C96294  10.029   7.289   4.398 -0.2965 -0.4162 -0.6501
  714MOL0     C96295  10.003   7.427   4.361 -0.5097 -0.3882 -0.1640
  714MOL0     C96296  10.136   7.507   4.392 -0.4229 -0.4501 -0.3002
  714MOL0     C96297  10.124   7.658   4.356  0.6626 -0.1461 -0.3775
  714MOL0     C96298  10.241   7.737   4.409  0.5062 -0.0807  0.3747
  714MOL0    Cl96299  10.372   7.681   4.321 -0.3663 -0.0128  0.0006
  714MOL0     C96300   9.547   6.989   4.185 -0.6346  0.4557  0.6851
  714MOL0     C96301   9.409   6.958   4.183 -0.1440 -0.4488  1.3263
  714MOL0     O96302   9.197   6.756   4.100  0.3196 -0.2982 -0.7457
  714MOL0     C96303   8.917   6.821   4.124 -0.2479 -0.4222 -0.6017
  714MOL0     C96304   8.777   6.820   4.145  0.4669  0.6605  0.1006
  714MOL0     N96305   8.357   7.382   3.936 -0.5013 -0.4819  1.0019
  714MOL0     N96306   8.256   7.464   3.957 -0.0304  1.0044  0.5470
  714MOL0     C96307   7.070   7.853   3.965  0.2466  0.3016  0.5331
  714MOL0     C96308   6.938   7.826   3.928  0.2246 -0.0646  0.9102
  714MOL0     C96309   6.490   7.747   3.934 -0.3037 -0.3944 -0.4954
  714MOL0     C96310   6.503   7.728   3.794  0.2585  0.8263 -0.1609
  714MOL0     C96311   6.395   7.742   3.703 -0.0527  0.2281 -0.4248
  714MOL0     C96312   6.265   7.746   3.755 -0.1126 -0.3772 -0.6512
  714MOL0     O96313   6.143   7.752   3.697  0.1632 -0.3602  1.0414
  714MOL0     C96314   6.144   7.720   3.558 -0.1759 -0.0713  0.3654
  714MOL0     C96315   6.008   7.763   3.489 -0.2519  1.1236 -0.1233
  714MOL0     C96316   5.901   7.661   3.522  0.7227  0.2104  0.3263
  714MOL0     C96317   5.916   7.533   3.446 -0.8553 -0.3522 -0.7491
  714MOL0     C96318   5.827   7.434   3.507  0.2917 -0.1648  0.5740
  714MOL0     C96319   5.754   7.362   3.561 -0.6137 -0.4261 -0.7154
  714MOL0     C96320   6.252   7.766   3.892  0.4175 -0.9597  0.0659
  714MOL0     C96321   6.358   7.758   3.983 -0.2877  0.3266 -1.0166
  714MOL0     C96322   6.320   7.762   4.134  0.2105 -0.4836 -0.4472
  714MOL0     H96323   6.826   7.638   4.186  0.4380  1.4240  0.7224
  714MOL0     H96324   7.047   7.659   4.254  2.5951 -1.0196 -1.1934
  714MOL0     H96325   7.221   7.765   4.324  2.8083  0.5109  1.4273
  714MOL0     H96326   7.251   7.637   4.206 -1.5232  0.8376  0.0441
  714MOL0     H96327   7.449   7.694   4.351  0.6491  2.4233  0.6232
  714MOL0     H96328   7.446   7.843   4.267  0.1839  0.1977 -1.0470
  714MOL0     H96329   7.494   7.719   4.034  0.6037  0.1808  0.1250
  714MOL0     H96330   7.513   7.577   4.145  2.2123  0.3038 -2.3099
  714MOL0     H96331   7.669   7.829   4.148  1.2859 -0.9106 -3.3552
  714MOL0     H96332   7.680   7.719   4.277  1.1955 -0.7121  0.3355
  714MOL0     H96333   7.721   7.539   4.064 -1.5139  0.1220  1.0350
  714MOL0     H96334   7.762   7.692   3.990 -2.0174  0.4945  0.5922
  714MOL0     H96335   7.929   7.742   4.165 -0.5573 -0.6442  1.9860
  714MOL0     H96336   7.879   7.614   4.262  2.2439 -0.0796 -0.3715
  714MOL0     H96337   8.002   7.575   3.992  1.0447  1.5663  0.1404
  714MOL0     H96338   7.945   7.443   4.091 -1.7015  0.0322 -1.6802
  714MOL0     H96339   8.167   7.654   4.167  0.9155  1.1096 -0.6957
  714MOL0     H96340   8.110   7.508   4.255 -1.1165  2.1323  0.5870
  714MOL0     H96341   8.332   7.380   4.258  3.0749 -0.1633 -0.7297
  714MOL0     H96342   8.564   7.216   3.979  0.5621 -2.1303  0.2731
  714MOL0     H96343   8.577   7.256   4.149  0.0548 -1.7341  1.1499
  714MOL0     H96344   8.362   7.097   4.174  1.6432 -3.9136  1.6533
  714MOL0     H96345   8.428   7.027   4.029 -1.3385  3.6115 -3.1934
  714MOL0     H96346   8.566   7.092   4.304  2.7784  1.7648 -0.6135
  714MOL0     H96347   8.654   7.029   4.174  0.0276 -1.9362  0.5407
  714MOL0     H96348   8.498   6.844   4.124 -1.8253 -0.0198 -0.9028
  714MOL0     H96349   8.413   6.879   4.271  1.5963 -0.3214  2.0233
  714MOL0     H96350   8.778   6.740   4.480  1.3151 -4.3023 -0.5871
  714MOL0     H96351   9.017   6.762   4.439  3.0729  1.8683 -2.1960
  714MOL0     H96352   9.378   6.760   4.461  0.8559  3.3666  3.2256
  714MOL0     H96353   9.631   6.794   4.450  1.9067  2.1310 -0.1976
  714MOL0     H96354   9.759   6.970   4.509  1.4271 -0.9442  0.5622
  714MOL0     H96355   9.858   6.854   4.431 -1.6282 -0.6794  0.5294
  714MOL0     H96356  10.003   7.040   4.512 -3.2183 -1.3390  0.9201
  714MOL0     H96357  10.002   7.030   4.335  2.1379 -1.9877  1.0002
  714MOL0     H96358   9.819   7.217   4.366 -1.3328 -1.6188  0.7562
  714MOL0     H96359   9.872   7.234   4.533  0.8313  2.9233 -0.5127
  714MOL0     H96360  10.071   7.243   4.308 -1.3371 -1.1554 -0.7744
  714MOL0     H96361  10.106   7.291   4.476  1.4057 -1.9453 -2.1723
  714MOL0     H96362   9.917   7.459   4.421  0.8241 -1.6051  2.5712
  714MOL0     H96363   9.989   7.439   4.254  0.2838  1.5723 -0.0999
  714MOL0     H96364  10.163   7.498   4.498  0.5528  1.0388 -0.4047
  714MOL0     H96365  10.211   7.461   4.326 -0.5667  0.9024 -1.4458
  714MOL0     H96366  10.044   7.704   4.414  0.9196  1.7570 -1.4419
  714MOL0     H96367  10.113   7.661   4.247 -0.5413 -2.8360 -0.3987
  714MOL0     H96368  10.208   7.840   4.391  0.7783  0.4199  2.5552
  714MOL0     H96369  10.253   7.738   4.517  1.2241  0.4911  0.2956
  714MOL0     H96370   9.603   7.059   4.123  1.8327 -1.0036  1.1588
  714MOL0     H96371   9.364   7.007   4.097 -2.3907 -2.0028  1.5416
  714MOL0     H96372   8.957   6.848   4.028  1.1890  1.1315  0.3899
  714MOL0     H96373   8.700   6.837   4.071 -2.6485 -1.4804  2.5821
  714MOL0     H96374   7.135   7.928   3.921  1.9593  0.6293  3.3836
  714MOL0     H96375   6.908   7.870   3.834  1.6166  1.3787  1.0957
  714MOL0     H96376   6.592   7.683   3.751 -1.2271  0.3526 -3.0066
  714MOL0     H96377   6.403   7.728   3.596 -0.2413  0.0715 -0.4204
  714MOL0     H96378   6.162   7.614   3.541 -1.1136 -1.0409  4.3512
  714MOL0     H96379   6.218   7.786   3.513  3.3592  1.3123  6.8699
  714MOL0     H96380   6.015   7.757   3.380  1.9608  0.0690  0.0210
  714MOL0     H96381   5.972   7.858   3.529 -2.0260 -0.8389  3.5407
  714MOL0     H96382   5.810   7.713   3.491  2.0814  1.4977 -1.7773
  714MOL0     H96383   5.893   7.641   3.629 -1.5389 -0.6643  0.0576
  714MOL0     H96384   5.881   7.553   3.344  0.3116  1.1362 -0.8822
  714MOL0     H96385   6.019   7.496   3.442 -0.1683  1.4539 -0.5693
  714MOL0     H96386   5.678   7.301   3.607  0.7075  0.3790  2.8536
  714MOL0     H96387   6.154   7.785   3.936  1.1325  0.8141  1.0226
  714MOL0     H96388   6.368   7.675   4.181 -1.6349 -2.0236 -1.2440
  714MOL0     H96389   6.355   7.853   4.182 -1.6286  0.5141 -0.9357
  714MOL0     H96390   6.211   7.769   4.135  0.1678 -1.0414  0.8341
  715MOL0     O96391   9.105   7.982  10.574  0.2724  0.3635  0.1634
  715MOL0     C96392   9.126   8.046  10.676 -0.4081  0.4331  0.2051
  715MOL0     O96393   9.238   8.121  10.698  0.2455  0.3254  0.2717
  715MOL0     C96394   9.338   8.126  10.602  0.1087 -0.1830 -0.6729
  715MOL0     C96395   9.400   8.012  10.546 -0.9129 -0.0477  0.1391
  715MOL0     C96396   9.515   8.022  10.466 -0.2411  1.3841 -0.0110
  715MOL0     C96397   9.557   8.145  10.421  0.1622 -0.4823  0.7404
  715MOL0     O96398   9.645   8.157  10.318 -0.9599 -0.2877 -0.0937
  715MOL0     C96399   9.702   8.039  10.259  0.9387 -0.8009  0.1142
  715MOL0     C96400   9.805   8.082  10.150  0.3100 -0.4149 -0.0345
  715MOL0     C96401   9.934   8.145  10.196  0.3559 -0.0717  0.3235
  715MOL0     C96402  10.029   8.181  10.085 -0.4032 -0.6148  0.3597
  715MOL0     C96403  10.164   8.210  10.137 -1.1183 -0.1089  0.1600
  715MOL0     C96404  10.254   8.280  10.029 -0.1658  0.3106 -0.3319
  715MOL0     C96405  10.400   8.306  10.065 -0.0235 -0.6276 -0.5952
  715MOL0     C96406  10.484   8.189  10.013 -0.3850  0.2838 -0.7323
  715MOL0     N96407  10.627   8.200  10.041 -0.4184  0.5469 -0.5117
  715MOL0     C96408  10.709   8.090  10.078  0.3686 -0.0919  0.6714
  715MOL0     C96409  10.833   8.136  10.053 -0.0909 -0.1713  0.4792
  715MOL0     C96410  10.965   8.067  10.054  0.2893 -0.3359 -0.0881
  715MOL0     C96411  10.995   8.027   9.908 -0.3165  0.9603 -0.0610
  715MOL0     C96412  11.122   7.945   9.919  0.0779  1.1828 -0.0104
  715MOL0     C96413  11.196   7.954   9.780 -0.1002 -0.2019  1.2973
  715MOL0     O96414  11.306   7.866   9.776  0.1940 -0.0614 -0.3719
  715MOL0     C96415  11.379   7.878   9.657 -0.4286 -0.3203 -0.9823
  715MOL0     C96416  11.467   7.773   9.629 -0.6818 -0.5984  0.3322
  715MOL0     C96417  11.565   7.787   9.524 -0.7505  0.2265  0.2384
  715MOL0     C96418  11.558   7.901   9.434 -0.0074  0.1764  0.0271
  715MOL0     C96419  11.653   7.924   9.331  0.1684 -0.4131  0.3663
  715MOL0     O96420  11.757   7.838   9.317 -0.4279  0.0819 -0.0250
  715MOL0     C96421  11.839   7.829   9.212 -0.2835 -0.7319 -0.4281
  715MOL0     C96422  11.877   7.705   9.165 -0.7400  0.2201 -0.3384
  715MOL0     C96423  11.984   7.692   9.072  0.0873 -0.0754 -0.0525
  715MOL0     C96424  12.046   7.809   9.029  0.3612  0.7392  1.3856
  715MOL0     O96425  12.154   7.796   8.944 -0.2962 -0.3276 -0.1716
  715MOL0     C96426  12.278   7.846   9.002  0.4969  0.3553 -0.3931
  715MOL0     C96427  12.404   7.759   8.955  0.7978  0.7058 -0.4836
  715MOL0     C96428  12.374   7.602   8.973 -0.3142  0.1358 -0.6212
  715MOL0     C96429  12.497   7.519   8.914  0.7571  0.3851  0.0775
  715MOL0     C96430  12.447   7.380   8.872  0.1953 -0.4885  0.2173
  715MOL0     C96431  12.419   7.388   8.719  0.4006 -0.6106 -1.1006
  715MOL0     C96432  12.374   7.265   8.651  0.8642 -0.0389  0.3293
  715MOL0     C96433  12.256   7.191   8.716  0.5625  0.8020 -0.8589
  715MOL0    Cl96434  12.192   7.050   8.623  0.4587  0.1535 -0.0309
  715MOL0     C96435  12.003   7.935   9.071 -0.2495 -0.6980  0.2896
  715MOL0     C96436  11.902   7.950   9.168 -0.1824  0.1920 -0.9669
  715MOL0     O96437  11.625   8.012   9.247  0.3500 -0.5644  0.5086
  715MOL0     C96438  11.464   7.999   9.459  0.1510  0.0595 -0.2054
  715MOL0     C96439  11.382   7.992   9.575 -0.2625 -0.2603  1.5372
  715MOL0     N96440  10.834   8.265  10.003  1.0626 -0.1374 -0.7020
  715MOL0     N96441  10.708   8.301  10.010  0.0229 -0.6208  0.8587
  715MOL0     C96442   9.488   8.255  10.475 -0.0121  0.0597  0.5956
  715MOL0     C96443   9.382   8.249  10.568  0.1752  0.2481 -0.0476
  715MOL0     C96444   9.033   8.030  10.788 -0.1738  0.8316  0.2722
  715MOL0     C96445   9.087   8.012  10.918 -0.4553 -0.1909  0.1299
  715MOL0     C96446   9.001   8.021  11.032 -0.7916  0.9970  0.6720
  715MOL0     C96447   8.861   8.017  11.011  0.1826  0.2896 -0.7179
  715MOL0     O96448   8.765   7.997  11.110 -0.1234  0.2838 -0.5852
  715MOL0     C96449   8.783   8.081  11.226  0.4472 -0.0102  0.2548
  715MOL0     C96450   8.710   8.210  11.219  0.4157 -0.7543 -0.0987
  715MOL0     C96451   8.564   8.194  11.186 -0.5168 -0.0141  0.1914
  715MOL0     C96452   8.497   8.324  11.169 -0.5468 -0.2203  0.3454
  715MOL0     C96453   8.486   8.403  11.298 -0.3829  0.3073  0.1676
  715MOL0     C96454   8.481   8.485  11.387 -1.2788  0.3741 -0.1955
  715MOL0     C96455   8.813   8.011  10.879 -0.4344  1.0496  1.4967
  715MOL0     C96456   8.890   8.025  10.763  0.2016  0.2227 -0.1910
  715MOL0     C96457   8.820   8.053  10.638 -0.5195  0.4871 -0.1061
  715MOL0     H96458   9.377   7.911  10.578 -0.9211  0.5521  2.1708
  715MOL0     H96459   9.560   7.929  10.433 -0.6153  0.5063  1.8785
  715MOL0     H96460   9.753   7.985  10.339 -0.6176 -1.3765  0.7599
  715MOL0     H96461   9.616   7.998  10.206  0.0203  3.7846 -2.5006
  715MOL0     H96462   9.762   8.150  10.076 -1.1742  1.1401  2.1714
  715MOL0     H96463   9.830   7.985  10.106 -0.2233 -0.4283 -0.3129
  715MOL0     H96464   9.978   8.089  10.279 -2.4030  0.4944  2.3127
  715MOL0     H96465   9.914   8.244  10.238  1.8225  1.0048 -1.3886
  715MOL0     H96466  10.028   8.093  10.020 -1.5237 -0.5681  0.2973
  715MOL0     H96467   9.984   8.261  10.026 -1.1410  0.4386  2.2722
  715MOL0     H96468  10.157   8.270  10.229 -0.9605 -0.7001  0.5626
  715MOL0     H96469  10.213   8.116  10.165 -2.6624 -0.2353  2.7879
  715MOL0     H96470  10.241   8.223   9.936 -0.5771 -1.6897  0.9049
  715MOL0     H96471  10.215   8.381  10.015  0.2617  0.6958  1.1544
  715MOL0     H96472  10.402   8.321  10.173  1.5493 -0.6646 -0.5995
  715MOL0     H96473  10.448   8.396  10.026  1.4669 -0.3386  1.7131
  715MOL0     H96474  10.460   8.093  10.060 -0.4241 -0.2276 -1.7619
  715MOL0     H96475  10.478   8.185   9.904  4.5638 -2.6773 -1.1910
  715MOL0     H96476  10.674   7.998  10.124 -3.0262 -0.0266 -1.4353
  715MOL0     H96477  11.042   8.140  10.082 -0.4907  0.8535 -0.9942
  715MOL0     H96478  10.959   7.985  10.127  3.4620 -0.2818  0.3797
  715MOL0     H96479  10.929   7.951   9.864 -1.2365  1.2486  0.7624
  715MOL0     H96480  11.016   8.104   9.834 -1.4015  0.0266 -1.3989
  715MOL0     H96481  11.119   7.836   9.929  0.0375  1.3307  1.8676
  715MOL0     H96482  11.180   7.983  10.003 -1.8163  2.7188  0.6926
  715MOL0     H96483  11.234   8.057   9.777  3.2325 -1.3248 -0.8015
  715MOL0     H96484  11.123   7.940   9.701  0.9363 -2.2824  0.6294
  715MOL0     H96485  11.480   7.694   9.702 -0.4463 -1.0309 -0.1620
  715MOL0     H96486  11.633   7.704   9.509 -1.6837 -0.3447 -1.0148
  715MOL0     H96487  11.829   7.614   9.200 -1.1323  0.4201 -0.3464
  715MOL0     H96488  12.026   7.601   9.032  0.8083  0.9541 -1.7488
  715MOL0     H96489  12.306   7.951   8.993 -0.2486  0.6791  0.8605
  715MOL0     H96490  12.257   7.840   9.109  0.7604 -0.6127 -0.3850
  715MOL0     H96491  12.432   7.782   8.852  1.7901  0.2315 -0.3258
  715MOL0     H96492  12.490   7.798   9.011  0.5495  3.1020 -1.6523
  715MOL0     H96493  12.355   7.573   9.077 -0.3238 -1.3893 -1.0215
  715MOL0     H96494  12.282   7.584   8.916 -0.9129  2.3509 -0.4572
  715MOL0     H96495  12.573   7.496   8.989 -0.3729 -0.8482  0.9158
  715MOL0     H96496  12.552   7.580   8.843 -0.2391 -0.0439 -1.0961
  715MOL0     H96497  12.359   7.351   8.930 -0.2317  2.5543  1.2802
  715MOL0     H96498  12.531   7.311   8.886  2.3344  2.3208  2.3237
  715MOL0     H96499  12.334   7.457   8.722  1.1823  0.3637 -1.2148
  715MOL0     H96500  12.502   7.436   8.667 -0.0587  2.4816  0.8033
  715MOL0     H96501  12.462   7.201   8.645  2.0737  1.6521 -1.2811
  715MOL0     H96502  12.338   7.299   8.553  1.0546 -2.9474 -0.8692
  715MOL0     H96503  12.292   7.150   8.811  1.0381 -0.8110 -1.7029
  715MOL0     H96504  12.174   7.261   8.733 -0.9573 -1.0445 -0.2968
  715MOL0     H96505  12.055   8.027   9.045 -0.2551 -0.9853 -0.7693
  715MOL0     H96506  11.867   8.044   9.209 -1.7381 -0.3742 -0.9301
  715MOL0     H96507  11.454   8.087   9.396  1.1034 -0.2372 -0.7827
  715MOL0     H96508  11.315   8.077   9.586 -0.1727  0.6969 -3.0303
  715MOL0     H96509   9.500   8.353  10.430 -0.5604 -0.1822 -0.0980
  715MOL0     H96510   9.326   8.333  10.609 -1.5671  0.6973 -2.9998
  715MOL0     H96511   9.194   8.003  10.931 -0.0607  1.7831 -1.2269
  715MOL0     H96512   9.035   8.010  11.134  0.2369  0.5924  0.3035
  715MOL0     H96513   8.886   8.107  11.249  0.8627  1.7267 -2.9883
  715MOL0     H96514   8.748   8.024  11.313  3.2670  0.8803  2.1199
  715MOL0     H96515   8.750   8.281  11.146 -2.9691 -1.4155 -2.8616
  715MOL0     H96516   8.712   8.258  11.317 -1.0423  2.0208 -1.3251
  715MOL0     H96517   8.514   8.133  11.261 -1.7137 -0.9578 -1.3029
  715MOL0     H96518   8.558   8.147  11.087  1.0664  0.3814 -0.1332
  715MOL0     H96519   8.556   8.380  11.095 -1.3360 -1.1464 -1.0284
  715MOL0     H96520   8.403   8.311  11.115 -0.7576  3.7180 -0.5450
  715MOL0     H96521   8.466   8.542  11.476  1.2373  1.6054 -0.4624
  715MOL0     H96522   8.706   8.021  10.868 -0.6128  0.2104  2.4069
  715MOL0     H96523   8.784   7.962  10.588 -0.2678  0.0679  0.4565
  715MOL0     H96524   8.740   8.128  10.644  1.4145  2.5505  1.8016
  715MOL0     H96525   8.884   8.104  10.566  0.1623 -2.7423 -2.0128
  716MOL0     O96526   4.464   0.887   1.571  0.4444  0.9507 -0.5516
  716MOL0     C96527   4.406   0.930   1.668 -0.4705  0.5388 -0.2405
  716MOL0     O96528   4.474   1.008   1.757 -0.1014  0.1495 -0.4968
  716MOL0     C96529   4.599   1.065   1.737  0.1939 -0.6261 -0.5164
  716MOL0     C96530   4.619   1.145   1.625 -0.7781  0.5120  0.2653
  716MOL0     C96531   4.741   1.213   1.599  0.3773 -0.1533 -0.7708
  716MOL0     C96532   4.847   1.205   1.688  0.7497  0.1996 -1.1740
  716MOL0     O96533   4.965   1.258   1.655 -0.2482 -0.1548  0.6103
  716MOL0     C96534   5.075   1.182   1.709 -0.6249  0.0848  0.2272
  716MOL0     C96535   5.093   1.040   1.652 -0.5317 -0.5220 -1.0712
  716MOL0     C96536   5.234   0.987   1.663 -0.0138 -0.2645 -0.2074
  716MOL0     C96537   5.226   0.838   1.625  0.2734  0.3240 -0.1351
  716MOL0     C96538   5.360   0.772   1.644 -1.7007  0.9440  0.2582
  716MOL0     C96539   5.475   0.847   1.577  1.3737 -0.9772  0.0690
  716MOL0     C96540   5.613   0.785   1.580 -0.9560 -1.1501  0.3223
  716MOL0     C96541   5.614   0.669   1.487 -0.3278  0.2243  0.0959
  716MOL0     N96542   5.748   0.619   1.459 -0.2729 -0.9833 -0.1024
  716MOL0     C96543   5.861   0.608   1.542  0.2293  0.6262 -0.3005
  716MOL0     C96544   5.960   0.551   1.469  0.4061 -0.2179  1.2892
  716MOL0     C96545   6.111   0.541   1.492 -0.2440  0.1832 -0.0704
  716MOL0     C96546   6.148   0.389   1.497 -0.3306  0.0754  1.2262
  716MOL0     C96547   6.167   0.328   1.356  0.4461 -0.1358 -0.1397
  716MOL0     C96548   6.247   0.196   1.355  0.4271  0.5440  0.3346
  716MOL0     O96549   6.385   0.233   1.356  0.1335  0.6520 -0.4261
  716MOL0     C96550   6.483   0.128   1.356  1.0221 -0.6859 -0.7672
  716MOL0     C96551   6.456  -0.008   1.361  0.6351 -0.3543  0.4445
  716MOL0     C96552   6.556  -0.095   1.341 -0.0283 -0.4571  0.3383
  716MOL0     C96553   6.689  -0.050   1.351 -0.6553  0.0023  0.5468
  716MOL0     C96554   6.794  -0.153   1.331  0.6597  0.3804  0.2932
  716MOL0     O96555   6.921  -0.103   1.361 -0.2386  0.9149 -0.3891
  716MOL0     C96556   7.031  -0.186   1.376 -0.2437 -0.2372  0.6111
  716MOL0     C96557   7.144  -0.112   1.351 -1.1412 -0.4035 -0.3038
  716MOL0     C96558   7.270  -0.177   1.341 -0.4366  0.0157  0.2962
  716MOL0     C96559   7.279  -0.309   1.353 -1.2316  0.1121  1.0778
  716MOL0     O96560   7.395  -0.386   1.334 -0.4891 -0.1449  0.1399
  716MOL0     C96561   7.518  -0.325   1.292  0.1767 -0.2479  1.0359
  716MOL0     C96562   7.601  -0.442   1.232  0.7268 -0.0751 -0.0273
  716MOL0     C96563   7.747  -0.401   1.195 -0.4427  0.3863 -0.5277
  716MOL0     C96564   7.808  -0.520   1.125 -0.3764 -0.6865 -0.2363
  716MOL0     C96565   7.770  -0.524   0.975  0.4664 -0.1257 -1.0611
  716MOL0     C96566   7.835  -0.657   0.900  0.1706 -0.7799 -0.2731
  716MOL0     C96567   7.985  -0.634   0.897 -0.8850  0.3924 -0.4159
  716MOL0     C96568   8.064  -0.755   0.837  0.2170  0.3647 -0.5965
  716MOL0    Cl96569   8.240  -0.735   0.862 -0.0684  0.4039 -0.2132
  716MOL0     C96570   7.165  -0.394   1.386  0.3903  0.5425 -0.7880
  716MOL0     C96571   7.045  -0.333   1.395  0.7263 -0.2215 -0.4172
  716MOL0     O96572   6.768  -0.271   1.307 -0.0309  0.3873  0.0226
  716MOL0     C96573   6.716   0.086   1.346  0.8658 -0.9393 -0.3693
  716MOL0     C96574   6.611   0.173   1.351  0.1435 -0.4310 -0.7754
  716MOL0     N96575   5.907   0.531   1.345 -0.2848  0.1652 -0.8655
  716MOL0     N96576   5.788   0.573   1.338  0.0966 -0.1080  0.2522
  716MOL0     C96577   4.815   1.143   1.817 -0.6178  0.6468 -0.5001
  716MOL0     C96578   4.697   1.078   1.844 -0.4706  0.8033  0.1277
  716MOL0     C96579   4.272   0.882   1.716  0.2107  0.4172 -0.5536
  716MOL0     C96580   4.221   0.936   1.838 -0.0542 -0.1942 -0.3523
  716MOL0     C96581   4.095   0.912   1.877  0.8061 -0.5282  0.5453
  716MOL0     C96582   4.010   0.829   1.802 -0.5338 -1.5980  0.0173
  716MOL0     O96583   3.886   0.809   1.851 -0.3155 -0.0029 -0.2063
  716MOL0     C96584   3.791   0.718   1.791 -0.6377 -0.8967 -0.0075
  716MOL0     C96585   3.678   0.720   1.900 -0.0828  0.2120 -0.4299
  716MOL0     C96586   3.566   0.640   1.835 -0.9355 -0.0876  0.1525
  716MOL0     C96587   3.433   0.656   1.909  0.2679 -0.3414  0.6694
  716MOL0     C96588   3.341   0.566   1.837  0.7524 -0.2833 -0.4672
  716MOL0     C96589   3.245   0.501   1.799 -0.7982  0.2487  0.0412
  716MOL0     C96590   4.057   0.771   1.681 -0.0058 -0.3888 -0.1334
  716MOL0     C96591   4.185   0.803   1.634  0.9673  0.9612  0.1465
  716MOL0     C96592   4.232   0.724   1.518 -0.6592 -0.4808 -0.0950
  716MOL0     H96593   4.551   1.146   1.541  1.4229 -1.4185 -1.6962
  716MOL0     H96594   4.757   1.265   1.505  2.1669 -0.5298 -0.7124
  716MOL0     H96595   5.161   1.249   1.694 -0.8028 -0.1986 -2.4533
  716MOL0     H96596   5.082   1.169   1.818  1.3219  1.5678  0.3403
  716MOL0     H96597   5.066   1.046   1.547 -2.0329  1.5779 -0.6358
  716MOL0     H96598   5.024   0.974   1.706 -0.0838  0.8013  1.2887
  716MOL0     H96599   5.272   1.004   1.764 -1.9952 -0.9635  0.7101
  716MOL0     H96600   5.289   1.041   1.586 -0.1496  0.7735  0.3984
  716MOL0     H96601   5.157   0.780   1.687  0.0101 -0.1505 -0.8605
  716MOL0     H96602   5.195   0.823   1.521 -2.3787 -2.5429  0.9146
  716MOL0     H96603   5.386   0.762   1.750  1.8129 -0.7795 -0.6205
  716MOL0     H96604   5.354   0.676   1.592 -2.5064  0.6441  0.8783
  716MOL0     H96605   5.445   0.880   1.477  0.0510 -0.8123  0.4953
  716MOL0     H96606   5.485   0.943   1.627 -0.6111 -2.0408  2.7593
  716MOL0     H96607   5.643   0.765   1.683  0.4348  0.4789  0.2836
  716MOL0     H96608   5.685   0.861   1.546 -0.3275 -0.9934  1.9251
  716MOL0     H96609   5.553   0.592   1.536 -0.2022  1.9179  3.1838
  716MOL0     H96610   5.562   0.679   1.391  0.8268  0.4789 -0.5226
  716MOL0     H96611   5.864   0.644   1.644  0.1615 -0.8112  0.2327
  716MOL0     H96612   6.178   0.588   1.420  2.0467 -2.1897  0.3533
  716MOL0     H96613   6.118   0.589   1.591 -2.1722  2.5701 -0.9723
  716MOL0     H96614   6.247   0.380   1.543  2.2507 -0.3729 -3.7751
  716MOL0     H96615   6.081   0.328   1.560  1.7413 -0.3989  3.1181
  716MOL0     H96616   6.202   0.397   1.278 -1.4964  0.7594 -0.2885
  716MOL0     H96617   6.059   0.314   1.341  0.1873  1.2209  0.2880
  716MOL0     H96618   6.224   0.133   1.269 -2.5850 -1.5978  2.4576
  716MOL0     H96619   6.219   0.128   1.437  1.0597 -0.2587 -0.0988
  716MOL0     H96620   6.354  -0.045   1.359  0.7107 -0.7666  2.3151
  716MOL0     H96621   6.529  -0.200   1.330 -2.9013 -0.0926  2.5089
  716MOL0     H96622   7.137  -0.004   1.345  0.5952 -0.1444  1.3488
  716MOL0     H96623   7.358  -0.115   1.324  0.8145 -1.8768 -0.3905
  716MOL0     H96624   7.503  -0.259   1.205  1.3124 -0.5408  0.6001
  716MOL0     H96625   7.569  -0.269   1.370 -2.2725 -0.6943  3.0898
  716MOL0     H96626   7.609  -0.524   1.303  0.6276 -1.4709 -1.5503
  716MOL0     H96627   7.543  -0.467   1.142  1.2863  0.5915 -0.5871
  716MOL0     H96628   7.747  -0.311   1.133  0.9559  0.2962 -0.6711
  716MOL0     H96629   7.804  -0.389   1.288  2.3877 -0.7208 -2.0123
  716MOL0     H96630   7.771  -0.618   1.158  1.7621 -2.3210 -2.3218
  716MOL0     H96631   7.916  -0.512   1.140 -0.3950 -4.1414  3.5636
  716MOL0     H96632   7.815  -0.433   0.935  2.5796 -0.1858  1.0051
  716MOL0     H96633   7.662  -0.528   0.958  0.7904 -2.3252 -3.3081
  716MOL0     H96634   7.800  -0.741   0.961  0.0730 -0.2313  0.4431
  716MOL0     H96635   7.791  -0.662   0.800 -1.4078  1.3202  0.2584
  716MOL0     H96636   8.028  -0.641   0.997 -2.2550 -0.7905  0.1298
  716MOL0     H96637   8.023  -0.552   0.835  1.8153 -0.0477  0.5477
  716MOL0     H96638   8.021  -0.850   0.873 -2.0421  1.6567  0.3347
  716MOL0     H96639   8.058  -0.738   0.729 -0.1204  2.3518 -0.3044
  716MOL0     H96640   7.176  -0.502   1.395 -2.9792 -0.1412 -2.9304
  716MOL0     H96641   6.960  -0.400   1.404 -0.9784  1.9290  0.7119
  716MOL0     H96642   6.820   0.114   1.331  1.1279 -2.1884 -1.0594
  716MOL0     H96643   6.629   0.279   1.338  0.8470 -0.4784 -0.2409
  716MOL0     H96644   4.893   1.154   1.893 -1.7433 -3.5771  1.5704
  716MOL0     H96645   4.679   1.045   1.946  2.3752 -2.8707 -0.3609
  716MOL0     H96646   4.284   1.000   1.899  0.2303  1.1896 -2.0234
  716MOL0     H96647   4.042   0.940   1.968  0.8520  1.4157  0.0114
  716MOL0     H96648   3.826   0.614   1.784 -0.8261 -0.8428 -3.6034
  716MOL0     H96649   3.754   0.750   1.694 -1.3550 -1.4722  0.0638
  716MOL0     H96650   3.644   0.823   1.919  1.8713  0.3535  2.9004
  716MOL0     H96651   3.709   0.674   1.993 -0.8222 -0.8719 -0.7023
  716MOL0     H96652   3.583   0.532   1.843 -0.8927 -0.1046 -0.1585
  716MOL0     H96653   3.560   0.670   1.730  1.3646  0.6004  0.1612
  716MOL0     H96654   3.439   0.622   2.012 -2.2412 -1.9144  0.3561
  716MOL0     H96655   3.386   0.755   1.920  0.2707 -0.5047  2.4385
  716MOL0     H96656   3.160   0.445   1.764 -0.3461 -1.5205  1.6622
  716MOL0     H96657   3.988   0.715   1.618 -0.1019 -0.4117 -0.0088
  716MOL0     H96658   4.240   0.795   1.435  2.0685  0.5129  0.9116
  716MOL0     H96659   4.332   0.685   1.537 -0.2031  1.7819  2.9211
  716MOL0     H96660   4.167   0.640   1.491 -0.3126 -0.7105 -0.2172
  717MOL0     O96661  11.108   7.700   3.251  0.0018  0.4167 -0.0879
  717MOL0     C96662  11.036   7.607   3.219  0.7218  0.4593 -0.0047
  717MOL0     O96663  10.949   7.541   3.297 -0.0227  0.9357  0.4043
  717MOL0     C96664  10.916   7.593   3.420 -0.5870  0.4390 -0.1386
  717MOL0     C96665  10.825   7.689   3.443 -0.2327  0.7575  0.3684
  717MOL0     C96666  10.799   7.742   3.561 -0.5507 -0.0988 -0.5379
  717MOL0     C96667  10.867   7.686   3.675  0.2119 -0.5884 -0.6111
  717MOL0     O96668  10.824   7.739   3.793 -0.0409 -0.0785  0.5116
  717MOL0     C96669  10.873   7.670   3.914  0.6220  0.0476  0.8473
  717MOL0     C96670  10.825   7.743   4.044 -0.5383 -0.5350 -0.2447
  717MOL0     C96671  10.880   7.686   4.169  0.5938  0.8516  0.4725
  717MOL0     C96672  11.029   7.728   4.189  0.5523 -0.3490 -0.2052
  717MOL0     C96673  11.079   7.675   4.322  0.0644 -0.1725 -0.0098
  717MOL0     C96674  11.069   7.794   4.422 -0.4364 -0.2299 -0.5127
  717MOL0     C96675  11.143   7.751   4.550 -0.8248 -0.4645 -0.5418
  717MOL0     C96676  11.168   7.864   4.646 -0.4536  1.2439 -0.3319
  717MOL0     N96677  11.231   7.815   4.773  0.4614  0.8681  0.2870
  717MOL0     C96678  11.252   7.874   4.892  0.8627  0.0761 -0.8055
  717MOL0     C96679  11.318   7.783   4.966 -0.1664  0.1755  0.6819
  717MOL0     C96680  11.362   7.797   5.106  1.0620 -0.2859  0.8725
  717MOL0     C96681  11.248   7.769   5.201  0.1886 -0.6262 -0.7748
  717MOL0     C96682  11.185   7.627   5.192 -1.0686 -0.3217 -0.1198
  717MOL0     C96683  11.286   7.512   5.216 -0.2977 -0.2760  0.4540
  717MOL0     O96684  11.322   7.504   5.355  0.6865 -0.1643 -0.9580
  717MOL0     C96685  11.423   7.415   5.388  0.0400 -0.4330 -0.2446
  717MOL0     C96686  11.463   7.439   5.514 -0.0250 -0.9722  0.0852
  717MOL0     C96687  11.567   7.368   5.569 -0.1268  0.3266 -0.5265
  717MOL0     C96688  11.616   7.252   5.503  0.1712 -0.5810  0.3269
  717MOL0     C96689  11.718   7.171   5.570  0.3484 -0.9480  0.0076
  717MOL0     O96690  11.780   7.080   5.496 -1.2995 -0.5822  0.1640
  717MOL0     C96691  11.890   7.005   5.536  0.1063 -0.3855  0.0885
  717MOL0     C96692  11.895   6.870   5.504 -0.4482  0.1485 -0.1048
  717MOL0     C96693  12.008   6.791   5.532  0.5476  0.0168 -0.4604
  717MOL0     C96694  12.119   6.857   5.596  0.2044  0.0862  0.2253
  717MOL0     O96695  12.240   6.793   5.632  0.3505 -0.5373  0.1824
  717MOL0     C96696  12.246   6.652   5.619 -0.3087  0.4869 -0.1149
  717MOL0     C96697  12.377   6.610   5.689  0.4872  0.5962  0.6595
  717MOL0     C96698  12.497   6.649   5.611 -0.1141  0.6418  0.0091
  717MOL0     C96699  12.622   6.595   5.678 -0.0340 -0.1986 -0.5329
  717MOL0     C96700  12.746   6.653   5.609  0.1360  0.1357  0.2132
  717MOL0     C96701  12.880   6.575   5.634 -0.0250  0.4906 -0.2575
  717MOL0     C96702  12.990   6.631   5.545 -0.7523 -0.7281  0.1259
  717MOL0     C96703  13.135   6.582   5.572  0.1214 -0.2472  0.1046
  717MOL0    Cl96704  13.262   6.717   5.564 -0.3246  0.1292 -0.1158
  717MOL0     C96705  12.116   6.989   5.632 -0.4037  1.2015 -0.0781
  717MOL0     C96706  11.996   7.055   5.603 -1.2013 -0.2183 -0.0957
  717MOL0     O96707  11.741   7.188   5.689  0.1406  1.6072  0.0356
  717MOL0     C96708  11.576   7.229   5.368 -0.2074  0.6776  0.0082
  717MOL0     C96709  11.475   7.305   5.316  0.1743 -0.7014 -0.5741
  717MOL0     N96710  11.342   7.663   4.897 -0.2780 -0.7603 -0.3077
  717MOL0     N96711  11.287   7.691   4.788  0.6722 -0.5118 -0.0825
  717MOL0     C96712  10.954   7.586   3.658 -0.0294  0.5275 -0.2581
  717MOL0     C96713  10.972   7.537   3.531 -0.0090  0.7777  0.9873
  717MOL0     C96714  11.062   7.563   3.085 -0.4907 -0.3305  0.7275
  717MOL0     C96715  11.005   7.630   2.981  0.0983  0.5961 -0.4626
  717MOL0     C96716  11.015   7.596   2.845 -0.8811  0.6377 -0.7147
  717MOL0     C96717  11.096   7.490   2.809 -0.4278 -0.1247 -0.2999
  717MOL0     O96718  11.137   7.477   2.678  0.6276  0.3889  0.1937
  717MOL0     C96719  11.117   7.355   2.614 -0.2741  0.6815 -0.4124
  717MOL0     C96720  10.967   7.336   2.583 -0.3685  0.0453 -0.3172
  717MOL0     C96721  10.911   7.449   2.485 -0.5226  0.2314 -1.2559
  717MOL0     C96722  10.778   7.402   2.431  0.2444  0.5183 -1.4129
  717MOL0     C96723  10.793   7.328   2.314  0.3334 -0.1736  0.1662
  717MOL0     C96724  10.808   7.270   2.213  0.1154 -0.2213  0.6876
  717MOL0     C96725  11.168   7.422   2.906 -0.5982 -0.0175 -0.6755
  717MOL0     C96726  11.154   7.457   3.051 -0.0640 -0.5839  0.3022
  717MOL0     C96727  11.234   7.382   3.157  0.2400 -0.5108  0.1642
  717MOL0     H96728  10.773   7.720   3.352  0.2262  0.1861 -0.0951
  717MOL0     H96729  10.723   7.819   3.549  0.2968  0.5660 -1.9491
  717MOL0     H96730  10.820   7.574   3.913  1.1779 -0.2598  0.6116
  717MOL0     H96731  10.982   7.663   3.909  0.5868  0.1883 -0.4536
  717MOL0     H96732  10.716   7.734   4.033 -0.7068 -0.3453  1.1732
  717MOL0     H96733  10.851   7.849   4.033 -5.2897  0.6683 -2.3775
  717MOL0     H96734  10.858   7.578   4.166  0.4922  0.8994 -0.8009
  717MOL0     H96735  10.819   7.732   4.247 -0.4823 -0.9259  0.7475
  717MOL0     H96736  11.096   7.676   4.121 -0.0052 -2.8371  1.0390
  717MOL0     H96737  11.053   7.833   4.171  1.6399 -0.0938  2.2824
  717MOL0     H96738  11.020   7.590   4.358 -2.1506  1.8901  1.6169
  717MOL0     H96739  11.187   7.656   4.318  0.2920 -0.6904  4.1358
  717MOL0     H96740  11.117   7.874   4.365 -3.7023  1.7072 -0.7424
  717MOL0     H96741  10.964   7.822   4.433 -0.6300 -0.7689 -0.9086
  717MOL0     H96742  11.241   7.706   4.531 -0.1989 -1.1298  3.3887
  717MOL0     H96743  11.083   7.675   4.602 -1.8273  0.4326 -0.3520
  717MOL0     H96744  11.241   7.931   4.599  0.0020  1.3100  0.4433
  717MOL0     H96745  11.070   7.910   4.663 -0.9098 -0.0871  0.8431
  717MOL0     H96746  11.220   7.977   4.900  0.3601 -0.1132 -0.2968
  717MOL0     H96747  11.450   7.734   5.126  1.7675 -0.2519 -1.7752
  717MOL0     H96748  11.384   7.902   5.124 -0.3913 -0.4468  4.3989
  717MOL0     H96749  11.286   7.771   5.304  2.4025  0.0881 -1.5594
  717MOL0     H96750  11.169   7.845   5.193  2.2065  1.8690  1.2328
  717MOL0     H96751  11.140   7.617   5.093  0.5281  3.3008 -1.3760
  717MOL0     H96752  11.096   7.624   5.255 -1.0973  1.4398 -0.0309
  717MOL0     H96753  11.375   7.533   5.156 -1.8001 -2.9641 -3.0044
  717MOL0     H96754  11.252   7.415   5.178 -0.8868  0.7360 -1.7360
  717MOL0     H96755  11.439   7.536   5.555 -1.1588 -0.8510 -0.8294
  717MOL0     H96756  11.585   7.394   5.673  1.1235 -2.5159  0.0580
  717MOL0     H96757  11.817   6.814   5.452 -0.3131 -0.8243  0.7029
  717MOL0     H96758  12.006   6.685   5.510  0.1744 -0.0054 -0.3386
  717MOL0     H96759  12.159   6.606   5.666 -0.0707 -0.0573 -0.1959
  717MOL0     H96760  12.255   6.631   5.512 -1.3346  1.8081 -0.4941
  717MOL0     H96761  12.378   6.644   5.793 -0.8668 -0.7477  1.1395
  717MOL0     H96762  12.381   6.501   5.696 -1.5099  0.5753  2.9095
  717MOL0     H96763  12.476   6.621   5.508 -2.4159 -2.4191  1.1574
  717MOL0     H96764  12.517   6.756   5.625  3.9878 -0.0871  1.1344
  717MOL0     H96765  12.625   6.486   5.670 -1.0234 -0.3966  1.3468
  717MOL0     H96766  12.599   6.631   5.778 -2.9020  0.4075 -1.3437
  717MOL0     H96767  12.768   6.750   5.655  2.5168  0.2167 -0.9463
  717MOL0     H96768  12.732   6.670   5.502  0.6069 -0.1799  0.1032
  717MOL0     H96769  12.910   6.586   5.738  1.2594 -0.4262 -0.5066
  717MOL0     H96770  12.872   6.470   5.605 -1.1062  0.3762  0.4172
  717MOL0     H96771  12.988   6.741   5.549 -1.8346 -0.7309  0.0766
  717MOL0     H96772  12.960   6.608   5.442 -0.8906 -0.0037 -0.0067
  717MOL0     H96773  13.132   6.532   5.670  0.1714 -1.2061 -0.3774
  717MOL0     H96774  13.170   6.512   5.496  4.0600  3.2539 -1.7320
  717MOL0     H96775  12.191   7.042   5.690  1.7548 -1.3875 -0.3113
  717MOL0     H96776  11.990   7.149   5.657  0.7908 -0.6547  0.9678
  717MOL0     H96777  11.623   7.144   5.320 -1.1560 -1.4546  2.5727
  717MOL0     H96778  11.434   7.285   5.218  2.7600 -1.0751 -1.6741
  717MOL0     H96779  11.009   7.531   3.734  0.8123  1.5439 -0.1090
  717MOL0     H96780  11.046   7.458   3.533 -1.1900 -0.3727  3.5025
  717MOL0     H96781  10.944   7.717   3.003 -0.7233 -0.3784  1.2838
  717MOL0     H96782  10.955   7.657   2.778 -0.9082  1.0237 -0.3449
  717MOL0     H96783  11.141   7.267   2.675 -3.8302  0.2552  0.6181
  717MOL0     H96784  11.180   7.365   2.525  1.5368  1.2450  0.8850
  717MOL0     H96785  10.913   7.327   2.678  0.2297 -0.4947 -0.0224
  717MOL0     H96786  10.955   7.240   2.531 -3.9278  1.6000 -2.8075
  717MOL0     H96787  10.977   7.488   2.407  0.1463  0.8551 -0.3978
  717MOL0     H96788  10.887   7.537   2.547  0.6858 -0.9701  1.0668
  717MOL0     H96789  10.729   7.344   2.510  0.4570  0.8401 -1.0402
  717MOL0     H96790  10.718   7.492   2.416 -3.2009 -1.3190  0.1748
  717MOL0     H96791  10.806   7.224   2.116 -3.7076  2.2782 -0.6645
  717MOL0     H96792  11.231   7.340   2.872  2.2760  1.9582 -0.5032
  717MOL0     H96793  11.165   7.351   3.237 -1.1041  0.7654 -0.4653
  717MOL0     H96794  11.276   7.289   3.119  0.4001 -0.8772  1.1972
  717MOL0     H96795  11.302   7.444   3.215 -0.0747 -1.1513  1.2610
  718MOL0     O96796   0.415   7.304   5.059 -0.1920 -0.2170  0.3526
  718MOL0     C96797   0.339   7.206   5.043 -0.0031 -0.6476 -0.0653
  718MOL0     O96798   0.365   7.091   5.106 -0.8975  0.6773  0.5519
  718MOL0     C96799   0.504   7.072   5.109  0.0806  0.7022  0.2307
  718MOL0     C96800   0.563   7.015   5.005  0.1349  0.0526  0.6925
  718MOL0     C96801   0.700   6.992   5.010  1.0973  0.8389 -0.6002
  718MOL0     C96802   0.774   7.003   5.128  0.0184  0.0962 -0.8970
  718MOL0     O96803   0.894   6.950   5.164  0.2219 -0.1008  0.2534
  718MOL0     C96804   0.971   6.898   5.053  0.7903 -0.1019 -0.3994
  718MOL0     C96805   1.092   6.823   5.114 -0.3090 -1.0864 -0.1560
  718MOL0     C96806   1.207   6.926   5.113  0.3445 -0.5537 -0.9481
  718MOL0     C96807   1.331   6.855   5.168  0.2162 -0.7565  0.2547
  718MOL0     C96808   1.451   6.953   5.160  0.4000  0.5707 -1.1126
  718MOL0     C96809   1.586   6.879   5.180  0.3139  0.4786  0.2747
  718MOL0     C96810   1.590   6.734   5.165 -0.5976  0.3921  0.4415
  718MOL0     C96811   1.737   6.686   5.186  0.7306 -0.1740 -0.1808
  718MOL0     N96812   1.824   6.743   5.085 -0.3187 -0.1006 -0.0091
  718MOL0     C96813   1.841   6.695   4.958 -0.2751 -0.3450 -0.5734
  718MOL0     C96814   1.941   6.770   4.907  0.6358 -0.8602  0.3075
  718MOL0     C96815   1.969   6.772   4.758 -0.6431 -0.5789 -0.2724
  718MOL0     C96816   1.928   6.910   4.689 -0.3530 -0.0922  0.1814
  718MOL0     C96817   1.989   6.929   4.550  0.4109 -0.1193  0.4413
  718MOL0     C96818   2.139   6.980   4.548 -1.0380  0.0152 -0.1561
  718MOL0     O96819   2.179   7.008   4.411 -0.0454  0.3257  0.4905
  718MOL0     C96820   2.140   7.120   4.347 -0.4185 -0.0708  0.2229
  718MOL0     C96821   2.160   7.130   4.208 -0.2421 -0.2517  0.2999
  718MOL0     C96822   2.126   7.245   4.135 -1.3006 -0.7202 -0.2331
  718MOL0     C96823   2.062   7.354   4.199  0.1146 -0.8402 -0.4421
  718MOL0     C96824   1.991   7.469   4.121  0.1527  0.3184 -1.2487
  718MOL0     O96825   2.026   7.474   3.986  0.5793  0.9403  0.1327
  718MOL0     C96826   1.974   7.574   3.904  0.5359 -0.5254 -0.0628
  718MOL0     C96827   1.940   7.715   3.936  0.0254 -0.2602 -0.3676
  718MOL0     C96828   1.879   7.802   3.847 -0.4405  0.1542  0.5934
  718MOL0     C96829   1.852   7.754   3.712  0.1471 -0.5169 -0.2509
  718MOL0     O96830   1.796   7.845   3.628  0.4672 -0.4166 -0.4359
  718MOL0     C96831   1.897   7.925   3.560  0.4536  0.2888 -0.7726
  718MOL0     C96832   1.812   8.022   3.476  0.7355  0.5625 -0.4716
  718MOL0     C96833   1.909   8.114   3.403 -0.6484 -0.8319  0.1620
  718MOL0     C96834   1.837   8.244   3.366  0.1796  0.7976 -0.1752
  718MOL0     C96835   1.928   8.338   3.288  0.4351 -0.3166 -0.5490
  718MOL0     C96836   1.932   8.292   3.145 -0.7452  0.2753 -0.2428
  718MOL0     C96837   1.979   8.415   3.062 -0.7135 -0.2385  0.1501
  718MOL0     C96838   2.020   8.379   2.923 -0.6165  0.3184  0.2820
  718MOL0    Cl96839   2.066   8.532   2.850 -0.1559 -0.6621  0.0078
  718MOL0     C96840   1.872   7.618   3.682 -0.2636 -0.6793  0.7972
  718MOL0     C96841   1.934   7.533   3.776  0.8736  0.4494  0.3428
  718MOL0     O96842   1.916   7.549   4.185  0.0132  0.1163 -0.4176
  718MOL0     C96843   2.030   7.336   4.337  0.6138  0.3518  0.3537
  718MOL0     C96844   2.071   7.231   4.410  0.7325  0.0819  0.5908
  718MOL0     N96845   1.979   6.862   5.002 -0.5476 -0.4070 -0.9647
  718MOL0     N96846   1.919   6.835   5.111  0.3733 -0.4892  0.4258
  718MOL0     C96847   0.700   7.061   5.232 -0.7082 -0.0175 -0.2112
  718MOL0     C96848   0.573   7.105   5.223 -0.4017 -0.6057 -1.4651
  718MOL0     C96849   0.206   7.222   4.970 -0.3699 -0.4042  0.1076
  718MOL0     C96850   0.116   7.110   4.980 -1.6817  0.4026  0.4300
  718MOL0     C96851  -0.013   7.104   4.923  0.2086  0.2953 -0.1556
  718MOL0     C96852  -0.065   7.211   4.853  0.6758 -0.2950 -0.6486
  718MOL0     O96853  -0.201   7.218   4.825  0.4851  0.7027 -0.0249
  718MOL0     C96854  -0.279   7.270   4.930 -0.4693 -0.3650 -0.3073
  718MOL0     C96855  -0.426   7.263   4.891 -0.0803 -0.0743 -0.5267
  718MOL0     C96856  -0.457   7.353   4.767  0.5564  0.5211  0.0236
  718MOL0     C96857  -0.601   7.403   4.767 -0.7448 -0.4946  0.0697
  718MOL0     C96858  -0.624   7.527   4.699 -0.5421 -0.5025  0.9229
  718MOL0     C96859  -0.641   7.635   4.641  0.1807 -0.5323  0.4049
  718MOL0     C96860   0.019   7.323   4.838  0.2820  0.3885 -0.6398
  718MOL0     C96861   0.151   7.334   4.898 -0.6654 -0.2844 -0.5163
  718MOL0     C96862   0.218   7.471   4.889 -0.5226 -0.1378 -1.1867
  718MOL0     H96863   0.500   6.997   4.919  0.2819 -1.8730  0.9320
  718MOL0     H96864   0.749   6.948   4.924  0.0259 -2.3065  0.2476
  718MOL0     H96865   0.909   6.832   4.991  1.0785 -1.1134  0.3497
  718MOL0     H96866   1.009   6.978   4.989  1.0759 -1.1242 -1.5603
  718MOL0     H96867   1.130   6.740   5.054  0.8007 -1.3965  0.9265
  718MOL0     H96868   1.075   6.791   5.217  0.9474 -3.2326 -0.5638
  718MOL0     H96869   1.176   7.006   5.182  0.7257 -0.9126 -0.3514
  718MOL0     H96870   1.217   6.973   5.015 -0.8763 -0.2453 -0.9320
  718MOL0     H96871   1.306   6.824   5.269  0.3920 -3.8687 -0.5457
  718MOL0     H96872   1.354   6.765   5.109 -0.1277  0.6528 -2.1702
  718MOL0     H96873   1.447   7.009   5.067  1.3896 -0.2404 -1.6558
  718MOL0     H96874   1.426   7.026   5.238  2.2149 -1.3432  1.4353
  718MOL0     H96875   1.665   6.925   5.120  1.7776 -3.0118 -0.6822
  718MOL0     H96876   1.602   6.891   5.288  0.7863 -0.1796  0.2828
  718MOL0     H96877   1.552   6.702   5.067 -1.8524 -1.1917  1.3943
  718MOL0     H96878   1.525   6.680   5.234 -0.3967 -1.2485 -0.6103
  718MOL0     H96879   1.775   6.708   5.286 -1.3493 -0.6295  0.7722
  718MOL0     H96880   1.726   6.578   5.167 -3.0652  0.0161  0.2215
  718MOL0     H96881   1.793   6.610   4.911  0.2332  0.0093 -1.7573
  718MOL0     H96882   2.077   6.756   4.747 -0.7562 -1.4740 -0.1468
  718MOL0     H96883   1.914   6.693   4.706 -2.8230 -0.8981  2.2800
  718MOL0     H96884   1.820   6.912   4.678 -0.4884  0.6318  1.4797
  718MOL0     H96885   1.956   6.986   4.763  2.5440 -0.6669 -0.1802
  718MOL0     H96886   1.935   7.008   4.498  1.2317 -0.9987 -1.8726
  718MOL0     H96887   1.976   6.842   4.486 -0.6836 -1.8205  2.8319
  718MOL0     H96888   2.207   6.900   4.577 -0.0775 -0.2473 -2.8429
  718MOL0     H96889   2.156   7.065   4.614  1.3380  0.4269 -1.1990
  718MOL0     H96890   2.192   7.038   4.160 -5.2304 -0.9979 -2.3662
  718MOL0     H96891   2.153   7.248   4.030 -1.1627 -1.1391 -0.2106
  718MOL0     H96892   1.951   7.746   4.040 -1.0817 -2.6828  0.5613
  718MOL0     H96893   1.864   7.905   3.875  2.9709  0.8952  0.1365
  718MOL0     H96894   1.957   7.988   3.626  0.7440 -0.6941 -0.0774
  718MOL0     H96895   1.963   7.861   3.500  1.7274  0.8209  0.0208
  718MOL0     H96896   1.743   7.974   3.406  0.3922  1.6508 -0.8855
  718MOL0     H96897   1.749   8.083   3.540  0.9373  0.7925 -0.4902
  718MOL0     H96898   1.982   8.142   3.479 -0.6634  2.8370 -0.9921
  718MOL0     H96899   1.953   8.074   3.311  2.0144  0.7390  0.6468
  718MOL0     H96900   1.804   8.287   3.461  2.4213 -0.0632  1.0858
  718MOL0     H96901   1.743   8.214   3.318  0.2778 -0.4033  0.3575
  718MOL0     H96902   2.031   8.342   3.325  0.5157 -1.1958 -0.6706
  718MOL0     H96903   1.890   8.440   3.301  5.4483  1.7610  0.0520
  718MOL0     H96904   2.005   8.213   3.127 -0.6937  0.9354 -3.5422
  718MOL0     H96905   1.836   8.260   3.105 -0.0745  1.5450 -3.1942
  718MOL0     H96906   2.071   8.454   3.105 -2.1275  1.7424  1.5540
  718MOL0     H96907   1.901   8.491   3.057 -0.9497 -0.1142  3.5962
  718MOL0     H96908   2.092   8.297   2.922  1.5121  2.0252  1.7191
  718MOL0     H96909   1.928   8.346   2.875  0.2938 -2.4728  0.3010
  718MOL0     H96910   1.840   7.571   3.590  0.5256 -1.8984  1.1183
  718MOL0     H96911   1.941   7.429   3.747  0.7046  0.5894 -0.2216
  718MOL0     H96912   1.984   7.421   4.387 -0.8906  2.0115 -3.4028
  718MOL0     H96913   2.062   7.251   4.516 -0.5845  2.7508  0.0651
  718MOL0     H96914   0.739   7.050   5.333 -0.7490 -0.2566 -0.2206
  718MOL0     H96915   0.522   7.143   5.311 -2.1708 -1.6287 -1.9842
  718MOL0     H96916   0.148   7.016   5.024 -0.6723  0.7316  0.4471
  718MOL0     H96917  -0.084   7.025   4.943 -0.8762  1.2150 -0.2418
  718MOL0     H96918  -0.252   7.376   4.934 -0.4615 -0.3646 -0.3604
  718MOL0     H96919  -0.253   7.233   5.030 -0.8471  0.6753  0.2000
  718MOL0     H96920  -0.491   7.294   4.974  1.2296  2.5232 -0.3707
  718MOL0     H96921  -0.451   7.159   4.867  0.8642 -0.5178  0.3405
  718MOL0     H96922  -0.436   7.302   4.672  3.1515  1.6353 -0.0868
  718MOL0     H96923  -0.384   7.434   4.771  0.4843  0.6845 -1.4484
  718MOL0     H96924  -0.668   7.327   4.725  1.5323 -1.8451 -1.3092
  718MOL0     H96925  -0.621   7.424   4.872  0.9795 -0.9518  0.5127
  718MOL0     H96926  -0.637   7.732   4.596 -0.9671 -1.1071 -0.9995
  718MOL0     H96927  -0.017   7.405   4.777 -0.2776  0.4942 -0.1769
  718MOL0     H96928   0.304   7.472   4.821 -0.0754 -0.4798 -0.6326
  718MOL0     H96929   0.153   7.552   4.857  2.2487  3.4672  1.3647
  718MOL0     H96930   0.241   7.506   4.991 -0.7624  0.9565 -1.4960
  719MOL0     O96931   6.861   7.225   0.837  0.5338  0.2790 -0.8403
  719MOL0     C96932   6.888   7.313   0.756  0.6279  1.0019  0.4810
  719MOL0     O96933   6.951   7.292   0.638  0.3839  0.1058 -0.1171
  719MOL0     C96934   7.005   7.175   0.617 -0.3033  0.5204 -0.8688
  719MOL0     C96935   7.102   7.121   0.702 -0.9727 -0.1403  0.7207
  719MOL0     C96936   7.170   7.004   0.660 -0.7713  0.4170  0.8224
  719MOL0     C96937   7.149   6.945   0.535 -0.3470 -0.1997 -0.3521
  719MOL0     O96938   7.220   6.850   0.474 -0.2338  0.2710 -0.2028
  719MOL0     C96939   7.285   6.753   0.563 -0.0802  0.5358 -0.4765
  719MOL0     C96940   7.315   6.618   0.488 -0.6144  0.3398 -0.7512
  719MOL0     C96941   7.380   6.517   0.587  1.6582  0.0914 -0.0347
  719MOL0     C96942   7.419   6.379   0.518 -0.1952 -0.1745 -0.6503
  719MOL0     C96943   7.299   6.286   0.498  0.0387 -1.1716  0.9173
  719MOL0     C96944   7.265   6.199   0.610  0.4514  1.0880  0.6494
  719MOL0     C96945   7.110   6.179   0.595 -0.5215  0.2191 -0.5477
  719MOL0     C96946   7.050   6.131   0.733 -0.2950  0.1670 -0.2670
  719MOL0     N96947   6.948   6.039   0.710  0.5472 -0.3497 -0.1967
  719MOL0     C96948   6.962   5.903   0.696  0.0124 -0.2538  0.5219
  719MOL0     C96949   6.841   5.854   0.676  0.4893 -0.6103 -0.2110
  719MOL0     C96950   6.810   5.704   0.650  0.3087 -0.2191 -0.4684
  719MOL0     C96951   6.729   5.634   0.761 -0.0968 -0.7305 -0.3370
  719MOL0     C96952   6.824   5.608   0.875 -0.5312  0.2754 -0.0187
  719MOL0     C96953   6.755   5.630   1.010 -0.0081  0.5279 -0.0614
  719MOL0     O96954   6.723   5.769   1.038 -0.0785  0.5819  0.0909
  719MOL0     C96955   6.818   5.864   1.068 -0.0790  0.3733 -0.8599
  719MOL0     C96956   6.796   5.993   1.019 -0.0996 -0.2163  0.3178
  719MOL0     C96957   6.877   6.104   1.059  0.1567  0.3047 -0.4233
  719MOL0     C96958   6.983   6.082   1.138  0.6744  0.4340  0.4524
  719MOL0     C96959   7.084   6.194   1.178  0.7972  0.0810 -0.1444
  719MOL0     O96960   7.162   6.167   1.274 -0.6737 -0.2216 -0.2310
  719MOL0     C96961   7.249   6.258   1.334 -0.4121  0.8566 -0.4332
  719MOL0     C96962   7.239   6.246   1.476  0.4860 -0.4070  0.2432
  719MOL0     C96963   7.323   6.320   1.554  0.2311 -0.3527 -0.0144
  719MOL0     C96964   7.416   6.415   1.495 -0.4858 -0.7787  0.1776
  719MOL0     O96965   7.502   6.504   1.548 -0.2240  0.1114 -0.1901
  719MOL0     C96966   7.470   6.575   1.676  0.4139  0.6402  0.7837
  719MOL0     C96967   7.569   6.558   1.787 -0.0849 -0.2047  0.2223
  719MOL0     C96968   7.715   6.607   1.744 -0.0458 -0.4660 -0.7291
  719MOL0     C96969   7.796   6.648   1.869 -0.4492 -0.1044 -0.0467
  719MOL0     C96970   7.921   6.719   1.822 -0.6263 -0.5470 -0.8992
  719MOL0     C96971   7.997   6.787   1.939 -0.1906 -0.0965 -0.1770
  719MOL0     C96972   8.143   6.813   1.901  0.5264  0.1175 -0.0924
  719MOL0     C96973   8.244   6.830   2.016 -0.5012 -0.1801  0.2797
  719MOL0    Cl96974   8.409   6.855   1.953 -0.3656 -0.2277  0.2242
  719MOL0     C96975   7.416   6.422   1.351 -0.0283 -0.1973  0.7919
  719MOL0     C96976   7.337   6.339   1.266 -0.0206  0.1351  0.2604
  719MOL0     O96977   7.087   6.295   1.108 -0.6986  0.1883 -0.1650
  719MOL0     C96978   7.005   5.949   1.187 -0.0434 -0.2939  0.0014
  719MOL0     C96979   6.926   5.845   1.155 -0.2501  0.3458  0.2814
  719MOL0     N96980   6.750   5.962   0.678  1.2743  0.1143 -0.5875
  719MOL0     N96981   6.821   6.070   0.683  0.0776  0.6807 -0.0995
  719MOL0     C96982   7.045   6.996   0.452 -0.5248 -0.2489  0.4982
  719MOL0     C96983   6.975   7.111   0.493 -0.2354 -0.4124  0.3379
  719MOL0     C96984   6.857   7.457   0.778  0.5843  0.4673 -0.4586
  719MOL0     C96985   6.805   7.539   0.674  0.3885  0.1804  0.0157
  719MOL0     C96986   6.785   7.678   0.682 -0.1098  0.5029  0.5472
  719MOL0     C96987   6.825   7.741   0.795  0.1040 -0.6872 -0.3308
  719MOL0     O96988   6.813   7.875   0.810 -0.5937 -0.3625 -0.2001
  719MOL0     C96989   6.908   7.953   0.886 -0.1459 -0.0119 -0.3655
  719MOL0     C96990   7.041   7.948   0.818 -0.0724 -0.1655  0.4114
  719MOL0     C96991   7.039   8.017   0.687 -0.7783 -0.4877 -0.4665
  719MOL0     C96992   7.162   8.016   0.599  0.2671 -0.2818 -0.1825
  719MOL0     C96993   7.166   8.134   0.517  0.4330 -0.7983 -0.0504
  719MOL0     C96994   7.173   8.233   0.442  0.0194 -0.3459  0.7566
  719MOL0     C96995   6.867   7.666   0.905  0.6438  0.0144 -0.3943
  719MOL0     C96996   6.884   7.528   0.899 -0.0190 -0.2340 -0.0662
  719MOL0     C96997   6.925   7.451   1.022  0.1834 -0.6696 -0.2548
  719MOL0     H96998   7.117   7.167   0.799  5.3207  1.1434 -0.4474
  719MOL0     H96999   7.245   6.968   0.729 -1.1297 -0.5923  0.6952
  719MOL0     H97000   7.378   6.792   0.606  0.1679 -0.8731  0.3564
  719MOL0     H97001   7.221   6.733   0.650  0.1943 -4.2387 -1.0718
  719MOL0     H97002   7.387   6.637   0.408 -1.5799 -0.0759 -1.7470
  719MOL0     H97003   7.219   6.585   0.448 -0.1690  0.7089 -2.1718
  719MOL0     H97004   7.306   6.507   0.667 -0.2360  0.7035 -1.6242
  719MOL0     H97005   7.471   6.562   0.627  1.8594  0.4057 -0.8272
  719MOL0     H97006   7.456   6.396   0.417 -0.6163  1.8845 -0.5088
  719MOL0     H97007   7.506   6.326   0.558 -1.2244 -0.3345  1.4909
  719MOL0     H97008   7.218   6.359   0.486  0.3623 -1.1092 -1.4227
  719MOL0     H97009   7.304   6.227   0.406 -0.3297  0.2089 -0.0268
  719MOL0     H97010   7.318   6.104   0.616 -3.2562 -1.0977  2.9221
  719MOL0     H97011   7.285   6.248   0.705  1.1215  0.8442  0.6378
  719MOL0     H97012   7.093   6.100   0.520 -0.4212 -0.9230  0.5998
  719MOL0     H97013   7.057   6.270   0.567  2.8870  1.7832 -2.5782
  719MOL0     H97014   7.126   6.085   0.798  0.4736  2.0647  0.2474
  719MOL0     H97015   7.012   6.225   0.774 -1.6916 -0.4481 -0.1102
  719MOL0     H97016   7.049   5.837   0.695 -1.4865 -2.3187 -0.0442
  719MOL0     H97017   6.745   5.702   0.562 -2.3993 -0.9836  1.4377
  719MOL0     H97018   6.903   5.651   0.628  0.0547 -1.3663  1.0392
  719MOL0     H97019   6.646   5.697   0.796 -0.6422 -2.3715  1.5068
  719MOL0     H97020   6.691   5.535   0.736  1.8367 -1.9650  1.3097
  719MOL0     H97021   6.912   5.674   0.877 -1.9302  2.2958 -1.2249
  719MOL0     H97022   6.864   5.507   0.863 -0.3224  0.1437  1.4858
  719MOL0     H97023   6.830   5.596   1.081 -2.9329 -1.9453  2.1361
  719MOL0     H97024   6.670   5.561   1.014  0.0527  0.3770 -1.0551
  719MOL0     H97025   6.728   6.024   0.940  0.9675 -0.2485 -0.6285
  719MOL0     H97026   6.853   6.202   1.019  2.1838  0.6944 -0.8335
  719MOL0     H97027   7.160   6.182   1.516 -0.1812  0.0198 -0.3574
  719MOL0     H97028   7.312   6.314   1.661  2.4179  0.4946  0.3116
  719MOL0     H97029   7.462   6.682   1.656 -0.1476  1.0380  2.8937
  719MOL0     H97030   7.373   6.531   1.702  1.4712 -3.2516 -1.1524
  719MOL0     H97031   7.543   6.626   1.869  2.3886 -0.0908  1.0110
  719MOL0     H97032   7.565   6.459   1.834 -0.7852  0.0923  0.8027
  719MOL0     H97033   7.775   6.542   1.681  1.7198 -0.5820  0.9917
  719MOL0     H97034   7.692   6.693   1.681 -1.2953 -0.4998 -0.3528
  719MOL0     H97035   7.806   6.560   1.933 -0.4078  0.4518  0.7232
  719MOL0     H97036   7.740   6.721   1.927  0.8834  1.9675 -1.2592
  719MOL0     H97037   7.891   6.796   1.750  0.8668  1.1143  0.1976
  719MOL0     H97038   7.983   6.655   1.757 -0.2615  1.8375 -3.0515
  719MOL0     H97039   7.938   6.877   1.956 -2.7400 -1.2359 -2.3731
  719MOL0     H97040   7.987   6.717   2.022 -1.9032 -2.5896 -2.3325
  719MOL0     H97041   8.145   6.893   1.826  1.0303 -0.2876 -0.5118
  719MOL0     H97042   8.174   6.725   1.845 -0.3402 -0.0998 -0.2523
  719MOL0     H97043   8.215   6.915   2.079  0.9295 -0.7515  1.7831
  719MOL0     H97044   8.244   6.740   2.079  0.9831  0.7799  1.7259
  719MOL0     H97045   7.486   6.489   1.302  0.5381 -1.7540 -0.6538
  719MOL0     H97046   7.340   6.335   1.158  0.0075 -0.3000  0.2742
  719MOL0     H97047   7.102   5.924   1.229 -0.9793 -2.4339  1.0153
  719MOL0     H97048   6.958   5.746   1.185  0.1613  0.8199  1.4543
  719MOL0     H97049   7.031   6.938   0.362  0.6752  1.8112 -1.1001
  719MOL0     H97050   6.897   7.149   0.427  0.1199  0.6486  0.5087
  719MOL0     H97051   6.763   7.514   0.577 -1.4799 -2.3992  1.3694
  719MOL0     H97052   6.749   7.736   0.598 -2.2013  0.3573  1.2754
  719MOL0     H97053   6.914   7.909   0.986  4.8687 -0.1039 -0.4241
  719MOL0     H97054   6.874   8.057   0.886 -1.2928 -0.3533 -1.5162
  719MOL0     H97055   7.081   7.847   0.802  3.6710  1.2956 -0.7238
  719MOL0     H97056   7.109   8.010   0.877 -0.3486  1.3712 -0.8155
  719MOL0     H97057   7.019   8.122   0.709 -0.5959 -0.7438  0.9990
  719MOL0     H97058   6.949   7.997   0.628 -2.1060  1.9174  0.6013
  719MOL0     H97059   7.253   8.003   0.659  1.6796  4.5866 -0.8151
  719MOL0     H97060   7.168   7.935   0.526  3.1063 -0.2535 -0.1033
  719MOL0     H97061   7.177   8.327   0.391 -1.5765  1.7031  4.0416
  719MOL0     H97062   6.885   7.715   0.999 -2.6185 -1.3831  1.1284
  719MOL0     H97063   6.949   7.505   1.114 -0.5950 -0.5511 -0.1140
  719MOL0     H97064   6.840   7.390   1.053  0.7578 -1.3704 -0.0422
  719MOL0     H97065   7.004   7.381   0.994  1.2107  1.0192 -1.8315
  720MOL0     O97066  11.330   0.217   4.321 -0.1418 -0.7390  0.0247
  720MOL0     C97067  11.368   0.111   4.283  0.3608  1.0100  1.0903
  720MOL0     O97068  11.293   0.035   4.203  0.3717  0.1879  0.5581
  720MOL0     C97069  11.211   0.088   4.115 -0.2647  0.9289 -0.6050
  720MOL0     C97070  11.091   0.017   4.125  0.9038 -0.6797  0.5773
  720MOL0     C97071  10.992   0.053   4.028 -0.2882  0.2166  0.2155
  720MOL0     C97072  11.014   0.145   3.931  0.4590 -0.1055 -0.5888
  720MOL0     O97073  10.910   0.164   3.842 -0.0515 -0.5836 -0.2399
  720MOL0     C97074  10.900   0.295   3.775  0.0998  0.2628  0.0294
  720MOL0     C97075  10.762   0.313   3.704 -0.6646  0.9996  0.4374
  720MOL0     C97076  10.643   0.242   3.765 -0.2164  0.3877 -1.4069
  720MOL0     C97077  10.528   0.231   3.671  1.6978  0.8303  0.5608
  720MOL0     C97078  10.408   0.169   3.746  0.8927  0.6561  0.1137
  720MOL0     C97079  10.277   0.188   3.656  0.2005  0.3694 -0.0920
  720MOL0     C97080  10.145   0.178   3.743  0.3064 -0.3650 -0.3348
  720MOL0     C97081  10.084   0.312   3.794  0.6884  0.0646 -0.5027
  720MOL0     N97082  10.009   0.387   3.691 -0.8236 -0.1007 -0.0136
  720MOL0     C97083   9.954   0.345   3.569 -0.0821  0.1554  0.1122
  720MOL0     C97084   9.926   0.458   3.495 -0.2368 -0.2965  0.8209
  720MOL0     C97085   9.857   0.465   3.355  0.4084  0.2685 -0.2523
  720MOL0     C97086   9.888   0.595   3.277 -0.1325  0.0266 -0.2315
  720MOL0     C97087  10.039   0.617   3.260  1.2283  0.3905 -0.5178
  720MOL0     C97088  10.100   0.503   3.173  0.3671  0.7101 -0.1817
  720MOL0     O97089  10.198   0.561   3.083 -0.3769 -0.4397  0.2989
  720MOL0     C97090  10.325   0.560   3.136  0.0510  0.0885  0.6125
  720MOL0     C97091  10.416   0.477   3.077 -0.7393 -0.4043 -0.4923
  720MOL0     C97092  10.550   0.459   3.137 -0.2983  0.3759  0.5355
  720MOL0     C97093  10.577   0.532   3.256  0.0380 -0.5516 -0.2955
  720MOL0     C97094  10.710   0.514   3.317  0.0887 -0.4166  0.1482
  720MOL0     O97095  10.793   0.413   3.269  0.1124 -0.3287 -0.1694
  720MOL0     C97096  10.918   0.411   3.298  0.0873 -0.3390 -0.4084
  720MOL0     C97097  11.020   0.368   3.205  0.0582  0.6296 -0.2838
  720MOL0     C97098  11.145   0.335   3.238  0.2086  0.7754  0.8501
  720MOL0     C97099  11.185   0.359   3.368 -0.3704 -0.7506  0.7892
  720MOL0     O97100  11.313   0.333   3.416  0.4107 -0.2784 -0.5238
  720MOL0     C97101  11.418   0.363   3.329 -0.6807  0.0340  0.2673
  720MOL0     C97102  11.558   0.350   3.394 -0.0631  0.1394  0.5952
  720MOL0     C97103  11.681   0.390   3.304  0.8153 -0.0623  0.5249
  720MOL0     C97104  11.816   0.380   3.392  0.3250  0.5742 -0.7062
  720MOL0     C97105  11.937   0.413   3.319 -0.3379 -0.7056 -0.5968
  720MOL0     C97106  11.994   0.550   3.362 -0.3075  1.1872  0.9719
  720MOL0     C97107  12.133   0.577   3.313  0.3075  0.2276 -0.1513
  720MOL0     C97108  12.236   0.527   3.418  0.3479 -0.4716  0.5788
  720MOL0    Cl97109  12.397   0.532   3.356  0.1485  0.4042 -0.1676
  720MOL0     C97110  11.092   0.401   3.458 -0.0173 -0.8099 -0.0252
  720MOL0     C97111  10.961   0.430   3.427 -0.2475  0.1332  0.0374
  720MOL0     O97112  10.749   0.613   3.382  0.5844  0.1227  0.0084
  720MOL0     C97113  10.490   0.636   3.306  0.4605  0.0817  0.5644
  720MOL0     C97114  10.363   0.648   3.235  0.9494 -0.1724 -0.1359
  720MOL0     N97115   9.955   0.563   3.582  0.7133  0.4494  0.2913
  720MOL0     N97116   9.992   0.519   3.699 -0.9904 -0.3610 -0.1389
  720MOL0     C97117  11.138   0.204   3.922 -0.4080  0.0707  0.6739
  720MOL0     C97118  11.236   0.181   4.014  0.0991  0.1540 -0.6366
  720MOL0     C97119  11.503   0.064   4.327 -0.1832 -1.0880  0.1328
  720MOL0     C97120  11.563  -0.030   4.245  0.1575  0.1323 -0.2202
  720MOL0     C97121  11.686  -0.088   4.273  0.6780  0.1230  0.5064
  720MOL0     C97122  11.756  -0.040   4.382 -0.3732 -0.0598  0.1630
  720MOL0     O97123  11.886  -0.085   4.408 -0.1516 -0.4326  0.1253
  720MOL0     C97124  11.947  -0.087   4.532 -0.9995 -0.1607 -0.3648
  720MOL0     C97125  11.904  -0.200   4.621  0.8464  0.0873  0.1067
  720MOL0     C97126  11.914  -0.341   4.571 -0.3089  0.0666 -0.4778
  720MOL0     C97127  11.879  -0.442   4.683  0.2451 -0.0814  0.1591
  720MOL0     C97128  11.845  -0.578   4.636  0.2773 -0.2312 -0.2499
  720MOL0     C97129  11.816  -0.686   4.596  0.1533 -0.0275 -0.1106
  720MOL0     C97130  11.697   0.051   4.466  0.1799  0.1463 -0.5286
  720MOL0     C97131  11.576   0.106   4.440  0.5989 -0.0553 -0.9888
  720MOL0     C97132  11.515   0.217   4.539 -0.8251  0.4364  0.1148
  720MOL0     H97133  11.066  -0.050   4.207  0.0742  1.1799  1.8968
  720MOL0     H97134  10.895   0.005   4.027  1.1304 -3.1694 -3.2356
  720MOL0     H97135  10.903   0.364   3.860  2.2132  0.3830 -0.1033
  720MOL0     H97136  10.979   0.301   3.700 -1.1642 -1.7196 -1.5701
  720MOL0     H97137  10.778   0.285   3.600 -0.1458 -0.8035  0.9770
  720MOL0     H97138  10.748   0.422   3.709 -1.2212  1.0047 -0.8884
  720MOL0     H97139  10.629   0.297   3.858  0.3806 -0.0720 -1.0284
  720MOL0     H97140  10.667   0.139   3.797 -0.9237  0.9160  1.0672
  720MOL0     H97141  10.495   0.328   3.631 -0.3196 -0.7541 -1.9185
  720MOL0     H97142  10.553   0.171   3.583  2.5743 -1.7528  2.4672
  720MOL0     H97143  10.427   0.065   3.776 -4.7086  0.1002  3.1592
  720MOL0     H97144  10.389   0.224   3.838  1.6938  0.2441  0.5331
  720MOL0     H97145  10.277   0.279   3.595  0.2890 -0.3090 -1.1104
  720MOL0     H97146  10.271   0.120   3.571  2.2315  1.4788 -1.1944
  720MOL0     H97147  10.170   0.126   3.835  3.4165  1.6828  0.1302
  720MOL0     H97148  10.077   0.114   3.685  1.5879 -0.6933 -1.5354
  720MOL0     H97149  10.019   0.286   3.878  1.8998 -1.5746 -0.0376
  720MOL0     H97150  10.162   0.378   3.833 -1.1653  1.4497  1.0259
  720MOL0     H97151   9.927   0.244   3.539 -2.8131  1.2927 -1.6700
  720MOL0     H97152   9.893   0.380   3.296 -2.6685 -0.6188 -1.0194
  720MOL0     H97153   9.750   0.460   3.372  0.8201  0.0691  2.7864
  720MOL0     H97154   9.848   0.584   3.176 -1.0641  2.3302 -0.1535
  720MOL0     H97155   9.843   0.686   3.316  0.3307 -0.5161  1.6683
  720MOL0     H97156  10.086   0.618   3.359 -1.9334 -2.2856  1.1718
  720MOL0     H97157  10.062   0.714   3.214  0.9410  0.0665 -1.3606
  720MOL0     H97158  10.025   0.451   3.113 -0.4181 -1.2067  2.3134
  720MOL0     H97159  10.135   0.428   3.245 -1.0015  0.6830  0.4780
  720MOL0     H97160  10.405   0.430   2.980  1.1605  0.1523 -1.0132
  720MOL0     H97161  10.618   0.392   3.086  0.5358  0.3842  1.6063
  720MOL0     H97162  10.979   0.350   3.106 -3.2336 -0.0091  1.0703
  720MOL0     H97163  11.212   0.283   3.170  2.0535  3.8967  0.0549
  720MOL0     H97164  11.419   0.297   3.242  0.7212 -0.1630  0.4125
  720MOL0     H97165  11.403   0.468   3.300 -0.0244  0.7787  2.4061
  720MOL0     H97166  11.559   0.420   3.478  0.6378  2.8950 -1.5535
  720MOL0     H97167  11.569   0.249   3.434 -0.6137  0.6702  2.1482
  720MOL0     H97168  11.688   0.322   3.218  1.5994  1.0560 -0.3209
  720MOL0     H97169  11.672   0.488   3.258 -0.4707  0.7882  2.4404
  720MOL0     H97170  11.818   0.274   3.419 -0.2963  0.3068 -1.6646
  720MOL0     H97171  11.804   0.438   3.484  1.9620  0.1581 -0.1975
  720MOL0     H97172  11.928   0.416   3.210 -1.4950  2.4496 -0.5277
  720MOL0     H97173  12.019   0.343   3.334  1.8541  1.8494  0.0398
  720MOL0     H97174  11.923   0.625   3.329 -0.8277 -0.6874 -2.7301
  720MOL0     H97175  12.001   0.547   3.471  0.6040 -1.0403  0.9106
  720MOL0     H97176  12.137   0.684   3.290 -1.6356  0.7680  1.7239
  720MOL0     H97177  12.157   0.523   3.221 -0.4616 -1.1427  0.4341
  720MOL0     H97178  12.229   0.587   3.509 -0.5883 -2.7528  2.1047
  720MOL0     H97179  12.222   0.423   3.450 -0.3455 -1.2824 -2.0457
  720MOL0     H97180  11.126   0.431   3.557 -3.8869 -4.9374  2.9695
  720MOL0     H97181  10.897   0.462   3.509  1.3132  0.3063  1.2380
  720MOL0     H97182  10.510   0.683   3.402 -1.4873  1.8405  0.1820
  720MOL0     H97183  10.293   0.726   3.264  3.6504  3.4638 -2.5642
  720MOL0     H97184  11.168   0.281   3.851  1.7559  0.0212  1.4532
  720MOL0     H97185  11.335   0.227   4.009 -0.4355  2.1797  3.1784
  720MOL0     H97186  11.527  -0.053   4.145  1.4303 -2.1298 -0.2124
  720MOL0     H97187  11.739  -0.154   4.205 -0.4820 -2.1487  1.6867
  720MOL0     H97188  11.934   0.006   4.587  0.3198 -0.1024 -0.1112
  720MOL0     H97189  12.056  -0.097   4.526 -1.0878 -2.9348  1.0085
  720MOL0     H97190  11.801  -0.170   4.641  1.2837  1.3891  0.4813
  720MOL0     H97191  11.970  -0.178   4.705 -1.7333  2.8235  1.5776
  720MOL0     H97192  12.017  -0.360   4.541 -0.3907  1.1952 -1.5745
  720MOL0     H97193  11.849  -0.339   4.482  0.3935  3.9430 -1.0875
  720MOL0     H97194  11.959  -0.458   4.757  1.5532  0.5449 -1.0933
  720MOL0     H97195  11.789  -0.400   4.730 -0.3162  0.6766 -1.5497
  720MOL0     H97196  11.778  -0.780   4.561 -1.0799  0.4007  0.0571
  720MOL0     H97197  11.756   0.080   4.553  2.2659  1.5835 -2.3150
  720MOL0     H97198  11.524   0.307   4.478  0.1930  1.2555  1.4341
  720MOL0     H97199  11.407   0.209   4.555 -0.5160  0.2807  2.4154
  720MOL0     H97200  11.572   0.233   4.630 -0.9897 -0.2912  0.3565
  721MOL0     O97201   6.852   4.711   8.501 -0.9765  0.2342 -0.0677
  721MOL0     C97202   6.775   4.723   8.405 -0.2595 -0.4945 -0.6218
  721MOL0     O97203   6.640   4.704   8.410  0.9216 -0.8826 -0.0612
  721MOL0     C97204   6.575   4.640   8.517  0.3374  0.9653 -0.4170
  721MOL0     C97205   6.447   4.673   8.544  0.8974  0.3759 -0.6320
  721MOL0     C97206   6.372   4.631   8.657 -0.2550 -0.0533  0.0235
  721MOL0     C97207   6.435   4.545   8.745  0.0249  0.0303 -0.6593
  721MOL0     O97208   6.378   4.505   8.863 -1.1701  0.6550 -0.0003
  721MOL0     C97209   6.319   4.375   8.848 -0.0706 -1.1436 -0.0254
  721MOL0     C97210   6.183   4.368   8.918 -0.3051 -0.2553  0.1579
  721MOL0     C97211   6.133   4.215   8.911 -0.7913 -0.4436  0.2687
  721MOL0     C97212   6.018   4.171   9.012  0.4952  0.1244  0.1098
  721MOL0     C97213   6.003   4.024   9.040  0.0842 -1.2054  0.9959
  721MOL0     C97214   5.871   3.986   9.126 -0.2113 -0.3357 -0.4382
  721MOL0     C97215   5.865   3.830   9.138  0.3414 -0.3736  1.3256
  721MOL0     C97216   5.737   3.775   9.196  0.4373  0.6822 -0.5420
  721MOL0     N97217   5.752   3.631   9.235 -0.5742  0.1015 -0.3846
  721MOL0     C97218   5.749   3.534   9.137 -0.6785  0.0216  0.8201
  721MOL0     C97219   5.721   3.420   9.208  0.6532 -0.0742  0.3353
  721MOL0     C97220   5.683   3.283   9.139 -0.7405  0.1678  0.0488
  721MOL0     C97221   5.605   3.308   9.013 -0.0282 -0.3891 -0.8408
  721MOL0     C97222   5.471   3.378   9.031 -0.3419 -0.4662  0.2287
  721MOL0     C97223   5.424   3.475   8.925 -0.7828 -0.6497 -0.0906
  721MOL0     O97224   5.421   3.423   8.793  0.3603 -0.4745  0.7458
  721MOL0     C97225   5.336   3.324   8.774 -0.2006  1.2054  0.3418
  721MOL0     C97226   5.387   3.194   8.748 -0.6129 -0.7606 -0.1698
  721MOL0     C97227   5.297   3.092   8.713 -0.2996  0.0380 -0.0898
  721MOL0     C97228   5.159   3.119   8.696  0.3361 -0.0747 -0.4162
  721MOL0     C97229   5.060   3.017   8.653 -0.5195  0.0077 -0.2627
  721MOL0     O97230   4.939   3.058   8.606  0.5632 -0.1526  0.5186
  721MOL0     C97231   4.830   2.983   8.562 -0.9694 -0.2901 -0.0740
  721MOL0     C97232   4.825   2.942   8.428  0.3728 -0.1402 -0.5224
  721MOL0     C97233   4.721   2.853   8.391 -0.5966  0.1703  0.2654
  721MOL0     C97234   4.625   2.814   8.478  1.0848  0.0306 -0.4973
  721MOL0     O97235   4.541   2.707   8.439 -0.5056 -0.9269 -0.4350
  721MOL0     C97236   4.548   2.588   8.520 -0.1029  0.0507 -0.9840
  721MOL0     C97237   4.451   2.488   8.472 -0.4548  0.2682 -1.1309
  721MOL0     C97238   4.480   2.442   8.330  0.5046  0.2683  0.5294
  721MOL0     C97239   4.386   2.332   8.289 -0.6154  0.1777  0.1347
  721MOL0     C97240   4.394   2.301   8.142 -0.5701 -0.0937 -0.1127
  721MOL0     C97241   4.317   2.171   8.110  0.8515  0.4291 -0.3243
  721MOL0     C97242   4.404   2.050   8.144 -0.0717  0.0404  0.3668
  721MOL0     C97243   4.357   1.923   8.075  0.2037  0.1779 -0.5650
  721MOL0    Cl97244   4.207   1.862   8.134  0.4864 -0.0377  0.0443
  721MOL0     C97245   4.628   2.872   8.611  0.0648 -0.5031 -0.3895
  721MOL0     C97246   4.734   2.944   8.656 -0.9149 -0.2164  0.2028
  721MOL0     O97247   5.104   2.900   8.649 -0.2971  0.1712 -0.0141
  721MOL0     C97248   5.106   3.249   8.727 -0.5801  0.0118  0.0108
  721MOL0     C97249   5.197   3.347   8.779  0.7956 -0.4204  0.3124
  721MOL0     N97250   5.738   3.453   9.341  0.1651  0.2649 -1.8289
  721MOL0     N97251   5.758   3.582   9.351 -0.0766  0.4221 -0.3956
  721MOL0     C97252   6.566   4.500   8.722 -0.3837 -0.6047 -0.0495
  721MOL0     C97253   6.634   4.556   8.616 -0.6024 -0.4725  0.0911
  721MOL0     C97254   6.839   4.767   8.277 -0.4112 -0.4182 -0.2615
  721MOL0     C97255   6.976   4.732   8.255  0.4576 -0.6181 -0.4101
  721MOL0     C97256   7.052   4.759   8.148  0.4261 -0.2956  0.0960
  721MOL0     C97257   6.984   4.829   8.045 -0.0802  0.6530 -0.9807
  721MOL0     O97258   7.031   4.886   7.931  0.5790  0.5645 -0.3444
  721MOL0     C97259   7.167   4.872   7.901 -0.3382 -0.2075  0.3773
  721MOL0     C97260   7.198   4.946   7.779 -0.6113 -0.0144  1.1103
  721MOL0     C97261   7.348   4.954   7.730  0.0871 -0.2247 -0.1557
  721MOL0     C97262   7.400   4.848   7.634  0.6225 -0.6651 -0.4016
  721MOL0     C97263   7.525   4.890   7.569 -0.8703  0.6198 -0.1794
  721MOL0     C97264   7.625   4.926   7.511 -0.8660  0.9312  0.4835
  721MOL0     C97265   6.851   4.872   8.063 -0.2126 -0.8350  0.2357
  721MOL0     C97266   6.774   4.842   8.177  0.4057 -1.3476 -0.4186
  721MOL0     C97267   6.626   4.887   8.180  0.4690 -0.3171 -0.3060
  721MOL0     H97268   6.394   4.749   8.489 -1.3816  1.0921  2.2986
  721MOL0     H97269   6.272   4.669   8.679 -1.1314 -1.4675 -1.2837
  721MOL0     H97270   6.315   4.326   8.750 -1.0695 -2.7315  0.7571
  721MOL0     H97271   6.394   4.308   8.892  0.4113 -1.9138 -1.9140
  721MOL0     H97272   6.113   4.441   8.875  2.0393  0.8810 -2.0051
  721MOL0     H97273   6.193   4.392   9.024 -1.3212 -0.2264  0.2572
  721MOL0     H97274   6.219   4.154   8.938  0.3814  0.3965 -1.3556
  721MOL0     H97275   6.104   4.200   8.807 -1.9401  0.8690  0.3702
  721MOL0     H97276   6.041   4.212   9.111  2.7232 -3.1822  1.1205
  721MOL0     H97277   5.922   4.205   8.973  0.8447  1.9085  0.7096
  721MOL0     H97278   6.004   3.965   8.948 -1.8311  0.0217  0.1309
  721MOL0     H97279   6.083   3.997   9.110  2.2748  0.5504 -0.6709
  721MOL0     H97280   5.872   4.030   9.226  2.2675 -0.4302 -0.3459
  721MOL0     H97281   5.785   4.016   9.065  0.4699 -1.6068 -2.0890
  721MOL0     H97282   5.959   3.803   9.187  0.5891  2.1122  2.3618
  721MOL0     H97283   5.885   3.779   9.044  1.3373 -2.1249  2.4306
  721MOL0     H97284   5.687   3.829   9.276 -1.5368 -1.2548 -0.3643
  721MOL0     H97285   5.664   3.792   9.116 -0.3391  0.9605  0.2205
  721MOL0     H97286   5.768   3.547   9.031  0.9180 -0.5750  1.0085
  721MOL0     H97287   5.770   3.218   9.122 -1.3266 -1.1451  1.7957
  721MOL0     H97288   5.622   3.228   9.211 -0.9431  2.5464  1.8220
  721MOL0     H97289   5.671   3.360   8.943  2.9884 -2.2188  0.4647
  721MOL0     H97290   5.573   3.211   8.973  0.2153 -0.3991 -1.0103
  721MOL0     H97291   5.471   3.429   9.128  0.5712  1.9427 -0.9561
  721MOL0     H97292   5.401   3.296   9.048 -0.1281 -0.5352  0.8113
  721MOL0     H97293   5.489   3.563   8.923  0.1275 -1.2648  1.2178
  721MOL0     H97294   5.322   3.511   8.940 -1.7174 -2.4096 -1.7170
  721MOL0     H97295   5.494   3.180   8.758 -0.1850  1.3847 -1.2497
  721MOL0     H97296   5.330   2.990   8.701  2.0720  0.6845  0.3205
  721MOL0     H97297   4.892   2.978   8.352  2.8692  2.2260  2.5367
  721MOL0     H97298   4.732   2.804   8.295 -1.2589 -2.2527  1.3727
  721MOL0     H97299   4.647   2.542   8.523  0.8905  1.9172  3.6603
  721MOL0     H97300   4.526   2.615   8.624  1.9773 -1.6574 -0.0476
  721MOL0     H97301   4.459   2.402   8.539  1.7841 -0.2708 -1.9856
  721MOL0     H97302   4.354   2.537   8.474  1.3638  4.2261 -0.1658
  721MOL0     H97303   4.478   2.518   8.251  2.6046  0.1955  0.3464
  721MOL0     H97304   4.583   2.405   8.324  1.3779  2.5159  0.6692
  721MOL0     H97305   4.284   2.361   8.315 -0.9136  1.0547 -1.8454
  721MOL0     H97306   4.410   2.243   8.348 -0.5613  1.6103  2.3671
  721MOL0     H97307   4.499   2.287   8.114 -0.2757  1.0572  0.3658
  721MOL0     H97308   4.351   2.384   8.085  5.3585  3.0979 -0.7034
  721MOL0     H97309   4.221   2.149   8.156  1.7686 -1.8542  0.6421
  721MOL0     H97310   4.304   2.172   8.001  1.2360  2.5670 -0.3838
  721MOL0     H97311   4.410   2.037   8.252  1.6507  1.9671  0.5680
  721MOL0     H97312   4.509   2.057   8.115  0.0509 -0.2163  0.7369
  721MOL0     H97313   4.351   1.931   7.966 -1.7126 -0.4776 -0.5397
  721MOL0     H97314   4.430   1.844   8.098  0.7814  1.3653  2.1190
  721MOL0     H97315   4.550   2.838   8.678  0.4966 -2.0796 -0.6430
  721MOL0     H97316   4.742   2.974   8.760  0.7792 -0.6520  0.2287
  721MOL0     H97317   5.000   3.267   8.710 -1.2305 -0.1641  3.2247
  721MOL0     H97318   5.144   3.438   8.807  2.2797  0.6058 -0.1385
  721MOL0     H97319   6.611   4.438   8.799  3.8616  2.3719  0.1857
  721MOL0     H97320   6.738   4.531   8.598 -0.9300 -2.0572  0.2884
  721MOL0     H97321   7.029   4.683   8.336  1.5288  2.6549  1.0759
  721MOL0     H97322   7.158   4.735   8.148  0.3161 -1.1652  3.0282
  721MOL0     H97323   7.195   4.767   7.885 -2.5111 -0.6340 -1.0715
  721MOL0     H97324   7.242   4.895   7.977  0.3137  1.1384 -0.6455
  721MOL0     H97325   7.173   5.050   7.799  0.6244  0.5089  0.0313
  721MOL0     H97326   7.142   4.914   7.690 -2.3544 -1.3426  2.5926
  721MOL0     H97327   7.423   4.974   7.808  1.4312 -2.9770 -0.6343
  721MOL0     H97328   7.349   5.046   7.670 -2.3038 -0.6947 -1.0237
  721MOL0     H97329   7.420   4.752   7.681  1.0314 -1.1396 -1.5065
  721MOL0     H97330   7.330   4.820   7.554 -1.8957  0.2212  1.3630
  721MOL0     H97331   7.713   4.975   7.474 -0.7009  1.1711  1.1709
  721MOL0     H97332   6.818   4.938   7.984  1.3876  0.6274  0.7280
  721MOL0     H97333   6.560   4.806   8.214  0.8374 -2.1268 -3.4602
  721MOL0     H97334   6.615   4.983   8.232 -2.3303 -0.3235 -0.7328
  721MOL0     H97335   6.599   4.905   8.075  1.2632 -1.5788 -0.7414
  722MOL0     O97336   2.585   4.881   4.850  0.4767  0.5855  0.3394
  722MOL0     C97337   2.617   4.930   4.953 -0.7580 -0.7218 -0.4608
  722MOL0     O97338   2.745   4.926   5.015  0.0524  0.5318  0.4526
  722MOL0     C97339   2.834   4.845   4.944 -0.2358  0.6223 -0.3773
  722MOL0     C97340   2.888   4.878   4.822 -0.0526 -0.1057  0.5930
  722MOL0     C97341   2.980   4.794   4.754 -0.6009  0.5277 -0.3384
  722MOL0     C97342   3.049   4.689   4.818  0.1517  0.3141 -0.0534
  722MOL0     O97343   3.160   4.624   4.769  0.2267  0.0767 -0.7029
  722MOL0     C97344   3.246   4.705   4.683  0.4140  1.0564  1.4874
  722MOL0     C97345   3.381   4.627   4.655 -0.1192  0.3376 -0.3033
  722MOL0     C97346   3.460   4.697   4.541  0.3869 -0.0976  0.1557
  722MOL0     C97347   3.596   4.631   4.509  0.8662 -0.2917  0.2968
  722MOL0     C97348   3.685   4.711   4.421  0.4718 -0.0067 -0.0653
  722MOL0     C97349   3.817   4.641   4.404 -0.6214  0.2780  0.2270
  722MOL0     C97350   3.801   4.493   4.348  0.1762 -0.5894  0.2255
  722MOL0     C97351   3.935   4.445   4.280  1.0990  0.1268  0.0066
  722MOL0     N97352   3.948   4.513   4.147  0.8028 -0.2169  1.1265
  722MOL0     C97353   3.845   4.533   4.053 -0.4594 -0.3098  0.3147
  722MOL0     C97354   3.907   4.591   3.954  0.1959  0.3274 -0.6868
  722MOL0     C97355   3.831   4.630   3.828  0.0894  0.6215  0.1182
  722MOL0     C97356   3.912   4.706   3.726  1.0439  0.2287  0.7961
  722MOL0     C97357   3.847   4.690   3.584 -0.3976  0.3338 -0.4982
  722MOL0     C97358   3.948   4.758   3.480 -0.4896  0.4565  0.3891
  722MOL0     O97359   3.939   4.707   3.349 -0.4050  0.0573 -0.4630
  722MOL0     C97360   3.991   4.591   3.311 -0.2675 -0.2919 -0.0200
  722MOL0     C97361   3.981   4.568   3.175  0.0915  0.0207 -0.1714
  722MOL0     C97362   4.040   4.453   3.115  0.0966 -0.3036 -0.3160
  722MOL0     C97363   4.128   4.371   3.181 -0.2967 -1.3148 -0.5175
  722MOL0     C97364   4.184   4.247   3.111  0.2287  0.2021 -0.1119
  722MOL0     O97365   4.157   4.246   2.976  0.9607  0.3340 -0.1037
  722MOL0     C97366   4.213   4.143   2.902  0.3354 -0.8004 -0.4734
  722MOL0     C97367   4.347   4.130   2.894  0.0329 -0.0250  0.8383
  722MOL0     C97368   4.402   4.041   2.797  0.8776  0.1764 -0.3521
  722MOL0     C97369   4.320   3.962   2.712 -0.1575 -1.1451 -0.0531
  722MOL0     O97370   4.359   3.871   2.618 -0.2712  0.2510 -0.2369
  722MOL0     C97371   4.388   3.930   2.493  0.5312  0.3593  0.4722
  722MOL0     C97372   4.459   3.840   2.389 -1.3303  0.0796 -0.3592
  722MOL0     C97373   4.403   3.868   2.240  0.7537 -0.4331 -0.7994
  722MOL0     C97374   4.499   3.812   2.126 -0.1469  0.1544 -0.6829
  722MOL0     C97375   4.426   3.836   1.992 -0.2582  0.6260  1.1600
  722MOL0     C97376   4.499   3.778   1.872  0.0041 -0.1454  0.0690
  722MOL0     C97377   4.437   3.789   1.740 -1.2466  0.8967 -0.3762
  722MOL0     C97378   4.292   3.747   1.735 -0.7381  0.7737 -0.8464
  722MOL0    Cl97379   4.250   3.690   1.572 -0.0632 -0.2453 -0.0132
  722MOL0     C97380   4.182   3.984   2.720  0.5184 -0.6720  0.3414
  722MOL0     C97381   4.128   4.072   2.813  0.5681 -0.0725 -0.5294
  722MOL0     O97382   4.239   4.163   3.178 -0.6123 -0.2657 -0.4439
  722MOL0     C97383   4.146   4.399   3.316  0.8539  0.0673 -0.0860
  722MOL0     C97384   4.078   4.502   3.383 -0.1954 -0.9363  0.1917
  722MOL0     N97385   4.050   4.597   3.980  0.8692 -0.2825  0.0122
  722MOL0     N97386   4.072   4.551   4.099  0.1109 -0.4198 -0.9739
  722MOL0     C97387   2.987   4.648   4.942 -1.1822  0.2373 -0.7390
  722MOL0     C97388   2.885   4.721   4.993 -0.2079  0.7731  0.0806
  722MOL0     C97389   2.513   5.012   5.038  0.3647  0.1301  0.4205
  722MOL0     C97390   2.540   5.039   5.177 -0.6362 -0.4977  0.2806
  722MOL0     C97391   2.449   5.106   5.263  1.7544  0.0046  0.0901
  722MOL0     C97392   2.318   5.140   5.216  0.3497  0.2259 -0.0282
  722MOL0     O97393   2.240   5.213   5.293  1.5561  0.7693  0.0050
  722MOL0     C97394   2.091   5.222   5.264 -0.0365  0.1675 -0.6074
  722MOL0     C97395   2.032   5.346   5.196  0.1630  0.6611 -0.5677
  722MOL0     C97396   1.891   5.370   5.232  0.5970 -0.4681 -0.3365
  722MOL0     C97397   1.834   5.474   5.143  0.6623 -0.7573 -0.4981
  722MOL0     C97398   1.693   5.497   5.154 -0.3182 -1.1774 -0.2784
  722MOL0     C97399   1.579   5.499   5.186  0.9943  0.1478 -0.1657
  722MOL0     C97400   2.281   5.101   5.087  0.2676  0.1536 -0.1032
  722MOL0     C97401   2.377   5.039   4.995  0.3973  0.5180 -0.3853
  722MOL0     C97402   2.328   4.988   4.863  0.1075 -0.0524  0.0601
  722MOL0     H97403   2.836   4.965   4.784 -0.0558 -0.0576  0.7099
  722MOL0     H97404   3.008   4.831   4.656 -0.6777  3.3408  0.6326
  722MOL0     H97405   3.198   4.716   4.585 -0.0366 -0.9376  1.4490
  722MOL0     H97406   3.267   4.806   4.720 -0.2077  0.1916  4.4216
  722MOL0     H97407   3.352   4.526   4.621  2.5747 -0.7596  0.4372
  722MOL0     H97408   3.442   4.625   4.746 -1.5733 -0.8658  0.6992
  722MOL0     H97409   3.487   4.798   4.574 -2.6410  0.6596  0.6483
  722MOL0     H97410   3.394   4.722   4.457  0.4419 -2.9669 -0.8448
  722MOL0     H97411   3.656   4.620   4.600 -1.1243 -1.4439  1.5601
  722MOL0     H97412   3.568   4.530   4.476  1.5361 -0.7461  1.1040
  722MOL0     H97413   3.645   4.714   4.320 -2.7556 -2.9908  0.9282
  722MOL0     H97414   3.710   4.808   4.466  1.9100 -0.3039 -0.1586
  722MOL0     H97415   3.872   4.706   4.335 -2.1795 -1.1795 -2.5530
  722MOL0     H97416   3.872   4.622   4.496  0.7078  0.3215 -0.5303
  722MOL0     H97417   3.718   4.485   4.277 -1.2315 -0.7242  1.8459
  722MOL0     H97418   3.779   4.423   4.428  0.5507 -2.5266 -1.2812
  722MOL0     H97419   4.013   4.474   4.350 -0.1660  3.9750  0.0327
  722MOL0     H97420   3.932   4.338   4.257 -1.5501  0.5419 -2.1051
  722MOL0     H97421   3.737   4.522   4.052 -0.8725  2.2970 -3.3568
  722MOL0     H97422   3.793   4.538   3.783  3.5058 -1.6192  1.4858
  722MOL0     H97423   3.742   4.692   3.846 -0.6690  0.4566 -2.5626
  722MOL0     H97424   3.920   4.813   3.747 -1.4755  0.5264  0.5380
  722MOL0     H97425   4.006   4.653   3.710  0.1795 -0.9761 -0.4857
  722MOL0     H97426   3.744   4.723   3.568 -0.1665  1.2510 -0.1224
  722MOL0     H97427   3.844   4.581   3.575 -2.0516  0.1165  1.7602
  722MOL0     H97428   4.050   4.756   3.520 -0.6239 -3.0769  0.8766
  722MOL0     H97429   3.920   4.863   3.469  1.3940  0.8915 -0.8166
  722MOL0     H97430   3.915   4.633   3.119  0.0541  1.1360  1.1153
  722MOL0     H97431   4.013   4.442   3.011  0.8352  1.2830 -0.6909
  722MOL0     H97432   4.410   4.195   2.953 -1.3775  2.0870  0.1379
  722MOL0     H97433   4.509   4.022   2.800  0.6559 -1.2683  2.4597
  722MOL0     H97434   4.290   3.959   2.455  0.4766  0.2929  0.5589
  722MOL0     H97435   4.433   4.030   2.500 -0.2172  1.0993 -3.2015
  722MOL0     H97436   4.564   3.873   2.386 -0.8446 -1.4304 -0.4055
  722MOL0     H97437   4.463   3.733   2.412  3.1881  0.1636  0.2054
  722MOL0     H97438   4.310   3.812   2.235  0.3968  0.0460  0.3208
  722MOL0     H97439   4.380   3.974   2.227 -3.1253 -1.2123 -1.4365
  722MOL0     H97440   4.502   3.703   2.136  0.0885  0.2927  1.1306
  722MOL0     H97441   4.598   3.857   2.113  0.9132 -2.4814 -2.7306
  722MOL0     H97442   4.410   3.944   1.978  2.1648  0.7312 -1.5917
  722MOL0     H97443   4.326   3.791   2.000  0.2760 -0.9444 -0.4821
  722MOL0     H97444   4.596   3.828   1.873  1.0675 -2.0615  2.0161
  722MOL0     H97445   4.522   3.672   1.888 -3.9143 -1.2380 -0.3457
  722MOL0     H97446   4.499   3.738   1.666 -0.5096  1.6390 -0.2845
  722MOL0     H97447   4.428   3.897   1.722  0.4015  1.0054 -0.6848
  722MOL0     H97448   4.262   3.667   1.803 -0.5134  2.2982  1.1443
  722MOL0     H97449   4.228   3.830   1.769  1.5125  2.0629  0.4841
  722MOL0     H97450   4.124   3.920   2.654 -0.9511 -0.3700  1.2789
  722MOL0     H97451   4.020   4.077   2.815  0.5103 -1.3859  0.5044
  722MOL0     H97452   4.210   4.325   3.362  2.1518  0.2044 -1.6030
  722MOL0     H97453   4.083   4.505   3.492  0.0383 -1.8124  0.2130
  722MOL0     H97454   3.031   4.561   4.990  1.7155  1.5865 -0.7280
  722MOL0     H97455   2.842   4.680   5.085  0.7131 -0.6983 -0.1073
  722MOL0     H97456   2.642   5.017   5.207 -0.8870 -2.7034 -0.3875
  722MOL0     H97457   2.485   5.127   5.363  0.3012 -0.7381  0.7915
  722MOL0     H97458   2.049   5.224   5.365  1.6888  2.5193  0.1407
  722MOL0     H97459   2.060   5.129   5.215 -0.1837 -0.9864  1.5230
  722MOL0     H97460   2.038   5.325   5.089 -1.4205 -2.8355 -0.1139
  722MOL0     H97461   2.082   5.442   5.212  1.3460 -0.1477  0.9129
  722MOL0     H97462   1.894   5.418   5.331 -0.9086  3.0549 -1.8374
  722MOL0     H97463   1.835   5.277   5.238  1.5807 -1.0788 -0.3902
  722MOL0     H97464   1.882   5.566   5.178 -2.4420  0.0270  2.1014
  722MOL0     H97465   1.850   5.456   5.036 -2.0055  0.7356 -1.2417
  722MOL0     H97466   1.475   5.481   5.204  0.6588  0.2461 -1.8393
  722MOL0     H97467   2.179   5.116   5.052  0.1493  0.5545  0.4068
  722MOL0     H97468   2.330   4.879   4.862 -2.5153 -0.3608  4.1796
  722MOL0     H97469   2.224   5.019   4.850 -0.8021 -2.4548  1.0368
  722MOL0     H97470   2.385   5.037   4.784 -0.2162  2.3036  1.1921
  723MOL0     O97471   0.235  11.045   5.750  0.8400 -0.3948  0.3178
  723MOL0     C97472   0.309  11.054   5.651 -0.1794 -0.4627  0.0292
  723MOL0     O97473   0.263  11.064   5.524 -0.8744 -0.5035  0.2637
  723MOL0     C97474   0.135  11.040   5.508  0.0839 -0.2733  0.5821
  723MOL0     C97475   0.051  11.150   5.476  0.1839  0.4089  0.3271
  723MOL0     C97476  -0.084  11.130   5.468  0.5726  0.4844  0.7981
  723MOL0     C97477  -0.143  11.006   5.479  0.0989  0.4589  0.8252
  723MOL0     O97478  -0.275  10.963   5.462 -0.6556 -0.6835  0.1075
  723MOL0     C97479  -0.362  11.048   5.383  0.3131 -0.2409 -0.8861
  723MOL0     C97480  -0.341  10.997   5.235  0.4340  0.1621 -0.2378
  723MOL0     C97481  -0.463  11.014   5.148  0.2992 -0.1236  0.6807
  723MOL0     C97482  -0.432  10.980   5.003  1.1230  0.2486 -0.4199
  723MOL0     C97483  -0.556  10.988   4.907 -0.2101  0.3666 -0.2716
  723MOL0     C97484  -0.663  10.875   4.945 -0.2879  0.1987  0.0048
  723MOL0     C97485  -0.606  10.733   4.951  1.0796  0.1528  0.1568
  723MOL0     C97486  -0.691  10.634   5.034 -1.3348 -0.5696  0.6297
  723MOL0     N97487  -0.681  10.667   5.177  0.1764  0.9830  0.1105
  723MOL0     C97488  -0.570  10.637   5.248 -0.8356  0.1629  1.0968
  723MOL0     C97489  -0.586  10.708   5.361 -0.0919 -0.3612  0.3322
  723MOL0     C97490  -0.493  10.693   5.479 -0.6205  0.3318  0.3102
  723MOL0     C97491  -0.491  10.544   5.528 -0.3105 -0.1275  0.4942
  723MOL0     C97492  -0.620  10.481   5.580 -0.0728 -0.5636  0.2355
  723MOL0     C97493  -0.598  10.328   5.577 -0.4449  0.3784 -0.7617
  723MOL0     O97494  -0.473  10.287   5.622 -0.7216 -0.3642  0.7221
  723MOL0     C97495  -0.435  10.295   5.752 -1.1967  0.1582 -0.3873
  723MOL0     C97496  -0.297  10.281   5.771 -0.5660  0.5217  0.3117
  723MOL0     C97497  -0.238  10.300   5.901  0.0929 -0.7642  0.9907
  723MOL0     C97498  -0.323  10.319   6.016 -0.3889 -0.2372  0.3141
  723MOL0     C97499  -0.260  10.327   6.146 -0.4475 -0.4415  0.5064
  723MOL0     O97500  -0.126  10.353   6.151  0.6266  0.1641 -0.5412
  723MOL0     C97501  -0.050  10.352   6.262  0.0355 -0.2565 -0.2491
  723MOL0     C97502  -0.080  10.288   6.381 -0.3149 -0.4277 -1.0297
  723MOL0     C97503   0.025  10.308   6.481 -0.2207 -0.6374 -0.6182
  723MOL0     C97504   0.158  10.366   6.454  1.2965  0.7040 -0.5025
  723MOL0     O97505   0.261  10.353   6.543  0.3935  0.6407 -0.2735
  723MOL0     C97506   0.250  10.289   6.672  0.0613  0.7706  0.1507
  723MOL0     C97507   0.386  10.305   6.738  0.2292 -0.0256 -0.0791
  723MOL0     C97508   0.406  10.238   6.880  0.4638  0.4607  0.5968
  723MOL0     C97509   0.517  10.315   6.963  0.1507 -0.0778 -0.4175
  723MOL0     C97510   0.650  10.255   6.912 -0.0122  1.2080  0.1588
  723MOL0     C97511   0.759  10.295   7.011  0.6395  0.3179 -0.5544
  723MOL0     C97512   0.910  10.275   6.971  0.7895 -0.5834  0.3846
  723MOL0     C97513   1.012  10.285   7.075 -0.6298  0.1216 -0.1842
  723MOL0    Cl97514   1.008  10.142   7.177  0.0767 -0.1212  0.1382
  723MOL0     C97515   0.176  10.417   6.333  0.7976 -0.3234  0.1075
  723MOL0     C97516   0.075  10.407   6.243 -0.2151  0.2957 -0.1731
  723MOL0     O97517  -0.328  10.323   6.242  0.8963  0.0271 -0.1255
  723MOL0     C97518  -0.464  10.321   5.997 -0.5594 -0.2913  0.1487
  723MOL0     C97519  -0.515  10.308   5.862 -1.0224  0.8052  0.5578
  723MOL0     N97520  -0.714  10.773   5.359  0.6674  0.0847  0.3121
  723MOL0     N97521  -0.772  10.745   5.251 -0.6582  0.5226  1.2032
  723MOL0     C97522  -0.059  10.897   5.519 -0.4601 -0.1036  0.3932
  723MOL0     C97523   0.078  10.910   5.532  0.0988  0.2481 -0.0184
  723MOL0     C97524   0.456  11.069   5.677  0.4019  0.0948  0.2584
  723MOL0     C97525   0.541  11.012   5.581  0.2601  0.0147 -0.5647
  723MOL0     C97526   0.680  11.027   5.585  0.3587 -0.1440 -0.5320
  723MOL0     C97527   0.734  11.088   5.694 -0.3486 -0.0017  0.4621
  723MOL0     O97528   0.871  11.081   5.680 -0.9117  0.0186  0.6646
  723MOL0     C97529   0.950  11.094   5.800 -0.3443  0.8811 -0.8869
  723MOL0     C97530   1.098  11.081   5.762  0.3161 -0.1920 -0.1214
  723MOL0     C97531   1.135  10.931   5.746  0.1516 -0.1637  0.5177
  723MOL0     C97532   1.242  10.931   5.636 -0.2858 -0.0631  0.0130
  723MOL0     C97533   1.376  10.977   5.678 -0.1550 -0.6379  0.1193
  723MOL0     C97534   1.484  11.019   5.709  0.4952 -0.3179 -0.1273
  723MOL0     C97535   0.654  11.129   5.800  0.2074 -0.4164  0.4867
  723MOL0     C97536   0.511  11.120   5.789 -0.9340  0.1804 -0.5344
  723MOL0     C97537   0.432  11.162   5.908  0.1742 -0.9175  0.6583
  723MOL0     H97538   0.088  11.250   5.454  2.9580 -1.0299 -2.3369
  723MOL0     H97539  -0.155  11.212   5.453 -1.3713 -1.1801  0.4387
  723MOL0     H97540  -0.460  11.017   5.418  0.6264 -2.9927 -2.1174
  723MOL0     H97541  -0.338  11.154   5.392  0.1238 -0.2317 -0.4958
  723MOL0     H97542  -0.307  10.894   5.242  1.0119  0.4514  1.9550
  723MOL0     H97543  -0.258  11.050   5.186 -1.4633  2.6876 -0.9266
  723MOL0     H97544  -0.502  11.116   5.159 -1.2718 -0.6404  0.2107
  723MOL0     H97545  -0.546  10.962   5.195 -0.4349 -0.9017 -1.3423
  723MOL0     H97546  -0.358  11.048   4.959 -0.2012  0.6191 -2.1697
  723MOL0     H97547  -0.384  10.882   5.003  2.0831  0.7061  0.0113
  723MOL0     H97548  -0.593  11.091   4.912  1.6711  1.1612 -1.4519
  723MOL0     H97549  -0.508  10.967   4.811  0.6730 -0.9352  0.4243
  723MOL0     H97550  -0.712  10.894   5.041  1.5911  0.0909  1.0547
  723MOL0     H97551  -0.744  10.874   4.873 -0.2347 -1.2676 -0.0616
  723MOL0     H97552  -0.505  10.724   4.992  1.2909 -0.4066 -0.4708
  723MOL0     H97553  -0.599  10.692   4.850 -3.1458 -3.1179  0.8769
  723MOL0     H97554  -0.794  10.630   4.997 -0.3883  1.2424 -2.5321
  723MOL0     H97555  -0.628  10.546   5.028  0.5759  0.6879  1.2868
  723MOL0     H97556  -0.488  10.572   5.220 -0.3404  1.7827 -1.5651
  723MOL0     H97557  -0.397  10.726   5.438 -0.7434 -1.7425 -1.9011
  723MOL0     H97558  -0.516  10.765   5.557  0.8919  0.9706  0.1908
  723MOL0     H97559  -0.453  10.485   5.444  1.5096  0.6240  0.7435
  723MOL0     H97560  -0.415  10.542   5.606  1.1898  2.1691 -0.7707
  723MOL0     H97561  -0.705  10.512   5.519  1.0190 -0.7114 -1.4381
  723MOL0     H97562  -0.640  10.516   5.681 -1.5757 -2.5235  0.6745
  723MOL0     H97563  -0.621  10.306   5.473 -1.5225 -0.8170 -0.3115
  723MOL0     H97564  -0.671  10.273   5.638  0.5842 -0.3519 -0.1750
  723MOL0     H97565  -0.241  10.247   5.684  0.2334  1.7732  0.3150
  723MOL0     H97566  -0.132  10.284   5.914  0.2239  0.2395  1.2956
  723MOL0     H97567  -0.174  10.236   6.399 -0.7845  0.9366  0.7084
  723MOL0     H97568   0.006  10.260   6.577 -1.1357  0.6605 -0.1340
  723MOL0     H97569   0.172  10.314   6.744  1.3526 -0.1728  1.9643
  723MOL0     H97570   0.233  10.183   6.650  0.0024  0.3859  1.8369
  723MOL0     H97571   0.458  10.255   6.672  0.5251  0.1724  0.0907
  723MOL0     H97572   0.417  10.410   6.742 -0.2370  0.0776  0.9389
  723MOL0     H97573   0.310  10.249   6.932  0.4983  0.1489  0.7299
  723MOL0     H97574   0.430  10.132   6.881  0.3440  0.3821  3.1374
  723MOL0     H97575   0.492  10.300   7.068 -2.6968  0.8905 -0.8755
  723MOL0     H97576   0.513  10.424   6.954  2.6249  0.0945 -0.1155
  723MOL0     H97577   0.679  10.297   6.815 -0.3087 -0.5952 -0.7402
  723MOL0     H97578   0.650  10.146   6.915 -1.5897  1.0997 -1.7116
  723MOL0     H97579   0.747  10.400   7.037  0.4946 -0.0336  0.8547
  723MOL0     H97580   0.742  10.234   7.100 -0.0275 -2.6166 -2.5469
  723MOL0     H97581   0.931  10.350   6.893  2.2769 -1.5892 -0.2407
  723MOL0     H97582   0.928  10.172   6.937  0.4897 -0.4839 -0.0801
  723MOL0     H97583   1.114  10.301   7.038  1.1716  0.8289  4.3295
  723MOL0     H97584   1.003  10.380   7.129  0.7928  0.9370 -1.3187
  723MOL0     H97585   0.272  10.457   6.302 -0.0565 -0.2548 -2.7072
  723MOL0     H97586   0.083  10.439   6.139 -0.7376  4.0807  0.8020
  723MOL0     H97587  -0.530  10.360   6.074 -0.2514  3.4044 -1.2402
  723MOL0     H97588  -0.618  10.330   5.837 -1.1339 -1.3435 -1.1709
  723MOL0     H97589  -0.099  10.798   5.544  1.8042 -0.8100  1.4640
  723MOL0     H97590   0.144  10.827   5.550 -0.4744 -0.7976 -2.3897
  723MOL0     H97591   0.502  10.953   5.499  3.4308 -2.4061 -0.5500
  723MOL0     H97592   0.747  10.961   5.530 -0.7591 -3.7158  1.9763
  723MOL0     H97593   0.912  11.018   5.869 -1.8136  0.8545 -1.6684
  723MOL0     H97594   0.945  11.197   5.836  3.2610  0.5625  0.8569
  723MOL0     H97595   1.170  11.123   5.833  0.0620 -0.9413  0.6054
  723MOL0     H97596   1.107  11.134   5.668 -3.4142 -0.1292 -0.6028
  723MOL0     H97597   1.050  10.876   5.703 -0.8045  0.9900  0.8615
  723MOL0     H97598   1.167  10.881   5.837  0.5631 -0.5995  0.1376
  723MOL0     H97599   1.252  10.826   5.607 -1.1993 -0.0992 -0.2069
  723MOL0     H97600   1.214  10.981   5.543  1.6096 -1.7507 -1.5576
  723MOL0     H97601   1.578  11.061   5.738 -0.4984  2.3382 -0.4209
  723MOL0     H97602   0.702  11.178   5.885 -0.5690 -2.2602  2.0425
  723MOL0     H97603   0.352  11.232   5.884  1.1057  0.2510  0.8781
  723MOL0     H97604   0.402  11.077   5.971 -0.6845  1.4165  3.6120
  723MOL0     H97605   0.493  11.220   5.978 -1.0853 -0.5592  1.4930
  724MOL0     O97606   1.278   7.880   8.485  0.3705  0.4938  0.0412
  724MOL0     C97607   1.305   7.763   8.451 -0.1418 -1.0345 -0.5988
  724MOL0     O97608   1.293   7.715   8.326  0.2070  0.1801 -0.2355
  724MOL0     C97609   1.228   7.789   8.227 -0.0880  0.8172  0.6625
  724MOL0     C97610   1.106   7.849   8.253 -0.4421 -0.3009  0.8205
  724MOL0     C97611   1.035   7.911   8.149 -0.1368  0.3375 -0.5652
  724MOL0     C97612   1.091   7.919   8.022  0.5688  0.2423  0.6981
  724MOL0     O97613   1.016   7.982   7.922 -0.1194  0.0954 -0.4418
  724MOL0     C97614   0.974   8.118   7.941 -0.4993  0.1298 -0.1823
  724MOL0     C97615   0.822   8.132   7.911 -0.8249 -0.7703 -0.0798
  724MOL0     C97616   0.796   8.172   7.762 -0.5348 -0.3921  0.2601
  724MOL0     C97617   0.761   8.326   7.765 -0.5033  0.5276 -0.1386
  724MOL0     C97618   0.740   8.389   7.629  0.6914  0.1268 -0.7664
  724MOL0     C97619   0.735   8.546   7.638 -0.3668 -0.8152 -0.2997
  724MOL0     C97620   0.782   8.598   7.498  0.5166 -0.6456 -0.8755
  724MOL0     C97621   0.678   8.580   7.391 -0.7431 -0.3707 -0.3305
  724MOL0     N97622   0.559   8.664   7.420  0.2813  0.0205 -0.2219
  724MOL0     C97623   0.551   8.797   7.448  0.1345 -0.7696  0.1686
  724MOL0     C97624   0.430   8.810   7.504  0.3577  0.6541 -0.3401
  724MOL0     C97625   0.373   8.945   7.548 -0.6440 -0.5787 -0.0040
  724MOL0     C97626   0.356   8.949   7.700  0.8879  0.1967 -0.5000
  724MOL0     C97627   0.493   8.914   7.759  0.0615  0.2757 -1.7999
  724MOL0     C97628   0.486   8.894   7.908 -0.1870 -1.1075  0.0654
  724MOL0     O97629   0.501   8.762   7.956 -0.2308  0.0476  0.2919
  724MOL0     C97630   0.639   8.728   7.960  0.3268 -0.2450 -0.4035
  724MOL0     C97631   0.659   8.604   8.022 -0.3101  0.0750 -0.0783
  724MOL0     C97632   0.784   8.560   8.047  0.4432  0.7421  0.0112
  724MOL0     C97633   0.899   8.648   8.021 -0.2589  0.4160 -1.0196
  724MOL0     C97634   1.027   8.587   8.042 -0.0686 -0.4249  0.0638
  724MOL0     O97635   1.128   8.668   8.068  0.4803  0.2355 -0.1847
  724MOL0     C97636   1.258   8.637   8.108 -0.2278 -0.6993 -0.2584
  724MOL0     C97637   1.324   8.757   8.153 -0.3476  0.3387  0.2704
  724MOL0     C97638   1.457   8.745   8.187  0.6632 -0.1427 -0.3378
  724MOL0     C97639   1.522   8.621   8.195  0.0547 -0.7725 -0.5869
  724MOL0     O97640   1.658   8.608   8.232 -0.1714 -0.3249 -0.2838
  724MOL0     C97641   1.698   8.680   8.345 -0.1484 -0.6258 -0.1467
  724MOL0     C97642   1.831   8.635   8.397 -0.1819  0.1250  0.0961
  724MOL0     C97643   1.878   8.704   8.534  0.9009 -0.1837  0.4412
  724MOL0     C97644   1.985   8.615   8.594 -0.3255  0.7582 -0.4765
  724MOL0     C97645   2.111   8.595   8.510 -0.3143 -0.3148 -1.3483
  724MOL0     C97646   2.234   8.538   8.590  0.3975 -1.1413  0.2417
  724MOL0     C97647   2.230   8.380   8.572  0.4355 -0.6657  0.1499
  724MOL0     C97648   2.356   8.310   8.616 -0.5206 -0.7341 -0.1997
  724MOL0    Cl97649   2.368   8.144   8.546  0.0558  0.3979  0.0209
  724MOL0     C97650   1.451   8.512   8.136 -0.6164 -0.9721 -0.1922
  724MOL0     C97651   1.319   8.512   8.109  0.1126 -0.2416  1.9166
  724MOL0     O97652   1.040   8.466   8.040 -0.0666  0.0905  0.0190
  724MOL0     C97653   0.884   8.777   7.970  0.7827  0.0448  0.3384
  724MOL0     C97654   0.751   8.820   7.940  0.4230  0.7581  0.2867
  724MOL0     N97655   0.364   8.685   7.517  0.5386 -0.6336  0.1012
  724MOL0     N97656   0.439   8.606   7.443 -0.6577  0.5095 -0.2067
  724MOL0     C97657   1.221   7.860   7.999 -0.4640 -1.0782 -0.2847
  724MOL0     C97658   1.282   7.791   8.099 -0.2535  0.2858 -0.8342
  724MOL0     C97659   1.356   7.673   8.563  0.6908 -0.7289 -0.3112
  724MOL0     C97660   1.379   7.728   8.689  0.2526  0.2997 -0.1196
  724MOL0     C97661   1.431   7.648   8.788  0.1802  0.3597 -0.1737
  724MOL0     C97662   1.454   7.510   8.769  0.3480 -0.4980 -0.3298
  724MOL0     O97663   1.503   7.420   8.861  0.9607 -0.1120 -0.2142
  724MOL0     C97664   1.552   7.466   8.996 -0.1646  0.2106 -0.5216
  724MOL0     C97665   1.598   7.343   9.067  0.7784  0.0825 -0.7105
  724MOL0     C97666   1.514   7.219   9.038 -0.0116 -0.0758 -1.2401
  724MOL0     C97667   1.522   7.113   9.140  0.1708  0.6573 -0.5616
  724MOL0     C97668   1.485   6.983   9.080 -0.5132  0.1662 -0.0793
  724MOL0     C97669   1.458   6.887   9.012  1.0996  0.8180 -0.5741
  724MOL0     C97670   1.428   7.458   8.641  0.2632  0.2587 -0.4144
  724MOL0     C97671   1.373   7.533   8.538 -1.4589 -0.1631  0.1365
  724MOL0     C97672   1.346   7.466   8.411  0.1258  0.6464  0.6265
  724MOL0     H97673   1.044   7.841   8.342 -0.9756  1.6646  0.6643
  724MOL0     H97674   0.933   7.947   8.158 -1.1469 -1.9487 -1.9713
  724MOL0     H97675   1.001   8.148   8.042 -1.5499 -0.0495  0.1582
  724MOL0     H97676   1.026   8.180   7.867 -3.0005  0.6155 -1.6414
  724MOL0     H97677   0.772   8.200   7.981  2.0193 -2.5177  4.0774
  724MOL0     H97678   0.782   8.031   7.925 -0.0192 -0.8866  1.5910
  724MOL0     H97679   0.709   8.120   7.721 -0.5339  0.0067 -0.2470
  724MOL0     H97680   0.879   8.143   7.697  0.2879  2.1223  0.0742
  724MOL0     H97681   0.671   8.338   7.826 -1.4466 -0.2731 -1.3299
  724MOL0     H97682   0.845   8.377   7.814 -0.5481 -1.3021  2.0391
  724MOL0     H97683   0.820   8.360   7.561  1.9982  0.7375  0.4425
  724MOL0     H97684   0.650   8.342   7.588  2.0785 -1.6278 -1.9643
  724MOL0     H97685   0.631   8.563   7.667 -0.0435  1.1317 -0.1609
  724MOL0     H97686   0.813   8.578   7.708  1.9776 -1.2853 -2.5138
  724MOL0     H97687   0.877   8.555   7.465 -0.2155 -0.0360 -4.1744
  724MOL0     H97688   0.808   8.703   7.516  0.9873 -1.0749  1.1564
  724MOL0     H97689   0.715   8.623   7.297  1.0392 -0.1906  0.4076
  724MOL0     H97690   0.653   8.474   7.389  2.5007 -1.2270 -0.9656
  724MOL0     H97691   0.622   8.879   7.436 -0.7728 -0.1010 -0.7938
  724MOL0     H97692   0.453   9.011   7.514 -0.8122 -0.4422 -0.1399
  724MOL0     H97693   0.278   8.962   7.495 -1.4229  0.0923  1.5565
  724MOL0     H97694   0.328   9.051   7.727 -0.7248 -1.0300  3.0522
  724MOL0     H97695   0.280   8.877   7.732  0.8756  1.1837  1.8636
  724MOL0     H97696   0.578   8.974   7.724  0.9531  0.6667  0.8318
  724MOL0     H97697   0.506   8.808   7.735 -1.3553 -0.4081  0.1997
  724MOL0     H97698   0.381   8.896   7.940 -0.3497 -1.0742 -0.4505
  724MOL0     H97699   0.541   8.970   7.965  0.7964 -1.5076 -0.3303
  724MOL0     H97700   0.581   8.535   8.052 -0.0747  0.0391  0.4608
  724MOL0     H97701   0.810   8.461   8.081 -1.5157 -0.6877 -2.3550
  724MOL0     H97702   1.270   8.851   8.160 -0.6721  0.2602 -1.0237
  724MOL0     H97703   1.513   8.832   8.221  0.5447 -0.4859  0.7601
  724MOL0     H97704   1.710   8.786   8.324  2.2500 -0.2302  2.6401
  724MOL0     H97705   1.630   8.671   8.431 -1.9027  1.4818 -1.2308
  724MOL0     H97706   1.829   8.527   8.412  0.6821  0.2626  1.3455
  724MOL0     H97707   1.909   8.647   8.322  2.0068 -3.0265  1.6648
  724MOL0     H97708   1.912   8.806   8.514 -0.4469 -0.0510 -1.4554
  724MOL0     H97709   1.796   8.711   8.607 -0.3393  1.6613 -1.0533
  724MOL0     H97710   1.934   8.521   8.617  0.9414  0.6869  2.5310
  724MOL0     H97711   2.007   8.660   8.692  1.9959 -2.8957  0.8669
  724MOL0     H97712   2.149   8.694   8.482 -2.6832  1.6323  1.6677
  724MOL0     H97713   2.095   8.536   8.419 -2.8146 -1.0234 -0.5522
  724MOL0     H97714   2.325   8.567   8.536 -1.5124  1.1437 -1.9854
  724MOL0     H97715   2.235   8.576   8.693  0.1231  2.8183 -1.0147
  724MOL0     H97716   2.216   8.359   8.466 -4.2358 -0.7774  0.5599
  724MOL0     H97717   2.135   8.339   8.608 -1.6354  1.5087 -2.3942
  724MOL0     H97718   2.447   8.364   8.591  0.0608 -0.5390  2.1385
  724MOL0     H97719   2.342   8.304   8.724 -0.3469 -3.9756 -0.2643
  724MOL0     H97720   1.510   8.420   8.139 -1.0183 -1.2152  0.4345
  724MOL0     H97721   1.273   8.426   8.061  1.7733  0.5165 -1.2977
  724MOL0     H97722   0.962   8.845   7.937 -0.1183  1.1917  0.5117
  724MOL0     H97723   0.740   8.915   7.889  2.8652  0.3740 -1.1111
  724MOL0     H97724   1.266   7.863   7.900 -1.8541  1.4721 -0.9197
  724MOL0     H97725   1.374   7.743   8.065 -0.3995  0.5570 -1.6274
  724MOL0     H97726   1.355   7.832   8.705 -1.9765  0.2870 -2.7077
  724MOL0     H97727   1.449   7.694   8.885 -1.1691 -0.1417  0.3450
  724MOL0     H97728   1.466   7.505   9.051 -0.5625 -2.9105  1.3250
  724MOL0     H97729   1.632   7.541   8.996  0.6567 -0.6392 -0.7249
  724MOL0     H97730   1.580   7.351   9.174  1.4540  1.4966 -0.6752
  724MOL0     H97731   1.706   7.329   9.066  0.8354  0.4905 -0.4561
  724MOL0     H97732   1.533   7.181   8.937 -1.8080 -1.4077 -1.1171
  724MOL0     H97733   1.411   7.257   9.040 -0.0223 -0.1200  0.0265
  724MOL0     H97734   1.627   7.110   9.172 -0.2468 -1.5524  0.7680
  724MOL0     H97735   1.463   7.138   9.228  1.4271  0.5459  0.3415
  724MOL0     H97736   1.434   6.797   8.959 -2.6425 -0.3463  2.5974
  724MOL0     H97737   1.460   7.359   8.609 -0.1014 -0.2144  0.6458
  724MOL0     H97738   1.336   7.359   8.430 -1.9134  0.5923 -0.4830
  724MOL0     H97739   1.249   7.495   8.370 -0.6185 -0.9405  1.1996
  724MOL0     H97740   1.430   7.474   8.341  0.4952  1.3429  1.1367
  725MOL0     O97741   1.848   4.264   9.210  0.1764 -0.3130 -0.3957
  725MOL0     C97742   1.741   4.311   9.249 -0.2988 -0.3062  0.0277
  725MOL0     O97743   1.724   4.440   9.283 -0.0137 -0.5102  0.0957
  725MOL0     C97744   1.830   4.521   9.296 -0.9902  0.4425 -0.3568
  725MOL0     C97745   1.842   4.596   9.411  0.0114  0.5208  0.3782
  725MOL0     C97746   1.957   4.677   9.429  0.3794 -1.0054 -0.1813
  725MOL0     C97747   2.060   4.677   9.346  0.3294  0.6262  0.7206
  725MOL0     O97748   2.164   4.767   9.372  0.3085  0.7401  0.3514
  725MOL0     C97749   2.256   4.791   9.261 -0.2578  0.1879 -1.0720
  725MOL0     C97750   2.345   4.904   9.307 -0.0240 -0.4649 -0.3580
  725MOL0     C97751   2.279   5.024   9.366  1.2458 -0.9853  0.9724
  725MOL0     C97752   2.391   5.132   9.377  0.6488 -0.0024 -0.6842
  725MOL0     C97753   2.332   5.274   9.431 -0.3548  0.5790  0.0675
  725MOL0     C97754   2.308   5.275   9.581  1.0699 -0.5609  0.1650
  725MOL0     C97755   2.159   5.272   9.623 -0.0938  0.4114  0.4256
  725MOL0     C97756   2.077   5.399   9.601 -0.3056  0.0924  0.0415
  725MOL0     N97757   2.154   5.517   9.661  0.1984 -0.0296  0.6196
  725MOL0     C97758   2.176   5.545   9.791  0.8840  0.2456 -1.0394
  725MOL0     C97759   2.283   5.631   9.791  0.2943  0.2499  0.3906
  725MOL0     C97760   2.373   5.673   9.900 -0.2499 -0.0859 -0.0290
  725MOL0     C97761   2.523   5.640   9.863 -0.8415  1.7588  0.9521
  725MOL0     C97762   2.611   5.655   9.986 -0.5673 -0.1550 -0.2689
  725MOL0     C97763   2.763   5.671   9.962 -0.2313 -0.4975  0.8963
  725MOL0     O97764   2.807   5.565   9.878  0.0352  0.4067  0.1215
  725MOL0     C97765   2.934   5.538   9.830  0.5047  0.3378 -0.1952
  725MOL0     C97766   3.035   5.621   9.865 -0.3286 -0.2978 -0.5578
  725MOL0     C97767   3.168   5.611   9.815  0.5554 -0.6668  0.4244
  725MOL0     C97768   3.196   5.502   9.734 -0.5349 -0.1615 -1.0214
  725MOL0     C97769   3.331   5.481   9.684  0.8678 -0.3566  0.5089
  725MOL0     O97770   3.335   5.396   9.580  0.1792 -0.2119 -0.6692
  725MOL0     C97771   3.455   5.343   9.525 -0.0959 -0.0378 -0.6004
  725MOL0     C97772   3.587   5.365   9.573  0.7702  0.3231 -0.1987
  725MOL0     C97773   3.703   5.291   9.528  0.0894  0.0025  0.5052
  725MOL0     C97774   3.682   5.206   9.421 -0.1214  0.2730  0.5539
  725MOL0     O97775   3.795   5.153   9.367  0.0174  0.7840 -0.0771
  725MOL0     C97776   3.871   5.060   9.438 -1.2806  0.0301 -0.6443
  725MOL0     C97777   4.025   5.085   9.434  0.2871 -0.8650 -0.2500
  725MOL0     C97778   4.087   5.109   9.296  0.0738  0.4514 -0.2296
  725MOL0     C97779   4.241   5.129   9.306  0.3846  0.7557  0.1503
  725MOL0     C97780   4.294   5.188   9.174 -0.7189 -0.2697  0.0717
  725MOL0     C97781   4.445   5.173   9.172  0.9436  0.4145  0.6131
  725MOL0     C97782   4.506   5.231   9.040 -0.8747 -0.5286 -0.3352
  725MOL0     C97783   4.629   5.321   9.076 -0.2447  0.9362  0.2390
  725MOL0    Cl97784   4.752   5.234   9.176  0.1231  0.4276  0.2814
  725MOL0     C97785   3.547   5.170   9.374 -0.7090 -0.1839 -0.3045
  725MOL0     C97786   3.437   5.246   9.419 -0.9869 -0.1890 -1.6690
  725MOL0     O97787   3.428   5.537   9.733 -0.1797 -0.2399 -0.4449
  725MOL0     C97788   3.101   5.403   9.709  0.0350 -0.1910  0.3254
  725MOL0     C97789   2.966   5.418   9.762  0.1023 -0.0315  0.4209
  725MOL0     N97790   2.299   5.669   9.659 -0.4570 -0.4224 -0.0949
  725MOL0     N97791   2.219   5.607   9.585  0.3309 -0.6035 -0.1126
  725MOL0     C97792   2.051   4.592   9.233 -0.5158  0.1603 -0.0607
  725MOL0     C97793   1.932   4.526   9.206  0.4230 -0.2622  0.4896
  725MOL0     C97794   1.627   4.218   9.257 -0.7257  0.4137  0.0161
  725MOL0     C97795   1.511   4.266   9.319  0.6376 -0.7009  0.5265
  725MOL0     C97796   1.402   4.183   9.353 -0.0960 -0.1649 -0.4075
  725MOL0     C97797   1.402   4.058   9.287  1.0403 -0.4408 -0.8292
  725MOL0     O97798   1.294   3.984   9.325  0.8707 -0.2334 -0.2876
  725MOL0     C97799   1.272   3.843   9.298  0.8258  0.3270 -0.2595
  725MOL0     C97800   1.129   3.814   9.338 -0.6539 -0.1065 -0.1519
  725MOL0     C97801   1.092   3.666   9.336 -0.5767  0.5309  0.3159
  725MOL0     C97802   0.962   3.615   9.389  0.9508 -0.1089  0.5431
  725MOL0     C97803   0.855   3.708   9.352  0.5507 -0.1812  0.0506
  725MOL0     C97804   0.768   3.793   9.324  0.4421 -0.2853 -0.1204
  725MOL0     C97805   1.513   4.004   9.219 -0.2642 -0.0382  0.4317
  725MOL0     C97806   1.626   4.081   9.206  0.4997  0.2119 -0.2975
  725MOL0     C97807   1.732   4.022   9.110 -0.2111 -0.1334 -0.4223
  725MOL0     H97808   1.758   4.593   9.480 -0.5222  1.9419 -0.1696
  725MOL0     H97809   1.959   4.729   9.524 -0.3259 -3.2543  1.1151
  725MOL0     H97810   2.313   4.702   9.233 -1.8676 -1.9149  1.7812
  725MOL0     H97811   2.193   4.821   9.177 -0.6048  0.9018 -0.5728
  725MOL0     H97812   2.420   4.935   9.234  4.1290  1.0794  4.0563
  725MOL0     H97813   2.408   4.860   9.385 -0.0148  1.5339  0.8358
  725MOL0     H97814   2.223   5.013   9.460 -1.2053  0.8154 -0.1688
  725MOL0     H97815   2.205   5.057   9.293  1.4528 -2.2384  0.1681
  725MOL0     H97816   2.477   5.098   9.436 -1.3690 -2.0724  1.2493
  725MOL0     H97817   2.436   5.164   9.283 -1.6881  4.1208 -0.6533
  725MOL0     H97818   2.411   5.346   9.407  0.1096  1.2755  3.1987
  725MOL0     H97819   2.246   5.317   9.377 -1.4397 -0.1293  1.1652
  725MOL0     H97820   2.358   5.186   9.622  3.3067  0.7730  0.5060
  725MOL0     H97821   2.353   5.365   9.624 -0.9168 -0.0859  1.3400
  725MOL0     H97822   2.155   5.245   9.730  0.3620 -2.5070 -0.1909
  725MOL0     H97823   2.107   5.192   9.569 -0.4048 -1.3719  3.1151
  725MOL0     H97824   2.069   5.411   9.493  0.1940  0.8929  0.0867
  725MOL0     H97825   1.972   5.388   9.632 -0.8247 -1.4609 -2.0349
  725MOL0     H97826   2.140   5.487   9.875 -0.1193  2.0055 -0.2161
  725MOL0     H97827   2.384   5.781   9.916  0.5151 -0.4118  1.9236
  725MOL0     H97828   2.347   5.619   9.991  2.6053 -1.4754  0.0612
  725MOL0     H97829   2.528   5.534   9.839 -0.9227  1.3561  2.6464
  725MOL0     H97830   2.559   5.706   9.782 -1.0162 -0.2276 -0.8328
  725MOL0     H97831   2.599   5.566  10.049  1.3572 -0.3117 -0.0816
  725MOL0     H97832   2.572   5.735  10.050  0.0800 -1.4892  1.8936
  725MOL0     H97833   2.814   5.676  10.059  2.5674  0.7621 -0.5394
  725MOL0     H97834   2.779   5.763   9.905  2.6146 -2.7288 -2.2514
  725MOL0     H97835   3.024   5.705   9.932  0.6551 -1.4896  1.1795
  725MOL0     H97836   3.253   5.669   9.849  0.8115 -1.0978  0.5345
  725MOL0     H97837   3.601   5.420   9.666 -3.6175  1.0936  0.2178
  725MOL0     H97838   3.809   5.300   9.551  1.1793 -3.1534 -2.4601
  725MOL0     H97839   3.839   5.047   9.542 -0.3367 -1.3830 -0.5039
  725MOL0     H97840   3.860   4.964   9.386 -0.6469  0.9428 -2.5589
  725MOL0     H97841   4.046   5.175   9.493  0.6389 -0.9117 -0.3062
  725MOL0     H97842   4.064   5.000   9.490 -0.4512  0.1201  1.8944
  725MOL0     H97843   4.075   5.021   9.232  0.6037 -1.9661  2.7392
  725MOL0     H97844   4.042   5.190   9.238 -0.5887  0.4700  0.2995
  725MOL0     H97845   4.282   5.029   9.323 -1.9324 -0.4353 -0.6912
  725MOL0     H97846   4.273   5.186   9.393 -1.4644  0.2842  1.1991
  725MOL0     H97847   4.271   5.294   9.166 -0.9395 -0.2656  0.6763
  725MOL0     H97848   4.254   5.144   9.082 -0.4414 -1.0707  0.3225
  725MOL0     H97849   4.485   5.228   9.258 -1.7681  2.7184  0.5478
  725MOL0     H97850   4.473   5.068   9.169 -1.2252 -0.1990  0.5115
  725MOL0     H97851   4.432   5.291   8.987 -0.5472  0.1269 -0.0647
  725MOL0     H97852   4.526   5.142   8.979  1.4778  0.5944 -1.3455
  725MOL0     H97853   4.667   5.362   8.982 -0.6710 -1.6287 -1.1428
  725MOL0     H97854   4.596   5.411   9.129  1.0515  0.8588  1.2374
  725MOL0     H97855   3.535   5.094   9.298  1.0406 -0.4037 -0.3912
  725MOL0     H97856   3.331   5.227   9.415 -1.4249  0.3416  2.7100
  725MOL0     H97857   3.129   5.313   9.655 -0.8474  1.3802 -3.0101
  725MOL0     H97858   2.900   5.332   9.754  0.3270 -0.0239 -2.2482
  725MOL0     H97859   2.128   4.609   9.158 -1.2671  2.6109 -0.3484
  725MOL0     H97860   1.918   4.481   9.108 -0.4992 -1.2830  1.0523
  725MOL0     H97861   1.509   4.356   9.380 -2.7854 -3.1011  4.4859
  725MOL0     H97862   1.313   4.218   9.403  2.0032  2.0746  2.0458
  725MOL0     H97863   1.327   3.788   9.376 -0.9724 -1.4456 -0.1567
  725MOL0     H97864   1.311   3.807   9.202  0.2787 -0.3656 -0.2282
  725MOL0     H97865   1.056   3.873   9.282  1.3497  1.5459 -1.1779
  725MOL0     H97866   1.139   3.848   9.442  1.7743 -0.7479 -0.1114
  725MOL0     H97867   1.172   3.612   9.388  0.7714  3.2845  1.3450
  725MOL0     H97868   1.099   3.640   9.230 -1.6103  5.2846 -1.1953
  725MOL0     H97869   0.943   3.514   9.351 -1.0067 -0.1525  1.5658
  725MOL0     H97870   0.967   3.615   9.498 -0.3551  0.2094  0.6103
  725MOL0     H97871   0.705   3.867   9.279  0.5915 -2.3228 -4.1217
  725MOL0     H97872   1.514   3.898   9.197  3.2188 -0.4940  2.0407
  725MOL0     H97873   1.834   4.031   9.149 -0.1200 -3.2083  0.2900
  725MOL0     H97874   1.708   3.919   9.081  1.8656 -1.1403  1.1598
  725MOL0     H97875   1.749   4.068   9.013  0.9920 -1.6896 -0.9864
  726MOL0     O97876   1.130   7.472   2.575  0.4807  0.0291  0.2128
  726MOL0     C97877   1.158   7.468   2.457 -0.3362 -0.1475  0.4143
  726MOL0     O97878   1.066   7.496   2.360 -0.0818  0.6783 -0.2621
  726MOL0     C97879   0.930   7.492   2.387 -0.0382 -1.0976 -0.0991
  726MOL0     C97880   0.854   7.380   2.350 -0.1504 -0.5783 -1.4204
  726MOL0     C97881   0.713   7.375   2.354  0.6233  0.6168  0.3239
  726MOL0     C97882   0.641   7.486   2.408  0.4751  0.0953 -0.6032
  726MOL0     O97883   0.502   7.488   2.426  0.0025  0.0221  0.1219
  726MOL0     C97884   0.424   7.413   2.329  1.5609 -0.1657 -0.7961
  726MOL0     C97885   0.274   7.442   2.373 -0.2811  0.4918  0.5364
  726MOL0     C97886   0.169   7.370   2.278  0.0219 -0.4452  0.9776
  726MOL0     C97887   0.021   7.408   2.294 -0.1508 -0.4569 -0.1049
  726MOL0     C97888  -0.068   7.292   2.232 -0.5067 -0.6402  0.2358
  726MOL0     C97889  -0.219   7.341   2.227  0.8702  0.0976 -1.0695
  726MOL0     C97890  -0.284   7.276   2.106  0.6411 -0.0265  1.2656
  726MOL0     C97891  -0.309   7.129   2.115 -0.7660 -0.3011 -0.3277
  726MOL0     N97892  -0.221   7.056   2.029 -0.4428 -0.3919  0.2603
  726MOL0     C97893  -0.232   7.051   1.893 -0.4938 -0.4134 -0.3817
  726MOL0     C97894  -0.113   7.019   1.849  0.1673  0.3206  0.5113
  726MOL0     C97895  -0.065   6.986   1.714 -0.3491  0.6908 -0.5607
  726MOL0     C97896  -0.117   6.855   1.661 -0.2336  0.3308  0.0598
  726MOL0     C97897  -0.072   6.821   1.524 -0.3362 -0.4316  0.2708
  726MOL0     C97898  -0.065   6.673   1.493 -0.9055 -0.0366  1.0922
  726MOL0     O97899  -0.052   6.667   1.348 -0.8314  0.3992  0.5566
  726MOL0     C97900   0.071   6.631   1.293 -0.4168 -0.1457 -0.6624
  726MOL0     C97901   0.067   6.570   1.172  0.4725  0.0085  0.5330
  726MOL0     C97902   0.183   6.546   1.101 -0.3019  0.7067  1.1402
  726MOL0     C97903   0.313   6.569   1.154 -0.0279  0.0132  0.7326
  726MOL0     C97904   0.445   6.548   1.070  0.3758  0.4235  0.6067
  726MOL0     O97905   0.558   6.528   1.146  0.7118  0.1072  0.3103
  726MOL0     C97906   0.679   6.521   1.082 -0.0606  0.4726  0.4850
  726MOL0     C97907   0.708   6.434   0.969  1.0711  0.1924 -0.3494
  726MOL0     C97908   0.837   6.418   0.926 -0.8577 -0.6602 -0.1306
  726MOL0     C97909   0.943   6.488   0.987  0.3398 -0.4288  0.3072
  726MOL0     O97910   1.068   6.457   0.950 -0.6086 -0.6464 -0.0568
  726MOL0     C97911   1.146   6.581   0.921 -0.5913 -0.5316 -0.2322
  726MOL0     C97912   1.263   6.546   0.823  1.0538 -0.0701 -0.3480
  726MOL0     C97913   1.333   6.678   0.801  1.0762  0.8698 -1.0087
  726MOL0     C97914   1.481   6.675   0.740 -0.1464 -0.9188  0.3051
  726MOL0     C97915   1.488   6.733   0.598  0.2116 -0.3563 -0.3088
  726MOL0     C97916   1.436   6.630   0.504 -0.4029  1.3567 -0.0861
  726MOL0     C97917   1.480   6.664   0.363  0.6033  0.6520  0.4288
  726MOL0     C97918   1.392   6.599   0.248 -0.0227 -0.0940 -0.4149
  726MOL0    Cl97919   1.411   6.422   0.230  0.1623 -0.0704 -0.4463
  726MOL0     C97920   0.901   6.581   1.083 -0.5202  0.6689 -0.9970
  726MOL0     C97921   0.774   6.599   1.135 -1.7009 -0.0226  0.7471
  726MOL0     O97922   0.434   6.554   0.947 -0.0938  0.4225  0.0884
  726MOL0     C97923   0.310   6.611   1.290  0.1557  1.4466 -0.0831
  726MOL0     C97924   0.192   6.644   1.365 -0.0312  0.0669 -0.6437
  726MOL0     N97925  -0.033   6.993   1.954  0.3775  0.6484 -0.2904
  726MOL0     N97926  -0.094   7.026   2.067  0.1929 -0.2803 -0.4702
  726MOL0     C97927   0.722   7.593   2.459 -0.1610 -0.4381  1.4218
  726MOL0     C97928   0.858   7.599   2.446  0.0212 -0.4977 -0.5110
  726MOL0     C97929   1.296   7.432   2.412  0.3251 -1.0251  0.6046
  726MOL0     C97930   1.393   7.423   2.509 -0.5853 -0.3868 -0.0895
  726MOL0     C97931   1.525   7.384   2.480  0.1460 -0.2729  0.1805
  726MOL0     C97932   1.567   7.356   2.356 -0.2905  0.4980  0.3286
  726MOL0     O97933   1.692   7.338   2.305 -0.2044 -0.7616  0.6473
  726MOL0     C97934   1.803   7.340   2.395 -0.5900  0.0312 -0.1887
  726MOL0     C97935   1.926   7.362   2.312  0.2836 -0.2537 -0.1186
  726MOL0     C97936   1.923   7.508   2.257 -0.3096 -0.9789 -0.4004
  726MOL0     C97937   2.022   7.538   2.149 -0.5228 -0.2888  0.1374
  726MOL0     C97938   2.157   7.489   2.171 -0.8273  0.2527  0.2333
  726MOL0     C97939   2.268   7.437   2.161 -0.0135 -0.5591  0.4953
  726MOL0     C97940   1.479   7.365   2.246  0.0326  0.1427  0.2242
  726MOL0     C97941   1.339   7.399   2.276  0.4542 -0.1209 -0.7572
  726MOL0     C97942   1.233   7.389   2.170 -0.0986 -0.0464  0.6584
  726MOL0     H97943   0.903   7.292   2.311  0.0093 -1.0408 -0.2039
  726MOL0     H97944   0.664   7.282   2.327 -1.1282  1.9196 -1.1572
  726MOL0     H97945   0.435   7.458   2.230  0.8667 -0.9472 -1.2416
  726MOL0     H97946   0.434   7.304   2.319 -0.9806 -0.6222  0.7071
  726MOL0     H97947   0.263   7.551   2.374  2.8078  0.8944  1.8890
  726MOL0     H97948   0.252   7.419   2.478  1.2421 -0.6718  0.6295
  726MOL0     H97949   0.163   7.261   2.288  1.6844 -0.5979  0.5833
  726MOL0     H97950   0.201   7.386   2.175  1.3478 -3.0138  0.9077
  726MOL0     H97951  -0.017   7.438   2.393  1.6775  1.1213  0.1655
  726MOL0     H97952   0.011   7.497   2.232  3.2655  1.0386  1.2120
  726MOL0     H97953  -0.020   7.292   2.134  0.0475  0.9539  0.4649
  726MOL0     H97954  -0.055   7.200   2.289 -0.9459 -0.9536 -0.1680
  726MOL0     H97955  -0.284   7.315   2.311 -0.2080  1.2293 -1.5153
  726MOL0     H97956  -0.217   7.450   2.219  1.2715  0.2595  0.8472
  726MOL0     H97957  -0.229   7.307   2.016 -0.3282 -0.9402  0.3290
  726MOL0     H97958  -0.384   7.319   2.096  1.1369  1.5267  2.5843
  726MOL0     H97959  -0.278   7.094   2.214  0.2119  3.2828  0.7877
  726MOL0     H97960  -0.415   7.104   2.107 -0.1864 -2.6046 -1.7253
  726MOL0     H97961  -0.322   7.069   1.836  0.0209 -0.1536 -1.1171
  726MOL0     H97962  -0.093   7.064   1.643  1.5367  0.6759 -1.3824
  726MOL0     H97963   0.044   6.992   1.722 -0.4216  0.7121  0.4954
  726MOL0     H97964  -0.099   6.774   1.733  0.8873 -0.7241 -1.3328
  726MOL0     H97965  -0.225   6.866   1.669  0.0058  1.4396  3.2965
  726MOL0     H97966   0.026   6.867   1.506 -0.9852  1.0687  0.3924
  726MOL0     H97967  -0.137   6.868   1.450  1.3273 -1.6802 -2.0921
  726MOL0     H97968  -0.154   6.620   1.530 -2.1215  1.5603  0.5933
  726MOL0     H97969   0.015   6.627   1.551 -0.8973 -1.3117  0.1048
  726MOL0     H97970  -0.027   6.553   1.119  0.9716 -0.2802 -0.2785
  726MOL0     H97971   0.174   6.513   0.998  0.8993 -0.0062  1.2336
  726MOL0     H97972   0.625   6.385   0.919  1.1263  1.3526 -1.6330
  726MOL0     H97973   0.864   6.341   0.854  1.3363  1.5363 -1.7968
  726MOL0     H97974   1.080   6.651   0.870 -0.5551  0.9922  1.6976
  726MOL0     H97975   1.184   6.632   1.010  0.9212 -0.6670 -0.7718
  726MOL0     H97976   1.333   6.477   0.871  1.2425 -1.2694 -2.2444
  726MOL0     H97977   1.235   6.505   0.726 -0.7592 -1.4008  0.6919
  726MOL0     H97978   1.269   6.741   0.738  3.0813  0.9669 -3.0966
  726MOL0     H97979   1.340   6.718   0.902 -2.4746  2.2634 -1.1874
  726MOL0     H97980   1.517   6.572   0.744  4.2858  0.4260  0.2407
  726MOL0     H97981   1.553   6.735   0.796  0.1252 -1.0544  0.1036
  726MOL0     H97982   1.595   6.751   0.580  0.6358 -3.1677 -1.2505
  726MOL0     H97983   1.434   6.827   0.592  0.4638  0.6564  6.1647
  726MOL0     H97984   1.476   6.531   0.529 -0.0348  1.3046 -0.8436
  726MOL0     H97985   1.327   6.641   0.512 -0.6703  0.3580 -1.8000
  726MOL0     H97986   1.577   6.623   0.334 -0.3961 -2.0289  0.5476
  726MOL0     H97987   1.484   6.773   0.354  3.1165  0.5048 -1.2763
  726MOL0     H97988   1.289   6.627   0.269 -0.1914 -0.9738 -0.0398
  726MOL0     H97989   1.405   6.642   0.148 -2.9307 -0.3257 -0.9546
  726MOL0     H97990   0.985   6.635   1.126 -0.2848 -0.9808  0.7046
  726MOL0     H97991   0.749   6.677   1.207 -0.7700  0.8458  0.1603
  726MOL0     H97992   0.400   6.610   1.351  0.2567 -2.0889 -0.0515
  726MOL0     H97993   0.204   6.672   1.469  0.2880  2.0512 -1.1753
  726MOL0     H97994   0.669   7.674   2.507 -0.4463  0.6669 -0.6339
  726MOL0     H97995   0.910   7.688   2.481 -1.8625  1.0843 -1.4990
  726MOL0     H97996   1.375   7.443   2.614 -2.4732 -0.0315 -0.4539
  726MOL0     H97997   1.577   7.368   2.574 -0.6141  1.9860  1.0458
  726MOL0     H97998   1.813   7.244   2.446  0.5660  0.9723  1.4332
  726MOL0     H97999   1.795   7.410   2.478  0.6156 -1.6418  1.4095
  726MOL0     H98000   1.941   7.288   2.234  1.1893  0.1942 -0.3851
  726MOL0     H98001   2.010   7.344   2.380  0.6408 -4.9807 -1.4979
  726MOL0     H98002   1.942   7.570   2.345 -0.3211 -0.4709 -0.7482
  726MOL0     H98003   1.823   7.538   2.224 -0.5418 -2.4532 -1.1169
  726MOL0     H98004   1.986   7.512   2.049  2.4562 -0.4005 -1.0175
  726MOL0     H98005   2.030   7.647   2.145  1.4547 -0.4120 -0.4653
  726MOL0     H98006   2.367   7.400   2.144 -1.1900 -2.9569 -1.6758
  726MOL0     H98007   1.513   7.320   2.153  1.7949 -0.7230  1.2396
  726MOL0     H98008   1.144   7.329   2.190  0.2357 -0.8217 -0.1119
  726MOL0     H98009   1.193   7.483   2.130  0.6352 -0.5626 -1.4170
  726MOL0     H98010   1.269   7.335   2.083 -1.7550 -0.8462  0.4270
  727MOL0     O98011  10.532   5.972   6.226 -0.0222 -0.6888  0.1246
  727MOL0     C98012  10.563   5.884   6.308 -0.0973 -0.3356  0.3300
  727MOL0     O98013  10.524   5.885   6.440 -0.3742 -0.6808  0.3933
  727MOL0     C98014  10.445   5.988   6.489  0.1018  0.1548  0.1348
  727MOL0     C98015  10.459   6.122   6.446  0.3884  0.3031  0.1143
  727MOL0     C98016  10.371   6.215   6.508 -0.2311  0.1614  0.1476
  727MOL0     C98017  10.287   6.181   6.610 -0.5521 -0.1980  0.7121
  727MOL0     O98018  10.196   6.271   6.656 -0.3410  0.2345  0.0278
  727MOL0     C98019  10.094   6.237   6.753  0.2520 -1.1651 -0.1514
  727MOL0     C98020   9.997   6.354   6.765 -0.0452  0.0344 -0.8149
  727MOL0     C98021   9.938   6.357   6.902 -0.0879 -0.5258 -0.1939
  727MOL0     C98022   9.835   6.475   6.916  0.0913  0.1177  0.5448
  727MOL0     C98023   9.764   6.478   7.047  0.3520 -0.1366 -0.2198
  727MOL0     C98024   9.618   6.520   7.057  0.3986  1.0450 -0.7414
  727MOL0     C98025   9.587   6.661   7.007 -1.2243 -0.4340 -0.6612
  727MOL0     C98026   9.634   6.780   7.101 -0.7408  0.9356  0.2298
  727MOL0     N98027   9.545   6.800   7.213  0.0231 -0.3655 -0.0781
  727MOL0     C98028   9.419   6.851   7.226 -0.2760 -0.6176 -0.2548
  727MOL0     C98029   9.383   6.811   7.356 -0.3931 -0.9229 -0.1232
  727MOL0     C98030   9.245   6.828   7.419  0.5198  0.2316  0.7519
  727MOL0     C98031   9.215   6.953   7.492 -0.2916 -0.3708  0.1640
  727MOL0     C98032   9.318   7.000   7.596 -0.3898  0.1530  0.9936
  727MOL0     C98033   9.428   7.100   7.551 -0.9403  0.0967 -0.0637
  727MOL0     O98034   9.369   7.201   7.464 -0.7470 -0.0497  0.1163
  727MOL0     C98035   9.454   7.301   7.418 -0.7509 -0.0322  0.7073
  727MOL0     C98036   9.393   7.392   7.331  0.1240  0.6354 -0.5361
  727MOL0     C98037   9.467   7.494   7.272 -0.3462  0.2852  0.5443
  727MOL0     C98038   9.602   7.520   7.317  0.0300  0.5813  0.1996
  727MOL0     C98039   9.686   7.620   7.257 -1.0302 -0.9144  0.0497
  727MOL0     O98040   9.819   7.609   7.284  0.6146 -0.1806 -0.4235
  727MOL0     C98041   9.898   7.714   7.242 -0.3535  0.0007 -0.6671
  727MOL0     C98042   9.890   7.849   7.290 -0.6969  0.4539  0.3654
  727MOL0     C98043   9.994   7.938   7.234 -0.1711 -0.7845  0.6678
  727MOL0     C98044  10.071   7.907   7.122  0.3485  0.3791 -1.1595
  727MOL0     O98045  10.150   8.006   7.065 -0.1753 -0.1379  0.0007
  727MOL0     C98046  10.215   7.985   6.939 -0.7585  0.0110  0.8240
  727MOL0     C98047  10.128   7.990   6.816  0.8424 -0.8282 -0.2732
  727MOL0     C98048  10.063   8.134   6.804 -0.0599 -0.3519  0.3433
  727MOL0     C98049  10.038   8.175   6.660  0.3995  0.3820  0.3366
  727MOL0     C98050   9.992   8.312   6.629 -0.2166  0.0735 -0.6675
  727MOL0     C98051   9.844   8.336   6.670  0.3103 -0.1486 -0.4580
  727MOL0     C98052   9.792   8.469   6.609  0.6762 -0.5506  0.0779
  727MOL0     C98053   9.647   8.485   6.653 -0.4968  0.0028 -0.2088
  727MOL0    Cl98054   9.559   8.636   6.615 -0.1558 -0.4093 -0.0448
  727MOL0     C98055  10.067   7.773   7.083 -0.2431 -0.9229 -0.6720
  727MOL0     C98056   9.993   7.678   7.151 -0.8161 -0.5238 -0.4696
  727MOL0     O98057   9.635   7.695   7.178 -0.3604 -0.2170  0.3391
  727MOL0     C98058   9.662   7.436   7.411 -0.9170 -0.3244  0.9776
  727MOL0     C98059   9.592   7.329   7.458  0.2934  0.8916  0.2296
  727MOL0     N98060   9.486   6.737   7.421 -0.0326 -0.7390  1.0186
  727MOL0     N98061   9.575   6.727   7.327  0.2335  0.2429 -0.4062
  727MOL0     C98062  10.287   6.057   6.660 -0.1795  0.2060 -0.4704
  727MOL0     C98063  10.361   5.958   6.595 -0.6359  0.2988 -0.3697
  727MOL0     C98064  10.661   5.782   6.267 -0.0923 -0.4085  0.3982
  727MOL0     C98065  10.748   5.816   6.159  0.3138 -1.2575  0.3087
  727MOL0     C98066  10.838   5.722   6.111  0.0523  0.1187 -0.2122
  727MOL0     C98067  10.839   5.597   6.163  0.0680 -1.0185  0.4257
  727MOL0     O98068  10.928   5.513   6.091  0.5787  0.3037 -0.7820
  727MOL0     C98069  10.895   5.367   6.093 -0.0976  0.2439 -0.9990
  727MOL0     C98070  11.000   5.301   6.197  0.3375 -0.0203  0.1257
  727MOL0     C98071  11.148   5.363   6.169 -0.4403  0.2911 -0.9028
  727MOL0     C98072  11.199   5.347   6.028  0.6180 -0.1649  0.1010
  727MOL0     C98073  11.176   5.214   5.972 -0.2499 -0.1741  0.1577
  727MOL0     C98074  11.154   5.107   5.924  0.0107 -0.1137  0.4995
  727MOL0     C98075  10.763   5.561   6.270  0.0736  0.4096  0.0959
  727MOL0     C98076  10.670   5.656   6.323 -0.5569 -0.5012  0.1622
  727MOL0     C98077  10.579   5.613   6.429 -0.4562 -0.5547 -0.8158
  727MOL0     H98078  10.535   6.152   6.374 -1.2288  2.4323 -0.8414
  727MOL0     H98079  10.362   6.306   6.449 -1.1059  0.2394  0.3768
  727MOL0     H98080  10.038   6.151   6.716 -2.5123  0.3536  0.2208
  727MOL0     H98081  10.133   6.199   6.847  1.6766 -3.2577 -1.4955
  727MOL0     H98082   9.911   6.352   6.697 -0.3206 -0.7433 -0.4506
  727MOL0     H98083  10.053   6.447   6.752 -0.9224  0.8721  1.0362
  727MOL0     H98084  10.008   6.384   6.981 -3.1950  3.2768  1.5626
  727MOL0     H98085   9.882   6.265   6.921  0.8753 -0.6831  2.2296
  727MOL0     H98086   9.886   6.571   6.901 -1.0910  1.0544  2.2073
  727MOL0     H98087   9.758   6.460   6.840  1.5916 -1.8545 -0.6905
  727MOL0     H98088   9.768   6.372   7.075 -0.3460  0.1344  0.9841
  727MOL0     H98089   9.811   6.539   7.125  0.5340  0.6629 -0.9387
  727MOL0     H98090   9.561   6.456   6.990  1.0992 -0.6007  0.1827
  727MOL0     H98091   9.570   6.507   7.154 -4.7322 -1.9692 -3.2621
  727MOL0     H98092   9.482   6.681   6.987 -0.8559  0.5194 -1.7507
  727MOL0     H98093   9.643   6.681   6.915  0.2762 -1.5191 -0.0338
  727MOL0     H98094   9.736   6.773   7.138 -1.2521  1.0603  1.7474
  727MOL0     H98095   9.612   6.869   7.041 -3.4860  0.8999  1.0450
  727MOL0     H98096   9.345   6.894   7.158 -1.2299 -0.4197  0.8676
  727MOL0     H98097   9.163   6.816   7.347  1.0100 -1.3369  0.4125
  727MOL0     H98098   9.234   6.745   7.489  0.9463 -0.9758 -0.5682
  727MOL0     H98099   9.186   7.030   7.420 -1.2835 -2.1604 -1.4659
  727MOL0     H98100   9.120   6.930   7.542  0.6730  1.1685  2.8620
  727MOL0     H98101   9.366   6.918   7.651  0.1751  0.1489  0.4952
  727MOL0     H98102   9.270   7.052   7.680 -0.1745  1.3037  0.4174
  727MOL0     H98103   9.497   7.035   7.495  0.2076 -0.0420  1.4556
  727MOL0     H98104   9.473   7.143   7.641 -0.4709 -0.9091  0.2054
  727MOL0     H98105   9.287   7.372   7.321  0.2102 -0.9322  1.0905
  727MOL0     H98106   9.427   7.550   7.189  1.6108 -0.2691 -0.8334
  727MOL0     H98107   9.823   7.892   7.364 -1.1191  1.8724 -0.7872
  727MOL0     H98108   9.997   8.038   7.276  1.5989  0.8790 -2.9452
  727MOL0     H98109  10.292   8.061   6.921 -1.1493 -0.2096 -2.2741
  727MOL0     H98110  10.268   7.890   6.947  0.1470  0.5674  1.7471
  727MOL0     H98111  10.181   7.965   6.724  1.6190  3.4415 -1.1973
  727MOL0     H98112  10.040   7.926   6.826  1.5821 -2.0244 -1.2507
  727MOL0     H98113   9.970   8.135   6.861 -0.8922 -2.9838 -0.7549
  727MOL0     H98114  10.134   8.205   6.847 -2.8863  3.5130 -0.8268
  727MOL0     H98115   9.961   8.106   6.626 -2.4503  2.5757  1.9338
  727MOL0     H98116  10.125   8.164   6.594  0.1558  0.1839  0.0462
  727MOL0     H98117  10.002   8.328   6.521  1.2963  2.3781 -0.2592
  727MOL0     H98118  10.045   8.386   6.689 -4.3454  1.8700  1.1839
  727MOL0     H98119   9.786   8.253   6.627  1.3855 -1.4953  0.5808
  727MOL0     H98120   9.851   8.335   6.779  0.2997 -0.9000 -0.4556
  727MOL0     H98121   9.819   8.478   6.504 -0.7935  1.7719 -0.1652
  727MOL0     H98122   9.845   8.551   6.659 -0.1367 -0.6118  1.0778
  727MOL0     H98123   9.591   8.401   6.611 -2.6942  0.7234  1.0807
  727MOL0     H98124   9.650   8.480   6.763  0.2563  0.7810 -0.1864
  727MOL0     H98125  10.122   7.749   6.993  1.0309 -0.5896 -0.0051
  727MOL0     H98126   9.994   7.574   7.119  3.0849 -0.3023 -1.5345
  727MOL0     H98127   9.764   7.440   7.448 -1.3132 -2.2054  2.3731
  727MOL0     H98128   9.640   7.265   7.531 -0.6667  1.9649  1.8766
  727MOL0     H98129  10.232   6.043   6.753  1.8494  5.1593  1.8317
  727MOL0     H98130  10.355   5.857   6.634  0.3463  0.1555 -0.5735
  727MOL0     H98131  10.742   5.911   6.108  3.9824 -1.1348 -0.1769
  727MOL0     H98132  10.912   5.748   6.036 -0.0186 -1.9528 -1.0362
  727MOL0     H98133  10.922   5.328   5.995  4.5292 -1.8613  0.8469
  727MOL0     H98134  10.793   5.342   6.124 -0.0739 -1.9602 -2.4990
  727MOL0     H98135  10.998   5.192   6.187 -2.7583 -0.0862  0.4944
  727MOL0     H98136  10.970   5.327   6.299 -0.5746 -0.5229 -0.0029
  727MOL0     H98137  11.221   5.327   6.243  0.6509  1.7944 -1.1920
  727MOL0     H98138  11.142   5.470   6.192 -0.6767  0.4152 -1.5366
  727MOL0     H98139  11.149   5.418   5.962  0.5326 -1.4799 -1.3030
  727MOL0     H98140  11.306   5.368   6.025  0.2451  2.1898  0.8862
  727MOL0     H98141  11.145   5.007   5.887 -0.8262  0.3681 -0.6466
  727MOL0     H98142  10.778   5.461   6.311 -3.8305 -0.8732 -1.1815
  727MOL0     H98143  10.588   5.505   6.448  2.4804 -0.6521 -2.3215
  727MOL0     H98144  10.607   5.658   6.525  0.4274 -0.9789 -0.8647
  727MOL0     H98145  10.473   5.635   6.412 -1.9731 -2.4847  4.0941
  728MOL0     O98146   7.875  10.361   5.400 -0.5692  0.0078  0.2133
  728MOL0     C98147   7.840  10.362   5.289  0.1969 -0.1406  0.7385
  728MOL0     O98148   7.889  10.285   5.191  0.3532  0.3598 -0.2253
  728MOL0     C98149   8.005  10.217   5.211  0.1847  0.3530 -0.1681
  728MOL0     C98150   7.988  10.087   5.242  0.5448  0.2856  0.2428
  728MOL0     C98151   8.094  10.008   5.280 -0.7534  0.3985  0.6106
  728MOL0     C98152   8.226  10.060   5.288  0.3471 -0.1901 -0.0758
  728MOL0     O98153   8.322   9.963   5.320  0.0648  0.4145 -0.1796
  728MOL0     C98154   8.465   9.985   5.319 -0.1642 -0.2339 -0.6421
  728MOL0     C98155   8.520   9.851   5.275 -0.0159  0.0154  0.1554
  728MOL0     C98156   8.666   9.837   5.317  0.1532  0.3024 -0.4452
  728MOL0     C98157   8.686   9.820   5.469 -0.4583  0.7663  0.0626
  728MOL0     C98158   8.826   9.778   5.510  0.9364  0.1707  0.4579
  728MOL0     C98159   8.929   9.880   5.493 -0.4207  0.3807 -0.0459
  728MOL0     C98160   9.077   9.836   5.525  0.0370  0.4270  0.0371
  728MOL0     C98161   9.137   9.740   5.425  0.3501  0.2573 -0.2248
  728MOL0     N98162   9.264   9.687   5.470  0.0430 -0.5752 -0.5177
  728MOL0     C98163   9.384   9.725   5.422 -0.5550  0.6399  0.2216
  728MOL0     C98164   9.473   9.669   5.503 -0.9619 -0.5488 -1.1152
  728MOL0     C98165   9.616   9.696   5.497 -0.7920  0.4245  0.2855
  728MOL0     C98166   9.694   9.568   5.460  0.3305 -0.0853  0.0001
  728MOL0     C98167   9.841   9.573   5.493  0.3350  0.4314  0.0427
  728MOL0     C98168   9.920   9.463   5.426  1.2662 -0.1082  0.1889
  728MOL0     O98169   9.863   9.330   5.462 -0.3006 -0.1180  0.9279
  728MOL0     C98170   9.846   9.245   5.357 -0.1582  0.4868  0.3860
  728MOL0     C98171   9.933   9.216   5.251  0.1526  0.6520  0.2817
  728MOL0     C98172   9.906   9.129   5.149 -0.4310 -0.8786  0.5909
  728MOL0     C98173   9.791   9.053   5.155  0.1356 -0.4789 -0.3338
  728MOL0     C98174   9.766   8.963   5.045 -0.2463 -0.2106 -0.8079
  728MOL0     O98175   9.873   8.916   4.972  0.3175  0.5791 -0.7971
  728MOL0     C98176   9.848   8.829   4.869  0.1252  0.1131  0.3593
  728MOL0     C98177   9.919   8.708   4.871  0.8896 -0.2984  0.5736
  728MOL0     C98178   9.918   8.627   4.760  0.7096 -0.4009  0.2737
  728MOL0     C98179   9.837   8.645   4.656 -0.3390  0.0984  0.1902
  728MOL0     O98180   9.850   8.563   4.551  0.0512  0.1667 -0.0701
  728MOL0     C98181   9.884   8.603   4.419 -0.2315 -0.5882  0.4260
  728MOL0     C98182   9.791   8.539   4.322 -0.3882  0.5262 -1.1310
  728MOL0     C98183   9.635   8.562   4.344 -0.8109 -0.6948  0.4651
  728MOL0     C98184   9.563   8.471   4.243 -0.3169 -1.0689  0.2764
  728MOL0     C98185   9.424   8.427   4.287  0.1228  0.5046  0.4893
  728MOL0     C98186   9.320   8.542   4.288 -0.8394 -0.8132  0.6630
  728MOL0     C98187   9.299   8.597   4.143 -0.8648  0.1229  0.6137
  728MOL0     C98188   9.165   8.665   4.130  0.2517  0.7114 -0.1748
  728MOL0    Cl98189   9.163   8.813   4.237  0.2679  0.1260  0.0849
  728MOL0     C98190   9.763   8.767   4.653 -0.1578 -0.2187  0.2311
  728MOL0     C98191   9.779   8.857   4.754 -0.0204 -0.5222  1.3363
  728MOL0     O98192   9.653   8.925   5.027 -0.5398  0.2288 -0.7017
  728MOL0     C98193   9.703   9.070   5.269  0.0909  1.4692 -0.7358
  728MOL0     C98194   9.727   9.169   5.363 -0.3179 -0.3257  0.3054
  728MOL0     N98195   9.402   9.609   5.604  0.3908 -0.2956  0.2568
  728MOL0     N98196   9.277   9.619   5.585 -0.2309 -0.1822  0.5884
  728MOL0     C98197   8.248  10.194   5.243 -0.5718  0.8752 -0.3313
  728MOL0     C98198   8.133  10.272   5.204 -1.0178 -0.6242 -0.4819
  728MOL0     C98199   7.717  10.431   5.254 -0.2162 -0.5346 -0.2330
  728MOL0     C98200   7.722  10.566   5.202 -0.1892  1.0551  0.0480
  728MOL0     C98201   7.601  10.643   5.202 -0.6422 -0.7437  0.7203
  728MOL0     C98202   7.483  10.586   5.244 -0.7750 -0.4106  0.2070
  728MOL0     O98203   7.373  10.659   5.235 -0.4749 -0.9130 -0.4648
  728MOL0     C98204   7.264  10.636   5.326  0.5857 -0.1394  0.0640
  728MOL0     C98205   7.143  10.726   5.280  0.6591 -0.1505 -1.0800
  728MOL0     C98206   7.179  10.881   5.273  0.2850 -0.9006  0.9923
  728MOL0     C98207   7.077  10.954   5.188 -0.2437  0.5494  0.2033
  728MOL0     C98208   6.943  10.958   5.252 -0.9987  0.2610  0.7810
  728MOL0     C98209   6.837  10.967   5.297  1.1118 -0.9973 -0.7977
  728MOL0     C98210   7.475  10.450   5.280 -0.1755 -0.8526 -0.3637
  728MOL0     C98211   7.596  10.377   5.290  1.1385  0.4728  0.7354
  728MOL0     C98212   7.575  10.231   5.328 -0.7851  0.1292 -0.2234
  728MOL0     H98213   7.885  10.057   5.256  0.4161  0.9999  0.8837
  728MOL0     H98214   8.104   9.903   5.308  2.3804  0.4587 -0.0104
  728MOL0     H98215   8.485  10.070   5.252 -2.2136 -0.2786 -1.3833
  728MOL0     H98216   8.499  10.010   5.420  0.7638  2.6312 -1.5483
  728MOL0     H98217   8.512   9.840   5.167 -0.3709  0.2798  0.1502
  728MOL0     H98218   8.468   9.770   5.326 -0.6880  0.6290  0.4719
  728MOL0     H98219   8.713   9.927   5.277  0.1549 -0.0395 -1.2258
  728MOL0     H98220   8.712   9.751   5.267  0.8614 -0.2123  1.0180
  728MOL0     H98221   8.649   9.910   5.518 -0.0532  1.5023 -0.9526
  728MOL0     H98222   8.627   9.735   5.505 -2.7421  1.8405 -0.9385
  728MOL0     H98223   8.821   9.739   5.611 -2.2722  1.5317  0.9558
  728MOL0     H98224   8.844   9.694   5.443 -2.6048 -0.7904  0.5249
  728MOL0     H98225   8.919   9.915   5.390  1.2509  3.3832  0.6853
  728MOL0     H98226   8.911   9.965   5.559 -1.1046 -1.3775  2.1497
  728MOL0     H98227   9.091   9.792   5.624 -1.2935 -0.4416 -0.1282
  728MOL0     H98228   9.137   9.927   5.525  2.8310 -1.3036  0.5480
  728MOL0     H98229   9.073   9.652   5.412  0.5275  0.1093 -0.1010
  728MOL0     H98230   9.142   9.788   5.326  2.8812 -1.8212 -1.2104
  728MOL0     H98231   9.411   9.789   5.338 -3.2186  1.3627 -0.1747
  728MOL0     H98232   9.633   9.775   5.424 -0.5868  0.1992  0.0891
  728MOL0     H98233   9.647   9.732   5.595 -2.7053  2.1985  0.3085
  728MOL0     H98234   9.631   9.489   5.502 -2.0488  1.0977 -1.1723
  728MOL0     H98235   9.688   9.560   5.351 -0.4899  1.7896 -0.1311
  728MOL0     H98236   9.849   9.559   5.601  2.3927 -1.2680 -0.2561
  728MOL0     H98237   9.887   9.669   5.468  0.2203 -0.1087 -2.5103
  728MOL0     H98238  10.022   9.464   5.464  0.5143  0.6832  2.3354
  728MOL0     H98239   9.919   9.484   5.318 -3.3654 -2.9876 -0.6353
  728MOL0     H98240  10.015   9.277   5.213  0.0155 -1.4639 -3.9751
  728MOL0     H98241   9.966   9.127   5.059 -2.1165 -0.8530 -0.5734
  728MOL0     H98242   9.990   8.699   4.952 -1.2550 -1.5939  2.4418
  728MOL0     H98243   9.983   8.539   4.759 -1.8798 -2.4950  1.5335
  728MOL0     H98244   9.885   8.710   4.395 -2.6189 -1.2524 -3.6182
  728MOL0     H98245   9.984   8.563   4.399 -0.2521 -0.4841  0.1140
  728MOL0     H98246   9.824   8.575   4.224  1.0402 -0.3979 -1.0198
  728MOL0     H98247   9.815   8.433   4.327 -1.4616  0.2864 -0.8283
  728MOL0     H98248   9.608   8.542   4.447 -1.3204  3.0442  1.2168
  728MOL0     H98249   9.616   8.666   4.317  3.1161 -0.1261 -0.8396
  728MOL0     H98250   9.630   8.386   4.227  1.6951  0.2321  1.3211
  728MOL0     H98251   9.549   8.527   4.150 -1.7273 -2.6618 -0.5231
  728MOL0     H98252   9.428   8.367   4.378 -3.0811 -1.8135 -0.7068
  728MOL0     H98253   9.385   8.343   4.228 -0.3730  0.8301  0.3399
  728MOL0     H98254   9.226   8.517   4.338 -1.4837  0.8121  0.3545
  728MOL0     H98255   9.351   8.628   4.348  0.4401 -0.2165 -0.7812
  728MOL0     H98256   9.301   8.515   4.072 -1.5638  0.1608  0.5372
  728MOL0     H98257   9.381   8.661   4.108 -1.8999  0.3898 -1.4641
  728MOL0     H98258   9.158   8.686   4.023  1.6181 -1.8860 -0.8609
  728MOL0     H98259   9.084   8.596   4.154  1.4194 -1.6793 -2.5236
  728MOL0     H98260   9.707   8.806   4.569  3.0609  2.7436 -0.7798
  728MOL0     H98261   9.734   8.955   4.758  1.4836  0.4638 -1.9522
  728MOL0     H98262   9.619   9.006   5.292 -1.6972  2.1443 -4.5535
  728MOL0     H98263   9.671   9.169   5.455 -0.0269 -0.8029  0.4891
  728MOL0     H98264   8.349  10.234   5.251  0.2518 -0.9555 -1.0617
  728MOL0     H98265   8.141  10.378   5.185 -1.2561 -0.7149 -1.0928
  728MOL0     H98266   7.821  10.608   5.187  1.6034 -2.0603  2.1463
  728MOL0     H98267   7.609  10.746   5.171 -0.2660 -0.2966  2.2115
  728MOL0     H98268   7.296  10.663   5.427  0.3714 -1.4015  0.4892
  728MOL0     H98269   7.221  10.535   5.322  0.3009  0.0318 -2.5877
  728MOL0     H98270   7.043  10.716   5.324 -0.2595  0.9745 -2.8163
  728MOL0     H98271   7.127  10.704   5.174  0.7400  0.1429 -1.1529
  728MOL0     H98272   7.277  10.891   5.225 -0.3683 -1.7147 -0.5942
  728MOL0     H98273   7.196  10.934   5.367  0.9251 -2.0900  1.5793
  728MOL0     H98274   7.118  11.053   5.167 -1.0246  0.7000 -0.6625
  728MOL0     H98275   7.069  10.897   5.095 -1.8627  0.5919  0.3041
  728MOL0     H98276   6.754  10.984   5.363  1.3550  1.3617 -1.0011
  728MOL0     H98277   7.378  10.407   5.302 -1.5825  2.5586  0.8196
  728MOL0     H98278   7.525  10.232   5.426 -0.1844 -2.0305  0.1577
  728MOL0     H98279   7.505  10.185   5.257 -1.0382 -0.1470  0.2009
  728MOL0     H98280   7.672  10.180   5.332 -1.0037 -0.2690  0.1331
  729MOL0     O98281   1.867  10.748   4.219 -0.1969  0.9858 -0.1958
  729MOL0     C98282   1.761  10.752   4.153  0.1120  0.4355  0.3422
  729MOL0     O98283   1.648  10.683   4.196 -0.3510  0.7467  0.4816
  729MOL0     C98284   1.669  10.597   4.302 -0.4737 -0.0399 -0.4688
  729MOL0     C98285   1.635  10.647   4.434  0.0606  0.4853 -0.0151
  729MOL0     C98286   1.650  10.571   4.548  0.5861 -0.4376  0.8535
  729MOL0     C98287   1.710  10.452   4.536 -0.9705 -0.2112  0.6179
  729MOL0     O98288   1.709  10.354   4.636  0.0440  0.2409 -0.3816
  729MOL0     C98289   1.745  10.411   4.765  0.1120 -0.1862  0.6782
  729MOL0     C98290   1.821  10.315   4.852 -0.0106  0.3313 -0.9267
  729MOL0     C98291   1.958  10.278   4.805 -0.2916 -0.8811  0.5715
  729MOL0     C98292   2.049  10.180   4.887 -0.4386 -0.0724 -0.1672
  729MOL0     C98293   2.165  10.134   4.811  0.0493  0.1563 -0.0849
  729MOL0     C98294   2.245  10.241   4.736 -0.3256  0.8839  0.7244
  729MOL0     C98295   2.342  10.313   4.834 -0.8667 -0.2752 -0.0414
  729MOL0     C98296   2.437  10.413   4.768 -0.6874 -0.4911  0.4005
  729MOL0     N98297   2.537  10.349   4.676  0.4093  0.6086 -0.0800
  729MOL0     C98298   2.507  10.289   4.556 -0.3997 -0.3998 -0.7302
  729MOL0     C98299   2.626  10.220   4.528 -0.2528 -0.3180  0.5314
  729MOL0     C98300   2.645  10.111   4.422  0.0172 -0.2522  0.0221
  729MOL0     C98301   2.566   9.996   4.476 -0.1299  1.6952  0.3587
  729MOL0     C98302   2.533   9.888   4.366  0.6501  0.1884 -0.5639
  729MOL0     C98303   2.418   9.931   4.270  1.0084  0.3064  0.8105
  729MOL0     O98304   2.454  10.031   4.175 -0.2035  0.4624 -0.4114
  729MOL0     C98305   2.542   9.999   4.067  0.3464  0.4244  0.0798
  729MOL0     C98306   2.569  10.112   3.986  0.1081  0.5674  0.1988
  729MOL0     C98307   2.643  10.101   3.870 -0.2075 -0.3773  0.9607
  729MOL0     C98308   2.698   9.981   3.826  0.1726 -0.1424 -1.3222
  729MOL0     C98309   2.777   9.967   3.704 -1.3297 -0.7216 -0.1336
  729MOL0     O98310   2.824   9.844   3.663 -0.6043 -0.3036 -0.6428
  729MOL0     C98311   2.851   9.830   3.527  0.4196 -0.3825 -0.1637
  729MOL0     C98312   2.760   9.768   3.444 -0.6544 -0.8418  0.2749
  729MOL0     C98313   2.796   9.753   3.305  0.4586 -0.7458 -0.6930
  729MOL0     C98314   2.922   9.792   3.253  0.3978  0.5798 -0.4393
  729MOL0     O98315   2.951   9.777   3.120  0.1410 -0.0210  0.2766
  729MOL0     C98316   3.070   9.702   3.094  0.6975  0.1858 -0.1828
  729MOL0     C98317   3.068   9.648   2.950  0.1482 -0.2934 -0.3136
  729MOL0     C98318   3.183   9.545   2.935  0.0143 -0.5198 -1.0576
  729MOL0     C98319   3.165   9.471   2.808 -0.2944 -0.8477 -0.4527
  729MOL0     C98320   3.292   9.409   2.754 -0.5017  0.1121  0.6551
  729MOL0     C98321   3.338   9.293   2.845 -0.5891 -0.4653  1.2008
  729MOL0     C98322   3.469   9.220   2.789  0.2770 -0.6359  0.5508
  729MOL0     C98323   3.606   9.265   2.836 -0.3742  0.7337 -0.0698
  729MOL0    Cl98324   3.648   9.406   2.737 -0.1427 -0.1558 -0.1862
  729MOL0     C98325   3.008   9.857   3.347  0.3817  0.0530  0.4236
  729MOL0     C98326   2.978   9.869   3.482  0.4830  0.6057 -0.9047
  729MOL0     O98327   2.772  10.064   3.635 -0.2270 -0.0794  0.0333
  729MOL0     C98328   2.667   9.870   3.906 -0.1189 -0.3905 -0.4950
  729MOL0     C98329   2.584   9.877   4.018  0.5931 -0.7223  0.0235
  729MOL0     N98330   2.721  10.243   4.626 -0.2420  0.6289 -0.5882
  729MOL0     N98331   2.662  10.312   4.714  0.0415 -0.6274 -0.1806
  729MOL0     C98332   1.739  10.400   4.408  0.6222 -0.0851  0.1209
  729MOL0     C98333   1.719  10.468   4.285  0.0854 -0.5760 -0.5864
  729MOL0     C98334   1.750  10.832   4.030 -0.6108  0.1587  0.3746
  729MOL0     C98335   1.857  10.914   3.990  0.0791  0.3704  0.1514
  729MOL0     C98336   1.861  10.984   3.876  0.5076  0.1067  0.2490
  729MOL0     C98337   1.750  10.982   3.792 -0.8359 -0.4872  0.3904
  729MOL0     O98338   1.752  11.052   3.673  0.1662  0.7602  0.3157
  729MOL0     C98339   1.848  11.013   3.568  0.9170  0.1559 -0.0423
  729MOL0     C98340   1.791  11.056   3.428  0.0505  0.7029  0.8467
  729MOL0     C98341   1.787  11.212   3.429  0.3729 -0.5085  0.0135
  729MOL0     C98342   1.771  11.270   3.286 -0.1926  0.3082  0.3293
  729MOL0     C98343   1.651  11.241   3.210 -0.9182 -0.1140 -0.1378
  729MOL0     C98344   1.551  11.236   3.144  0.2992 -0.4412  0.0085
  729MOL0     C98345   1.636  10.906   3.823 -0.6026 -0.4926  0.5121
  729MOL0     C98346   1.635  10.822   3.936 -0.3955  0.0289 -0.2502
  729MOL0     C98347   1.500  10.753   3.961 -0.3606  0.3000 -0.2882
  729MOL0     H98348   1.598  10.749   4.442  0.4353  0.4828  3.1586
  729MOL0     H98349   1.615  10.614   4.641  0.5683  0.5614  0.4004
  729MOL0     H98350   1.801  10.505   4.754 -0.1198  0.1875  2.4181
  729MOL0     H98351   1.653  10.437   4.817  0.4428  3.7234 -0.3622
  729MOL0     H98352   1.757  10.227   4.858  1.6942 -0.9338 -0.6265
  729MOL0     H98353   1.824  10.357   4.953 -0.3931  3.3200 -2.0503
  729MOL0     H98354   2.007  10.376   4.811 -2.4737  0.2660  0.7565
  729MOL0     H98355   1.950  10.236   4.705  3.2754 -2.9113  0.9781
  729MOL0     H98356   2.085  10.219   4.983 -1.9032  1.3438 -0.1339
  729MOL0     H98357   1.978  10.098   4.903  1.9695 -2.8178 -2.3925
  729MOL0     H98358   2.233  10.065   4.861 -1.3626 -0.2123  1.4239
  729MOL0     H98359   2.119  10.069   4.735 -0.6366 -2.8398  2.6792
  729MOL0     H98360   2.284  10.191   4.648  3.4799  3.6263  0.6068
  729MOL0     H98361   2.183  10.318   4.688  0.9359  1.2207 -0.3858
  729MOL0     H98362   2.403  10.240   4.888  0.0854 -0.6795 -1.6206
  729MOL0     H98363   2.276  10.376   4.895 -3.8215 -2.7726 -0.4570
  729MOL0     H98364   2.385  10.495   4.717  2.6073  2.4812  1.3878
  729MOL0     H98365   2.504  10.459   4.840 -0.5297 -2.7748  1.7880
  729MOL0     H98366   2.418  10.278   4.496  1.4256  0.6668 -3.8559
  729MOL0     H98367   2.599  10.136   4.326  1.0862 -3.6332 -1.5542
  729MOL0     H98368   2.752  10.090   4.410 -0.2028 -1.3189 -0.1598
  729MOL0     H98369   2.626   9.949   4.555  2.8147 -1.2193 -3.2419
  729MOL0     H98370   2.467  10.029   4.507 -0.5119  1.0036 -0.1024
  729MOL0     H98371   2.492   9.798   4.414  0.6927  0.3345 -0.2513
  729MOL0     H98372   2.621   9.851   4.313 -0.5827 -2.1072 -1.1469
  729MOL0     H98373   2.333   9.973   4.324 -0.1297  2.0209 -2.0479
  729MOL0     H98374   2.389   9.833   4.229 -0.7940  0.9354  0.5007
  729MOL0     H98375   2.511  10.198   4.017 -1.1060 -0.4951  1.0172
  729MOL0     H98376   2.666  10.195   3.820  1.6301 -1.3133 -0.0837
  729MOL0     H98377   2.660   9.742   3.478  0.2346 -1.0161  3.0203
  729MOL0     H98378   2.720   9.701   3.248 -0.2486 -2.1408  1.4105
  729MOL0     H98379   3.150   9.777   3.099 -0.3883  1.4195 -0.7525
  729MOL0     H98380   3.082   9.621   3.166 -1.7694  0.6114  0.8100
  729MOL0     H98381   2.967   9.608   2.936  0.2755 -0.0049 -2.3460
  729MOL0     H98382   3.089   9.723   2.873  4.2673 -0.9882 -0.1227
  729MOL0     H98383   3.273   9.608   2.930  0.0483 -0.5169 -0.3907
  729MOL0     H98384   3.185   9.485   3.026  0.4383  1.1507  0.0908
  729MOL0     H98385   3.124   9.537   2.731  0.3122  2.5450  1.9186
  729MOL0     H98386   3.088   9.394   2.811 -3.3026  1.9648  0.1956
  729MOL0     H98387   3.370   9.483   2.732  1.9035 -2.4100  0.0464
  729MOL0     H98388   3.266   9.364   2.658  0.3116  0.9422  0.0329
  729MOL0     H98389   3.350   9.332   2.946 -3.2479  2.7967  0.4449
  729MOL0     H98390   3.248   9.230   2.850 -1.9057  1.3060  0.6474
  729MOL0     H98391   3.466   9.227   2.680  0.0359  0.4011  0.6121
  729MOL0     H98392   3.451   9.114   2.807 -0.6423 -0.7438 -0.8497
  729MOL0     H98393   3.604   9.298   2.940 -0.0251 -0.0613  0.1923
  729MOL0     H98394   3.672   9.184   2.805 -4.1362 -2.3733 -0.7529
  729MOL0     H98395   3.114   9.859   3.322  0.3277 -0.1750  0.1677
  729MOL0     H98396   3.060   9.893   3.549  0.4924  1.2009 -1.1205
  729MOL0     H98397   2.697   9.770   3.877  2.5962 -0.3159  1.6585
  729MOL0     H98398   2.553   9.787   4.070  1.4997 -0.6645  0.6722
  729MOL0     H98399   1.763  10.294   4.407  0.3229 -0.2017  1.8321
  729MOL0     H98400   1.751  10.430   4.188  0.5882 -2.1687  0.1654
  729MOL0     H98401   1.944  10.933   4.052 -0.7030  1.7497  0.8774
  729MOL0     H98402   1.944  11.046   3.844  1.3113 -1.9382 -1.9043
  729MOL0     H98403   1.868  10.906   3.561 -0.0264  0.0305 -1.0218
  729MOL0     H98404   1.947  11.058   3.582  0.5566  1.4594 -1.4078
  729MOL0     H98405   1.695  11.005   3.416  1.2645 -1.6492  0.5796
  729MOL0     H98406   1.844  11.020   3.339 -1.2318  3.1375 -1.0244
  729MOL0     H98407   1.868  11.268   3.475 -0.5856  1.2829 -0.3682
  729MOL0     H98408   1.700  11.239   3.490  0.7288  0.6449  0.0292
  729MOL0     H98409   1.770  11.379   3.297  0.8857  0.1727  2.0981
  729MOL0     H98410   1.861  11.252   3.226 -1.2418  1.6970 -1.7751
  729MOL0     H98411   1.460  11.241   3.088  0.3356  1.6733  0.0649
  729MOL0     H98412   1.543  10.915   3.768 -0.9954  2.7076  1.5035
  729MOL0     H98413   1.433  10.784   3.881 -1.0966 -1.6538 -0.4892
  729MOL0     H98414   1.514  10.644   3.965  2.8462  0.5398 -1.9076
  729MOL0     H98415   1.446  10.791   4.048 -1.3725 -4.0656  1.2597
  730MOL0     O98416   2.596   7.191  11.252 -0.4383  0.1528 -0.5361
  730MOL0     C98417   2.509   7.164  11.177  1.4977  0.6607 -0.2380
  730MOL0     O98418   2.523   7.144  11.039  0.3408 -0.1410 -0.4427
  730MOL0     C98419   2.645   7.114  10.999 -0.0410 -0.5104  0.4221
  730MOL0     C98420   2.769   7.179  11.014  0.1908 -0.2189 -0.3938
  730MOL0     C98421   2.884   7.122  10.958  0.5441 -0.9631 -0.2040
  730MOL0     C98422   2.874   7.007  10.876  0.6687  0.1867  0.2325
  730MOL0     O98423   2.999   6.976  10.824 -0.2492  0.5180 -0.4091
  730MOL0     C98424   3.010   6.840  10.778 -0.5694  0.2247  0.3649
  730MOL0     C98425   3.149   6.838  10.704  0.4497  0.6385 -1.1287
  730MOL0     C98426   3.164   6.706  10.626  0.1504 -0.0243 -0.0225
  730MOL0     C98427   3.152   6.583  10.716  0.1016 -0.3512  0.3921
  730MOL0     C98428   3.167   6.457  10.620 -0.8129 -0.4391  0.1775
  730MOL0     C98429   3.172   6.330  10.712  0.6325  0.1055  0.9653
  730MOL0     C98430   3.210   6.206  10.634 -0.4298  0.1155  0.6736
  730MOL0     C98431   3.237   6.082  10.731 -0.4609  0.5176 -0.3577
  730MOL0     N98432   3.339   6.108  10.834  0.5288  0.0852  0.6384
  730MOL0     C98433   3.449   6.032  10.837 -0.2409  0.4656 -0.3392
  730MOL0     C98434   3.489   6.042  10.969  0.7355  0.5496 -0.2221
  730MOL0     C98435   3.595   5.962  11.028  0.4015  0.5837 -0.4463
  730MOL0     C98436   3.654   6.034  11.150 -0.3435  0.4630 -1.1532
  730MOL0     C98437   3.769   5.970  11.212 -0.4816 -0.4796  0.5059
  730MOL0     C98438   3.883   5.952  11.115  0.1818 -0.1598  0.0307
  730MOL0     O98439   3.983   5.872  11.185 -0.2279 -0.3569  0.4588
  730MOL0     C98440   4.040   5.774  11.122  0.0900 -0.5667  0.7106
  730MOL0     C98441   3.984   5.650  11.145 -0.9229  0.6011  0.2180
  730MOL0     C98442   4.036   5.541  11.069 -1.0427 -0.2655  0.2891
  730MOL0     C98443   4.133   5.560  10.965  0.1447 -0.2417  0.1153
  730MOL0     C98444   4.175   5.455  10.873  0.4850  0.4907 -0.5687
  730MOL0     O98445   4.149   5.328  10.912 -0.5380  0.1255 -0.2901
  730MOL0     C98446   4.191   5.220  10.830 -0.3882 -0.2953 -0.0351
  730MOL0     C98447   4.283   5.129  10.886  0.5327 -0.9110 -0.4023
  730MOL0     C98448   4.325   5.015  10.818 -0.5396  0.0528 -0.2352
  730MOL0     C98449   4.275   4.994  10.680  0.4719  0.6771 -0.8910
  730MOL0     O98450   4.303   4.876  10.612 -0.1012 -0.5338  0.3199
  730MOL0     C98451   4.393   4.779  10.663  0.4593 -0.0422  0.3343
  730MOL0     C98452   4.423   4.668  10.566  0.4319 -0.3213 -0.2550
  730MOL0     C98453   4.301   4.594  10.522  0.0366  0.0241 -0.4265
  730MOL0     C98454   4.242   4.494  10.622 -0.4001  0.0273 -0.5171
  730MOL0     C98455   4.089   4.470  10.584 -0.5901 -0.1665  0.1870
  730MOL0     C98456   4.063   4.420  10.440 -0.2287  0.3734  0.3235
  730MOL0     C98457   3.921   4.394  10.437 -0.8057  0.6968  0.4827
  730MOL0     C98458   3.878   4.333  10.298 -0.6464 -0.8541 -0.2767
  730MOL0    Cl98459   3.684   4.329  10.291  0.3466  0.4772  0.1675
  730MOL0     C98460   4.183   5.091  10.625 -0.2767  0.2020 -1.0262
  730MOL0     C98461   4.150   5.208  10.699  0.7769  0.2670 -0.3330
  730MOL0     O98462   4.228   5.487  10.761 -0.8005  0.1368  0.3839
  730MOL0     C98463   4.184   5.691  10.945  0.8769  0.7659  0.1971
  730MOL0     C98464   4.133   5.802  11.023 -0.1723 -0.2917  0.3323
  730MOL0     N98465   3.399   6.129  11.042  0.7221 -0.0919 -0.0232
  730MOL0     N98466   3.311   6.165  10.946  0.4179 -0.4098 -0.6063
  730MOL0     C98467   2.750   6.948  10.866  0.4255  1.3609  0.1685
  730MOL0     C98468   2.635   7.005  10.925 -0.6248 -0.1168  0.2261
  730MOL0     C98469   2.369   7.131  11.231 -0.2377 -0.5684 -0.1860
  730MOL0     C98470   2.282   7.058  11.150 -0.2046  0.6915  0.8381
  730MOL0     C98471   2.153   7.029  11.187  0.6057 -0.1099 -0.0982
  730MOL0     C98472   2.090   7.083  11.305  0.1034 -0.9613 -0.1511
  730MOL0     O98473   1.961   7.060  11.343  0.4887  0.0054 -0.4225
  730MOL0     C98474   1.883   6.988  11.252  0.0127 -0.0069 -0.1955
  730MOL0     C98475   1.738   7.017  11.290 -0.7537 -0.2598  0.0524
  730MOL0     C98476   1.705   6.942  11.422  0.2153  0.4347  0.5615
  730MOL0     C98477   1.600   6.840  11.410  0.1676 -0.3302  0.4282
  730MOL0     C98478   1.659   6.712  11.391 -0.0864 -0.4823  0.4823
  730MOL0     C98479   1.723   6.606  11.380 -0.4253 -0.0698 -0.9358
  730MOL0     C98480   2.183   7.141  11.392  0.4093 -1.1374  0.4332
  730MOL0     C98481   2.318   7.165  11.346 -0.4384  0.0420 -0.9858
  730MOL0     C98482   2.397   7.243  11.456 -0.4814  0.4989  0.6497
  730MOL0     H98483   2.778   7.269  11.073  0.8824 -0.2402 -0.4660
  730MOL0     H98484   2.977   7.177  10.967 -1.3570  2.4215  0.6476
  730MOL0     H98485   3.004   6.777  10.867  1.0123  1.4076  1.3530
  730MOL0     H98486   2.928   6.824  10.707 -1.1284  0.7418  0.8833
  730MOL0     H98487   3.227   6.863  10.776 -1.2989  1.7676  0.4831
  730MOL0     H98488   3.160   6.927  10.642  2.1778  0.3860 -1.2161
  730MOL0     H98489   3.258   6.716  10.571 -1.2543  0.2910 -2.5149
  730MOL0     H98490   3.081   6.698  10.555 -2.3831  0.4403  2.6855
  730MOL0     H98491   3.222   6.590  10.800  1.1859  3.4577 -0.6550
  730MOL0     H98492   3.052   6.582  10.759 -0.6700  0.3169 -1.3077
  730MOL0     H98493   3.081   6.451  10.552 -2.1084  0.7656  1.6105
  730MOL0     H98494   3.260   6.471  10.565 -0.5477 -0.4639  0.6116
  730MOL0     H98495   3.245   6.352  10.790  1.2735 -1.0729  0.7221
  730MOL0     H98496   3.076   6.311  10.763 -1.4443 -1.6243 -3.1130
  730MOL0     H98497   3.308   6.226  10.588 -0.7539  1.2999  0.4636
  730MOL0     H98498   3.138   6.180  10.556 -0.5534  0.5668  0.6349
  730MOL0     H98499   3.158   6.040  10.793  1.1597  1.9206  2.8705
  730MOL0     H98500   3.260   5.994  10.671  0.5694 -0.0661  0.8631
  730MOL0     H98501   3.497   5.975  10.758 -0.2189 -3.0478  1.9753
  730MOL0     H98502   3.549   5.866  11.053 -1.2955  0.6687 -2.8643
  730MOL0     H98503   3.679   5.956  10.958  2.8684  1.0047  2.2847
  730MOL0     H98504   3.682   6.133  11.111  1.3008 -0.0264 -1.2906
  730MOL0     H98505   3.572   6.035  11.223 -1.6861 -0.8583 -2.5677
  730MOL0     H98506   3.751   5.873  11.259  1.1732  0.5106  3.4587
  730MOL0     H98507   3.812   6.018  11.300  1.0407 -1.0303  0.0874
  730MOL0     H98508   3.926   6.048  11.085 -1.1245 -0.5561 -3.5847
  730MOL0     H98509   3.855   5.900  11.023  1.6149 -1.1048  0.1070
  730MOL0     H98510   3.914   5.636  11.227 -1.3293 -0.7206 -0.3248
  730MOL0     H98511   3.987   5.444  11.075  0.4230 -1.0938 -0.4629
  730MOL0     H98512   4.316   5.141  10.989 -0.5400 -0.2040 -0.1212
  730MOL0     H98513   4.387   4.937  10.860  0.8107 -0.0545 -2.2866
  730MOL0     H98514   4.488   4.820  10.699  0.5820 -1.5695  1.8620
  730MOL0     H98515   4.341   4.729  10.745  0.1534  0.6888  0.5866
  730MOL0     H98516   4.467   4.718  10.479  1.6131 -1.8243 -0.5635
  730MOL0     H98517   4.499   4.603  10.610  1.4089  0.8096 -0.2257
  730MOL0     H98518   4.223   4.668  10.499  0.0243  0.6276  1.4199
  730MOL0     H98519   4.330   4.541  10.430 -0.3895 -0.0394 -0.5261
  730MOL0     H98520   4.241   4.536  10.723 -1.0560 -1.8082  0.2905
  730MOL0     H98521   4.291   4.396  10.625 -1.4711 -0.5033  1.2935
  730MOL0     H98522   4.030   4.562  10.590  0.0102  0.1465  1.5664
  730MOL0     H98523   4.051   4.397  10.657 -0.8730 -0.6297 -0.4172
  730MOL0     H98524   4.101   4.494  10.369  3.4148 -2.2118 -0.6962
  730MOL0     H98525   4.118   4.329  10.415 -0.0952  0.9118 -1.4644
  730MOL0     H98526   3.856   4.482  10.439  0.6681  1.8211  2.3907
  730MOL0     H98527   3.875   4.338  10.520 -3.3114  1.2773 -0.4203
  730MOL0     H98528   3.914   4.396  10.217  1.0333  0.2252  1.2326
  730MOL0     H98529   3.912   4.229  10.299  0.3466 -0.5452 -1.2843
  730MOL0     H98530   4.148   5.068  10.525 -1.4543 -0.5196 -0.4609
  730MOL0     H98531   4.084   5.279  10.649  0.6685 -0.6830 -1.5858
  730MOL0     H98532   4.256   5.710  10.866 -0.7741  2.8132 -0.9033
  730MOL0     H98533   4.173   5.899  10.996 -1.4131  0.2003  0.2153
  730MOL0     H98534   2.741   6.859  10.804 -0.4392  3.8323 -3.6184
  730MOL0     H98535   2.534   6.970  10.909 -0.6995 -1.9350  3.7320
  730MOL0     H98536   2.320   7.039  11.050 -1.5971  4.1407 -0.5150
  730MOL0     H98537   2.098   6.981  11.106  2.0350 -0.9181 -0.6216
  730MOL0     H98538   1.889   6.879  11.262  1.3564 -0.2330 -2.7232
  730MOL0     H98539   1.904   7.013  11.148  0.1450 -4.3200 -1.4053
  730MOL0     H98540   1.673   6.968  11.217 -0.4618 -1.2672  0.4576
  730MOL0     H98541   1.722   7.125  11.290 -1.5434 -0.2882 -2.9262
  730MOL0     H98542   1.674   7.013  11.500 -0.6532 -1.0134  1.5961
  730MOL0     H98543   1.797   6.903  11.465  0.5680  0.6904  0.0445
  730MOL0     H98544   1.547   6.847  11.506 -1.5402  1.4188 -0.5665
  730MOL0     H98545   1.520   6.858  11.338 -0.8671 -0.1389  1.5880
  730MOL0     H98546   1.786   6.523  11.355  1.8865  0.4421  2.4805
  730MOL0     H98547   2.140   7.186  11.481 -1.4364 -0.6160 -0.6573
  730MOL0     H98548   2.451   7.322  11.402  0.4588 -1.2091 -1.0347
  730MOL0     H98549   2.338   7.261  11.546 -0.8159 -1.3219  0.8275
  730MOL0     H98550   2.473   7.173  11.493 -0.6207 -0.6496 -1.0890
  731MOL0     O98551   9.910  10.067  10.458  0.3378 -0.4386 -0.4252
  731MOL0     C98552   9.951  10.023  10.356  0.5630  0.7669 -0.3271
  731MOL0     O98553  10.081   9.986  10.335  0.2244 -0.4804  0.0185
  731MOL0     C98554  10.169   9.958  10.436  0.1846 -0.2899  0.2849
  731MOL0     C98555  10.298  10.009  10.424 -0.2000  0.1962  0.0974
  731MOL0     C98556  10.395   9.970  10.509  0.1512  0.0401  0.0261
  731MOL0     C98557  10.364   9.860  10.603 -0.5355  0.1546 -0.1710
  731MOL0     O98558  10.453   9.793  10.683 -0.1557 -0.1049  0.8146
  731MOL0     C98559  10.593   9.795  10.641 -0.6955 -0.0120 -0.5375
  731MOL0     C98560  10.673   9.929  10.677  0.4471  0.7358 -0.4505
  731MOL0     C98561  10.795   9.956  10.588  0.0013 -0.5391 -0.4074
  731MOL0     C98562  10.889   9.840  10.577  0.0956 -0.5810  0.0353
  731MOL0     C98563  11.022   9.886  10.511  0.3348  0.0096 -0.1233
  731MOL0     C98564  11.130   9.796  10.567  1.0625 -0.9563  0.9412
  731MOL0     C98565  11.258   9.847  10.516 -0.0193 -0.1420  1.2075
  731MOL0     C98566  11.378   9.763  10.573 -0.0270  0.2801  0.4393
  731MOL0     N98567  11.496   9.813  10.499 -1.2593  0.8516 -0.4407
  731MOL0     C98568  11.523   9.797  10.366  0.2895 -0.0232  0.7226
  731MOL0     C98569  11.652   9.832  10.349  0.7089 -0.3627  0.0766
  731MOL0     C98570  11.747   9.829  10.227 -0.3981 -0.2062 -0.2150
  731MOL0     C98571  11.896   9.820  10.274 -0.2508  0.6111 -0.4248
  731MOL0     C98572  11.998   9.800  10.160 -0.0037  1.0428 -0.6464
  731MOL0     C98573  12.039   9.923  10.086  0.0189  0.5509  0.1523
  731MOL0     O98574  12.073  10.026  10.179  0.2997 -0.4713 -0.5591
  731MOL0     C98575  12.200  10.076  10.184  0.8559  0.1996 -0.9644
  731MOL0     C98576  12.307  10.019  10.113  0.1667  0.1604 -0.0802
  731MOL0     C98577  12.433  10.068  10.121  0.0274  0.0669 -0.7927
  731MOL0     C98578  12.466  10.178  10.205 -0.4838 -0.1623  0.0348
  731MOL0     C98579  12.605  10.231  10.219  0.0441 -0.4989 -0.1321
  731MOL0     O98580  12.626  10.354  10.278  0.4105  0.3076 -0.3629
  731MOL0     C98581  12.740  10.422  10.270  0.5772 -0.4794 -0.3686
  731MOL0     C98582  12.728  10.559  10.245 -0.6981  0.2852  1.0765
  731MOL0     C98583  12.842  10.640  10.239 -0.4269 -0.1073 -0.4642
  731MOL0     C98584  12.976  10.589  10.270  0.4653  0.6872  0.1883
  731MOL0     O98585  13.086  10.666  10.282  0.3774 -0.1747  0.1811
  731MOL0     C98586  13.191  10.648  10.178 -0.9607  0.5546  0.0520
  731MOL0     C98587  13.310  10.564  10.214  0.1239  0.6867  0.0954
  731MOL0     C98588  13.400  10.624  10.329 -0.7674 -0.1281 -0.1849
  731MOL0     C98589  13.534  10.557  10.316 -1.0065 -0.2740  1.0326
  731MOL0     C98590  13.654  10.635  10.391  0.8480  0.0712  0.1098
  731MOL0     C98591  13.632  10.616  10.537  0.8276  0.0348 -0.5686
  731MOL0     C98592  13.757  10.641  10.625 -0.4295  0.8181  0.9044
  731MOL0     C98593  13.737  10.713  10.753  0.4282 -0.2211  0.0033
  731MOL0    Cl98594  13.729  10.593  10.892 -0.4687  0.0489 -0.1159
  731MOL0     C98595  12.983  10.443  10.301  0.1927  0.3258  0.6736
  731MOL0     C98596  12.868  10.362  10.299 -0.3454 -1.2601  0.1817
  731MOL0     O98597  12.696  10.159  10.181  0.3291  0.0297 -0.1293
  731MOL0     C98598  12.357  10.240  10.264 -0.4450 -0.2821 -0.3902
  731MOL0     C98599  12.225  10.191  10.255  0.7392  0.2980  0.1196
  731MOL0     N98600  11.704   9.877  10.469  0.2031 -0.5700 -0.6683
  731MOL0     N98601  11.611   9.852  10.567  0.1684  0.6994  1.1632
  731MOL0     C98602  10.233   9.810  10.616 -1.0735 -0.5472 -0.5130
  731MOL0     C98603  10.131   9.864  10.533  0.3957 -0.4002 -0.6549
  731MOL0     C98604   9.858  10.022  10.242  0.5303 -0.0260 -1.3863
  731MOL0     C98605   9.915   9.986  10.115 -0.3318 -0.1854 -0.6640
  731MOL0     C98606   9.835   9.968  10.005  0.8913 -0.3456  0.5854
  731MOL0     C98607   9.698   9.986  10.008  0.8260 -0.3811 -0.3668
  731MOL0     O98608   9.620   9.971   9.889  0.0795 -0.7346  0.2931
  731MOL0     C98609   9.679   9.909   9.774 -0.2143  0.5980 -0.3382
  731MOL0     C98610   9.566   9.864   9.674  0.3736 -0.9668  0.7807
  731MOL0     C98611   9.471   9.759   9.736 -0.2174  0.1936 -0.2228
  731MOL0     C98612   9.370   9.708   9.633  0.3881 -0.2975 -0.5091
  731MOL0     C98613   9.278   9.810   9.584  0.1834 -0.1444 -0.2865
  731MOL0     C98614   9.193   9.892   9.538  0.2883  0.2593 -0.0190
  731MOL0     C98615   9.638  10.036  10.128 -0.1304 -0.7525  0.8542
  731MOL0     C98616   9.715  10.048  10.250  0.6223  0.2534  0.4080
  731MOL0     C98617   9.646  10.114  10.361 -0.2875  1.1771  0.0246
  731MOL0     H98618  10.324  10.084  10.351 -2.2085  2.9682  2.0303
  731MOL0     H98619  10.499  10.001  10.503 -0.3572  2.8288  3.1930
  731MOL0     H98620  10.642   9.705  10.679 -1.1593 -0.9185 -1.9983
  731MOL0     H98621  10.591   9.781  10.533  2.1654 -0.3691 -0.6157
  731MOL0     H98622  10.708   9.936  10.780 -1.6130 -1.5125  0.5050
  731MOL0     H98623  10.605  10.015  10.668  3.0196  2.6706 -4.7388
  731MOL0     H98624  10.839  10.044  10.634  0.8527  0.6894 -3.3076
  731MOL0     H98625  10.762   9.981  10.487  0.8778 -1.1589 -0.8613
  731MOL0     H98626  10.895   9.809  10.682  1.3640  3.3079  1.2535
  731MOL0     H98627  10.849   9.755  10.521 -1.6856  0.8459 -0.9792
  731MOL0     H98628  11.017   9.883  10.402  1.1035 -5.4719 -0.2984
  731MOL0     H98629  11.053   9.985  10.546 -2.0053  0.3335  1.2862
  731MOL0     H98630  11.140   9.810  10.675 -0.7396  0.0117  1.0156
  731MOL0     H98631  11.105   9.694  10.539  1.2836 -1.2405  1.7543
  731MOL0     H98632  11.281   9.954  10.522 -2.1856  0.3518  1.3373
  731MOL0     H98633  11.263   9.835  10.408  1.8224  4.9534  0.4123
  731MOL0     H98634  11.383   9.786  10.680 -0.9068 -2.8346  1.2421
  731MOL0     H98635  11.354   9.657  10.567 -0.1344  0.3926 -2.1916
  731MOL0     H98636  11.458   9.760  10.287 -0.9695 -0.9557  2.1432
  731MOL0     H98637  11.723   9.735  10.177  2.2959 -0.2028 -1.7272
  731MOL0     H98638  11.723   9.911  10.159 -4.0143 -1.8492 -1.1352
  731MOL0     H98639  11.925   9.907  10.334  3.1123 -0.4354 -0.3325
  731MOL0     H98640  11.898   9.730  10.337  1.4344  2.1263  1.8568
  731MOL0     H98641  11.952   9.742  10.080  1.4186  1.0127 -1.4716
  731MOL0     H98642  12.090   9.765  10.207  0.6060  0.5433 -2.1521
  731MOL0     H98643  11.945   9.957  10.042  1.0388 -1.6242 -4.1684
  731MOL0     H98644  12.109   9.907  10.004 -1.1903 -1.9377 -0.4960
  731MOL0     H98645  12.315   9.941  10.037  6.1056  1.4155 -1.2715
  731MOL0     H98646  12.501  10.020  10.051 -0.1844 -0.3789 -0.6995
  731MOL0     H98647  12.639  10.621  10.239  0.2186  2.0089  3.6063
  731MOL0     H98648  12.839  10.747  10.218  0.3510 -0.0410 -0.2535
  731MOL0     H98649  13.139  10.603  10.093  0.7457  0.3211 -0.9234
  731MOL0     H98650  13.228  10.746  10.145 -1.2435  0.4984 -0.4372
  731MOL0     H98651  13.272  10.463  10.230  1.3123 -0.2043 -2.3155
  731MOL0     H98652  13.370  10.548  10.124  0.0079 -2.2496  0.4560
  731MOL0     H98653  13.422  10.732  10.331  2.4752 -0.6750 -0.4874
  731MOL0     H98654  13.345  10.602  10.421  2.0975  0.4513  1.8016
  731MOL0     H98655  13.572  10.570  10.214  1.1124  0.3376  1.8419
  731MOL0     H98656  13.531  10.451  10.342  2.7316 -0.0836  2.8675
  731MOL0     H98657  13.665  10.742  10.373 -1.1295  0.4623  0.9360
  731MOL0     H98658  13.745  10.588  10.354  0.3109 -0.1414 -0.9945
  731MOL0     H98659  13.553  10.684  10.569  0.2789 -0.6985 -0.3305
  731MOL0     H98660  13.591  10.518  10.564 -1.3466  1.1882  0.5134
  731MOL0     H98661  13.821  10.701  10.560  0.8705 -3.5804 -2.3538
  731MOL0     H98662  13.814  10.550  10.646 -3.0549 -1.1430  0.1749
  731MOL0     H98663  13.814  10.788  10.769  0.1569  0.2070 -0.6274
  731MOL0     H98664  13.642  10.767  10.756 -0.2636 -1.4477  0.8646
  731MOL0     H98665  13.083  10.418  10.337 -0.0147 -0.6209  0.5915
  731MOL0     H98666  12.880  10.258  10.328 -0.0410 -0.4002  3.6510
  731MOL0     H98667  12.384  10.329  10.319 -0.8951 -0.6271  0.4092
  731MOL0     H98668  12.143  10.245  10.301  0.7652  1.4735 -1.1473
  731MOL0     H98669  10.219   9.728  10.684 -2.4346 -1.4498 -1.7955
  731MOL0     H98670  10.030   9.825  10.528 -0.2658  0.8221  1.5507
  731MOL0     H98671  10.023   9.985  10.107 -0.4388 -0.4136 -2.4595
  731MOL0     H98672   9.898   9.939   9.922  0.7004  0.0578  0.2925
  731MOL0     H98673   9.745   9.826   9.803 -0.7990  0.6274  1.1765
  731MOL0     H98674   9.751   9.971   9.719 -1.7545  3.6971  0.9184
  731MOL0     H98675   9.615   9.827   9.583 -1.3339  1.7236 -1.3820
  731MOL0     H98676   9.509   9.953   9.647  1.9176 -0.7460 -2.1430
  731MOL0     H98677   9.415   9.794   9.823 -0.9681 -0.9755 -0.2134
  731MOL0     H98678   9.517   9.669   9.778 -0.4884  1.1662  2.3524
  731MOL0     H98679   9.427   9.671   9.547  1.3265 -0.5906  0.2241
  731MOL0     H98680   9.314   9.633   9.690 -0.2199  0.1712 -0.4820
  731MOL0     H98681   9.139   9.972   9.491 -0.0808  0.2713  0.4280
  731MOL0     H98682   9.536  10.072  10.122 -0.4973 -1.8882  0.0433
  731MOL0     H98683   9.684  10.216  10.365  2.3175  0.2992 -0.4642
  731MOL0     H98684   9.540  10.130  10.338 -0.2769  0.4832 -0.5772
  731MOL0     H98685   9.650  10.063  10.457 -0.5025 -0.7776 -0.9419
  732MOL0     O98686  10.056   2.570   3.970  0.0925 -0.1779 -0.7530
  732MOL0     C98687  10.106   2.488   3.905 -1.3006  0.4378  0.6576
  732MOL0     O98688  10.174   2.387   3.951  0.0395  0.0944 -0.1540
  732MOL0     C98689  10.221   2.373   4.083 -0.1717 -0.1247 -0.4322
  732MOL0     C98690  10.310   2.461   4.132 -0.9638  0.9791 -0.1488
  732MOL0     C98691  10.358   2.442   4.265  0.3167 -0.9443  0.5515
  732MOL0     C98692  10.316   2.331   4.339  0.6863  1.1704  0.4193
  732MOL0     O98693  10.364   2.333   4.469  0.2578  0.4186 -0.7246
  732MOL0     C98694  10.375   2.211   4.545  0.4327  0.1499  0.4963
  732MOL0     C98695  10.439   2.245   4.684  0.1993  0.1433 -0.5427
  732MOL0     C98696  10.344   2.323   4.768 -0.2005  0.7741  0.8113
  732MOL0     C98697  10.407   2.355   4.904 -0.1185 -0.7312  0.3446
  732MOL0     C98698  10.328   2.467   4.972  0.2856 -0.0481  0.9978
  732MOL0     C98699  10.218   2.413   5.062 -0.3970  0.9717  1.2131
  732MOL0     C98700  10.117   2.526   5.085  0.4243 -0.8019 -0.1440
  732MOL0     C98701  10.004   2.469   5.170 -0.1642 -0.2074  0.1641
  732MOL0     N98702   9.925   2.582   5.218  0.7804 -0.2457 -0.0982
  732MOL0     C98703   9.960   2.663   5.325 -0.4803 -0.5526 -0.3597
  732MOL0     C98704   9.856   2.738   5.353 -0.2125  0.7456 -0.2075
  732MOL0     C98705   9.834   2.853   5.448 -0.0576  0.1436 -0.2650
  732MOL0     C98706   9.691   2.898   5.474  0.2714  0.0593 -0.3453
  732MOL0     C98707   9.706   3.024   5.558  0.4423 -0.5047  0.3075
  732MOL0     C98708   9.579   3.106   5.562 -0.4908 -0.5679  0.6979
  732MOL0     O98709   9.604   3.226   5.642 -0.0271  0.1394  0.3010
  732MOL0     C98710   9.507   3.266   5.734  0.2557  0.3518  0.1738
  732MOL0     C98711   9.368   3.252   5.705 -0.1351 -0.1072  1.2614
  732MOL0     C98712   9.272   3.311   5.784 -0.1229 -0.1989 -0.4594
  732MOL0     C98713   9.307   3.396   5.889  0.2784 -0.4632 -0.4551
  732MOL0     C98714   9.210   3.455   5.986 -0.1223 -0.1103  0.1120
  732MOL0     O98715   9.075   3.446   5.959 -0.3662 -0.0953  0.3083
  732MOL0     C98716   8.986   3.471   6.067 -0.2759  0.3642  0.1431
  732MOL0     C98717   8.989   3.418   6.202 -0.0381 -0.7053 -0.4006
  732MOL0     C98718   8.899   3.457   6.296 -0.7207  0.1982  0.7013
  732MOL0     C98719   8.788   3.546   6.267 -0.0751  0.1350  0.7572
  732MOL0     O98720   8.696   3.583   6.354  0.4006  0.1234 -0.8771
  732MOL0     C98721   8.636   3.476   6.426 -1.0297 -0.3227 -0.1029
  732MOL0     C98722   8.525   3.525   6.524 -0.0433 -0.1782 -0.3582
  732MOL0     C98723   8.381   3.523   6.464  0.1617  0.1624  0.5041
  732MOL0     C98724   8.354   3.417   6.354 -0.6156  0.6012  0.6294
  732MOL0     C98725   8.209   3.398   6.320  0.4867  0.3220 -0.0902
  732MOL0     C98726   8.162   3.498   6.209 -0.4757  0.3610 -0.1767
  732MOL0     C98727   8.010   3.471   6.186 -0.2682 -0.4246  0.5457
  732MOL0     C98728   7.943   3.596   6.253 -0.3541 -0.2649  0.2836
  732MOL0    Cl98729   7.780   3.605   6.190  0.2593  0.1785  0.0175
  732MOL0     C98730   8.789   3.604   6.143 -0.1921 -0.3916  0.1847
  732MOL0     C98731   8.884   3.571   6.050  0.7349  0.2078  0.7066
  732MOL0     O98732   9.264   3.520   6.082 -0.1488  0.2048  0.5395
  732MOL0     C98733   9.447   3.412   5.918  0.7486 -0.8471  0.5623
  732MOL0     C98734   9.545   3.340   5.847 -0.0632 -0.2812 -1.1007
  732MOL0     N98735   9.756   2.713   5.261  0.8952  0.5380  0.3244
  732MOL0     N98736   9.797   2.614   5.187 -0.2537  0.1056  0.0551
  732MOL0     C98737  10.236   2.237   4.273  0.1544 -0.1201 -0.6403
  732MOL0     C98738  10.187   2.258   4.149 -0.2437  0.7695 -0.4383
  732MOL0     C98739  10.089   2.493   3.756  0.4530  0.4614  0.2610
  732MOL0     C98740   9.977   2.559   3.707  0.1072 -0.2258 -1.0370
  732MOL0     C98741   9.942   2.569   3.570 -1.0628 -0.6107 -1.0024
  732MOL0     C98742  10.020   2.503   3.474 -0.4701  0.1812 -0.1176
  732MOL0     O98743   9.992   2.497   3.340 -0.0473  0.8197 -0.1029
  732MOL0     C98744   9.916   2.596   3.274 -0.1086 -0.7357  0.0694
  732MOL0     C98745   9.994   2.726   3.254  0.1468  0.1085 -0.4534
  732MOL0     C98746   9.920   2.837   3.184  0.7303 -0.0182 -0.2668
  732MOL0     C98747  10.005   2.955   3.150 -0.0264  0.0197 -0.1572
  732MOL0     C98748  10.037   3.022   3.272  0.8315  0.0861  0.0005
  732MOL0     C98749  10.044   3.070   3.384 -0.7208 -0.2388  0.5721
  732MOL0     C98750  10.135   2.437   3.527  0.2465 -0.2700  0.5024
  732MOL0     C98751  10.172   2.424   3.659  0.2056 -0.1450 -0.4671
  732MOL0     C98752  10.296   2.342   3.694 -0.1078  1.1897 -0.7055
  732MOL0     H98753  10.336   2.547   4.071 -0.4620 -0.7169 -2.4848
  732MOL0     H98754  10.425   2.519   4.303 -1.8855  1.2671  0.2176
  732MOL0     H98755  10.281   2.156   4.556  1.2389 -1.1054  1.4667
  732MOL0     H98756  10.449   2.156   4.486  0.0401  1.0297 -0.8464
  732MOL0     H98757  10.529   2.300   4.654 -0.5321  0.6236 -1.9483
  732MOL0     H98758  10.464   2.148   4.728  0.2163  1.2316  2.0665
  732MOL0     H98759  10.253   2.266   4.786 -0.7615  1.2343 -0.4436
  732MOL0     H98760  10.310   2.415   4.720 -1.7789  0.2846  0.9456
  732MOL0     H98761  10.417   2.266   4.967 -1.3666  0.3818  2.2365
  732MOL0     H98762  10.507   2.392   4.882 -0.7973  2.9557  2.6188
  732MOL0     H98763  10.406   2.514   5.033 -1.3377  1.6394  1.8774
  732MOL0     H98764  10.297   2.547   4.904  3.6856  0.6558  0.0588
  732MOL0     H98765  10.167   2.328   5.017 -1.1305  1.6428  0.7632
  732MOL0     H98766  10.267   2.383   5.156  2.6101 -0.3298 -0.6388
  732MOL0     H98767  10.085   2.565   4.987 -1.9961 -1.8932  0.1618
  732MOL0     H98768  10.176   2.597   5.144 -0.2998 -1.3992  1.3321
  732MOL0     H98769   9.946   2.409   5.099  1.3026 -2.3129  0.6747
  732MOL0     H98770  10.038   2.404   5.250 -0.0645 -0.3558  0.0011
  732MOL0     H98771  10.051   2.666   5.384 -1.0854  1.4308  0.5562
  732MOL0     H98772   9.888   2.849   5.543  0.8557 -0.0473 -0.7763
  732MOL0     H98773   9.898   2.925   5.396 -0.0923  0.1002 -0.3684
  732MOL0     H98774   9.632   2.922   5.386 -0.8781  2.3120  0.9223
  732MOL0     H98775   9.636   2.822   5.531 -0.8272  1.6453  0.8091
  732MOL0     H98776   9.792   3.082   5.523 -0.3611 -0.1409 -1.1497
  732MOL0     H98777   9.730   2.992   5.659  0.2319 -3.3010 -0.4494
  732MOL0     H98778   9.492   3.052   5.598 -0.1054  0.0844  2.7369
  732MOL0     H98779   9.556   3.126   5.457 -0.5150 -2.8504  0.2212
  732MOL0     H98780   9.330   3.202   5.616 -1.7726  2.1257  0.6227
  732MOL0     H98781   9.167   3.308   5.757 -0.2425  0.2109 -0.0471
  732MOL0     H98782   9.073   3.353   6.226 -0.5128 -1.0348  0.4018
  732MOL0     H98783   8.914   3.409   6.392  2.9698 -0.2804  0.0263
  732MOL0     H98784   8.605   3.398   6.356 -3.4983  1.7780 -1.4995
  732MOL0     H98785   8.713   3.427   6.488  2.0129  1.2942 -2.3422
  732MOL0     H98786   8.518   3.449   6.602 -2.2662  2.2566  2.0085
  732MOL0     H98787   8.556   3.621   6.565  1.0511 -0.8081  0.3628
  732MOL0     H98788   8.319   3.513   6.554  1.2525  2.4959  1.6016
  732MOL0     H98789   8.365   3.617   6.412 -0.2287 -1.4472 -2.4719
  732MOL0     H98790   8.387   3.322   6.397  3.2950  3.0825  3.8858
  732MOL0     H98791   8.413   3.427   6.262 -0.7251 -0.9457  0.3732
  732MOL0     H98792   8.152   3.399   6.413  4.2752  1.1720  2.4608
  732MOL0     H98793   8.188   3.300   6.277 -0.3515  1.1100 -1.5458
  732MOL0     H98794   8.198   3.599   6.230 -0.3201  0.5450 -1.2799
  732MOL0     H98795   8.221   3.469   6.121 -0.0181  0.7513 -0.0041
  732MOL0     H98796   7.980   3.370   6.217  1.1596  0.5490  6.1057
  732MOL0     H98797   8.007   3.463   6.077 -2.5349 -0.9776  0.6075
  732MOL0     H98798   7.950   3.602   6.362 -2.2761  1.4568  0.3699
  732MOL0     H98799   7.996   3.685   6.219  0.5514 -1.4980 -1.6900
  732MOL0     H98800   8.720   3.685   6.124 -1.9354 -1.7868  0.2583
  732MOL0     H98801   8.893   3.626   5.957  1.9215 -0.7611  0.2220
  732MOL0     H98802   9.492   3.469   5.999  0.3423 -0.8422  0.7869
  732MOL0     H98803   9.650   3.332   5.873 -0.5104 -0.3957  0.8551
  732MOL0     H98804  10.208   2.149   4.331 -0.5591  2.1726  2.8180
  732MOL0     H98805  10.128   2.191   4.087 -1.1986  1.6454 -0.5132
  732MOL0     H98806   9.906   2.608   3.773 -0.2642 -0.6745 -1.0963
  732MOL0     H98807   9.847   2.614   3.545 -0.8426  1.1258  0.9853
  732MOL0     H98808   9.814   2.607   3.312 -0.8355 -0.3126 -1.8857
  732MOL0     H98809   9.904   2.567   3.169  0.9100 -1.4575  0.1455
  732MOL0     H98810  10.090   2.704   3.207  0.7591  0.3040  0.6564
  732MOL0     H98811  10.019   2.769   3.352  0.3813  0.2702 -0.5841
  732MOL0     H98812   9.822   2.868   3.221 -0.6408 -2.3555 -1.6558
  732MOL0     H98813   9.897   2.781   3.092 -3.4349 -0.2016  0.7092
  732MOL0     H98814  10.095   2.925   3.094 -0.3801  1.8992 -1.8280
  732MOL0     H98815   9.948   3.029   3.093 -2.1693  0.3008  2.1681
  732MOL0     H98816  10.036   3.111   3.482  1.7132 -0.7049  1.0311
  732MOL0     H98817  10.194   2.392   3.448 -0.9186 -1.3770  0.2281
  732MOL0     H98818  10.259   2.248   3.735  2.1697  0.0894 -1.0187
  732MOL0     H98819  10.354   2.321   3.604  0.4396 -0.1785 -0.0581
  732MOL0     H98820  10.362   2.388   3.768  2.1829 -1.4111 -0.9919
  733MOL0     O98821   1.956   8.455   6.569 -0.2666  0.4539 -0.8145
  733MOL0     C98822   1.907   8.355   6.511 -0.2540 -0.0824 -0.1478
  733MOL0     O98823   1.980   8.270   6.425 -0.2378 -0.5728 -0.3038
  733MOL0     C98824   2.115   8.286   6.431  0.1698 -0.1179  0.0213
  733MOL0     C98825   2.188   8.237   6.544  0.1138 -0.1224 -0.3564
  733MOL0     C98826   2.324   8.255   6.547  0.5227 -0.1549 -0.6882
  733MOL0     C98827   2.392   8.300   6.429  0.0722 -0.1364 -0.0551
  733MOL0     O98828   2.525   8.325   6.403  0.2951  0.4059  0.9491
  733MOL0     C98829   2.621   8.277   6.496  0.7619 -0.5882  0.2158
  733MOL0     C98830   2.758   8.326   6.463  0.0132 -0.3493 -0.3133
  733MOL0     C98831   2.857   8.277   6.564  0.1314  0.5248 -0.5690
  733MOL0     C98832   2.979   8.360   6.572 -0.4913 -0.4525  0.5236
  733MOL0     C98833   3.085   8.278   6.659 -0.0449 -1.3115 -0.2527
  733MOL0     C98834   3.193   8.361   6.723 -0.3094 -0.4037  0.2798
  733MOL0     C98835   3.298   8.431   6.621  0.6965  0.4885  0.4520
  733MOL0     C98836   3.419   8.486   6.699  0.5059  0.2413  0.7164
  733MOL0     N98837   3.381   8.603   6.791 -0.8022 -0.2976  0.5227
  733MOL0     C98838   3.282   8.699   6.772 -0.2689  0.0162  0.2723
  733MOL0     C98839   3.252   8.760   6.895  0.3735  0.7044 -0.2184
  733MOL0     C98840   3.136   8.859   6.925 -0.4108  0.1879 -0.5996
  733MOL0     C98841   3.012   8.760   6.936  0.2985  0.2841 -0.5751
  733MOL0     C98842   2.940   8.717   6.806 -0.4254 -0.1791  0.4463
  733MOL0     C98843   2.887   8.836   6.727 -0.9190 -0.2042  0.5165
  733MOL0     O98844   2.992   8.881   6.635 -0.1450 -0.2169 -0.7636
  733MOL0     C98845   2.995   8.842   6.499 -0.2533 -0.2632 -0.7321
  733MOL0     C98846   3.106   8.862   6.435 -1.0888  0.4474 -0.0357
  733MOL0     C98847   3.124   8.798   6.303  0.2185 -0.6936 -0.4486
  733MOL0     C98848   3.013   8.738   6.240 -0.0053  0.6113  0.5564
  733MOL0     C98849   3.039   8.659   6.112 -1.0834  0.3774  0.6822
  733MOL0     O98850   2.989   8.537   6.098  0.6963 -0.6334 -0.3691
  733MOL0     C98851   2.981   8.484   5.973  0.4853  0.3606  0.3052
  733MOL0     C98852   3.042   8.360   5.949 -0.1996 -0.1238 -0.0006
  733MOL0     C98853   3.051   8.307   5.819 -0.0803 -1.3370 -0.5505
  733MOL0     C98854   2.988   8.377   5.714 -0.2322 -0.5392  0.9284
  733MOL0     O98855   2.992   8.320   5.590 -0.5149  0.1043 -0.6851
  733MOL0     C98856   2.863   8.260   5.550  0.4610 -0.3423  0.0109
  733MOL0     C98857   2.897   8.162   5.437 -0.9480  0.0733 -0.0271
  733MOL0     C98858   3.020   8.073   5.475 -0.9662 -0.8072  0.2037
  733MOL0     C98859   2.988   7.931   5.528  0.0172 -0.2051 -0.1028
  733MOL0     C98860   2.917   7.846   5.421 -0.3121 -0.9520  0.3478
  733MOL0     C98861   2.962   7.706   5.404 -0.1506 -0.6578 -0.1302
  733MOL0     C98862   2.921   7.632   5.526 -0.8118  0.2288  0.3000
  733MOL0     C98863   2.986   7.492   5.543  0.6336 -0.9402  0.5545
  733MOL0    Cl98864   2.981   7.383   5.399  0.2495  0.2726 -0.1394
  733MOL0     C98865   2.956   8.509   5.732  0.7312  0.9352 -0.6843
  733MOL0     C98866   2.944   8.565   5.862 -0.0027 -0.4008  0.7987
  733MOL0     O98867   3.115   8.711   6.035  0.4450 -0.3470  0.3012
  733MOL0     C98868   2.897   8.719   6.309 -0.1745 -1.2983 -0.6268
  733MOL0     C98869   2.892   8.776   6.437 -0.4413 -0.2934 -0.4443
  733MOL0     N98870   3.349   8.701   6.984  0.2570  1.6438  0.3189
  733MOL0     N98871   3.427   8.617   6.917  0.1369  0.0852  0.3207
  733MOL0     C98872   2.319   8.357   6.323 -0.9993 -0.3218  0.1546
  733MOL0     C98873   2.182   8.344   6.318  0.3948  0.1359 -0.2032
  733MOL0     C98874   1.760   8.322   6.530  0.6712  1.5394  0.0964
  733MOL0     C98875   1.724   8.182   6.515  0.6063  0.8815  0.7905
  733MOL0     C98876   1.587   8.140   6.538 -0.5106 -0.5581  0.3025
  733MOL0     C98877   1.495   8.232   6.596  0.5812  0.2472 -0.2948
  733MOL0     O98878   1.373   8.175   6.624 -0.2171 -0.1989 -0.1730
  733MOL0     C98879   1.269   8.242   6.694  0.2521 -0.4022 -0.4550
  733MOL0     C98880   1.203   8.342   6.603 -0.5502  0.1344 -0.0888
  733MOL0     C98881   1.119   8.437   6.703 -0.9725  0.6449  0.2293
  733MOL0     C98882   1.003   8.514   6.647  0.5049 -0.4729 -0.3355
  733MOL0     C98883   1.057   8.629   6.569  0.9071 -0.7781 -0.3556
  733MOL0     C98884   1.089   8.730   6.516 -0.5204 -0.4027 -0.0804
  733MOL0     C98885   1.532   8.368   6.609  0.3378 -0.0461  0.1387
  733MOL0     C98886   1.658   8.412   6.574  0.2284  0.2791 -0.2961
  733MOL0     C98887   1.683   8.557   6.586 -0.2065 -0.6443  0.0433
  733MOL0     H98888   2.127   8.193   6.622  0.7959 -3.7562 -1.6849
  733MOL0     H98889   2.378   8.232   6.638  0.6899  4.6752  0.7126
  733MOL0     H98890   2.590   8.316   6.593 -0.9132  1.0630 -0.9091
  733MOL0     H98891   2.600   8.170   6.492 -2.6014 -0.0352  0.2598
  733MOL0     H98892   2.761   8.434   6.483 -2.5988 -0.1368 -0.7831
  733MOL0     H98893   2.800   8.297   6.367 -1.0618 -2.1516 -0.2821
  733MOL0     H98894   2.891   8.180   6.527  0.5132  0.8322 -1.0394
  733MOL0     H98895   2.808   8.266   6.662 -0.3048  1.2760 -0.6959
  733MOL0     H98896   3.010   8.386   6.471  2.4708 -0.0895  1.4194
  733MOL0     H98897   2.971   8.459   6.619  0.5390 -0.0964 -0.0259
  733MOL0     H98898   3.030   8.235   6.743 -1.8333 -0.9518 -1.1780
  733MOL0     H98899   3.131   8.202   6.595  0.4842 -0.2432 -1.1862
  733MOL0     H98900   3.143   8.437   6.785 -2.2592 -1.2898 -0.1370
  733MOL0     H98901   3.252   8.303   6.795  1.2198  1.7926  0.9146
  733MOL0     H98902   3.252   8.514   6.565  0.7299  0.9124  1.0470
  733MOL0     H98903   3.330   8.365   6.540  0.5634  1.3705 -0.3455
  733MOL0     H98904   3.481   8.411   6.751 -2.4664 -1.2360  2.4210
  733MOL0     H98905   3.482   8.544   6.631 -0.5474 -0.1983 -0.6887
  733MOL0     H98906   3.218   8.711   6.686  0.5106  1.1424 -0.1805
  733MOL0     H98907   3.157   8.901   7.024 -0.9438 -1.1200  0.0953
  733MOL0     H98908   3.124   8.933   6.845  3.9065  2.6133  0.6735
  733MOL0     H98909   3.038   8.675   6.999  5.0463  1.6042 -0.4129
  733MOL0     H98910   2.933   8.814   6.989  1.2701  0.6566  0.5247
  733MOL0     H98911   2.855   8.658   6.841 -0.7191 -0.6385 -0.9789
  733MOL0     H98912   3.008   8.661   6.742 -0.7921 -0.0760 -0.0379
  733MOL0     H98913   2.848   8.923   6.781 -1.8877  0.7798 -1.6342
  733MOL0     H98914   2.797   8.797   6.679 -0.5161 -0.0567 -0.3608
  733MOL0     H98915   3.197   8.910   6.470 -0.0805 -0.0202 -1.8922
  733MOL0     H98916   3.222   8.794   6.256  0.9251 -0.2153  0.9332
  733MOL0     H98917   3.089   8.317   6.036  1.9098  2.2253  0.1230
  733MOL0     H98918   3.109   8.216   5.807  5.8924  1.6571  1.5820
  733MOL0     H98919   2.816   8.214   5.638  0.3031 -2.1381 -0.9548
  733MOL0     H98920   2.797   8.337   5.510  1.8014 -0.4964 -2.7611
  733MOL0     H98921   2.815   8.091   5.422 -0.7132  0.3209 -3.3323
  733MOL0     H98922   2.923   8.216   5.345 -3.4017  0.5875 -0.4980
  733MOL0     H98923   3.085   8.064   5.388  0.3072 -3.2029  1.2840
  733MOL0     H98924   3.080   8.117   5.556  2.0801 -4.6130  0.3310
  733MOL0     H98925   2.941   7.948   5.625  2.7329  3.9743  0.7349
  733MOL0     H98926   3.076   7.871   5.551 -0.6196 -0.4160  1.8863
  733MOL0     H98927   2.934   7.885   5.320  2.3095  0.1426  1.1445
  733MOL0     H98928   2.810   7.859   5.441 -0.0755  1.0962  0.4644
  733MOL0     H98929   2.900   7.671   5.320  0.1904  1.2845 -1.2604
  733MOL0     H98930   3.066   7.690   5.373 -0.3157 -1.2047 -0.4218
  733MOL0     H98931   2.813   7.620   5.525 -1.1542  2.4272  1.9721
  733MOL0     H98932   2.939   7.696   5.613  0.6873 -0.6569  0.6891
  733MOL0     H98933   3.089   7.501   5.579  0.3470 -0.2676  1.2440
  733MOL0     H98934   2.931   7.442   5.623 -0.5129  1.6850  1.5270
  733MOL0     H98935   2.920   8.561   5.644  0.4009  3.3971  0.8074
  733MOL0     H98936   2.892   8.659   5.877 -1.3256 -1.3666  2.5024
  733MOL0     H98937   2.809   8.667   6.272 -1.2744 -0.4392  0.6710
  733MOL0     H98938   2.798   8.767   6.490 -0.9410  2.8417 -0.5944
  733MOL0     H98939   2.369   8.403   6.238 -0.9477  1.5815  1.1473
  733MOL0     H98940   2.115   8.372   6.238 -2.8517 -0.4712  2.1099
  733MOL0     H98941   1.804   8.112   6.495 -0.9908 -0.8232  0.0932
  733MOL0     H98942   1.559   8.037   6.519 -1.2554 -0.2388 -0.3663
  733MOL0     H98943   1.337   8.294   6.762  2.4014 -1.8796 -1.3711
  733MOL0     H98944   1.196   8.180   6.747 -0.3490 -1.1095 -2.0375
  733MOL0     H98945   1.148   8.299   6.519 -1.5617  3.0724 -1.0451
  733MOL0     H98946   1.261   8.410   6.541  1.0733 -2.8523 -2.1055
  733MOL0     H98947   1.185   8.517   6.738  0.7893  0.5152 -2.5031
  733MOL0     H98948   1.087   8.378   6.789  4.7199 -3.4786  0.0830
  733MOL0     H98949   0.946   8.447   6.582 -0.1323 -0.6307  0.3761
  733MOL0     H98950   0.934   8.554   6.722 -0.4416 -1.0132 -0.9077
  733MOL0     H98951   1.113   8.814   6.454  1.2250 -0.0632  0.9831
  733MOL0     H98952   1.469   8.436   6.666 -1.4184 -1.0594 -0.5311
  733MOL0     H98953   1.725   8.598   6.494  2.2953 -1.2651  0.8253
  733MOL0     H98954   1.590   8.608   6.608  1.1221  1.1972  1.7701
  733MOL0     H98955   1.761   8.571   6.662 -0.9586 -1.1348  0.9161
  734MOL0     O98956   3.801   8.477   3.744  0.1103  0.0223  0.1073
  734MOL0     C98957   3.749   8.557   3.663  1.0722  0.1750 -0.3795
  734MOL0     O98958   3.823   8.614   3.554 -0.6480 -0.2780 -1.5539
  734MOL0     C98959   3.958   8.578   3.536 -0.2822  0.0624  0.5568
  734MOL0     C98960   4.001   8.474   3.458  0.7109 -0.4984 -0.2872
  734MOL0     C98961   4.134   8.437   3.453 -0.5625  0.5833 -0.2178
  734MOL0     C98962   4.229   8.509   3.519 -0.8305  0.7224  0.1482
  734MOL0     O98963   4.365   8.489   3.502  0.4241 -0.3054 -0.6047
  734MOL0     C98964   4.424   8.356   3.521  0.1018 -0.2840  0.1164
  734MOL0     C98965   4.565   8.362   3.581  0.6060  0.0631 -0.6666
  734MOL0     C98966   4.680   8.318   3.494 -0.4612 -0.8106 -0.5365
  734MOL0     C98967   4.827   8.305   3.562  0.0369 -0.3274 -0.2887
  734MOL0     C98968   4.934   8.275   3.464 -0.2111  0.2210  0.4201
  734MOL0     C98969   5.069   8.278   3.540  0.6739  0.6010  0.7935
  734MOL0     C98970   5.184   8.258   3.438 -0.2302  0.9285  0.0187
  734MOL0     C98971   5.173   8.360   3.327 -0.4334  0.0662 -0.2258
  734MOL0     N98972   5.296   8.390   3.267 -0.3906  0.2623  0.5197
  734MOL0     C98973   5.341   8.509   3.229  0.4274 -0.5395  0.4093
  734MOL0     C98974   5.463   8.478   3.160  0.5388  0.4438  0.3055
  734MOL0     C98975   5.554   8.568   3.094 -0.7812 -0.1010  0.2009
  734MOL0     C98976   5.668   8.615   3.189 -0.5100  0.2981 -0.1690
  734MOL0     C98977   5.805   8.546   3.159  0.3135  0.5629 -0.0214
  734MOL0     C98978   5.811   8.388   3.185  0.6678  0.1140  0.1155
  734MOL0     O98979   5.775   8.353   3.321  0.0888  0.2633  0.2773
  734MOL0     C98980   5.891   8.340   3.399 -0.9080 -0.2436  0.2685
  734MOL0     C98981   5.969   8.222   3.399  0.0380  0.4946  0.5253
  734MOL0     C98982   6.075   8.212   3.475 -0.9346  0.7111 -0.0909
  734MOL0     C98983   6.116   8.312   3.558 -0.2436  0.0333 -0.7581
  734MOL0     C98984   6.239   8.303   3.637  0.4374  0.4824 -0.5085
  734MOL0     O98985   6.329   8.213   3.587  0.0205 -0.6755 -0.3392
  734MOL0     C98986   6.449   8.194   3.651  0.0196 -0.6007 -1.0410
  734MOL0     C98987   6.439   8.182   3.790  0.0129 -0.0596  0.0044
  734MOL0     C98988   6.546   8.144   3.863  0.5945 -0.6327  0.4697
  734MOL0     C98989   6.669   8.124   3.797 -0.3450 -0.4786 -0.2091
  734MOL0     O98990   6.779   8.087   3.859 -0.0218  0.7715 -0.6117
  734MOL0     C98991   6.805   8.148   3.990 -0.1685 -0.3714 -0.0435
  734MOL0     C98992   6.958   8.194   4.008  0.3722  0.0952  0.1475
  734MOL0     C98993   7.002   8.256   3.877  0.2455  0.0939  0.2669
  734MOL0     C98994   7.143   8.331   3.868  0.0370 -0.6341 -0.8881
  734MOL0     C98995   7.146   8.466   3.928 -0.2816  0.2015 -0.3098
  734MOL0     C98996   7.283   8.536   3.913 -0.8164  0.3187 -0.1323
  734MOL0     C98997   7.308   8.572   3.765  0.0657 -0.2746  0.1194
  734MOL0     C98998   7.399   8.693   3.731 -0.5936  0.5871  0.3540
  734MOL0    Cl98999   7.579   8.647   3.722 -0.0026 -0.2468  0.0695
  734MOL0     C99000   6.687   8.152   3.664  0.4538 -0.4880  0.3150
  734MOL0     C99001   6.576   8.197   3.589 -0.4876 -0.2987 -0.6994
  734MOL0     O99002   6.263   8.390   3.716 -0.2974  0.2104 -0.0748
  734MOL0     C99003   6.036   8.422   3.563 -0.1114 -0.0006  0.5413
  734MOL0     C99004   5.924   8.433   3.490 -0.7722 -0.3014 -0.2661
  734MOL0     N99005   5.479   8.339   3.159 -0.1473  0.2169 -1.0191
  734MOL0     N99006   5.383   8.288   3.228  0.5596  0.2208  0.3918
  734MOL0     C99007   4.185   8.614   3.609  0.0436 -0.1975  0.6804
  734MOL0     C99008   4.050   8.644   3.616 -0.0892  0.5490  0.1740
  734MOL0     C99009   3.596   8.554   3.664 -0.2527  0.1395  0.3985
  734MOL0     C99010   3.528   8.453   3.734  0.8106  0.7841 -0.1670
  734MOL0     C99011   3.383   8.452   3.735  0.8915 -0.4863  0.2019
  734MOL0     C99012   3.312   8.554   3.674  0.2706  0.0334 -0.6498
  734MOL0     O99013   3.174   8.538   3.670 -0.2811 -0.4720 -0.0496
  734MOL0     C99014   3.091   8.656   3.703  0.8349  0.2820 -0.0528
  734MOL0     C99015   2.965   8.623   3.784  0.1710  0.5793 -0.2390
  734MOL0     C99016   2.904   8.494   3.740  0.1124  0.7899  0.2831
  734MOL0     C99017   2.755   8.509   3.779  0.3234  0.1975  0.0307
  734MOL0     C99018   2.678   8.382   3.771 -0.3790 -0.3063  0.1083
  734MOL0     C99019   2.615   8.279   3.783  0.8325 -0.8869  0.8902
  734MOL0     C99020   3.382   8.654   3.608 -1.1494  0.1718 -0.5961
  734MOL0     C99021   3.522   8.659   3.599 -0.8819 -0.6469 -0.3929
  734MOL0     C99022   3.592   8.770   3.524 -0.1208 -0.3564  0.2455
  734MOL0     H99023   3.934   8.418   3.394  0.1654 -0.3184  0.1224
  734MOL0     H99024   4.161   8.359   3.381  1.4249  3.1022 -2.4421
  734MOL0     H99025   4.356   8.291   3.577  2.2816 -0.5100  2.7067
  734MOL0     H99026   4.438   8.301   3.427  0.3267 -0.9368  0.5203
  734MOL0     H99027   4.570   8.298   3.669 -0.2993  1.9858  0.8576
  734MOL0     H99028   4.586   8.465   3.612 -1.7891  1.5758 -3.5045
  734MOL0     H99029   4.695   8.388   3.411  2.1217  1.5418  1.6986
  734MOL0     H99030   4.647   8.221   3.456 -1.4237  0.4108 -3.0642
  734MOL0     H99031   4.852   8.399   3.612  1.8233  0.5775 -2.7202
  734MOL0     H99032   4.810   8.224   3.635  0.3162  1.1701  1.5134
  734MOL0     H99033   4.920   8.172   3.430 -0.2856 -0.1145  1.4249
  734MOL0     H99034   4.930   8.344   3.380  4.7357  0.7454  0.2947
  734MOL0     H99035   5.080   8.372   3.595 -0.2111 -1.2342  4.3470
  734MOL0     H99036   5.077   8.189   3.602  2.0335 -0.8044 -1.2769
  734MOL0     H99037   5.168   8.157   3.399  1.2753  0.6862 -0.0232
  734MOL0     H99038   5.278   8.263   3.494  0.7022 -0.8389 -1.2760
  734MOL0     H99039   5.100   8.322   3.255 -2.0998  5.0822 -1.5679
  734MOL0     H99040   5.137   8.452   3.373  0.6106  0.9990 -1.2295
  734MOL0     H99041   5.293   8.605   3.246  2.0059  0.1953  0.9796
  734MOL0     H99042   5.603   8.512   3.014 -0.3851 -1.3291  1.2613
  734MOL0     H99043   5.487   8.648   3.061 -0.5433  0.3682  0.8340
  734MOL0     H99044   5.677   8.723   3.174 -0.2558  0.3653  0.4106
  734MOL0     H99045   5.648   8.600   3.296  1.7723  1.0888  0.4274
  734MOL0     H99046   5.879   8.584   3.230 -0.8162  2.2356  0.3210
  734MOL0     H99047   5.821   8.563   3.052  0.6328 -0.7597 -0.1972
  734MOL0     H99048   5.902   8.337   3.152 -0.0386 -0.6107 -0.7671
  734MOL0     H99049   5.725   8.349   3.129 -0.5516  1.7677  0.7348
  734MOL0     H99050   5.935   8.143   3.333 -0.4350  0.4561  0.8068
  734MOL0     H99051   6.142   8.127   3.490  0.7927  2.4327  2.8995
  734MOL0     H99052   6.346   8.206   3.842  1.9921  4.7579  2.0036
  734MOL0     H99053   6.534   8.128   3.970 -3.4483  4.3196  1.1119
  734MOL0     H99054   6.744   8.238   4.001 -3.2193 -2.1618 -1.0960
  734MOL0     H99055   6.769   8.080   4.068  0.9209 -0.4745  0.3816
  734MOL0     H99056   6.976   8.265   4.089 -1.0083 -0.3303  0.8499
  734MOL0     H99057   7.016   8.112   4.051 -0.3837 -1.4796 -1.6864
  734MOL0     H99058   7.010   8.175   3.804 -0.8355 -1.4821  1.8040
  734MOL0     H99059   6.925   8.328   3.846 -0.2439 -1.2371 -1.8006
  734MOL0     H99060   7.184   8.317   3.767 -2.3608 -0.9406 -1.8792
  734MOL0     H99061   7.208   8.271   3.933 -0.3626  3.0821  3.4306
  734MOL0     H99062   7.132   8.439   4.033  0.4036  2.2067  0.3447
  734MOL0     H99063   7.075   8.536   3.884  2.3590  1.4119 -3.0297
  734MOL0     H99064   7.285   8.628   3.972 -2.1119  1.9962 -2.4780
  734MOL0     H99065   7.361   8.470   3.952  0.7085  2.6158  0.9225
  734MOL0     H99066   7.207   8.597   3.729 -1.3097 -1.9549  2.5079
  734MOL0     H99067   7.356   8.484   3.721 -2.0742 -0.5157 -1.9693
  734MOL0     H99068   7.373   8.737   3.635 -2.6840  1.0498  1.0720
  734MOL0     H99069   7.387   8.771   3.807  1.4415 -0.4957  1.8887
  734MOL0     H99070   6.782   8.147   3.613  0.4490  1.0881  0.0800
  734MOL0     H99071   6.594   8.208   3.482  0.2619 -1.4680 -0.7090
  734MOL0     H99072   6.072   8.510   3.615  0.4379 -1.1942  2.3016
  734MOL0     H99073   5.866   8.524   3.490  0.0259  0.2189 -0.1346
  734MOL0     H99074   4.262   8.654   3.675  0.2265  0.3538  0.1481
  734MOL0     H99075   3.996   8.710   3.684 -2.9218 -1.1235 -0.3097
  734MOL0     H99076   3.597   8.382   3.777 -0.2664 -0.0431  0.2425
  734MOL0     H99077   3.320   8.370   3.769 -0.7093  0.7681  0.4042
  734MOL0     H99078   3.068   8.704   3.608 -1.9775 -0.7478  0.0089
  734MOL0     H99079   3.151   8.726   3.761 -1.3458  1.4209  0.9590
  734MOL0     H99080   2.897   8.709   3.793 -1.4010 -0.8068  4.8778
  734MOL0     H99081   3.005   8.606   3.885  0.2716 -0.2702 -0.4123
  734MOL0     H99082   2.944   8.402   3.784 -0.2715  1.1737  1.4473
  734MOL0     H99083   2.918   8.485   3.631  2.1385 -0.3258  0.5800
  734MOL0     H99084   2.754   8.542   3.883  0.1017 -0.3476  0.2022
  734MOL0     H99085   2.709   8.588   3.719  1.6082  2.0261  1.3645
  734MOL0     H99086   2.551   8.194   3.789  0.0120 -0.3631 -0.1449
  734MOL0     H99087   3.340   8.728   3.540 -1.0406  0.7595 -0.0408
  734MOL0     H99088   3.642   8.748   3.430 -0.6615  4.1232 -1.3544
  734MOL0     H99089   3.524   8.850   3.493  0.7574  0.2631 -0.1370
  734MOL0     H99090   3.666   8.825   3.583  0.5009  0.8230 -1.5378
  735MOL0     O99091   9.665   4.261   5.039 -0.3116  0.5276  0.2077
  735MOL0     C99092   9.728   4.367   5.013  0.0223  1.1656 -0.5024
  735MOL0     O99093   9.794   4.395   4.899 -0.1918  0.1328  0.7079
  735MOL0     C99094   9.827   4.281   4.816 -0.0302  0.3415 -0.2075
  735MOL0     C99095   9.729   4.237   4.723 -0.5488  0.5972 -0.6931
  735MOL0     C99096   9.756   4.127   4.638 -0.4231  0.2329  0.4479
  735MOL0     C99097   9.875   4.054   4.650 -0.4493 -0.9156 -1.0324
  735MOL0     O99098   9.887   3.953   4.563  0.0132 -0.0968  0.1003
  735MOL0     C99099  10.018   3.904   4.543 -0.6404  0.8905 -1.0644
  735MOL0     C99100  10.009   3.805   4.425  0.2305  0.5821 -0.5355
  735MOL0     C99101  10.125   3.704   4.413  0.8332  0.0164  0.2540
  735MOL0     C99102  10.170   3.626   4.542 -0.5252  0.0193 -0.1507
  735MOL0     C99103  10.199   3.477   4.519 -0.5382 -0.0026  0.4211
  735MOL0     C99104  10.330   3.442   4.454 -1.3616  0.0680  0.4140
  735MOL0     C99105  10.463   3.471   4.535  0.7150 -0.0165 -0.3138
  735MOL0     C99106  10.552   3.349   4.539  0.1355 -1.2197 -0.0858
  735MOL0     N99107  10.604   3.334   4.397  0.2638  0.6024  0.0336
  735MOL0     C99108  10.718   3.395   4.351 -0.2718 -0.4667  0.0290
  735MOL0     C99109  10.760   3.335   4.240 -0.2526 -0.4056  0.2040
  735MOL0     C99110  10.883   3.369   4.160 -0.4797  0.5477  1.0647
  735MOL0     C99111  10.987   3.250   4.173 -0.3168  0.0241  0.1800
  735MOL0     C99112  11.101   3.256   4.062 -0.2458 -0.2111  0.0315
  735MOL0     C99113  11.208   3.365   4.090 -0.8549  0.3165  1.4432
  735MOL0     O99114  11.308   3.329   4.181  1.0417 -0.8962  0.1072
  735MOL0     C99115  11.415   3.411   4.185 -0.1135  0.9936 -0.0379
  735MOL0     C99116  11.418   3.545   4.147  0.3042 -1.6625  0.4654
  735MOL0     C99117  11.527   3.632   4.158 -0.1908 -0.5992 -0.0808
  735MOL0     C99118  11.643   3.585   4.226  1.0704 -0.5749  0.1501
  735MOL0     C99119  11.755   3.675   4.247  0.5254 -0.0307  0.2825
  735MOL0     O99120  11.762   3.788   4.167 -0.3734 -0.0745  0.2924
  735MOL0     C99121  11.875   3.873   4.185  1.0527  0.2948  0.0656
  735MOL0     C99122  12.013   3.831   4.183  0.5522 -0.3754 -0.3316
  735MOL0     C99123  12.117   3.928   4.218 -0.3876  0.4815 -0.4294
  735MOL0     C99124  12.085   4.064   4.237 -0.3536  0.2863  0.2817
  735MOL0     O99125  12.171   4.151   4.283 -0.3555 -1.2370 -0.1854
  735MOL0     C99126  12.293   4.177   4.202  1.0079  0.1555  0.0787
  735MOL0     C99127  12.326   4.321   4.175 -0.3639 -0.3944 -0.4556
  735MOL0     C99128  12.232   4.364   4.053 -0.2195  0.6547 -0.1486
  735MOL0     C99129  12.258   4.508   4.003 -1.0428 -0.0282  0.3587
  735MOL0     C99130  12.403   4.511   3.955 -0.0282 -0.0319 -0.4082
  735MOL0     C99131  12.425   4.648   3.894 -0.0142  0.1358 -0.7030
  735MOL0     C99132  12.550   4.655   3.810 -0.0646 -0.3423  0.6883
  735MOL0     C99133  12.686   4.663   3.894  0.1298 -0.8849 -0.7074
  735MOL0    Cl99134  12.721   4.813   3.978  0.0101 -0.1725 -0.2894
  735MOL0     C99135  11.954   4.104   4.216  0.5539 -0.5812  0.3471
  735MOL0     C99136  11.850   4.008   4.192  0.7360 -0.5671  0.1814
  735MOL0     O99137  11.836   3.644   4.331 -0.1760 -0.5752 -0.0618
  735MOL0     C99138  11.638   3.458   4.281 -0.1010 -0.4468 -0.6483
  735MOL0     C99139  11.525   3.372   4.265 -0.0017  0.2775 -0.0295
  735MOL0     N99140  10.676   3.227   4.223 -0.0885  0.2060  0.2837
  735MOL0     N99141  10.581   3.233   4.310 -0.5087  0.7535 -0.1302
  735MOL0     C99142   9.966   4.099   4.753 -0.9220  0.2983  0.0604
  735MOL0     C99143   9.939   4.207   4.834 -0.0548 -0.1435  0.6807
  735MOL0     C99144   9.699   4.482   5.103  0.2183 -0.3655 -0.0114
  735MOL0     C99145   9.724   4.475   5.239 -0.2422  0.1797  0.2154
  735MOL0     C99146   9.710   4.585   5.326 -0.0254 -0.9898  0.9799
  735MOL0     C99147   9.647   4.706   5.284 -0.4597  0.2295  1.0223
  735MOL0     O99148   9.621   4.807   5.375  0.4002 -0.6347  0.4763
  735MOL0     C99149   9.622   4.779   5.521 -0.6635  0.8087 -0.3932
  735MOL0     C99150   9.496   4.698   5.555  0.5147 -0.0438 -0.2482
  735MOL0     C99151   9.371   4.780   5.514 -0.7073  0.2886 -0.1426
  735MOL0     C99152   9.238   4.737   5.569 -0.1881  0.0528  0.3319
  735MOL0     C99153   9.120   4.796   5.501 -0.9103  0.2734  1.4350
  735MOL0     C99154   9.031   4.857   5.459 -0.5444  0.3625 -0.3127
  735MOL0     C99155   9.612   4.709   5.145  0.2610 -0.1392 -0.1158
  735MOL0     C99156   9.636   4.603   5.055 -0.8991 -0.1332  0.9881
  735MOL0     C99157   9.615   4.642   4.910 -0.0826  0.4778  0.1426
  735MOL0     H99158   9.627   4.273   4.728 -1.2070 -1.3194  0.5131
  735MOL0     H99159   9.691   4.082   4.564  1.7969 -3.8549  0.6925
  735MOL0     H99160  10.087   3.987   4.523  0.9287  0.3005  1.4194
  735MOL0     H99161  10.058   3.849   4.629 -1.6570  0.5205 -0.8177
  735MOL0     H99162   9.997   3.845   4.324  1.7274 -1.3302 -1.5395
  735MOL0     H99163   9.914   3.754   4.442 -0.4355  2.3216  1.3984
  735MOL0     H99164  10.208   3.769   4.382 -0.6294 -0.0365 -4.3851
  735MOL0     H99165  10.106   3.648   4.321 -0.5624  3.6496 -1.8761
  735MOL0     H99166  10.261   3.677   4.575 -1.9778  0.4227  3.6737
  735MOL0     H99167  10.112   3.634   4.634  1.8278 -4.1224  1.9863
  735MOL0     H99168  10.189   3.416   4.609 -2.6915 -0.3499  0.0082
  735MOL0     H99169  10.123   3.428   4.457  0.3452 -2.3088  1.0474
  735MOL0     H99170  10.328   3.333   4.444 -3.3326  0.2477 -2.1925
  735MOL0     H99171  10.340   3.477   4.351 -1.3286 -3.5429 -0.9573
  735MOL0     H99172  10.432   3.484   4.639 -0.7144  1.3456 -0.8710
  735MOL0     H99173  10.506   3.565   4.500 -0.1933  0.7785  0.6402
  735MOL0     H99174  10.641   3.365   4.599  0.2397 -2.6802  0.1845
  735MOL0     H99175  10.499   3.258   4.568 -3.7275  1.7038  3.3744
  735MOL0     H99176  10.771   3.478   4.397 -1.1925  0.3323 -0.3110
  735MOL0     H99177  10.846   3.389   4.059 -0.5254 -4.0019 -0.0190
  735MOL0     H99178  10.935   3.459   4.195  3.1687 -1.9147  2.5945
  735MOL0     H99179  11.033   3.242   4.272 -0.3064 -2.1998  0.0469
  735MOL0     H99180  10.930   3.159   4.155 -1.0704  0.8633 -1.9607
  735MOL0     H99181  11.056   3.281   3.966  1.4138 -0.2154 -0.7732
  735MOL0     H99182  11.142   3.156   4.043  0.5138 -0.2751  1.7911
  735MOL0     H99183  11.162   3.462   4.112 -0.6661 -0.0114  3.4201
  735MOL0     H99184  11.253   3.379   3.991 -0.7649  0.9868  1.5762
  735MOL0     H99185  11.334   3.591   4.096 -0.2670 -0.6255  2.2717
  735MOL0     H99186  11.529   3.728   4.108 -2.7381 -1.1265 -1.3957
  735MOL0     H99187  12.044   3.730   4.160  0.7535 -0.3819 -0.0457
  735MOL0     H99188  12.221   3.898   4.229 -0.2967  1.4649  1.8475
  735MOL0     H99189  12.374   4.130   4.259 -0.3429 -3.1038 -0.4991
  735MOL0     H99190  12.284   4.125   4.107  0.8716  2.3630 -1.1811
  735MOL0     H99191  12.316   4.385   4.264  2.8405  1.2206 -1.1056
  735MOL0     H99192  12.429   4.323   4.138 -1.2757 -0.7401 -3.1977
  735MOL0     H99193  12.243   4.287   3.976  0.4880 -0.1429  0.7316
  735MOL0     H99194  12.132   4.353   4.095 -0.3090 -4.0216 -1.0755
  735MOL0     H99195  12.241   4.583   4.081  0.7148  0.8970 -0.1027
  735MOL0     H99196  12.204   4.532   3.911  2.4379  1.3687 -1.4751
  735MOL0     H99197  12.425   4.431   3.884  3.0408  0.8085 -0.5531
  735MOL0     H99198  12.477   4.506   4.036 -1.1912 -1.0617  0.6240
  735MOL0     H99199  12.340   4.670   3.829 -1.0556 -0.3223  0.4591
  735MOL0     H99200  12.416   4.731   3.965  1.6102 -0.8032  0.6928
  735MOL0     H99201  12.541   4.741   3.743  0.2233  0.8949  2.1754
  735MOL0     H99202  12.557   4.562   3.752 -1.5777 -0.8094  1.2046
  735MOL0     H99203  12.693   4.577   3.961  0.7525 -0.9099 -0.7961
  735MOL0     H99204  12.773   4.661   3.828  2.5176  0.2188  2.1481
  735MOL0     H99205  11.932   4.210   4.222 -0.9652 -0.7538 -1.3276
  735MOL0     H99206  11.756   4.061   4.182  0.5536 -1.1446 -1.5791
  735MOL0     H99207  11.723   3.417   4.335  2.0636  1.8800 -2.0604
  735MOL0     H99208  11.541   3.279   4.317 -0.5273  0.8124  1.1248
  735MOL0     H99209  10.061   4.048   4.767 -0.3108  1.2359 -0.6039
  735MOL0     H99210  10.016   4.252   4.897  2.7070 -0.3172 -2.2727
  735MOL0     H99211   9.755   4.388   5.298 -0.2299  1.8282  2.7979
  735MOL0     H99212   9.725   4.572   5.433 -0.2859 -3.1589  0.8022
  735MOL0     H99213   9.621   4.876   5.571  0.0395  1.4735 -1.6382
  735MOL0     H99214   9.713   4.728   5.554 -0.4555  2.8187  2.4214
  735MOL0     H99215   9.489   4.686   5.664 -2.5187 -1.4515 -0.4846
  735MOL0     H99216   9.499   4.601   5.505  3.5443 -0.2738  0.1982
  735MOL0     H99217   9.367   4.793   5.405 -0.7380 -0.4115 -0.2334
  735MOL0     H99218   9.392   4.882   5.546 -3.0577  0.5050  0.8868
  735MOL0     H99219   9.233   4.630   5.547  1.2141 -0.4611  2.1800
  735MOL0     H99220   9.242   4.738   5.679 -1.6010  0.1376  0.3970
  735MOL0     H99221   8.951   4.921   5.430  1.5274  3.4577  0.3299
  735MOL0     H99222   9.562   4.800   5.114  2.6688  1.1552 -0.4249
  735MOL0     H99223   9.703   4.677   4.856  0.5798  1.8273  1.9752
  735MOL0     H99224   9.576   4.551   4.864  0.8987 -0.5245  1.2499
  735MOL0     H99225   9.540   4.722   4.918 -0.8679 -0.2721  0.3623
  736MOL0     O99226   7.528   9.921   9.920 -0.0563  0.6960  0.5402
  736MOL0     C99227   7.412   9.951   9.903 -0.5121 -1.0749 -0.0026
  736MOL0     O99228   7.349  10.071   9.952 -0.2104 -0.0808  0.5408
  736MOL0     C99229   7.419  10.181  10.000  0.1278  0.3004  0.3440
  736MOL0     C99230   7.559  10.178  10.039 -0.7534 -0.5319 -0.1503
  736MOL0     C99231   7.615  10.301  10.078  0.0437 -0.0005  0.3241
  736MOL0     C99232   7.547  10.418  10.086  0.1183  0.0627 -0.2754
  736MOL0     O99233   7.615  10.526  10.127  0.4195  0.2757 -0.0622
  736MOL0     C99234   7.557  10.649  10.135 -1.4166 -0.2038  0.4912
  736MOL0     C99235   7.676  10.735  10.171 -0.5513  0.0129  0.6136
  736MOL0     C99236   7.635  10.882  10.160 -0.7031  0.1988  0.3080
  736MOL0     C99237   7.570  10.947  10.283 -0.4947  0.3139 -0.9675
  736MOL0     C99238   7.415  10.919  10.290 -0.3280 -0.0544 -0.1819
  736MOL0     C99239   7.342  11.009  10.399 -0.6431  1.1609  0.9511
  736MOL0     C99240   7.399  10.981  10.534 -0.3812 -0.0275 -0.0879
  736MOL0     C99241   7.390  11.115  10.611  0.0037 -0.0539 -0.5001
  736MOL0     N99242   7.448  11.090  10.743  0.3970  0.2754 -0.2032
  736MOL0     C99243   7.580  11.105  10.772  0.1058  0.1638 -0.0690
  736MOL0     C99244   7.573  11.122  10.907 -0.1796 -0.0567  0.3253
  736MOL0     C99245   7.677  11.134  11.010 -0.5837 -0.4059  0.6596
  736MOL0     C99246   7.762  11.262  11.009 -0.3520 -0.3007  0.5451
  736MOL0     C99247   7.702  11.382  11.093 -0.0287  0.1106 -0.3240
  736MOL0     C99248   7.784  11.511  11.068 -0.3931  0.1207  0.1242
  736MOL0     O99249   7.727  11.616  11.142 -0.2069 -0.5798  0.2612
  736MOL0     C99250   7.775  11.748  11.137  0.2329 -0.4713 -0.3162
  736MOL0     C99251   7.872  11.795  11.056  0.0892 -0.1955  0.4399
  736MOL0     C99252   7.903  11.933  11.059 -0.2322  1.2726  0.2609
  736MOL0     C99253   7.833  12.022  11.145  0.2473  0.0486  0.7212
  736MOL0     C99254   7.869  12.161  11.151  0.0189  0.8191  0.4505
  736MOL0     O99255   7.776  12.251  11.191 -0.7996 -0.0476  0.1522
  736MOL0     C99256   7.822  12.381  11.202  0.7448 -0.4721 -0.2111
  736MOL0     C99257   7.939  12.415  11.270  0.2062  0.3726 -0.6799
  736MOL0     C99258   7.982  12.541  11.291  0.2850 -0.7280 -0.0613
  736MOL0     C99259   7.902  12.644  11.235  0.2866 -1.0486  0.4149
  736MOL0     O99260   7.925  12.777  11.265 -0.1236 -0.0590  0.4621
  736MOL0     C99261   8.064  12.815  11.266  0.4110 -0.2997 -0.2948
  736MOL0     C99262   8.112  12.824  11.116  0.3933  0.5669 -0.2356
  736MOL0     C99263   8.243  12.900  11.105 -0.2290 -0.5806 -0.7353
  736MOL0     C99264   8.290  12.911  10.948  0.1614 -0.4374 -1.1331
  736MOL0     C99265   8.441  12.946  10.950  0.0109  0.3362  0.5688
  736MOL0     C99266   8.468  13.076  11.022 -0.7811 -0.8414  0.1265
  736MOL0     C99267   8.572  13.158  10.937  0.5711  0.6735  0.0093
  736MOL0     C99268   8.691  13.064  10.925 -0.6280  0.3522 -0.3981
  736MOL0    Cl99269   8.847  13.154  10.916 -0.1458 -0.2981  0.4350
  736MOL0     C99270   7.781  12.613  11.173 -0.6344 -0.0107 -0.0137
  736MOL0     C99271   7.744  12.480  11.148  0.3277 -0.5283  0.2283
  736MOL0     O99272   7.980  12.192  11.110 -0.5484  0.3398  0.7110
  736MOL0     C99273   7.731  11.970  11.224 -0.0763 -0.6032  0.3182
  736MOL0     C99274   7.699  11.836  11.219 -0.7697 -0.4524  0.1346
  736MOL0     N99275   7.446  11.109  10.946  0.7093 -0.1987 -0.6559
  736MOL0     N99276   7.367  11.081  10.852 -0.2424 -0.0836  0.2478
  736MOL0     C99277   7.408  10.421  10.047 -0.4748  0.7489  1.1811
  736MOL0     C99278   7.353  10.299  10.003  1.2135  0.5179  0.7847
  736MOL0     C99279   7.325   9.860   9.833 -0.1299 -0.0138 -0.4375
  736MOL0     C99280   7.396   9.751   9.771  0.4911  0.8383  0.1221
  736MOL0     C99281   7.326   9.659   9.695  0.7796 -0.0097 -0.1380
  736MOL0     C99282   7.190   9.677   9.663 -1.0951  0.9336 -0.3755
  736MOL0     O99283   7.129   9.593   9.577  0.5060 -0.7111  0.5633
  736MOL0     C99284   7.177   9.468   9.541 -1.0073  0.1688 -0.5372
  736MOL0     C99285   7.102   9.388   9.429  0.1683 -0.0534 -0.5522
  736MOL0     C99286   6.944   9.388   9.450 -0.6550 -0.1514  1.0634
  736MOL0     C99287   6.868   9.322   9.331 -0.0551 -0.3376 -0.2966
  736MOL0     C99288   6.722   9.347   9.341 -1.1550  0.5147 -0.0159
  736MOL0     C99289   6.607   9.376   9.353  0.2443 -0.0551  0.0972
  736MOL0     C99290   7.125   9.781   9.726 -0.2229  0.0359  0.2512
  736MOL0     C99291   7.181   9.874   9.811 -0.4408 -0.9085 -0.1558
  736MOL0     C99292   7.097   9.994   9.856 -0.7531  1.1528  0.3483
  736MOL0     H99293   7.622  10.090  10.035  0.0297 -0.2029  2.7097
  736MOL0     H99294   7.717  10.309  10.114  0.1849  0.7597 -0.2419
  736MOL0     H99295   7.521  10.670  10.034  0.7429 -1.2715 -0.5586
  736MOL0     H99296   7.488  10.656  10.220  0.7033  2.4546  2.1378
  736MOL0     H99297   7.755  10.728  10.096  0.5486  1.2816  1.6180
  736MOL0     H99298   7.727  10.716  10.265 -1.8859  3.7869  2.2666
  736MOL0     H99299   7.572  10.906  10.073 -0.5676 -1.7621 -0.3869
  736MOL0     H99300   7.733  10.925  10.141 -1.5495  0.8312 -3.6497
  736MOL0     H99301   7.625  10.900  10.366  1.2553 -1.1418 -2.8604
  736MOL0     H99302   7.597  11.053  10.284 -1.9730  0.7088 -0.1564
  736MOL0     H99303   7.372  10.929  10.190 -0.1709 -1.6497 -0.4406
  736MOL0     H99304   7.400  10.818  10.328  0.8677  0.3926  1.6029
  736MOL0     H99305   7.342  11.113  10.367  0.4370  0.1157 -3.1652
  736MOL0     H99306   7.236  10.983  10.398 -0.2882 -0.3986  1.0505
  736MOL0     H99307   7.494  10.926  10.535 -2.0317 -3.0085  0.7038
  736MOL0     H99308   7.335  10.902  10.573  0.9427 -2.7201 -2.9407
  736MOL0     H99309   7.441  11.190  10.550  1.7847 -2.9116 -2.8062
  736MOL0     H99310   7.291  11.157  10.632  0.9735  1.9420  0.3621
  736MOL0     H99311   7.671  11.097  10.715 -0.9144  3.6784 -2.4992
  736MOL0     H99312   7.629  11.130  11.108 -2.3500 -3.1984 -0.2002
  736MOL0     H99313   7.749  11.052  10.995 -0.9492 -1.0862  2.4271
  736MOL0     H99314   7.849  11.226  11.064 -1.8272 -0.1097  3.2052
  736MOL0     H99315   7.793  11.294  10.909 -0.3142 -0.6565  0.4418
  736MOL0     H99316   7.696  11.357  11.200  1.0654 -0.4091 -0.3686
  736MOL0     H99317   7.599  11.399  11.059  0.0301 -2.5681 -2.1805
  736MOL0     H99318   7.791  11.532  10.960  0.6870  0.2733  0.2159
  736MOL0     H99319   7.887  11.499  11.103  1.2678  1.2968 -3.7197
  736MOL0     H99320   7.926  11.719  11.001 -1.9688 -0.6007 -1.1240
  736MOL0     H99321   7.977  11.969  10.989  0.9176 -1.0902  0.1695
  736MOL0     H99322   8.007  12.343  11.315 -2.3698 -1.4098  0.5515
  736MOL0     H99323   8.066  12.566  11.354  0.1493 -1.0969  0.2709
  736MOL0     H99324   8.059  12.916  11.307 -1.5572 -0.3066 -0.3982
  736MOL0     H99325   8.123  12.746  11.327 -3.4093 -2.3053  1.4997
  736MOL0     H99326   8.122  12.722  11.078  0.0245  1.6887 -3.6635
  736MOL0     H99327   8.043  12.871  11.045 -1.4201 -0.4044  0.8134
  736MOL0     H99328   8.227  12.999  11.147 -1.2829 -2.2129  3.1852
  736MOL0     H99329   8.326  12.847  11.152  0.4276  1.8474  1.0015
  736MOL0     H99330   8.248  12.990  10.885  0.9899  0.4551 -0.5864
  736MOL0     H99331   8.271  12.814  10.901  0.8804 -0.1973 -1.9509
  736MOL0     H99332   8.476  12.939  10.846  0.7837  0.1371  0.8350
  736MOL0     H99333   8.493  12.863  10.998  3.1020  1.7355 -0.1240
  736MOL0     H99334   8.375  13.133  11.029 -0.9099 -0.3250 -3.6900
  736MOL0     H99335   8.501  13.048  11.122  1.5048  0.3346 -0.2432
  736MOL0     H99336   8.602  13.253  10.983 -4.5409  1.6027  2.1735
  736MOL0     H99337   8.535  13.190  10.839 -0.7227  0.3472  0.3651
  736MOL0     H99338   8.708  13.014  11.021 -0.9701 -0.6682 -0.8526
  736MOL0     H99339   8.683  12.989  10.845 -2.7571  1.5253 -1.3851
  736MOL0     H99340   7.717  12.699  11.157 -0.7266  0.1571  1.1631
  736MOL0     H99341   7.650  12.459  11.097 -1.6129  3.2868  1.7467
  736MOL0     H99342   7.674  12.043  11.281  2.2607  1.8376 -0.2739
  736MOL0     H99343   7.611  11.797  11.269 -1.2748  0.9417  0.3627
  736MOL0     H99344   7.342  10.507  10.056 -2.4063 -0.5135 -0.1824
  736MOL0     H99345   7.248  10.290   9.976  0.4895 -0.3794  3.5592
  736MOL0     H99346   7.503   9.741   9.787  0.5955 -2.1528 -1.5814
  736MOL0     H99347   7.377   9.571   9.656 -0.9914 -1.0478 -0.2274
  736MOL0     H99348   7.174   9.417   9.638 -1.2708 -0.0638 -0.6669
  736MOL0     H99349   7.282   9.475   9.512 -0.4156 -0.0563  1.3947
  736MOL0     H99350   7.135   9.284   9.426  0.2921 -0.0351  0.0607
  736MOL0     H99351   7.113   9.439   9.333 -1.2348  2.0647  0.3396
  736MOL0     H99352   6.901   9.486   9.472 -0.0838  0.6143 -0.9871
  736MOL0     H99353   6.912   9.320   9.530 -1.3321 -2.5417 -1.0881
  736MOL0     H99354   6.904   9.372   9.241  1.9961 -0.9575  0.1170
  736MOL0     H99355   6.876   9.213   9.328 -0.8234 -0.3973 -0.4991
  736MOL0     H99356   6.504   9.400   9.374  0.3377  0.1667  0.3067
  736MOL0     H99357   7.017   9.782   9.716 -0.2732  5.0647 -1.4454
  736MOL0     H99358   7.141  10.080   9.806  4.5020 -1.5060 -0.2412
  736MOL0     H99359   6.991   9.980   9.831 -0.7264 -0.5060  1.0804
  736MOL0     H99360   7.098  10.006   9.965 -1.4780 -0.4955  0.5602
  737MOL0     O99361   5.208   8.870   3.930 -0.1173 -0.4234 -0.6073
  737MOL0     C99362   5.234   8.978   3.982  0.2642  0.1492  0.3322
  737MOL0     O99363   5.286   8.998   4.108 -0.2121  0.3998  0.4316
  737MOL0     C99364   5.338   8.880   4.159  0.2582 -0.6078  0.3468
  737MOL0     C99365   5.477   8.848   4.135  0.5319 -0.4969  0.1799
  737MOL0     C99366   5.538   8.734   4.171 -0.5163  0.7461 -0.3116
  737MOL0     C99367   5.469   8.636   4.234  0.2717  0.0149  0.4193
  737MOL0     O99368   5.519   8.515   4.235  0.3715  0.2329 -0.0668
  737MOL0     C99369   5.484   8.423   4.339 -0.7844  0.3964 -0.4984
  737MOL0     C99370   5.553   8.472   4.463 -0.4144 -0.5633 -0.7736
  737MOL0     C99371   5.533   8.381   4.589 -0.1237 -0.6772  0.8653
  737MOL0     C99372   5.654   8.280   4.601  0.4650 -0.5389  1.0559
  737MOL0     C99373   5.632   8.213   4.732  0.3670 -0.1014 -1.2198
  737MOL0     C99374   5.677   8.070   4.732  0.4460  0.6478  0.7667
  737MOL0     C99375   5.641   7.986   4.850  0.4543  0.3804  0.5058
  737MOL0     C99376   5.663   7.837   4.819  0.0983  0.0367 -0.7468
  737MOL0     N99377   5.557   7.782   4.737  0.2792 -0.3037  0.0342
  737MOL0     C99378   5.430   7.758   4.780  1.1148  0.6323  0.0233
  737MOL0     C99379   5.361   7.693   4.682 -1.5313 -0.5516 -0.2029
  737MOL0     C99380   5.226   7.635   4.685 -0.1007  0.0071  0.1150
  737MOL0     C99381   5.118   7.733   4.621 -1.1242  0.6201  0.0575
  737MOL0     C99382   5.119   7.872   4.701 -0.5891  0.4163  0.6567
  737MOL0     C99383   5.022   7.979   4.644 -0.1653  0.2952  0.9601
  737MOL0     O99384   4.965   8.059   4.749  0.6616 -0.0130 -0.1684
  737MOL0     C99385   5.041   8.156   4.809 -0.1082  0.3116  0.2951
  737MOL0     C99386   5.156   8.214   4.770  0.0941 -0.0648  0.0246
  737MOL0     C99387   5.222   8.305   4.840  0.0262  0.0795  0.1222
  737MOL0     C99388   5.172   8.340   4.964 -0.0874 -0.6130  0.1686
  737MOL0     C99389   5.253   8.418   5.065  0.1239 -0.1230  0.4461
  737MOL0     O99390   5.201   8.416   5.193  0.7829 -1.1313  0.0974
  737MOL0     C99391   5.291   8.460   5.291 -0.8068 -0.4555 -0.1902
  737MOL0     C99392   5.340   8.582   5.306 -0.3814 -0.7097  0.2146
  737MOL0     C99393   5.432   8.623   5.403 -0.2663  0.7077 -0.6866
  737MOL0     C99394   5.482   8.521   5.490  0.4829 -0.1241 -0.0723
  737MOL0     O99395   5.554   8.543   5.608 -0.5418  0.5405  0.5729
  737MOL0     C99396   5.474   8.545   5.730  1.0002  0.1417  0.9314
  737MOL0     C99397   5.557   8.595   5.848 -0.1145  0.6578 -0.2003
  737MOL0     C99398   5.541   8.746   5.875  0.3617  0.1620 -0.4722
  737MOL0     C99399   5.629   8.798   5.997 -0.7014  0.5375  0.7213
  737MOL0     C99400   5.782   8.768   5.972 -1.0124 -0.6037  0.8929
  737MOL0     C99401   5.843   8.842   6.091 -0.0448 -0.3868  0.2679
  737MOL0     C99402   5.991   8.801   6.091  0.8154  0.2441  0.4655
  737MOL0     C99403   6.081   8.905   6.163 -0.6232 -0.1230  0.3218
  737MOL0    Cl99404   6.241   8.844   6.099 -0.3584  0.0288 -0.4700
  737MOL0     C99405   5.436   8.393   5.469 -0.2521 -0.6778  0.0076
  737MOL0     C99406   5.344   8.357   5.369 -0.3431 -0.2618 -0.9311
  737MOL0     O99407   5.366   8.459   5.035  0.1408 -0.2408  0.9806
  737MOL0     C99408   5.039   8.305   5.000 -0.2613  0.0151 -0.5986
  737MOL0     C99409   4.984   8.201   4.932  0.3480  0.9879 -0.3183
  737MOL0     N99410   5.449   7.689   4.574 -0.1261 -0.4548  0.1895
  737MOL0     N99411   5.563   7.737   4.608 -0.8678  0.9604  0.5429
  737MOL0     C99412   5.336   8.664   4.278 -0.2241  0.6204  0.4530
  737MOL0     C99413   5.275   8.788   4.246  0.2693  0.1100 -0.6776
  737MOL0     C99414   5.193   9.095   3.904  0.2685 -0.1548 -0.1477
  737MOL0     C99415   5.115   9.081   3.786  0.0324  0.0899 -0.2284
  737MOL0     C99416   5.069   9.195   3.725  0.0367 -0.0493  0.5286
  737MOL0     C99417   5.087   9.326   3.764  0.7149 -0.5025  0.4750
  737MOL0     O99418   5.030   9.438   3.706  0.3993  0.0464  0.2296
  737MOL0     C99419   4.961   9.427   3.584 -0.0742  0.4310  0.2307
  737MOL0     C99420   5.082   9.426   3.474  0.2793 -0.4430 -0.8876
  737MOL0     C99421   5.154   9.556   3.454  0.7895 -1.1555  0.5460
  737MOL0     C99422   5.259   9.584   3.556  0.3103  0.0093  0.1381
  737MOL0     C99423   5.347   9.692   3.528  0.4349 -1.3971  0.2134
  737MOL0     C99424   5.422   9.787   3.490  0.2548 -0.0727  0.5603
  737MOL0     C99425   5.167   9.346   3.876 -0.5389 -0.0482 -0.6454
  737MOL0     C99426   5.228   9.231   3.942 -0.4728 -0.3490 -0.9312
  737MOL0     C99427   5.325   9.271   4.054 -0.1071 -0.5141  0.3444
  737MOL0     H99428   5.528   8.927   4.081  0.9081 -0.6817  0.2574
  737MOL0     H99429   5.640   8.735   4.135 -0.3438  3.0871  0.0494
  737MOL0     H99430   5.378   8.401   4.356 -0.6598 -0.4885 -0.8557
  737MOL0     H99431   5.524   8.329   4.302 -1.7494 -1.4265  2.7278
  737MOL0     H99432   5.527   8.575   4.492  1.3428 -0.1437 -0.4963
  737MOL0     H99433   5.658   8.492   4.436 -1.1175  4.6118 -0.7659
  737MOL0     H99434   5.436   8.331   4.596 -1.4487  1.7800  0.9055
  737MOL0     H99435   5.538   8.453   4.671 -0.2240  0.4227 -0.0846
  737MOL0     H99436   5.648   8.206   4.520 -1.1760 -1.2595  1.7866
  737MOL0     H99437   5.742   8.344   4.604  0.3204 -0.3129  0.6048
  737MOL0     H99438   5.663   8.271   4.820 -0.0970 -0.8787 -0.5289
  737MOL0     H99439   5.525   8.206   4.757  0.5517 -0.7125 -0.5654
  737MOL0     H99440   5.641   8.014   4.645  1.4776  0.5122  0.4137
  737MOL0     H99441   5.785   8.061   4.725  0.3354 -1.1883  0.8645
  737MOL0     H99442   5.537   8.013   4.872  0.4232  1.0615 -0.4266
  737MOL0     H99443   5.705   8.015   4.934  0.4333  1.1249  0.2668
  737MOL0     H99444   5.760   7.817   4.774 -0.1402  0.4924 -1.4919
  737MOL0     H99445   5.672   7.775   4.909  1.8927 -0.8251 -1.4717
  737MOL0     H99446   5.385   7.788   4.874 -3.1975 -1.7444 -1.0609
  737MOL0     H99447   5.219   7.539   4.633 -0.1023  0.6693 -1.1647
  737MOL0     H99448   5.205   7.604   4.787  0.1181  1.4819  0.6395
  737MOL0     H99449   5.137   7.757   4.516 -1.4563  0.2736 -0.0850
  737MOL0     H99450   5.023   7.679   4.625  0.2710 -2.0667 -0.2308
  737MOL0     H99451   5.215   7.923   4.711  0.1736 -1.1015  1.3622
  737MOL0     H99452   5.085   7.853   4.803  0.3248  2.8885  1.4955
  737MOL0     H99453   4.933   7.945   4.589  1.6614 -1.4069 -1.1080
  737MOL0     H99454   5.080   8.043   4.577 -1.8056 -0.8201 -1.6963
  737MOL0     H99455   5.203   8.168   4.683 -0.9457 -1.1560  0.0090
  737MOL0     H99456   5.320   8.335   4.803 -0.5834  1.8607 -0.1002
  737MOL0     H99457   5.323   8.662   5.236  0.9682  0.6249  1.3343
  737MOL0     H99458   5.441   8.731   5.401 -0.3261  0.8087  1.7476
  737MOL0     H99459   5.386   8.603   5.703 -1.6543 -4.3915 -1.3913
  737MOL0     H99460   5.430   8.446   5.746  0.1119 -0.0095 -1.9460
  737MOL0     H99461   5.516   8.546   5.936  1.3197 -0.2213  0.0222
  737MOL0     H99462   5.664   8.569   5.840  0.0672  1.7612 -1.9395
  737MOL0     H99463   5.560   8.799   5.781  1.3001 -1.7499 -1.4419
  737MOL0     H99464   5.436   8.756   5.900 -0.3036 -1.0581 -2.5078
  737MOL0     H99465   5.592   8.756   6.092 -2.8804  4.6580  1.9429
  737MOL0     H99466   5.600   8.902   6.016 -0.0200  1.3264 -2.0942
  737MOL0     H99467   5.818   8.820   5.883  0.6229  0.0956  1.9117
  737MOL0     H99468   5.818   8.665   5.975 -0.0589 -0.4568 -2.3825
  737MOL0     H99469   5.836   8.949   6.073 -2.3524 -0.6676 -0.8104
  737MOL0     H99470   5.789   8.825   6.185 -3.0612 -0.1879 -1.3182
  737MOL0     H99471   6.015   8.797   5.985 -1.5813  1.1186 -0.1694
  737MOL0     H99472   6.007   8.704   6.140  0.0040  0.5934  1.4616
  737MOL0     H99473   6.065   9.009   6.133  0.7134  0.3335  1.0651
  737MOL0     H99474   6.075   8.904   6.273  0.3370 -0.5925  0.3841
  737MOL0     H99475   5.489   8.309   5.513  2.5990  0.7472 -0.4376
  737MOL0     H99476   5.306   8.257   5.352  2.2639 -0.8853 -3.9411
  737MOL0     H99477   4.987   8.348   5.085 -3.5119  0.0950 -2.4602
  737MOL0     H99478   4.893   8.160   4.973  0.6357  0.9696  0.3143
  737MOL0     H99479   5.267   8.600   4.333 -1.6178  0.3770 -1.4948
  737MOL0     H99480   5.178   8.806   4.292  1.3067 -2.1376  2.7384
  737MOL0     H99481   5.105   8.985   3.737 -1.1852  0.5254 -0.8718
  737MOL0     H99482   5.016   9.161   3.637 -1.2640 -0.5445  1.4629
  737MOL0     H99483   4.892   9.511   3.572 -2.6896 -1.9224 -3.2514
  737MOL0     H99484   4.902   9.335   3.585 -1.1014  1.0437  2.6942
  737MOL0     H99485   5.032   9.413   3.377 -4.9736 -0.6749  1.5274
  737MOL0     H99486   5.157   9.347   3.485  2.4322  1.7915  1.9732
  737MOL0     H99487   5.092   9.642   3.483  2.1779  0.0993 -0.1037
  737MOL0     H99488   5.190   9.573   3.352 -1.2179 -0.6592 -0.1241
  737MOL0     H99489   5.211   9.610   3.650 -0.1248  1.8267 -0.5422
  737MOL0     H99490   5.317   9.493   3.577  4.5855  2.8883  2.1720
  737MOL0     H99491   5.481   9.856   3.432 -1.5054 -0.2164 -1.4949
  737MOL0     H99492   5.185   9.448   3.910  0.3169 -0.0110 -1.1828
  737MOL0     H99493   5.411   9.203   4.063 -0.4411 -1.3378 -2.0285
  737MOL0     H99494   5.356   9.375   4.037  0.0256 -0.5255  0.5107
  737MOL0     H99495   5.274   9.266   4.150  2.4012  2.2143  1.9918
  738MOL0     O99496   5.814   4.855   8.607  0.5722 -0.1177 -1.4886
  738MOL0     C99497   5.775   4.741   8.580 -0.0263  0.7074 -0.0446
  738MOL0     O99498   5.826   4.632   8.634  0.3600 -0.2869 -0.1451
  738MOL0     C99499   5.883   4.658   8.758 -0.4785  1.0707 -0.4292
  738MOL0     C99500   5.801   4.645   8.867 -0.5014  0.1646 -0.5243
  738MOL0     C99501   5.842   4.678   8.997  0.2499 -0.8647 -0.3123
  738MOL0     C99502   5.977   4.710   9.014  0.2093 -0.0605  0.5236
  738MOL0     O99503   6.031   4.742   9.138  0.1764 -0.0055  0.1051
  738MOL0     C99504   5.941   4.802   9.241 -0.4380  0.6288 -0.3766
  738MOL0     C99505   6.010   4.892   9.344  0.1168 -0.7189  0.4962
  738MOL0     C99506   6.137   4.839   9.402  0.0661 -0.1456 -0.1304
  738MOL0     C99507   6.209   4.932   9.502 -0.0420  0.3336  1.1669
  738MOL0     C99508   6.298   4.874   9.606 -0.9093  0.1804  0.5046
  738MOL0     C99509   6.426   4.804   9.547  0.0117 -0.0447  0.3762
  738MOL0     C99510   6.495   4.726   9.655  1.5458 -0.5416 -0.0202
  738MOL0     C99511   6.638   4.698   9.613 -0.3757  0.2895  0.5443
  738MOL0     N99512   6.717   4.819   9.605 -0.8822 -0.8339 -0.2907
  738MOL0     C99513   6.757   4.884   9.488 -0.2198  0.8429 -0.0961
  738MOL0     C99514   6.865   4.947   9.522 -0.2942  0.5145  0.3499
  738MOL0     C99515   6.955   5.032   9.444 -1.2863 -0.1633  0.2525
  738MOL0     C99516   7.091   4.971   9.421 -0.9023  0.0329 -0.3205
  738MOL0     C99517   7.114   4.896   9.291 -0.2720 -0.2992  0.5503
  738MOL0     C99518   7.269   4.880   9.271  0.0056 -0.4157  0.6153
  738MOL0     O99519   7.345   4.794   9.353 -0.3943  0.6979 -0.7748
  738MOL0     C99520   7.448   4.854   9.429 -0.0962 -0.2466 -0.1120
  738MOL0     C99521   7.573   4.899   9.378 -0.1993  0.2203 -0.5987
  738MOL0     C99522   7.676   4.945   9.465 -0.0939 -0.0025 -0.6639
  738MOL0     C99523   7.657   4.941   9.606  0.3574  0.4826  0.6657
  738MOL0     C99524   7.761   4.992   9.698  0.1063 -0.1599 -0.7267
  738MOL0     O99525   7.867   5.062   9.660  0.0052  0.6395  0.4516
  738MOL0     C99526   7.966   5.087   9.753 -0.2126  0.5986 -0.0513
  738MOL0     C99527   8.026   4.985   9.816  0.2898 -0.3354  0.6285
  738MOL0     C99528   8.129   5.014   9.901 -0.2932 -0.2729  0.2829
  738MOL0     C99529   8.169   5.138   9.936 -0.3604  0.5234  0.7291
  738MOL0     O99530   8.258   5.171  10.035 -0.4318  0.0314  0.0541
  738MOL0     C99531   8.381   5.089  10.031  0.2352 -0.7314 -0.5037
  738MOL0     C99532   8.491   5.187  10.081 -0.0126  0.2817 -0.7115
  738MOL0     C99533   8.510   5.309   9.989 -0.7467 -0.2457 -0.1052
  738MOL0     C99534   8.618   5.412  10.031 -1.0090 -0.7707  1.1691
  738MOL0     C99535   8.579   5.546   9.958  0.0721 -0.4892 -0.8701
  738MOL0     C99536   8.673   5.669   9.969  0.2935  0.6307  0.2908
  738MOL0     C99537   8.669   5.734  10.114 -0.6006 -0.5646  0.4183
  738MOL0     C99538   8.762   5.856  10.106  0.5027 -0.2657 -0.5489
  738MOL0    Cl99539   8.710   5.996  10.209 -0.6970  0.4849  0.4079
  738MOL0     C99540   8.103   5.246   9.866 -0.1672  0.2207 -0.6643
  738MOL0     C99541   8.001   5.216   9.773  0.1920  0.6359  0.1147
  738MOL0     O99542   7.740   4.966   9.813  0.5808  0.6430 -0.0626
  738MOL0     C99543   7.543   4.887   9.651  0.2105 -0.1818  0.2539
  738MOL0     C99544   7.443   4.834   9.567 -0.4173  0.2597 -0.4778
  738MOL0     N99545   6.884   4.933   9.657  0.1956  0.9634  0.0857
  738MOL0     N99546   6.799   4.850   9.711 -0.6346  0.0804  0.0389
  738MOL0     C99547   6.066   4.702   8.904  0.1652 -0.0161  0.2647
  738MOL0     C99548   6.021   4.673   8.776 -0.3047 -0.2615  0.3420
  738MOL0     C99549   5.655   4.720   8.495  0.2061 -0.5766  0.9406
  738MOL0     C99550   5.653   4.592   8.433 -0.6952 -0.0945  0.1381
  738MOL0     C99551   5.545   4.556   8.356 -0.8410  0.6381  0.9856
  738MOL0     C99552   5.443   4.642   8.330  0.5719  0.5979  0.3317
  738MOL0     O99553   5.345   4.604   8.242  0.3165  0.9509  0.2559
  738MOL0     C99554   5.222   4.684   8.227 -0.1006  0.2176 -0.8624
  738MOL0     C99555   5.113   4.676   8.334 -0.4794  0.5696 -0.0869
  738MOL0     C99556   4.982   4.716   8.270  0.0071 -0.1236  0.4328
  738MOL0     C99557   4.857   4.676   8.363 -0.5614  0.2161  1.1440
  738MOL0     C99558   4.731   4.674   8.293 -0.1517 -0.0777  0.3420
  738MOL0     C99559   4.634   4.639   8.231  0.9093 -0.4145  0.8550
  738MOL0     C99560   5.442   4.774   8.392 -0.1255  0.7390 -0.0875
  738MOL0     C99561   5.545   4.813   8.478 -0.9175  0.3040 -0.0002
  738MOL0     C99562   5.536   4.946   8.551  0.1044  1.0924 -0.4374
  738MOL0     H99563   5.700   4.605   8.868 -0.8435  1.0004 -0.8037
  738MOL0     H99564   5.777   4.668   9.084 -0.4712  1.0414 -0.5675
  738MOL0     H99565   5.878   4.872   9.185 -0.6145 -0.3942 -1.4924
  738MOL0     H99566   5.881   4.735   9.302  1.5238 -0.4205  0.5133
  738MOL0     H99567   5.944   4.934   9.420 -0.6712  0.9693 -1.0364
  738MOL0     H99568   6.027   4.984   9.286  1.0567 -0.6353  0.8887
  738MOL0     H99569   6.198   4.808   9.317 -0.2964 -0.9475 -0.1104
  738MOL0     H99570   6.114   4.744   9.451  2.1632 -1.6509 -1.8558
  738MOL0     H99571   6.282   4.988   9.443 -1.7436  0.2982 -1.1462
  738MOL0     H99572   6.133   5.000   9.541 -2.2025 -0.0984 -1.8832
  738MOL0     H99573   6.344   4.956   9.662  0.8543  0.8595 -1.8007
  738MOL0     H99574   6.240   4.799   9.661 -1.1240  0.0924  0.1634
  738MOL0     H99575   6.392   4.736   9.468 -7.2727 -1.2115  3.6476
  738MOL0     H99576   6.487   4.878   9.495 -2.7939  1.0960 -1.5374
  738MOL0     H99577   6.433   4.637   9.667 -1.8103  1.2454 -2.4461
  738MOL0     H99578   6.507   4.777   9.751  3.5569  0.7637 -0.9060
  738MOL0     H99579   6.690   4.631   9.682  0.7925 -1.6233 -2.0272
  738MOL0     H99580   6.626   4.645   9.518  1.5366  0.0020  0.4280
  738MOL0     H99581   6.706   4.882   9.392  0.8528  0.7885 -0.6727
  738MOL0     H99582   6.915   5.045   9.343  0.9834 -0.4214 -0.7452
  738MOL0     H99583   6.972   5.129   9.491  0.2616 -0.6672  0.8024
  738MOL0     H99584   7.162   5.054   9.420  0.4596 -1.0789  0.1931
  738MOL0     H99585   7.139   4.911   9.499  1.1117 -0.0863 -1.5558
  738MOL0     H99586   7.070   4.948   9.205  3.5599  4.8638  1.1807
  738MOL0     H99587   7.072   4.796   9.279 -0.3173 -0.0029 -2.7647
  738MOL0     H99588   7.315   4.978   9.254 -0.9485  0.0329  0.5563
  738MOL0     H99589   7.263   4.825   9.176 -0.5503 -2.4387  1.7686
  738MOL0     H99590   7.569   4.907   9.270  1.1799  0.0684 -0.6720
  738MOL0     H99591   7.758   4.999   9.419  0.5442 -0.9275 -0.6324
  738MOL0     H99592   8.010   4.877   9.808  0.5106 -0.4594  1.6740
  738MOL0     H99593   8.190   4.936   9.945  1.6930  1.4419  0.7233
  738MOL0     H99594   8.364   5.013  10.107 -1.3903 -1.0862 -1.1953
  738MOL0     H99595   8.404   5.041   9.935  2.3788  1.1516 -1.0483
  738MOL0     H99596   8.462   5.216  10.182 -1.3641 -1.2576 -0.6303
  738MOL0     H99597   8.592   5.146  10.091  0.5215  1.7947  0.5622
  738MOL0     H99598   8.527   5.287   9.883  2.6612  0.2758  0.2085
  738MOL0     H99599   8.413   5.359   9.996 -0.2370  0.4959  3.3467
  738MOL0     H99600   8.719   5.382  10.003 -0.4030  0.8295  1.5066
  738MOL0     H99601   8.642   5.437  10.135 -1.0063  3.6932  0.2906
  738MOL0     H99602   8.480   5.575   9.997  0.6707 -0.5793  0.8002
  738MOL0     H99603   8.573   5.526   9.851 -0.3165  0.1908 -0.9810
  738MOL0     H99604   8.776   5.635   9.951 -1.2250 -4.2847 -0.6347
  738MOL0     H99605   8.646   5.732   9.884 -1.2149 -1.1330 -0.5995
  738MOL0     H99606   8.710   5.670  10.193 -1.5755 -0.5573  0.9578
  738MOL0     H99607   8.569   5.775  10.135 -0.4025  1.1585 -1.6489
  738MOL0     H99608   8.860   5.818  10.137  1.8650 -0.6842 -4.7015
  738MOL0     H99609   8.776   5.888  10.002  1.0313 -0.3924 -0.5177
  738MOL0     H99610   8.144   5.344   9.888  2.8510 -0.9745 -0.5146
  738MOL0     H99611   7.953   5.288   9.708  0.0953  0.0053 -0.5304
  738MOL0     H99612   7.522   4.867   9.755 -1.9252 -0.4378 -0.1619
  738MOL0     H99613   7.358   4.778   9.604 -0.8382  2.4148  2.1480
  738MOL0     H99614   6.169   4.734   8.918 -0.3675  3.6102 -2.5212
  738MOL0     H99615   6.080   4.678   8.684 -0.0422 -0.3151  0.5070
  738MOL0     H99616   5.744   4.532   8.431 -0.1474  0.6855  0.8781
  738MOL0     H99617   5.551   4.471   8.289  4.3090  1.3871  0.0367
  738MOL0     H99618   5.183   4.648   8.132  0.8386 -0.7001 -0.9233
  738MOL0     H99619   5.257   4.787   8.220  2.3858 -0.2492  2.2044
  738MOL0     H99620   5.141   4.737   8.420  3.3757  0.5293 -1.1677
  738MOL0     H99621   5.100   4.574   8.371 -0.4822  0.3983 -0.5584
  738MOL0     H99622   4.989   4.654   8.180  0.9612 -1.5142  1.4199
  738MOL0     H99623   4.987   4.824   8.254  1.6999 -0.4749 -2.0423
  738MOL0     H99624   4.856   4.579   8.412 -4.2382  1.0960  3.1817
  738MOL0     H99625   4.844   4.748   8.444 -1.7109 -2.7481  3.8022
  738MOL0     H99626   4.550   4.596   8.180  0.6645  1.3590 -0.3481
  738MOL0     H99627   5.358   4.840   8.373 -1.3819 -0.7953 -0.0055
  738MOL0     H99628   5.431   4.977   8.553  0.9333  4.2076  1.4262
  738MOL0     H99629   5.571   4.938   8.654 -1.6638  0.2458  0.1364
  738MOL0     H99630   5.595   5.024   8.502  2.1500 -1.1469 -1.7632
  739MOL0     O99631   6.708  10.896   9.476  0.3171 -0.4507 -0.2816
  739MOL0     C99632   6.754  10.793   9.432  0.2380  0.4587  0.3122
  739MOL0     O99633   6.866  10.733   9.477  0.5409 -0.1895 -0.0205
  739MOL0     C99634   6.923  10.788   9.582 -0.3749 -0.9292 -1.3991
  739MOL0     C99635   7.061  10.819   9.584 -0.3111  0.2985 -0.4603
  739MOL0     C99636   7.118  10.881   9.689 -0.6249  0.0652  0.6799
  739MOL0     C99637   7.056  10.916   9.810 -0.0048  1.1086 -0.2382
  739MOL0     O99638   7.121  10.976   9.916 -0.0228  0.0956  0.2454
  739MOL0     C99639   7.046  11.057  10.012  0.5295  0.4828  0.4226
  739MOL0     C99640   6.993  11.192   9.949  1.1698 -0.0280 -0.6851
  739MOL0     C99641   7.108  11.292   9.912  0.6770  0.7915  0.0104
  739MOL0     C99642   7.210  11.335  10.023 -0.1562  0.1135  1.1504
  739MOL0     C99643   7.323  11.425   9.945  1.1514 -0.1801 -0.0180
  739MOL0     C99644   7.439  11.450  10.042  0.0705 -0.1283 -0.2689
  739MOL0     C99645   7.385  11.516  10.167 -0.2338  1.2934 -0.2155
  739MOL0     C99646   7.484  11.597  10.252  0.1413 -0.2196 -1.1086
  739MOL0     N99647   7.600  11.513  10.285 -0.6270 -0.3542 -0.2252
  739MOL0     C99648   7.708  11.506  10.207 -1.0552  0.9871 -0.3372
  739MOL0     C99649   7.771  11.394  10.248  0.1709  0.6097  0.4816
  739MOL0     C99650   7.895  11.352  10.180 -0.6893  0.4510  0.6671
  739MOL0     C99651   7.881  11.281  10.044  0.6248  0.4401 -0.7970
  739MOL0     C99652   7.811  11.366   9.935  0.3653  0.1945 -0.4259
  739MOL0     C99653   7.794  11.278   9.812  0.2490 -0.1791 -0.3094
  739MOL0     O99654   7.714  11.150   9.829  0.5118 -0.7278  0.7525
  739MOL0     C99655   7.776  11.029   9.823  0.0355 -0.1494  0.0465
  739MOL0     C99656   7.914  11.007   9.845  0.3373 -0.3417 -0.3562
  739MOL0     C99657   7.974  10.879   9.843  0.4032  0.3115 -0.2533
  739MOL0     C99658   7.901  10.763   9.830 -0.3383  0.0171  0.0337
  739MOL0     C99659   7.962  10.624   9.834  0.8583  0.1284  0.0669
  739MOL0     O99660   7.865  10.532   9.856  0.0044 -0.3427  0.2958
  739MOL0     C99661   7.905  10.405   9.884  0.4238 -0.0614 -0.2703
  739MOL0     C99662   8.008  10.366   9.970 -0.5305  0.3060  0.1129
  739MOL0     C99663   8.042  10.234  10.007  0.3831 -0.0686 -0.9661
  739MOL0     C99664   7.958  10.136   9.956  0.7607 -0.1995 -0.8047
  739MOL0     O99665   7.958  10.001   9.991 -0.1176 -0.2048 -0.0182
  739MOL0     C99666   8.049   9.953  10.091 -0.3597 -0.1180 -0.1088
  739MOL0     C99667   8.052   9.795  10.102  0.0799  0.5791 -0.0796
  739MOL0     C99668   7.914   9.751  10.152 -0.2355  0.0529 -0.3653
  739MOL0     C99669   7.886   9.799  10.300 -0.1809  0.3392  0.3886
  739MOL0     C99670   7.742   9.781  10.352 -0.4180  1.5191  0.5234
  739MOL0     C99671   7.635   9.863  10.278  0.2023 -0.1928  0.6869
  739MOL0     C99672   7.490   9.838  10.325  0.2486 -0.5187  0.3739
  739MOL0     C99673   7.408   9.958  10.288 -0.1496 -0.1465  0.6800
  739MOL0    Cl99674   7.239   9.936  10.360  0.0366  0.1627  0.1506
  739MOL0     C99675   7.853  10.171   9.872  0.1250  0.6720  0.6817
  739MOL0     C99676   7.830  10.295   9.837  0.2282 -0.3416  0.1429
  739MOL0     O99677   8.077  10.603   9.816 -0.2783  0.1553  0.0410
  739MOL0     C99678   7.765  10.778   9.815  0.2945 -0.8342 -0.4886
  739MOL0     C99679   7.701  10.910   9.815  0.7609 -0.1668  0.0570
  739MOL0     N99680   7.700  11.334  10.349 -0.6340  0.6774  0.1551
  739MOL0     N99681   7.591  11.408  10.370 -0.2968  0.9675  0.8007
  739MOL0     C99682   6.921  10.882   9.808  0.2896 -0.0396 -0.0410
  739MOL0     C99683   6.853  10.821   9.697  0.2689  0.3067  0.1957
  739MOL0     C99684   6.677  10.737   9.315 -0.2208 -0.4611  0.2323
  739MOL0     C99685   6.547  10.783   9.288  0.1218  0.4685  0.2545
  739MOL0     C99686   6.469  10.737   9.180  0.2605 -0.5080  0.4156
  739MOL0     C99687   6.528  10.655   9.083  0.2729 -0.0920  0.4888
  739MOL0     O99688   6.451  10.622   8.975 -0.6815  0.4657  0.0221
  739MOL0     C99689   6.513  10.594   8.855 -0.5525 -1.2674 -0.0666
  739MOL0     C99690   6.420  10.552   8.744  0.2280  0.2289 -0.7679
  739MOL0     C99691   6.334  10.429   8.790 -0.9046 -0.7178  0.6723
  739MOL0     C99692   6.254  10.362   8.679  0.0340  0.3524  0.1860
  739MOL0     C99693   6.207  10.232   8.719 -0.2918 -0.0385 -0.7086
  739MOL0     C99694   6.158  10.125   8.753 -0.5625 -0.8140 -0.1956
  739MOL0     C99695   6.666  10.625   9.100  0.9387  0.5871 -0.4518
  739MOL0     C99696   6.731  10.645   9.221  0.2501 -0.1075  1.2342
  739MOL0     C99697   6.856  10.562   9.240 -0.1122  0.3722 -1.1713
  739MOL0     H99698   7.109  10.800   9.489 -4.3946  0.8712 -2.8665
  739MOL0     H99699   7.222  10.903   9.667 -0.5845  0.6970  1.4910
  739MOL0     H99700   6.967  10.995  10.055  3.3972 -4.0720 -0.2762
  739MOL0     H99701   7.112  11.085  10.095  0.2693  2.1065  0.1249
  739MOL0     H99702   6.912  11.242  10.004 -0.6456  0.7937 -3.8491
  739MOL0     H99703   6.947  11.160   9.855 -1.6012 -0.4579  0.7283
  739MOL0     H99704   7.064  11.369   9.848 -2.6117 -1.4492 -0.6612
  739MOL0     H99705   7.170  11.231   9.846 -1.0055 -0.5899 -0.3632
  739MOL0     H99706   7.158  11.394  10.099  1.3979  2.3816  0.5657
  739MOL0     H99707   7.256  11.245  10.063  2.7026 -0.9129 -3.5658
  739MOL0     H99708   7.362  11.364   9.864  2.1386  2.0599 -1.2929
  739MOL0     H99709   7.278  11.521   9.918  0.7008  1.5163  5.4706
  739MOL0     H99710   7.501  11.365  10.072 -0.7290  0.7836  4.9163
  739MOL0     H99711   7.504  11.518   9.985  0.1195 -0.4914 -0.6521
  739MOL0     H99712   7.342  11.433  10.224  0.3304  0.1159 -1.4476
  739MOL0     H99713   7.309  11.589  10.140 -0.6420  1.1305  0.4702
  739MOL0     H99714   7.531  11.680  10.198 -0.9838  1.0679 -0.1851
  739MOL0     H99715   7.445  11.630  10.348  2.6365 -1.5246  0.4474
  739MOL0     H99716   7.748  11.569  10.129 -0.5751  0.0389 -0.8644
  739MOL0     H99717   7.965  11.430  10.149  0.9025 -1.4593 -0.8643
  739MOL0     H99718   7.956  11.281  10.237 -1.1316 -0.7357 -0.2697
  739MOL0     H99719   7.978  11.246  10.009  0.2917 -0.0126 -1.2695
  739MOL0     H99720   7.821  11.191  10.061  2.3170 -1.0521 -2.3221
  739MOL0     H99721   7.867  11.458   9.918 -0.7423  0.7669 -1.0993
  739MOL0     H99722   7.711  11.400   9.965  1.1689  0.6103  2.0170
  739MOL0     H99723   7.884  11.259   9.753 -1.1604  0.8983 -2.9476
  739MOL0     H99724   7.729  11.333   9.744  0.0384  2.0946  1.5774
  739MOL0     H99725   7.976  11.092   9.869  0.5989 -1.2546  2.6286
  739MOL0     H99726   8.075  10.877   9.882  0.2568 -2.3400  0.2238
  739MOL0     H99727   8.071  10.449  10.002 -2.0265  2.1104 -1.3548
  739MOL0     H99728   8.128  10.226  10.073 -1.1977 -0.2008  1.1911
  739MOL0     H99729   8.143  10.000  10.060 -0.6915 -0.1061 -1.1373
  739MOL0     H99730   8.029  10.010  10.182  1.0924  3.5745 -1.8612
  739MOL0     H99731   8.068   9.760  10.000 -2.2746  1.9810 -1.0325
  739MOL0     H99732   8.118   9.752  10.177 -2.5103 -2.1306  0.8592
  739MOL0     H99733   7.837   9.794  10.088 -2.5590  2.3325  3.5053
  739MOL0     H99734   7.920   9.642  10.140  1.1566  0.2399 -1.5789
  739MOL0     H99735   7.916   9.902  10.319  1.0009 -0.1657  1.4520
  739MOL0     H99736   7.948   9.736  10.365 -1.6983  0.9571  2.5450
  739MOL0     H99737   7.727   9.828  10.450 -0.9505 -2.8013  2.7199
  739MOL0     H99738   7.724   9.673  10.350 -0.5866  1.5639 -0.9119
  739MOL0     H99739   7.655   9.971  10.279 -3.4958  0.6518  2.5711
  739MOL0     H99740   7.635   9.829  10.174 -1.3329 -0.7376  0.8322
  739MOL0     H99741   7.493   9.835  10.435  1.2494 -0.9862  0.3433
  739MOL0     H99742   7.445   9.751  10.276 -0.8492 -0.6477  1.5540
  739MOL0     H99743   7.464  10.041  10.332  0.2384  0.8308 -1.5546
  739MOL0     H99744   7.400   9.971  10.180 -1.9778  1.7282  0.9715
  739MOL0     H99745   7.786  10.097   9.830 -2.1808  3.5129 -1.0548
  739MOL0     H99746   7.747  10.309   9.769 -0.1604  1.9592  0.9941
  739MOL0     H99747   7.701  10.693   9.794 -1.5833 -0.1237  1.8849
  739MOL0     H99748   7.595  10.920   9.796  1.5506  3.2841 -4.0898
  739MOL0     H99749   6.863  10.891   9.900 -0.6408  1.6139 -0.7401
  739MOL0     H99750   6.749  10.791   9.708  1.0058 -2.2912  0.9187
  739MOL0     H99751   6.504  10.851   9.360 -0.6060  0.7326 -0.4225
  739MOL0     H99752   6.367  10.772   9.165  0.9163  0.6090 -1.8160
  739MOL0     H99753   6.576  10.507   8.872 -2.8833 -2.4025  4.2431
  739MOL0     H99754   6.567  10.682   8.819  0.6389 -1.8215  0.3117
  739MOL0     H99755   6.480  10.528   8.655 -0.6310  0.8803 -1.5427
  739MOL0     H99756   6.346  10.622   8.703 -1.2923 -1.8692 -1.8457
  739MOL0     H99757   6.264  10.464   8.866 -2.3942  0.9354 -1.3211
  739MOL0     H99758   6.401  10.355   8.834  0.9547  1.0797  1.0604
  739MOL0     H99759   6.165  10.420   8.656  1.7367  1.6400 -3.9877
  739MOL0     H99760   6.312  10.361   8.587 -0.4078  3.9082 -0.2564
  739MOL0     H99761   6.113  10.033   8.784  1.0093 -0.6431  2.9615
  739MOL0     H99762   6.709  10.550   9.034 -1.8424  0.3570 -2.1732
  739MOL0     H99763   6.949  10.619   9.238 -0.5748  1.6381  3.2806
  739MOL0     H99764   6.850  10.519   9.341 -0.4792 -0.7265 -1.6386
  739MOL0     H99765   6.863  10.477   9.171  0.1147 -0.8667  0.3037
  740MOL0     O99766   6.890   6.627   8.542  0.2071 -0.3036 -0.0490
  740MOL0     C99767   6.906   6.548   8.452  0.4603  0.3369  0.4836
  740MOL0     O99768   7.022   6.527   8.381  0.1044 -0.0566  0.5692
  740MOL0     C99769   7.139   6.532   8.442 -0.1938 -1.0284 -0.7532
  740MOL0     C99770   7.166   6.530   8.585  0.2369  0.0240  0.1923
  740MOL0     C99771   7.298   6.521   8.623 -0.0516  0.2100  0.0235
  740MOL0     C99772   7.400   6.518   8.530 -0.9542  0.0731  0.0344
  740MOL0     O99773   7.534   6.501   8.560  0.3642  0.1281  0.3450
  740MOL0     C99774   7.591   6.529   8.689  0.7245 -0.7326 -0.6924
  740MOL0     C99775   7.744   6.552   8.678 -0.1273  0.0660 -0.1345
  740MOL0     C99776   7.780   6.689   8.621  0.2648  0.1271  0.3315
  740MOL0     C99777   7.726   6.726   8.484  0.3919  0.1395  1.1669
  740MOL0     C99778   7.807   6.842   8.427  0.0085  0.2265 -0.9466
  740MOL0     C99779   7.766   6.859   8.284 -0.4081  0.3110 -0.0238
  740MOL0     C99780   7.849   6.777   8.178  0.0863  0.2136 -0.7730
  740MOL0     C99781   7.795   6.798   8.038 -0.1049  0.2084 -0.3037
  740MOL0     N99782   7.650   6.776   8.034 -0.9390  0.1895 -0.5580
  740MOL0     C99783   7.560   6.874   8.012 -0.7349  0.2249  0.0107
  740MOL0     C99784   7.440   6.805   8.029  0.3954 -1.1508 -0.2338
  740MOL0     C99785   7.300   6.863   8.021 -0.5135  0.5757  0.1898
  740MOL0     C99786   7.274   6.953   7.896 -0.3419 -0.3795  0.3760
  740MOL0     C99787   7.330   6.899   7.763  0.2788  0.6646  0.3928
  740MOL0     C99788   7.219   6.907   7.654  0.1595 -0.4850  0.2641
  740MOL0     O99789   7.183   7.052   7.634  0.4536 -0.3164 -0.0399
  740MOL0     C99790   7.067   7.044   7.565  0.5784  0.5183 -0.4675
  740MOL0     C99791   6.936   7.040   7.625 -0.1131  1.4953 -0.2139
  740MOL0     C99792   6.827   7.045   7.538  0.3718 -0.6011  0.2084
  740MOL0     C99793   6.834   7.054   7.403 -0.4157 -0.1858  0.3881
  740MOL0     C99794   6.715   7.042   7.306  0.0001  0.2654 -0.1660
  740MOL0     O99795   6.594   7.061   7.362  0.0889 -0.6090 -0.2901
  740MOL0     C99796   6.477   7.057   7.287 -0.1782  0.3965 -0.3943
  740MOL0     C99797   6.371   7.147   7.310 -0.9871  0.5755  0.2675
  740MOL0     C99798   6.246   7.147   7.239 -0.1672  0.1413 -0.1696
  740MOL0     C99799   6.223   7.061   7.133 -0.7642 -0.0559 -0.4380
  740MOL0     O99800   6.103   7.056   7.065 -0.6865  0.3892 -0.2630
  740MOL0     C99801   6.095   6.958   6.962  0.2531 -0.7841 -0.2448
  740MOL0     C99802   5.965   6.998   6.897 -0.6817 -0.3208  0.2495
  740MOL0     C99803   5.917   6.882   6.809  0.0217  0.2612  0.3143
  740MOL0     C99804   5.834   6.905   6.676  0.3588 -0.5436  0.5755
  740MOL0     C99805   5.922   6.959   6.562  0.5418  0.4875 -0.5364
  740MOL0     C99806   5.840   6.963   6.442  0.2677 -0.4038 -0.8484
  740MOL0     C99807   5.915   6.978   6.308 -0.3743  1.1980  0.1652
  740MOL0     C99808   5.832   7.004   6.189  0.0219 -0.3106 -0.1720
  740MOL0    Cl99809   5.771   6.852   6.125  0.1722  0.0527  0.0331
  740MOL0     C99810   6.328   6.965   7.113  0.6237  1.4833  0.0431
  740MOL0     C99811   6.454   6.957   7.181  0.0216 -1.5065 -0.5699
  740MOL0     O99812   6.742   7.042   7.185 -0.3250 -0.0539 -0.4153
  740MOL0     C99813   6.964   7.077   7.346 -0.5799 -0.2577  0.4226
  740MOL0     C99814   7.084   7.053   7.430  1.5295 -0.4604 -0.2032
  740MOL0     N99815   7.461   6.671   8.052  0.4332 -0.2113  0.3614
  740MOL0     N99816   7.588   6.655   8.049 -0.3212  0.2804  0.6725
  740MOL0     C99817   7.374   6.526   8.395  0.1450 -0.3319  0.6841
  740MOL0     C99818   7.249   6.528   8.354 -0.5460  0.1061 -0.8359
  740MOL0     C99819   6.799   6.450   8.425 -0.0190  0.0082  0.0797
  740MOL0     C99820   6.669   6.502   8.415 -0.2329 -0.1983  0.6737
  740MOL0     C99821   6.558   6.421   8.380 -0.4231  0.7851 -1.5777
  740MOL0     C99822   6.568   6.289   8.374 -0.4318 -0.1839  0.2658
  740MOL0     O99823   6.468   6.217   8.325  0.1147 -1.2302  1.3838
  740MOL0     C99824   6.446   6.084   8.365 -0.4102  1.0009  0.3736
  740MOL0     C99825   6.469   5.980   8.257  0.4879  0.2707 -0.0222
  740MOL0     C99826   6.355   5.987   8.149  0.6849  0.8363 -0.2785
  740MOL0     C99827   6.409   5.906   8.027  0.7112 -0.0530 -0.2342
  740MOL0     C99828   6.371   5.767   8.043 -0.3597 -0.6795 -0.1086
  740MOL0     C99829   6.309   5.663   8.049 -0.1002  0.7486  0.9348
  740MOL0     C99830   6.696   6.230   8.390  0.9448  1.2277 -0.4725
  740MOL0     C99831   6.808   6.312   8.420  0.0858  0.4383  0.0948
  740MOL0     C99832   6.939   6.244   8.438 -0.6845 -0.6454 -0.2028
  740MOL0     H99833   7.083   6.527   8.654  0.7450 -3.6916  0.8421
  740MOL0     H99834   7.328   6.539   8.726  2.0807  0.7210 -0.6346
  740MOL0     H99835   7.550   6.621   8.730  0.1879 -2.1218  2.1561
  740MOL0     H99836   7.571   6.451   8.764  1.5134 -1.5164 -1.2748
  740MOL0     H99837   7.793   6.469   8.626  0.0782  0.8354 -1.1940
  740MOL0     H99838   7.784   6.544   8.780  4.2796 -1.5663 -1.7601
  740MOL0     H99839   7.887   6.706   8.614  0.6353 -2.3552 -1.6991
  740MOL0     H99840   7.756   6.763   8.697  2.0308  1.9119 -0.7588
  740MOL0     H99841   7.723   6.649   8.407  0.7560  3.5147 -2.5169
  740MOL0     H99842   7.624   6.764   8.489 -0.1863 -0.8508 -1.6412
  740MOL0     H99843   7.796   6.929   8.491  1.5701 -0.8837  0.9317
  740MOL0     H99844   7.913   6.818   8.432  0.6020  2.8789  2.2986
  740MOL0     H99845   7.659   6.837   8.277  0.1065 -2.1277 -4.9194
  740MOL0     H99846   7.787   6.964   8.262 -0.3175  0.1051 -0.9855
  740MOL0     H99847   7.847   6.669   8.196  0.2218  0.5723  1.7616
  740MOL0     H99848   7.954   6.805   8.175  0.3948  0.2420  3.6802
  740MOL0     H99849   7.825   6.895   7.998  2.1312 -1.6860 -3.6950
  740MOL0     H99850   7.835   6.712   7.983 -0.0151 -1.5049  2.2730
  740MOL0     H99851   7.586   6.977   7.990  1.6575 -0.2597  0.3027
  740MOL0     H99852   7.232   6.780   7.999 -2.2306  2.4477 -2.1022
  740MOL0     H99853   7.275   6.913   8.115 -0.3401  1.5628 -0.2809
  740MOL0     H99854   7.165   6.960   7.885 -0.3250 -1.5127 -0.7314
  740MOL0     H99855   7.313   7.053   7.916  1.3482 -0.7410 -0.8946
  740MOL0     H99856   7.360   6.794   7.766  2.7911  1.2470 -1.3331
  740MOL0     H99857   7.414   6.963   7.733 -0.0863  1.6498  1.3974
  740MOL0     H99858   7.130   6.844   7.670 -0.0482 -0.3342 -0.2790
  740MOL0     H99859   7.256   6.863   7.561  0.9659 -2.1202  1.2990
  740MOL0     H99860   6.928   7.012   7.730 -2.6031 -2.5252 -1.2629
  740MOL0     H99861   6.726   7.043   7.577  1.2435  2.1894  3.0015
  740MOL0     H99862   6.383   7.199   7.405 -0.1295 -0.5298  0.7994
  740MOL0     H99863   6.176   7.226   7.263 -1.6776 -1.6789  1.8809
  740MOL0     H99864   6.169   6.963   6.882 -1.0226  0.8686 -1.4015
  740MOL0     H99865   6.079   6.858   7.003 -1.7121 -0.4295 -0.0295
  740MOL0     H99866   5.889   7.027   6.971 -0.1063  0.4296  0.5689
  740MOL0     H99867   5.989   7.084   6.835  0.8643 -1.3324 -0.6096
  740MOL0     H99868   5.997   6.814   6.776 -2.3286 -2.1653 -0.7931
  740MOL0     H99869   5.853   6.822   6.874 -1.1331 -1.3643 -2.1293
  740MOL0     H99870   5.753   6.977   6.690  2.6642  1.8564  2.8009
  740MOL0     H99871   5.790   6.809   6.650 -0.2016 -0.1016 -0.1827
  740MOL0     H99872   6.002   6.885   6.548  1.4371  1.0866  1.1193
  740MOL0     H99873   5.951   7.058   6.597 -2.6358  0.5785  2.2663
  740MOL0     H99874   5.767   6.881   6.439  0.9163 -0.9762 -1.2589
  740MOL0     H99875   5.784   7.057   6.446  1.0359  0.0231  0.0936
  740MOL0     H99876   5.981   6.894   6.282  2.0735  3.1540 -0.2971
  740MOL0     H99877   5.978   7.066   6.322  0.3209  1.0479 -1.6968
  740MOL0     H99878   5.757   7.076   6.222  2.0388  1.6782  0.3311
  740MOL0     H99879   5.892   7.058   6.116 -1.7289 -0.3234 -1.6860
  740MOL0     H99880   6.304   6.886   7.043 -1.9831 -0.6166  3.0280
  740MOL0     H99881   6.541   6.893   7.172  0.5931 -1.0080  1.0459
  740MOL0     H99882   6.980   7.098   7.241  0.2143  0.9319  0.7635
  740MOL0     H99883   7.184   7.058   7.390  2.0972 -1.4827  1.0067
  740MOL0     H99884   7.455   6.519   8.323 -0.6942  0.1242 -0.3106
  740MOL0     H99885   7.232   6.532   8.247  1.9224 -3.9481 -1.5749
  740MOL0     H99886   6.655   6.610   8.410 -0.8902 -0.3331 -1.0379
  740MOL0     H99887   6.461   6.469   8.375 -0.7371  0.3740 -0.0559
  740MOL0     H99888   6.343   6.082   8.403  0.8013 -1.5763  4.1954
  740MOL0     H99889   6.515   6.060   8.446  2.1095 -0.1286 -1.9497
  740MOL0     H99890   6.460   5.885   8.310  4.6568 -0.2089  0.1361
  740MOL0     H99891   6.570   5.992   8.218 -0.7116 -1.3336 -4.1318
  740MOL0     H99892   6.329   6.089   8.122  1.7344  1.9395  2.5943
  740MOL0     H99893   6.256   5.952   8.182  0.5738  2.0085  0.6567
  740MOL0     H99894   6.345   5.944   7.947 -0.7807  0.7041  1.2646
  740MOL0     H99895   6.513   5.930   8.003  0.0847  1.6771 -1.4288
  740MOL0     H99896   6.257   5.570   8.043  0.9012  0.2502 -0.3873
  740MOL0     H99897   6.715   6.124   8.378  1.8597  1.2142  0.9378
  740MOL0     H99898   6.986   6.268   8.534  2.1843 -2.3065 -1.0863
  740MOL0     H99899   6.931   6.135   8.441 -0.9336 -0.6140  2.1212
  740MOL0     H99900   7.017   6.274   8.367  0.3328 -2.4874  0.0684
  741MOL0     O99901   2.746   5.144  10.245  0.6347 -0.3813 -0.1536
  741MOL0     C99902   2.666   5.088  10.327 -0.6319  0.1879  1.1771
  741MOL0     O99903   2.669   4.959  10.358 -0.0758 -0.0626 -0.2151
  741MOL0     C99904   2.771   4.883  10.308 -0.0374 -1.3214 -0.0755
  741MOL0     C99905   2.758   4.813  10.198  0.1365  0.1527  0.9965
  741MOL0     C99906   2.854   4.719  10.152  0.0608 -0.0588 -0.6840
  741MOL0     C99907   2.959   4.689  10.235 -0.0641 -0.7333  0.0185
  741MOL0     O99908   3.048   4.591  10.195  0.3773  0.2532 -0.7505
  741MOL0     C99909   3.175   4.555  10.254 -0.8994  0.5030 -0.2814
  741MOL0     C99910   3.265   4.498  10.141 -0.7144  0.1005 -0.6958
  741MOL0     C99911   3.319   4.607  10.053  0.2595  0.0748 -0.1646
  741MOL0     C99912   3.394   4.535   9.937  0.2288  0.1993 -0.0065
  741MOL0     C99913   3.544   4.502   9.966  0.1504 -0.6146  0.1609
  741MOL0     C99914   3.596   4.410   9.854  0.8772  0.5632  0.0513
  741MOL0     C99915   3.730   4.349   9.900 -0.2898  0.1840  0.0188
  741MOL0     C99916   3.787   4.235   9.814 -0.2084 -0.1159  0.2418
  741MOL0     N99917   3.933   4.213   9.835  0.0805  0.4651  0.1078
  741MOL0     C99918   4.032   4.188   9.741 -0.1303 -0.6697 -0.3176
  741MOL0     C99919   4.155   4.202   9.808 -0.6342 -0.2192  0.4821
  741MOL0     C99920   4.284   4.180   9.744  1.0914 -0.2457  1.0483
  741MOL0     C99921   4.288   4.021   9.717 -0.1101 -1.2018  0.4265
  741MOL0     C99922   4.418   3.986   9.640  0.8935 -0.2472 -0.5002
  741MOL0     C99923   4.427   3.836   9.634 -0.4965  1.1984  0.6179
  741MOL0     O99924   4.550   3.797   9.565  0.0837  0.2916 -0.2123
  741MOL0     C99925   4.570   3.663   9.542  0.5285  0.1185  0.2552
  741MOL0     C99926   4.490   3.560   9.594 -1.4271  0.4205 -0.4421
  741MOL0     C99927   4.531   3.427   9.570 -0.3832  0.9180 -0.1119
  741MOL0     C99928   4.624   3.391   9.479 -0.4536 -0.2361 -0.4790
  741MOL0     C99929   4.649   3.250   9.452  0.9263  0.2982  0.6780
  741MOL0     O99930   4.576   3.151   9.522  0.3836 -0.9344 -0.0638
  741MOL0     C99931   4.600   3.019   9.490  0.1117  0.3499 -0.3692
  741MOL0     C99932   4.720   2.963   9.528 -0.1231 -0.1106  0.1118
  741MOL0     C99933   4.755   2.830   9.506  0.1760  0.2086  0.7432
  741MOL0     C99934   4.651   2.753   9.446  0.0977  0.4758 -0.0900
  741MOL0     O99935   4.667   2.624   9.401  0.0697 -0.2489  0.5002
  741MOL0     C99936   4.784   2.577   9.330  0.1483  0.0598 -0.0309
  741MOL0     C99937   4.778   2.421   9.325 -0.2131  0.0270 -1.0723
  741MOL0     C99938   4.642   2.359   9.312  0.7032  0.3629  0.3892
  741MOL0     C99939   4.593   2.385   9.169 -0.6392 -0.5151 -0.2783
  741MOL0     C99940   4.454   2.325   9.137 -0.3793 -0.8308  0.6170
  741MOL0     C99941   4.455   2.171   9.131 -0.5197 -0.6386  0.0594
  741MOL0     C99942   4.344   2.093   9.052  0.2873  0.0202 -0.5299
  741MOL0     C99943   4.214   2.077   9.138  0.4878  0.6734 -0.1187
  741MOL0    Cl99944   4.228   1.956   9.279 -0.2966  0.1927 -0.1670
  741MOL0     C99945   4.518   2.803   9.430  0.6395  0.7018  0.2649
  741MOL0     C99946   4.495   2.935   9.443  1.0008 -0.3189 -0.7938
  741MOL0     O99947   4.731   3.226   9.370 -0.3434  0.0643  0.3110
  741MOL0     C99948   4.702   3.495   9.423 -1.2883  0.3688  0.0925
  741MOL0     C99949   4.671   3.631   9.454 -0.2578  0.5347 -0.2129
  741MOL0     N99950   4.125   4.239   9.938 -0.0685 -0.1749  0.6232
  741MOL0     N99951   4.001   4.230   9.956  0.7693 -0.2297  0.3804
  741MOL0     C99952   2.967   4.768  10.352 -0.8619  0.5610 -0.5637
  741MOL0     C99953   2.873   4.855  10.395 -0.0423 -0.1563  0.1236
  741MOL0     C99954   2.563   5.167  10.390 -0.1291 -0.0506  0.0891
  741MOL0     C99955   2.436   5.113  10.392 -1.0327 -0.2016 -0.2187
  741MOL0     C99956   2.330   5.191  10.449  0.0811  0.5595  0.1045
  741MOL0     C99957   2.355   5.310  10.506  0.7731  0.2789  0.4996
  741MOL0     O99958   2.258   5.379  10.573 -0.6537 -1.0538 -0.8045
  741MOL0     C99959   2.110   5.360  10.552 -1.0867  0.1532  0.7623
  741MOL0     C99960   2.023   5.489  10.566 -0.1504 -0.5276  0.3569
  741MOL0     C99961   2.001   5.548  10.430  0.7352  0.0813 -0.0473
  741MOL0     C99962   1.889   5.492  10.350 -0.6920 -0.2223  0.8877
  741MOL0     C99963   1.878   5.545  10.222  0.3323 -0.0856  0.7991
  741MOL0     C99964   1.867   5.588  10.111 -0.1756  0.1831 -0.3172
  741MOL0     C99965   2.480   5.363  10.497 -0.4156 -0.5054  0.1169
  741MOL0     C99966   2.594   5.291  10.446 -0.0160 -0.2594  0.1230
  741MOL0     C99967   2.725   5.368  10.427  0.3689  0.7999  0.5145
  741MOL0     H99968   2.669   4.836  10.141  0.8863  2.1605  0.5656
  741MOL0     H99969   2.837   4.653  10.067  0.8030  0.2906 -1.1130
  741MOL0     H99970   3.220   4.644  10.299 -3.0185  1.3589  0.2792
  741MOL0     H99971   3.162   4.482  10.335  0.5639  2.5918  1.9998
  741MOL0     H99972   3.211   4.416  10.092  0.7213 -2.3954  1.5959
  741MOL0     H99973   3.346   4.453  10.198 -0.5360  1.8507  0.5131
  741MOL0     H99974   3.382   4.676  10.110 -0.2925 -1.4898  2.4684
  741MOL0     H99975   3.238   4.670  10.014  0.6475  1.6498  1.4389
  741MOL0     H99976   3.346   4.442   9.906 -1.7982  0.8492  1.0059
  741MOL0     H99977   3.391   4.598   9.848 -0.5577 -1.6226 -1.3304
  741MOL0     H99978   3.606   4.592   9.960 -0.4811 -0.2656 -2.5953
  741MOL0     H99979   3.555   4.453  10.063  0.3713  0.0719  0.4921
  741MOL0     H99980   3.531   4.322   9.844  3.1399 -1.3541  1.1261
  741MOL0     H99981   3.604   4.462   9.759 -2.5469 -0.1732 -0.7588
  741MOL0     H99982   3.721   4.307  10.001 -0.1074  2.2320  0.9337
  741MOL0     H99983   3.811   4.422   9.904  2.3326 -2.3247 -2.5184
  741MOL0     H99984   3.740   4.140   9.839 -0.1272  0.0635  1.1093
  741MOL0     H99985   3.752   4.257   9.712  1.2995 -2.0787 -0.7764
  741MOL0     H99986   4.016   4.162   9.637 -0.5556  0.0760 -0.4432
  741MOL0     H99987   4.287   4.238   9.652 -1.4925 -1.7131 -0.0484
  741MOL0     H99988   4.371   4.215   9.801  1.5714  1.3725 -0.5935
  741MOL0     H99989   4.280   3.972   9.815  2.1081  0.0800  1.3198
  741MOL0     H99990   4.203   3.999   9.652  1.1540 -2.4356 -0.8980
  741MOL0     H99991   4.496   4.017   9.710 -2.0883  4.5468  1.1496
  741MOL0     H99992   4.424   4.025   9.539  1.1319 -1.6959 -1.0773
  741MOL0     H99993   4.337   3.796   9.587 -1.0615  3.4909 -0.3498
  741MOL0     H99994   4.420   3.807   9.739  2.2862  2.5231  1.2749
  741MOL0     H99995   4.410   3.591   9.661  1.5343  0.9695  3.1878
  741MOL0     H99996   4.476   3.355   9.630  1.6884  0.0893  0.8972
  741MOL0     H99997   4.785   3.037   9.574 -2.9008  0.5209  3.4243
  741MOL0     H99998   4.843   2.771   9.529 -0.5888 -2.4259 -2.4244
  741MOL0     H99999   4.779   2.613   9.227  0.4788 -1.4321 -0.6079
  741MOL0     H    0   4.879   2.606   9.377  0.8660  0.7240 -1.8033
  741MOL0     H    1   4.853   2.391   9.251  1.0204 -1.3307  0.6568
  741MOL0     H    2   4.814   2.388   9.422  0.7208  1.9718 -0.6950
  741MOL0     H    3   4.641   2.253   9.341 -3.2018 -0.1367 -0.9124
  741MOL0     H    4   4.565   2.399   9.378 -3.0847 -2.7380 -1.6910
  741MOL0     H    5   4.658   2.351   9.088  0.7990 -1.3252  1.1602
  741MOL0     H    6   4.582   2.493   9.154 -1.5649 -0.4571  0.6936
  741MOL0     H    7   4.422   2.361   9.039 -2.2817 -1.8394  0.8155
  741MOL0     H    8   4.382   2.361   9.211 -0.8455  1.1740 -0.7377
  741MOL0     H    9   4.553   2.143   9.090  0.1055 -0.8771  1.6473
  741MOL0     H   10   4.463   2.137   9.234  0.4848 -1.1392 -0.1650
  741MOL0     H   11   4.375   1.991   9.026 -2.1276 -0.9000 -0.1004
  741MOL0     H   12   4.321   2.151   8.963 -0.5441 -1.5976 -1.4139
  741MOL0     H   13   4.164   2.170   9.165 -0.2557 -0.1919  1.6926
  741MOL0     H   14   4.147   2.014   9.079  0.1966  1.5087 -0.6804
  741MOL0     H   15   4.436   2.739   9.399 -1.7599  2.9479  1.6472
  741MOL0     H   16   4.398   2.973   9.413  1.8350  1.9073 -0.8921
  741MOL0     H   17   4.787   3.480   9.357 -1.3211 -2.5481  0.6061
  741MOL0     H   18   4.737   3.715   9.437 -0.1489  0.2025 -1.4915
  741MOL0     H   19   3.054   4.744  10.412 -0.9016 -2.1655 -1.4586
  741MOL0     H   20   2.891   4.903  10.491  1.4183 -0.6768  0.1470
  741MOL0     H   21   2.398   5.020  10.349  0.6577 -0.5000 -1.1413
  741MOL0     H   22   2.226   5.158  10.451 -0.0259  0.9182  0.4010
  741MOL0     H   23   2.065   5.296  10.628 -1.0480 -1.6734 -0.6832
  741MOL0     H   24   2.098   5.313  10.454  2.0296  0.5255  0.1095
  741MOL0     H   25   2.085   5.556  10.627 -0.2199  1.7267 -1.8484
  741MOL0     H   26   1.927   5.478  10.616 -0.6764  5.0234  1.2949
  741MOL0     H   27   2.090   5.535  10.368 -0.8901 -0.7117 -2.3685
  741MOL0     H   28   1.986   5.655  10.446 -0.1652  0.1629 -1.2960
  741MOL0     H   29   1.905   5.387  10.324 -0.2751  0.1646 -0.4765
  741MOL0     H   30   1.793   5.486  10.402 -1.5756  0.7701 -0.5770
  741MOL0     H   31   1.870   5.627  10.011  1.4436  0.5590 -0.1494
  741MOL0     H   32   2.499   5.468  10.519  0.3963  0.0373 -2.7366
  741MOL0     H   33   2.779   5.350  10.333  1.4261 -1.6148  1.5071
  741MOL0     H   34   2.710   5.476  10.434  1.0198  1.1437 -2.1641
  741MOL0     H   35   2.792   5.344  10.511  1.3827  0.6663 -0.3044
  742MOL0     O   36   1.231   9.999   8.217 -0.2085 -0.6276 -0.9656
  742MOL0     C   37   1.225  10.081   8.125 -0.1392  0.0689 -0.2446
  742MOL0     O   38   1.315  10.108   8.033  0.0088  0.4505  0.0141
  742MOL0     C   39   1.448  10.068   8.046 -0.0077  0.7569 -0.2137
  742MOL0     C   40   1.519  10.031   7.924 -1.0614  0.1922 -0.2341
  742MOL0     C   41   1.652   9.975   7.930  0.2538  0.8932 -0.3334
  742MOL0     C   42   1.721   9.968   8.046 -0.3867 -0.4092 -1.4981
  742MOL0     O   43   1.835   9.901   8.030 -0.4013 -0.0885  0.2970
  742MOL0     C   44   1.909   9.867   8.149 -0.3256 -0.5647  0.3952
  742MOL0     C   45   2.025   9.772   8.105  0.6039 -0.4657 -0.9031
  742MOL0     C   46   2.124   9.830   8.010  0.4648  0.6218 -0.1574
  742MOL0     C   47   2.246   9.741   7.999  0.0838  0.7349  0.5348
  742MOL0     C   48   2.362   9.819   7.918 -0.0157  0.3658 -0.0966
  742MOL0     C   49   2.496   9.745   7.902 -0.3099  0.2985  1.5214
  742MOL0     C   50   2.477   9.623   7.814  0.0928 -0.3189  0.4010
  742MOL0     C   51   2.624   9.585   7.761  0.2758 -0.7286 -0.3886
  742MOL0     N   52   2.714   9.538   7.877 -0.1385 -0.3439  0.3537
  742MOL0     C   53   2.686   9.431   7.968 -0.0942 -0.6350  0.3562
  742MOL0     C   54   2.762   9.458   8.074 -0.0703  0.1459 -0.2134
  742MOL0     C   55   2.762   9.354   8.184 -0.1909  0.0051 -0.6204
  742MOL0     C   56   2.891   9.267   8.166 -0.5456  0.3391 -0.3419
  742MOL0     C   57   3.027   9.310   8.199  0.5078 -0.1326 -0.3422
  742MOL0     C   58   3.121   9.190   8.191  0.0912  0.1214 -0.0130
  742MOL0     O   59   3.258   9.224   8.195  0.2244 -0.1883 -0.8700
  742MOL0     C   60   3.321   9.203   8.319  0.4087 -0.0588 -0.2292
  742MOL0     C   61   3.455   9.168   8.319  0.6353 -0.6686 -0.0852
  742MOL0     C   62   3.524   9.147   8.437 -0.1277  0.3558  0.5673
  742MOL0     C   63   3.455   9.165   8.563 -0.0010 -0.3678 -0.6428
  742MOL0     C   64   3.529   9.158   8.692 -0.1713 -0.1042  0.1942
  742MOL0     O   65   3.666   9.125   8.692  0.2089 -0.5544 -0.5300
  742MOL0     C   66   3.723   9.093   8.807 -0.1699 -0.1370  0.3199
  742MOL0     C   67   3.857   9.119   8.832 -0.6637 -0.2256 -1.0295
  742MOL0     C   68   3.928   9.062   8.944  0.4081  1.0113 -0.3671
  742MOL0     C   69   3.863   8.989   9.042  0.9513  1.1353 -0.8721
  742MOL0     O   70   3.911   8.933   9.159  0.0637 -0.1458 -0.0004
  742MOL0     C   71   4.055   8.921   9.186  0.5931  0.5734  0.1612
  742MOL0     C   72   4.074   8.891   9.331 -0.6044 -0.7437 -0.4253
  742MOL0     C   73   4.061   9.010   9.429  1.0122 -0.7620 -0.0422
  742MOL0     C   74   4.174   9.117   9.427 -0.0420  0.0165  0.1704
  742MOL0     C   75   4.322   9.068   9.411  1.0555  0.4735  0.4917
  742MOL0     C   76   4.369   8.985   9.536 -0.1619 -0.1592 -0.0665
  742MOL0     C   77   4.516   8.946   9.530  0.4469  0.4645  0.6668
  742MOL0     C   78   4.536   8.820   9.613  0.1187 -0.2618 -0.1974
  742MOL0    Cl   79   4.706   8.745   9.585  0.0243 -0.5852 -0.2167
  742MOL0     C   80   3.732   8.967   9.017 -0.3760 -0.6416 -0.0400
  742MOL0     C   81   3.661   9.012   8.901 -0.4296 -0.2245 -0.7087
  742MOL0     O   82   3.464   9.202   8.790 -0.2077  0.0387  0.2211
  742MOL0     C   83   3.328   9.213   8.563  0.6948 -0.2272 -0.1987
  742MOL0     C   84   3.270   9.241   8.438 -0.3217 -0.2984 -1.9789
  742MOL0     N   85   2.842   9.564   8.052 -0.4163  0.3814  0.5856
  742MOL0     N   86   2.819   9.610   7.931  1.0331 -0.3953  0.2335
  742MOL0     C   87   1.657  10.014   8.164 -0.1052 -0.2486 -0.1975
  742MOL0     C   88   1.529  10.062   8.168 -0.3528 -0.2879  0.0106
  742MOL0     C   89   1.093  10.131   8.078  0.2968  0.3086 -0.9641
  742MOL0     C   90   1.077  10.191   7.952 -0.0227 -0.1204  0.9203
  742MOL0     C   91   0.949  10.213   7.902 -0.5753  0.5529 -0.2402
  742MOL0     C   92   0.836  10.184   7.979  0.4770  0.6663  0.9768
  742MOL0     O   93   0.697  10.211   7.950  0.1239  0.3105  0.5009
  742MOL0     C   94   0.674  10.279   7.823 -0.6099 -0.3198 -0.0525
  742MOL0     C   95   0.618  10.186   7.719 -0.1446  0.3112 -0.3232
  742MOL0     C   96   0.706  10.056   7.689 -0.0057 -0.0780  0.2332
  742MOL0     C   97   0.619   9.959   7.600 -0.3355  0.1460  0.4612
  742MOL0     C   98   0.616   9.997   7.461  0.0473  0.6304  0.3567
  742MOL0     C   99   0.615  10.038   7.349 -0.4036  0.1572  0.1305
  742MOL0     C  100   0.855  10.142   8.109  0.3887  0.1371 -0.4003
  742MOL0     C  101   0.981  10.118   8.158 -0.4248 -0.6969 -0.1603
  742MOL0     C  102   0.971  10.062   8.299  1.3827  0.7106 -0.2868
  742MOL0     H  103   1.475  10.029   7.825  1.7797  1.6285 -1.6453
  742MOL0     H  104   1.689   9.936   7.836 -1.1485 -0.8187 -0.2399
  742MOL0     H  105   1.951   9.956   8.197  0.1778  0.5606 -1.9784
  742MOL0     H  106   1.858   9.808   8.227 -0.0458  0.0506  1.0555
  742MOL0     H  107   1.980   9.684   8.058 -1.6559  0.0168  0.1937
  742MOL0     H  108   2.070   9.743   8.201 -2.3900 -0.7978  0.5122
  742MOL0     H  109   2.150   9.929   8.048  1.4678 -0.1256  1.1747
  742MOL0     H  110   2.087   9.842   7.908  1.4719 -1.3193 -0.8152
  742MOL0     H  111   2.273   9.725   8.104 -0.4090  0.6959  0.6574
  742MOL0     H  112   2.229   9.643   7.955 -0.6628  0.7060  0.8798
  742MOL0     H  113   2.327   9.836   7.816 -2.6307 -2.8109  0.0984
  742MOL0     H  114   2.366   9.920   7.960  1.3847 -0.0554  0.8611
  742MOL0     H  115   2.557   9.816   7.844 -2.0954 -1.0315 -2.3608
  742MOL0     H  116   2.555   9.722   7.990  0.6494 -1.5130  0.4558
  742MOL0     H  117   2.416   9.632   7.724  0.7662 -1.1472 -0.1556
  742MOL0     H  118   2.432   9.541   7.871 -1.5687  0.4385  0.2452
  742MOL0     H  119   2.621   9.505   7.686 -0.2444 -2.7240  1.6659
  742MOL0     H  120   2.676   9.667   7.710  1.7253 -1.2247  0.2631
  742MOL0     H  121   2.609   9.354   7.972  0.4280 -1.1320  1.1968
  742MOL0     H  122   2.771   9.415   8.275 -1.5615  3.1226 -2.4072
  742MOL0     H  123   2.670   9.295   8.184 -0.6533  0.6864  0.6626
  742MOL0     H  124   2.878   9.175   8.223 -0.1022 -1.2048 -2.6186
  742MOL0     H  125   2.900   9.231   8.063  2.6722 -2.3804  0.6953
  742MOL0     H  126   3.024   9.370   8.291 -1.7310  1.1637 -1.1850
  742MOL0     H  127   3.062   9.378   8.121  0.2766 -2.1303 -2.2877
  742MOL0     H  128   3.089   9.143   8.097 -0.1136 -3.0112  1.4834
  742MOL0     H  129   3.100   9.120   8.272  1.0481  1.0767  1.1030
  742MOL0     H  130   3.517   9.161   8.230 -0.0123  0.8977 -0.6958
  742MOL0     H  131   3.629   9.126   8.418  0.1189 -0.8376  2.7817
  742MOL0     H  132   3.911   9.185   8.765 -1.0720  0.5107 -0.6358
  742MOL0     H  133   4.035   9.075   8.954  0.4909  1.3299 -1.4598
  742MOL0     H  134   4.103   8.843   9.126 -3.0126 -2.2060  0.5208
  742MOL0     H  135   4.093   9.018   9.152 -3.1670  1.3447 -2.4759
  742MOL0     H  136   4.000   8.815   9.360 -0.6765 -0.5308 -0.0496
  742MOL0     H  137   4.174   8.850   9.349 -0.7246 -1.2260 -0.8259
  742MOL0     H  138   3.963   9.055   9.413  1.2123  0.6358  2.3048
  742MOL0     H  139   4.068   8.974   9.532  2.6940  1.6283  0.7535
  742MOL0     H  140   4.169   9.191   9.507 -1.0637  0.3751 -0.1999
  742MOL0     H  141   4.164   9.163   9.328  3.1477  0.3418 -0.1015
  742MOL0     H  142   4.382   9.159   9.405 -1.3321  2.0319 -1.2676
  742MOL0     H  143   4.328   9.006   9.321  0.4150  2.0175 -0.6409
  742MOL0     H  144   4.345   9.046   9.623 -0.9686  2.8408 -2.2394
  742MOL0     H  145   4.298   8.902   9.543 -1.4370  0.9549  0.7471
  742MOL0     H  146   4.575   9.036   9.547 -0.0023  1.7204 -3.4228
  742MOL0     H  147   4.541   8.915   9.428  0.1329 -2.9571  1.4980
  742MOL0     H  148   4.518   8.852   9.716 -0.6901  2.1278 -1.0192
  742MOL0     H  149   4.466   8.737   9.595  0.7164 -0.6173 -0.9013
  742MOL0     H  150   3.691   8.888   9.080  0.6964 -1.9695 -0.9536
  742MOL0     H  151   3.559   8.982   8.881 -0.9149  1.5718 -1.1114
  742MOL0     H  152   3.272   9.253   8.646  1.7655  0.5292  0.1882
  742MOL0     H  153   3.166   9.272   8.444  0.4250  2.0194  1.1117
  742MOL0     H  154   1.703  10.017   8.263  0.3167  1.2908 -0.4053
  742MOL0     H  155   1.485  10.075   8.266 -0.9429 -0.3879 -0.2351
  742MOL0     H  156   1.165  10.199   7.888 -0.4156 -4.4256 -0.4543
  742MOL0     H  157   0.948  10.251   7.801 -2.5626  1.8534  0.2230
  742MOL0     H  158   0.752  10.348   7.789 -1.7189  2.1694  2.0637
  742MOL0     H  159   0.588  10.344   7.840 -1.5455 -1.6805  0.5862
  742MOL0     H  160   0.597  10.246   7.630 -0.4227  2.1440  0.9087
  742MOL0     H  161   0.523  10.154   7.763 -0.1791 -0.9920 -1.2935
  742MOL0     H  162   0.736  10.001   7.779  0.4736 -0.6945 -0.2883
  742MOL0     H  163   0.801  10.079   7.640 -0.5799  1.8591 -0.0412
  742MOL0     H  164   0.657   9.856   7.596  1.7371  0.8986 -1.0734
  742MOL0     H  165   0.515   9.952   7.634 -0.1529 -1.3545  0.7869
  742MOL0     H  166   0.618  10.078   7.250 -2.5940 -1.6609 -0.7457
  742MOL0     H  167   0.775  10.136   8.181  1.6838 -0.5461  1.0425
  742MOL0     H  168   1.049  10.091   8.371 -1.3058  1.0348  2.7016
  742MOL0     H  169   0.884  10.105   8.350 -0.2819 -4.2914  1.6964
  742MOL0     H  170   0.959   9.954   8.311 -0.8286  1.1698  2.7424
  743MOL0     O  171   9.974   1.649   1.380 -0.3720 -0.8419 -0.3023
  743MOL0     C  172  10.052   1.748   1.371 -0.1611  0.0841  0.0565
  743MOL0     O  173  10.020   1.875   1.416 -0.3989 -0.2173 -0.6917
  743MOL0     C  174   9.892   1.897   1.471  0.5489  0.2792  0.5123
  743MOL0     C  175   9.789   1.936   1.386 -0.4032  0.6453 -0.3392
  743MOL0     C  176   9.661   1.950   1.439 -0.0440  0.5151 -0.4066
  743MOL0     C  177   9.632   1.933   1.575 -0.4807  1.0415  0.2658
  743MOL0     O  178   9.503   1.936   1.625 -0.2878  0.1632  0.0207
  743MOL0     C  179   9.447   1.821   1.688  0.4841  0.1695  0.2533
  743MOL0     C  180   9.326   1.865   1.774  0.2781  0.8454  0.5004
  743MOL0     C  181   9.215   1.887   1.679  0.7131 -0.3952 -0.3715
  743MOL0     C  182   9.121   1.993   1.730 -0.1817 -0.4971  0.1468
  743MOL0     C  183   8.990   2.002   1.647 -1.1047  0.3748 -0.7017
  743MOL0     C  184   8.896   1.899   1.711  0.1340  0.1131 -0.0339
  743MOL0     C  185   8.749   1.944   1.696  0.6092  0.0999  0.6115
  743MOL0     C  186   8.655   1.844   1.756 -0.5771 -0.7988 -0.7943
  743MOL0     N  187   8.519   1.864   1.712  0.2022 -0.0141  0.0811
  743MOL0     C  188   8.436   1.976   1.688 -0.0138  0.4783 -0.8053
  743MOL0     C  189   8.311   1.933   1.701 -0.2890 -0.6824  0.0317
  743MOL0     C  190   8.189   2.016   1.684  0.2791  0.5466 -0.0385
  743MOL0     C  191   8.101   1.957   1.576 -0.5489 -0.5978 -0.0659
  743MOL0     C  192   8.178   1.946   1.441  0.6380 -0.1251  0.0351
  743MOL0     C  193   8.094   1.909   1.323  0.3860 -0.2109  0.5063
  743MOL0     O  194   8.167   1.854   1.219  0.6212 -0.5674  0.3508
  743MOL0     C  195   8.095   1.812   1.110 -0.3714 -0.5058  0.2969
  743MOL0     C  196   7.956   1.837   1.080 -0.1874  0.2900 -0.3195
  743MOL0     C  197   7.902   1.804   0.956 -0.4423  0.0256 -0.2376
  743MOL0     C  198   7.990   1.742   0.865 -0.6625  0.4747 -0.1769
  743MOL0     C  199   7.935   1.713   0.728 -0.3778  0.1949 -0.2209
  743MOL0     O  200   7.799   1.755   0.707  0.0631 -0.1707 -0.0108
  743MOL0     C  201   7.742   1.709   0.587 -0.2066 -0.3831  0.6040
  743MOL0     C  202   7.649   1.604   0.580 -0.3056  0.4192 -0.0420
  743MOL0     C  203   7.600   1.558   0.462 -0.5584 -0.0680 -0.7190
  743MOL0     C  204   7.609   1.627   0.342 -1.0178  0.3064  0.7175
  743MOL0     O  205   7.540   1.572   0.232 -0.5373 -0.5568 -0.0803
  743MOL0     C  206   7.473   1.669   0.152  0.6810 -0.5901  1.2802
  743MOL0     C  207   7.351   1.605   0.086  0.0292  0.3073 -0.9238
  743MOL0     C  208   7.267   1.721   0.011  0.0416  0.6642  0.2955
  743MOL0     C  209   7.147   1.642  -0.055 -0.7169 -1.2345 -0.4821
  743MOL0     C  210   7.185   1.555  -0.170 -0.5982  0.2081 -0.1251
  743MOL0     C  211   7.068   1.511  -0.252  0.3362  0.1615 -0.8011
  743MOL0     C  212   7.102   1.444  -0.381  0.5090  0.5572 -0.9038
  743MOL0     C  213   6.988   1.343  -0.409  0.2644 -0.3358 -0.0376
  743MOL0    Cl  214   7.024   1.227  -0.536 -0.1287 -0.1182 -0.8355
  743MOL0     C  215   7.698   1.736   0.343 -0.3139 -0.3487  0.0870
  743MOL0     C  216   7.768   1.767   0.462  0.6025  0.9837 -0.5745
  743MOL0     O  217   8.008   1.647   0.652 -0.2478 -0.1499 -0.2260
  743MOL0     C  218   8.121   1.706   0.898 -0.6037  1.1243  0.4519
  743MOL0     C  219   8.173   1.746   1.020  0.6921  0.1296  0.2533
  743MOL0     N  220   8.322   1.799   1.709 -0.0637 -0.3086 -1.1675
  743MOL0     N  221   8.443   1.754   1.719  0.5023 -0.6051  0.5062
  743MOL0     C  222   9.733   1.896   1.669  0.3636 -1.1068 -0.2745
  743MOL0     C  223   9.863   1.872   1.611 -1.0692  0.0050 -0.2257
  743MOL0     C  224  10.198   1.720   1.351 -1.3308 -0.4762  0.0704
  743MOL0     C  225  10.289   1.807   1.407 -0.3596  0.1360 -0.3752
  743MOL0     C  226  10.426   1.776   1.413  1.0151  0.2419 -0.0125
  743MOL0     C  227  10.471   1.659   1.356  1.0628  0.5415  0.9850
  743MOL0     O  228  10.604   1.632   1.346  0.0840  0.2427  0.3084
  743MOL0     C  229  10.649   1.540   1.451 -0.4074 -0.1035  0.7043
  743MOL0     C  230  10.668   1.599   1.596  0.6508  0.6269  0.8939
  743MOL0     C  231  10.752   1.726   1.582 -0.4669  0.3612 -0.3765
  743MOL0     C  232  10.836   1.740   1.707  0.4513 -0.6082 -0.5807
  743MOL0     C  233  10.956   1.662   1.701 -0.7650  0.1256 -0.3844
  743MOL0     C  234  11.049   1.590   1.713 -0.4643  0.4229 -0.0602
  743MOL0     C  235  10.380   1.573   1.289 -0.1423 -0.1617 -0.1168
  743MOL0     C  236  10.243   1.599   1.293 -0.1461  0.1523  0.4244
  743MOL0     C  237  10.153   1.499   1.213  0.7476 -0.4711  0.1778
  743MOL0     H  238   9.820   1.952   1.284  1.9608  2.0301  0.5233
  743MOL0     H  239   9.576   1.973   1.375  0.1270  0.8020 -0.5355
  743MOL0     H  240   9.412   1.770   1.598  0.1259  0.2650  0.3383
  743MOL0     H  241   9.530   1.768   1.735  2.5012  1.5289 -1.6106
  743MOL0     H  242   9.347   1.961   1.822  0.5171  2.1025 -1.9544
  743MOL0     H  243   9.302   1.780   1.839  1.1068 -0.9660 -1.4486
  743MOL0     H  244   9.164   1.792   1.659 -0.8817  0.3562 -0.0634
  743MOL0     H  245   9.265   1.924   1.590  3.3763 -0.0189  1.1630
  743MOL0     H  246   9.099   1.971   1.835  2.7071 -0.3182  0.8660
  743MOL0     H  247   9.166   2.093   1.727  0.9484 -0.9958  0.2456
  743MOL0     H  248   8.957   2.107   1.648  2.0003  1.4773  0.9480
  743MOL0     H  249   9.015   1.968   1.546  2.0514 -0.8886  0.3694
  743MOL0     H  250   8.914   1.799   1.669 -1.2962  1.1632 -3.4997
  743MOL0     H  251   8.906   1.884   1.819  3.4877 -2.4046 -0.5265
  743MOL0     H  252   8.727   1.957   1.589  2.6423 -0.2159  0.1212
  743MOL0     H  253   8.735   2.045   1.737  1.8197  0.0043  1.3221
  743MOL0     H  254   8.683   1.745   1.718  0.0619 -1.9743  2.4244
  743MOL0     H  255   8.658   1.843   1.866  2.2172  0.4273 -0.7606
  743MOL0     H  256   8.448   2.082   1.665 -1.9362  1.5586  2.4533
  743MOL0     H  257   8.135   2.006   1.779 -3.1786 -0.7940 -1.9835
  743MOL0     H  258   8.218   2.121   1.677 -1.7453  1.0451 -1.8046
  743MOL0     H  259   8.066   1.860   1.611  3.0950 -1.9615  0.1993
  743MOL0     H  260   8.014   2.023   1.568 -1.0575 -0.5820  3.8355
  743MOL0     H  261   8.256   1.869   1.447  0.2590 -0.4792  0.5094
  743MOL0     H  262   8.215   2.046   1.420  0.4699  0.2963  1.6120
  743MOL0     H  263   8.032   1.993   1.289  0.7263 -0.5460 -1.0202
  743MOL0     H  264   8.034   1.828   1.364  1.1367  0.2299  2.6277
  743MOL0     H  265   7.905   1.894   1.157 -1.0177  0.0934 -0.7116
  743MOL0     H  266   7.799   1.829   0.931  0.4670  3.3621 -1.0716
  743MOL0     H  267   7.623   1.553   0.672 -0.1004  1.2621  0.4974
  743MOL0     H  268   7.526   1.478   0.470  0.2500 -0.8212 -0.5484
  743MOL0     H  269   7.444   1.765   0.195  1.4059  0.5272 -0.6413
  743MOL0     H  270   7.541   1.705   0.075  0.1357  0.4352  1.2588
  743MOL0     H  271   7.382   1.537   0.007  1.4511  0.7372 -0.7681
  743MOL0     H  272   7.291   1.555   0.163  0.3219 -0.2587 -1.0616
  743MOL0     H  273   7.223   1.797   0.077  0.9729  0.2903  1.3756
  743MOL0     H  274   7.331   1.770  -0.062 -1.3277  0.0367 -1.3926
  743MOL0     H  275   7.092   1.729  -0.092  0.9936 -0.3551 -1.0580
  743MOL0     H  276   7.084   1.595   0.021 -0.5222 -1.5419 -0.5090
  743MOL0     H  277   7.234   1.468  -0.125 -0.3955  0.4621  0.1476
  743MOL0     H  278   7.259   1.601  -0.237 -0.8616 -0.0197 -0.5777
  743MOL0     H  279   7.017   1.447  -0.180  0.7109 -0.9807 -1.5289
  743MOL0     H  280   7.008   1.601  -0.268  0.1326  0.2212  0.2536
  743MOL0     H  281   7.190   1.382  -0.364  1.4639  2.0815 -0.0354
  743MOL0     H  282   7.118   1.510  -0.466  0.7088  0.4275 -0.9670
  743MOL0     H  283   6.973   1.281  -0.320  1.7447 -1.2566 -0.3999
  743MOL0     H  284   6.896   1.394  -0.442  0.6771 -0.3317 -1.2505
  743MOL0     H  285   7.729   1.779   0.248 -2.0198 -0.3509 -0.5209
  743MOL0     H  286   7.834   1.853   0.464 -0.0421  1.5298 -1.7513
  743MOL0     H  287   8.205   1.671   0.838 -1.6940  0.6410 -0.8273
  743MOL0     H  288   8.277   1.729   1.048  0.2923 -0.7780  1.2850
  743MOL0     H  289   9.701   1.867   1.768 -1.3265  0.3549 -0.3292
  743MOL0     H  290   9.943   1.826   1.668 -2.2701 -2.0899 -0.1399
  743MOL0     H  291  10.256   1.886   1.473  3.0602 -0.3416  2.1578
  743MOL0     H  292  10.500   1.834   1.468  0.4375  1.3851 -0.4219
  743MOL0     H  293  10.745   1.494   1.428  0.2035  0.6631  1.6758
  743MOL0     H  294  10.580   1.455   1.457 -1.4115  0.5275 -1.0010
  743MOL0     H  295  10.717   1.525   1.660 -0.2898 -0.7701  0.0457
  743MOL0     H  296  10.570   1.628   1.636  0.4910  1.7872 -0.2652
  743MOL0     H  297  10.691   1.815   1.562  2.3921  1.9886 -2.5831
  743MOL0     H  298  10.822   1.722   1.499  0.4726 -0.7401  0.4293
  743MOL0     H  299  10.873   1.843   1.704 -0.1009 -0.3268  1.0736
  743MOL0     H  300  10.778   1.734   1.800 -0.6849 -2.7942 -1.3546
  743MOL0     H  301  11.144   1.543   1.732 -0.2386  1.4273  1.4365
  743MOL0     H  302  10.398   1.473   1.250  0.1243 -0.3245  0.4073
  743MOL0     H  303  10.082   1.553   1.150  0.2994 -1.5977 -0.3058
  743MOL0     H  304  10.218   1.443   1.146  2.1880  2.2204 -0.8270
  743MOL0     H  305  10.106   1.432   1.285 -1.1425  2.9609  2.4387
  744MOL0     O  306   7.067   1.034  10.435 -0.6762  0.0470  0.0869
  744MOL0     C  307   7.043   0.964  10.340 -0.3691 -0.4634  0.9049
  744MOL0     O  308   7.141   0.929  10.241 -0.0382  0.2792 -0.0128
  744MOL0     C  309   7.268   0.973  10.248  0.3334 -1.1990  0.0360
  744MOL0     C  310   7.321   1.074  10.158 -0.5297  0.5292  0.2779
  744MOL0     C  311   7.448   1.120  10.167  0.0314  0.5305 -0.1941
  744MOL0     C  312   7.542   1.076  10.272  0.4834  0.3546  0.4755
  744MOL0     O  313   7.673   1.107  10.293 -0.2253 -0.0590  0.3780
  744MOL0     C  314   7.748   1.186  10.200  0.1719  0.0121  0.2132
  744MOL0     C  315   7.897   1.179  10.231  0.0408  0.1517 -0.2315
  744MOL0     C  316   7.957   1.061  10.153 -0.1972 -0.3030 -0.1558
  744MOL0     C  317   8.105   1.032  10.194  0.0876 -0.2342 -0.4638
  744MOL0     C  318   8.157   0.893  10.140 -0.4720 -0.1526  0.0419
  744MOL0     C  319   8.167   0.907   9.992 -0.0399  0.1838  0.0970
  744MOL0     C  320   8.283   0.827   9.931  0.3228  0.0719 -0.1134
  744MOL0     C  321   8.274   0.832   9.778 -0.1345  0.0638  0.0472
  744MOL0     N  322   8.348   0.941   9.717  0.0094 -0.2447  0.7156
  744MOL0     C  323   8.480   0.957   9.701 -0.2411 -0.2594 -0.3274
  744MOL0     C  324   8.494   1.068   9.628 -0.5140 -0.8693 -0.3638
  744MOL0     C  325   8.628   1.103   9.570  0.0294 -0.3059  0.3562
  744MOL0     C  326   8.712   1.180   9.676 -0.1852  0.0870 -0.1087
  744MOL0     C  327   8.661   1.321   9.701 -0.3556  0.6980 -0.3805
  744MOL0     C  328   8.651   1.416   9.579 -0.2876  0.4764 -0.0542
  744MOL0     O  329   8.640   1.541   9.640  1.3291  0.2672 -0.4945
  744MOL0     C  330   8.639   1.653   9.565  0.7583 -0.5026 -0.0633
  744MOL0     C  331   8.600   1.663   9.428  0.4129 -0.4153 -1.2537
  744MOL0     C  332   8.605   1.788   9.360  0.2247 -0.2119  0.0205
  744MOL0     C  333   8.652   1.911   9.420 -0.6229  0.2214  0.6199
  744MOL0     C  334   8.670   2.040   9.346  0.1481 -0.5534 -0.4375
  744MOL0     O  335   8.695   2.030   9.207  0.2048  0.1019  0.3274
  744MOL0     C  336   8.678   2.137   9.126 -0.5471 -0.3157 -0.7742
  744MOL0     C  337   8.584   2.245   9.149 -0.2994  0.1134 -0.3809
  744MOL0     C  338   8.582   2.358   9.061  0.8036  0.0950 -0.4894
  744MOL0     C  339   8.661   2.371   8.948  0.0909 -0.0260 -0.1266
  744MOL0     O  340   8.639   2.485   8.879 -0.4679  0.3899 -0.3554
  744MOL0     C  341   8.756   2.567   8.872 -0.9474  0.2025 -0.1273
  744MOL0     C  342   8.794   2.624   9.011  1.0542 -0.2463 -0.0985
  744MOL0     C  343   8.685   2.710   9.069 -0.0207 -0.6424  0.5974
  744MOL0     C  344   8.725   2.772   9.206  0.3746 -0.2043  0.0470
  744MOL0     C  345   8.655   2.703   9.333 -0.2618 -0.5080 -0.8844
  744MOL0     C  346   8.504   2.708   9.349  0.3752 -0.0076  0.5296
  744MOL0     C  347   8.460   2.851   9.341  0.3099 -0.0579  0.2401
  744MOL0     C  348   8.310   2.855   9.350 -0.1111 -0.7374  0.2946
  744MOL0    Cl  349   8.241   2.855   9.520  0.4749 -0.4570 -0.3366
  744MOL0     C  350   8.764   2.272   8.932 -0.3802  0.3806 -0.1734
  744MOL0     C  351   8.766   2.160   9.013  0.0777  0.3005 -0.3566
  744MOL0     O  352   8.672   2.143   9.407 -0.2967 -0.8885 -0.0258
  744MOL0     C  353   8.689   1.907   9.558 -0.8178  0.3461 -0.2262
  744MOL0     C  354   8.683   1.772   9.629 -1.0251 -0.0821  0.5813
  744MOL0     N  355   8.368   1.120   9.605 -0.7241 -0.5677  0.5506
  744MOL0     N  356   8.281   1.050   9.667  0.8067 -0.2335 -0.5759
  744MOL0     C  357   7.487   0.988  10.363 -0.7059  0.3855  0.3857
  744MOL0     C  358   7.359   0.934  10.343 -0.1525 -0.2775 -0.1251
  744MOL0     C  359   6.911   0.891  10.339 -0.5852 -0.6132  0.5668
  744MOL0     C  360   6.882   0.830  10.215  0.2922  0.3667 -0.0395
  744MOL0     C  361   6.773   0.755  10.198  0.6941 -0.4660  0.9666
  744MOL0     C  362   6.672   0.765  10.292  0.7858  0.5490  0.4040
  744MOL0     O  363   6.552   0.688  10.285  0.0441  0.2099  0.3996
  744MOL0     C  364   6.517   0.639  10.153 -0.0696 -1.2818 -0.4118
  744MOL0     C  365   6.366   0.608  10.144 -0.1945  1.1504 -0.1694
  744MOL0     C  366   6.318   0.541  10.013  0.1044  0.5161  0.0302
  744MOL0     C  367   6.330   0.623   9.889  0.4025 -0.1295 -0.2275
  744MOL0     C  368   6.452   0.605   9.814 -0.4602 -0.3701 -0.1858
  744MOL0     C  369   6.565   0.586   9.754  0.7574 -0.8111 -0.8423
  744MOL0     C  370   6.695   0.825  10.417  0.4783  0.1196  0.0379
  744MOL0     C  371   6.815   0.889  10.443  0.1037  0.4703  0.4969
  744MOL0     C  372   6.848   0.950  10.577 -0.2890 -0.1672 -0.3117
  744MOL0     H  373   7.256   1.113  10.081  1.3797  3.0635 -0.2063
  744MOL0     H  374   7.486   1.193  10.096  1.2194  0.5034  0.3829
  744MOL0     H  375   7.718   1.154  10.100  0.1929 -0.3706  0.3287
  744MOL0     H  376   7.714   1.290  10.204 -3.6767 -1.0768 -0.2784
  744MOL0     H  377   7.902   1.184  10.340 -0.2633  2.0051 -0.2538
  744MOL0     H  378   7.954   1.263  10.190 -1.4387  1.8181  0.9643
  744MOL0     H  379   7.965   1.080  10.046 -1.2404 -3.8480 -0.9761
  744MOL0     H  380   7.898   0.971  10.170  0.5455 -1.0130 -1.2407
  744MOL0     H  381   8.177   1.106  10.158 -2.0838  0.4498 -3.8337
  744MOL0     H  382   8.102   1.020  10.303  2.3198 -1.5615 -0.4863
  744MOL0     H  383   8.253   0.866  10.185 -0.1861 -0.2674 -0.6198
  744MOL0     H  384   8.088   0.819  10.181 -1.0091  1.4488  2.2419
  744MOL0     H  385   8.068   0.869   9.962 -0.1495 -0.5838  1.3451
  744MOL0     H  386   8.191   1.006   9.953  1.0918 -0.1111  0.0102
  744MOL0     H  387   8.291   0.725   9.971  4.1456  0.6334  1.0084
  744MOL0     H  388   8.372   0.884   9.959 -0.9716  1.8041  0.6551
  744MOL0     H  389   8.309   0.735   9.741  0.1883 -0.4853  1.7158
  744MOL0     H  390   8.168   0.831   9.751  0.4694 -2.7275 -2.8584
  744MOL0     H  391   8.550   0.887   9.745  0.3722  0.8980  0.5938
  744MOL0     H  392   8.672   1.004   9.553 -0.8980 -0.3845 -1.9516
  744MOL0     H  393   8.608   1.159   9.479  1.0099  1.3925  1.1233
  744MOL0     H  394   8.725   1.130   9.772  0.7219 -1.1049 -0.8211
  744MOL0     H  395   8.814   1.201   9.644 -0.0241  1.9256  1.4502
  744MOL0     H  396   8.735   1.366   9.768 -0.2436 -0.3604  0.2301
  744MOL0     H  397   8.568   1.317   9.759  1.3452  1.2687  2.6167
  744MOL0     H  398   8.568   1.389   9.513  0.2041 -2.0638  0.2477
  744MOL0     H  399   8.747   1.410   9.527  1.7147  1.9347  3.1491
  744MOL0     H  400   8.580   1.578   9.363  1.2579 -0.9025 -0.8905
  744MOL0     H  401   8.592   1.790   9.252 -0.3746 -0.8676  0.0720
  744MOL0     H  402   8.517   2.236   9.233 -1.0329 -1.2162 -1.0768
  744MOL0     H  403   8.503   2.433   9.069 -2.7658 -3.4241  1.2430
  744MOL0     H  404   8.837   2.517   8.819 -0.4833 -2.0632  2.5479
  744MOL0     H  405   8.739   2.653   8.805 -1.2221  0.8625  0.7639
  744MOL0     H  406   8.822   2.545   9.081 -2.1428 -0.9908  0.4924
  744MOL0     H  407   8.880   2.692   9.005  0.0086  0.9932 -2.3865
  744MOL0     H  408   8.651   2.790   9.003  0.7820  1.1172  2.2375
  744MOL0     H  409   8.598   2.646   9.090 -0.8394  0.8716  2.1088
  744MOL0     H  410   8.691   2.875   9.218 -0.3941 -0.6673  2.2651
  744MOL0     H  411   8.834   2.780   9.211  0.4227  0.3409 -1.4271
  744MOL0     H  412   8.698   2.759   9.417 -1.9120  1.9122 -1.5502
  744MOL0     H  413   8.690   2.601   9.349 -0.5787 -0.1161  3.9874
  744MOL0     H  414   8.459   2.643   9.274  0.3112 -0.7986  1.2478
  744MOL0     H  415   8.486   2.669   9.450  1.4418  0.9561  1.1175
  744MOL0     H  416   8.493   2.888   9.244 -1.0759 -1.0169 -0.6239
  744MOL0     H  417   8.503   2.916   9.419  0.5069  1.0657 -0.7733
  744MOL0     H  418   8.284   2.953   9.309 -1.2408 -0.7494  0.9428
  744MOL0     H  419   8.267   2.774   9.290 -0.0236 -0.4380 -0.1857
  744MOL0     H  420   8.833   2.299   8.853 -0.3084  0.0357 -0.2298
  744MOL0     H  421   8.852   2.098   8.988 -0.0996 -0.3935  0.6978
  744MOL0     H  422   8.746   1.990   9.599 -0.4074 -0.1584  0.2192
  744MOL0     H  423   8.699   1.754   9.735 -2.3424  1.0277  0.9957
  744MOL0     H  424   7.544   0.952  10.448  2.9383  0.2086 -1.9388
  744MOL0     H  425   7.330   0.852  10.408 -0.1690 -1.0383 -1.0736
  744MOL0     H  426   6.953   0.837  10.134  0.5200  3.7733  0.2883
  744MOL0     H  427   6.758   0.700  10.106 -0.4443 -0.6171  1.2394
  744MOL0     H  428   6.574   0.548  10.134  0.2195 -2.0653  3.3305
  744MOL0     H  429   6.550   0.710  10.077 -0.8884 -1.7892 -1.2636
  744MOL0     H  430   6.318   0.707  10.139 -1.7101  0.5718  1.7401
  744MOL0     H  431   6.337   0.547  10.230 -0.1303  0.1366 -0.8497
  744MOL0     H  432   6.216   0.512  10.039  0.4976 -1.0838 -0.1043
  744MOL0     H  433   6.383   0.454   9.998 -0.4503  0.3632 -1.6557
  744MOL0     H  434   6.249   0.584   9.825  0.6069 -6.0228  2.4611
  744MOL0     H  435   6.313   0.730   9.902 -2.1708 -0.7114  2.0296
  744MOL0     H  436   6.659   0.564   9.708  1.1531  1.5892 -1.3378
  744MOL0     H  437   6.617   0.821  10.491  1.1433 -1.5535  0.6912
  744MOL0     H  438   6.931   0.897  10.625  0.1801 -0.0523 -0.9835
  744MOL0     H  439   6.865   1.056  10.559 -1.7116  0.3494  1.1057
  744MOL0     H  440   6.771   0.941  10.654  0.1970 -0.9174  0.0929
  745MOL0     O  441  10.506   0.368   7.386 -0.5211  0.3361  0.5599
  745MOL0     C  442  10.411   0.320   7.443  0.2718  0.3303  0.3945
  745MOL0     O  443  10.380   0.341   7.570  0.2287  0.5173 -0.2358
  745MOL0     C  444  10.480   0.373   7.650 -0.2382  0.5151 -0.3425
  745MOL0     C  445  10.547   0.273   7.724  0.1616  0.1630  0.7678
  745MOL0     C  446  10.629   0.291   7.827 -0.5538  0.7818 -0.0959
  745MOL0     C  447  10.673   0.423   7.845 -0.0499  0.0389  0.1897
  745MOL0     O  448  10.753   0.466   7.943  1.0252  0.2744  0.5152
  745MOL0     C  449  10.765   0.374   8.049  0.3243  0.0014  0.3134
  745MOL0     C  450  10.812   0.460   8.169 -0.2680  0.0701  0.4720
  745MOL0     C  451  10.858   0.368   8.285 -0.7248  0.1306 -0.1876
  745MOL0     C  452  11.007   0.334   8.282 -0.7323 -0.2534 -0.2163
  745MOL0     C  453  11.037   0.237   8.396  0.9390 -0.1033  0.2676
  745MOL0     C  454  11.187   0.198   8.400 -1.2489  0.2471  0.9192
  745MOL0     C  455  11.233   0.124   8.523 -1.1194 -0.8581  0.5369
  745MOL0     C  456  11.391   0.106   8.521  0.1409  0.4576 -0.1530
  745MOL0     N  457  11.432   0.017   8.624  0.0306 -0.1645 -0.5520
  745MOL0     C  458  11.458  -0.116   8.609 -0.1044  0.4145  0.3573
  745MOL0     C  459  11.527  -0.153   8.721  0.0910  0.3526  0.8061
  745MOL0     C  460  11.570  -0.291   8.735 -0.6915 -0.9243 -0.4383
  745MOL0     C  461  11.721  -0.290   8.795  0.4709  0.0513  0.2302
  745MOL0     C  462  11.794  -0.432   8.787  0.0534  0.1241 -0.2429
  745MOL0     C  463  11.925  -0.436   8.862 -0.2842  0.5955  0.3851
  745MOL0     O  464  12.016  -0.331   8.825 -0.0188 -0.2153 -0.0583
  745MOL0     C  465  12.148  -0.338   8.868  0.0142  0.1275  0.5084
  745MOL0     C  466  12.194  -0.425   8.976  0.4720 -0.7403  0.2776
  745MOL0     C  467  12.330  -0.423   9.011  0.4242 -0.3237 -0.8820
  745MOL0     C  468  12.422  -0.343   8.939  0.0555  0.6872 -0.0308
  745MOL0     C  469  12.562  -0.369   8.961 -0.3011  0.4188  0.2302
  745MOL0     O  470  12.591  -0.446   9.070  0.1073 -0.5208 -0.4085
  745MOL0     C  471  12.718  -0.481   9.095 -0.4771  0.1743 -0.4274
  745MOL0     C  472  12.770  -0.453   9.224 -0.5165 -0.9733  0.5870
  745MOL0     C  473  12.912  -0.467   9.238  0.4759  0.6196 -1.2368
  745MOL0     C  474  12.991  -0.535   9.143 -0.4431 -0.1980 -0.0022
  745MOL0     O  475  13.125  -0.546   9.156 -1.0901  0.8226  0.0198
  745MOL0     C  476  13.161  -0.586   9.286 -0.0380 -0.6683  0.1382
  745MOL0     C  477  13.299  -0.636   9.283  0.3260  0.7315  0.5223
  745MOL0     C  478  13.322  -0.760   9.195 -0.0533 -0.1493 -0.7081
  745MOL0     C  479  13.446  -0.847   9.221 -0.8610 -0.5912  0.2524
  745MOL0     C  480  13.579  -0.767   9.191  0.3687 -0.3430 -0.1068
  745MOL0     C  481  13.705  -0.853   9.174  0.0643  0.4483  0.0039
  745MOL0     C  482  13.844  -0.783   9.192  0.5051 -0.8078  0.2155
  745MOL0     C  483  13.872  -0.763   9.333 -0.0488 -0.3012 -0.1588
  745MOL0    Cl  484  13.997  -0.642   9.367 -0.2474 -0.8295 -0.1671
  745MOL0     C  485  12.932  -0.577   9.026  0.3644  0.2594 -0.5540
  745MOL0     C  486  12.798  -0.550   9.007 -0.7533  0.5809 -0.0926
  745MOL0     O  487  12.646  -0.320   8.889 -0.1007 -0.2421 -0.2607
  745MOL0     C  488  12.380  -0.271   8.821  0.5649 -0.4125 -0.4498
  745MOL0     C  489  12.246  -0.276   8.789  1.1275  0.4857 -0.1582
  745MOL0     N  490  11.543  -0.042   8.794  0.3579 -0.0620  0.1435
  745MOL0     N  491  11.498   0.056   8.740  0.5005 -0.8485  1.1135
  745MOL0     C  492  10.626   0.521   7.756 -0.6228 -0.7313  0.1554
  745MOL0     C  493  10.522   0.498   7.668 -0.2865 -0.4777  0.2192
  745MOL0     C  494  10.315   0.240   7.359  0.1896 -0.0195  0.8090
  745MOL0     C  495  10.225   0.160   7.433  0.1544  0.0701 -0.6494
  745MOL0     C  496  10.147   0.062   7.371 -0.7693 -0.3737  0.3910
  745MOL0     C  497  10.152   0.061   7.229 -0.7428  0.3804  0.1672
  745MOL0     O  498  10.086  -0.022   7.135  0.4834  0.1737 -0.2259
  745MOL0     C  499  10.029  -0.144   7.189  0.2581  0.4538 -0.1540
  745MOL0     C  500  10.018  -0.257   7.085 -0.1196  0.3613  0.4499
  745MOL0     C  501   9.882  -0.247   7.016 -0.4367 -0.0337  0.1080
  745MOL0     C  502   9.889  -0.329   6.883 -0.0764  0.5182  0.7481
  745MOL0     C  503   9.869  -0.480   6.905 -0.4505  0.0545 -0.0305
  745MOL0     C  504   9.858  -0.596   6.923  0.1829 -1.2731  0.1260
  745MOL0     C  505  10.222   0.164   7.162  0.8217  0.7412  0.2461
  745MOL0     C  506  10.301   0.251   7.229 -0.2186  0.7629 -0.0889
  745MOL0     C  507  10.378   0.351   7.144 -0.1498  0.2269 -0.0871
  745MOL0     H  508  10.522   0.169   7.708  0.3675  0.2837 -0.3830
  745MOL0     H  509  10.677   0.208   7.878  0.2159  0.6700 -0.9856
  745MOL0     H  510  10.670   0.327   8.076 -0.1198  0.8355  0.2608
  745MOL0     H  511  10.829   0.291   8.020 -0.5192 -0.0267 -1.6594
  745MOL0     H  512  10.737   0.534   8.200 -0.7707 -0.3578  0.2823
  745MOL0     H  513  10.898   0.521   8.139  1.4371 -2.0020  0.8790
  745MOL0     H  514  10.804   0.274   8.295 -0.1849 -0.2852 -1.0588
  745MOL0     H  515  10.825   0.413   8.379 -0.2255  1.4743 -0.6293
  745MOL0     H  516  11.034   0.297   8.183  0.8523 -1.0043  0.4579
  745MOL0     H  517  11.071   0.419   8.308  0.6774 -1.4396  0.3482
  745MOL0     H  518  11.008   0.294   8.485 -0.4651 -0.1155 -0.1625
  745MOL0     H  519  10.970   0.151   8.394 -1.2025  1.4683  0.9896
  745MOL0     H  520  11.210   0.148   8.305 -1.2011  1.0884  0.4804
  745MOL0     H  521  11.250   0.287   8.397  0.6083 -1.0351  0.2712
  745MOL0     H  522  11.195   0.023   8.506 -0.5554 -0.5287 -3.5991
  745MOL0     H  523  11.190   0.149   8.621  0.2642  0.0991  0.9305
  745MOL0     H  524  11.421   0.061   8.426  2.3752 -0.8234  1.0662
  745MOL0     H  525  11.452   0.197   8.527  0.8385 -0.1113  2.2601
  745MOL0     H  526  11.421  -0.190   8.538  2.8671 -2.9262  1.9732
  745MOL0     H  527  11.508  -0.341   8.810 -1.7922  0.2826 -0.5016
  745MOL0     H  528  11.553  -0.341   8.640 -0.3978 -1.1664 -0.3639
  745MOL0     H  529  11.778  -0.232   8.721  2.1772 -0.2603  1.2383
  745MOL0     H  530  11.719  -0.249   8.896  0.7351  0.2139  0.1701
  745MOL0     H  531  11.815  -0.454   8.682  0.8965  0.2581 -0.1174
  745MOL0     H  532  11.730  -0.511   8.826 -1.7743  1.6404 -0.0245
  745MOL0     H  533  11.963  -0.537   8.842  0.6085  0.6140  1.9164
  745MOL0     H  534  11.899  -0.423   8.967 -2.0299  0.7205 -0.0271
  745MOL0     H  535  12.124  -0.484   9.034  0.8700  0.2810  1.8787
  745MOL0     H  536  12.365  -0.483   9.094 -0.5976  2.2285  1.5484
  745MOL0     H  537  12.712  -0.409   9.304  0.1142  0.7569  0.1497
  745MOL0     H  538  12.951  -0.430   9.332  1.9893 -1.5883 -0.9205
  745MOL0     H  539  13.157  -0.504   9.358 -1.2008 -2.0195  1.6827
  745MOL0     H  540  13.096  -0.668   9.318 -1.0437 -0.6349 -1.6927
  745MOL0     H  541  13.364  -0.558   9.242  2.0030 -0.7325  0.2600
  745MOL0     H  542  13.340  -0.649   9.384 -0.0684 -0.9708  0.4971
  745MOL0     H  543  13.243  -0.828   9.229  0.4560  0.5003  2.0010
  745MOL0     H  544  13.315  -0.732   9.090 -0.8793  2.3373 -0.0449
  745MOL0     H  545  13.447  -0.934   9.154 -2.1669 -0.0901 -0.4331
  745MOL0     H  546  13.458  -0.886   9.323  0.9770 -0.7727  0.0129
  745MOL0     H  547  13.605  -0.700   9.274 -3.3668  0.4989  0.5352
  745MOL0     H  548  13.554  -0.719   9.096 -1.3546 -1.5620 -0.3160
  745MOL0     H  549  13.710  -0.936   9.246  1.3901  0.2639 -0.2628
  745MOL0     H  550  13.693  -0.896   9.074 -0.9259  2.0178 -0.5796
  745MOL0     H  551  13.826  -0.685   9.148 -1.2173 -0.9564  0.5070
  745MOL0     H  552  13.917  -0.836   9.130 -0.7132  2.6736 -4.8444
  745MOL0     H  553  13.785  -0.731   9.392  1.2558 -0.1616  1.8149
  745MOL0     H  554  13.900  -0.860   9.375 -0.1538  0.6503  2.3101
  745MOL0     H  555  12.972  -0.624   8.937 -1.9842  0.5878 -1.8507
  745MOL0     H  556  12.749  -0.579   8.915  1.6210 -0.5682 -1.0721
  745MOL0     H  557  12.449  -0.209   8.764  0.9080  3.0565  3.3144
  745MOL0     H  558  12.205  -0.234   8.697  0.3585 -0.7293 -0.3875
  745MOL0     H  559  10.672   0.619   7.766  0.2106 -1.1759  0.7532
  745MOL0     H  560  10.476   0.572   7.602  2.4187  0.7486 -0.4326
  745MOL0     H  561  10.201   0.178   7.538 -3.1101 -1.4668 -0.9854
  745MOL0     H  562  10.069  -0.003   7.411 -1.7208  0.0062 -0.8036
  745MOL0     H  563   9.936  -0.121   7.241  0.1131 -1.4113  0.4866
  745MOL0     H  564  10.106  -0.180   7.257  1.8623 -0.1502 -2.1814
  745MOL0     H  565  10.039  -0.354   7.132 -0.5216 -0.5342 -1.1455
  745MOL0     H  566  10.096  -0.255   7.009 -1.6005 -2.2652 -1.2999
  745MOL0     H  567   9.853  -0.142   7.010  2.3674  1.0252  2.3563
  745MOL0     H  568   9.812  -0.302   7.080  0.0758  0.8034  1.4259
  745MOL0     H  569   9.810  -0.297   6.814 -0.0130 -1.2379 -0.2251
  745MOL0     H  570   9.988  -0.316   6.838 -0.2094  0.5313  0.4575
  745MOL0     H  571   9.837  -0.692   6.967 -0.5558 -0.1897  2.2864
  745MOL0     H  572  10.210   0.159   7.054 -0.1555  1.7046  0.2994
  745MOL0     H  573  10.478   0.317   7.115 -0.4600 -1.0139  0.2730
  745MOL0     H  574  10.330   0.364   7.047 -2.9330 -1.8427  0.9083
  745MOL0     H  575  10.379   0.448   7.195 -0.0371 -0.5145  1.3640
  746MOL0     O  576   2.817   4.063   3.208  0.4259  0.6226 -0.9603
  746MOL0     C  577   2.793   4.058   3.091  0.8111 -0.6489 -0.3697
  746MOL0     O  578   2.780   3.947   3.012  0.0577  0.0760 -1.1053
  746MOL0     C  579   2.812   3.830   3.066 -0.5667  0.1713  0.3547
  746MOL0     C  580   2.944   3.804   3.114 -0.0589  0.5197  0.5486
  746MOL0     C  581   2.971   3.676   3.169 -0.1638 -0.0879 -0.2694
  746MOL0     C  582   2.870   3.580   3.179  0.5758 -0.4273  0.1061
  746MOL0     O  583   2.885   3.448   3.217 -0.1026  0.4842  0.5085
  746MOL0     C  584   3.010   3.394   3.239 -0.2630 -0.5255 -0.9191
  746MOL0     C  585   2.980   3.245   3.204  0.2095 -1.1340  0.2321
  746MOL0     C  586   2.876   3.195   3.308 -0.1233  1.1832 -0.3267
  746MOL0     C  587   2.860   3.048   3.273 -0.3790  1.0312  0.9683
  746MOL0     C  588   2.764   3.034   3.161 -0.2946 -0.2783  0.7944
  746MOL0     C  589   2.814   2.993   3.023 -0.3159 -0.2139 -0.2568
  746MOL0     C  590   2.698   2.972   2.924 -0.7791  0.4071 -0.6578
  746MOL0     C  591   2.620   2.841   2.946 -0.3916  0.1980  0.5001
  746MOL0     N  592   2.569   2.799   2.819  1.1590  0.4286 -0.1693
  746MOL0     C  593   2.442   2.841   2.765  0.1549  0.4729  0.3823
  746MOL0     C  594   2.413   2.749   2.663  1.4024 -0.8387  0.1100
  746MOL0     C  595   2.295   2.764   2.571 -0.4341 -0.1111  0.2700
  746MOL0     C  596   2.239   2.634   2.514  0.1273 -0.1174 -0.5394
  746MOL0     C  597   2.327   2.594   2.404  0.0250  0.7679  0.2052
  746MOL0     C  598   2.261   2.478   2.318  0.1464  1.0114 -0.3046
  746MOL0     O  599   2.388   2.418   2.269  0.1585 -0.8185 -0.6779
  746MOL0     C  600   2.389   2.304   2.195 -0.1149 -1.2975 -0.1451
  746MOL0     C  601   2.503   2.277   2.126  0.7838  0.0701  0.2208
  746MOL0     C  602   2.509   2.161   2.037 -1.1718 -0.0578  0.2409
  746MOL0     C  603   2.389   2.091   2.015 -0.9041 -0.1347  0.1316
  746MOL0     C  604   2.378   1.988   1.908 -0.3444  0.3957  0.5577
  746MOL0     O  605   2.268   1.982   1.825 -0.0551  0.2466  0.4121
  746MOL0     C  606   2.250   1.863   1.752  0.0533 -0.4562 -0.2491
  746MOL0     C  607   2.265   1.736   1.814  0.5306 -0.3664 -0.5470
  746MOL0     C  608   2.229   1.616   1.738 -0.0066 -0.2501  0.0420
  746MOL0     C  609   2.180   1.627   1.606  0.4383  0.6251  0.0397
  746MOL0     O  610   2.126   1.515   1.538 -0.0679 -0.6541 -0.6983
  746MOL0     C  611   2.045   1.434   1.628 -0.4315  0.2339 -0.6717
  746MOL0     C  612   1.990   1.317   1.543  0.0234 -0.0984  0.3363
  746MOL0     C  613   1.881   1.372   1.450  0.2329 -0.3131 -0.3951
  746MOL0     C  614   1.841   1.264   1.345  0.3409  0.0789  0.6955
  746MOL0     C  615   1.717   1.330   1.275 -0.1408 -0.4957 -0.7177
  746MOL0     C  616   1.665   1.259   1.146 -0.7906 -0.1689  0.2980
  746MOL0     C  617   1.525   1.301   1.088  0.0120  0.0976 -0.7890
  746MOL0     C  618   1.470   1.209   0.979  0.5978  0.1615 -0.1690
  746MOL0    Cl  619   1.383   1.056   1.047  0.3623  0.0462 -0.1729
  746MOL0     C  620   2.172   1.761   1.553 -0.2600  0.0859 -0.6252
  746MOL0     C  621   2.203   1.873   1.619  0.5674  0.1737 -0.8710
  746MOL0     O  622   2.484   1.923   1.891  0.6333  0.2230 -0.1173
  746MOL0     C  623   2.266   2.133   2.083  0.0060  0.7915 -0.1898
  746MOL0     C  624   2.271   2.236   2.165  0.1247 -1.0286  0.1430
  746MOL0     N  625   2.529   2.674   2.646  0.7602 -0.4187  0.0785
  746MOL0     N  626   2.620   2.705   2.737 -0.5901  0.3674 -0.5398
  746MOL0     C  627   2.743   3.620   3.143  0.2887  0.3408 -0.7155
  746MOL0     C  628   2.719   3.733   3.073 -0.6553  0.2419 -0.1611
  746MOL0     C  629   2.773   4.189   3.024 -0.0707 -0.4217 -0.9741
  746MOL0     C  630   2.748   4.298   3.110 -0.6218  1.0795 -0.2978
  746MOL0     C  631   2.727   4.422   3.061 -0.6187  0.3304  0.3767
  746MOL0     C  632   2.720   4.445   2.923 -0.4500 -0.2137  0.3665
  746MOL0     O  633   2.688   4.573   2.879  0.0409 -0.1229  0.3377
  746MOL0     C  634   2.658   4.593   2.738  0.6883 -0.2054 -0.6696
  746MOL0     C  635   2.582   4.719   2.714  0.6476  0.6137 -0.1778
  746MOL0     C  636   2.667   4.846   2.757  0.2857 -0.2055  0.6435
  746MOL0     C  637   2.586   4.974   2.735  0.9971 -0.0329 -0.9984
  746MOL0     C  638   2.656   5.092   2.778  0.3968 -0.0538 -0.5518
  746MOL0     C  639   2.709   5.188   2.813 -0.5699 -0.5004 -0.7516
  746MOL0     C  640   2.753   4.332   2.836  1.0871 -0.4631 -0.3484
  746MOL0     C  641   2.779   4.211   2.879 -0.0873  0.7722 -0.3120
  746MOL0     C  642   2.812   4.110   2.775 -0.6448  0.3528 -0.0761
  746MOL0     H  643   3.012   3.888   3.114 -1.9097  2.1662 -1.6304
  746MOL0     H  644   3.069   3.656   3.212 -0.6468 -0.3774  0.7437
  746MOL0     H  645   3.079   3.436   3.166 -0.4355 -1.5259 -1.6715
  746MOL0     H  646   3.044   3.412   3.342 -0.4199 -0.8298 -0.8149
  746MOL0     H  647   3.068   3.181   3.204 -0.0166 -1.5082 -1.4727
  746MOL0     H  648   2.935   3.237   3.104  1.3565  0.4529 -0.4626
  746MOL0     H  649   2.777   3.240   3.312 -0.4219  0.4867  0.4193
  746MOL0     H  650   2.913   3.212   3.409 -1.2865  1.1263  0.1222
  746MOL0     H  651   2.943   2.977   3.269 -0.9784  0.3449 -2.6155
  746MOL0     H  652   2.805   2.998   3.354  2.0167 -4.1732 -0.1695
  746MOL0     H  653   2.705   2.944   3.181  0.1267 -1.0486 -1.1318
  746MOL0     H  654   2.700   3.121   3.146 -0.2286 -0.3865 -0.2301
  746MOL0     H  655   2.885   3.068   2.989  0.9109 -2.0803 -2.0212
  746MOL0     H  656   2.867   2.898   3.029 -0.1270 -0.0088  2.5438
  746MOL0     H  657   2.730   2.973   2.819 -4.6868  2.9073 -2.0306
  746MOL0     H  658   2.630   3.057   2.928 -2.0616 -0.6468  1.1995
  746MOL0     H  659   2.685   2.765   2.991 -1.7987 -1.3028  0.0835
  746MOL0     H  660   2.537   2.863   3.013 -1.0030  4.3416 -1.3049
  746MOL0     H  661   2.382   2.921   2.808  0.6350  0.7870  0.4842
  746MOL0     H  662   2.215   2.812   2.628  0.0788 -1.8556  2.6102
  746MOL0     H  663   2.321   2.842   2.498 -2.3298  0.3626  0.0635
  746MOL0     H  664   2.231   2.552   2.585  3.4289 -2.4871 -2.5898
  746MOL0     H  665   2.137   2.644   2.474  0.6368 -0.1014 -1.8908
  746MOL0     H  666   2.419   2.560   2.453  0.1661 -0.4604 -0.8522
  746MOL0     H  667   2.341   2.679   2.338  2.2717  1.9294  2.0132
  746MOL0     H  668   2.199   2.514   2.235  0.2823  0.9940 -0.4141
  746MOL0     H  669   2.209   2.398   2.370  1.1474  0.5841  0.0567
  746MOL0     H  670   2.594   2.332   2.148 -0.3723  0.8576  3.6311
  746MOL0     H  671   2.602   2.145   1.985 -0.5332 -0.0400  1.3426
  746MOL0     H  672   2.317   1.719   1.907  2.2874 -0.6700 -1.5393
  746MOL0     H  673   2.252   1.516   1.772  0.8137  0.0045  0.2594
  746MOL0     H  674   2.115   1.386   1.698 -0.0469  0.7245 -0.7175
  746MOL0     H  675   1.968   1.485   1.686 -0.3176 -0.2166 -0.1168
  746MOL0     H  676   2.078   1.277   1.492 -0.0811 -3.2206  2.3627
  746MOL0     H  677   1.950   1.239   1.609  0.4654  1.4187  2.5099
  746MOL0     H  678   1.796   1.410   1.507  0.4782 -0.8336  0.3290
  746MOL0     H  679   1.920   1.454   1.388  0.5434 -1.5837 -1.9232
  746MOL0     H  680   1.804   1.173   1.392  3.6359 -1.4027  0.7173
  746MOL0     H  681   1.923   1.234   1.279  1.7026 -0.6806  2.6583
  746MOL0     H  682   1.762   1.426   1.245  0.9699 -0.6702  0.3364
  746MOL0     H  683   1.642   1.354   1.350  1.5474  3.1368  0.0270
  746MOL0     H  684   1.747   1.270   1.074  0.1728 -3.3148  0.7556
  746MOL0     H  685   1.644   1.154   1.168 -2.6874 -0.4449 -2.3737
  746MOL0     H  686   1.522   1.409   1.068  0.6798  0.7481  2.1159
  746MOL0     H  687   1.465   1.288   1.179 -0.4569 -0.2142 -1.1373
  746MOL0     H  688   1.408   1.271   0.913  1.6671  1.5240  0.0786
  746MOL0     H  689   1.553   1.172   0.918  0.9562 -1.4576  1.2257
  746MOL0     H  690   2.139   1.773   1.450  1.3588 -1.8400 -1.4339
  746MOL0     H  691   2.178   1.971   1.577 -0.2774  0.3970  0.1199
  746MOL0     H  692   2.173   2.079   2.065  1.1401 -1.1163 -0.6186
  746MOL0     H  693   2.174   2.265   2.202 -0.8734 -3.0346 -0.6905
  746MOL0     H  694   2.661   3.549   3.144  1.5168 -1.1563 -1.5621
  746MOL0     H  695   2.619   3.760   3.039 -0.7112  0.2789  0.0334
  746MOL0     H  696   2.749   4.282   3.218 -0.3527  2.5138 -0.0732
  746MOL0     H  697   2.697   4.509   3.118 -0.3958  0.7298 -0.1075
  746MOL0     H  698   2.602   4.512   2.691  1.4679  0.9787 -3.9421
  746MOL0     H  699   2.753   4.605   2.685  0.8524 -1.1494 -0.6062
  746MOL0     H  700   2.478   4.718   2.749 -0.0761 -0.7899 -2.1894
  746MOL0     H  701   2.566   4.735   2.607 -4.2886  0.6361  0.3508
  746MOL0     H  702   2.771   4.841   2.722  0.6541 -0.8138  1.7789
  746MOL0     H  703   2.685   4.849   2.865 -2.7051  3.9745  1.2675
  746MOL0     H  704   2.566   4.995   2.630 -1.4091  1.4326 -0.3174
  746MOL0     H  705   2.489   4.982   2.786  1.4695  1.2897 -0.2768
  746MOL0     H  706   2.757   5.275   2.852 -1.3949 -0.2103 -0.3486
  746MOL0     H  707   2.755   4.335   2.727 -3.3560 -2.0882 -0.6507
  746MOL0     H  708   2.815   4.142   2.670  0.1896 -2.8595 -1.1613
  746MOL0     H  709   2.906   4.059   2.796 -1.6554 -2.8409 -2.4761
  746MOL0     H  710   2.732   4.036   2.765  0.0297 -0.1150 -2.9701
  747MOL0     O  711   3.524   8.795   7.708  0.7193 -0.0638  0.3942
  747MOL0     C  712   3.422   8.855   7.729  0.4544  0.1228  0.3452
  747MOL0     O  713   3.365   8.876   7.855  0.5647 -0.2413 -0.2603
  747MOL0     C  714   3.416   8.816   7.968 -0.4329  0.3487 -0.2203
  747MOL0     C  715   3.510   8.708   7.973 -0.4541 -0.5304 -0.3620
  747MOL0     C  716   3.554   8.661   8.100 -0.3125  0.2215 -0.5830
  747MOL0     C  717   3.511   8.723   8.218 -0.3824  0.0217  1.0005
  747MOL0     O  718   3.554   8.665   8.332  0.9215 -0.4199 -0.1180
  747MOL0     C  719   3.484   8.685   8.452 -0.4457 -0.0332 -0.2927
  747MOL0     C  720   3.386   8.572   8.480  0.5220 -0.2533 -0.1071
  747MOL0     C  721   3.347   8.547   8.621 -0.1230  0.3736 -0.5436
  747MOL0     C  722   3.454   8.457   8.684 -0.9676 -0.8724 -0.6066
  747MOL0     C  723   3.438   8.313   8.661 -0.4655 -0.4462  0.0732
  747MOL0     C  724   3.563   8.242   8.735 -0.0308  0.0441 -0.4368
  747MOL0     C  725   3.570   8.093   8.714 -0.2267 -0.8472 -0.2940
  747MOL0     C  726   3.700   8.048   8.643  0.0674  0.4140  0.3545
  747MOL0     N  727   3.810   8.036   8.738 -0.1154 -0.8519 -0.3982
  747MOL0     C  728   3.831   7.922   8.819 -0.0432 -0.7458 -0.3161
  747MOL0     C  729   3.934   7.962   8.897 -0.0913  0.0581  0.0708
  747MOL0     C  730   4.001   7.866   8.986  0.3357  0.1714  1.2599
  747MOL0     C  731   4.073   7.757   8.903  0.2703 -0.4514  0.2219
  747MOL0     C  732   4.131   7.649   8.983 -0.8296 -0.1759 -0.0191
  747MOL0     C  733   4.194   7.538   8.900  0.3356  0.5431  0.2279
  747MOL0     O  734   4.326   7.576   8.865  0.6237  0.0527  0.3925
  747MOL0     C  735   4.433   7.537   8.944 -0.9860  0.0970 -0.2969
  747MOL0     C  736   4.416   7.478   9.075 -0.0024 -0.3109  0.8601
  747MOL0     C  737   4.527   7.448   9.153  0.7494 -0.4559 -0.5150
  747MOL0     C  738   4.649   7.479   9.101  0.3947 -1.0285 -0.7315
  747MOL0     C  739   4.762   7.431   9.185  0.8691  0.1730  0.5846
  747MOL0     O  740   4.761   7.459   9.317 -0.9957 -0.3115  0.0716
  747MOL0     C  741   4.877   7.455   9.387  0.6287  0.7727  0.6414
  747MOL0     C  742   4.867   7.410   9.523 -1.3737  0.7507  0.5905
  747MOL0     C  743   4.991   7.407   9.605 -0.0052 -0.0726 -0.3520
  747MOL0     C  744   5.102   7.469   9.558 -0.8184 -1.3419 -0.9860
  747MOL0     O  745   5.214   7.470   9.638  0.3222  0.7727 -0.0631
  747MOL0     C  746   5.333   7.519   9.575 -0.5056 -0.3103  0.0153
  747MOL0     C  747   5.453   7.464   9.635  0.2735 -0.1515  0.2947
  747MOL0     C  748   5.464   7.492   9.788  0.1712  0.2713 -0.2920
  747MOL0     C  749   5.493   7.640   9.839 -0.2929  0.4115  0.3905
  747MOL0     C  750   5.587   7.727   9.744  0.9180  0.1528 -0.3808
  747MOL0     C  751   5.731   7.687   9.748 -0.2025 -0.3901 -0.4952
  747MOL0     C  752   5.820   7.811   9.698 -0.4707  0.4337 -0.2255
  747MOL0     C  753   5.806   7.837   9.545  0.9025 -0.1504 -0.0878
  747MOL0    Cl  754   5.840   7.695   9.449  0.5797  0.0116  0.3367
  747MOL0     C  755   5.100   7.535   9.434 -0.4061 -0.0282  0.2311
  747MOL0     C  756   4.992   7.524   9.349  0.8737  0.4307  0.5833
  747MOL0     O  757   4.845   7.370   9.129  0.3372 -0.1906  0.0060
  747MOL0     C  758   4.673   7.544   8.976  0.8372 -0.5928 -1.0726
  747MOL0     C  759   4.563   7.574   8.895  0.6113 -1.1883 -0.5694
  747MOL0     N  760   3.964   8.092   8.866  0.0002 -0.0429  0.2410
  747MOL0     N  761   3.898   8.133   8.760 -0.4432 -0.2680  0.4551
  747MOL0     C  762   3.426   8.837   8.210  0.8804 -0.0614 -0.2261
  747MOL0     C  763   3.379   8.880   8.084 -0.3446 -0.0440  0.3931
  747MOL0     C  764   3.342   8.902   7.619  0.3327 -0.3919 -0.6214
  747MOL0     C  765   3.232   8.992   7.644  0.0681  0.2981  0.3783
  747MOL0     C  766   3.169   9.060   7.543 -0.3117 -0.9953  0.7215
  747MOL0     C  767   3.207   9.033   7.406  1.1768  0.4541 -0.4679
  747MOL0     O  768   3.168   9.104   7.292 -0.2263  0.4895 -0.6688
  747MOL0     C  769   3.037   9.158   7.293 -0.7470  0.1801  0.7321
  747MOL0     C  770   2.950   9.088   7.188  0.0614  0.7914 -0.3439
  747MOL0     C  771   2.797   9.108   7.208 -0.7475  0.0427 -0.4477
  747MOL0     C  772   2.726   9.074   7.086  0.0831 -0.7375  0.7958
  747MOL0     C  773   2.581   9.110   7.090  0.1837 -1.1290  0.4160
  747MOL0     C  774   2.461   9.142   7.101 -0.3065 -0.7534 -0.7461
  747MOL0     C  775   3.307   8.940   7.378 -0.6635  0.1194  0.3667
  747MOL0     C  776   3.381   8.875   7.483 -0.4885  0.2912 -0.0424
  747MOL0     C  777   3.491   8.787   7.434  0.6107 -0.8650 -0.1338
  747MOL0     H  778   3.559   8.656   7.891  1.0843 -0.1734  0.2948
  747MOL0     H  779   3.619   8.575   8.097 -0.2074  0.3237 -2.8496
  747MOL0     H  780   3.555   8.678   8.535 -2.8023 -4.1892  1.6954
  747MOL0     H  781   3.440   8.785   8.461  0.6772  0.4043  0.6048
  747MOL0     H  782   3.438   8.496   8.422 -1.4634 -0.8270 -1.2296
  747MOL0     H  783   3.288   8.573   8.432 -0.7644 -1.0775  2.3110
  747MOL0     H  784   3.244   8.512   8.629 -1.4425  3.7089 -1.0730
  747MOL0     H  785   3.355   8.640   8.679 -0.3737 -0.0076  0.1087
  747MOL0     H  786   3.553   8.486   8.646  0.0767 -3.5179 -0.1503
  747MOL0     H  787   3.465   8.468   8.792 -2.1860 -1.0070 -0.4660
  747MOL0     H  788   3.340   8.287   8.702 -2.6753  0.7203 -3.9069
  747MOL0     H  789   3.427   8.279   8.557 -1.3444 -1.4789  0.4899
  747MOL0     H  790   3.660   8.289   8.713 -0.3140 -0.1396 -2.1978
  747MOL0     H  791   3.566   8.266   8.842 -0.5230  0.4199 -0.5021
  747MOL0     H  792   3.490   8.059   8.647 -0.5250  2.4167 -1.7914
  747MOL0     H  793   3.558   8.039   8.808 -1.6560 -0.5475 -0.2762
  747MOL0     H  794   3.672   7.953   8.596 -0.2576 -1.0697  3.3319
  747MOL0     H  795   3.731   8.122   8.568 -0.6394 -0.8803 -1.2845
  747MOL0     H  796   3.786   7.824   8.816  0.0014 -0.8374  1.2731
  747MOL0     H  797   4.071   7.911   9.056 -3.4490  3.9523  3.0475
  747MOL0     H  798   3.922   7.815   9.042 -0.2657 -4.8706 -3.2240
  747MOL0     H  799   3.997   7.705   8.844  0.2173 -0.3395  0.1919
  747MOL0     H  800   4.143   7.806   8.835 -0.1917  1.1433  0.8590
  747MOL0     H  801   4.045   7.596   9.023 -0.7639 -1.2777 -1.2783
  747MOL0     H  802   4.210   7.686   9.048 -0.7849  2.3436 -1.3781
  747MOL0     H  803   4.136   7.500   8.815 -1.3601 -2.2925  2.4456
  747MOL0     H  804   4.202   7.451   8.966 -1.7618  2.1160  2.7262
  747MOL0     H  805   4.318   7.447   9.110 -1.3647 -0.5611 -2.7495
  747MOL0     H  806   4.523   7.385   9.241 -2.4192 -1.5225 -1.3024
  747MOL0     H  807   4.773   7.362   9.547 -0.5610  0.0141  2.5307
  747MOL0     H  808   4.982   7.346   9.695  1.7280 -2.3742 -1.6231
  747MOL0     H  809   5.343   7.502   9.467  1.4886  3.6945 -0.6156
  747MOL0     H  810   5.324   7.628   9.581 -1.1857 -0.0878 -3.0468
  747MOL0     H  811   5.457   7.355   9.621  3.0591  0.1585 -2.7872
  747MOL0     H  812   5.540   7.501   9.579 -0.0175 -1.6652 -1.2678
  747MOL0     H  813   5.370   7.470   9.840  1.6335  1.1128  2.9719
  747MOL0     H  814   5.538   7.424   9.831 -0.5682 -1.1577 -1.2047
  747MOL0     H  815   5.542   7.630   9.936  0.9073  4.7299  0.4072
  747MOL0     H  816   5.405   7.705   9.843  0.8947  2.1373 -0.5542
  747MOL0     H  817   5.582   7.831   9.778  2.0846 -1.0482  4.1106
  747MOL0     H  818   5.550   7.721   9.641  1.3851  3.7782 -0.8935
  747MOL0     H  819   5.767   7.662   9.848 -2.2731  2.9991  1.2632
  747MOL0     H  820   5.747   7.594   9.692  0.1995 -2.7620  3.1839
  747MOL0     H  821   5.924   7.788   9.719  0.0187  3.9453  2.1248
  747MOL0     H  822   5.785   7.892   9.763 -0.0076 -1.6738  2.9000
  747MOL0     H  823   5.704   7.866   9.519  1.6856  1.7138 -1.2547
  747MOL0     H  824   5.880   7.906   9.505  0.6310 -2.2508 -4.9131
  747MOL0     H  825   5.173   7.597   9.383  0.6606 -1.4353 -0.0102
  747MOL0     H  826   4.997   7.577   9.254 -2.1963  0.0982  0.1326
  747MOL0     H  827   4.779   7.550   8.955  0.9018  0.2724 -0.5397
  747MOL0     H  828   4.580   7.626   8.802 -1.0778  1.3429  0.4406
  747MOL0     H  829   3.377   8.880   8.297 -1.3464 -4.2429  0.8636
  747MOL0     H  830   3.324   8.972   8.066 -1.0987 -0.8275 -1.6245
  747MOL0     H  831   3.219   9.025   7.746 -0.0952 -0.2600  0.5416
  747MOL0     H  832   3.096   9.137   7.565  1.1873  0.5163  0.6231
  747MOL0     H  833   3.035   9.265   7.271 -0.7720 -0.0137 -0.2627
  747MOL0     H  834   3.004   9.149   7.397  0.6139  3.5031  1.5714
  747MOL0     H  835   2.972   8.982   7.199  1.6403  1.2095  0.9014
  747MOL0     H  836   2.979   9.122   7.088  0.9623  1.3399  0.0880
  747MOL0     H  837   2.781   9.212   7.237 -1.4199  0.1195 -1.0515
  747MOL0     H  838   2.763   9.042   7.289 -2.7158 -1.6829 -2.5214
  747MOL0     H  839   2.756   9.138   7.003 -4.0353  2.2351  1.2748
  747MOL0     H  840   2.747   8.969   7.061  2.5742 -0.3076  0.8975
  747MOL0     H  841   2.364   9.185   7.110  0.4120  1.1024 -1.5062
  747MOL0     H  842   3.324   8.923   7.272 -1.8570 -0.9404  0.3251
  747MOL0     H  843   3.591   8.823   7.459 -0.5153  1.5840  1.2768
  747MOL0     H  844   3.481   8.684   7.469  1.6124 -1.6470 -1.9942
  747MOL0     H  845   3.481   8.783   7.325  0.8041  2.1834 -0.3490
  748MOL0     O  846   3.501   9.673   5.506  0.6861  0.4539  0.2356
  748MOL0     C  847   3.502   9.791   5.483  0.8147 -0.1773  0.1272
  748MOL0     O  848   3.600   9.888   5.494 -0.5726 -0.2436 -0.7486
  748MOL0     C  849   3.739   9.863   5.507 -0.2745  0.5822 -0.7493
  748MOL0     C  850   3.829   9.962   5.467  0.3903  0.0730  0.1344
  748MOL0     C  851   3.965   9.944   5.474 -0.2089 -0.3435  1.0826
  748MOL0     C  852   4.023   9.833   5.538  0.3835 -1.0660  0.2717
  748MOL0     O  853   4.148   9.823   5.564 -0.0854  0.3543  0.0958
  748MOL0     C  854   4.228   9.881   5.465  0.1451  0.2962  0.0034
  748MOL0     C  855   4.364   9.826   5.492 -0.4307 -0.7878 -2.3363
  748MOL0     C  856   4.429   9.846   5.636  0.1640  0.2069  0.5784
  748MOL0     C  857   4.584   9.826   5.641 -0.1938  0.1150 -0.4325
  748MOL0     C  858   4.620   9.738   5.755 -0.4113  0.4693  0.8058
  748MOL0     C  859   4.771   9.706   5.751  0.3687 -0.0535 -0.5281
  748MOL0     C  860   4.819   9.644   5.882 -0.3688  0.7065 -0.5082
  748MOL0     C  861   4.838   9.741   6.005 -0.4432 -0.1164 -0.5406
  748MOL0     N  862   4.708   9.771   6.073 -0.7578 -0.1567 -0.9787
  748MOL0     C  863   4.638   9.884   6.062 -0.2681  0.8529 -0.3978
  748MOL0     C  864   4.533   9.868   6.158 -1.3020 -0.7910  0.7578
  748MOL0     C  865   4.426   9.977   6.187  0.5408 -0.3924  0.1855
  748MOL0     C  866   4.285   9.940   6.139 -0.2728  0.1832  0.5867
  748MOL0     C  867   4.266   9.945   5.985  1.1274  0.2620  0.3161
  748MOL0     C  868   4.116   9.959   5.937  0.7728  0.1903  0.7615
  748MOL0     O  869   4.046  10.072   5.996 -0.0429 -0.9506 -0.3007
  748MOL0     C  870   3.944  10.124   5.932  0.9808  0.2416  0.2137
  748MOL0     C  871   3.913  10.252   5.973  1.2066  0.1085 -0.9518
  748MOL0     C  872   3.809  10.318   5.897  0.4246  0.4819  0.3674
  748MOL0     C  873   3.734  10.248   5.806 -0.5314 -0.9885  0.4333
  748MOL0     C  874   3.611  10.317   5.753  0.5224 -0.6252  0.6165
  748MOL0     O  875   3.583  10.441   5.803  0.1915  0.1989  0.4237
  748MOL0     C  876   3.469  10.521   5.772 -0.2540 -0.6599 -0.4467
  748MOL0     C  877   3.474  10.645   5.833  0.5523 -0.2066 -0.6621
  748MOL0     C  878   3.367  10.739   5.826  1.0494 -0.1410 -0.0996
  748MOL0     C  879   3.244  10.694   5.763 -0.6225  0.2829 -0.4201
  748MOL0     O  880   3.148  10.789   5.745 -0.3762  0.6707 -0.4080
  748MOL0     C  881   3.017  10.767   5.788  0.5765  0.2875 -1.0632
  748MOL0     C  882   3.018  10.733   5.942  0.1932 -0.6512  0.3223
  748MOL0     C  883   3.055  10.860   6.016  1.0168  0.8981  0.4446
  748MOL0     C  884   2.944  10.957   6.051  0.3010 -0.5907  0.1726
  748MOL0     C  885   2.989  11.079   6.137  0.6239  0.1639 -0.2036
  748MOL0     C  886   2.983  11.035   6.292 -0.9717  0.1672 -0.2208
  748MOL0     C  887   3.048  11.150   6.378 -0.4379  0.6598  0.3524
  748MOL0     C  888   2.970  11.161   6.509 -0.2912 -0.4229 -0.3036
  748MOL0    Cl  889   3.003  11.328   6.608  0.0593  0.2698  0.8638
  748MOL0     C  890   3.246  10.570   5.698  0.0779 -0.3361  0.1903
  748MOL0     C  891   3.353  10.485   5.699  0.0863  0.9953 -0.1197
  748MOL0     O  892   3.544  10.251   5.672 -0.3470 -0.0400 -0.2017
  748MOL0     C  893   3.781  10.126   5.761 -0.0122 -1.1729 -0.0664
  748MOL0     C  894   3.882  10.058   5.828  0.4832  0.2327  0.1791
  748MOL0     N  895   4.548   9.751   6.223  0.6804 -0.6399  0.2590
  748MOL0     N  896   4.658   9.695   6.179 -0.0016 -0.1039 -0.4838
  748MOL0     C  897   3.937   9.736   5.586 -0.1929  0.0626  0.3196
  748MOL0     C  898   3.797   9.748   5.565  0.7257  0.2009  0.2654
  748MOL0     C  899   3.370   9.858   5.460 -0.9407 -0.2589 -0.9110
  748MOL0     C  900   3.352   9.989   5.502 -0.0320  1.0658  0.4813
  748MOL0     C  901   3.242  10.063   5.473  0.1481  0.2128 -0.5612
  748MOL0     C  902   3.133  10.012   5.392  0.5191 -0.1015  0.0774
  748MOL0     O  903   3.028  10.095   5.351  0.4146 -0.5234  0.4342
  748MOL0     C  904   2.913  10.034   5.284  0.2628 -1.0858  0.1810
  748MOL0     C  905   2.826  10.151   5.218  0.7072 -0.0786 -0.3195
  748MOL0     C  906   2.681  10.100   5.219 -0.1345 -0.4492  0.8795
  748MOL0     C  907   2.577  10.191   5.159 -1.1452 -0.1155  0.0513
  748MOL0     C  908   2.452  10.115   5.143  0.8879  0.7592  0.4000
  748MOL0     C  909   2.353  10.050   5.122  0.4983 -0.2099 -0.1664
  748MOL0     C  910   3.149   9.884   5.351  0.4272 -0.3146 -0.0290
  748MOL0     C  911   3.260   9.809   5.386 -0.7708  0.1824 -1.5469
  748MOL0     C  912   3.258   9.670   5.316 -0.0421  0.1451 -0.2862
  748MOL0     H  913   3.786  10.046   5.415 -1.0970 -1.8832 -1.9746
  748MOL0     H  914   4.034  10.003   5.414 -1.3191 -0.9377 -0.8841
  748MOL0     H  915   4.196   9.833   5.372  0.6257 -0.1905  0.0853
  748MOL0     H  916   4.223   9.988   5.487 -0.0174 -0.1304  2.2881
  748MOL0     H  917   4.432   9.879   5.424  0.6424  0.2504 -0.5425
  748MOL0     H  918   4.368   9.720   5.463  0.7671 -0.9924 -1.4962
  748MOL0     H  919   4.378   9.778   5.706 -1.8583  0.7509 -0.3032
  748MOL0     H  920   4.402   9.946   5.669  2.2468  0.3026  2.1612
  748MOL0     H  921   4.614   9.784   5.544  0.5471 -0.6034  0.0935
  748MOL0     H  922   4.624   9.928   5.646 -0.0348  0.0389 -0.1007
  748MOL0     H  923   4.600   9.785   5.852  0.2982  0.5808  0.9029
  748MOL0     H  924   4.570   9.643   5.736  1.1232 -0.3513  0.7526
  748MOL0     H  925   4.778   9.645   5.661  1.9890  0.4495 -0.7657
  748MOL0     H  926   4.837   9.792   5.737  0.6096 -0.3398 -1.1697
  748MOL0     H  927   4.919   9.600   5.874 -0.0672  1.2834 -0.0567
  748MOL0     H  928   4.749   9.568   5.916 -0.3458 -0.6332 -3.1995
  748MOL0     H  929   4.902   9.684   6.073 -0.6163 -1.6877 -1.6415
  748MOL0     H  930   4.889   9.834   5.977 -0.9741  0.2488 -0.3311
  748MOL0     H  931   4.664   9.963   5.993 -2.1037  1.6717 -0.2142
  748MOL0     H  932   4.426   9.983   6.297 -0.8266 -1.3502  0.2560
  748MOL0     H  933   4.449  10.079   6.153 -2.1638 -0.0050 -0.7270
  748MOL0     H  934   4.243   9.842   6.162 -1.7805  0.2651 -1.5107
  748MOL0     H  935   4.217  10.011   6.188 -2.5135 -0.4433 -1.4145
  748MOL0     H  936   4.312   9.853   5.948  2.9762 -0.2669  3.5543
  748MOL0     H  937   4.318  10.034   5.948 -0.0530  0.0954 -1.9051
  748MOL0     H  938   4.060   9.866   5.951  1.9480 -0.5874  0.4828
  748MOL0     H  939   4.121   9.971   5.828 -3.4637  3.6853  0.6944
  748MOL0     H  940   3.962  10.293   6.061  0.2949 -1.3627  0.2824
  748MOL0     H  941   3.804  10.420   5.934  2.6859  0.7047  0.2055
  748MOL0     H  942   3.568  10.672   5.878  0.2364  5.3297 -2.5277
  748MOL0     H  943   3.372  10.842   5.860  0.8631  0.3289 -1.4102
  748MOL0     H  944   2.949  10.851   5.771  1.3804  1.1524 -0.1136
  748MOL0     H  945   2.965  10.682   5.743 -0.2516 -1.7659  3.2309
  748MOL0     H  946   2.925  10.684   5.973 -1.6323  0.9240 -2.2213
  748MOL0     H  947   3.093  10.654   5.952  0.5110 -0.4096 -0.0800
  748MOL0     H  948   3.097  10.828   6.112 -0.2380 -1.9925  0.1464
  748MOL0     H  949   3.139  10.911   5.969 -1.4006  1.2661 -4.0319
  748MOL0     H  950   2.880  10.890   6.109  0.1913 -3.2633 -2.7287
  748MOL0     H  951   2.899  10.980   5.954  1.7003 -2.1512 -0.9028
  748MOL0     H  952   2.912  11.155   6.122  0.8204  1.0753  2.6716
  748MOL0     H  953   3.083  11.123   6.105  0.7041 -0.6838 -1.1709
  748MOL0     H  954   2.881  11.009   6.320  0.2706 -1.7680  3.0440
  748MOL0     H  955   3.033  10.938   6.305  0.1696  0.7653 -0.0375
  748MOL0     H  956   3.062  11.245   6.326  1.8775  0.4772  0.5530
  748MOL0     H  957   3.145  11.114   6.413  0.1240  0.3081 -1.4419
  748MOL0     H  958   2.863  11.154   6.485  0.1051  0.6302 -2.6465
  748MOL0     H  959   2.994  11.077   6.575 -0.9626  0.0804  0.6030
  748MOL0     H  960   3.156  10.550   5.640 -0.5623 -0.2452  1.1272
  748MOL0     H  961   3.345  10.390   5.647 -3.0355  1.1989 -0.2049
  748MOL0     H  962   3.728  10.076   5.681  2.1381  0.0199 -2.3508
  748MOL0     H  963   3.898   9.952   5.811  1.2557  0.5669 -1.4112
  748MOL0     H  964   3.986   9.660   5.645  2.9429  1.6776  0.0243
  748MOL0     H  965   3.735   9.676   5.618 -1.0576  1.5064  0.0046
  748MOL0     H  966   3.428  10.041   5.559 -0.4015  2.3529 -0.1571
  748MOL0     H  967   3.236  10.164   5.513  0.9929  0.1283 -0.1997
  748MOL0     H  968   2.855   9.978   5.357 -0.9115 -0.1488  0.0008
  748MOL0     H  969   2.941   9.966   5.203 -0.9600 -1.3799 -0.0088
  748MOL0     H  970   2.852  10.175   5.114  0.9351  3.0721  0.3505
  748MOL0     H  971   2.836  10.245   5.274  1.3034 -1.1413  1.4358
  748MOL0     H  972   2.641  10.074   5.317 -2.2888  1.5397  0.6311
  748MOL0     H  973   2.677  10.009   5.159  2.1172 -2.0249  2.9316
  748MOL0     H  974   2.553  10.278   5.221 -1.6544 -1.3072  1.5936
  748MOL0     H  975   2.608  10.225   5.060  0.4378  1.9393  1.1952
  748MOL0     H  976   2.271   9.987   5.096 -1.5628  2.5506 -0.8328
  748MOL0     H  977   3.071   9.830   5.299  1.0826  0.3161 -1.7550
  748MOL0     H  978   3.339   9.603   5.345 -0.8376 -0.9411 -0.5140
  748MOL0     H  979   3.169   9.609   5.336  1.6123 -2.0734  0.6912
  748MOL0     H  980   3.256   9.678   5.207  2.1811 -3.2837 -0.7173
  749MOL0     O  981   7.625   7.115   7.692 -0.0479 -0.6592  0.0121
  749MOL0     C  982   7.599   7.235   7.699 -0.0381 -0.3813 -0.0814
  749MOL0     O  983   7.678   7.333   7.765 -0.2595  0.2764  0.9227
  749MOL0     C  984   7.791   7.290   7.840  0.3901  0.2347 -0.1049
  749MOL0     C  985   7.775   7.226   7.964  0.4253 -0.0728 -0.8697
  749MOL0     C  986   7.881   7.206   8.044 -0.5048  0.0648  0.0094
  749MOL0     C  987   8.007   7.243   8.018  0.7559 -0.1570  0.0588
  749MOL0     O  988   8.103   7.236   8.119  0.4776 -0.7598  0.0575
  749MOL0     C  989   8.240   7.259   8.081  0.4394 -0.3389 -0.0076
  749MOL0     C  990   8.334   7.234   8.213  0.2395  0.2021 -0.1736
  749MOL0     C  991   8.470   7.283   8.166  0.0167  0.4809 -0.0182
  749MOL0     C  992   8.568   7.257   8.279 -0.4587 -0.4837 -0.0276
  749MOL0     C  993   8.718   7.256   8.228 -0.1697 -0.6685 -1.0827
  749MOL0     C  994   8.752   7.127   8.150 -0.1493 -0.6292  0.1086
  749MOL0     C  995   8.894   7.088   8.178  0.2748 -0.1385 -0.4547
  749MOL0     C  996   8.990   7.178   8.087 -1.1349 -0.5616 -0.0282
  749MOL0     N  997   9.122   7.112   8.064  1.3904  0.2456 -0.0553
  749MOL0     C  998   9.225   7.116   8.148 -0.2304 -0.3764  0.4296
  749MOL0     C  999   9.315   7.035   8.094  0.2726  0.9690 -0.0993
  749MOL0     C 1000   9.444   6.999   8.155 -1.0858  0.2568 -0.0619
  749MOL0     C 1001   9.548   7.113   8.128  0.6576 -0.1830  0.7313
  749MOL0     C 1002   9.680   7.087   8.191 -0.3907 -0.7141  0.4912
  749MOL0     C 1003   9.793   7.164   8.119 -0.9230 -0.2842 -0.4080
  749MOL0     O 1004   9.828   7.112   7.991  0.4548  0.2316 -0.0047
  749MOL0     C 1005   9.944   7.053   7.976 -1.5736 -0.1739 -0.5828
  749MOL0     C 1006   9.961   6.955   7.877 -0.1444 -1.0047  1.1041
  749MOL0     C 1007  10.077   6.892   7.854 -0.2338  0.3176 -0.4741
  749MOL0     C 1008  10.194   6.927   7.919 -0.3243 -0.7754  1.2412
  749MOL0     C 1009  10.314   6.854   7.883  0.4848  0.4587  0.1511
  749MOL0     O 1010  10.425   6.885   7.962 -0.0152 -0.1604 -0.3714
  749MOL0     C 1011  10.547   6.822   7.949  0.4582  0.1060  0.3728
  749MOL0     C 1012  10.644   6.844   8.042  0.7691 -0.6876  0.2069
  749MOL0     C 1013  10.775   6.785   8.042  1.1470  0.4822  0.2386
  749MOL0     C 1014  10.804   6.687   7.952  0.3343 -0.0608  0.5274
  749MOL0     O 1015  10.920   6.613   7.944 -0.5811 -0.7447  0.5240
  749MOL0     C 1016  11.031   6.651   8.031 -0.6161 -0.4078  0.0789
  749MOL0     C 1017  11.157   6.564   8.001  0.2049  0.7052 -0.3625
  749MOL0     C 1018  11.286   6.635   8.036 -0.0728 -0.2194 -0.2631
  749MOL0     C 1019  11.302   6.654   8.187 -0.5656  0.1806 -0.6418
  749MOL0     C 1020  11.410   6.756   8.225  1.8723  1.5874 -0.5715
  749MOL0     C 1021  11.488   6.736   8.354  0.3772 -0.4707 -0.2490
  749MOL0     C 1022  11.420   6.701   8.478 -0.0126  0.2520 -0.0567
  749MOL0     C 1023  11.523   6.670   8.590  0.1025  0.4400  0.4837
  749MOL0    Cl 1024  11.454   6.586   8.734 -0.0941  0.3635 -0.0896
  749MOL0     C 1025  10.706   6.662   7.848 -0.9213 -0.2617  0.5017
  749MOL0     C 1026  10.583   6.728   7.848  0.3735 -0.6622  0.1336
  749MOL0     O 1027  10.291   6.752   7.825  0.6212 -0.2392  0.9348
  749MOL0     C 1028  10.185   7.023   8.019  0.0148  0.0155  0.0780
  749MOL0     C 1029  10.066   7.084   8.046  0.6270 -0.6394  0.5852
  749MOL0     N 1030   9.263   6.968   7.985 -0.2580  0.4476 -0.5644
  749MOL0     N 1031   9.153   7.030   7.959 -0.0321 -0.1891 -0.1811
  749MOL0     C 1032   8.029   7.312   7.897  0.9373 -0.1355  0.0682
  749MOL0     C 1033   7.920   7.336   7.803 -0.2129 -0.2270  0.6727
  749MOL0     C 1034   7.465   7.281   7.645 -0.5372  0.5994 -0.0785
  749MOL0     C 1035   7.401   7.363   7.736  0.3748 -0.4086  0.8378
  749MOL0     C 1036   7.292   7.450   7.698  0.1046  0.3238  0.1011
  749MOL0     C 1037   7.219   7.420   7.587 -0.0728 -0.5253  1.1558
  749MOL0     O 1038   7.101   7.491   7.571 -0.2365 -0.2362 -0.0218
  749MOL0     C 1039   7.010   7.453   7.463  0.3604  0.4015  0.5660
  749MOL0     C 1040   6.872   7.484   7.504  0.6013  0.2941  0.3383
  749MOL0     C 1041   6.777   7.453   7.388 -0.2465 -0.0485  0.0419
  749MOL0     C 1042   6.628   7.443   7.436  0.0932 -0.2875  0.5330
  749MOL0     C 1043   6.612   7.352   7.552 -0.0629  0.3751  0.5660
  749MOL0     C 1044   6.590   7.287   7.652 -0.3810 -0.6383  0.0144
  749MOL0     C 1045   7.277   7.322   7.491  0.3901  0.2046  0.0151
  749MOL0     C 1046   7.398   7.258   7.519 -0.0931  0.1255  0.6134
  749MOL0     C 1047   7.466   7.163   7.417 -1.0211  0.0130 -0.8341
  749MOL0     H 1048   7.675   7.201   7.996 -0.5163  1.0334 -2.7762
  749MOL0     H 1049   7.869   7.149   8.135  0.1245 -1.1549 -0.6393
  749MOL0     H 1050   8.272   7.194   7.998 -0.7789  0.3659 -1.0762
  749MOL0     H 1051   8.260   7.364   8.059 -0.3983  0.5682  3.1071
  749MOL0     H 1052   8.339   7.129   8.244 -2.3408 -0.0028 -0.1952
  749MOL0     H 1053   8.319   7.298   8.301  0.0379 -0.9723  0.6784
  749MOL0     H 1054   8.466   7.389   8.141  1.4683  0.7597  0.8047
  749MOL0     H 1055   8.501   7.234   8.074 -0.3806  1.0912 -0.4788
  749MOL0     H 1056   8.552   7.319   8.368  3.1009 -2.2863  2.1242
  749MOL0     H 1057   8.548   7.160   8.327 -1.6875  1.2490  3.2591
  749MOL0     H 1058   8.737   7.344   8.166  4.3041 -0.6328 -0.0490
  749MOL0     H 1059   8.781   7.272   8.316 -2.0829  0.0715  0.2071
  749MOL0     H 1060   8.685   7.044   8.176 -1.3563  0.5692  0.9942
  749MOL0     H 1061   8.726   7.135   8.044 -0.8225 -1.4773  0.1987
  749MOL0     H 1062   8.910   6.986   8.142  3.6972 -0.6886  2.1553
  749MOL0     H 1063   8.925   7.071   8.281  1.2484 -1.4481 -0.9410
  749MOL0     H 1064   8.937   7.200   7.994 -1.1397 -2.6545 -0.5889
  749MOL0     H 1065   9.014   7.269   8.142  3.6419 -2.0024  0.7446
  749MOL0     H 1066   9.256   7.188   8.223  0.5377  3.0135 -2.8484
  749MOL0     H 1067   9.436   7.000   8.265  1.9482 -0.0139  0.2473
  749MOL0     H 1068   9.489   6.904   8.124  2.5558  2.0013 -0.6059
  749MOL0     H 1069   9.560   7.113   8.019 -1.7528  1.8673  0.3819
  749MOL0     H 1070   9.501   7.209   8.150 -2.7033 -0.6131 -3.2672
  749MOL0     H 1071   9.696   6.979   8.185 -3.2574 -1.3531  2.5000
  749MOL0     H 1072   9.687   7.112   8.297  4.0877  0.2964  0.1703
  749MOL0     H 1073   9.880   7.174   8.185 -0.2166 -2.2942 -0.9509
  749MOL0     H 1074   9.766   7.269   8.102 -0.8846 -0.2779 -0.4301
  749MOL0     H 1075   9.871   6.922   7.825 -0.4911  0.1864  0.9208
  749MOL0     H 1076  10.066   6.826   7.768 -0.6542 -0.3753  0.1017
  749MOL0     H 1077  10.603   6.913   8.115 -0.2054  2.7946 -3.2744
  749MOL0     H 1078  10.835   6.807   8.130  1.5257  0.7760 -0.0862
  749MOL0     H 1079  11.061   6.755   8.019  2.6076 -0.5751  4.3182
  749MOL0     H 1080  11.012   6.644   8.138  2.7553 -0.8528  0.7374
  749MOL0     H 1081  11.153   6.475   8.064  0.3392  1.0481  0.1378
  749MOL0     H 1082  11.154   6.534   7.896 -1.9977 -2.2029  0.4144
  749MOL0     H 1083  11.375   6.574   8.014  2.2285  2.9775 -0.4799
  749MOL0     H 1084  11.290   6.728   7.979 -0.4308 -1.0175 -1.6364
  749MOL0     H 1085  11.331   6.553   8.219 -3.9530 -1.3420 -1.8410
  749MOL0     H 1086  11.212   6.689   8.239 -0.2580  2.1880 -1.3706
  749MOL0     H 1087  11.349   6.847   8.229 -0.2998  0.1775 -0.0467
  749MOL0     H 1088  11.474   6.774   8.138  0.3536  1.0164 -1.8642
  749MOL0     H 1089  11.573   6.670   8.335  1.2370  0.8019 -1.0060
  749MOL0     H 1090  11.551   6.823   8.378  2.1162 -2.0042  1.0649
  749MOL0     H 1091  11.345   6.622   8.465 -1.0986  1.2178  0.1920
  749MOL0     H 1092  11.352   6.783   8.501  1.1089  0.4322  3.0506
  749MOL0     H 1093  11.603   6.598   8.570 -0.7465  0.5156 -4.4028
  749MOL0     H 1094  11.560   6.770   8.617  3.5562  0.6479 -3.9700
  749MOL0     H 1095  10.733   6.590   7.771  2.2643  0.6045  0.6687
  749MOL0     H 1096  10.509   6.711   7.771 -1.7330 -3.0597  2.5023
  749MOL0     H 1097  10.275   7.052   8.072 -0.5321  0.9916  0.5010
  749MOL0     H 1098  10.058   7.173   8.107 -2.0603  1.2392 -2.1871
  749MOL0     H 1099   8.130   7.338   7.869  2.5550 -1.3212  4.1177
  749MOL0     H 1100   7.951   7.383   7.710 -3.5996  0.6671 -0.1330
  749MOL0     H 1101   7.432   7.380   7.839  1.3968 -0.9168  0.6296
  749MOL0     H 1102   7.255   7.525   7.767  1.9195 -0.1411  1.6801
  749MOL0     H 1103   7.018   7.346   7.446  0.5832  0.2934  1.3023
  749MOL0     H 1104   7.038   7.505   7.371  1.3827  1.6840  1.5471
  749MOL0     H 1105   6.869   7.592   7.522 -0.5266  0.2373  0.5404
  749MOL0     H 1106   6.852   7.427   7.595  1.5420  1.2870  1.2068
  749MOL0     H 1107   6.807   7.366   7.328  0.1074  2.3232 -3.5792
  749MOL0     H 1108   6.799   7.538   7.322  0.5983 -0.5453 -0.3394
  749MOL0     H 1109   6.585   7.542   7.452  0.3309  0.5512 -3.2386
  749MOL0     H 1110   6.557   7.395   7.367  0.4179 -3.5039  2.2174
  749MOL0     H 1111   6.581   7.225   7.738 -0.4025 -1.2487 -0.4206
  749MOL0     H 1112   7.228   7.301   7.397 -0.4712  1.3977  0.1756
  749MOL0     H 1113   7.410   7.160   7.323  0.3010  0.6838 -1.6699
  749MOL0     H 1114   7.570   7.187   7.393  0.3844 -0.9333  3.4398
  749MOL0     H 1115   7.469   7.062   7.459  1.0268  0.0132 -0.8802
  750MOL0     O 1116   1.507   5.120   1.774  0.2368 -0.2861  0.3796
  750MOL0     C 1117   1.553   5.165   1.674 -0.7067  0.2108  0.6068
  750MOL0     O 1118   1.502   5.144   1.546  0.0175 -0.1531 -0.3229
  750MOL0     C 1119   1.368   5.118   1.537  0.7691 -0.5645  0.1899
  750MOL0     C 1120   1.292   5.196   1.445 -1.1501  0.5701 -0.5921
  750MOL0     C 1121   1.158   5.165   1.428 -0.5423  0.3090  0.1902
  750MOL0     C 1122   1.095   5.054   1.501 -1.1102 -0.6244 -0.0177
  750MOL0     O 1123   0.965   5.011   1.483 -0.1714 -0.4261  0.3017
  750MOL0     C 1124   0.898   5.062   1.368 -0.5584 -0.3436  0.5630
  750MOL0     C 1125   0.755   5.001   1.376  0.2110 -1.5092  0.1867
  750MOL0     C 1126   0.672   5.051   1.264  0.4118  0.5963  0.1102
  750MOL0     C 1127   0.535   4.977   1.254 -0.2356  0.3246 -0.0786
  750MOL0     C 1128   0.430   5.060   1.174  0.1953 -1.0024  0.5479
  750MOL0     C 1129   0.298   4.983   1.137  1.2116 -0.3347 -0.5509
  750MOL0     C 1130   0.197   4.984   1.248  0.4358  0.5239  0.1468
  750MOL0     C 1131   0.095   5.095   1.208 -0.7806 -1.0233  0.1101
  750MOL0     N 1132   0.002   5.116   1.326  0.0694  0.3491 -0.3026
  750MOL0     C 1133  -0.067   5.015   1.390 -0.4102 -0.0722  0.1760
  750MOL0     C 1134  -0.105   5.079   1.504  0.1749  0.2031  0.2351
  750MOL0     C 1135  -0.197   5.025   1.607 -0.3215  0.0855  0.1974
  750MOL0     C 1136  -0.269   4.897   1.561 -0.0240 -0.1387  0.9965
  750MOL0     C 1137  -0.368   4.902   1.443  0.1427 -0.4358 -0.8561
  750MOL0     C 1138  -0.432   4.767   1.428  0.3642 -0.1065  0.6135
  750MOL0     O 1139  -0.533   4.764   1.332  0.1503  0.6318 -0.5369
  750MOL0     C 1140  -0.655   4.817   1.345 -0.4079  1.0326  0.1779
  750MOL0     C 1141  -0.726   4.851   1.229  0.2667  1.1380  0.0293
  750MOL0     C 1142  -0.849   4.905   1.229  0.3010 -0.4238  0.5748
  750MOL0     C 1143  -0.914   4.924   1.353  1.0220  0.4906 -0.3308
  750MOL0     C 1144  -1.048   4.979   1.354  0.4572  0.1029 -0.0097
  750MOL0     O 1145  -1.091   5.043   1.246 -0.6349  0.0080  1.1766
  750MOL0     C 1146  -1.207   5.120   1.264  0.3817 -0.7148 -0.4583
  750MOL0     C 1147  -1.212   5.231   1.351 -0.2139 -0.5386 -0.5528
  750MOL0     C 1148  -1.333   5.295   1.361 -0.1091 -0.0059  0.8329
  750MOL0     C 1149  -1.446   5.260   1.283 -0.4753 -0.4696  0.0444
  750MOL0     O 1150  -1.572   5.321   1.291  0.3632  0.0996 -0.0335
  750MOL0     C 1151  -1.613   5.388   1.408 -0.6153  0.2097  0.0642
  750MOL0     C 1152  -1.761   5.384   1.401  0.0566  0.7906  0.2936
  750MOL0     C 1153  -1.811   5.463   1.284  0.9352 -0.2256  0.0897
  750MOL0     C 1154  -1.970   5.470   1.269  0.6867  1.3676 -0.6127
  750MOL0     C 1155  -2.007   5.534   1.139 -0.5149  0.1706  0.1534
  750MOL0     C 1156  -2.160   5.511   1.097  0.2545  0.2613  0.0888
  750MOL0     C 1157  -2.186   5.585   0.966  0.3257 -0.6986 -0.3496
  750MOL0     C 1158  -2.339   5.626   0.955 -0.1510  0.7378  0.3667
  750MOL0    Cl 1159  -2.443   5.479   0.953 -0.0344  0.6198  0.0365
  750MOL0     C 1160  -1.436   5.156   1.197  0.2347  0.1092 -0.2140
  750MOL0     C 1161  -1.324   5.082   1.195 -0.0267  0.0734 -0.2153
  750MOL0     O 1162  -1.115   4.964   1.459  0.2239  0.1610 -1.3519
  750MOL0     C 1163  -0.836   4.906   1.474  0.1181  0.5914 -0.5601
  750MOL0     C 1164  -0.708   4.854   1.469 -0.0821  0.3835  0.4297
  750MOL0     N 1165  -0.081   5.219   1.493 -0.3502  0.3124  0.0374
  750MOL0     N 1166  -0.024   5.233   1.384 -0.3435  0.2263 -0.6780
  750MOL0     C 1167   1.171   4.984   1.594 -0.3653  0.7222  0.8012
  750MOL0     C 1168   1.313   5.009   1.603 -0.3228  0.4141 -0.1724
  750MOL0     C 1169   1.694   5.211   1.670 -0.0084  0.9635 -0.2000
  750MOL0     C 1170   1.769   5.178   1.551  1.4520 -0.4409  0.5963
  750MOL0     C 1171   1.896   5.217   1.525 -0.0372 -0.5727  0.9932
  750MOL0     C 1172   1.964   5.293   1.617  0.2257  0.0658 -0.3977
  750MOL0     O 1173   2.100   5.325   1.626  0.2623  0.0276  0.8862
  750MOL0     C 1174   2.199   5.298   1.526 -0.0127  0.0446 -0.0190
  750MOL0     C 1175   2.340   5.337   1.588 -0.7140  1.0770  0.4427
  750MOL0     C 1176   2.456   5.300   1.487  0.0368 -0.6548 -0.1696
  750MOL0     C 1177   2.578   5.382   1.524 -0.9537  0.1914  0.1934
  750MOL0     C 1178   2.700   5.349   1.447  0.2644  0.5267 -0.0418
  750MOL0     C 1179   2.790   5.324   1.369 -0.4411  0.9266  0.1642
  750MOL0     C 1180   1.894   5.322   1.736  1.3516  0.3575 -0.3986
  750MOL0     C 1181   1.758   5.288   1.764  0.9521  0.3918  0.3227
  750MOL0     C 1182   1.704   5.316   1.907 -0.6445  0.4950  0.5777
  750MOL0     H 1183   1.333   5.288   1.404  1.7603 -0.1442  0.4685
  750MOL0     H 1184   1.094   5.224   1.362  0.0849  1.8073  0.8613
  750MOL0     H 1185   0.881   5.169   1.385 -2.7443 -0.6735  0.8057
  750MOL0     H 1186   0.942   5.023   1.276  0.0527 -1.0576  1.1474
  750MOL0     H 1187   0.727   5.049   1.471  0.7974  1.2624 -0.9610
  750MOL0     H 1188   0.753   4.892   1.380 -0.6417 -1.6098 -1.8660
  750MOL0     H 1189   0.739   5.035   1.179 -0.2885 -5.6513  0.2223
  750MOL0     H 1190   0.656   5.157   1.286 -0.5353  1.3139 -3.4276
  750MOL0     H 1191   0.540   4.882   1.200 -1.7815  0.6588 -0.8612
  750MOL0     H 1192   0.517   4.962   1.361  3.8036 -0.5596  0.6598
  750MOL0     H 1193   0.407   5.135   1.251 -2.2204 -0.3394 -0.7211
  750MOL0     H 1194   0.473   5.101   1.082 -0.4251 -0.2672  0.5697
  750MOL0     H 1195   0.259   5.036   1.050  1.2896 -1.3990 -1.2587
  750MOL0     H 1196   0.324   4.882   1.104 -0.1215 -1.0390  0.4895
  750MOL0     H 1197   0.246   4.997   1.345 -1.8287  0.9362  1.3235
  750MOL0     H 1198   0.142   4.890   1.239 -0.4719  1.0719 -0.1795
  750MOL0     H 1199   0.145   5.188   1.178  0.0315 -2.6534 -4.2045
  750MOL0     H 1200   0.035   5.068   1.121  1.8217 -0.7907 -1.8848
  750MOL0     H 1201  -0.081   4.913   1.354  0.6408 -1.2787  2.8668
  750MOL0     H 1202  -0.135   4.995   1.691  0.8939  2.4559  0.2229
  750MOL0     H 1203  -0.264   5.100   1.650 -0.4444 -1.1702  2.3094
  750MOL0     H 1204  -0.189   4.830   1.527 -1.9134 -2.4868  0.9150
  750MOL0     H 1205  -0.327   4.852   1.642 -2.2011  1.1667  0.2397
  750MOL0     H 1206  -0.319   4.933   1.350  0.7262 -0.3243 -0.5211
  750MOL0     H 1207  -0.443   4.978   1.463 -0.9384 -1.4540 -0.9158
  750MOL0     H 1208  -0.472   4.726   1.521  1.1293 -1.8691  0.2182
  750MOL0     H 1209  -0.354   4.697   1.395 -1.6485 -2.1839 -0.0336
  750MOL0     H 1210  -0.683   4.817   1.135  2.7702  0.2035  1.4115
  750MOL0     H 1211  -0.887   4.950   1.138  1.5501  1.0688  0.7368
  750MOL0     H 1212  -1.135   5.265   1.418 -1.7515 -1.5175  1.8685
  750MOL0     H 1213  -1.330   5.381   1.427  0.6749  0.2492  0.4808
  750MOL0     H 1214  -1.573   5.342   1.500  0.9415 -2.9065 -1.9712
  750MOL0     H 1215  -1.582   5.493   1.408 -2.2355  0.7470 -2.0853
  750MOL0     H 1216  -1.800   5.282   1.396 -1.0999  1.2811 -1.5252
  750MOL0     H 1217  -1.805   5.424   1.493 -2.6748 -1.9210  0.3148
  750MOL0     H 1218  -1.782   5.566   1.305 -5.2555  1.9660 -0.2886
  750MOL0     H 1219  -1.771   5.426   1.189  1.1405  0.4891 -0.1051
  750MOL0     H 1220  -2.004   5.520   1.360 -0.7802 -1.4825  0.5029
  750MOL0     H 1221  -2.019   5.373   1.279  0.3215  1.7979  4.5175
  750MOL0     H 1222  -1.953   5.480   1.061 -2.0338  0.3656 -1.0889
  750MOL0     H 1223  -1.973   5.637   1.140 -1.2370  0.4527  2.1406
  750MOL0     H 1224  -2.176   5.403   1.084  3.1800 -0.3514  0.8097
  750MOL0     H 1225  -2.219   5.552   1.179  0.0541 -0.2516  0.2080
  750MOL0     H 1226  -2.157   5.518   0.884  0.5619 -1.8588  0.6559
  750MOL0     H 1227  -2.121   5.673   0.959 -0.9241  0.1662 -1.9552
  750MOL0     H 1228  -2.366   5.686   1.042 -0.4837  0.5785  0.3734
  750MOL0     H 1229  -2.359   5.683   0.864 -0.1202 -1.9159 -1.3999
  750MOL0     H 1230  -1.525   5.134   1.138 -0.8396  1.0013  1.0287
  750MOL0     H 1231  -1.314   4.994   1.133  0.9101 -0.6448  0.9089
  750MOL0     H 1232  -0.864   4.940   1.573  0.6406 -0.3455 -0.0753
  750MOL0     H 1233  -0.643   4.846   1.554 -0.4038  1.5175  0.8029
  750MOL0     H 1234   1.118   4.912   1.654 -2.9504  3.1457  1.6608
  750MOL0     H 1235   1.378   4.947   1.664  0.4182  1.9065  0.5942
  750MOL0     H 1236   1.719   5.129   1.468  1.6664  0.7804 -0.2743
  750MOL0     H 1237   1.946   5.189   1.433 -0.7111 -0.7554  0.6783
  750MOL0     H 1238   2.183   5.354   1.434 -2.9965  2.5149  1.7949
  750MOL0     H 1239   2.195   5.189   1.517 -0.6709 -0.8482  6.2650
  750MOL0     H 1240   2.357   5.281   1.681  4.2204 -2.9527 -2.3622
  750MOL0     H 1241   2.325   5.443   1.609 -3.1458  1.4782 -2.7088
  750MOL0     H 1242   2.438   5.326   1.382  4.4947 -1.6029 -1.3635
  750MOL0     H 1243   2.478   5.193   1.496 -2.3008 -1.5797 -3.3153
  750MOL0     H 1244   2.559   5.489   1.515 -2.0116  0.6016  5.0192
  750MOL0     H 1245   2.613   5.367   1.626 -1.3788  0.6307  0.4046
  750MOL0     H 1246   2.861   5.289   1.296 -1.0468 -2.0468  0.8508
  750MOL0     H 1247   1.945   5.374   1.817 -2.8516  1.7676  1.6586
  750MOL0     H 1248   1.744   5.416   1.926 -0.9983  0.5407  1.1231
  750MOL0     H 1249   1.595   5.304   1.916 -0.4536  0.3835  3.9651
  750MOL0     H 1250   1.745   5.244   1.978  0.6870  2.1990  1.6227
  751MOL0     O 1251   6.315   8.579   2.273  0.1084 -0.4461  0.3339
  751MOL0     C 1252   6.368   8.668   2.341  0.7131 -0.6381 -0.6319
  751MOL0     O 1253   6.379   8.802   2.309  0.2984  0.0137  0.3444
  751MOL0     C 1254   6.309   8.851   2.202  0.2123 -0.3345 -0.0838
  751MOL0     C 1255   6.388   8.932   2.107  0.3671 -0.0859 -0.2107
  751MOL0     C 1256   6.326   8.999   2.002 -0.2841  0.4612 -0.5326
  751MOL0     C 1257   6.187   8.980   1.984 -0.0615 -0.5414  0.6206
  751MOL0     O 1258   6.120   9.042   1.881 -0.2066  0.6775  0.1679
  751MOL0     C 1259   6.036   9.152   1.932  0.4722 -0.0060 -0.5601
  751MOL0     C 1260   5.986   9.220   1.800  0.8609 -0.2944 -0.2457
  751MOL0     C 1261   5.887   9.331   1.834  0.0648 -0.2905  0.7727
  751MOL0     C 1262   5.807   9.362   1.712 -0.6432  0.3672 -0.7353
  751MOL0     C 1263   5.747   9.502   1.712  0.1558  0.4458  0.2668
  751MOL0     C 1264   5.645   9.520   1.599  1.0391 -0.3414  0.1670
  751MOL0     C 1265   5.619   9.662   1.572  0.2012 -0.4800  0.0273
  751MOL0     C 1266   5.486   9.682   1.509 -0.4703 -0.5847  1.1190
  751MOL0     N 1267   5.386   9.707   1.604  0.3871  0.7603 -0.0489
  751MOL0     C 1268   5.284   9.618   1.633 -0.6994 -0.1625  0.1016
  751MOL0     C 1269   5.209   9.667   1.741 -0.3045 -0.0845  0.0196
  751MOL0     C 1270   5.087   9.614   1.813 -0.4016  0.4170 -0.1104
  751MOL0     C 1271   4.956   9.614   1.738  0.0574 -0.1011  0.0963
  751MOL0     C 1272   4.834   9.557   1.814  0.6478  0.3110  0.1420
  751MOL0     C 1273   4.827   9.411   1.843 -0.0283  0.5501  0.4585
  751MOL0     O 1274   4.810   9.371   1.979  0.1855 -0.0073 -0.3436
  751MOL0     C 1275   4.686   9.366   2.039  0.7463 -0.0520 -0.6342
  751MOL0     C 1276   4.561   9.371   1.970  0.9172 -0.9320  0.2779
  751MOL0     C 1277   4.443   9.377   2.039 -0.9568  0.2926  0.6436
  751MOL0     C 1278   4.450   9.383   2.178  0.5078  0.3053  0.7007
  751MOL0     C 1279   4.328   9.424   2.250 -0.6451  1.0836 -0.6676
  751MOL0     O 1280   4.219   9.447   2.171  0.0024 -0.8150 -0.2828
  751MOL0     C 1281   4.109   9.517   2.222 -0.2228 -0.9347 -0.0032
  751MOL0     C 1282   4.067   9.631   2.156 -0.4653  0.4351  0.9000
  751MOL0     C 1283   3.950   9.692   2.191  0.4467 -0.2625  0.2915
  751MOL0     C 1284   3.871   9.654   2.300  0.4364  0.4789  0.1344
  751MOL0     O 1285   3.755   9.714   2.332 -0.0269  0.3627 -0.0942
  751MOL0     C 1286   3.747   9.859   2.338  0.1309  0.0592  0.2291
  751MOL0     C 1287   3.629   9.920   2.406  0.3164 -0.0007  0.7728
  751MOL0     C 1288   3.623   9.888   2.557  0.6732 -0.2919 -0.3458
  751MOL0     C 1289   3.485   9.947   2.602 -0.8089  0.4932 -0.7171
  751MOL0     C 1290   3.467   9.941   2.746 -0.5265 -0.0224 -0.9720
  751MOL0     C 1291   3.328   9.996   2.784 -0.2374 -0.9489 -0.3388
  751MOL0     C 1292   3.280   9.948   2.920 -0.1563 -0.6240  0.5052
  751MOL0     C 1293   3.287  10.062   3.019  0.2157 -0.3950  0.4826
  751MOL0    Cl 1294   3.145  10.178   3.008  0.2263  0.5902  0.0501
  751MOL0     C 1295   3.913   9.532   2.363  0.5356  0.7263  0.5888
  751MOL0     C 1296   4.036   9.472   2.333  0.1122 -0.1991 -1.2838
  751MOL0     O 1297   4.336   9.452   2.368  0.0575 -0.3752 -0.1869
  751MOL0     C 1298   4.565   9.379   2.247  0.2440 -0.3001 -0.3848
  751MOL0     C 1299   4.683   9.367   2.179  0.0635  0.4945  0.0177
  751MOL0     N 1300   5.256   9.794   1.751 -0.6665 -0.2000 -0.4790
  751MOL0     N 1301   5.359   9.820   1.677  0.3465  0.2537  0.4537
  751MOL0     C 1302   6.109   8.903   2.080  0.1953 -0.6807  1.0763
  751MOL0     C 1303   6.172   8.833   2.187  1.0145 -0.6883 -1.0433
  751MOL0     C 1304   6.428   8.619   2.465  0.4649 -1.0516  0.5264
  751MOL0     C 1305   6.506   8.503   2.463 -0.1127 -0.0695 -0.3636
  751MOL0     C 1306   6.566   8.454   2.574 -0.0776 -0.0222 -0.2837
  751MOL0     C 1307   6.546   8.508   2.703  0.2041  0.2255 -1.0318
  751MOL0     O 1308   6.617   8.447   2.804 -0.2824  0.3280 -0.6882
  751MOL0     C 1309   6.654   8.510   2.927 -0.3124 -0.4390  0.2813
  751MOL0     C 1310   6.789   8.581   2.932  0.5209  0.7191  0.2497
  751MOL0     C 1311   6.895   8.477   2.886 -0.5439  0.6208  0.1665
  751MOL0     C 1312   7.019   8.552   2.913  0.4427 -0.1187  0.6165
  751MOL0     C 1313   7.134   8.464   2.905  0.8521  0.4375  0.1234
  751MOL0     C 1314   7.240   8.411   2.898 -0.7505  0.5236 -0.1654
  751MOL0     C 1315   6.475   8.631   2.704 -0.2084 -0.0611  0.3676
  751MOL0     C 1316   6.414   8.687   2.590 -0.1525 -0.1477 -0.4886
  751MOL0     C 1317   6.298   8.779   2.607 -0.1905  0.1795  0.5384
  751MOL0     H 1318   6.496   8.925   2.111  0.3484 -0.2368  0.1391
  751MOL0     H 1319   6.387   9.062   1.938  3.2403 -2.2813 -0.1879
  751MOL0     H 1320   5.960   9.116   2.002 -0.5397  2.3906 -0.3567
  751MOL0     H 1321   6.100   9.219   1.990  0.8813 -1.3515  0.6277
  751MOL0     H 1322   5.947   9.144   1.731  0.7825  2.9799 -4.2266
  751MOL0     H 1323   6.073   9.270   1.757 -0.5338  1.6911 -0.9185
  751MOL0     H 1324   5.958   9.410   1.859  0.7217  0.0897 -1.9314
  751MOL0     H 1325   5.820   9.299   1.915 -2.9604  1.7159 -0.7545
  751MOL0     H 1326   5.866   9.362   1.620 -1.0396  0.8023 -0.9910
  751MOL0     H 1327   5.730   9.285   1.702 -0.9731  0.9242 -3.0103
  751MOL0     H 1328   5.705   9.516   1.812  0.6555  0.5158  0.4664
  751MOL0     H 1329   5.837   9.563   1.710  1.8243 -1.8866 -1.5288
  751MOL0     H 1330   5.684   9.475   1.507  0.5078 -2.0460  0.7319
  751MOL0     H 1331   5.550   9.473   1.625  1.6083 -0.7094  1.7231
  751MOL0     H 1332   5.703   9.697   1.511 -1.6087  0.5056 -2.0434
  751MOL0     H 1333   5.619   9.720   1.665 -4.6012  1.6899 -0.9779
  751MOL0     H 1334   5.499   9.765   1.439  1.7533 -0.0039  2.1302
  751MOL0     H 1335   5.461   9.597   1.445  3.7598 -0.6941 -0.6605
  751MOL0     H 1336   5.265   9.525   1.581  1.5002  0.0852 -1.2776
  751MOL0     H 1337   5.108   9.517   1.859  2.1927  0.7759 -0.3630
  751MOL0     H 1338   5.073   9.678   1.900  1.3322  0.1705  0.3947
  751MOL0     H 1339   4.934   9.718   1.713  4.6685  0.6478 -1.8570
  751MOL0     H 1340   4.967   9.569   1.639 -1.0725 -0.1797 -0.0110
  751MOL0     H 1341   4.749   9.573   1.746  2.1254  0.0107 -1.8668
  751MOL0     H 1342   4.818   9.603   1.911 -0.7482 -0.0754  0.1205
  751MOL0     H 1343   4.916   9.360   1.805 -1.1443 -2.8167  2.0170
  751MOL0     H 1344   4.753   9.366   1.775  2.2261 -3.3571  0.2802
  751MOL0     H 1345   4.557   9.372   1.862 -2.9473  1.5421  0.2809
  751MOL0     H 1346   4.351   9.391   1.982 -0.7803 -1.3087 -0.0956
  751MOL0     H 1347   4.115   9.662   2.064 -1.2428 -0.4964  0.1674
  751MOL0     H 1348   3.920   9.773   2.124  1.6415 -0.4572 -0.5128
  751MOL0     H 1349   3.840   9.890   2.385  1.0514 -0.7355 -0.9973
  751MOL0     H 1350   3.744   9.902   2.237 -0.4438  1.6553  0.8966
  751MOL0     H 1351   3.632  10.029   2.402 -0.0439 -0.0353 -2.2092
  751MOL0     H 1352   3.544   9.871   2.358 -1.7224  1.6924  2.4261
  751MOL0     H 1353   3.629   9.783   2.586 -0.5302 -1.1962 -3.1013
  751MOL0     H 1354   3.697   9.943   2.616 -0.8835  1.3145  0.2299
  751MOL0     H 1355   3.400   9.891   2.560 -2.4524  1.4696  1.1582
  751MOL0     H 1356   3.478  10.050   2.566  0.4184  1.5322  1.7860
  751MOL0     H 1357   3.545   9.997   2.799  0.9409 -1.9231 -1.0092
  751MOL0     H 1358   3.477   9.835   2.772  1.9011 -0.1053 -2.0343
  751MOL0     H 1359   3.312  10.103   2.769  1.0091 -0.4980  1.3192
  751MOL0     H 1360   3.256   9.939   2.724 -0.2695  1.7742 -3.1132
  751MOL0     H 1361   3.328   9.853   2.946  0.2102 -2.0672 -4.4231
  751MOL0     H 1362   3.173   9.928   2.914 -0.1512 -0.7496  0.8141
  751MOL0     H 1363   3.290  10.023   3.122 -1.7292  1.3959  1.2867
  751MOL0     H 1364   3.374  10.119   2.987 -0.4888 -0.5996 -1.9986
  751MOL0     H 1365   3.845   9.503   2.442  0.6527 -0.2389  0.3417
  751MOL0     H 1366   4.074   9.386   2.388  2.1058  0.4473 -1.5965
  751MOL0     H 1367   4.566   9.378   2.356 -0.6780  0.8025 -0.3500
  751MOL0     H 1368   4.777   9.377   2.232  1.5930 -2.0740 -1.9201
  751MOL0     H 1369   6.003   8.895   2.062 -0.1576 -1.5715  3.1965
  751MOL0     H 1370   6.113   8.777   2.259 -0.3348  2.7773  0.8112
  751MOL0     H 1371   6.532   8.453   2.370 -2.2818 -3.7871  0.8093
  751MOL0     H 1372   6.646   8.381   2.564  2.1706  1.8856  2.3277
  751MOL0     H 1373   6.661   8.436   3.007  0.0682  0.3437  0.9829
  751MOL0     H 1374   6.583   8.582   2.969 -0.0023  1.7694 -2.6119
  751MOL0     H 1375   6.807   8.605   3.037  1.9171  0.6148  0.0511
  751MOL0     H 1376   6.786   8.672   2.873 -0.4939  1.4271  1.3469
  751MOL0     H 1377   6.885   8.450   2.780 -0.1254 -2.1752  0.7676
  751MOL0     H 1378   6.888   8.386   2.946  1.4081  0.1412 -0.2528
  751MOL0     H 1379   7.036   8.632   2.841  1.8066  1.0158  2.1210
  751MOL0     H 1380   7.030   8.598   3.012  1.2004  3.5461 -0.9978
  751MOL0     H 1381   7.337   8.366   2.893  0.1487  2.1613  1.3650
  751MOL0     H 1382   6.481   8.680   2.801 -1.1985  1.0313 -0.1030
  751MOL0     H 1383   6.311   8.873   2.553  0.7935  0.5080  1.3157
  751MOL0     H 1384   6.216   8.710   2.582  2.5551 -3.0804 -0.3035
  751MOL0     H 1385   6.281   8.795   2.713 -2.7263 -3.1068  0.7977
  752MOL0     O 1386   5.573   1.048   3.760 -0.3213 -0.2897  0.6403
  752MOL0     C 1387   5.672   0.997   3.816 -0.0295 -0.3624 -0.7617
  752MOL0     O 1388   5.790   1.064   3.849  0.1529 -0.3418  0.2499
  752MOL0     C 1389   5.805   1.195   3.818 -0.0168  0.2483  1.1984
  752MOL0     C 1390   5.895   1.236   3.712 -0.4961  0.2946 -0.6234
  752MOL0     C 1391   5.901   1.367   3.672 -0.0397 -1.1954 -0.0030
  752MOL0     C 1392   5.823   1.466   3.735  0.1788 -0.5087  0.2689
  752MOL0     O 1393   5.836   1.600   3.698 -0.2125  0.2237 -0.4048
  752MOL0     C 1394   5.786   1.644   3.568  0.0274  0.5271  0.6078
  752MOL0     C 1395   5.752   1.788   3.569 -0.5771  0.5318 -0.1066
  752MOL0     C 1396   5.625   1.828   3.645  0.2267 -0.0786  0.3963
  752MOL0     C 1397   5.579   1.980   3.611  0.9812 -0.4472  0.0177
  752MOL0     C 1398   5.482   2.038   3.713  0.3764 -0.5054  0.4615
  752MOL0     C 1399   5.550   2.066   3.848  0.0591  0.4618 -0.8861
  752MOL0     C 1400   5.664   2.168   3.833  0.0442 -0.2065 -0.6350
  752MOL0     C 1401   5.728   2.208   3.964 -0.7699 -0.0265 -0.8393
  752MOL0     N 1402   5.840   2.303   3.954 -0.2747  0.2497  0.3867
  752MOL0     C 1403   5.867   2.380   3.849  0.4398  0.0840 -0.1205
  752MOL0     C 1404   5.981   2.439   3.891 -0.1317  0.1098  0.3729
  752MOL0     C 1405   6.044   2.548   3.810 -0.5318 -0.2258  0.0345
  752MOL0     C 1406   6.129   2.651   3.890  0.3306 -0.2032  0.1299
  752MOL0     C 1407   6.281   2.637   3.877 -0.4433  0.0674 -0.0672
  752MOL0     C 1408   6.340   2.498   3.878 -0.8861 -1.0269 -0.0091
  752MOL0     O 1409   6.485   2.505   3.893 -0.0363  0.3586 -0.3354
  752MOL0     C 1410   6.551   2.379   3.894  0.6360  0.1018 -0.1274
  752MOL0     C 1411   6.493   2.250   3.884  0.0165 -0.3079  0.1438
  752MOL0     C 1412   6.578   2.136   3.911  0.6490 -0.0293 -0.1881
  752MOL0     C 1413   6.717   2.151   3.942  1.0221 -0.4901  0.2320
  752MOL0     C 1414   6.806   2.031   3.958  0.7315 -0.1471 -0.0271
  752MOL0     O 1415   6.938   2.056   3.975  0.6157  0.8550  0.0562
  752MOL0     C 1416   7.025   1.966   4.024  0.2917  0.4967  0.1935
  752MOL0     C 1417   6.989   1.851   4.088  0.0079 -0.3451  0.2179
  752MOL0     C 1418   7.086   1.753   4.125 -0.9793 -0.2207  0.2584
  752MOL0     C 1419   7.220   1.772   4.107  0.9743 -0.7974  0.8918
  752MOL0     O 1420   7.309   1.667   4.132  0.3544  0.2071 -0.3993
  752MOL0     C 1421   7.432   1.666   4.052  0.2684 -0.3431  0.3047
  752MOL0     C 1422   7.529   1.573   4.110 -0.5498  0.2755  0.1824
  752MOL0     C 1423   7.585   1.624   4.237  1.0590 -0.3042 -0.0691
  752MOL0     C 1424   7.675   1.525   4.312 -0.2442  0.0986 -1.0770
  752MOL0     C 1425   7.799   1.484   4.242 -0.0058 -0.4586 -0.4196
  752MOL0     C 1426   7.876   1.606   4.206 -0.7903 -0.4588 -0.3141
  752MOL0     C 1427   7.995   1.572   4.121 -0.5652  0.3898 -0.1667
  752MOL0     C 1428   8.082   1.692   4.082 -0.9495 -0.2297 -0.2042
  752MOL0    Cl 1429   8.233   1.630   4.017 -0.8329  0.1714 -0.2755
  752MOL0     C 1430   7.256   1.902   4.054 -0.5594  0.0628  0.1580
  752MOL0     C 1431   7.159   2.001   4.017 -0.0128 -0.0891  0.1255
  752MOL0     O 1432   6.749   1.917   3.946 -0.6783 -0.2179 -0.0373
  752MOL0     C 1433   6.770   2.283   3.955 -0.6006  0.6211  0.5212
  752MOL0     C 1434   6.688   2.395   3.931  0.1952  0.3998 -0.6087
  752MOL0     N 1435   6.008   2.407   4.022  0.1442 -0.0500  0.4438
  752MOL0     N 1436   5.931   2.310   4.055 -0.0081 -1.4040 -0.3340
  752MOL0     C 1437   5.742   1.431   3.834  0.6612  0.3144 -0.4319
  752MOL0     C 1438   5.736   1.301   3.876 -0.3655 -0.0673 -0.2721
  752MOL0     C 1439   5.660   0.851   3.856 -0.4289 -0.2569  0.8251
  752MOL0     C 1440   5.774   0.784   3.903 -0.4555 -0.8902  0.4705
  752MOL0     C 1441   5.790   0.649   3.923  1.0605 -0.6914  0.1359
  752MOL0     C 1442   5.679   0.570   3.908  0.2967  0.0516 -0.0317
  752MOL0     O 1443   5.691   0.427   3.920  0.2791 -0.5181  0.0232
  752MOL0     C 1444   5.576   0.343   3.903  0.1328 -0.0394  0.0105
  752MOL0     C 1445   5.481   0.338   4.024  0.8241  1.1119  0.5578
  752MOL0     C 1446   5.549   0.288   4.149 -0.8249 -0.9827 -0.5089
  752MOL0     C 1447   5.454   0.302   4.273 -0.0534  0.8048  0.0802
  752MOL0     C 1448   5.533   0.297   4.393 -0.5460 -0.2371 -0.4051
  752MOL0     C 1449   5.597   0.315   4.492 -1.1526 -0.0814  0.4711
  752MOL0     C 1450   5.557   0.636   3.868 -0.4871 -0.8865 -0.0033
  752MOL0     C 1451   5.549   0.775   3.849  0.0833  0.1486  0.2270
  752MOL0     C 1452   5.410   0.824   3.813  0.3660  0.1416 -0.2860
  752MOL0     H 1453   5.951   1.158   3.661  1.1758 -2.0745  4.2540
  752MOL0     H 1454   5.981   1.395   3.603  0.2181 -0.2502  0.6628
  752MOL0     H 1455   5.857   1.642   3.484 -0.8429  0.9603 -0.1560
  752MOL0     H 1456   5.704   1.580   3.535  2.4714 -1.2236 -2.7689
  752MOL0     H 1457   5.747   1.825   3.466  2.6940  1.9972  0.1476
  752MOL0     H 1458   5.838   1.838   3.614  2.1265 -0.7353 -3.4252
  752MOL0     H 1459   5.644   1.811   3.752  0.4630  3.4237  1.0256
  752MOL0     H 1460   5.541   1.760   3.627 -0.9471  1.2251  0.7594
  752MOL0     H 1461   5.670   2.041   3.598 -1.3459  3.3099 -0.0926
  752MOL0     H 1462   5.526   1.985   3.516 -1.6403 -2.6432  1.2642
  752MOL0     H 1463   5.446   2.129   3.664  2.1672  0.5486  1.0136
  752MOL0     H 1464   5.397   1.970   3.726  1.8767 -2.3551  1.1042
  752MOL0     H 1465   5.474   2.117   3.908 -1.7004 -2.2072 -0.6824
  752MOL0     H 1466   5.580   1.981   3.910 -2.6681  0.1381  0.1406
  752MOL0     H 1467   5.631   2.265   3.796 -3.1309 -0.4286  1.2903
  752MOL0     H 1468   5.747   2.130   3.773  0.7471 -0.0622  0.2109
  752MOL0     H 1469   5.651   2.247   4.032  0.7116  2.3528 -0.3759
  752MOL0     H 1470   5.759   2.115   4.013 -0.2670  1.0220  0.9461
  752MOL0     H 1471   5.807   2.388   3.760  0.5466  0.0846 -0.1930
  752MOL0     H 1472   6.106   2.504   3.732  0.6919  2.2707 -0.5229
  752MOL0     H 1473   5.967   2.612   3.766  1.3578  1.0757 -1.5957
  752MOL0     H 1474   6.096   2.749   3.854  0.5129 -1.4492 -3.9015
  752MOL0     H 1475   6.098   2.649   3.995  2.9016  2.1181  1.0489
  752MOL0     H 1476   6.327   2.685   3.964  3.6748  1.3178 -2.6360
  752MOL0     H 1477   6.320   2.686   3.788 -0.9487 -2.0828 -1.5472
  752MOL0     H 1478   6.327   2.449   3.781 -0.7510 -0.8850 -0.1002
  752MOL0     H 1479   6.305   2.441   3.964 -1.2716 -0.6103  0.1106
  752MOL0     H 1480   6.387   2.252   3.861  0.6917  2.7399 -3.6395
  752MOL0     H 1481   6.529   2.039   3.915 -0.7290  0.6082 -0.9075
  752MOL0     H 1482   6.888   1.822   4.116  0.0593 -1.4505 -0.6525
  752MOL0     H 1483   7.057   1.654   4.159 -0.8961  0.4054  2.2909
  752MOL0     H 1484   7.398   1.633   3.953 -0.5272 -3.2331  1.4404
  752MOL0     H 1485   7.477   1.765   4.041  2.0062 -1.3680 -3.3864
  752MOL0     H 1486   7.485   1.476   4.133 -0.4994  0.2939  0.3570
  752MOL0     H 1487   7.614   1.549   4.045  0.3464  3.1135  0.1456
  752MOL0     H 1488   7.621   1.727   4.228  0.0815  0.2652  2.0814
  752MOL0     H 1489   7.502   1.643   4.305  0.7985  0.7273 -0.6549
  752MOL0     H 1490   7.614   1.435   4.323 -0.4308  0.3528  0.0743
  752MOL0     H 1491   7.702   1.567   4.410 -1.9710  0.1120 -0.5742
  752MOL0     H 1492   7.783   1.424   4.152  2.8716 -1.7712 -0.1602
  752MOL0     H 1493   7.858   1.419   4.307 -0.4898  0.5559  1.1153
  752MOL0     H 1494   7.825   1.692   4.162  0.7658  0.2307 -0.8326
  752MOL0     H 1495   7.914   1.643   4.301  1.3228  0.3347 -1.4151
  752MOL0     H 1496   7.961   1.522   4.030  0.0487  1.1443 -0.8277
  752MOL0     H 1497   8.067   1.504   4.168  1.2225  1.3869 -1.3016
  752MOL0     H 1498   8.038   1.758   4.007 -0.1226 -1.4925 -1.8567
  752MOL0     H 1499   8.113   1.754   4.167  3.5702  0.3958 -1.9921
  752MOL0     H 1500   7.361   1.925   4.036 -0.0348 -2.4199 -0.3242
  752MOL0     H 1501   7.182   2.087   3.954  1.1129  0.9620  1.8987
  752MOL0     H 1502   6.874   2.309   3.969 -0.7991  1.5805  0.2852
  752MOL0     H 1503   6.733   2.494   3.940  1.2402 -0.2478  3.4348
  752MOL0     H 1504   5.688   1.501   3.898 -0.9612 -1.2990  0.0406
  752MOL0     H 1505   5.666   1.281   3.956 -1.2243 -3.5148 -1.7115
  752MOL0     H 1506   5.871   0.833   3.908 -0.6925 -0.4091  0.3861
  752MOL0     H 1507   5.893   0.615   3.934  2.3551  2.7152 -0.1630
  752MOL0     H 1508   5.623   0.250   3.867  2.6295  1.4461 -0.7873
  752MOL0     H 1509   5.528   0.387   3.815  1.8052 -1.0197 -1.4584
  752MOL0     H 1510   5.408   0.265   3.986  1.0382  0.5585  1.1988
  752MOL0     H 1511   5.432   0.434   4.038 -1.0836 -0.0674  2.6847
  752MOL0     H 1512   5.627   0.363   4.166  0.3856 -2.7009  1.9972
  752MOL0     H 1513   5.593   0.189   4.133  4.0568  1.2770 -3.8566
  752MOL0     H 1514   5.395   0.394   4.260 -1.5416 -0.0323  0.6771
  752MOL0     H 1515   5.378   0.224   4.285 -0.2014  1.1803  1.8674
  752MOL0     H 1516   5.653   0.338   4.580 -1.3373 -0.9296  0.8187
  752MOL0     H 1517   5.467   0.585   3.833 -1.7582  0.8739  0.5403
  752MOL0     H 1518   5.382   0.909   3.876 -2.1006  2.8025 -4.5511
  752MOL0     H 1519   5.391   0.854   3.710 -2.3580 -4.1422 -1.2685
  752MOL0     H 1520   5.335   0.745   3.824 -0.3552  0.4741 -2.3807
  753MOL0     O 1521  10.686   2.428   5.265 -0.0184  0.1228  0.5655
  753MOL0     C 1522  10.639   2.323   5.310 -0.7535 -0.2728 -0.4933
  753MOL0     O 1523  10.682   2.201   5.285 -0.1524 -0.1955  0.2631
  753MOL0     C 1524  10.817   2.195   5.249  0.0363  0.4821  0.4642
  753MOL0     C 1525  10.908   2.226   5.351  0.1016  0.1134  0.8250
  753MOL0     C 1526  11.044   2.213   5.329 -0.2710  0.3516  0.3504
  753MOL0     C 1527  11.089   2.163   5.204 -0.1574 -0.9724  0.0484
  753MOL0     O 1528  11.222   2.147   5.173 -0.1386 -0.1905 -0.0956
  753MOL0     C 1529  11.277   2.047   5.261 -0.2928  0.6632 -0.4593
  753MOL0     C 1530  11.244   1.903   5.215  0.3089  0.3978 -0.7042
  753MOL0     C 1531  11.271   1.868   5.070  0.7705  0.1333 -0.5481
  753MOL0     C 1532  11.205   1.729   5.038  0.5122  0.2704 -0.0813
  753MOL0     C 1533  11.224   1.609   5.117  0.0754  0.7758  0.6425
  753MOL0     C 1534  11.361   1.576   5.177  0.3409 -0.5006  0.0040
  753MOL0     C 1535  11.389   1.426   5.204 -0.2831 -0.2071 -0.4900
  753MOL0     C 1536  11.390   1.323   5.101 -0.7768  0.0782  0.0291
  753MOL0     N 1537  11.505   1.359   5.014 -0.3882 -0.4081 -0.4175
  753MOL0     C 1538  11.633   1.343   5.051  0.4061 -1.2557  0.0254
  753MOL0     C 1539  11.704   1.348   4.942 -0.7387  0.0580  0.7127
  753MOL0     C 1540  11.861   1.341   4.921  0.7806 -0.2967  0.4308
  753MOL0     C 1541  11.903   1.199   4.870  0.6238 -0.6103 -0.9400
  753MOL0     C 1542  12.056   1.194   4.848  0.6072 -0.1807  0.0963
  753MOL0     C 1543  12.100   1.046   4.808 -0.1923 -0.0179 -0.2994
  753MOL0     O 1544  12.240   1.037   4.790 -0.1790  0.2801 -0.1596
  753MOL0     C 1545  12.295   0.913   4.764 -0.0657 -0.0478  0.6641
  753MOL0     C 1546  12.436   0.908   4.760 -0.0746 -0.2603 -0.1527
  753MOL0     C 1547  12.495   0.791   4.726  0.3030 -0.1073  0.4573
  753MOL0     C 1548  12.431   0.669   4.702 -1.1925  0.1220  0.0976
  753MOL0     C 1549  12.510   0.544   4.673 -0.3657  0.0997 -0.2703
  753MOL0     O 1550  12.620   0.545   4.598 -0.0948  0.4789 -0.1723
  753MOL0     C 1551  12.678   0.433   4.540  1.1748 -0.1510  0.2115
  753MOL0     C 1552  12.619   0.325   4.491 -0.5257  0.0652 -0.4387
  753MOL0     C 1553  12.700   0.217   4.435  0.3897 -0.8365  0.8978
  753MOL0     C 1554  12.834   0.228   4.418 -0.2779 -0.8129  1.0575
  753MOL0     O 1555  12.933   0.138   4.370  0.6678  0.7778  0.0700
  753MOL0     C 1556  12.924   0.002   4.420 -0.7217 -0.0595  0.0687
  753MOL0     C 1557  12.947  -0.010   4.575  0.4189  0.0919  0.4505
  753MOL0     C 1558  13.090   0.020   4.613 -0.0377 -0.0349 -0.1032
  753MOL0     C 1559  13.138  -0.050   4.753  0.2594  0.3304 -0.4666
  753MOL0     C 1560  13.286  -0.010   4.779 -0.6587 -0.2078  0.1241
  753MOL0     C 1561  13.345  -0.065   4.913  0.5143  0.4559 -0.3283
  753MOL0     C 1562  13.493  -0.024   4.919 -0.0669  0.1984  0.1781
  753MOL0     C 1563  13.581  -0.139   4.969  0.3706 -0.1920  0.3549
  753MOL0    Cl 1564  13.759  -0.098   4.973 -0.0655  0.0848  0.4368
  753MOL0     C 1565  12.891   0.352   4.461 -0.5454 -0.4283 -0.8645
  753MOL0     C 1566  12.816   0.454   4.527 -0.2247 -0.0702  0.4676
  753MOL0     O 1567  12.470   0.442   4.737 -0.1175  0.4578 -0.2763
  753MOL0     C 1568  12.284   0.670   4.707 -0.9299  0.0982 -0.0136
  753MOL0     C 1569  12.220   0.791   4.742  0.0825 -0.1561  0.0828
  753MOL0     N 1570  11.623   1.375   4.837 -0.8291 -0.7722  0.3134
  753MOL0     N 1571  11.492   1.389   4.880  0.5614 -0.0875  0.0197
  753MOL0     C 1572  11.002   2.143   5.094  0.1487  0.2544 -0.3168
  753MOL0     C 1573  10.865   2.162   5.117  0.3399  0.2349 -0.7662
  753MOL0     C 1574  10.513   2.327   5.377 -0.7867  0.5952 -0.1088
  753MOL0     C 1575  10.426   2.214   5.352 -0.1758 -0.9601  0.1279
  753MOL0     C 1576  10.305   2.222   5.405  0.4145 -1.1183 -0.5024
  753MOL0     C 1577  10.253   2.348   5.468  0.9404  0.3355 -0.8078
  753MOL0     O 1578  10.126   2.365   5.531 -0.4092  0.4166  0.2613
  753MOL0     C 1579  10.036   2.256   5.535  1.1410 -0.7393 -0.6124
  753MOL0     C 1580   9.931   2.273   5.644 -0.4360 -0.1645 -0.4642
  753MOL0     C 1581   9.891   2.145   5.714 -0.3866 -0.6819 -0.6441
  753MOL0     C 1582   9.800   2.158   5.837 -1.2267  0.5325 -0.3433
  753MOL0     C 1583   9.670   2.220   5.824  0.1140  0.1497  0.5449
  753MOL0     C 1584   9.568   2.265   5.790  0.2555 -0.7409  0.0662
  753MOL0     C 1585  10.340   2.452   5.488 -0.2572  0.4826 -0.5496
  753MOL0     C 1586  10.469   2.445   5.448  0.0030 -0.6621 -0.3987
  753MOL0     C 1587  10.559   2.568   5.467  0.8657  0.2174  0.6167
  753MOL0     H 1588  10.869   2.265   5.445 -3.3446  0.5967 -0.6380
  753MOL0     H 1589  11.122   2.238   5.399 -0.2128  1.0048  0.0583
  753MOL0     H 1590  11.385   2.046   5.244  0.8798  1.5819  4.9755
  753MOL0     H 1591  11.264   2.073   5.367  0.9882 -2.7338  0.6776
  753MOL0     H 1592  11.137   1.890   5.237  0.9036 -1.7786  1.3306
  753MOL0     H 1593  11.306   1.835   5.274 -0.5128  1.3632  1.3699
  753MOL0     H 1594  11.379   1.857   5.057  0.6833 -1.2124 -0.2837
  753MOL0     H 1595  11.233   1.949   5.008  0.4723  2.1614  2.0961
  753MOL0     H 1596  11.098   1.742   5.019  0.4295  0.6701  0.6040
  753MOL0     H 1597  11.243   1.721   4.936 -1.2204  2.9831 -1.0372
  753MOL0     H 1598  11.143   1.593   5.190 -0.9434 -2.0427 -0.9253
  753MOL0     H 1599  11.203   1.526   5.049  1.0733  0.7227  0.3877
  753MOL0     H 1600  11.438   1.628   5.119 -1.0368 -0.1077 -1.5477
  753MOL0     H 1601  11.362   1.625   5.275  0.2921 -0.8493  0.1788
  753MOL0     H 1602  11.303   1.394   5.264  1.0968 -2.2022  0.5364
  753MOL0     H 1603  11.479   1.414   5.265  0.6444 -1.0991 -1.9754
  753MOL0     H 1604  11.405   1.221   5.137  1.1728  0.2159 -0.2757
  753MOL0     H 1605  11.304   1.328   5.034 -0.6475 -1.4930 -0.2820
  753MOL0     H 1606  11.672   1.326   5.150  2.4577  0.8455 -0.3324
  753MOL0     H 1607  11.897   1.426   4.862  0.4183  1.3215  2.4669
  753MOL0     H 1608  11.908   1.364   5.017 -2.5678  1.1336  1.8937
  753MOL0     H 1609  11.862   1.130   4.945 -1.3715  2.2850  0.8297
  753MOL0     H 1610  11.863   1.181   4.769 -0.8945 -5.5764  0.2675
  753MOL0     H 1611  12.095   1.229   4.944  0.6263 -0.0311  0.0342
  753MOL0     H 1612  12.087   1.255   4.762  1.0020  1.5993  1.4428
  753MOL0     H 1613  12.049   1.022   4.715 -1.4389  0.3951  0.2579
  753MOL0     H 1614  12.073   0.977   4.888  1.5109  1.0067  1.2518
  753MOL0     H 1615  12.504   0.988   4.788 -0.7425  0.1912  0.1833
  753MOL0     H 1616  12.601   0.808   4.711 -0.0105  0.5251 -1.2204
  753MOL0     H 1617  12.511   0.318   4.499 -0.6206 -1.4521 -2.3011
  753MOL0     H 1618  12.646   0.129   4.402  0.9075 -0.2543 -1.7526
  753MOL0     H 1619  12.825  -0.038   4.396 -0.6792  0.3745 -0.8537
  753MOL0     H 1620  12.999  -0.063   4.374  1.4070  0.1691  2.8894
  753MOL0     H 1621  12.882   0.055   4.635  1.5574  0.8292  0.9057
  753MOL0     H 1622  12.926  -0.116   4.593  2.0790 -0.3471 -0.0738
  753MOL0     H 1623  13.167  -0.020   4.546  0.8546  1.4206 -0.0035
  753MOL0     H 1624  13.092   0.129   4.619 -2.3194  0.0960 -0.8180
  753MOL0     H 1625  13.124  -0.157   4.734  1.7094  0.7152 -5.1165
  753MOL0     H 1626  13.078  -0.017   4.838 -0.8403  0.4799 -1.2799
  753MOL0     H 1627  13.298   0.099   4.784  0.4876 -0.3203  0.0982
  753MOL0     H 1628  13.357  -0.039   4.701 -1.0405 -2.7800  0.6465
  753MOL0     H 1629  13.288  -0.017   4.993  1.1151  2.0859 -0.8519
  753MOL0     H 1630  13.326  -0.173   4.906  0.0235  0.5217 -0.0503
  753MOL0     H 1631  13.508   0.062   4.985  0.8742 -0.2421  0.5566
  753MOL0     H 1632  13.532  -0.007   4.818  0.9821  1.3077  0.7359
  753MOL0     H 1633  13.533  -0.154   5.066 -2.2462  4.1558  0.0024
  753MOL0     H 1634  13.562  -0.221   4.898 -2.1782  1.7109 -1.3400
  753MOL0     H 1635  12.995   0.370   4.434 -1.0165  0.8256 -1.9804
  753MOL0     H 1636  12.864   0.549   4.548 -0.9207  1.5387 -4.0106
  753MOL0     H 1637  12.228   0.580   4.683 -0.1861 -0.5136  0.4621
  753MOL0     H 1638  12.112   0.791   4.755  0.2250 -0.6752  1.4315
  753MOL0     H 1639  11.049   2.108   5.003  0.7238 -1.1870  0.5129
  753MOL0     H 1640  10.791   2.140   5.041 -0.5040 -0.4181  0.2102
  753MOL0     H 1641  10.456   2.127   5.294  0.9914  0.0308 -0.7999
  753MOL0     H 1642  10.249   2.132   5.384  1.8832 -2.5985  1.5367
  753MOL0     H 1643  10.091   2.165   5.562 -0.4784 -2.3212 -2.3685
  753MOL0     H 1644   9.998   2.236   5.435  0.0100  0.3837 -0.4262
  753MOL0     H 1645   9.839   2.307   5.594 -0.4591  1.2208  0.4885
  753MOL0     H 1646   9.967   2.350   5.713  0.6181 -0.2811 -0.8636
  753MOL0     H 1647   9.980   2.098   5.757 -0.3562  1.0692  1.3566
  753MOL0     H 1648   9.848   2.073   5.644  0.8673 -1.4653 -0.6429
  753MOL0     H 1649   9.787   2.055   5.873  2.7221  0.3472  0.9624
  753MOL0     H 1650   9.855   2.224   5.905 -3.3906  2.9851 -0.8191
  753MOL0     H 1651   9.473   2.302   5.757  1.0483  1.8454  0.4185
  753MOL0     H 1652  10.306   2.544   5.533  3.3761  2.6474 -1.7805
  753MOL0     H 1653  10.659   2.538   5.501  0.7215 -1.2122 -0.1290
  753MOL0     H 1654  10.558   2.633   5.379  0.1752  1.1707  1.3094
  753MOL0     H 1655  10.513   2.634   5.541 -1.0826  1.0228 -1.2257
  754MOL0     O 1656   2.837  10.040  11.142 -1.2779 -0.3512  0.5364
  754MOL0     C 1657   2.783  10.082  11.245  1.2130  0.6767 -0.2827
  754MOL0     O 1658   2.811  10.192  11.319  0.1916  0.4319 -0.2195
  754MOL0     C 1659   2.914  10.273  11.282  0.0110 -0.5829  0.3326
  754MOL0     C 1660   3.030  10.246  11.207  0.7378 -0.9362 -0.3149
  754MOL0     C 1661   3.128  10.335  11.177 -0.5546  0.0505 -0.2889
  754MOL0     C 1662   3.129  10.461  11.240  0.1003  1.0382  2.4025
  754MOL0     O 1663   3.235  10.546  11.215 -0.0209 -1.3619 -0.3265
  754MOL0     C 1664   3.198  10.679  11.186  0.7172 -0.5048 -0.3798
  754MOL0     C 1665   3.322  10.754  11.180  0.9661 -0.6205 -0.4704
  754MOL0     C 1666   3.387  10.774  11.314  0.0694 -0.1736 -0.2194
  754MOL0     C 1667   3.520  10.856  11.309  0.4175  0.1469 -0.0284
  754MOL0     C 1668   3.602  10.845  11.443 -0.0645 -0.5370  0.7146
  754MOL0     C 1669   3.535  10.902  11.570 -0.4580 -0.0053 -0.3401
  754MOL0     C 1670   3.510  11.056  11.551  0.4394  0.2115  0.5105
  754MOL0     C 1671   3.400  11.098  11.645 -0.7439  0.7215  0.4803
  754MOL0     N 1672   3.425  11.067  11.784  0.0194 -0.4035  0.1535
  754MOL0     C 1673   3.522  11.122  11.862  0.2774  0.1650  0.0514
  754MOL0     C 1674   3.484  11.087  11.993  0.1596 -1.0045 -0.1356
  754MOL0     C 1675   3.542  11.120  12.130  0.0922  0.0018  0.3196
  754MOL0     C 1676   3.550  11.259  12.190  0.4145  0.1459 -0.5745
  754MOL0     C 1677   3.643  11.356  12.122 -0.0673 -0.8035  0.2898
  754MOL0     C 1678   3.648  11.492  12.200 -0.2989  1.4219  0.0912
  754MOL0     O 1679   3.687  11.593  12.114  0.5233  0.1903 -0.2645
  754MOL0     C 1680   3.706  11.725  12.166 -0.2920  0.2337 -0.5774
  754MOL0     C 1681   3.772  11.823  12.088 -0.0753  0.0065  0.0394
  754MOL0     C 1682   3.800  11.944  12.141  0.0393  0.2553 -0.8374
  754MOL0     C 1683   3.771  11.986  12.272 -0.8435  0.2144 -0.7599
  754MOL0     C 1684   3.793  12.128  12.309 -0.2263  0.2577 -0.2819
  754MOL0     O 1685   3.848  12.206  12.215 -0.2144 -0.7338 -0.3934
  754MOL0     C 1686   3.865  12.344  12.224 -0.0318 -0.6101 -0.2655
  754MOL0     C 1687   3.949  12.397  12.323  0.3123 -0.6664  0.3048
  754MOL0     C 1688   3.974  12.538  12.322  0.3098  0.2432 -0.7369
  754MOL0     C 1689   3.910  12.624  12.228 -0.1323  0.3474  0.0102
  754MOL0     O 1690   3.941  12.757  12.232 -0.0937  0.1644  1.1122
  754MOL0     C 1691   3.835  12.833  12.301 -0.0037 -1.0080 -0.5490
  754MOL0     C 1692   3.900  12.883  12.429 -0.1058 -0.5239 -1.1009
  754MOL0     C 1693   4.013  12.988  12.401 -0.5444  0.6523 -0.3845
  754MOL0     C 1694   4.066  13.056  12.528  0.8225 -0.1973 -0.4351
  754MOL0     C 1695   4.195  13.125  12.490 -0.2238  0.0810 -0.8485
  754MOL0     C 1696   4.308  13.122  12.593  0.7004 -0.8882  0.9112
  754MOL0     C 1697   4.259  13.167  12.727  0.3404  0.4313 -0.0703
  754MOL0     C 1698   4.269  13.318  12.740 -0.6145  0.6738 -1.0148
  754MOL0    Cl 1699   4.441  13.372  12.778 -0.8213  0.1895 -0.2511
  754MOL0     C 1700   3.835  12.558  12.127  0.0221 -0.3586  0.3392
  754MOL0     C 1701   3.802  12.429  12.131  0.0449  0.3576 -0.1856
  754MOL0     O 1702   3.760  12.170  12.421  0.1993  0.0756 -0.1861
  754MOL0     C 1703   3.708  11.892  12.356  0.5603  0.0515  0.1693
  754MOL0     C 1704   3.672  11.761  12.299  0.2360 -0.2449 -0.3911
  754MOL0     N 1705   3.362  11.021  11.975  0.1266 -0.2896 -0.4728
  754MOL0     N 1706   3.332  11.016  11.856 -0.1359  0.4359 -0.2243
  754MOL0     C 1707   3.020  10.484  11.326  0.1548 -0.6968 -0.0566
  754MOL0     C 1708   2.916  10.396  11.344 -0.1201 -0.7003 -0.4108
  754MOL0     C 1709   2.678   9.989  11.293  0.2283  1.1800  0.7137
  754MOL0     C 1710   2.600  10.036  11.395  0.3864  0.7495 -0.9779
  754MOL0     C 1711   2.496   9.959  11.459 -0.1130  0.0083  0.9257
  754MOL0     C 1712   2.475   9.829  11.418 -0.8715 -0.7229 -0.1821
  754MOL0     O 1713   2.379   9.765  11.485  0.1984  0.1565  0.0954
  754MOL0     C 1714   2.279   9.721  11.390  0.4730 -0.3947 -0.6602
  754MOL0     C 1715   2.140   9.776  11.419  0.7033  0.4571 -0.2476
  754MOL0     C 1716   2.079   9.704  11.534  0.3051  0.1383  0.4783
  754MOL0     C 1717   1.933   9.741  11.542  0.6267  0.5162  0.1820
  754MOL0     C 1718   1.854   9.658  11.444  0.2080 -0.8722 -0.7610
  754MOL0     C 1719   1.788   9.611  11.355 -0.7996 -0.2617  0.5316
  754MOL0     C 1720   2.548   9.785  11.310  0.4935 -0.2929 -0.7138
  754MOL0     C 1721   2.642   9.859  11.243  0.3926  0.1309 -0.1434
  754MOL0     C 1722   2.707   9.800  11.116 -0.1549  0.7878  0.2035
  754MOL0     H 1723   3.044  10.151  11.158 -0.2155 -1.2901  0.0714
  754MOL0     H 1724   3.213  10.308  11.115  1.1275 -0.6548  2.1592
  754MOL0     H 1725   3.141  10.696  11.094 -0.4062 -2.0649 -0.0089
  754MOL0     H 1726   3.143  10.721  11.271 -1.6290 -0.8912 -1.6344
  754MOL0     H 1727   3.320  10.861  11.158 -1.1619 -0.4043  0.5586
  754MOL0     H 1728   3.380  10.700  11.104  0.6442  0.7568 -1.7195
  754MOL0     H 1729   3.395  10.673  11.355 -4.4717 -0.0121  1.6019
  754MOL0     H 1730   3.318  10.822  11.383 -1.0484 -0.6956 -0.9456
  754MOL0     H 1731   3.586  10.824  11.228  3.1375  1.1959  1.6194
  754MOL0     H 1732   3.498  10.960  11.286  1.3193 -0.3081 -3.4915
  754MOL0     H 1733   3.623  10.740  11.464  1.7928 -1.2459 -3.5674
  754MOL0     H 1734   3.694  10.899  11.418 -1.0749  0.3052 -1.4255
  754MOL0     H 1735   3.441  10.848  11.588 -0.3264 -0.2484 -0.3701
  754MOL0     H 1736   3.603  10.890  11.654 -1.2164 -0.1920  0.2594
  754MOL0     H 1737   3.477  11.089  11.452 -2.2607  2.0647  1.8820
  754MOL0     H 1738   3.586  11.129  11.579 -1.6075  3.7213 -2.2175
  754MOL0     H 1739   3.383  11.207  11.645  0.8922  1.0168  1.5141
  754MOL0     H 1740   3.317  11.037  11.609  3.1954 -5.8505  0.8711
  754MOL0     H 1741   3.611  11.179  11.834  0.5851 -1.3919 -2.5049
  754MOL0     H 1742   3.483  11.061  12.201 -0.1444 -0.0578  0.0771
  754MOL0     H 1743   3.644  11.081  12.130 -0.1265 -0.6380 -0.8673
  754MOL0     H 1744   3.449  11.301  12.198  0.4848  0.0506  1.2851
  754MOL0     H 1745   3.587  11.239  12.291 -1.9268 -2.6527 -0.1088
  754MOL0     H 1746   3.603  11.367  12.021 -1.3315 -2.4046  0.5652
  754MOL0     H 1747   3.747  11.322  12.115  0.0618 -0.3832  0.1720
  754MOL0     H 1748   3.716  11.490  12.286  0.4992  0.3970 -0.5303
  754MOL0     H 1749   3.544  11.500  12.233 -0.9895 -0.8390 -1.3272
  754MOL0     H 1750   3.801  11.810  11.985  0.1225  2.4601 -0.2674
  754MOL0     H 1751   3.858  12.010  12.078  1.5408  1.3912  1.6032
  754MOL0     H 1752   3.993  12.326  12.393  0.8963  0.9212  1.6239
  754MOL0     H 1753   4.045  12.572  12.397  0.7021 -1.2729 -0.3745
  754MOL0     H 1754   3.811  12.916  12.234 -0.4635  0.5691  1.4282
  754MOL0     H 1755   3.752  12.771  12.335 -0.0422 -1.0168 -0.6591
  754MOL0     H 1756   3.825  12.947  12.475  0.2718  0.4595 -1.8175
  754MOL0     H 1757   3.925  12.801  12.498 -2.4063 -0.7941 -0.5210
  754MOL0     H 1758   4.089  12.939  12.339  0.2171  1.2795  0.0341
  754MOL0     H 1759   3.969  13.073  12.348  1.8655  1.6497 -0.9531
  754MOL0     H 1760   4.085  12.977  12.602 -2.6925  0.9056  1.8946
  754MOL0     H 1761   3.995  13.116  12.584  0.7685 -2.2386  1.8780
  754MOL0     H 1762   4.165  13.228  12.471 -0.6396 -0.0139 -0.7205
  754MOL0     H 1763   4.234  13.088  12.395 -0.3452  0.4945 -1.0599
  754MOL0     H 1764   4.348  13.021  12.600  0.0007 -1.0878  2.4915
  754MOL0     H 1765   4.389  13.191  12.567 -0.8473  2.6056  4.3067
  754MOL0     H 1766   4.311  13.121  12.812 -2.3732 -1.2758  0.8027
  754MOL0     H 1767   4.152  13.146  12.738  0.7302 -3.2593 -1.7937
  754MOL0     H 1768   4.224  13.359  12.650  1.3593  3.3289 -0.9123
  754MOL0     H 1769   4.197  13.357  12.812  1.6258  0.0671  1.7685
  754MOL0     H 1770   3.787  12.615  12.047 -2.4753  0.5478  2.3609
  754MOL0     H 1771   3.737  12.382  12.058  2.8600 -3.0995 -0.7158
  754MOL0     H 1772   3.693  11.933  12.456  0.7900  3.1722 -0.9713
  754MOL0     H 1773   3.621  11.697  12.369 -2.8473  1.3553 -1.0047
  754MOL0     H 1774   3.015  10.569  11.393  0.2343  0.3024 -1.3003
  754MOL0     H 1775   2.830  10.430  11.400  0.5059  1.6476 -0.7332
  754MOL0     H 1776   2.624  10.120  11.459 -3.1852 -0.3281  2.1713
  754MOL0     H 1777   2.441  10.006  11.540 -1.2241  0.7633 -0.2319
  754MOL0     H 1778   2.280   9.611  11.382 -1.4388 -0.4260 -0.9373
  754MOL0     H 1779   2.289   9.767  11.291  1.4076 -1.8596 -1.2915
  754MOL0     H 1780   2.073   9.764  11.333  0.4211  0.4567 -0.0293
  754MOL0     H 1781   2.148   9.883  11.443 -1.0061  1.2529 -2.8369
  754MOL0     H 1782   2.133   9.721  11.628 -0.5349 -1.1568  1.2304
  754MOL0     H 1783   2.086   9.597  11.509  0.5763 -0.2704  2.1162
  754MOL0     H 1784   1.907   9.727  11.647  0.1465 -0.9252 -0.1112
  754MOL0     H 1785   1.925   9.845  11.506 -0.3907 -0.0422 -1.3371
  754MOL0     H 1786   1.724   9.571  11.279 -3.3667 -0.2615  2.5601
  754MOL0     H 1787   2.505   9.690  11.280 -2.4742  0.3560  1.0716
  754MOL0     H 1788   2.673   9.696  11.121  2.3503 -0.0480  1.3519
  754MOL0     H 1789   2.677   9.854  11.026 -1.8953 -0.4492 -0.0215
  754MOL0     H 1790   2.814   9.798  11.136 -0.0784  0.9027 -0.2000
  755MOL0     O 1791   0.307   5.561   4.078 -0.7640 -0.1442  0.0177
  755MOL0     C 1792   0.333   5.444   4.096  0.2878 -0.3459 -0.3645
  755MOL0     O 1793   0.362   5.380   4.215 -1.0030 -0.1813 -0.0825
  755MOL0     C 1794   0.454   5.447   4.290  0.3839 -0.5857  0.3010
  755MOL0     C 1795   0.427   5.457   4.424  0.2329 -0.5140 -0.5696
  755MOL0     C 1796   0.526   5.486   4.511 -0.1141  0.0114 -0.4778
  755MOL0     C 1797   0.659   5.515   4.476 -0.5386  0.1627  0.2386
  755MOL0     O 1798   0.762   5.545   4.561  0.1672 -0.2508 -0.2482
  755MOL0     C 1799   0.766   5.683   4.595  0.7230 -0.4183 -0.1489
  755MOL0     C 1800   0.890   5.715   4.671 -0.1518 -0.5647  0.0748
  755MOL0     C 1801   0.897   5.667   4.824 -0.0927  0.1360  0.0393
  755MOL0     C 1802   0.866   5.512   4.841  1.1178 -0.0436  0.4753
  755MOL0     C 1803   0.922   5.445   4.970 -0.5197  0.0921 -0.3707
  755MOL0     C 1804   1.059   5.484   5.007  0.3908  0.4483  0.0966
  755MOL0     C 1805   1.156   5.456   4.896 -0.7489 -0.3368  0.1868
  755MOL0     C 1806   1.305   5.447   4.950 -0.1816 -0.4187  0.2773
  755MOL0     N 1807   1.389   5.368   4.852 -0.2210  0.5859 -0.6645
  755MOL0     C 1808   1.462   5.430   4.749  0.0659 -0.4133  0.2438
  755MOL0     C 1809   1.498   5.325   4.671 -0.3248 -0.0010  0.0054
  755MOL0     C 1810   1.588   5.340   4.546  0.3397 -0.1193 -0.0765
  755MOL0     C 1811   1.737   5.362   4.565  0.4121  0.5572  0.3455
  755MOL0     C 1812   1.768   5.457   4.677  0.0312  0.4486 -0.2905
  755MOL0     C 1813   1.911   5.487   4.682  0.5735  0.0926 -0.9869
  755MOL0     O 1814   1.998   5.366   4.684 -0.3321 -0.0272  0.2831
  755MOL0     C 1815   2.130   5.365   4.729  0.5388  0.3322 -0.3037
  755MOL0     C 1816   2.169   5.462   4.826  0.6023  0.7881  0.2287
  755MOL0     C 1817   2.306   5.471   4.862  0.2823  0.1263  0.3195
  755MOL0     C 1818   2.393   5.374   4.799 -0.9357  0.1036  0.3117
  755MOL0     C 1819   2.541   5.370   4.853  0.3352  0.2553  0.3348
  755MOL0     O 1820   2.634   5.305   4.777  0.0280  0.1309  0.5617
  755MOL0     C 1821   2.755   5.270   4.827  0.5292 -0.1931 -0.2255
  755MOL0     C 1822   2.800   5.264   4.961  0.3341 -0.4229 -0.5084
  755MOL0     C 1823   2.935   5.236   4.996  0.0873 -0.2240  0.1084
  755MOL0     C 1824   3.023   5.209   4.894  0.1647  0.5348 -0.5833
  755MOL0     O 1825   3.150   5.189   4.937  0.9410 -0.7084 -0.8231
  755MOL0     C 1826   3.239   5.134   4.843  0.4229  0.4553  1.1827
  755MOL0     C 1827   3.365   5.080   4.917 -0.6641 -0.4908  0.1679
  755MOL0     C 1828   3.329   4.964   5.004 -0.4428 -0.3893 -1.3888
  755MOL0     C 1829   3.435   4.933   5.109  0.2183  0.0928 -0.6421
  755MOL0     C 1830   3.413   4.813   5.209  0.4271  0.2380 -0.0512
  755MOL0     C 1831   3.324   4.690   5.150 -0.0224 -0.6907 -0.1922
  755MOL0     C 1832   3.280   4.620   5.278 -0.5661  0.4908 -0.3340
  755MOL0     C 1833   3.203   4.485   5.247  0.2047  0.5019 -0.1924
  755MOL0    Cl 1834   3.022   4.505   5.235 -0.1056  0.3832 -0.0067
  755MOL0     C 1835   2.986   5.211   4.757  0.3790  0.0254  0.0450
  755MOL0     C 1836   2.850   5.234   4.732 -0.3051 -0.0307 -0.2360
  755MOL0     O 1837   2.568   5.442   4.947  0.6570 -0.6168  0.1492
  755MOL0     C 1838   2.354   5.278   4.705 -0.9649 -0.9911 -0.2016
  755MOL0     C 1839   2.218   5.274   4.673 -0.0992  0.2485 -0.4101
  755MOL0     N 1840   1.470   5.202   4.734 -0.1396  0.2701 -0.6385
  755MOL0     N 1841   1.408   5.233   4.846  0.4497 -0.1367 -0.0654
  755MOL0     C 1842   0.683   5.513   4.341  0.1114 -0.2117  0.5324
  755MOL0     C 1843   0.585   5.477   4.249 -0.3573 -0.7491 -0.0958
  755MOL0     C 1844   0.360   5.357   3.981 -0.0925  0.4358  0.3658
  755MOL0     C 1845   0.324   5.222   3.987  0.0896 -0.5402  0.2294
  755MOL0     C 1846   0.338   5.135   3.885  0.6114 -0.6722 -1.1978
  755MOL0     C 1847   0.403   5.171   3.769 -0.5332 -0.1502  0.2279
  755MOL0     O 1848   0.406   5.091   3.657 -0.0623  0.3009  0.8718
  755MOL0     C 1849   0.410   4.948   3.675 -0.7729 -0.1718  0.6289
  755MOL0     C 1850   0.429   4.869   3.550 -0.1363 -0.8200  0.1815
  755MOL0     C 1851   0.452   4.724   3.605  0.5880  0.2696  0.4978
  755MOL0     C 1852   0.421   4.617   3.497  0.6546 -0.4306  0.1636
  755MOL0     C 1853   0.487   4.654   3.376  0.0772 -0.4240  0.4216
  755MOL0     C 1854   0.538   4.694   3.273 -0.2739  0.2105 -0.2813
  755MOL0     C 1855   0.441   5.305   3.755 -0.3686 -1.4442 -0.0540
  755MOL0     C 1856   0.423   5.400   3.859  0.4154 -0.1074  0.6529
  755MOL0     C 1857   0.481   5.537   3.834  0.0918 -0.4479  0.5684
  755MOL0     H 1858   0.334   5.431   4.473  1.8118  0.3761  3.2612
  755MOL0     H 1859   0.514   5.486   4.619  2.9645  0.5339 -0.0439
  755MOL0     H 1860   0.759   5.744   4.504  0.3210 -1.1740 -0.6423
  755MOL0     H 1861   0.685   5.708   4.664  0.7589 -0.5367 -0.0627
  755MOL0     H 1862   0.896   5.824   4.676  0.4395 -0.6537  2.7363
  755MOL0     H 1863   0.971   5.670   4.612  0.7739  0.3522  0.6224
  755MOL0     H 1864   0.833   5.728   4.889 -0.5106  0.6851 -0.8661
  755MOL0     H 1865   1.001   5.688   4.850 -0.0177  0.4974 -0.5360
  755MOL0     H 1866   0.758   5.496   4.838  0.3206  3.7428  2.5331
  755MOL0     H 1867   0.901   5.464   4.749 -0.8278  2.1124 -1.5032
  755MOL0     H 1868   0.848   5.458   5.049  1.2537 -0.8086  1.5298
  755MOL0     H 1869   0.912   5.337   4.962 -0.6218  0.2337 -3.3577
  755MOL0     H 1870   1.061   5.588   5.040  0.3162  0.6816 -0.6180
  755MOL0     H 1871   1.078   5.431   5.101 -1.9795  0.8135  0.8523
  755MOL0     H 1872   1.146   5.530   4.816  2.3771 -2.8157 -2.8148
  755MOL0     H 1873   1.141   5.352   4.866  0.3559 -1.2388  2.5437
  755MOL0     H 1874   1.351   5.545   4.961 -4.0011  1.5824  0.2228
  755MOL0     H 1875   1.315   5.397   5.047  0.3433 -2.5751 -0.8355
  755MOL0     H 1876   1.468   5.536   4.724 -4.4469 -0.1561 -0.7105
  755MOL0     H 1877   1.567   5.250   4.488 -0.3832 -1.2323  1.8106
  755MOL0     H 1878   1.553   5.426   4.488 -0.3297 -1.3285 -1.5495
  755MOL0     H 1879   1.775   5.260   4.580  1.6634  1.0852  0.8784
  755MOL0     H 1880   1.788   5.398   4.475 -0.7979 -1.3929 -1.2221
  755MOL0     H 1881   1.720   5.422   4.768 -4.1678  0.8986 -2.0710
  755MOL0     H 1882   1.730   5.556   4.648  2.4777  1.4398 -0.3624
  755MOL0     H 1883   1.920   5.553   4.769 -1.6643 -2.0389  1.0429
  755MOL0     H 1884   1.939   5.549   4.597  0.4030  0.2002 -0.9661
  755MOL0     H 1885   2.104   5.537   4.868  1.1415  0.5670  1.5060
  755MOL0     H 1886   2.340   5.544   4.934 -1.5254  0.1431  1.2120
  755MOL0     H 1887   2.732   5.286   5.042  2.3464 -0.5362  1.2743
  755MOL0     H 1888   2.970   5.243   5.098 -2.2815  1.3457  0.8915
  755MOL0     H 1889   3.206   5.055   4.775 -0.5317  4.2587 -3.2011
  755MOL0     H 1890   3.272   5.220   4.784 -4.0849  0.2869 -2.1166
  755MOL0     H 1891   3.438   5.046   4.843  0.3853 -3.0056  2.2042
  755MOL0     H 1892   3.405   5.166   4.970  2.5273 -1.3579 -0.6119
  755MOL0     H 1893   3.242   4.995   5.063 -0.3526 -1.7191 -0.4911
  755MOL0     H 1894   3.316   4.868   4.952  0.8545 -2.0212  1.0687
  755MOL0     H 1895   3.473   5.017   5.167  3.1646 -1.0738 -0.6864
  755MOL0     H 1896   3.524   4.912   5.049  1.5609 -2.1800  1.8980
  755MOL0     H 1897   3.358   4.869   5.286  3.6253  1.3440  1.6249
  755MOL0     H 1898   3.505   4.788   5.263  2.1843  3.9217 -1.0069
  755MOL0     H 1899   3.233   4.724   5.100  0.5999 -1.7046 -2.0902
  755MOL0     H 1900   3.386   4.633   5.081  1.6755  0.0525  0.6409
  755MOL0     H 1901   3.221   4.689   5.339  0.7267 -1.0289  2.8230
  755MOL0     H 1902   3.373   4.589   5.326  0.6595 -1.6515 -3.6964
  755MOL0     H 1903   3.236   4.432   5.157  1.6364  0.3613  0.3768
  755MOL0     H 1904   3.216   4.419   5.333 -2.3100 -0.7486 -0.7088
  755MOL0     H 1905   3.048   5.190   4.671 -0.1227 -0.5168 -0.1900
  755MOL0     H 1906   2.814   5.220   4.630  2.5619  0.2163 -1.3628
  755MOL0     H 1907   2.414   5.207   4.649 -3.3655 -4.3654  1.2265
  755MOL0     H 1908   2.164   5.210   4.604 -0.8652  2.1164 -1.6243
  755MOL0     H 1909   0.785   5.544   4.320  1.3105 -2.8402  1.8485
  755MOL0     H 1910   0.610   5.482   4.143 -3.0511 -0.4362 -0.7858
  755MOL0     H 1911   0.279   5.183   4.077 -1.1888 -0.6428 -0.4321
  755MOL0     H 1912   0.307   5.034   3.912  1.5624 -0.7167 -0.2168
  755MOL0     H 1913   0.320   4.915   3.726 -1.7028  0.2024 -0.7268
  755MOL0     H 1914   0.497   4.930   3.740  2.7134  0.4653 -3.3939
  755MOL0     H 1915   0.517   4.906   3.496  0.7064 -0.7615  1.5578
  755MOL0     H 1916   0.345   4.876   3.480 -0.9155 -1.8045  0.9932
  755MOL0     H 1917   0.394   4.706   3.695 -1.9752 -0.5501 -1.2044
  755MOL0     H 1918   0.560   4.716   3.625  1.0471 -0.9244 -2.0527
  755MOL0     H 1919   0.457   4.520   3.532 -2.5663 -1.6260  0.4838
  755MOL0     H 1920   0.314   4.604   3.476  0.7142 -0.9454  0.1855
  755MOL0     H 1921   0.582   4.731   3.182 -0.9968  1.2602 -0.2216
  755MOL0     H 1922   0.487   5.330   3.659  2.8842  1.9713  2.0832
  755MOL0     H 1923   0.540   5.538   3.742 -0.3864 -0.5407  0.2547
  755MOL0     H 1924   0.400   5.610   3.821 -0.4609 -1.2994 -0.9787
  755MOL0     H 1925   0.544   5.580   3.913  3.0057  0.6106 -2.1442
  756MOL0     O 1926  10.708   3.220   9.348  0.0624  0.5012  0.4462
  756MOL0     C 1927  10.776   3.138   9.409 -0.4727 -0.4326 -0.8367
  756MOL0     O 1928  10.905   3.157   9.449  0.4814  0.2020 -0.0994
  756MOL0     C 1929  10.947   3.288   9.485 -0.0663 -0.2718  0.2040
  756MOL0     C 1930  10.885   3.414   9.443  0.0619  0.1510  0.3282
  756MOL0     C 1931  10.948   3.536   9.477  0.9429  0.6201  0.9439
  756MOL0     C 1932  11.059   3.540   9.560  0.4307  0.1428 -0.2451
  756MOL0     O 1933  11.115   3.652   9.619  0.6118 -0.6915 -0.2637
  756MOL0     C 1934  11.062   3.773   9.577  0.0870 -1.7698  0.0362
  756MOL0     C 1935  11.168   3.882   9.545 -0.3962  0.3328 -0.3138
  756MOL0     C 1936  11.091   4.016   9.506 -0.6661  0.3706 -0.6081
  756MOL0     C 1937  11.180   4.144   9.485  0.0433  0.7298 -0.1315
  756MOL0     C 1938  11.296   4.115   9.388  0.1841 -0.5034 -0.2646
  756MOL0     C 1939  11.391   4.233   9.351  0.0801  0.2794 -0.3021
  756MOL0     C 1940  11.441   4.308   9.475  0.1913 -0.2752 -0.4488
  756MOL0     C 1941  11.539   4.426   9.451 -0.2602  0.0986  0.0818
  756MOL0     N 1942  11.656   4.364   9.384 -0.3641  0.2045  0.0807
  756MOL0     C 1943  11.771   4.312   9.443 -0.4930  0.4380 -0.0834
  756MOL0     C 1944  11.862   4.279   9.352  0.1894 -0.8217 -0.7766
  756MOL0     C 1945  12.002   4.213   9.391  0.1501 -0.1016 -0.1436
  756MOL0     C 1946  12.115   4.312   9.393  0.3854 -0.5673 -0.1185
  756MOL0     C 1947  12.251   4.250   9.402  0.5947 -0.3108  0.0102
  756MOL0     C 1948  12.362   4.352   9.420  0.4081 -0.2730  0.7789
  756MOL0     O 1949  12.360   4.422   9.294 -0.5589 -0.5793  0.5347
  756MOL0     C 1950  12.452   4.527   9.286  0.7831 -0.3760  0.2614
  756MOL0     C 1951  12.430   4.629   9.187  0.0972  0.2529 -0.8762
  756MOL0     C 1952  12.522   4.732   9.169 -0.6501 -0.0086  0.5318
  756MOL0     C 1953  12.649   4.729   9.232 -0.4303  0.2019  0.0554
  756MOL0     C 1954  12.741   4.833   9.204 -0.0405 -0.8721 -0.3883
  756MOL0     O 1955  12.862   4.823   9.258 -0.3459  0.1900 -0.0181
  756MOL0     C 1956  12.960   4.921   9.245 -0.6036 -0.5456  0.6041
  756MOL0     C 1957  13.095   4.890   9.245  0.3501 -0.0066 -0.6064
  756MOL0     C 1958  13.194   4.980   9.248  0.1043 -0.0369 -0.2764
  756MOL0     C 1959  13.159   5.117   9.236 -0.2105  0.6688  0.1705
  756MOL0     O 1960  13.263   5.206   9.236 -0.5019  0.1504  0.4747
  756MOL0     C 1961  13.391   5.194   9.170  0.0785  1.1598  0.3442
  756MOL0     C 1962  13.387   5.216   9.015 -0.2414  0.0610  0.5713
  756MOL0     C 1963  13.528   5.182   8.946  1.4042  0.5519  0.2947
  756MOL0     C 1964  13.640   5.282   8.991  0.6477  0.9357  0.0026
  756MOL0     C 1965  13.776   5.222   8.946 -0.5784 -0.9698  0.0267
  756MOL0     C 1966  13.886   5.329   8.976  1.5450  0.6102  0.3740
  756MOL0     C 1967  14.029   5.281   8.952  1.0775 -0.1285  0.4358
  756MOL0     C 1968  14.135   5.382   8.996 -0.2577  0.5111 -0.6211
  756MOL0    Cl 1969  14.254   5.398   8.859 -0.0395 -0.0089 -0.2151
  756MOL0     C 1970  13.026   5.153   9.228 -0.7176 -0.4428 -0.9428
  756MOL0     C 1971  12.927   5.062   9.244 -0.1000 -0.2572  0.4689
  756MOL0     O 1972  12.697   4.933   9.151 -0.5281  0.8817  0.8212
  756MOL0     C 1973  12.684   4.624   9.313  0.3841  0.3813 -0.0110
  756MOL0     C 1974  12.578   4.529   9.352  0.0501  0.2175 -0.2068
  756MOL0     N 1975  11.807   4.322   9.231 -0.0427 -0.0840 -0.3154
  756MOL0     N 1976  11.686   4.373   9.251 -0.4899 -0.6272  0.2747
  756MOL0     C 1977  11.115   3.424   9.606 -0.4741  1.0510 -0.7362
  756MOL0     C 1978  11.067   3.303   9.564  0.7099  0.7550 -0.3248
  756MOL0     C 1979  10.721   2.996   9.439 -0.3965 -0.4200  0.2111
  756MOL0     C 1980  10.803   2.892   9.402 -0.7609  0.7692 -0.2745
  756MOL0     C 1981  10.758   2.763   9.438 -0.2370  0.6318 -0.7843
  756MOL0     C 1982  10.636   2.740   9.503  0.2733  0.3361  0.2757
  756MOL0     O 1983  10.599   2.610   9.520 -0.2956 -0.6530  0.0054
  756MOL0     C 1984  10.546   2.578   9.650  0.2526 -0.3173  0.5409
  756MOL0     C 1985  10.580   2.429   9.702  0.4713 -0.3514  0.2142
  756MOL0     C 1986  10.471   2.331   9.665  0.0963 -0.1089  1.4440
  756MOL0     C 1987  10.518   2.194   9.605 -0.2300 -0.1934 -0.6012
  756MOL0     C 1988  10.417   2.089   9.621 -0.8528 -1.3023  0.5682
  756MOL0     C 1989  10.341   1.998   9.635  0.4034 -0.1138 -0.1354
  756MOL0     C 1990  10.546   2.847   9.525 -0.2998  0.3286  0.5559
  756MOL0     C 1991  10.594   2.981   9.495  0.0744  0.8788  1.1480
  756MOL0     C 1992  10.512   3.095   9.548  0.0881  0.0259  0.9606
  756MOL0     H 1993  10.804   3.425   9.372  0.8762  0.1461 -0.6227
  756MOL0     H 1994  10.895   3.623   9.439 -0.0576 -0.2230  0.3520
  756MOL0     H 1995  11.005   3.769   9.484 -0.9900 -0.2739  0.5998
  756MOL0     H 1996  10.992   3.816   9.649 -0.3222  0.5638 -1.6329
  756MOL0     H 1997  11.230   3.837   9.466 -1.5075  0.0621 -1.0523
  756MOL0     H 1998  11.231   3.886   9.634 -1.5735  0.7335  0.5137
  756MOL0     H 1999  11.017   4.033   9.585  1.3876 -3.0757  2.3683
  756MOL0     H 2000  11.032   3.996   9.417 -0.6772 -0.2853 -0.4601
  756MOL0     H 2001  11.119   4.225   9.443 -0.9541  1.0356  1.7526
  756MOL0     H 2002  11.207   4.171   9.588 -1.2269  0.4524  0.2993
  756MOL0     H 2003  11.353   4.036   9.438  0.0946 -0.5723 -0.2689
  756MOL0     H 2004  11.235   4.082   9.303 -0.8245  2.4423 -0.7756
  756MOL0     H 2005  11.479   4.198   9.297  1.1051 -0.0181  1.4929
  756MOL0     H 2006  11.337   4.300   9.283 -0.5678 -0.6767 -0.7480
  756MOL0     H 2007  11.490   4.234   9.537  0.5358  0.0496 -0.3297
  756MOL0     H 2008  11.362   4.346   9.541  2.0459  0.0978  1.6806
  756MOL0     H 2009  11.494   4.506   9.393  0.2805  0.7519  0.5320
  756MOL0     H 2010  11.572   4.475   9.544  1.2755 -2.6370  1.0861
  756MOL0     H 2011  11.781   4.296   9.550  3.0170 -1.4919 -0.5538
  756MOL0     H 2012  11.998   4.175   9.494 -0.8550  1.1574  0.3049
  756MOL0     H 2013  12.031   4.130   9.326 -1.2920  0.0628 -1.0400
  756MOL0     H 2014  12.109   4.383   9.310  0.1771  0.0352  0.4011
  756MOL0     H 2015  12.101   4.373   9.482 -0.5913 -1.0078  0.0446
  756MOL0     H 2016  12.272   4.187   9.315  3.7438  1.8063 -0.9337
  756MOL0     H 2017  12.244   4.197   9.497 -0.7975 -0.9112 -0.3997
  756MOL0     H 2018  12.453   4.291   9.417 -0.7055 -1.9940 -1.6184
  756MOL0     H 2019  12.352   4.424   9.502  2.9627  1.8197 -0.6205
  756MOL0     H 2020  12.340   4.637   9.127 -1.1673 -1.2097  0.7030
  756MOL0     H 2021  12.502   4.815   9.103 -0.7163 -0.0507  0.4990
  756MOL0     H 2022  13.114   4.783   9.245 -1.0004 -0.2818  0.3807
  756MOL0     H 2023  13.298   4.951   9.261  0.9498  2.1113 -1.7143
  756MOL0     H 2024  13.456   5.270   9.214  1.5121 -0.6543  1.4973
  756MOL0     H 2025  13.438   5.099   9.195  0.0422  1.7236  2.8751
  756MOL0     H 2026  13.312   5.144   8.981  0.6434 -0.9926  0.8124
  756MOL0     H 2027  13.362   5.321   8.995 -2.6699 -0.7051 -0.8705
  756MOL0     H 2028  13.550   5.079   8.972 -0.1283  0.6679  2.3993
  756MOL0     H 2029  13.528   5.186   8.837  0.3402  0.4813  0.2751
  756MOL0     H 2030  13.635   5.292   9.100 -0.1850 -1.9038  0.3113
  756MOL0     H 2031  13.628   5.377   8.939 -0.6595  0.5673 -0.4038
  756MOL0     H 2032  13.771   5.188   8.842 -1.7183 -1.7869  0.3336
  756MOL0     H 2033  13.801   5.133   9.005 -0.5422 -1.0195 -0.0622
  756MOL0     H 2034  13.870   5.414   8.909 -0.7719  0.1697  0.2857
  756MOL0     H 2035  13.869   5.369   9.076 -2.0440  1.4841 -0.4306
  756MOL0     H 2036  14.045   5.249   8.849  1.7279  3.2707 -0.6348
  756MOL0     H 2037  14.034   5.195   9.020 -2.5638  0.9215  2.3114
  756MOL0     H 2038  14.097   5.483   9.014 -0.7949  0.3072 -0.5905
  756MOL0     H 2039  14.184   5.348   9.088  0.2630  1.3627 -0.5722
  756MOL0     H 2040  12.993   5.256   9.222 -0.2527 -0.2450 -0.1346
  756MOL0     H 2041  12.827   5.100   9.263  1.1547  4.5294 -0.9913
  756MOL0     H 2042  12.779   4.629   9.364  2.0341 -4.0164 -2.1782
  756MOL0     H 2043  12.588   4.461   9.437  0.1689  2.1380  1.3885
  756MOL0     H 2044  11.207   3.425   9.663  0.6234  0.9002 -2.4347
  756MOL0     H 2045  11.130   3.221   9.597  2.2669  1.7637 -0.7259
  756MOL0     H 2046  10.891   2.894   9.339 -3.2254  1.7234 -4.0460
  756MOL0     H 2047  10.818   2.680   9.401  0.2921  0.2203  0.8954
  756MOL0     H 2048  10.438   2.594   9.654  0.0174 -1.8610  1.1210
  756MOL0     H 2049  10.584   2.644   9.729 -2.1136 -0.0948  1.5903
  756MOL0     H 2050  10.569   2.431   9.811 -1.7126 -3.2928  0.1460
  756MOL0     H 2051  10.681   2.403   9.670  0.0061  1.8052 -3.6949
  756MOL0     H 2052  10.420   2.374   9.578 -1.9097 -0.0043  2.6155
  756MOL0     H 2053  10.410   2.316   9.754  1.8765 -2.5210  2.3598
  756MOL0     H 2054  10.554   2.197   9.501 -0.6888  1.1759 -0.7472
  756MOL0     H 2055  10.599   2.167   9.673 -1.6143  0.6468  1.4976
  756MOL0     H 2056  10.289   1.906   9.650  0.7785 -0.7656 -2.4870
  756MOL0     H 2057  10.452   2.833   9.578 -0.1853 -1.0463  0.4243
  756MOL0     H 2058  10.567   3.138   9.633  5.0228 -0.3425 -1.6872
  756MOL0     H 2059  10.499   3.169   9.469  1.2060  0.7903  1.4694
  756MOL0     H 2060  10.411   3.061   9.575  0.4655 -1.0407  1.0978
  757MOL0     O 2061   7.672   8.201  11.346  0.7870  0.2141 -0.2240
  757MOL0     C 2062   7.600   8.144  11.263  0.1123  0.4974 -0.0070
  757MOL0     O 2063   7.648   8.057  11.168  0.4274 -0.1360  0.2939
  757MOL0     C 2064   7.787   8.033  11.161  0.4496  0.3916 -1.1537
  757MOL0     C 2065   7.868   8.093  11.067  0.0435 -0.5460  0.4557
  757MOL0     C 2066   8.003   8.064  11.052 -0.7373 -0.9908 -0.2224
  757MOL0     C 2067   8.065   7.969  11.134  0.3447  0.6755 -0.2360
  757MOL0     O 2068   8.193   7.931  11.107 -0.3990 -0.5762 -0.0292
  757MOL0     C 2069   8.280   7.920  11.221 -0.7051  0.9757  1.2842
  757MOL0     C 2070   8.385   7.813  11.192 -0.2895  0.2917  0.4360
  757MOL0     C 2071   8.456   7.769  11.323 -0.9246  0.1155  0.0841
  757MOL0     C 2072   8.602   7.710  11.307  0.4815 -0.2494 -0.2834
  757MOL0     C 2073   8.668   7.663  11.436  0.6551 -0.7146  0.1891
  757MOL0     C 2074   8.644   7.513  11.478  0.4588  0.5317  1.2094
  757MOL0     C 2075   8.677   7.403  11.367  0.7480 -0.4654 -0.4430
  757MOL0     C 2076   8.668   7.249  11.419  0.1521 -0.2541  0.7614
  757MOL0     N 2077   8.779   7.227  11.513  0.1883 -0.3756  0.1591
  757MOL0     C 2078   8.904   7.197  11.480  0.3576  0.5840 -0.4053
  757MOL0     C 2079   8.966   7.183  11.600 -0.1903 -0.5526  0.2056
  757MOL0     C 2080   9.110   7.139  11.623  0.1570  0.8739 -0.7778
  757MOL0     C 2081   9.205   7.244  11.570  0.4469  0.6497  0.4571
  757MOL0     C 2082   9.340   7.171  11.554  0.6784  1.0574 -0.2634
  757MOL0     C 2083   9.446   7.269  11.494  0.0129 -0.2568  0.6051
  757MOL0     O 2084   9.430   7.290  11.358 -0.1470  0.5603  0.2820
  757MOL0     C 2085   9.544   7.326  11.282  0.0755  0.6986 -0.5992
  757MOL0     C 2086   9.537   7.322  11.148 -1.0016 -0.6764 -0.0532
  757MOL0     C 2087   9.647   7.367  11.073  0.2956  0.4530  0.0644
  757MOL0     C 2088   9.762   7.420  11.121  0.4745  0.5220 -0.8146
  757MOL0     C 2089   9.882   7.455  11.046 -0.2399 -0.2022  0.2653
  757MOL0     O 2090   9.999   7.488  11.110  0.3556  0.3749  0.1845
  757MOL0     C 2091  10.115   7.498  11.036 -0.9772 -0.1925 -0.9884
  757MOL0     C 2092  10.123   7.587  10.932  0.4110 -0.1122 -0.2390
  757MOL0     C 2093  10.253   7.607  10.878  0.5700  0.0058 -0.5282
  757MOL0     C 2094  10.369   7.550  10.929 -0.3599 -0.3721 -0.1092
  757MOL0     O 2095  10.492   7.572  10.872 -0.6709 -0.2150 -0.0565
  757MOL0     C 2096  10.601   7.575  10.967  0.0537  0.2931  0.4548
  757MOL0     C 2097  10.719   7.665  10.909  0.4481 -0.3578  0.0583
  757MOL0     C 2098  10.806   7.603  10.798  0.0700 -0.1092 -0.0250
  757MOL0     C 2099  10.881   7.707  10.719  0.5290 -0.1053  0.1980
  757MOL0     C 2100  10.969   7.799  10.814 -1.0975  0.2484  0.1140
  757MOL0     C 2101  11.053   7.881  10.712 -0.3802  0.8645  0.4961
  757MOL0     C 2102  11.152   7.953  10.801 -0.6332 -0.3617  0.5185
  757MOL0     C 2103  11.137   8.102  10.792 -0.1118 -0.1155 -0.3287
  757MOL0    Cl 2104  10.975   8.166  10.798  0.2932 -0.0394  0.1296
  757MOL0     C 2105  10.357   7.466  11.038  0.4925 -0.7219  0.3876
  757MOL0     C 2106  10.237   7.445  11.098 -0.3196 -0.7046  0.1136
  757MOL0     O 2107   9.866   7.446  10.921 -0.4495 -0.3885 -0.1516
  757MOL0     C 2108   9.762   7.448  11.260  0.7356 -0.7319 -0.0832
  757MOL0     C 2109   9.652   7.397  11.342  0.6422  0.1189 -0.2519
  757MOL0     N 2110   8.883   7.220  11.706 -0.4689  0.7546  0.6547
  757MOL0     N 2111   8.770   7.245  11.644  0.1737  0.7589 -0.5196
  757MOL0     C 2112   7.985   7.908  11.235  0.6611  0.7260 -0.0017
  757MOL0     C 2113   7.850   7.934  11.242  0.0864  0.4436 -0.0205
  757MOL0     C 2114   7.454   8.166  11.247  0.1375  0.0519  0.3501
  757MOL0     C 2115   7.395   8.181  11.120 -0.1625 -0.5127  0.1610
  757MOL0     C 2116   7.257   8.220  11.114 -0.7484 -0.1546  0.5327
  757MOL0     C 2117   7.175   8.235  11.222 -0.2454 -0.2540  0.7913
  757MOL0     O 2118   7.040   8.268  11.220 -0.0754  0.4445  0.1419
  757MOL0     C 2119   6.968   8.283  11.099  0.1198 -0.2591 -0.2489
  757MOL0     C 2120   6.870   8.167  11.069  0.7098  0.1923  0.9937
  757MOL0     C 2121   6.751   8.179  11.154  0.1899 -0.8026  1.4605
  757MOL0     C 2122   6.770   8.139  11.292 -0.0292  0.6213 -0.1117
  757MOL0     C 2123   6.636   8.138  11.351 -0.3473 -1.3444  0.4409
  757MOL0     C 2124   6.533   8.142  11.413 -0.0020  0.2994 -0.3210
  757MOL0     C 2125   7.226   8.211  11.349 -0.8274  0.1825  0.4315
  757MOL0     C 2126   7.367   8.174  11.361 -0.5854  0.1619  0.6936
  757MOL0     C 2127   7.425   8.157  11.500  0.1801 -1.2109 -0.2784
  757MOL0     H 2128   7.809   8.161  11.006  1.2631 -0.9470 -1.2497
  757MOL0     H 2129   8.066   8.119  10.983  0.8703 -0.9453  1.2058
  757MOL0     H 2130   8.328   8.016  11.242  1.4096  0.2370  0.1044
  757MOL0     H 2131   8.226   7.889  11.311 -0.0687 -0.4465  1.1970
  757MOL0     H 2132   8.448   7.853  11.112 -2.1308 -0.1104 -1.2973
  757MOL0     H 2133   8.352   7.717  11.151  0.8862  0.3563 -0.7694
  757MOL0     H 2134   8.387   7.705  11.377 -0.3600  1.0703  2.0400
  757MOL0     H 2135   8.465   7.854  11.392  1.0603  0.1933 -0.2046
  757MOL0     H 2136   8.607   7.628  11.235  1.2593  1.4800 -2.2974
  757MOL0     H 2137   8.670   7.779  11.257  2.2830 -2.3021 -0.8295
  757MOL0     H 2138   8.775   7.685  11.432  0.4955  0.2462  0.8397
  757MOL0     H 2139   8.631   7.724  11.519  0.6690  0.2457 -0.4929
  757MOL0     H 2140   8.702   7.482  11.566 -1.2139 -0.4128  2.0352
  757MOL0     H 2141   8.544   7.510  11.523 -0.1954  0.1494 -0.2230
  757MOL0     H 2142   8.767   7.417  11.307 -0.1998  2.6622 -1.3467
  757MOL0     H 2143   8.602   7.423  11.290  1.4953  2.4484 -0.5312
  757MOL0     H 2144   8.573   7.228  11.469 -0.9985  0.3024 -1.1011
  757MOL0     H 2145   8.676   7.191  11.327 -0.0585  0.5080  0.2552
  757MOL0     H 2146   8.939   7.190  11.377  1.7821  2.1663 -0.0814
  757MOL0     H 2147   9.130   7.134  11.731 -0.1990 -0.3556 -0.7577
  757MOL0     H 2148   9.132   7.043  11.575 -0.7655  0.1670  0.1752
  757MOL0     H 2149   9.175   7.289  11.476  3.5105  0.7375 -0.5987
  757MOL0     H 2150   9.219   7.329  11.637 -0.1266  2.8114 -2.0548
  757MOL0     H 2151   9.324   7.089  11.482  0.7144  1.2909 -0.5381
  757MOL0     H 2152   9.376   7.133  11.650 -0.0495  0.3117 -0.2733
  757MOL0     H 2153   9.548   7.231  11.509 -0.3545 -0.9870  1.3575
  757MOL0     H 2154   9.460   7.362  11.550 -2.3138  0.4221  0.1633
  757MOL0     H 2155   9.452   7.287  11.090 -0.9149 -1.5298  0.3183
  757MOL0     H 2156   9.633   7.345  10.968 -0.5364  0.1780  0.2235
  757MOL0     H 2157  10.030   7.635  10.904 -1.0714 -0.6417  3.2356
  757MOL0     H 2158  10.269   7.669  10.791 -0.6353 -0.6462 -1.2348
  757MOL0     H 2159  10.569   7.618  11.062  1.2785  0.3895  0.8389
  757MOL0     H 2160  10.632   7.472  10.983 -3.6162 -1.0538 -0.0116
  757MOL0     H 2161  10.675   7.762  10.882  0.2254  0.8328  4.0235
  757MOL0     H 2162  10.789   7.683  10.991  0.4931 -0.2749  0.0014
  757MOL0     H 2163  10.885   7.553  10.853  1.6148  2.6832  0.4956
  757MOL0     H 2164  10.747   7.535  10.736  1.8977 -1.3937 -0.4126
  757MOL0     H 2165  10.813   7.769  10.659  0.8915 -0.6302 -0.7888
  757MOL0     H 2166  10.946   7.645  10.656 -0.6113 -1.9876  0.7905
  757MOL0     H 2167  11.037   7.739  10.875  0.4834  2.6074  0.8243
  757MOL0     H 2168  10.904   7.860  10.876 -1.3340  0.3183 -0.1992
  757MOL0     H 2169  11.105   7.810  10.647  0.3586 -0.1120  2.0821
  757MOL0     H 2170  10.994   7.949  10.651  0.1575 -0.9319 -2.1974
  757MOL0     H 2171  11.250   7.926  10.760 -0.3815  0.2221  0.7272
  757MOL0     H 2172  11.144   7.931  10.907  3.1181 -0.5515  0.8724
  757MOL0     H 2173  11.202   8.158  10.860  0.8653  1.1142 -2.2110
  757MOL0     H 2174  11.170   8.134  10.693 -2.3230 -1.0536 -1.4502
  757MOL0     H 2175  10.435   7.403  11.079 -1.2185 -3.4450 -0.3283
  757MOL0     H 2176  10.224   7.372  11.177  1.8047 -0.5418  0.6708
  757MOL0     H 2177   9.840   7.501  11.313  1.1843  1.3138 -2.5892
  757MOL0     H 2178   9.642   7.421  11.447 -2.7006  2.6420 -0.9789
  757MOL0     H 2179   8.022   7.822  11.290 -1.4059 -1.0427 -1.2191
  757MOL0     H 2180   7.783   7.876  11.305 -2.5994  0.9130 -2.2617
  757MOL0     H 2181   7.454   8.186  11.029  2.9509  2.3454  2.1240
  757MOL0     H 2182   7.236   8.242  11.010  1.6387  2.9100  0.5712
  757MOL0     H 2183   7.027   8.303  11.009  1.1689  2.5405  0.9583
  757MOL0     H 2184   6.906   8.373  11.110 -0.0009 -0.1550 -1.6313
  757MOL0     H 2185   6.929   8.077  11.085 -0.4690 -0.8527 -0.3321
  757MOL0     H 2186   6.850   8.169  10.962 -0.5148  0.8106  1.2068
  757MOL0     H 2187   6.673   8.129  11.096  1.0731  1.9233 -2.5008
  757MOL0     H 2188   6.714   8.282  11.148 -0.9421 -1.2810 -1.1545
  757MOL0     H 2189   6.813   8.038  11.296  0.4598  0.8354  0.2776
  757MOL0     H 2190   6.837   8.209  11.344 -0.8953  0.5868  1.1065
  757MOL0     H 2191   6.449   8.146  11.479 -0.6522 -0.1564 -1.1099
  757MOL0     H 2192   7.171   8.214  11.442  0.7830 -0.2255  1.4293
  757MOL0     H 2193   7.482   8.243  11.535  1.0518 -1.8074 -0.1970
  757MOL0     H 2194   7.348   8.135  11.575 -0.5074 -0.8255 -0.8488
  757MOL0     H 2195   7.500   8.078  11.507 -0.4678 -1.7350  1.1170
  758MOL0     O 2196   5.604   0.230   1.555 -0.1788  0.3877 -0.7135
  758MOL0     C 2197   5.697   0.256   1.637  0.2012 -0.0668  0.1264
  758MOL0     O 2198   5.688   0.349   1.731  0.1962  0.2762  0.0556
  758MOL0     C 2199   5.568   0.388   1.776  0.2506 -0.3140  0.1423
  758MOL0     C 2200   5.439   0.328   1.765 -0.1008 -0.0768 -0.5261
  758MOL0     C 2201   5.327   0.388   1.814  0.5736 -0.4097 -0.0688
  758MOL0     C 2202   5.328   0.504   1.891  0.3782 -0.1800 -0.2552
  758MOL0     O 2203   5.203   0.563   1.921  0.5518 -0.1586 -0.0642
  758MOL0     C 2204   5.207   0.682   2.009 -0.4026 -1.0240 -1.1381
  758MOL0     C 2205   5.083   0.758   2.020  0.5542 -0.4685  1.1914
  758MOL0     C 2206   4.978   0.677   2.095 -0.1102  0.3806  0.2256
  758MOL0     C 2207   4.848   0.752   2.087 -0.2438  0.0952  0.1187
  758MOL0     C 2208   4.734   0.707   2.168  0.8045 -0.0435 -0.1099
  758MOL0     C 2209   4.620   0.812   2.148 -0.2234 -0.3911 -0.1136
  758MOL0     C 2210   4.499   0.779   2.235 -0.1341 -0.0647 -0.5924
  758MOL0     C 2211   4.484   0.633   2.282 -0.3250 -0.6153  0.0258
  758MOL0     N 2212   4.371   0.628   2.378  0.2377  0.5669 -1.1124
  758MOL0     C 2213   4.241   0.628   2.348  0.9585  0.2027  0.3317
  758MOL0     C 2214   4.168   0.609   2.459 -0.1787  0.8524  0.0794
  758MOL0     C 2215   4.031   0.568   2.495 -0.6610 -0.2237 -0.0215
  758MOL0     C 2216   3.944   0.685   2.467  0.3925 -0.3409  0.5009
  758MOL0     C 2217   3.790   0.645   2.488  0.0497 -0.8493  0.3996
  758MOL0     C 2218   3.747   0.598   2.631  0.6802  0.2669  0.8073
  758MOL0     O 2219   3.772   0.712   2.719 -0.2240  0.9432  0.5182
  758MOL0     C 2220   3.707   0.719   2.839  0.2541  0.0141 -0.4848
  758MOL0     C 2221   3.630   0.621   2.900  0.4060  0.1675 -0.2359
  758MOL0     C 2222   3.578   0.636   3.038 -0.0790  0.4933  0.5720
  758MOL0     C 2223   3.609   0.749   3.112  0.9881  0.0183  0.2821
  758MOL0     C 2224   3.580   0.772   3.246 -0.4665 -0.7370 -0.3827
  758MOL0     O 2225   3.590   0.902   3.297 -0.0185 -0.2453  0.0414
  758MOL0     C 2226   3.566   0.942   3.432  0.1661  0.3177  0.5864
  758MOL0     C 2227   3.494   0.870   3.520 -0.1126 -0.8107  0.3162
  758MOL0     C 2228   3.476   0.912   3.658 -0.2718 -0.1704  0.2518
  758MOL0     C 2229   3.528   1.037   3.695 -0.4624 -0.5650 -0.4179
  758MOL0     O 2230   3.543   1.072   3.827  0.0543 -0.0462  0.7816
  758MOL0     C 2231   3.479   1.002   3.935  0.4468 -1.2772  0.7903
  758MOL0     C 2232   3.522   1.069   4.073 -0.5396  0.7480 -0.9035
  758MOL0     C 2233   3.673   1.032   4.100 -0.9395 -0.3549 -0.6849
  758MOL0     C 2234   3.723   1.104   4.232 -0.5503  0.1587 -0.0179
  758MOL0     C 2235   3.870   1.129   4.227 -0.1571 -0.3062  0.6537
  758MOL0     C 2236   3.908   1.205   4.354  0.3710  0.4255  0.2509
  758MOL0     C 2237   4.052   1.259   4.342 -0.4792  0.4539  0.9410
  758MOL0     C 2238   4.097   1.327   4.476 -0.4055 -0.9295  0.0511
  758MOL0    Cl 2239   4.088   1.515   4.472  0.6857 -0.3416 -0.2017
  758MOL0     C 2240   3.604   1.109   3.606 -0.1879  0.3027 -0.4247
  758MOL0     C 2241   3.623   1.059   3.478 -0.2388  0.2584 -0.8138
  758MOL0     O 2242   3.560   0.676   3.316  0.0307  0.6370 -0.3912
  758MOL0     C 2243   3.673   0.853   3.041  0.1124 -0.4062  0.1646
  758MOL0     C 2244   3.724   0.836   2.911 -0.3566 -0.4817 -0.0083
  758MOL0     N 2245   4.265   0.629   2.567 -0.4365  0.3174 -0.0639
  758MOL0     N 2246   4.381   0.630   2.512 -0.3523 -0.6733  0.5488
  758MOL0     C 2247   5.449   0.561   1.906 -1.3470 -0.2892 -0.2742
  758MOL0     C 2248   5.571   0.505   1.849 -0.0526 -0.0780 -1.1473
  758MOL0     C 2249   5.812   0.175   1.639 -1.2133  0.0036  0.9021
  758MOL0     C 2250   5.871   0.145   1.763  0.0813  0.2994  0.2796
  758MOL0     C 2251   5.966   0.039   1.774 -0.0189 -0.1073 -0.4747
  758MOL0     C 2252   6.007  -0.030   1.667  0.8305  0.0586  0.0184
  758MOL0     O 2253   6.095  -0.133   1.691 -0.7706 -0.1262 -0.5424
  758MOL0     C 2254   6.152  -0.217   1.589  0.0615 -0.7189 -0.2596
  758MOL0     C 2255   6.245  -0.320   1.635 -0.0779 -0.5275  0.0051
  758MOL0     C 2256   6.366  -0.349   1.541 -0.0638  0.6107 -0.8507
  758MOL0     C 2257   6.407  -0.493   1.535  0.5490  0.5632 -0.0279
  758MOL0     C 2258   6.555  -0.501   1.537  0.3891  0.4831 -0.7487
  758MOL0     C 2259   6.677  -0.511   1.541  0.3819 -0.6860 -0.1933
  758MOL0     C 2260   5.953  -0.005   1.542 -0.4371  0.4290  0.1598
  758MOL0     C 2261   5.861   0.102   1.522  0.4314  0.0700  0.1072
  758MOL0     C 2262   5.820   0.120   1.379  0.2529  0.0366  0.3218
  758MOL0     H 2263   5.427   0.237   1.707 -2.3083  0.3017 -0.7706
  758MOL0     H 2264   5.230   0.339   1.808 -0.4996  1.6667 -0.2763
  758MOL0     H 2265   5.234   0.650   2.110 -1.1380 -0.5907 -0.7968
  758MOL0     H 2266   5.280   0.758   1.978 -1.1063 -0.2747 -0.9977
  758MOL0     H 2267   5.041   0.778   1.922  1.2735 -0.1587  0.9395
  758MOL0     H 2268   5.102   0.858   2.060 -0.5122  0.0465  0.4339
  758MOL0     H 2269   5.012   0.656   2.197  0.9539 -0.3648 -0.2688
  758MOL0     H 2270   4.966   0.579   2.048 -1.0902 -0.5447  2.2971
  758MOL0     H 2271   4.877   0.857   2.105  3.3945 -0.1927 -2.7724
  758MOL0     H 2272   4.823   0.726   1.984  0.5124 -1.8088  0.3877
  758MOL0     H 2273   4.706   0.609   2.128 -0.1611  0.1963 -0.0259
  758MOL0     H 2274   4.765   0.710   2.273 -0.4449  4.7120  0.3411
  758MOL0     H 2275   4.648   0.914   2.177  0.4709 -0.6331  0.0847
  758MOL0     H 2276   4.603   0.804   2.041  4.1802  0.4671 -1.0885
  758MOL0     H 2277   4.405   0.809   2.188 -0.6544  1.0348  1.0788
  758MOL0     H 2278   4.509   0.848   2.319  1.2215  0.3496 -1.0720
  758MOL0     H 2279   4.472   0.566   2.197  1.8759 -4.0263  2.1579
  758MOL0     H 2280   4.569   0.586   2.332 -2.0057 -3.3808  0.4805
  758MOL0     H 2281   4.197   0.633   2.249  1.8289  0.9632 -0.0252
  758MOL0     H 2282   4.004   0.487   2.426  1.2006 -0.7422 -0.1848
  758MOL0     H 2283   4.025   0.549   2.602  0.3708  2.2273  0.5413
  758MOL0     H 2284   3.963   0.768   2.535  0.2362 -0.4733  0.7106
  758MOL0     H 2285   3.958   0.718   2.364 -0.3609  0.4447  0.6401
  758MOL0     H 2286   3.773   0.566   2.414 -0.0020  0.8738 -1.5214
  758MOL0     H 2287   3.739   0.739   2.463 -2.6867 -2.9943 -3.1333
  758MOL0     H 2288   3.800   0.504   2.650  0.2572 -0.3079 -0.7060
  758MOL0     H 2289   3.638   0.589   2.627  0.3980  3.2581 -1.2616
  758MOL0     H 2290   3.623   0.529   2.842  0.3318  0.7558 -1.1844
  758MOL0     H 2291   3.524   0.553   3.081 -1.2779  0.6794 -0.4939
  758MOL0     H 2292   3.446   0.776   3.494 -1.7743  0.4703 -1.6481
  758MOL0     H 2293   3.420   0.851   3.729 -1.9715 -0.5314 -1.3188
  758MOL0     H 2294   3.372   1.014   3.915  0.1015 -1.8498  2.1231
  758MOL0     H 2295   3.500   0.896   3.951 -0.3877 -1.2504  2.2632
  758MOL0     H 2296   3.498   1.174   4.087 -1.4045  0.5741 -1.0237
  758MOL0     H 2297   3.453   1.024   4.145  2.0376 -0.2869  1.0626
  758MOL0     H 2298   3.698   0.925   4.106  1.1526  0.1783  2.6144
  758MOL0     H 2299   3.722   1.074   4.012 -1.5848 -0.5854 -1.1705
  758MOL0     H 2300   3.691   1.037   4.312  0.1358  0.2272  0.3141
  758MOL0     H 2301   3.677   1.203   4.244 -0.7168  0.0712  0.0721
  758MOL0     H 2302   3.878   1.193   4.139  1.0271 -1.7453 -0.3073
  758MOL0     H 2303   3.924   1.035   4.215  1.3369  0.0458  3.5621
  758MOL0     H 2304   3.837   1.287   4.369 -0.6117 -0.6353  1.9044
  758MOL0     H 2305   3.898   1.140   4.442 -1.0082 -0.7287 -0.6950
  758MOL0     H 2306   4.070   1.324   4.255 -1.9959  1.3366  1.2504
  758MOL0     H 2307   4.116   1.172   4.325 -1.5316  0.0771 -1.6138
  758MOL0     H 2308   4.039   1.279   4.556 -0.6605 -3.9440 -1.7893
  758MOL0     H 2309   4.205   1.311   4.485  0.0344  1.4721 -0.0810
  758MOL0     H 2310   3.650   1.201   3.638  0.6716  0.5035 -2.1376
  758MOL0     H 2311   3.690   1.113   3.413  1.6578 -0.2283  0.6480
  758MOL0     H 2312   3.698   0.943   3.096  0.4681 -1.4729  1.8132
  758MOL0     H 2313   3.773   0.911   2.850 -1.8142  1.2318  0.8296
  758MOL0     H 2314   5.460   0.645   1.973  1.8400 -2.6266  2.5110
  758MOL0     H 2315   5.664   0.560   1.861 -1.1627  1.7513 -0.3521
  758MOL0     H 2316   5.830   0.190   1.854  0.7536 -1.4902  1.5252
  758MOL0     H 2317   5.998   0.009   1.873 -1.9049  2.0663  0.8930
  758MOL0     H 2318   6.216  -0.146   1.537 -0.7256  0.5009  0.3678
  758MOL0     H 2319   6.079  -0.255   1.517  1.5655 -0.2492 -2.1067
  758MOL0     H 2320   6.184  -0.409   1.652 -2.3375  1.4868  3.7868
  758MOL0     H 2321   6.285  -0.274   1.726  0.0069  2.5126 -1.4546
  758MOL0     H 2322   6.447  -0.288   1.583  0.0505  1.0339 -1.6812
  758MOL0     H 2323   6.351  -0.298   1.446 -2.6390  2.6383  0.5203
  758MOL0     H 2324   6.370  -0.545   1.624  0.1300 -0.1727 -0.6186
  758MOL0     H 2325   6.346  -0.546   1.460  0.0785 -1.7475  1.8872
  758MOL0     H 2326   6.783  -0.529   1.543  0.2248 -1.7991 -0.9919
  758MOL0     H 2327   5.985  -0.058   1.453 -1.7185  1.3957 -0.9322
  758MOL0     H 2328   5.731   0.062   1.352 -0.6618  0.8612  1.4460
  758MOL0     H 2329   5.794   0.224   1.358  1.1808 -0.0048 -1.0675
  758MOL0     H 2330   5.905   0.106   1.313  0.1868  0.0426  0.2352
  759MOL0     O 2331   7.677   7.511   8.449  0.8595 -0.5016 -0.5301
  759MOL0     C 2332   7.761   7.422   8.419  0.8527  0.3436 -0.2319
  759MOL0     O 2333   7.732   7.313   8.345 -0.1627  0.9992  0.5597
  759MOL0     C 2334   7.610   7.316   8.288 -0.1518  0.8886  0.0729
  759MOL0     C 2335   7.492   7.238   8.333 -1.0414  0.4143 -0.3120
  759MOL0     C 2336   7.366   7.242   8.272 -0.4472 -0.5018 -0.1802
  759MOL0     C 2337   7.350   7.333   8.164 -0.2078 -0.5515 -0.5149
  759MOL0     O 2338   7.236   7.349   8.096  0.4041  0.3766 -0.5085
  759MOL0     C 2339   7.111   7.281   8.146 -1.2226 -0.3631 -0.0778
  759MOL0     C 2340   7.000   7.323   8.061 -0.7990 -0.6467 -0.9601
  759MOL0     C 2341   6.874   7.251   8.100  0.8350  0.0887  0.0847
  759MOL0     C 2342   6.772   7.245   7.987 -0.3279 -0.5748  0.3210
  759MOL0     C 2343   6.647   7.163   8.017  0.6926  1.2124 -0.5571
  759MOL0     C 2344   6.544   7.222   8.122 -1.0180 -1.0579 -0.1447
  759MOL0     C 2345   6.486   7.352   8.068 -0.1752 -0.1732  0.5488
  759MOL0     C 2346   6.399   7.413   8.175  0.3918  0.7969 -0.8121
  759MOL0     N 2347   6.256   7.406   8.140 -0.6293 -0.1741 -0.2785
  759MOL0     C 2348   6.203   7.456   8.027  0.1798 -0.0378  0.4949
  759MOL0     C 2349   6.064   7.427   8.047 -0.7805 -0.8017  0.0117
  759MOL0     C 2350   5.956   7.470   7.956 -0.5923  0.1257 -0.6100
  759MOL0     C 2351   5.908   7.344   7.893 -0.1350 -0.4278  0.5970
  759MOL0     C 2352   5.758   7.343   7.932 -0.3477 -0.0722 -0.2918
  759MOL0     C 2353   5.666   7.249   7.852 -0.4284 -0.6298  0.3034
  759MOL0     O 2354   5.640   7.293   7.723  0.0672  0.0415  0.3457
  759MOL0     C 2355   5.541   7.379   7.691  0.6552 -0.0241 -0.3692
  759MOL0     C 2356   5.500   7.401   7.555  0.3044  0.6981  0.9841
  759MOL0     C 2357   5.422   7.507   7.520 -0.0342 -0.6662  0.2101
  759MOL0     C 2358   5.357   7.583   7.620 -0.5823 -0.6068  0.2208
  759MOL0     C 2359   5.270   7.681   7.578  0.5670 -0.4294 -0.5327
  759MOL0     O 2360   5.294   7.732   7.449  0.6115 -0.5586  0.2875
  759MOL0     C 2361   5.235   7.854   7.424 -0.5229  0.5860 -0.5466
  759MOL0     C 2362   5.234   7.965   7.512 -0.0682  0.2027 -0.5635
  759MOL0     C 2363   5.151   8.083   7.482 -0.3723  0.2057  0.2945
  759MOL0     C 2364   5.079   8.087   7.362 -0.2562 -0.2523 -0.6423
  759MOL0     O 2365   5.020   8.199   7.312  0.3063  0.0703 -0.9300
  759MOL0     C 2366   4.984   8.299   7.393  0.0082  0.1269 -0.4888
  759MOL0     C 2367   4.902   8.406   7.299 -0.8211  0.3921 -0.5413
  759MOL0     C 2368   4.986   8.428   7.169 -0.3425  0.6674  0.0406
  759MOL0     C 2369   4.942   8.553   7.088 -0.0177 -0.0978  0.3408
  759MOL0     C 2370   5.033   8.561   6.957 -0.2571 -0.1252  0.3699
  759MOL0     C 2371   4.994   8.451   6.860  0.3881  0.1086 -0.0642
  759MOL0     C 2372   5.044   8.478   6.718  0.2946 -0.0125 -0.1795
  759MOL0     C 2373   5.196   8.493   6.703  0.4078 -0.5258  0.4334
  759MOL0    Cl 2374   5.305   8.354   6.735  0.6540  0.4266 -0.5150
  759MOL0     C 2375   5.091   7.976   7.279  0.5823 -0.0446  0.2973
  759MOL0     C 2376   5.178   7.870   7.303 -0.2218 -0.5092  0.9177
  759MOL0     O 2377   5.178   7.701   7.661  1.1533  0.4358  0.1913
  759MOL0     C 2378   5.390   7.554   7.749 -0.6542  0.5631 -0.7119
  759MOL0     C 2379   5.466   7.455   7.785 -0.5144  0.1326 -0.1529
  759MOL0     N 2380   6.054   7.360   8.165  0.7104  0.6844 -0.3472
  759MOL0     N 2381   6.172   7.330   8.212  1.1669  0.1768  0.5170
  759MOL0     C 2382   7.457   7.417   8.125  0.4211  0.9781 -0.6997
  759MOL0     C 2383   7.583   7.406   8.189  0.1415 -0.2898  0.3494
  759MOL0     C 2384   7.900   7.443   8.466  1.1882  0.3728 -0.5734
  759MOL0     C 2385   7.966   7.566   8.429 -0.0327  0.1866  0.1152
  759MOL0     C 2386   8.088   7.597   8.497  0.5238 -0.6089 -0.1856
  759MOL0     C 2387   8.153   7.500   8.577  0.0587  0.5842 -0.2442
  759MOL0     O 2388   8.273   7.540   8.624 -0.0635  0.4463  0.2745
  759MOL0     C 2389   8.348   7.451   8.709 -1.0250  0.3486 -0.1289
  759MOL0     C 2390   8.434   7.352   8.632  0.4817  0.6547  0.1850
  759MOL0     C 2391   8.515   7.272   8.730 -0.5708 -0.2638 -1.1197
  759MOL0     C 2392   8.623   7.191   8.670 -0.0295 -0.2494 -0.1257
  759MOL0     C 2393   8.670   7.092   8.768  0.1826 -0.1174 -0.0490
  759MOL0     C 2394   8.688   7.017   8.859 -0.3102 -0.8992 -0.2377
  759MOL0     C 2395   8.083   7.380   8.605 -0.0724 -0.9309 -0.2184
  759MOL0     C 2396   7.954   7.356   8.561  0.0695 -0.7347 -0.3811
  759MOL0     C 2397   7.880   7.236   8.603 -0.1295  0.4176 -0.4672
  759MOL0     H 2398   7.526   7.177   8.416  1.7772  3.5476  1.0404
  759MOL0     H 2399   7.282   7.179   8.302 -1.1130  1.1941  1.7392
  759MOL0     H 2400   7.110   7.171   8.153 -1.1017 -0.3322  0.5002
  759MOL0     H 2401   7.107   7.322   8.247  2.2345 -0.6246  0.2998
  759MOL0     H 2402   7.027   7.297   7.959 -0.1491 -3.7788 -0.0836
  759MOL0     H 2403   6.985   7.431   8.070 -0.6611 -0.6876 -0.1439
  759MOL0     H 2404   6.820   7.290   8.187 -1.2170 -3.4739  0.6061
  759MOL0     H 2405   6.887   7.144   8.119  1.1749 -0.1178 -1.1873
  759MOL0     H 2406   6.750   7.346   7.952  2.8182 -1.1028 -4.0648
  759MOL0     H 2407   6.829   7.205   7.902 -1.1303  0.8105 -0.9058
  759MOL0     H 2408   6.598   7.132   7.925 -3.8760  1.3491  1.5663
  759MOL0     H 2409   6.676   7.066   8.057 -1.0474  0.4392 -1.0739
  759MOL0     H 2410   6.468   7.146   8.144  0.3054 -2.0692  1.1654
  759MOL0     H 2411   6.589   7.237   8.221 -0.9207 -1.0309 -0.1929
  759MOL0     H 2412   6.446   7.346   7.966 -2.1399 -0.9099  1.3286
  759MOL0     H 2413   6.567   7.425   8.055 -1.0231  0.4233 -1.9343
  759MOL0     H 2414   6.418   7.376   8.276 -0.5336  2.0399 -0.1579
  759MOL0     H 2415   6.412   7.521   8.179  4.4989  0.5405 -2.0726
  759MOL0     H 2416   6.251   7.511   7.948 -0.0976  2.5343  2.0099
  759MOL0     H 2417   5.883   7.533   8.009 -0.4502  1.5181 -1.9934
  759MOL0     H 2418   6.007   7.528   7.878 -0.7945 -0.1522 -0.9551
  759MOL0     H 2419   5.911   7.337   7.784 -1.5116 -0.9473  0.5792
  759MOL0     H 2420   5.952   7.255   7.938  0.8977  0.2581  0.9779
  759MOL0     H 2421   5.713   7.441   7.915 -0.0340  0.5370  2.0291
  759MOL0     H 2422   5.741   7.330   8.039  1.9050  1.0343  0.2632
  759MOL0     H 2423   5.574   7.228   7.908 -1.3500  1.7157 -0.2164
  759MOL0     H 2424   5.712   7.150   7.846 -1.2776 -0.9847 -0.8198
  759MOL0     H 2425   5.549   7.341   7.479 -1.8164  1.1280 -0.8226
  759MOL0     H 2426   5.413   7.509   7.412  1.2472  0.1850  0.0967
  759MOL0     H 2427   5.284   7.957   7.608 -2.6730  2.3198  1.0943
  759MOL0     H 2428   5.152   8.167   7.550 -1.8268  0.6578 -0.2044
  759MOL0     H 2429   4.910   8.256   7.460  3.1736 -0.2956  3.0889
  759MOL0     H 2430   5.065   8.346   7.450  0.6377 -0.5470 -0.8017
  759MOL0     H 2431   4.798   8.373   7.286 -0.8029  0.1574 -0.1095
  759MOL0     H 2432   4.896   8.504   7.347  2.0787  0.4830 -0.2098
  759MOL0     H 2433   5.093   8.437   7.192 -0.2431  0.7455 -0.4399
  759MOL0     H 2434   4.969   8.338   7.110  1.6334 -1.2691  2.1923
  759MOL0     H 2435   4.951   8.646   7.146 -4.1506  1.2595 -0.8333
  759MOL0     H 2436   4.838   8.547   7.055  0.1530 -1.0578 -0.0592
  759MOL0     H 2437   5.134   8.556   7.000 -1.9139  1.3399  5.0417
  759MOL0     H 2438   5.014   8.658   6.911  1.6463  0.7827  1.3782
  759MOL0     H 2439   5.026   8.352   6.894  0.5489 -0.0073 -0.5359
  759MOL0     H 2440   4.884   8.449   6.859  0.3600  0.3230 -2.1748
  759MOL0     H 2441   4.991   8.568   6.685  0.7907  0.8304  1.2402
  759MOL0     H 2442   5.017   8.392   6.656 -0.1551 -0.6184  0.8315
  759MOL0     H 2443   5.218   8.500   6.597  3.7715  0.5606  1.0773
  759MOL0     H 2444   5.226   8.583   6.758 -2.2646 -1.6892  4.2376
  759MOL0     H 2445   5.044   7.985   7.182  0.6281 -3.2251 -0.1206
  759MOL0     H 2446   5.199   7.795   7.227 -0.2547  0.4160 -0.0360
  759MOL0     H 2447   5.354   7.601   7.840  2.4976 -1.1859  1.6424
  759MOL0     H 2448   5.460   7.434   7.891 -2.4586  3.2872  0.4796
  759MOL0     H 2449   7.451   7.492   8.047  0.3445  0.4469 -1.2115
  759MOL0     H 2450   7.670   7.466   8.165  0.8629  0.5764  4.3248
  759MOL0     H 2451   7.914   7.634   8.362  3.1970  2.8706  0.0997
  759MOL0     H 2452   8.132   7.696   8.488 -2.0160  0.5886 -0.4172
  759MOL0     H 2453   8.279   7.397   8.775 -1.8409  3.2108  1.5380
  759MOL0     H 2454   8.405   7.496   8.790 -2.4389 -0.8405  1.6058
  759MOL0     H 2455   8.511   7.403   8.574  1.8081  1.4302  2.5097
  759MOL0     H 2456   8.369   7.286   8.574 -1.0429 -0.3530  2.8616
  759MOL0     H 2457   8.444   7.205   8.779 -0.8323 -2.2784 -4.0385
  759MOL0     H 2458   8.568   7.333   8.804  1.1770  1.5814 -3.6988
  759MOL0     H 2459   8.569   7.125   8.601 -0.6872  0.2444 -0.0936
  759MOL0     H 2460   8.699   7.260   8.633 -0.9385  0.8668  0.0603
  759MOL0     H 2461   8.709   6.941   8.931  0.1811 -0.2439  0.3244
  759MOL0     H 2462   8.123   7.296   8.660  0.6904 -0.5162 -0.1241
  759MOL0     H 2463   7.779   7.269   8.631 -0.2123  0.8587 -1.2548
  759MOL0     H 2464   7.870   7.159   8.526 -1.6789 -1.0638  1.1073
  759MOL0     H 2465   7.927   7.189   8.689 -0.1093  2.6076  0.8080
  760MOL0     O 2466   8.886  10.348  10.738  0.4205 -0.7209 -0.0914
  760MOL0     C 2467   8.915  10.418  10.640 -0.0076  0.3192  0.7214
  760MOL0     O 2468   9.022  10.399  10.560  0.2061 -0.6491  0.2635
  760MOL0     C 2469   9.138  10.377  10.627 -1.1637  0.0502  0.7764
  760MOL0     C 2470   9.168  10.424  10.759 -0.6609  0.2548  1.0449
  760MOL0     C 2471   9.299  10.412  10.817  0.2220  0.5026  0.3264
  760MOL0     C 2472   9.403  10.346  10.755  0.4320  0.0587  0.4413
  760MOL0     O 2473   9.532  10.337  10.796  0.3156 -0.0566  0.3416
  760MOL0     C 2474   9.588  10.214  10.787  0.1262  0.8219  0.5122
  760MOL0     C 2475   9.729  10.209  10.848 -0.0682 -0.2320  0.6436
  760MOL0     C 2476   9.790  10.070  10.847 -0.0095  0.0518  0.3307
  760MOL0     C 2477   9.945  10.071  10.869  0.7303  0.6963  0.5900
  760MOL0     C 2478   9.993   9.944  10.937 -0.1621 -0.4486 -0.1274
  760MOL0     C 2479  10.143   9.931  10.962 -1.0390 -0.4266 -0.2277
  760MOL0     C 2480  10.174   9.829  11.071  0.5287 -0.5123  0.4202
  760MOL0     C 2481  10.179   9.687  11.017 -0.0431  0.3895  0.3467
  760MOL0     N 2482  10.215   9.591  11.122  0.1832  1.0502  0.1191
  760MOL0     C 2483  10.316   9.601  11.210 -1.1427  0.5638  0.0503
  760MOL0     C 2484  10.335   9.476  11.262 -0.4118  0.0314 -0.1296
  760MOL0     C 2485  10.432   9.463  11.363 -0.0523 -0.1137 -0.1252
  760MOL0     C 2486  10.572   9.449  11.309 -0.3246 -0.4041 -0.2647
  760MOL0     C 2487  10.607   9.321  11.225  0.2335  0.6569  0.0141
  760MOL0     C 2488  10.754   9.310  11.183 -1.1232  0.2262 -0.2229
  760MOL0     O 2489  10.847   9.324  11.290  0.6958 -0.2047  0.1363
  760MOL0     C 2490  10.979   9.332  11.265 -0.1610 -0.3076  0.2601
  760MOL0     C 2491  11.039   9.335  11.136 -0.2705  0.4568 -0.1249
  760MOL0     C 2492  11.173   9.344  11.113 -0.1039 -0.4839 -0.5707
  760MOL0     C 2493  11.263   9.359  11.227 -0.1944  0.0712  0.6099
  760MOL0     C 2494  11.410   9.351  11.207 -1.0001  0.5709  0.7352
  760MOL0     O 2495  11.465   9.323  11.083  1.2836  0.7082 -0.2114
  760MOL0     C 2496  11.600   9.290  11.071  0.3692  0.4001 -0.6329
  760MOL0     C 2497  11.707   9.370  11.105  0.1751 -0.7304 -0.0661
  760MOL0     C 2498  11.838   9.323  11.090  0.9185  0.1070  0.1989
  760MOL0     C 2499  11.863   9.196  11.035  0.3251  0.4017 -1.0221
  760MOL0     O 2500  11.994   9.152  11.014 -0.0085  0.6518  0.2487
  760MOL0     C 2501  12.022   9.012  11.041 -0.1034 -0.2191 -0.5510
  760MOL0     C 2502  12.169   8.992  11.051 -0.7533 -0.0229 -0.8582
  760MOL0     C 2503  12.230   9.075  11.168  0.6320  0.1175 -0.0597
  760MOL0     C 2504  12.367   9.009  11.207 -0.1375  0.1357 -0.2118
  760MOL0     C 2505  12.429   9.091  11.315  0.7831  0.1169 -0.3924
  760MOL0     C 2506  12.540   9.025  11.389  0.2268 -0.3070 -0.3602
  760MOL0     C 2507  12.576   9.090  11.518  0.4145 -0.6470 -0.2733
  760MOL0     C 2508  12.715   9.074  11.575 -0.3153  0.4831 -0.7914
  760MOL0    Cl 2509  12.778   9.229  11.606 -0.1376 -0.4485 -0.2359
  760MOL0     C 2510  11.750   9.114  10.998  0.3639  0.2628  1.1073
  760MOL0     C 2511  11.617   9.168  11.014  0.5249 -0.3497 -0.7670
  760MOL0     O 2512  11.475   9.349  11.307  0.2031  0.6814 -0.9761
  760MOL0     C 2513  11.206   9.359  11.355  0.4346  0.6124 -0.2414
  760MOL0     C 2514  11.065   9.343  11.372 -0.4419 -0.8071 -1.2839
  760MOL0     N 2515  10.228   9.399  11.217  0.4406 -0.4649 -0.6452
  760MOL0     N 2516  10.165   9.460  11.125  0.5535  0.0064 -0.3141
  760MOL0     C 2517   9.373  10.312  10.618 -0.5060 -0.0314 -0.5280
  760MOL0     C 2518   9.246  10.321  10.559  0.4269 -0.7430  0.2683
  760MOL0     C 2519   8.804  10.491  10.570 -0.5147 -0.0112  0.5105
  760MOL0     C 2520   8.846  10.616  10.525  0.2880  1.0379  0.3986
  760MOL0     C 2521   8.758  10.707  10.460  0.7795 -0.7707 -0.4276
  760MOL0     C 2522   8.624  10.675  10.445 -0.1892  0.0298 -0.0294
  760MOL0     O 2523   8.538  10.763  10.381 -0.3040 -0.2355 -0.1987
  760MOL0     C 2524   8.404  10.779  10.436  0.3840 -0.4057 -0.1978
  760MOL0     C 2525   8.349  10.904  10.363 -0.2193  0.4681  0.1375
  760MOL0     C 2526   8.211  10.935  10.404  0.5325  1.3745  0.4637
  760MOL0     C 2527   8.163  11.045  10.313  0.0077  0.4627  0.8636
  760MOL0     C 2528   8.234  11.174  10.349  0.1486  0.6563 -0.2310
  760MOL0     C 2529   8.310  11.266  10.381  0.3255  0.3764 -0.1260
  760MOL0     C 2530   8.581  10.551  10.496  0.1203  0.6872  0.7101
  760MOL0     C 2531   8.668  10.462  10.560  0.2677  0.3422 -0.1879
  760MOL0     C 2532   8.608  10.339  10.619 -0.1047 -1.0216 -0.7674
  760MOL0     H 2533   9.091  10.468  10.821  1.1755  0.6670  3.1437
  760MOL0     H 2534   9.324  10.451  10.916  0.1415  0.9242  0.1831
  760MOL0     H 2535   9.529  10.143  10.845  1.7409  0.1860  1.4515
  760MOL0     H 2536   9.603  10.175  10.686  1.0394 -1.2755  1.3779
  760MOL0     H 2537   9.725  10.246  10.951 -0.9603  2.9922 -0.4236
  760MOL0     H 2538   9.796  10.280  10.798  0.5725 -0.0839  1.6885
  760MOL0     H 2539   9.771  10.024  10.750  0.1835 -2.4007  1.3783
  760MOL0     H 2540   9.744  10.009  10.926  1.5333 -1.5492  0.0450
  760MOL0     H 2541   9.995  10.080  10.772 -0.1018 -1.4364 -0.0808
  760MOL0     H 2542   9.970  10.157  10.932  2.1195  2.3354 -2.0180
  760MOL0     H 2543   9.948   9.946  11.037 -1.3211 -3.0458 -0.5129
  760MOL0     H 2544   9.952   9.853  10.892  0.0304 -1.3967  1.5287
  760MOL0     H 2545  10.176   9.888  10.867 -0.4541 -2.5409  0.8602
  760MOL0     H 2546  10.178  10.032  10.986 -1.6410  0.1103 -1.5312
  760MOL0     H 2547  10.101   9.817  11.152  2.3228  0.3285  2.2503
  760MOL0     H 2548  10.278   9.849  11.100  0.8109  0.5694 -1.2609
  760MOL0     H 2549  10.081   9.661  10.977  0.2919  1.4436 -1.2344
  760MOL0     H 2550  10.251   9.688  10.935  1.1150  1.6919  1.3274
  760MOL0     H 2551  10.389   9.681  11.217 -0.7579  0.3500 -1.2813
  760MOL0     H 2552  10.433   9.548  11.432  1.4895  0.2730 -0.5960
  760MOL0     H 2553  10.401   9.373  11.417  1.3291  0.2441  1.3198
  760MOL0     H 2554  10.606   9.535  11.251  0.8858 -0.3853  0.4250
  760MOL0     H 2555  10.640   9.455  11.395 -0.5149  1.8313 -0.2174
  760MOL0     H 2556  10.548   9.338  11.135 -1.1607  0.6714  0.8987
  760MOL0     H 2557  10.575   9.225  11.267  2.9037 -0.2291  0.2312
  760MOL0     H 2558  10.769   9.388  11.108 -2.1921 -0.7120 -1.4529
  760MOL0     H 2559  10.777   9.213  11.139  0.8378  0.7481 -0.4493
  760MOL0     H 2560  10.977   9.322  11.047  1.2112  0.4307 -1.2002
  760MOL0     H 2561  11.214   9.354  11.013  4.3834 -2.8575  0.7673
  760MOL0     H 2562  11.702   9.474  11.138  1.5777  0.8194 -4.0704
  760MOL0     H 2563  11.921   9.384  11.123  1.4859 -2.5444  4.4858
  760MOL0     H 2564  11.977   8.991  11.138 -0.0792  1.4514 -0.1579
  760MOL0     H 2565  11.970   8.954  10.963 -1.6006  3.8384 -2.8606
  760MOL0     H 2566  12.197   8.888  11.071  2.0665  0.6655 -0.7842
  760MOL0     H 2567  12.213   9.020  10.955 -2.2203  1.3287 -1.1824
  760MOL0     H 2568  12.227   9.180  11.135  0.6663  0.2858  0.4741
  760MOL0     H 2569  12.161   9.069  11.252  2.4266 -2.1394  1.3430
  760MOL0     H 2570  12.433   9.010  11.120  1.4562 -0.8451  0.9179
  760MOL0     H 2571  12.349   8.908  11.245 -0.6249  0.5070  0.5859
  760MOL0     H 2572  12.348   9.118  11.383  0.8070 -1.4246  0.2904
  760MOL0     H 2573  12.463   9.182  11.263 -0.8003  2.2034  1.9636
  760MOL0     H 2574  12.504   8.926  11.419  0.3975 -0.4614 -0.6521
  760MOL0     H 2575  12.628   9.021  11.324 -0.0295  1.3940 -0.8478
  760MOL0     H 2576  12.499   9.072  11.593  0.8072  2.1733  0.9324
  760MOL0     H 2577  12.559   9.195  11.493 -2.0226 -0.8521  0.3339
  760MOL0     H 2578  12.720   9.006  11.661 -2.7722  3.1214  1.6318
  760MOL0     H 2579  12.785   9.038  11.498 -0.1166 -4.4185  1.3154
  760MOL0     H 2580  11.761   9.008  10.979  1.1404 -0.0211  2.9607
  760MOL0     H 2581  11.530   9.105  11.000 -1.5313  0.3119  5.6211
  760MOL0     H 2582  11.272   9.350  11.441 -0.6624 -1.5811  0.4443
  760MOL0     H 2583  11.021   9.350  11.472 -1.3153 -1.8078 -1.5726
  760MOL0     H 2584   9.448  10.268  10.553 -2.7559 -1.5828 -2.1924
  760MOL0     H 2585   9.230  10.294  10.455  2.8663 -0.5104 -0.2296
  760MOL0     H 2586   8.951  10.642  10.535  0.7019 -1.1131  2.3553
  760MOL0     H 2587   8.800  10.801  10.424  0.8488 -0.4935  0.3577
  760MOL0     H 2588   8.408  10.785  10.545 -0.2184  1.9926 -0.2376
  760MOL0     H 2589   8.339  10.694  10.417 -2.0522  1.4436 -0.6531
  760MOL0     H 2590   8.342  10.875  10.258 -1.5601 -0.6157  0.4999
  760MOL0     H 2591   8.407  10.994  10.387 -3.3232  2.0907  2.1566
  760MOL0     H 2592   8.202  10.969  10.508 -2.3234  2.4704 -0.0486
  760MOL0     H 2593   8.148  10.846  10.395  1.0868  1.1126 -1.3385
  760MOL0     H 2594   8.172  11.025  10.206  1.5772  0.9605  0.8785
  760MOL0     H 2595   8.057  11.053  10.339 -0.0866 -1.6762  1.2887
  760MOL0     H 2596   8.375  11.346  10.407  2.4847 -1.8413  1.8109
  760MOL0     H 2597   8.475  10.530  10.494  0.5468 -2.4156  3.0492
  760MOL0     H 2598   8.646  10.324  10.720  0.6072 -2.2715 -1.2043
  760MOL0     H 2599   8.498  10.345  10.614  0.0229  1.5803 -2.6055
  760MOL0     H 2600   8.631  10.252  10.557  3.7288  0.5590 -1.8506
  761MOL0     O 2601   5.263   9.164   9.324 -0.3524 -0.3402  0.0632
  761MOL0     C 2602   5.348   9.086   9.359  0.4630  0.4066  0.4603
  761MOL0     O 2603   5.348   8.952   9.317 -0.0666 -0.6420 -0.4598
  761MOL0     C 2604   5.266   8.895   9.219  0.8525 -0.4464 -0.5916
  761MOL0     C 2605   5.295   8.766   9.190 -0.1671 -0.3164  1.3129
  761MOL0     C 2606   5.209   8.689   9.103  0.0924  0.6097  0.3683
  761MOL0     C 2607   5.100   8.745   9.034 -0.6469  0.0270  0.0990
  761MOL0     O 2608   5.024   8.674   8.944 -0.1660  0.2236  0.1433
  761MOL0     C 2609   5.042   8.529   8.911 -0.6352  0.4693  0.0645
  761MOL0     C 2610   4.965   8.516   8.778 -0.0939  1.0027  0.0585
  761MOL0     C 2611   4.814   8.559   8.786 -0.6233 -0.0718  0.1771
  761MOL0     C 2612   4.727   8.487   8.685  0.5299  0.2558  1.1597
  761MOL0     C 2613   4.607   8.580   8.658  0.5613  0.3474 -0.5475
  761MOL0     C 2614   4.510   8.524   8.551  0.5948  0.4235  0.2835
  761MOL0     C 2615   4.390   8.610   8.505  0.0602 -0.6926  0.7079
  761MOL0     C 2616   4.401   8.650   8.356  0.2675  0.5969  0.4249
  761MOL0     N 2617   4.495   8.768   8.355  0.0418  0.7538 -0.2957
  761MOL0     C 2618   4.628   8.760   8.319 -0.4161  0.2943  0.2999
  761MOL0     C 2619   4.672   8.887   8.340 -0.1304  0.2945 -0.4723
  761MOL0     C 2620   4.813   8.933   8.312 -0.1523 -0.1412 -0.4431
  761MOL0     C 2621   4.900   8.935   8.433  0.1852 -0.1388 -0.6754
  761MOL0     C 2622   4.881   9.044   8.532  0.0056  0.3119 -0.4239
  761MOL0     C 2623   4.990   9.057   8.641 -0.6883 -0.6753  0.1461
  761MOL0     O 2624   5.128   9.079   8.594 -0.2045 -0.8808 -0.7913
  761MOL0     C 2625   5.218   9.099   8.697 -0.5407  0.1398  0.6715
  761MOL0     C 2626   5.240   9.000   8.796 -0.8100 -0.6811  0.7556
  761MOL0     C 2627   5.342   9.010   8.887 -0.2676 -0.8000 -0.0641
  761MOL0     C 2628   5.421   9.131   8.896 -0.7189  0.2122  0.5490
  761MOL0     C 2629   5.529   9.144   8.991  0.0948 -0.7316 -0.5884
  761MOL0     O 2630   5.566   9.270   9.027 -0.0057  1.6911  0.4090
  761MOL0     C 2631   5.695   9.277   9.081 -0.1625  0.7001 -0.5885
  761MOL0     C 2632   5.801   9.346   9.016 -0.1280 -0.4108 -0.1794
  761MOL0     C 2633   5.925   9.361   9.082  0.4698  0.8115  0.5343
  761MOL0     C 2634   5.950   9.292   9.206  0.1633  0.5347  0.3299
  761MOL0     O 2635   6.069   9.319   9.270  0.3912  0.7217  0.1503
  761MOL0     C 2636   6.116   9.203   9.344 -0.3417 -0.2193 -1.5513
  761MOL0     C 2637   6.249   9.223   9.420 -0.5227  1.3218  0.0865
  761MOL0     C 2638   6.264   9.332   9.514  0.2648  0.0856 -0.6159
  761MOL0     C 2639   6.141   9.343   9.613 -0.3332 -0.2646 -1.1679
  761MOL0     C 2640   6.178   9.431   9.736 -0.1809 -0.0903  0.3428
  761MOL0     C 2641   6.065   9.451   9.834  1.0700 -0.4771 -0.1047
  761MOL0     C 2642   5.937   9.502   9.761  0.6591  0.4372 -0.4420
  761MOL0     C 2643   5.834   9.546   9.862  0.8119 -0.3039 -0.5254
  761MOL0    Cl 2644   5.890   9.650  10.003  0.0334 -0.2846  0.4071
  761MOL0     C 2645   5.843   9.215   9.267 -0.3100 -0.7310  0.3694
  761MOL0     C 2646   5.719   9.221   9.208  0.2076  0.2959 -0.9304
  761MOL0     O 2647   5.560   9.040   9.045  0.2212 -0.0489 -0.0808
  761MOL0     C 2648   5.401   9.230   8.799  0.0875 -0.3049 -0.0018
  761MOL0     C 2649   5.302   9.214   8.699  0.3421  0.6067 -0.5443
  761MOL0     N 2650   4.574   8.966   8.386 -0.2858  0.1945  0.2895
  761MOL0     N 2651   4.466   8.901   8.394 -0.2724  0.6674 -0.0051
  761MOL0     C 2652   5.073   8.884   9.059 -0.1724  0.3580  0.1198
  761MOL0     C 2653   5.157   8.956   9.152  0.5161  0.4285 -0.3857
  761MOL0     C 2654   5.468   9.115   9.446  0.2290 -0.0059  0.3564
  761MOL0     C 2655   5.528   9.003   9.510 -0.3509 -0.0894  0.3488
  761MOL0     C 2656   5.623   9.019   9.602  0.5667  0.5522 -0.6252
  761MOL0     C 2657   5.653   9.151   9.651 -0.0403 -0.4579  1.0028
  761MOL0     O 2658   5.734   9.167   9.758 -0.8414 -0.4374 -0.1887
  761MOL0     C 2659   5.786   9.050   9.814 -0.8780  0.1594  0.0209
  761MOL0     C 2660   5.873   9.070   9.941  0.6515  0.3553 -1.2849
  761MOL0     C 2661   5.908   8.940  10.011  0.0927  0.3716 -0.0810
  761MOL0     C 2662   6.013   8.865   9.923  0.0991  0.0340  0.7539
  761MOL0     C 2663   6.066   8.746   9.983  0.5818 -0.2583 -0.1601
  761MOL0     C 2664   6.122   8.655  10.048 -0.3525  0.3044  0.0175
  761MOL0     C 2665   5.585   9.260   9.596 -0.4310 -0.1110  0.4148
  761MOL0     C 2666   5.504   9.241   9.485  0.4062  0.7917 -1.2902
  761MOL0     C 2667   5.451   9.360   9.415  0.0876 -0.3833  0.8899
  761MOL0     H 2668   5.376   8.712   9.238  1.2491  0.9497  0.4155
  761MOL0     H 2669   5.238   8.585   9.102  4.4833  1.5673 -2.9236
  761MOL0     H 2670   5.149   8.513   8.901  0.3038  5.4983 -1.0578
  761MOL0     H 2671   5.002   8.454   8.979 -0.1763  0.1775  0.0143
  761MOL0     H 2672   4.964   8.411   8.748  0.0369  1.2699 -0.9275
  761MOL0     H 2673   5.029   8.560   8.701  2.5591 -2.9417 -0.2885
  761MOL0     H 2674   4.824   8.662   8.751  2.4934 -0.7552 -1.3138
  761MOL0     H 2675   4.767   8.544   8.884 -2.5583  3.3869 -0.0423
  761MOL0     H 2676   4.786   8.478   8.594 -0.1028  2.6801  0.4298
  761MOL0     H 2677   4.701   8.384   8.711  0.4689 -1.2931 -3.9611
  761MOL0     H 2678   4.545   8.585   8.748  1.6761  1.6818  0.1756
  761MOL0     H 2679   4.645   8.681   8.639  1.9243 -0.4500 -2.3060
  761MOL0     H 2680   4.567   8.495   8.462  3.4814 -0.5385  2.2896
  761MOL0     H 2681   4.473   8.432   8.595  4.2837 -1.1817  0.4196
  761MOL0     H 2682   4.379   8.703   8.562  2.3469 -0.7411  1.3278
  761MOL0     H 2683   4.299   8.549   8.508 -1.6034  1.6748  1.2355
  761MOL0     H 2684   4.433   8.561   8.301 -1.8792  0.0998 -0.1123
  761MOL0     H 2685   4.301   8.672   8.318  0.2304 -0.0752  0.1032
  761MOL0     H 2686   4.687   8.671   8.305  1.2495  1.4999 -0.8000
  761MOL0     H 2687   4.855   8.867   8.235 -2.0107 -2.8911  0.7211
  761MOL0     H 2688   4.809   9.039   8.285  2.9727  0.0386 -0.5935
  761MOL0     H 2689   4.895   8.832   8.471  1.6683 -1.0439 -2.7344
  761MOL0     H 2690   5.003   8.942   8.396  0.7799 -1.7265  0.5379
  761MOL0     H 2691   4.785   9.037   8.582  0.5451 -2.0060  0.4368
  761MOL0     H 2692   4.879   9.137   8.475  1.5862 -0.1514 -1.3214
  761MOL0     H 2693   4.979   8.967   8.702  0.7357 -0.6945  0.4096
  761MOL0     H 2694   4.964   9.141   8.706  1.0046 -1.0185  1.3527
  761MOL0     H 2695   5.178   8.912   8.788 -1.3103 -0.3898  1.4397
  761MOL0     H 2696   5.350   8.926   8.955  1.0766 -0.2309  0.5148
  761MOL0     H 2697   5.784   9.400   8.923 -2.7675 -2.4705 -1.0151
  761MOL0     H 2698   5.996   9.424   9.029  1.1506  0.2958  0.8301
  761MOL0     H 2699   6.050   9.178   9.427 -0.8025  3.0163 -0.8097
  761MOL0     H 2700   6.134   9.117   9.278  2.5577 -0.9270 -0.0052
  761MOL0     H 2701   6.278   9.132   9.474 -2.8809  1.5536  1.9088
  761MOL0     H 2702   6.325   9.249   9.346  1.1102 -1.1754  0.7503
  761MOL0     H 2703   6.345   9.313   9.585 -0.8340 -1.9122  0.2028
  761MOL0     H 2704   6.292   9.418   9.452  0.8665 -1.6504 -2.9133
  761MOL0     H 2705   6.117   9.243   9.649  3.4357 -0.2881  1.9605
  761MOL0     H 2706   6.046   9.373   9.568 -0.0882 -0.9155 -2.1502
  761MOL0     H 2707   6.215   9.530   9.709 -0.1717 -0.2827 -0.3609
  761MOL0     H 2708   6.266   9.380   9.776 -0.3773 -1.6375 -1.0644
  761MOL0     H 2709   6.040   9.352   9.873  3.3155 -1.1843 -0.2662
  761MOL0     H 2710   6.082   9.517   9.919 -2.2137  0.1679  0.1878
  761MOL0     H 2711   5.889   9.425   9.700  3.2623 -0.0845 -1.9626
  761MOL0     H 2712   5.969   9.582   9.694 -1.5917  1.2629 -0.6096
  761MOL0     H 2713   5.752   9.612   9.831  1.1975  0.0147 -0.8848
  761MOL0     H 2714   5.787   9.455   9.899  1.4268 -0.8722 -1.1334
  761MOL0     H 2715   5.852   9.163   9.362  0.3068 -0.1978  0.6080
  761MOL0     H 2716   5.646   9.153   9.248  1.6006 -1.6248 -1.5225
  761MOL0     H 2717   5.454   9.323   8.784 -1.2325  0.1025 -2.7356
  761MOL0     H 2718   5.273   9.293   8.630  0.9554  1.0080 -0.3557
  761MOL0     H 2719   4.996   8.943   9.011  0.7050  1.6153  0.2222
  761MOL0     H 2720   5.136   9.062   9.152 -1.5362  0.0756  0.0655
  761MOL0     H 2721   5.502   8.903   9.477  0.7678  0.2899 -1.8322
  761MOL0     H 2722   5.662   8.926   9.642  0.5739 -0.2750 -2.4531
  761MOL0     H 2723   5.851   9.004   9.738  0.3444 -0.7101  1.5313
  761MOL0     H 2724   5.699   8.988   9.836 -1.8221  1.1272 -0.8881
  761MOL0     H 2725   5.807   9.109  10.019 -2.2940 -4.0723 -1.2031
  761MOL0     H 2726   5.963   9.130   9.926 -0.4258  2.3511 -0.0669
  761MOL0     H 2727   5.819   8.877  10.022  1.3461 -1.2312  1.2442
  761MOL0     H 2728   5.951   8.959  10.109  0.5593 -0.5688 -0.0929
  761MOL0     H 2729   5.976   8.839   9.823  0.8649 -1.2109  0.7678
  761MOL0     H 2730   6.090   8.941   9.910  1.0717 -1.0713 -0.1991
  761MOL0     H 2731   6.167   8.565  10.084  0.1154 -0.3035 -1.9432
  761MOL0     H 2732   5.602   9.358   9.639  2.2429  0.1076 -0.8939
  761MOL0     H 2733   5.517   9.442   9.446 -1.0899 -0.2235  3.2064
  761MOL0     H 2734   5.453   9.352   9.306 -4.3639  0.7805  0.5362
  761MOL0     H 2735   5.352   9.395   9.444  2.1729  4.3311  3.5111
  762MOL0     O 2736   5.655  10.420   0.490 -0.1377 -0.6822  0.4867
  762MOL0     C 2737   5.551  10.360   0.499  0.5105  0.5480  0.3570
  762MOL0     O 2738   5.542  10.229   0.547 -0.1590  0.4538 -0.0336
  762MOL0     C 2739   5.644  10.168   0.614  0.0594 -0.6048  0.4398
  762MOL0     C 2740   5.707  10.225   0.717 -0.3208 -0.8882  0.0656
  762MOL0     C 2741   5.809  10.160   0.781 -0.4124 -0.3730  0.8721
  762MOL0     C 2742   5.850  10.029   0.738 -0.1209  0.1680 -0.2428
  762MOL0     O 2743   5.938   9.949   0.801 -0.9749 -0.1142  0.3479
  762MOL0     C 2744   6.006   9.995   0.919 -0.0644  0.1551 -0.4500
  762MOL0     C 2745   6.120   9.892   0.930 -0.3410  0.6048  0.0262
  762MOL0     C 2746   6.237   9.960   0.859  0.0025  0.3392  0.5356
  762MOL0     C 2747   6.372   9.886   0.833  0.1626 -0.3298  0.6109
  762MOL0     C 2748   6.443   9.849   0.954 -0.2655 -0.5063 -0.1177
  762MOL0     C 2749   6.496   9.973   1.024 -0.0651 -0.6443 -0.6761
  762MOL0     C 2750   6.549   9.918   1.158 -0.5896 -0.0155 -0.0305
  762MOL0     C 2751   6.661   9.810   1.156 -0.3546  0.3212  0.2799
  762MOL0     N 2752   6.799   9.870   1.131  0.8530  0.0838  0.4016
  762MOL0     C 2753   6.867   9.955   1.218 -0.7612  0.9314 -0.3163
  762MOL0     C 2754   6.987   9.967   1.157 -0.1138 -0.1601  1.4416
  762MOL0     C 2755   7.105  10.047   1.203 -0.5357 -0.4352 -0.3288
  762MOL0     C 2756   7.215  10.061   1.091  0.1412 -0.9344  0.7678
  762MOL0     C 2757   7.320  10.160   1.114  0.0046 -1.1395  0.2509
  762MOL0     C 2758   7.468  10.113   1.080  0.7761  0.1209  0.2081
  762MOL0     O 2759   7.488  10.117   0.941  0.0375  0.7639 -0.3135
  762MOL0     C 2760   7.615  10.135   0.883 -0.5524 -1.2649  0.3935
  762MOL0     C 2761   7.617  10.110   0.748 -0.4015  0.8587 -0.0271
  762MOL0     C 2762   7.733  10.121   0.671 -0.4400 -0.0091 -0.3296
  762MOL0     C 2763   7.854  10.166   0.724 -0.6219 -0.4975  0.7307
  762MOL0     C 2764   7.984  10.163   0.643  0.0355 -0.1089 -0.7760
  762MOL0     O 2765   8.106  10.175   0.711  0.9426 -0.0268  0.7335
  762MOL0     C 2766   8.219  10.179   0.633 -0.0953 -0.3166  0.4378
  762MOL0     C 2767   8.244  10.084   0.538 -0.0016  0.1040  0.2605
  762MOL0     C 2768   8.373  10.083   0.471 -0.7700  0.8116  1.1997
  762MOL0     C 2769   8.483  10.163   0.508  0.6076  1.1788 -0.1538
  762MOL0     O 2770   8.608  10.146   0.456  0.7193  0.1768  0.0987
  762MOL0     C 2771   8.715  10.222   0.510 -0.7414  0.6972 -0.8422
  762MOL0     C 2772   8.854  10.162   0.465 -0.4231  0.4055  0.6878
  762MOL0     C 2773   8.956  10.218   0.568  0.2826  0.9642  1.0824
  762MOL0     C 2774   9.100  10.202   0.511  0.6527  0.8123 -0.0607
  762MOL0     C 2775   9.198  10.283   0.596  0.0823  0.3605 -0.4787
  762MOL0     C 2776   9.336  10.239   0.551 -0.0335 -0.7951  0.2132
  762MOL0     C 2777   9.444  10.323   0.621 -0.3839  0.3230 -0.0109
  762MOL0     C 2778   9.587  10.281   0.585 -0.7030  0.1080  0.3523
  762MOL0    Cl 2779   9.681  10.391   0.689 -0.1980 -0.4116 -0.1532
  762MOL0     C 2780   8.452  10.266   0.603  0.3917  0.2832  0.2555
  762MOL0     C 2781   8.326  10.275   0.664  0.4488  0.4348 -1.0524
  762MOL0     O 2782   7.966  10.159   0.519 -0.1515 -0.1263  0.3592
  762MOL0     C 2783   7.844  10.197   0.859  0.0279 -0.5802 -0.4295
  762MOL0     C 2784   7.733  10.173   0.947 -0.0092  0.0629 -0.3260
  762MOL0     N 2785   6.992   9.901   1.033  0.3485 -0.0281 -0.0662
  762MOL0     N 2786   6.877   9.845   1.018 -0.7197 -0.9423 -0.0971
  762MOL0     C 2787   5.782   9.977   0.621 -0.5341  0.1600 -0.6755
  762MOL0     C 2788   5.680  10.037   0.568 -0.2806 -0.4994  0.0294
  762MOL0     C 2789   5.426  10.422   0.451  0.7067 -0.5535 -0.4932
  762MOL0     C 2790   5.324  10.329   0.407  0.1168 -0.5504  0.1151
  762MOL0     C 2791   5.203  10.369   0.363  0.1150  0.3782  0.8190
  762MOL0     C 2792   5.181  10.506   0.342  0.0848 -0.1766  0.5019
  762MOL0     O 2793   5.056  10.553   0.304  0.0674 -0.3381 -0.0763
  762MOL0     C 2794   4.943  10.460   0.320 -0.0068  0.2343  0.5664
  762MOL0     C 2795   4.810  10.542   0.284 -0.0392 -0.1473 -0.4489
  762MOL0     C 2796   4.781  10.526   0.132  0.3492  0.9969  1.0409
  762MOL0     C 2797   4.725  10.666   0.073 -0.7184  0.5678  0.8713
  762MOL0     C 2798   4.696  10.650  -0.069  0.5637 -0.1107 -1.4662
  762MOL0     C 2799   4.665  10.636  -0.184  0.2143 -0.8930 -0.1514
  762MOL0     C 2800   5.276  10.603   0.380 -0.0069  0.8422 -0.3890
  762MOL0     C 2801   5.399  10.558   0.430 -0.1294  0.0565 -0.7006
  762MOL0     C 2802   5.499  10.669   0.457  0.3991  0.6072  1.2191
  762MOL0     H 2803   5.682  10.327   0.742 -2.1200  0.0126 -4.4769
  762MOL0     H 2804   5.859  10.216   0.859  0.8385  0.3469 -0.3819
  762MOL0     H 2805   6.031  10.101   0.926  0.1177 -0.0083  2.9743
  762MOL0     H 2806   5.934   9.977   1.000 -0.1851 -0.1553 -0.6252
  762MOL0     H 2807   6.087   9.803   0.876  1.6294  0.6931 -1.4587
  762MOL0     H 2808   6.147   9.859   1.030 -1.8453  3.5968  1.5598
  762MOL0     H 2809   6.254  10.052   0.916 -1.6835  0.1338  1.4407
  762MOL0     H 2810   6.205   9.992   0.760 -0.7274  1.8337  1.2203
  762MOL0     H 2811   6.345   9.790   0.788 -3.9348  1.8064 -2.0928
  762MOL0     H 2812   6.426   9.947   0.760 -0.0020 -0.7604  0.1212
  762MOL0     H 2813   6.363   9.797   1.008 -0.9133 -0.5269 -1.0863
  762MOL0     H 2814   6.519   9.780   0.917 -0.7171 -1.9104  1.4353
  762MOL0     H 2815   6.579  10.019   0.971 -0.4523 -0.7119 -1.3568
  762MOL0     H 2816   6.422  10.052   1.042  0.0468 -0.5825 -0.4822
  762MOL0     H 2817   6.464   9.878   1.213  1.2628 -0.2357  2.8594
  762MOL0     H 2818   6.576   9.999   1.226  0.3567 -1.5707  1.5549
  762MOL0     H 2819   6.663   9.753   1.249  0.1948  3.2787  2.2158
  762MOL0     H 2820   6.643   9.755   1.063 -3.0846  2.4379 -0.5801
  762MOL0     H 2821   6.829  10.003   1.308  1.6955  1.9717  0.2328
  762MOL0     H 2822   7.075  10.151   1.222 -2.2110 -0.5439 -2.1076
  762MOL0     H 2823   7.147  10.003   1.294 -2.8575 -0.8108  0.6140
  762MOL0     H 2824   7.271   9.967   1.090  2.5498  0.4133  1.0409
  762MOL0     H 2825   7.157  10.084   1.001 -1.1665  3.3766  2.4632
  762MOL0     H 2826   7.328  10.172   1.222  1.5368 -2.7421  0.3414
  762MOL0     H 2827   7.296  10.259   1.072 -1.6268 -0.6369  2.1915
  762MOL0     H 2828   7.478  10.015   1.126 -1.9418 -0.2351  0.2107
  762MOL0     H 2829   7.538  10.179   1.133 -0.3184 -0.1034  2.0119
  762MOL0     H 2830   7.532  10.062   0.701  1.1806 -0.9353 -1.2127
  762MOL0     H 2831   7.717  10.093   0.568 -0.2755 -0.3295 -0.2687
  762MOL0     H 2832   8.185   9.998   0.508  2.0381 -0.9924 -0.7939
  762MOL0     H 2833   8.395  10.002   0.402  1.7189  2.3012  0.1088
  762MOL0     H 2834   8.694  10.323   0.474 -0.9032 -0.2697 -3.7393
  762MOL0     H 2835   8.706  10.200   0.616  0.2157 -0.4808 -0.9748
  762MOL0     H 2836   8.853  10.055   0.444 -1.0797  0.6196 -0.5358
  762MOL0     H 2837   8.876  10.206   0.367 -2.0704  0.5613  0.3494
  762MOL0     H 2838   8.956  10.327   0.582  1.9299  1.0433  0.7014
  762MOL0     H 2839   8.932  10.163   0.659 -0.0510  1.2063  1.1423
  762MOL0     H 2840   9.117  10.232   0.407 -0.3772  0.9901 -0.1818
  762MOL0     H 2841   9.123  10.095   0.504 -0.0062  0.5272  1.6256
  762MOL0     H 2842   9.192  10.262   0.703  2.1581  1.3954 -0.1091
  762MOL0     H 2843   9.184  10.390   0.577  1.2387  0.0888 -3.4318
  762MOL0     H 2844   9.355  10.133   0.573  1.4763 -0.5064  0.4092
  762MOL0     H 2845   9.342  10.263   0.444  1.0309  2.7119  0.9435
  762MOL0     H 2846   9.429  10.301   0.727  1.9600 -0.2626  0.2558
  762MOL0     H 2847   9.424  10.430   0.610 -0.7624  0.3438  0.7883
  762MOL0     H 2848   9.604  10.181   0.627 -1.1369  0.2521  0.8812
  762MOL0     H 2849   9.618  10.297   0.482 -0.6588 -1.7425  0.0492
  762MOL0     H 2850   8.518  10.347   0.633 -0.6341  0.9069  0.8622
  762MOL0     H 2851   8.311  10.354   0.736  2.5291 -0.8687  0.9434
  762MOL0     H 2852   7.928  10.223   0.923 -1.3010 -0.0277  1.1487
  762MOL0     H 2853   7.738  10.179   1.055 -0.3172 -0.9056 -0.2470
  762MOL0     H 2854   5.792   9.875   0.586  2.7433 -0.8787  2.6458
  762MOL0     H 2855   5.625   9.984   0.491  1.7014  0.2496 -2.0035
  762MOL0     H 2856   5.339  10.222   0.420  1.0717 -0.3136  1.1275
  762MOL0     H 2857   5.135  10.288   0.339  0.8198  0.2668 -0.9347
  762MOL0     H 2858   4.927  10.421   0.421 -0.1375 -0.0029  0.4559
  762MOL0     H 2859   4.955  10.366   0.265 -3.7315 -0.4177  0.6120
  762MOL0     H 2860   4.812  10.644   0.322 -0.4427 -0.8020  1.4190
  762MOL0     H 2861   4.729  10.491   0.337  1.1320 -0.8550  0.7091
  762MOL0     H 2862   4.717  10.438   0.122  2.5068 -0.3533 -3.1566
  762MOL0     H 2863   4.885  10.512   0.099  0.2791  0.5167  1.0232
  762MOL0     H 2864   4.634  10.696   0.126 -2.4619  0.4375 -1.8737
  762MOL0     H 2865   4.796  10.746   0.096  2.4903 -2.0300  0.8176
  762MOL0     H 2866   4.643  10.633  -0.289 -0.4847 -3.0885 -0.0008
  762MOL0     H 2867   5.252  10.708   0.367 -4.4073  0.2183  0.8867
  762MOL0     H 2868   5.468  10.759   0.403  2.2606 -1.3887 -3.8065
  762MOL0     H 2869   5.513  10.683   0.564 -0.3554  0.6094  1.3274
  762MOL0     H 2870   5.589  10.637   0.404 -0.4067  1.1854 -0.5973
  763MOL0     O 2871   2.178   9.463   1.214 -0.4341  0.1010 -0.3138
  763MOL0     C 2872   2.264   9.376   1.197  0.6533  0.5404  0.4364
  763MOL0     O 2873   2.387   9.408   1.148  1.0857 -1.0084  0.4320
  763MOL0     C 2874   2.427   9.534   1.101 -0.4549 -0.4166  0.4183
  763MOL0     C 2875   2.564   9.564   1.111  0.0725  0.1339  0.1902
  763MOL0     C 2876   2.607   9.685   1.061 -0.5860 -0.4442 -0.5621
  763MOL0     C 2877   2.518   9.775   0.996 -0.1860  0.5020  0.6473
  763MOL0     O 2878   2.574   9.894   0.952  0.8039  0.3053 -0.5734
  763MOL0     C 2879   2.533   9.947   0.825  0.0891  0.5484 -0.0287
  763MOL0     C 2880   2.641  10.035   0.785 -0.7017 -0.1844 -0.3029
  763MOL0     C 2881   2.607  10.107   0.648  0.1869 -0.2125  0.2910
  763MOL0     C 2882   2.740  10.175   0.595 -0.0485  0.4380 -1.1710
  763MOL0     C 2883   2.725  10.186   0.448 -0.3400 -0.0013  0.3024
  763MOL0     C 2884   2.839  10.273   0.379 -0.1188  1.3575 -0.6148
  763MOL0     C 2885   2.842  10.243   0.231  0.2188 -1.0115 -0.4185
  763MOL0     C 2886   2.914  10.113   0.185  0.5789  0.4206  0.0089
  763MOL0     N 2887   3.053  10.109   0.236 -0.8235  0.4408 -0.1235
  763MOL0     C 2888   3.153  10.197   0.202 -0.2443  0.0466 -1.0015
  763MOL0     C 2889   3.267  10.150   0.262  0.5753 -0.0929 -0.0904
  763MOL0     C 2890   3.414  10.199   0.237 -0.8316 -0.4111 -0.9026
  763MOL0     C 2891   3.429  10.342   0.177 -0.3921 -0.1844 -0.3874
  763MOL0     C 2892   3.581  10.383   0.182  0.2047 -0.7341 -0.3990
  763MOL0     C 2893   3.660  10.327   0.067 -0.4178  0.5282  0.2047
  763MOL0     O 2894   3.601  10.365  -0.056  0.9157 -0.2177  1.0889
  763MOL0     C 2895   3.658  10.338  -0.177 -0.1199  0.1229  0.6281
  763MOL0     C 2896   3.596  10.399  -0.286  0.0602  0.3263 -0.1451
  763MOL0     C 2897   3.647  10.374  -0.409 -0.2226 -0.4971  0.6473
  763MOL0     C 2898   3.767  10.289  -0.431 -0.5206 -0.5088 -0.1920
  763MOL0     C 2899   3.823  10.270  -0.569  0.2808 -0.9846 -0.1963
  763MOL0     O 2900   3.920  10.176  -0.589  0.1206  0.5801 -0.1303
  763MOL0     C 2901   3.971  10.147  -0.709 -0.1160  0.2847  0.0702
  763MOL0     C 2902   4.106  10.143  -0.721 -0.4434  0.4653 -0.7862
  763MOL0     C 2903   4.166  10.091  -0.843  0.1549 -0.1034 -0.0103
  763MOL0     C 2904   4.071  10.027  -0.932 -0.3966 -0.0560  0.3459
  763MOL0     O 2905   4.104   9.964  -1.044 -0.4210  0.7588 -0.2794
  763MOL0     C 2906   4.239   9.933  -1.063 -1.1470  1.0816  0.1075
  763MOL0     C 2907   4.246   9.874  -1.209 -1.0794  0.0536 -0.1931
  763MOL0     C 2908   4.384   9.819  -1.249  0.6137 -0.4647  0.1365
  763MOL0     C 2909   4.372   9.763  -1.397 -0.6102 -0.7583 -0.2545
  763MOL0     C 2910   4.489   9.670  -1.435  0.5092  0.4239  0.1623
  763MOL0     C 2911   4.626   9.743  -1.423 -0.2951  0.0965 -0.7865
  763MOL0     C 2912   4.659   9.862  -1.516  0.1405  0.1320  0.3841
  763MOL0     C 2913   4.670   9.818  -1.656 -0.0767 -0.1540  0.5081
  763MOL0    Cl 2914   4.704   9.953  -1.734 -0.0754 -0.2804 -0.0975
  763MOL0     C 2915   3.932  10.029  -0.905  0.4571 -0.0027  0.4934
  763MOL0     C 2916   3.878  10.093  -0.801 -0.2081 -0.5356 -1.0337
  763MOL0     O 2917   3.780  10.352  -0.650 -0.4291  0.2372  0.2824
  763MOL0     C 2918   3.820  10.219  -0.323  0.0252  0.5770 -0.4035
  763MOL0     C 2919   3.767  10.247  -0.192 -0.8867  0.0558  0.6027
  763MOL0     N 2920   3.237  10.041   0.338 -0.4551  0.6295  0.2076
  763MOL0     N 2921   3.109  10.016   0.317 -0.4987  0.3947  0.1229
  763MOL0     C 2922   2.390   9.731   0.964  0.6268 -0.2324  0.1108
  763MOL0     C 2923   2.339   9.607   1.017 -0.5701  0.3096 -0.6159
  763MOL0     C 2924   2.231   9.232   1.237 -0.4310  0.3094 -0.1579
  763MOL0     C 2925   2.095   9.184   1.234  0.4239  0.8076 -0.3480
  763MOL0     C 2926   2.052   9.055   1.261  0.7068  0.4280  0.2274
  763MOL0     C 2927   2.146   8.956   1.279  0.4530 -0.9435 -0.9326
  763MOL0     O 2928   2.119   8.823   1.320  0.3814 -0.1715  0.4505
  763MOL0     C 2929   1.981   8.777   1.327 -0.0387 -0.6155 -0.1842
  763MOL0     C 2930   1.927   8.729   1.187 -0.1767 -0.8348 -0.8691
  763MOL0     C 2931   1.792   8.674   1.175 -0.1633  0.0308 -0.3748
  763MOL0     C 2932   1.676   8.769   1.212 -0.2751  0.2700 -0.0818
  763MOL0     C 2933   1.555   8.699   1.233 -0.2586  0.1759 -0.8087
  763MOL0     C 2934   1.456   8.629   1.259 -0.6080 -0.2054  0.6235
  763MOL0     C 2935   2.281   8.994   1.278  0.3748  0.5439  0.2935
  763MOL0     C 2936   2.323   9.127   1.250 -0.2243  0.0694 -0.5904
  763MOL0     C 2937   2.476   9.141   1.235 -0.2053  0.6635 -0.5313
  763MOL0     H 2938   2.629   9.486   1.150  0.8090 -0.4850 -2.1005
  763MOL0     H 2939   2.708   9.717   1.085 -1.6982  2.2218  1.0154
  763MOL0     H 2940   2.522   9.864   0.754 -0.2869 -0.1268  0.7961
  763MOL0     H 2941   2.431   9.987   0.831  0.2020  0.7496  0.6982
  763MOL0     H 2942   2.739   9.986   0.777  0.1322  1.0871  1.3400
  763MOL0     H 2943   2.653  10.121   0.851  0.0864  0.5026 -1.3114
  763MOL0     H 2944   2.532  10.186   0.654 -0.9850 -0.8247 -3.5854
  763MOL0     H 2945   2.573  10.034   0.574 -2.9527  0.1983  1.1888
  763MOL0     H 2946   2.754  10.267   0.653 -1.9213  0.1240 -0.1553
  763MOL0     H 2947   2.830  10.114   0.609  1.1193  2.2106 -0.4296
  763MOL0     H 2948   2.713  10.085   0.408  1.1125  0.7955 -2.4052
  763MOL0     H 2949   2.636  10.241   0.416  0.3428  2.7646  2.6751
  763MOL0     H 2950   2.830  10.380   0.399  4.1205  2.0115 -1.2587
  763MOL0     H 2951   2.939  10.246   0.416 -0.7893  0.9135  0.9315
  763MOL0     H 2952   2.882  10.331   0.179 -0.5313 -1.4813 -1.8328
  763MOL0     H 2953   2.740  10.226   0.196 -0.6934 -2.1592  2.5281
  763MOL0     H 2954   2.867  10.031   0.239 -1.6348  1.8961  0.4327
  763MOL0     H 2955   2.905  10.086   0.079 -0.4056  3.0855 -0.6540
  763MOL0     H 2956   3.156  10.277   0.129 -0.2914 -1.5757 -2.8289
  763MOL0     H 2957   3.468  10.200   0.333 -0.8341  1.9316 -0.8730
  763MOL0     H 2958   3.458  10.123   0.172 -1.5573 -1.7783  0.1436
  763MOL0     H 2959   3.388  10.336   0.075  1.0438  1.6342 -1.1202
  763MOL0     H 2960   3.360  10.405   0.234 -1.0054 -2.1197  1.1091
  763MOL0     H 2961   3.626  10.369   0.281 -2.6430  3.5244  1.8253
  763MOL0     H 2962   3.568  10.488   0.155  1.4001 -0.8223 -1.4364
  763MOL0     H 2963   3.668  10.219   0.073 -0.6443  0.4920 -0.1399
  763MOL0     H 2964   3.762  10.367   0.067 -0.5100  0.7734  0.6959
  763MOL0     H 2965   3.499  10.447  -0.272 -0.3124  0.2844 -2.2492
  763MOL0     H 2966   3.590  10.421  -0.488  0.0051 -1.2308  0.0381
  763MOL0     H 2967   4.168  10.172  -0.637 -2.7996  0.6508  0.9732
  763MOL0     H 2968   4.274  10.080  -0.848  0.1423  0.0523 -0.7213
  763MOL0     H 2969   4.306  10.020  -1.055 -0.7654  0.7039  1.2045
  763MOL0     H 2970   4.278   9.854  -0.998  1.2558  0.1705 -2.2640
  763MOL0     H 2971   4.166   9.801  -1.217  1.1018 -2.5551  0.3625
  763MOL0     H 2972   4.220   9.958  -1.275 -4.3644 -0.5923  0.1380
  763MOL0     H 2973   4.465   9.892  -1.241  0.9220 -0.7549 -0.2409
  763MOL0     H 2974   4.412   9.730  -1.190 -2.9770 -1.1015  1.0748
  763MOL0     H 2975   4.371   9.849  -1.465 -2.5172 -0.1854  0.4531
  763MOL0     H 2976   4.275   9.712  -1.403 -1.5259  0.1893  3.6452
  763MOL0     H 2977   4.478   9.625  -1.534  0.2350 -1.0708  0.8471
  763MOL0     H 2978   4.480   9.593  -1.359 -0.8367  0.9951  0.6083
  763MOL0     H 2979   4.638   9.771  -1.318  0.9613 -1.0237 -0.6074
  763MOL0     H 2980   4.707   9.671  -1.432 -0.8795 -0.6993  0.1818
  763MOL0     H 2981   4.755   9.910  -1.493 -0.4528  1.8141 -0.5186
  763MOL0     H 2982   4.588   9.945  -1.512 -1.5079 -0.8987 -3.4864
  763MOL0     H 2983   4.759   9.758  -1.674  1.2709  2.0855 -0.7293
  763MOL0     H 2984   4.581   9.767  -1.694  0.9598 -0.6340 -1.3624
  763MOL0     H 2985   3.870   9.959  -0.960  0.8615 -3.7235  4.2578
  763MOL0     H 2986   3.771  10.089  -0.782  0.5424 -1.9236  4.7913
  763MOL0     H 2987   3.898  10.143  -0.320 -0.3130  0.2394  2.4579
  763MOL0     H 2988   3.811  10.186  -0.114  0.7727 -0.8741 -0.9840
  763MOL0     H 2989   2.323   9.790   0.901 -0.1669 -2.3058 -1.0813
  763MOL0     H 2990   2.239   9.566   1.005 -0.4206 -1.6045  3.1669
  763MOL0     H 2991   2.019   9.261   1.221  1.2126  1.8189  0.8692
  763MOL0     H 2992   1.945   9.039   1.268  0.6798  0.2515 -0.5306
  763MOL0     H 2993   1.923   8.861   1.366 -1.5019  0.2263 -3.7503
  763MOL0     H 2994   1.972   8.705   1.409  1.5127 -0.7114 -0.0700
  763MOL0     H 2995   1.997   8.658   1.142  1.8381  0.1777  0.5611
  763MOL0     H 2996   1.920   8.823   1.131  0.3407  1.5648  2.7410
  763MOL0     H 2997   1.791   8.595   1.251 -2.3655  2.2932  2.2286
  763MOL0     H 2998   1.770   8.625   1.080  0.9849 -1.0071 -0.1333
  763MOL0     H 2999   1.698   8.836   1.296 -0.3679  3.0057 -2.1119
  763MOL0     H 3000   1.661   8.831   1.123 -0.5588 -1.7740 -1.5260
  763MOL0     H 3001   1.365   8.577   1.280 -0.4884  0.3157  2.6058
  763MOL0     H 3002   2.343   8.907   1.297 -0.5797 -0.7427 -2.0999
  763MOL0     H 3003   2.501   9.222   1.303 -2.0583  0.2811  0.6893
  763MOL0     H 3004   2.523   9.047   1.267 -1.8862 -0.2246 -0.5008
  763MOL0     H 3005   2.519   9.163   1.137  1.8295  1.4515  0.4879
  764MOL0     O 3006   9.145   2.206   0.191 -0.1413 -0.5743 -0.2238
  764MOL0     C 3007   9.202   2.111   0.241  0.8754 -0.3279  0.4698
  764MOL0     O 3008   9.151   2.030   0.333 -0.3904  0.3292 -0.5119
  764MOL0     C 3009   9.026   2.052   0.386 -0.0111  0.2105 -0.6129
  764MOL0     C 3010   8.961   1.939   0.442 -0.2664 -0.3689 -0.0721
  764MOL0     C 3011   8.839   1.959   0.511  0.5159  0.3212 -0.5658
  764MOL0     C 3012   8.775   2.086   0.522 -0.4301  0.1716 -0.4782
  764MOL0     O 3013   8.657   2.108   0.576  0.7214 -0.2723 -0.5954
  764MOL0     C 3014   8.551   2.009   0.556  0.8809 -0.2165  0.2800
  764MOL0     C 3015   8.436   2.050   0.637  0.6188  0.5839  1.0130
  764MOL0     C 3016   8.310   1.957   0.612 -0.3929  1.1128  0.1081
  764MOL0     C 3017   8.267   1.940   0.467 -0.5198  0.1722 -0.6161
  764MOL0     C 3018   8.127   1.911   0.434  0.1300  0.1176  0.3821
  764MOL0     C 3019   8.121   1.899   0.282  0.8029 -0.2638  0.0427
  764MOL0     C 3020   8.078   2.037   0.227 -0.0863  0.6038 -0.8321
  764MOL0     C 3021   8.042   2.024   0.085  0.4058 -0.6512  0.6230
  764MOL0     N 3022   8.148   1.984  -0.007 -0.0501 -0.3978 -0.1859
  764MOL0     C 3023   8.234   2.073  -0.066  0.0676 -0.0572 -0.4810
  764MOL0     C 3024   8.298   2.002  -0.162 -0.3540  0.4788  0.2652
  764MOL0     C 3025   8.405   2.056  -0.272 -0.4004  0.9508 -0.1888
  764MOL0     C 3026   8.548   2.023  -0.234  0.0979  0.3518  0.1351
  764MOL0     C 3027   8.649   2.083  -0.334  0.5308 -0.1660  0.7842
  764MOL0     C 3028   8.796   2.032  -0.324  0.0260 -0.1121  0.5426
  764MOL0     O 3029   8.840   2.041  -0.190  0.7128  0.0785  1.0684
  764MOL0     C 3030   8.954   1.976  -0.163  1.3911  1.0632  1.7530
  764MOL0     C 3031   8.981   1.965  -0.032  0.2009  0.1212  0.2383
  764MOL0     C 3032   9.090   1.891   0.013 -0.2490  0.6144  0.4330
  764MOL0     C 3033   9.186   1.833  -0.071 -1.1714 -0.5250 -0.1604
  764MOL0     C 3034   9.294   1.732  -0.024  0.0203 -1.1670  0.5496
  764MOL0     O 3035   9.334   1.751   0.102 -1.0205 -0.0319  0.8321
  764MOL0     C 3036   9.439   1.664   0.144 -0.1024  0.3504  0.2198
  764MOL0     C 3037   9.566   1.667   0.087 -1.1103 -0.1027 -0.3457
  764MOL0     C 3038   9.658   1.575   0.123  0.2748 -0.4005 -0.1017
  764MOL0     C 3039   9.635   1.482   0.228 -0.1066 -0.7397  0.1285
  764MOL0     O 3040   9.715   1.374   0.263  0.2262  0.8969 -0.4385
  764MOL0     C 3041   9.755   1.296   0.149  0.2022 -0.8699 -0.8377
  764MOL0     C 3042   9.800   1.165   0.199  0.4678 -0.3799 -0.0482
  764MOL0     C 3043   9.911   1.169   0.298 -0.4292  0.4729  0.6224
  764MOL0     C 3044  10.017   1.062   0.277  0.1265  0.2832 -0.2558
  764MOL0     C 3045  10.025   0.945   0.385  0.1494  0.2444  0.5839
  764MOL0     C 3046   9.895   0.877   0.420 -0.0166  0.1457 -0.7980
  764MOL0     C 3047   9.818   0.830   0.303  0.0566 -0.3825 -0.1007
  764MOL0     C 3048   9.697   0.729   0.335  0.2503  0.3491 -0.3388
  764MOL0    Cl 3049   9.760   0.570   0.376 -0.3201  0.4634 -0.0482
  764MOL0     C 3050   9.512   1.477   0.285 -0.5970  0.2359  0.4440
  764MOL0     C 3051   9.417   1.574   0.247  0.9021  0.3290  0.2417
  764MOL0     O 3052   9.337   1.639  -0.099  0.6667 -0.1829  0.2333
  764MOL0     C 3053   9.170   1.849  -0.208 -0.2752 -0.4090 -0.0079
  764MOL0     C 3054   9.047   1.914  -0.254 -0.4567  0.2850  0.5600
  764MOL0     N 3055   8.259   1.872  -0.144 -0.1295  0.2419 -0.1965
  764MOL0     N 3056   8.162   1.861  -0.064 -0.1305 -0.1977 -0.2028
  764MOL0     C 3057   8.840   2.196   0.460 -0.3860  0.3799  0.1206
  764MOL0     C 3058   8.962   2.180   0.397  0.0260  0.2370 -0.9974
  764MOL0     C 3059   9.344   2.083   0.199  0.5723 -0.6031 -0.2292
  764MOL0     C 3060   9.422   1.999   0.277  0.5409  0.4963  0.3442
  764MOL0     C 3061   9.556   1.975   0.259 -0.3323  0.2200 -0.0131
  764MOL0     C 3062   9.618   2.020   0.145 -1.2003 -0.1182 -0.1612
  764MOL0     O 3063   9.751   1.986   0.133 -0.1186  0.9184 -0.4951
  764MOL0     C 3064   9.826   2.043   0.026 -0.4288  0.2006  0.0153
  764MOL0     C 3065   9.966   2.002   0.037  0.1554  0.5020  0.5186
  764MOL0     C 3066   9.972   1.859  -0.011 -1.9335  0.1329  0.8818
  764MOL0     C 3067  10.116   1.807  -0.003 -1.5432 -0.1205 -0.3399
  764MOL0     C 3068  10.207   1.890  -0.079 -0.1319 -0.7514 -0.7485
  764MOL0     C 3069  10.298   1.956  -0.131  0.9043 -0.3097  0.5040
  764MOL0     C 3070   9.538   2.088   0.046  0.5045  0.6528  0.3465
  764MOL0     C 3071   9.403   2.115   0.071 -0.5068 -0.0072 -0.4558
  764MOL0     C 3072   9.327   2.187  -0.039 -0.5215  0.3012 -0.6374
  764MOL0     H 3073   9.001   1.842   0.414 -0.0035 -0.0800 -0.7212
  764MOL0     H 3074   8.786   1.875   0.555  1.6696  0.6392  1.5806
  764MOL0     H 3075   8.533   1.998   0.449  0.3757  2.2004  0.0689
  764MOL0     H 3076   8.579   1.908   0.589  1.2730  0.0061  0.6426
  764MOL0     H 3077   8.416   2.156   0.618 -1.9059 -0.1137 -0.8212
  764MOL0     H 3078   8.455   2.028   0.742  2.0282  0.0917  0.6717
  764MOL0     H 3079   8.226   2.003   0.664  0.3941  2.6789  0.0551
  764MOL0     H 3080   8.335   1.857   0.649  2.8501  0.7588 -2.5569
  764MOL0     H 3081   8.278   2.044   0.434 -2.8598  1.2469  1.6144
  764MOL0     H 3082   8.331   1.870   0.412 -1.0903 -0.6798 -0.2164
  764MOL0     H 3083   8.104   1.813   0.477  0.6858  0.0108  0.4373
  764MOL0     H 3084   8.044   1.966   0.480 -1.7644 -0.4928 -2.1009
  764MOL0     H 3085   8.213   1.864   0.235  0.7239 -1.9832  1.0756
  764MOL0     H 3086   8.047   1.824   0.254  1.4806 -0.3672 -1.5362
  764MOL0     H 3087   8.170   2.096   0.231  0.7624 -0.7081 -0.2313
  764MOL0     H 3088   7.995   2.085   0.279  1.7733  1.2333  1.7928
  764MOL0     H 3089   7.966   1.948   0.066  0.0053 -0.4071  1.2181
  764MOL0     H 3090   7.988   2.113   0.052  0.4902 -1.3221 -1.4668
  764MOL0     H 3091   8.239   2.181  -0.057  1.3934  0.3795 -4.4523
  764MOL0     H 3092   8.376   2.010  -0.367 -2.3322 -1.1098  1.2868
  764MOL0     H 3093   8.391   2.164  -0.282 -0.6220  1.1717  2.1380
  764MOL0     H 3094   8.573   2.065  -0.136 -1.8309 -1.4323  1.4868
  764MOL0     H 3095   8.570   1.916  -0.237  0.6352  0.2905  2.9503
  764MOL0     H 3096   8.655   2.192  -0.323  1.7265  0.2186 -2.6153
  764MOL0     H 3097   8.615   2.080  -0.437 -0.2931 -2.3095  1.0691
  764MOL0     H 3098   8.855   2.093  -0.393 -0.6670  1.3836  1.2017
  764MOL0     H 3099   8.792   1.926  -0.349 -0.3742  0.1454 -0.5330
  764MOL0     H 3100   8.907   2.012   0.032  0.9851  0.6404  0.7688
  764MOL0     H 3101   9.116   1.867   0.116  1.9866 -1.5902 -0.5493
  764MOL0     H 3102   9.603   1.715  -0.003 -0.8291  2.9880  1.2982
  764MOL0     H 3103   9.745   1.575   0.058  0.2643 -0.0120 -0.1191
  764MOL0     H 3104   9.680   1.269   0.074  0.1171  0.7942 -1.3965
  764MOL0     H 3105   9.834   1.346   0.093  0.1844 -2.9645 -2.8601
  764MOL0     H 3106   9.709   1.123   0.242 -0.9841  2.3951 -0.1957
  764MOL0     H 3107   9.827   1.115   0.105 -0.3399  2.7747 -2.1447
  764MOL0     H 3108   9.946   1.272   0.296 -1.6614  1.0131 -3.8653
  764MOL0     H 3109   9.866   1.150   0.396 -0.7304  1.2919  0.6454
  764MOL0     H 3110  10.115   1.111   0.285 -0.0253  0.3785  1.2754
  764MOL0     H 3111  10.009   1.021   0.176  0.1063 -1.2932  0.3573
  764MOL0     H 3112  10.065   0.987   0.477  1.5704  0.1913  0.0162
  764MOL0     H 3113  10.096   0.872   0.346  1.1708  2.1771 -1.4341
  764MOL0     H 3114   9.923   0.788   0.476  0.4783 -0.6736 -2.2937
  764MOL0     H 3115   9.834   0.944   0.481  0.3218 -0.4270  0.1813
  764MOL0     H 3116   9.873   0.781   0.223 -1.6825 -1.0169 -0.9629
  764MOL0     H 3117   9.763   0.911   0.255 -0.4520  0.4176  1.7166
  764MOL0     H 3118   9.623   0.756   0.411  1.3884  0.6760  0.6934
  764MOL0     H 3119   9.635   0.721   0.246 -3.9950 -1.5116  2.4992
  764MOL0     H 3120   9.490   1.404   0.362 -0.2446 -0.7380 -0.3552
  764MOL0     H 3121   9.321   1.553   0.293 -1.1359  0.0072 -3.7331
  764MOL0     H 3122   9.241   1.807  -0.279 -1.2814  0.8281 -1.8252
  764MOL0     H 3123   9.021   1.911  -0.359 -0.2340  0.2176  0.5066
  764MOL0     H 3124   8.788   2.291   0.456 -0.7584  0.2808  1.6810
  764MOL0     H 3125   9.001   2.278   0.369 -0.8798  0.9536  0.1531
  764MOL0     H 3126   9.390   1.945   0.365  2.9470 -0.5891  0.6387
  764MOL0     H 3127   9.611   1.903   0.320  1.7099  1.7116  0.0277
  764MOL0     H 3128   9.829   2.152   0.038  0.3708  0.0447  1.5441
  764MOL0     H 3129   9.781   2.021  -0.071 -1.3812 -0.8609  0.6722
  764MOL0     H 3130   9.996   2.022   0.140 -2.6639 -2.2228  2.0308
  764MOL0     H 3131  10.029   2.063  -0.029  0.2615  0.5656  0.6773
  764MOL0     H 3132   9.935   1.865  -0.113  2.2322 -0.5050 -0.8434
  764MOL0     H 3133   9.914   1.797   0.059 -1.0892 -0.2774  1.2367
  764MOL0     H 3134  10.156   1.804   0.099 -0.0616  3.1136 -0.7077
  764MOL0     H 3135  10.123   1.708  -0.049 -0.3519  0.5966 -1.7798
  764MOL0     H 3136  10.383   2.008  -0.170 -1.6687  1.8010 -2.7986
  764MOL0     H 3137   9.582   2.129  -0.044  0.0949 -1.0655 -0.6891
  764MOL0     H 3138   9.348   2.292  -0.020  0.8580 -0.0869  0.1721
  764MOL0     H 3139   9.374   2.154  -0.132  0.5185  0.8183 -0.3126
  764MOL0     H 3140   9.221   2.164  -0.049  0.1618 -3.8121 -0.3552
  765MOL0     O 3141   2.051   4.782   8.558  0.4992 -0.1330  0.4911
  765MOL0     C 3142   2.018   4.832   8.667  0.2531 -0.6792  0.2006
  765MOL0     O 3143   2.108   4.883   8.755  0.6739 -0.0947  0.7195
  765MOL0     C 3144   2.241   4.894   8.726  0.1955  0.2327 -0.2108
  765MOL0     C 3145   2.297   4.952   8.610 -0.6136  0.0130  0.0745
  765MOL0     C 3146   2.439   4.983   8.610  0.3614  0.4079 -0.3059
  765MOL0     C 3147   2.519   4.936   8.713 -0.3522 -0.4355 -0.8377
  765MOL0     O 3148   2.655   4.955   8.714 -0.2029  0.0148  0.3141
  765MOL0     C 3149   2.707   5.063   8.636  0.3941  0.0435  0.2911
  765MOL0     C 3150   2.854   5.078   8.656  0.3334 -0.1109 -0.1704
  765MOL0     C 3151   2.934   5.120   8.533  0.1957  0.1460  0.7260
  765MOL0     C 3152   3.060   5.207   8.550  0.5588 -0.2793  0.3079
  765MOL0     C 3153   3.135   5.229   8.411  0.4687  0.2218  0.0172
  765MOL0     C 3154   3.260   5.305   8.456  0.1269 -0.1264  0.2244
  765MOL0     C 3155   3.360   5.319   8.333  1.0297 -0.3126  0.4054
  765MOL0     C 3156   3.490   5.388   8.381  0.0007  0.6196 -0.0951
  765MOL0     N 3157   3.583   5.412   8.263 -0.2171 -0.7413  0.1522
  765MOL0     C 3158   3.686   5.324   8.224  0.0681  0.6914  0.4856
  765MOL0     C 3159   3.765   5.395   8.139  1.0284  0.5016 -0.3918
  765MOL0     C 3160   3.871   5.358   8.046  0.2082  0.0991  0.1544
  765MOL0     C 3161   3.978   5.263   8.124 -0.3064 -0.3446  0.8998
  765MOL0     C 3162   4.100   5.346   8.197  0.8939 -0.2388  0.7437
  765MOL0     C 3163   4.071   5.366   8.339 -0.1970 -0.0670  0.2057
  765MOL0     O 3164   4.176   5.420   8.425 -0.4083  0.1823 -0.7176
  765MOL0     C 3165   4.253   5.330   8.485 -0.6143 -0.6829 -0.0397
  765MOL0     C 3166   4.392   5.345   8.458  0.1695  0.2131 -0.1748
  765MOL0     C 3167   4.480   5.262   8.520 -0.0501 -0.0544 -0.3721
  765MOL0     C 3168   4.435   5.161   8.605 -0.2615  0.2025  0.3552
  765MOL0     C 3169   4.538   5.077   8.667  0.3310 -0.2849  1.0810
  765MOL0     O 3170   4.669   5.136   8.688 -0.0138  0.6083 -0.6215
  765MOL0     C 3171   4.772   5.055   8.728  0.0197  0.8827  0.4844
  765MOL0     C 3172   4.799   4.934   8.665  0.3065  0.1071  0.0541
  765MOL0     C 3173   4.908   4.857   8.699 -0.2519 -0.6320  0.4309
  765MOL0     C 3174   4.994   4.909   8.797 -0.0278 -0.4758 -0.6256
  765MOL0     O 3175   5.114   4.858   8.826  0.0742  1.0864 -1.0404
  765MOL0     C 3176   5.156   4.745   8.745 -0.2428 -0.2712 -0.5180
  765MOL0     C 3177   5.308   4.719   8.764  0.1285  0.1205  0.0106
  765MOL0     C 3178   5.350   4.672   8.898 -0.2946  0.3344  0.0928
  765MOL0     C 3179   5.407   4.781   8.987 -0.1409 -0.1008  0.2990
  765MOL0     C 3180   5.415   4.742   9.133  0.3152 -0.4707 -0.2202
  765MOL0     C 3181   5.490   4.860   9.202 -0.9650 -0.3468  0.1446
  765MOL0     C 3182   5.517   4.822   9.348  0.6707 -0.1862 -0.1144
  765MOL0     C 3183   5.547   4.944   9.439 -0.1860  0.0394 -0.3420
  765MOL0    Cl 3184   5.672   5.056   9.383  0.0421  0.3215 -0.1749
  765MOL0     C 3185   4.967   5.033   8.863 -0.8739 -0.1437  0.0725
  765MOL0     C 3186   4.852   5.097   8.829 -0.5708 -0.2339  0.4415
  765MOL0     O 3187   4.489   4.970   8.705 -0.4485 -0.5716  0.6367
  765MOL0     C 3188   4.299   5.141   8.622 -0.3634 -0.1324  0.1272
  765MOL0     C 3189   4.211   5.234   8.581  0.7095  0.1598  0.2681
  765MOL0     N 3190   3.707   5.520   8.137 -0.7972 -0.6832 -0.2420
  765MOL0     N 3191   3.614   5.538   8.211 -0.0596 -0.3424 -0.4912
  765MOL0     C 3192   2.456   4.880   8.826 -0.6505 -0.2796  0.0219
  765MOL0     C 3193   2.318   4.863   8.843  0.3943 -0.0438 -0.1174
  765MOL0     C 3194   1.871   4.857   8.694 -0.4632 -0.2438  0.4699
  765MOL0     C 3195   1.792   4.884   8.576 -0.0146  0.7419  0.1800
  765MOL0     C 3196   1.649   4.893   8.593  0.4773  0.5981  0.5205
  765MOL0     C 3197   1.583   4.891   8.714 -0.0905  0.4505  0.0860
  765MOL0     O 3198   1.452   4.930   8.716  0.1686 -1.0003 -0.4228
  765MOL0     C 3199   1.381   4.951   8.833 -0.6857  0.4057  0.1583
  765MOL0     C 3200   1.232   4.958   8.806 -0.4453 -0.0768  0.4876
  765MOL0     C 3201   1.172   4.819   8.780  0.0816 -0.2430  0.3642
  765MOL0     C 3202   1.026   4.832   8.746  0.6889 -1.4533  0.1050
  765MOL0     C 3203   0.929   4.884   8.852  0.0986 -0.9756  0.0675
  765MOL0     C 3204   0.842   4.919   8.925  0.0809 -0.4759 -0.5438
  765MOL0     C 3205   1.665   4.872   8.828 -0.6577  0.5989  0.1033
  765MOL0     C 3206   1.803   4.851   8.821  0.6026  0.3523  0.3556
  765MOL0     C 3207   1.885   4.811   8.943 -0.3040  0.6996  0.2282
  765MOL0     H 3208   2.231   4.972   8.526 -2.5777 -0.2414  1.4758
  765MOL0     H 3209   2.476   5.037   8.523  0.7588  1.1517  0.3143
  765MOL0     H 3210   2.702   5.039   8.529  0.7319 -0.1519  0.3175
  765MOL0     H 3211   2.660   5.161   8.644 -0.5518 -0.4156  0.5551
  765MOL0     H 3212   2.889   4.982   8.695  1.8901 -0.9650 -3.3151
  765MOL0     H 3213   2.869   5.156   8.732  0.7079  0.2633 -0.6213
  765MOL0     H 3214   2.868   5.181   8.472  1.6954  3.1794  1.9042
  765MOL0     H 3215   2.969   5.029   8.482  0.1707  0.3193  0.4005
  765MOL0     H 3216   3.036   5.300   8.603 -0.1976 -0.4723  0.3254
  765MOL0     H 3217   3.127   5.156   8.621  2.3341  1.2961 -0.1766
  765MOL0     H 3218   3.166   5.130   8.374 -0.5488  0.7071 -2.3237
  765MOL0     H 3219   3.066   5.268   8.336  0.4964  0.4488  0.1097
  765MOL0     H 3220   3.235   5.399   8.505  1.1775 -0.8748  2.2983
  765MOL0     H 3221   3.323   5.246   8.523  0.5158 -1.2369 -1.0650
  765MOL0     H 3222   3.307   5.379   8.259  2.2081  1.1906  0.7384
  765MOL0     H 3223   3.393   5.218   8.305  1.0379 -0.2806  0.3000
  765MOL0     H 3224   3.470   5.483   8.433  2.6990  1.1616  0.1015
  765MOL0     H 3225   3.540   5.316   8.446  0.4519  1.3707  0.4150
  765MOL0     H 3226   3.684   5.216   8.238 -0.6950  0.7957  1.2562
  765MOL0     H 3227   3.825   5.328   7.952  1.8195  1.8017 -1.2654
  765MOL0     H 3228   3.933   5.446   8.024  1.9010 -0.4214  2.4321
  765MOL0     H 3229   3.923   5.200   8.194 -3.4905  1.1512 -0.0423
  765MOL0     H 3230   4.026   5.201   8.048 -0.2718  0.5383  0.1808
  765MOL0     H 3231   4.135   5.439   8.152 -0.3956 -0.3087 -0.4723
  765MOL0     H 3232   4.185   5.277   8.200 -0.5607 -2.5795 -3.2072
  765MOL0     H 3233   4.041   5.275   8.391  0.2564 -0.1992  0.2384
  765MOL0     H 3234   3.990   5.440   8.336  0.3445  0.5156 -1.0700
  765MOL0     H 3235   4.437   5.428   8.403  1.6693 -0.5135 -0.0791
  765MOL0     H 3236   4.583   5.278   8.490 -0.0745 -1.5868 -1.3976
  765MOL0     H 3237   4.735   4.896   8.586 -0.1819  0.0395  0.4736
  765MOL0     H 3238   4.924   4.762   8.649  1.5450  1.4340 -3.3255
  765MOL0     H 3239   5.083   4.666   8.762 -0.8497  0.1430 -1.1308
  765MOL0     H 3240   5.134   4.760   8.639 -2.9089 -0.3989 -0.0437
  765MOL0     H 3241   5.329   4.636   8.695 -0.4466  1.8317 -2.3306
  765MOL0     H 3242   5.361   4.806   8.726 -2.2323  1.0490 -1.3467
  765MOL0     H 3243   5.263   4.633   8.952  1.3263 -0.2856  2.4048
  765MOL0     H 3244   5.416   4.587   8.881  1.6242  1.5067  1.2660
  765MOL0     H 3245   5.346   4.871   8.974 -0.2425 -0.4616 -2.2215
  765MOL0     H 3246   5.506   4.807   8.948 -0.4537  0.3930 -0.1941
  765MOL0     H 3247   5.474   4.650   9.137  1.0707  0.0596  1.6388
  765MOL0     H 3248   5.316   4.734   9.180  0.7767 -2.3940  0.5331
  765MOL0     H 3249   5.584   4.869   9.149 -1.8303  0.6371 -1.2928
  765MOL0     H 3250   5.440   4.957   9.187 -1.2108 -0.3352  0.9561
  765MOL0     H 3251   5.600   4.752   9.355 -0.9208 -2.3022 -1.1122
  765MOL0     H 3252   5.429   4.774   9.392  1.4788 -0.2970  1.4517
  765MOL0     H 3253   5.456   5.003   9.451 -0.2075  0.0965 -0.7713
  765MOL0     H 3254   5.584   4.915   9.538  0.7282  2.9730  0.2648
  765MOL0     H 3255   5.025   5.080   8.941 -5.6817  3.5462  1.9558
  765MOL0     H 3256   4.832   5.189   8.883  0.3185  1.6416 -2.2281
  765MOL0     H 3257   4.266   5.065   8.693  0.0576 -1.4360 -1.0175
  765MOL0     H 3258   4.109   5.228   8.616  0.4559  0.8692 -0.3283
  765MOL0     H 3259   2.515   4.864   8.916 -3.1680 -0.2577  1.7815
  765MOL0     H 3260   2.287   4.842   8.944  0.8738  1.5830  0.4012
  765MOL0     H 3261   1.834   4.891   8.476 -0.9533  1.3685 -0.1840
  765MOL0     H 3262   1.585   4.913   8.507  0.8102  3.5757  0.8628
  765MOL0     H 3263   1.416   5.045   8.876  1.3994  0.1970 -0.9778
  765MOL0     H 3264   1.413   4.876   8.906  0.8485 -0.2329 -1.1156
  765MOL0     H 3265   1.217   5.020   8.718  1.1577  1.8000  1.4574
  765MOL0     H 3266   1.184   5.010   8.890  0.7510  2.6407 -0.3866
  765MOL0     H 3267   1.171   4.749   8.864 -1.5070 -1.9017 -0.9405
  765MOL0     H 3268   1.218   4.775   8.691  1.2091  1.6648 -0.0419
  765MOL0     H 3269   1.004   4.896   8.660 -1.0289  1.2520  2.3480
  765MOL0     H 3270   0.996   4.731   8.717  0.4893 -0.9402 -1.5750
  765MOL0     H 3271   0.765   4.955   8.991 -1.3634 -0.8408 -1.9530
  765MOL0     H 3272   1.622   4.861   8.927  3.2342 -3.5918  1.6569
  765MOL0     H 3273   1.950   4.898   8.953 -0.2139  0.6549  0.0335
  765MOL0     H 3274   1.815   4.804   9.027 -1.1447 -1.6749 -0.5882
  765MOL0     H 3275   1.933   4.714   8.929 -2.1450 -0.1901 -0.2271
  766MOL0     O 3276  11.220  11.376   0.943 -0.3530  0.4490  0.0537
  766MOL0     C 3277  11.250  11.472   1.016  0.9320  1.2032  1.2023
  766MOL0     O 3278  11.169  11.577   1.057  0.0020 -0.1451  0.5673
  766MOL0     C 3279  11.043  11.592   0.993  0.2714  1.4962 -0.8895
  766MOL0     C 3280  10.969  11.686   1.047  0.6371 -0.3903 -0.6856
  766MOL0     C 3281  10.841  11.725   1.009  0.3498  0.1010 -0.7204
  766MOL0     C 3282  10.776  11.656   0.900  0.3214 -0.5731 -0.2988
  766MOL0     O 3283  10.647  11.681   0.854  0.1241 -0.4551  0.1898
  766MOL0     C 3284  10.585  11.782   0.932  0.2093 -0.9238  0.9093
  766MOL0     C 3285  10.431  11.784   0.897  0.3255 -0.0297  0.4326
  766MOL0     C 3286  10.400  11.795   0.749  0.0453 -0.0634  0.8544
  766MOL0     C 3287  10.403  11.943   0.694 -0.9141 -0.0779  0.4804
  766MOL0     C 3288  10.384  11.960   0.546 -0.1524 -1.0647 -0.2036
  766MOL0     C 3289  10.267  11.879   0.485 -0.9670  0.8814 -0.4914
  766MOL0     C 3290  10.221  11.928   0.341 -0.2259 -0.7186  0.8844
  766MOL0     C 3291  10.332  11.927   0.238 -0.7473  0.0204 -0.6689
  766MOL0     N 3292  10.306  12.028   0.136  1.4429  0.1063  0.6730
  766MOL0     C 3293  10.309  12.162   0.146 -0.6846 -0.2960  0.5101
  766MOL0     C 3294  10.282  12.207   0.020  0.6732  0.8834  0.0983
  766MOL0     C 3295  10.285  12.351  -0.027  0.4396 -0.0914  0.4064
  766MOL0     C 3296  10.171  12.392  -0.106 -0.1006 -0.7174 -0.4508
  766MOL0     C 3297  10.193  12.529  -0.170 -0.0109  0.2471  0.6595
  766MOL0     C 3298  10.052  12.592  -0.188 -0.4932 -0.1720  0.0610
  766MOL0     O 3299  10.050  12.720  -0.240 -0.5245  0.1269  0.3229
  766MOL0     C 3300  10.118  12.723  -0.358  0.6783  0.0441 -0.1047
  766MOL0     C 3301  10.237  12.795  -0.377  0.2314  0.0144 -0.4353
  766MOL0     C 3302  10.301  12.784  -0.508  0.9291 -0.4973 -0.1222
  766MOL0     C 3303  10.232  12.733  -0.624 -0.0309 -0.1548  0.2771
  766MOL0     C 3304  10.286  12.742  -0.762 -0.1229  0.2659  0.1905
  766MOL0     O 3305  10.218  12.687  -0.864  0.2862  0.5673 -0.3009
  766MOL0     C 3306  10.279  12.679  -0.987 -0.1100 -0.2130  0.5621
  766MOL0     C 3307  10.351  12.787  -1.043  0.4044 -0.2530  0.5304
  766MOL0     C 3308  10.412  12.781  -1.173 -0.2357 -0.0361  0.2017
  766MOL0     C 3309  10.405  12.661  -1.248  0.5159  0.7510  1.0280
  766MOL0     O 3310  10.432  12.649  -1.382 -0.3461 -0.6663 -0.1910
  766MOL0     C 3311  10.540  12.737  -1.429  0.4984 -0.9360 -0.4293
  766MOL0     C 3312  10.566  12.695  -1.573 -0.4629  0.2980 -0.5420
  766MOL0     C 3313  10.706  12.762  -1.614  0.2930 -0.8422 -0.3059
  766MOL0     C 3314  10.768  12.698  -1.750 -0.2578 -0.4958 -0.8344
  766MOL0     C 3315  10.862  12.801  -1.809 -0.4152  0.1905 -0.1509
  766MOL0     C 3316  10.973  12.841  -1.704  0.6595  0.4706  1.3520
  766MOL0     C 3317  11.093  12.900  -1.788 -0.5883 -0.0645  0.1684
  766MOL0     C 3318  11.203  12.950  -1.705 -1.1395 -0.2768  0.2339
  766MOL0    Cl 3319  11.361  12.986  -1.792 -0.3876 -0.1634 -0.1146
  766MOL0     C 3320  10.346  12.552  -1.191  0.1706 -0.4188  0.1694
  766MOL0     C 3321  10.281  12.560  -1.065 -0.6657 -0.5550 -0.0864
  766MOL0     O 3322  10.394  12.802  -0.770  0.2324 -0.3834 -0.0272
  766MOL0     C 3323  10.108  12.665  -0.603 -0.5167  0.5761 -0.0006
  766MOL0     C 3324  10.054  12.666  -0.467  0.0654  0.4222  0.2933
  766MOL0     N 3325  10.242  12.098  -0.055  0.1812  0.4258  0.1530
  766MOL0     N 3326  10.261  11.989   0.011  0.6546 -0.3443  0.0665
  766MOL0     C 3327  10.843  11.555   0.837  0.1651  0.2220  0.2835
  766MOL0     C 3328  10.974  11.523   0.884  1.0184  0.5984 -0.2879
  766MOL0     C 3329  11.387  11.454   1.076  0.2422 -0.1268  0.4963
  766MOL0     C 3330  11.456  11.571   1.117  0.6811  0.0964  0.3322
  766MOL0     C 3331  11.589  11.575   1.162 -0.2292 -0.5163  0.3110
  766MOL0     C 3332  11.657  11.456   1.182 -0.6103 -0.0309  0.1953
  766MOL0     O 3333  11.778  11.461   1.254  0.0852  0.2143  0.5342
  766MOL0     C 3334  11.879  11.361   1.230 -0.5941  0.0871 -1.0335
  766MOL0     C 3335  12.017  11.418   1.263 -0.1268  0.1887  0.8590
  766MOL0     C 3336  12.061  11.531   1.160  0.3064 -0.2352 -0.2820
  766MOL0     C 3337  12.221  11.545   1.143  0.2209 -0.3435  0.1703
  766MOL0     C 3338  12.245  11.635   1.034  0.0819  0.4520  0.5088
  766MOL0     C 3339  12.257  11.699   0.928  0.0925  0.0933  0.6393
  766MOL0     C 3340  11.592  11.339   1.136  0.1848 -0.2423 -0.5690
  766MOL0     C 3341  11.465  11.333   1.073 -0.7484 -0.5981 -0.5808
  766MOL0     C 3342  11.435  11.199   1.012  0.1514  0.4182  0.3093
  766MOL0     H 3343  11.018  11.735   1.131 -1.0144  1.8827 -0.9534
  766MOL0     H 3344  10.807  11.808   1.070  0.7811  1.4767 -2.2836
  766MOL0     H 3345  10.597  11.777   1.041  1.2318 -1.2804  0.7923
  766MOL0     H 3346  10.621  11.878   0.894  2.2897 -1.5062  1.2400
  766MOL0     H 3347  10.388  11.872   0.945 -2.8939 -1.1231 -0.2307
  766MOL0     H 3348  10.393  11.688   0.934  1.5426 -0.5570  0.3846
  766MOL0     H 3349  10.296  11.767   0.736  0.7803 -1.6991 -3.0166
  766MOL0     H 3350  10.470  11.733   0.691  0.1085  1.0701 -0.3452
  766MOL0     H 3351  10.329  12.005   0.745  1.2649 -1.6659  6.3878
  766MOL0     H 3352  10.495  11.991   0.727 -2.0873  0.3016  3.5121
  766MOL0     H 3353  10.368  12.067   0.530  0.1825 -1.0114 -0.1712
  766MOL0     H 3354  10.483  11.939   0.506  0.1849  2.1689 -1.3542
  766MOL0     H 3355  10.285  11.771   0.482  0.5992  0.9189  2.8123
  766MOL0     H 3356  10.177  11.884   0.548 -0.1801  1.2526  0.6400
  766MOL0     H 3357  10.182  12.031   0.341 -0.4117 -0.7879  0.8146
  766MOL0     H 3358  10.141  11.861   0.307 -1.9746  0.5309  2.2941
  766MOL0     H 3359  10.421  11.959   0.293  0.8716  0.9647 -3.6297
  766MOL0     H 3360  10.349  11.824   0.204  0.2189 -0.6159  1.5546
  766MOL0     H 3361  10.322  12.224   0.234 -2.3163 -1.0486  1.3281
  766MOL0     H 3362  10.283  12.417   0.060 -0.7004  3.1640 -1.8986
  766MOL0     H 3363  10.373  12.377  -0.087 -1.8806  1.6370 -2.5738
  766MOL0     H 3364  10.155  12.322  -0.188  0.7339 -0.9439 -0.4308
  766MOL0     H 3365  10.080  12.395  -0.046 -0.6676  0.4885 -1.3050
  766MOL0     H 3366  10.257  12.527  -0.259  2.2051  1.9842  2.0891
  766MOL0     H 3367  10.253  12.583  -0.095 -3.5696  1.6280  2.7543
  766MOL0     H 3368  10.002  12.604  -0.092  2.2644  0.8657  1.4629
  766MOL0     H 3369   9.991  12.527  -0.252  2.2134 -2.0393 -0.7924
  766MOL0     H 3370  10.264  12.842  -0.283 -1.0748  0.5776 -0.3131
  766MOL0     H 3371  10.395  12.835  -0.527  1.3028 -0.7074  1.0507
  766MOL0     H 3372  10.336  12.881  -0.991 -1.6911 -0.6454  0.7222
  766MOL0     H 3373  10.451  12.876  -1.208 -0.7302 -0.0639 -0.4416
  766MOL0     H 3374  10.496  12.837  -1.431 -2.0935 -1.9940 -1.8829
  766MOL0     H 3375  10.635  12.729  -1.375 -0.4702  0.7815  1.6789
  766MOL0     H 3376  10.574  12.586  -1.569 -1.1811  0.2834  1.2396
  766MOL0     H 3377  10.490  12.726  -1.644 -0.5778 -2.4973 -1.7470
  766MOL0     H 3378  10.687  12.868  -1.631  0.5367 -0.5076  1.3666
  766MOL0     H 3379  10.784  12.746  -1.538  0.7133 -0.6657 -0.6980
  766MOL0     H 3380  10.690  12.675  -1.824 -0.0196  1.6856 -1.8393
  766MOL0     H 3381  10.828  12.611  -1.722  0.2514  0.3063  0.6855
  766MOL0     H 3382  10.806  12.885  -1.849  0.7596  0.6023 -0.9783
  766MOL0     H 3383  10.904  12.756  -1.900  1.3759 -0.0558  0.7466
  766MOL0     H 3384  10.932  12.914  -1.634  2.2562  2.5627  0.2346
  766MOL0     H 3385  11.003  12.754  -1.644 -0.5015 -1.5683 -0.8057
  766MOL0     H 3386  11.061  12.989  -1.843 -0.1776 -0.3871 -0.6222
  766MOL0     H 3387  11.134  12.822  -1.853  2.5844  0.2606  1.6076
  766MOL0     H 3388  11.178  13.034  -1.641 -2.0613 -0.8252  0.6036
  766MOL0     H 3389  11.219  12.871  -1.631  0.0598  0.8524  1.2139
  766MOL0     H 3390  10.345  12.449  -1.226 -0.1502 -0.4710  0.3272
  766MOL0     H 3391  10.245  12.476  -1.007  1.0281  0.4112  2.5576
  766MOL0     H 3392  10.063  12.610  -0.684  0.5986 -0.1782 -0.1295
  766MOL0     H 3393   9.958  12.618  -0.448 -1.1973  2.6253 -0.2348
  766MOL0     H 3394  10.792  11.497   0.761  1.8268 -1.2302  0.2167
  766MOL0     H 3395  11.030  11.439   0.846  0.1815 -0.4919  0.8117
  766MOL0     H 3396  11.413  11.671   1.107 -0.4810 -0.3465  0.8269
  766MOL0     H 3397  11.624  11.671   1.199  2.2447 -1.6257  1.0624
  766MOL0     H 3398  11.879  11.314   1.131 -0.1443 -0.0463 -0.9752
  766MOL0     H 3399  11.868  11.284   1.307  0.0300  0.3721 -0.6590
  766MOL0     H 3400  12.091  11.338   1.260  2.7239  2.5140 -4.0365
  766MOL0     H 3401  12.015  11.455   1.366  2.4270  0.8765  0.7222
  766MOL0     H 3402  12.024  11.625   1.204  0.3454  0.8452 -2.4335
  766MOL0     H 3403  12.013  11.523   1.062 -0.2510 -1.1484  0.0538
  766MOL0     H 3404  12.265  11.595   1.230 -1.5360 -0.2375  1.0407
  766MOL0     H 3405  12.265  11.446   1.130  1.8692 -0.0497  2.7825
  766MOL0     H 3406  12.265  11.762   0.842  1.0144 -0.4792  0.2899
  766MOL0     H 3407  11.652  11.250   1.152 -0.0061 -0.0815  1.1999
  766MOL0     H 3408  11.512  11.127   1.041  2.3538  3.3436  2.3281
  766MOL0     H 3409  11.337  11.155   1.033  0.9219 -1.3139  0.4467
  766MOL0     H 3410  11.447  11.208   0.904  1.5623  1.1645  0.4985
  767MOL0     O 3411   1.495   3.633   3.059  0.1722  0.1474 -0.2002
  767MOL0     C 3412   1.398   3.701   3.026  0.2130  0.3840 -0.9632
  767MOL0     O 3413   1.333   3.683   2.908 -0.1188  0.1735 -0.4490
  767MOL0     C 3414   1.370   3.588   2.816  0.3960  0.1909  0.0276
  767MOL0     C 3415   1.311   3.466   2.826 -1.5167 -0.1901 -0.4334
  767MOL0     C 3416   1.349   3.355   2.746 -0.2600  0.5774  0.2558
  767MOL0     C 3417   1.449   3.379   2.651 -0.2244 -0.3827 -0.9225
  767MOL0     O 3418   1.480   3.293   2.560 -0.5353  0.8776  0.0508
  767MOL0     C 3419   1.622   3.264   2.526 -0.2710 -0.3748 -0.1110
  767MOL0     C 3420   1.613   3.265   2.367  0.4653 -1.0204 -0.2198
  767MOL0     C 3421   1.583   3.396   2.294  1.1884  0.3329  0.1952
  767MOL0     C 3422   1.563   3.378   2.142  0.9712 -0.6803  0.2429
  767MOL0     C 3423   1.548   3.514   2.071  0.3632 -0.1022 -0.1208
  767MOL0     C 3424   1.511   3.471   1.926 -0.3186 -0.0724 -1.2290
  767MOL0     C 3425   1.477   3.596   1.837  0.1903  0.8740  0.1066
  767MOL0     C 3426   1.576   3.707   1.842 -0.4891  0.5134  0.0182
  767MOL0     N 3427   1.715   3.669   1.814  0.0671  0.1544  0.2566
  767MOL0     C 3428   1.762   3.579   1.722  0.0045  0.2135 -0.1893
  767MOL0     C 3429   1.895   3.567   1.756  0.3122 -0.4849  0.1780
  767MOL0     C 3430   1.997   3.493   1.682 -0.1601 -0.3585  0.0485
  767MOL0     C 3431   1.988   3.345   1.709 -0.2646 -0.0862 -0.0555
  767MOL0     C 3432   2.093   3.271   1.629  0.5666 -0.0534  0.0979
  767MOL0     C 3433   2.070   3.117   1.670  0.1298 -0.6128 -0.7781
  767MOL0     O 3434   2.134   3.018   1.595 -0.3679 -0.6188  0.8811
  767MOL0     C 3435   2.277   3.020   1.597 -0.3955  0.0058 -0.0338
  767MOL0     C 3436   2.345   2.968   1.488 -0.1260 -0.6155 -0.4224
  767MOL0     C 3437   2.485   2.981   1.479 -0.8680  0.4820 -0.1518
  767MOL0     C 3438   2.558   3.043   1.584 -0.7464  0.9335 -0.0825
  767MOL0     C 3439   2.705   3.072   1.579 -0.3596  0.7560  1.6914
  767MOL0     O 3440   2.780   3.104   1.688 -0.2615 -0.3051 -0.1028
  767MOL0     C 3441   2.904   3.169   1.693  0.0629  0.8353  0.5342
  767MOL0     C 3442   2.992   3.164   1.807 -0.3195  0.6610  0.1095
  767MOL0     C 3443   3.129   3.204   1.798 -0.0683  0.0323  0.5908
  767MOL0     C 3444   3.177   3.252   1.670  0.7302 -0.1304 -0.0239
  767MOL0     O 3445   3.311   3.307   1.654  0.0057  0.4934  0.4088
  767MOL0     C 3446   3.409   3.283   1.751 -0.6033  0.4777  0.1149
  767MOL0     C 3447   3.490   3.410   1.764 -0.8997  0.3886 -0.4386
  767MOL0     C 3448   3.583   3.395   1.882 -0.5168  0.7321 -0.8989
  767MOL0     C 3449   3.676   3.513   1.905  0.5827 -1.0858  0.5592
  767MOL0     C 3450   3.781   3.477   2.008  1.0612  0.1471  0.2008
  767MOL0     C 3451   3.890   3.584   2.023 -0.0619  0.1032  0.1589
  767MOL0     C 3452   3.943   3.565   2.168  0.4692 -0.7228 -0.0559
  767MOL0     C 3453   4.064   3.650   2.202 -0.3287  0.4057  0.5796
  767MOL0    Cl 3454   4.021   3.825   2.201 -0.2268  0.0144  0.1053
  767MOL0     C 3455   3.092   3.252   1.557  0.1406  0.5493 -0.6926
  767MOL0     C 3456   2.953   3.217   1.573  0.0325  0.0011  0.3036
  767MOL0     O 3457   2.749   3.054   1.465  0.1259 -0.1410 -0.0041
  767MOL0     C 3458   2.488   3.078   1.697 -0.3710 -0.5414 -0.2394
  767MOL0     C 3459   2.350   3.062   1.697 -0.1887 -0.8182 -0.4227
  767MOL0     N 3460   1.920   3.648   1.864 -0.1371 -0.0057 -0.6946
  767MOL0     N 3461   1.814   3.714   1.897 -0.2647 -0.5466  0.5974
  767MOL0     C 3462   1.504   3.505   2.638 -0.4660  0.4697 -0.8244
  767MOL0     C 3463   1.466   3.612   2.721 -0.2620  0.1648  1.1949
  767MOL0     C 3464   1.376   3.819   3.106  0.5182 -0.0647 -0.1904
  767MOL0     C 3465   1.473   3.850   3.201 -0.1743  0.7915 -0.2838
  767MOL0     C 3466   1.475   3.964   3.278  0.2500 -0.2083  0.6341
  767MOL0     C 3467   1.354   4.039   3.292  0.4695 -0.9573  0.0637
  767MOL0     O 3468   1.336   4.157   3.357  0.9421 -0.0283  0.2376
  767MOL0     C 3469   1.453   4.208   3.418  0.5148 -0.4928  0.0295
  767MOL0     C 3470   1.395   4.345   3.465 -0.8279  0.0645  0.7982
  767MOL0     C 3471   1.507   4.443   3.513  0.0077 -0.5592 -0.0938
  767MOL0     C 3472   1.457   4.590   3.521 -0.6628  0.5813  0.4628
  767MOL0     C 3473   1.535   4.669   3.612 -0.8531 -0.0208 -0.3084
  767MOL0     C 3474   1.615   4.744   3.674  0.7685  0.3644  0.4485
  767MOL0     C 3475   1.253   4.008   3.203 -0.2780 -0.1827 -0.4949
  767MOL0     C 3476   1.265   3.904   3.103 -0.0523  0.6721 -0.9300
  767MOL0     C 3477   1.144   3.871   3.012 -0.0673  0.4711  0.2335
  767MOL0     H 3478   1.242   3.457   2.909 -0.1186  1.2860  0.9544
  767MOL0     H 3479   1.317   3.255   2.773  1.0314 -0.5712 -2.1095
  767MOL0     H 3480   1.694   3.340   2.555 -1.5361  0.5587  0.6865
  767MOL0     H 3481   1.653   3.169   2.570  0.4934 -0.1906 -0.2347
  767MOL0     H 3482   1.548   3.181   2.342  0.2122 -0.7477 -0.4899
  767MOL0     H 3483   1.712   3.240   2.328  0.5128  0.2371 -0.9539
  767MOL0     H 3484   1.666   3.465   2.315  1.9246  0.1843 -1.9960
  767MOL0     H 3485   1.495   3.447   2.334  1.1725  2.3191 -2.1429
  767MOL0     H 3486   1.650   3.330   2.098  2.1449  0.4204  1.2953
  767MOL0     H 3487   1.481   3.306   2.129  2.2327 -2.0343 -0.4379
  767MOL0     H 3488   1.464   3.560   2.123  1.0400 -0.0931  0.9920
  767MOL0     H 3489   1.639   3.575   2.071  0.2832  0.2530 -3.8655
  767MOL0     H 3490   1.597   3.418   1.885  2.2357  2.7399  0.0799
  767MOL0     H 3491   1.423   3.406   1.934 -0.6607  0.3379 -1.5969
  767MOL0     H 3492   1.385   3.642   1.874 -1.7579 -1.2932 -1.7405
  767MOL0     H 3493   1.453   3.568   1.734 -0.6379  0.9097  0.2866
  767MOL0     H 3494   1.529   3.782   1.777  0.9985  0.7504 -0.8270
  767MOL0     H 3495   1.572   3.762   1.937 -2.4824 -0.4107  0.5075
  767MOL0     H 3496   1.709   3.518   1.650  0.8409 -0.6341 -0.0943
  767MOL0     H 3497   2.000   3.516   1.575 -0.5665 -1.0566 -0.1142
  767MOL0     H 3498   2.099   3.521   1.712  0.1153 -3.6447  2.7492
  767MOL0     H 3499   2.010   3.333   1.816  0.2518  0.2504 -0.1234
  767MOL0     H 3500   1.889   3.306   1.685 -0.3494 -2.1073  3.0112
  767MOL0     H 3501   2.193   3.305   1.659  0.1445  0.7955  0.5770
  767MOL0     H 3502   2.083   3.294   1.523  0.1969 -1.6520 -0.2515
  767MOL0     H 3503   1.963   3.098   1.657  0.2872 -3.2045  1.0055
  767MOL0     H 3504   2.092   3.111   1.777  1.2922  0.1838 -0.9511
  767MOL0     H 3505   2.288   2.926   1.406  0.3949 -0.6019 -0.7961
  767MOL0     H 3506   2.533   2.955   1.385  1.0280  2.6613  0.1144
  767MOL0     H 3507   2.948   3.110   1.890 -1.3684  0.2799 -0.6735
  767MOL0     H 3508   3.187   3.204   1.889  0.0882 -0.7593  0.4924
  767MOL0     H 3509   3.364   3.280   1.851  1.5644  3.0738  1.3045
  767MOL0     H 3510   3.471   3.198   1.721  1.0396  2.0992 -1.3324
  767MOL0     H 3511   3.547   3.432   1.673  0.2603  0.7584  0.3480
  767MOL0     H 3512   3.417   3.490   1.779  0.6800  1.8950 -0.4652
  767MOL0     H 3513   3.525   3.377   1.972 -1.9086  3.0132 -1.2642
  767MOL0     H 3514   3.627   3.296   1.868 -0.5899  0.3812  1.0725
  767MOL0     H 3515   3.625   3.598   1.951 -1.6564 -1.2284 -1.4450
  767MOL0     H 3516   3.733   3.546   1.818 -1.0378  1.1068  0.2585
  767MOL0     H 3517   3.833   3.382   1.991 -0.9737 -0.9514 -0.1998
  767MOL0     H 3518   3.734   3.465   2.106  1.4788  1.5906  0.6069
  767MOL0     H 3519   3.974   3.581   1.953  0.8542  0.3715  1.2203
  767MOL0     H 3520   3.841   3.682   2.018 -1.3806 -0.5039  0.6039
  767MOL0     H 3521   3.962   3.460   2.190  3.9290 -0.3906 -0.8563
  767MOL0     H 3522   3.869   3.599   2.241  1.0940  0.5468  0.0103
  767MOL0     H 3523   4.087   3.624   2.306 -1.8353  1.6921  1.2635
  767MOL0     H 3524   4.151   3.625   2.141 -0.1539  1.0733  0.5541
  767MOL0     H 3525   3.133   3.294   1.466 -2.4551 -0.4683 -2.4649
  767MOL0     H 3526   2.884   3.235   1.491 -2.1113  2.2518  2.4124
  767MOL0     H 3527   2.542   3.125   1.778  0.2291  0.6345 -1.2838
  767MOL0     H 3528   2.303   3.090   1.791 -1.8199 -3.2087 -0.4498
  767MOL0     H 3529   1.575   3.517   2.557 -0.3655 -0.5854 -0.9033
  767MOL0     H 3530   1.513   3.708   2.705 -2.3147  1.1060  0.4202
  767MOL0     H 3531   1.560   3.786   3.212 -1.6147 -0.9953  1.1507
  767MOL0     H 3532   1.567   4.004   3.321 -0.0672 -0.1981  1.3292
  767MOL0     H 3533   1.537   4.210   3.348 -1.3818  2.2027 -2.4038
  767MOL0     H 3534   1.487   4.148   3.503  0.6907  2.4849  2.2118
  767MOL0     H 3535   1.315   4.330   3.539 -0.2261  0.2077  1.4890
  767MOL0     H 3536   1.346   4.396   3.381 -1.3104  1.1194  1.6941
  767MOL0     H 3537   1.599   4.437   3.454  1.5806 -4.2449  2.3523
  767MOL0     H 3538   1.547   4.413   3.610 -1.6360 -0.0647  0.7784
  767MOL0     H 3539   1.486   4.626   3.421 -1.3745 -0.1230 -0.0116
  767MOL0     H 3540   1.349   4.603   3.528 -0.5261  3.0903 -0.7677
  767MOL0     H 3541   1.691   4.806   3.718  1.2623  0.3660 -0.3660
  767MOL0     H 3542   1.172   4.079   3.214  1.2990  1.6527 -0.0490
  767MOL0     H 3543   1.150   3.921   2.914 -2.7536  0.0015 -0.2507
  767MOL0     H 3544   1.131   3.763   3.003  0.4317  0.2461  1.8971
  767MOL0     H 3545   1.058   3.923   3.054 -0.9350  0.4303 -1.3984
  768MOL0     O 3546   2.014  11.254   7.128 -0.7401 -0.7057 -0.0558
  768MOL0     C 3547   2.013  11.129   7.119 -0.0015 -0.9063 -0.6353
  768MOL0     O 3548   2.110  11.054   7.056  0.7378 -0.7844  0.5371
  768MOL0     C 3549   2.220  11.124   6.998  0.8386  0.0778 -0.6747
  768MOL0     C 3550   2.341  11.117   7.057  0.3715 -0.4661  0.0638
  768MOL0     C 3551   2.440  11.205   7.015  0.0486  0.1810 -0.6812
  768MOL0     C 3552   2.428  11.289   6.906  0.1836 -0.2045 -0.1225
  768MOL0     O 3553   2.535  11.362   6.878 -0.0790  0.7830  0.6986
  768MOL0     C 3554   2.551  11.413   6.746 -0.4766  0.1301  0.3846
  768MOL0     C 3555   2.679  11.492   6.724 -0.3803 -0.1683  0.5540
  768MOL0     C 3556   2.693  11.629   6.800  0.8840 -0.0733  0.2297
  768MOL0     C 3557   2.815  11.713   6.740 -0.2381  0.2219 -0.0319
  768MOL0     C 3558   2.944  11.671   6.805  0.2262 -0.0979  0.0649
  768MOL0     C 3559   2.960  11.687   6.959 -0.3007 -0.0754  0.8468
  768MOL0     C 3560   3.102  11.652   7.017  0.5398 -0.3968  0.3682
  768MOL0     C 3561   3.162  11.512   6.983 -0.2629  0.4600 -0.1499
  768MOL0     N 3562   3.298  11.481   7.039  0.2666 -0.5013 -0.1637
  768MOL0     C 3563   3.330  11.438   7.168  0.2050  0.4064 -0.3947
  768MOL0     C 3564   3.463  11.414   7.165 -0.6399 -0.0965 -0.4320
  768MOL0     C 3565   3.543  11.352   7.278  0.2965 -0.4161  0.2633
  768MOL0     C 3566   3.495  11.214   7.295  1.3782 -0.5935 -0.4624
  768MOL0     C 3567   3.548  11.158   7.426  0.4998 -0.7511 -0.2163
  768MOL0     C 3568   3.494  11.013   7.448 -0.2583  0.3946  0.2017
  768MOL0     O 3569   3.541  10.927   7.342 -0.0468  0.0762 -0.8869
  768MOL0     C 3570   3.480  10.798   7.326  0.3361 -0.5225  0.3650
  768MOL0     C 3571   3.498  10.732   7.203 -0.0704 -0.4652 -0.0387
  768MOL0     C 3572   3.440  10.598   7.183  0.1690 -0.3789  0.0743
  768MOL0     C 3573   3.359  10.542   7.282 -0.3324  0.4065 -0.5227
  768MOL0     C 3574   3.317  10.404   7.259 -0.6179  0.3160  0.0610
  768MOL0     O 3575   3.342  10.337   7.139  0.1623 -0.1667 -0.4985
  768MOL0     C 3576   3.257  10.237   7.101 -0.4561  0.4634 -0.1764
  768MOL0     C 3577   3.177  10.245   6.993  0.2615  0.1879  0.3501
  768MOL0     C 3578   3.101  10.141   6.943  0.7204  1.1920  0.1347
  768MOL0     C 3579   3.092  10.020   7.018  0.6045  0.2350 -0.4369
  768MOL0     O 3580   3.017   9.912   6.972 -1.1108 -0.1768  0.1855
  768MOL0     C 3581   3.051   9.874   6.837 -0.6316 -1.5560  0.7496
  768MOL0     C 3582   2.932   9.805   6.769 -0.3195  0.9724 -1.1900
  768MOL0     C 3583   2.821   9.905   6.748  0.3680  0.2001 -0.3056
  768MOL0     C 3584   2.674   9.841   6.759 -0.0982 -0.2709 -0.1602
  768MOL0     C 3585   2.627   9.840   6.904  0.2276 -0.0856 -0.1228
  768MOL0     C 3586   2.582   9.979   6.956  0.2064  0.7312 -0.8106
  768MOL0     C 3587   2.492   9.974   7.082  0.1655  0.6322 -0.0191
  768MOL0     C 3588   2.460  10.118   7.127  0.2811 -0.0045 -0.0409
  768MOL0    Cl 3589   2.605  10.222   7.174 -0.6934  0.2464  0.1296
  768MOL0     C 3590   3.171  10.005   7.124 -0.2261  1.4307 -0.1362
  768MOL0     C 3591   3.257  10.110   7.168  0.1603  0.3620 -0.0984
  768MOL0     O 3592   3.219  10.377   7.334 -1.1992 -0.4547 -0.0551
  768MOL0     C 3593   3.340  10.607   7.408 -0.5010 -0.2600 -0.0394
  768MOL0     C 3594   3.411  10.727   7.429 -0.7546 -0.2312  0.2630
  768MOL0     N 3595   3.505  11.437   7.036 -0.2732 -0.6826  0.0125
  768MOL0     N 3596   3.407  11.474   6.956  0.1987 -0.0046 -0.7698
  768MOL0     C 3597   2.301  11.298   6.848 -0.2069 -0.5106  0.0655
  768MOL0     C 3598   2.196  11.212   6.897 -0.7207  0.0192 -0.5575
  768MOL0     C 3599   1.889  11.066   7.171 -0.0470  0.2258  0.0020
  768MOL0     C 3600   1.764  11.134   7.174 -0.0387 -0.6201  0.7906
  768MOL0     C 3601   1.647  11.078   7.216  0.2463  0.3332 -1.0084
  768MOL0     C 3602   1.656  10.940   7.251  0.0484 -0.0574 -0.8626
  768MOL0     O 3603   1.537  10.878   7.277 -0.0637 -0.4942 -0.0163
  768MOL0     C 3604   1.535  10.800   7.403  0.1358 -0.6341 -0.2258
  768MOL0     C 3605   1.398  10.738   7.416 -1.2687 -0.0324 -0.2959
  768MOL0     C 3606   1.336  10.666   7.295 -1.1629 -0.0351  0.3437
  768MOL0     C 3607   1.223  10.580   7.327  0.0664 -0.9625 -0.3779
  768MOL0     C 3608   1.109  10.658   7.381 -0.8296 -0.5095 -0.4087
  768MOL0     C 3609   1.012  10.722   7.424 -0.1536  0.4857  0.2139
  768MOL0     C 3610   1.785  10.869   7.258  0.2103  0.4306  0.7817
  768MOL0     C 3611   1.903  10.934   7.219 -0.1867 -0.3949 -0.3236
  768MOL0     C 3612   2.031  10.845   7.238  0.6843  0.7130 -0.9055
  768MOL0     H 3613   2.353  11.048   7.139  0.0766 -1.1145 -0.4334
  768MOL0     H 3614   2.539  11.194   7.058  0.1834 -2.5234 -1.4867
  768MOL0     H 3615   2.536  11.331   6.675 -1.0932 -0.9580  1.7105
  768MOL0     H 3616   2.475  11.489   6.726 -0.8483  0.2400  2.0263
  768MOL0     H 3617   2.696  11.506   6.617 -2.7843 -0.8816  0.0277
  768MOL0     H 3618   2.771  11.437   6.746  1.3023  1.2600 -2.3181
  768MOL0     H 3619   2.700  11.624   6.909 -1.6434 -0.6583  0.4263
  768MOL0     H 3620   2.602  11.677   6.763  0.9705 -2.9581 -4.4325
  768MOL0     H 3621   2.831  11.693   6.634  0.6705  0.3684  0.0687
  768MOL0     H 3622   2.812  11.822   6.745  1.8908  0.4159 -1.5071
  768MOL0     H 3623   2.955  11.566   6.777  2.1035 -0.6870  2.6553
  768MOL0     H 3624   3.020  11.737   6.762  2.6803 -1.6973  1.7183
  768MOL0     H 3625   2.944  11.794   6.973  0.3997  0.2128 -0.4345
  768MOL0     H 3626   2.885  11.638   7.022 -1.3633  0.2978 -0.1037
  768MOL0     H 3627   3.104  11.672   7.125 -2.0649  0.4798  0.3244
  768MOL0     H 3628   3.172  11.720   6.968 -0.6802  0.0586 -0.8202
  768MOL0     H 3629   3.097  11.431   7.019  1.3977 -1.0029 -0.2673
  768MOL0     H 3630   3.177  11.518   6.875  6.1512  1.4720  0.4051
  768MOL0     H 3631   3.248  11.435   7.239 -0.9920  0.7104 -1.7123
  768MOL0     H 3632   3.649  11.356   7.249  0.0961 -1.8367 -0.8088
  768MOL0     H 3633   3.526  11.412   7.368  1.2716  2.9127 -1.5948
  768MOL0     H 3634   3.387  11.208   7.307  1.4877  0.8408  1.8971
  768MOL0     H 3635   3.526  11.162   7.204 -1.6251 -2.2275 -0.6757
  768MOL0     H 3636   3.500  11.218   7.503  1.4459  1.1216 -1.0346
  768MOL0     H 3637   3.657  11.164   7.432  0.5101  0.0507 -1.0112
  768MOL0     H 3638   3.385  11.017   7.461 -0.4171  0.2831 -0.9295
  768MOL0     H 3639   3.532  10.968   7.540  0.6052  0.6182 -0.0414
  768MOL0     H 3640   3.562  10.785   7.133 -2.9784  1.5670 -1.3758
  768MOL0     H 3641   3.475  10.552   7.092  0.3770  0.0962 -0.0893
  768MOL0     H 3642   3.171  10.344   6.949 -0.7332  0.3885  0.9248
  768MOL0     H 3643   3.030  10.158   6.862  0.4201  4.5660  0.9367
  768MOL0     H 3644   3.083   9.962   6.781 -5.7445 -1.2419 -2.4186
  768MOL0     H 3645   3.140   9.811   6.843  2.7869  2.8788  1.8500
  768MOL0     H 3646   2.980   9.766   6.679  2.3107  0.1716  0.4274
  768MOL0     H 3647   2.901   9.713   6.820  3.0042 -0.6555 -1.8234
  768MOL0     H 3648   2.820   9.988   6.820  0.7748  1.1600 -1.3723
  768MOL0     H 3649   2.833   9.955   6.651  1.2003  3.3744  1.2923
  768MOL0     H 3650   2.658   9.741   6.719  0.2009 -0.3484 -0.0960
  768MOL0     H 3651   2.600   9.901   6.705 -0.1167 -1.8769 -2.0142
  768MOL0     H 3652   2.691   9.794   6.979 -1.6080 -0.6984  1.1477
  768MOL0     H 3653   2.537   9.778   6.909  1.6970 -2.2132  3.6334
  768MOL0     H 3654   2.672  10.036   6.982  0.0189  0.5776  0.2336
  768MOL0     H 3655   2.522  10.037   6.885 -1.3536  1.9002  1.3355
  768MOL0     H 3656   2.529   9.939   7.179 -3.6051 -1.0185  1.0038
  768MOL0     H 3657   2.403   9.916   7.056  0.0750  1.6187 -2.1259
  768MOL0     H 3658   2.393  10.165   7.054 -0.4256 -1.8021 -0.6062
  768MOL0     H 3659   2.395  10.118   7.215  0.4973  3.2507  0.2437
  768MOL0     H 3660   3.171   9.905   7.166  0.5812  1.7039  0.5371
  768MOL0     H 3661   3.334  10.092   7.242 -0.5883  0.2505  0.6705
  768MOL0     H 3662   3.283  10.570   7.493 -0.1010 -1.7087 -0.3673
  768MOL0     H 3663   3.422  10.769   7.528  1.6264  0.3929 -0.2167
  768MOL0     H 3664   2.278  11.382   6.783 -1.8197 -2.9887 -2.8199
  768MOL0     H 3665   2.103  11.215   6.842 -0.9405 -2.8307 -0.4846
  768MOL0     H 3666   1.758  11.237   7.140  1.4293 -0.4087  1.1076
  768MOL0     H 3667   1.559  11.140   7.208  1.7041  2.6708  0.1146
  768MOL0     H 3668   1.563  10.871   7.482  0.1624 -1.3326  0.4039
  768MOL0     H 3669   1.616  10.727   7.406  0.9240  0.1562 -1.4018
  768MOL0     H 3670   1.335  10.816   7.460  2.6878  3.7516 -0.6580
  768MOL0     H 3671   1.415  10.660   7.491 -1.1682  1.7096  1.5723
  768MOL0     H 3672   1.403  10.603   7.235 -1.0292  0.3872  0.0439
  768MOL0     H 3673   1.306  10.741   7.220 -3.0716 -0.1403  0.9489
  768MOL0     H 3674   1.185  10.532   7.236 -1.3326 -1.1869  0.2952
  768MOL0     H 3675   1.265  10.508   7.397 -0.7400  0.3785  1.5806
  768MOL0     H 3676   0.930  10.784   7.454 -0.3476  0.5497 -0.4285
  768MOL0     H 3677   1.800  10.769   7.299  0.5874  0.5461  0.9319
  768MOL0     H 3678   2.115  10.912   7.258 -0.2705  1.6030  0.3361
  768MOL0     H 3679   2.017  10.770   7.317 -1.5761  2.2945  0.3242
  768MOL0     H 3680   2.057  10.799   7.143 -1.5533 -0.7778 -0.8729
  769MOL0     O 3681   7.510   2.974   2.632  0.5972  0.7745 -0.1738
  769MOL0     C 3682   7.491   3.085   2.588 -0.7623 -0.2452 -0.6424
  769MOL0     O 3683   7.515   3.124   2.461  0.4171  1.2006  0.6230
  769MOL0     C 3684   7.495   3.255   2.425 -0.6558  0.6401  0.0339
  769MOL0     C 3685   7.374   3.301   2.379  0.2021 -0.6154 -1.2303
  769MOL0     C 3686   7.359   3.439   2.355  0.5094 -0.8639  0.1549
  769MOL0     C 3687   7.462   3.531   2.369  0.0666 -0.6767  0.5675
  769MOL0     O 3688   7.445   3.669   2.350  0.3081  0.5003 -0.4970
  769MOL0     C 3689   7.563   3.748   2.315 -0.0308 -0.7491  0.2015
  769MOL0     C 3690   7.517   3.866   2.234  0.0817  1.1304  0.2120
  769MOL0     C 3691   7.622   3.966   2.223 -0.0631 -0.2439 -0.1559
  769MOL0     C 3692   7.551   4.090   2.168 -0.3522  0.5238  0.0895
  769MOL0     C 3693   7.653   4.198   2.125  0.1522 -0.1405 -0.1174
  769MOL0     C 3694   7.693   4.302   2.233 -0.9161 -0.0182 -0.6651
  769MOL0     C 3695   7.806   4.389   2.191  0.2718  0.6125  0.4590
  769MOL0     C 3696   7.864   4.465   2.313 -0.1288 -0.3385 -0.1191
  769MOL0     N 3697   7.780   4.572   2.343 -0.4374  0.1379  0.0248
  769MOL0     C 3698   7.750   4.688   2.261 -0.2306  0.1877  0.4518
  769MOL0     C 3699   7.677   4.771   2.342  0.0130  0.0742  0.4390
  769MOL0     C 3700   7.619   4.907   2.310 -0.0557 -0.7720 -0.8291
  769MOL0     C 3701   7.724   5.022   2.305  0.7101  0.4731  0.2078
  769MOL0     C 3702   7.799   5.034   2.173  0.3262 -0.4257 -0.0925
  769MOL0     C 3703   7.880   5.165   2.166  0.0345 -0.5045  0.0821
  769MOL0     O 3704   7.987   5.166   2.063 -0.1886 -0.4635 -0.7444
  769MOL0     C 3705   8.103   5.104   2.092 -0.3936  0.6972  0.5496
  769MOL0     C 3706   8.144   5.064   2.217 -0.1340  0.2839  0.3675
  769MOL0     C 3707   8.267   4.999   2.242 -0.4351 -0.1768  0.3362
  769MOL0     C 3708   8.349   4.957   2.130  0.8251  0.4411  0.1591
  769MOL0     C 3709   8.484   4.895   2.147 -0.2862  0.3557  0.5904
  769MOL0     O 3710   8.542   4.868   2.268 -0.8893 -0.0247  0.7752
  769MOL0     C 3711   8.675   4.823   2.260  0.4102  0.3812  0.0133
  769MOL0     C 3712   8.766   4.900   2.192 -0.3692  0.5253  0.1603
  769MOL0     C 3713   8.902   4.851   2.154  0.5040  0.2602  0.0317
  769MOL0     C 3714   8.937   4.726   2.204  0.2460  0.2273 -0.0274
  769MOL0     O 3715   9.060   4.667   2.175  0.3751 -0.3043 -0.4619
  769MOL0     C 3716   9.170   4.715   2.252 -0.7495  0.2683  0.6135
  769MOL0     C 3717   9.296   4.664   2.196 -0.0815  0.7089 -0.4330
  769MOL0     C 3718   9.313   4.701   2.054  0.2298 -0.4619  0.3548
  769MOL0     C 3719   9.462   4.715   2.017 -0.3506  0.2128 -0.9124
  769MOL0     C 3720   9.494   4.737   1.869 -0.2933 -0.2002 -0.7265
  769MOL0     C 3721   9.471   4.873   1.790 -0.1413  0.8355  1.1216
  769MOL0     C 3722   9.332   4.916   1.776 -0.0963 -0.1191 -1.0695
  769MOL0     C 3723   9.311   5.018   1.665  0.2364 -0.3229  0.3123
  769MOL0    Cl 3724   9.423   5.157   1.671  0.0241  0.1927  0.2986
  769MOL0     C 3725   8.845   4.654   2.283  0.2498 -0.5083 -0.2019
  769MOL0     C 3726   8.708   4.701   2.301 -0.7925 -0.1217 -0.6383
  769MOL0     O 3727   8.538   4.873   2.036 -0.8834  0.2052 -0.2769
  769MOL0     C 3728   8.299   4.993   2.004  0.2296  0.8558 -0.3992
  769MOL0     C 3729   8.186   5.070   1.987 -0.0309  0.1228  0.4012
  769MOL0     N 3730   7.658   4.706   2.459  0.1169 -0.0063 -0.7388
  769MOL0     N 3731   7.714   4.580   2.458 -0.5413 -0.2510 -0.4975
  769MOL0     C 3732   7.577   3.481   2.416 -0.2445  0.3043 -0.1105
  769MOL0     C 3733   7.599   3.346   2.439  0.1744  0.2376 -0.0166
  769MOL0     C 3734   7.443   3.184   2.686 -0.6911  0.7019 -0.1796
  769MOL0     C 3735   7.539   3.263   2.745  0.5179 -0.4096 -0.3730
  769MOL0     C 3736   7.486   3.365   2.834  0.0235 -0.0483 -0.1942
  769MOL0     C 3737   7.346   3.373   2.856 -0.2568  0.6127  0.3975
  769MOL0     O 3738   7.297   3.473   2.926  0.3304  0.1176 -0.0623
  769MOL0     C 3739   7.169   3.439   2.990 -0.9497 -0.4733  0.5804
  769MOL0     C 3740   7.154   3.526   3.118 -0.7120 -0.4500  0.5335
  769MOL0     C 3741   7.119   3.671   3.089 -0.2503  0.5359  0.4263
  769MOL0     C 3742   7.249   3.747   3.065 -0.8119 -0.2961 -0.5458
  769MOL0     C 3743   7.222   3.884   3.024  0.4567 -0.8122  0.5678
  769MOL0     C 3744   7.200   3.992   2.977 -0.4090 -0.8803 -0.1647
  769MOL0     C 3745   7.258   3.287   2.792 -0.1431  0.0281  0.1525
  769MOL0     C 3746   7.307   3.188   2.702  0.0598 -0.1011  0.2590
  769MOL0     C 3747   7.205   3.094   2.652  0.0015 -0.1681 -0.3248
  769MOL0     H 3748   7.290   3.234   2.368 -1.8155  1.6690 -0.7334
  769MOL0     H 3749   7.262   3.480   2.328  0.8972  1.4674  1.9954
  769MOL0     H 3750   7.619   3.784   2.402 -0.1116 -0.5848  0.1855
  769MOL0     H 3751   7.633   3.692   2.253  0.1976 -1.6651  1.2504
  769MOL0     H 3752   7.443   3.911   2.300  0.4551  1.0848  0.6680
  769MOL0     H 3753   7.482   3.839   2.134 -2.3176 -2.0492  1.7064
  769MOL0     H 3754   7.689   3.927   2.147  0.2074  1.7270 -0.9957
  769MOL0     H 3755   7.676   3.976   2.318 -1.0100  0.5964  0.3125
  769MOL0     H 3756   7.494   4.067   2.078 -1.2779  1.2245  0.4854
  769MOL0     H 3757   7.489   4.131   2.248 -1.0925 -2.9015  1.4431
  769MOL0     H 3758   7.746   4.157   2.084  0.4349  1.0075 -0.6905
  769MOL0     H 3759   7.604   4.242   2.038  2.2399 -3.2354 -3.1598
  769MOL0     H 3760   7.601   4.360   2.247 -0.2016  1.4871 -1.9433
  769MOL0     H 3761   7.719   4.249   2.325  2.8637  1.6402 -0.6164
  769MOL0     H 3762   7.785   4.459   2.110 -0.7715 -0.1072  0.0864
  769MOL0     H 3763   7.879   4.325   2.140 -0.5425  1.1646 -1.4540
  769MOL0     H 3764   7.891   4.404   2.400  2.9987 -1.7956 -1.9349
  769MOL0     H 3765   7.962   4.496   2.276  0.5565  1.0172  2.5858
  769MOL0     H 3766   7.780   4.709   2.160 -3.4183 -0.0402 -0.6737
  769MOL0     H 3767   7.563   4.914   2.216 -0.1770  2.8878 -0.6250
  769MOL0     H 3768   7.555   4.926   2.396  0.1016 -2.9182 -0.1846
  769MOL0     H 3769   7.673   5.118   2.317 -0.8356 -0.4928  1.7792
  769MOL0     H 3770   7.791   5.010   2.391 -0.1887  3.3899  1.4682
  769MOL0     H 3771   7.726   5.037   2.091  1.8456 -0.8864 -1.5256
  769MOL0     H 3772   7.871   4.953   2.155  4.6894  3.5596 -2.8060
  769MOL0     H 3773   7.921   5.180   2.266 -0.8350 -0.6490  0.4680
  769MOL0     H 3774   7.821   5.257   2.151  0.5199 -0.2718 -0.4133
  769MOL0     H 3775   8.099   5.082   2.314  3.7601 -3.4069  3.3027
  769MOL0     H 3776   8.302   4.977   2.342 -0.0802  1.0718  0.4901
  769MOL0     H 3777   8.735   4.999   2.159  0.2664 -0.0765 -2.4628
  769MOL0     H 3778   8.958   4.902   2.076 -0.8136 -0.5517 -1.5201
  769MOL0     H 3779   9.160   4.824   2.252 -2.0263  0.2230 -2.0032
  769MOL0     H 3780   9.171   4.690   2.359  1.1551  0.8969  0.7732
  769MOL0     H 3781   9.367   4.712   2.265 -0.8066  0.7947  0.2658
  769MOL0     H 3782   9.311   4.556   2.208  0.8906  1.0166  1.5472
  769MOL0     H 3783   9.268   4.625   1.989  1.2698  0.9393 -2.1554
  769MOL0     H 3784   9.269   4.800   2.038 -4.7293 -1.4563  5.0853
  769MOL0     H 3785   9.534   4.638   2.047  1.9387  0.8571 -4.2821
  769MOL0     H 3786   9.496   4.806   2.068 -1.7920  0.5483 -0.4957
  769MOL0     H 3787   9.443   4.659   1.811  1.7337 -1.4889 -0.8862
  769MOL0     H 3788   9.598   4.704   1.854  0.0636  0.1997  0.6628
  769MOL0     H 3789   9.532   4.950   1.838 -0.7509  0.3303  2.8076
  769MOL0     H 3790   9.509   4.853   1.690  0.0147 -1.6643  1.6179
  769MOL0     H 3791   9.293   4.957   1.870  1.6207 -0.8284  0.0037
  769MOL0     H 3792   9.267   4.830   1.764 -2.8931  1.3954  1.6349
  769MOL0     H 3793   9.318   4.966   1.569  0.6947  1.7032 -0.8153
  769MOL0     H 3794   9.207   5.051   1.673  0.3628  1.5833 -3.5565
  769MOL0     H 3795   8.877   4.551   2.301  0.1288 -0.4338  0.4717
  769MOL0     H 3796   8.642   4.626   2.345 -0.2701 -1.7710 -2.5099
  769MOL0     H 3797   8.354   4.967   1.915  0.4356 -0.2019  0.0147
  769MOL0     H 3798   8.173   5.107   1.886 -2.9821 -0.6985  0.3979
  769MOL0     H 3799   7.645   3.554   2.460 -2.0552  1.9877  0.0484
  769MOL0     H 3800   7.694   3.300   2.466  0.1723 -0.3885 -1.0324
  769MOL0     H 3801   7.645   3.255   2.725  1.4871  2.8824  2.4275
  769MOL0     H 3802   7.538   3.449   2.879  0.1298  0.5766 -1.4427
  769MOL0     H 3803   7.160   3.334   3.018  1.9770 -1.0051 -0.0763
  769MOL0     H 3804   7.081   3.460   2.929 -1.7728 -0.8152  1.6233
  769MOL0     H 3805   7.251   3.515   3.169 -0.5492 -1.4570  0.0223
  769MOL0     H 3806   7.072   3.488   3.179 -0.8775 -1.6060 -0.3854
  769MOL0     H 3807   7.068   3.707   3.180 -0.1246 -0.9029  1.0971
  769MOL0     H 3808   7.054   3.679   3.002 -0.3573 -1.2893  0.3021
  769MOL0     H 3809   7.314   3.760   3.152  1.0381  1.9405 -2.1335
  769MOL0     H 3810   7.302   3.704   2.979 -2.0301  0.3757 -1.6723
  769MOL0     H 3811   7.177   4.091   2.942 -0.6296 -0.9795 -0.2957
  769MOL0     H 3812   7.150   3.299   2.793 -0.1278  1.2731 -2.8530
  769MOL0     H 3813   7.174   3.130   2.553 -1.4486 -1.0458 -0.2272
  769MOL0     H 3814   7.245   2.992   2.649  2.5468  0.7221  0.6325
  769MOL0     H 3815   7.113   3.082   2.710 -0.3641 -0.4006 -0.9380
  770MOL0     O 3816   9.079   4.093   2.390  0.3972  0.3694 -0.2479
  770MOL0     C 3817   9.172   4.171   2.413 -0.0885  0.2155  0.5105
  770MOL0     O 3818   9.170   4.287   2.485  0.3083  0.2618  0.3651
  770MOL0     C 3819   9.055   4.325   2.556 -0.6122 -0.6040 -0.1586
  770MOL0     C 3820   8.979   4.234   2.636  0.3116  0.6714 -0.5235
  770MOL0     C 3821   8.866   4.280   2.717  0.0268  0.7065 -0.5742
  770MOL0     C 3822   8.812   4.404   2.712 -0.7321  0.1743  0.7274
  770MOL0     O 3823   8.709   4.436   2.794 -0.0300 -0.2663 -0.0603
  770MOL0     C 3824   8.623   4.543   2.748  0.0389  0.5549 -0.4870
  770MOL0     C 3825   8.529   4.482   2.642 -0.8987  0.1254  0.8366
  770MOL0     C 3826   8.461   4.344   2.669  0.2351  0.0354  1.1159
  770MOL0     C 3827   8.312   4.369   2.675 -0.0102 -0.5063  0.5146
  770MOL0     C 3828   8.233   4.239   2.700 -0.1066 -0.8934  0.8091
  770MOL0     C 3829   8.094   4.269   2.729 -0.2984  0.2364  0.1951
  770MOL0     C 3830   8.021   4.140   2.763 -0.1657  0.1658  0.5952
  770MOL0     C 3831   7.983   4.054   2.635 -0.0146 -0.1445 -0.7121
  770MOL0     N 3832   7.908   3.934   2.676  0.6774  0.7173 -0.4061
  770MOL0     C 3833   7.929   3.860   2.789  0.1532 -0.0568 -0.5387
  770MOL0     C 3834   7.844   3.752   2.772  0.3421 -0.7636 -1.0119
  770MOL0     C 3835   7.812   3.653   2.884  0.4135 -1.4746  0.1587
  770MOL0     C 3836   7.692   3.704   2.961  0.6306  0.6727  0.0811
  770MOL0     C 3837   7.652   3.630   3.092  0.4608  0.4670  0.4492
  770MOL0     C 3838   7.723   3.666   3.216  0.1705  0.7690  0.3233
  770MOL0     O 3839   7.634   3.742   3.301 -0.5416  0.4917  0.1790
  770MOL0     C 3840   7.597   3.688   3.417  0.3812  0.1499  1.2097
  770MOL0     C 3841   7.668   3.594   3.501 -0.3751 -0.0365 -0.4441
  770MOL0     C 3842   7.616   3.553   3.627 -0.0527 -1.1039  0.7880
  770MOL0     C 3843   7.508   3.616   3.675  0.5603  0.4162 -0.3522
  770MOL0     C 3844   7.457   3.581   3.814 -0.8414 -0.0627  0.4037
  770MOL0     O 3845   7.527   3.472   3.878 -0.2904 -0.7842 -0.7232
  770MOL0     C 3846   7.483   3.435   4.004  0.3532  0.6762  0.1910
  770MOL0     C 3847   7.571   3.425   4.110 -0.0113 -0.8248 -1.2669
  770MOL0     C 3848   7.537   3.384   4.232 -0.4696  0.6072  0.5780
  770MOL0     C 3849   7.410   3.348   4.268 -0.3653  0.1992  0.4424
  770MOL0     O 3850   7.361   3.310   4.387  0.4262  0.1956  0.1121
  770MOL0     C 3851   7.411   3.374   4.506  1.1887  0.2428  0.0839
  770MOL0     C 3852   7.331   3.328   4.624 -0.2669 -0.5854 -0.3065
  770MOL0     C 3853   7.185   3.371   4.593  0.3019 -0.5024 -0.8936
  770MOL0     C 3854   7.089   3.298   4.705 -0.5122 -0.8837  0.7921
  770MOL0     C 3855   6.953   3.351   4.690 -0.0169 -0.4339  1.2482
  770MOL0     C 3856   6.870   3.276   4.788  0.4087  0.4910  0.3299
  770MOL0     C 3857   6.727   3.338   4.810  1.2796 -0.0242 -0.3470
  770MOL0     C 3858   6.664   3.296   4.950 -0.2615  0.0258  1.0389
  770MOL0    Cl 3859   6.665   3.124   4.946  0.0707 -0.0216  0.1338
  770MOL0     C 3860   7.322   3.343   4.164  0.0954 -0.2259  0.2760
  770MOL0     C 3861   7.345   3.396   4.044 -0.3417  0.7669  0.2273
  770MOL0     O 3862   7.372   3.654   3.864  0.2112 -0.1280  0.1109
  770MOL0     C 3863   7.448   3.712   3.602  0.9877 -0.6830 -0.8967
  770MOL0     C 3864   7.485   3.750   3.472  0.3151 -0.6980 -0.5324
  770MOL0     N 3865   7.773   3.760   2.652  0.0879  0.0285  0.5191
  770MOL0     N 3866   7.823   3.866   2.598  0.4020 -0.1497  0.8304
  770MOL0     C 3867   8.885   4.489   2.631 -0.7458  0.1833  0.0598
  770MOL0     C 3868   9.009   4.454   2.565  0.4178  0.2831 -1.0737
  770MOL0     C 3869   9.298   4.141   2.344  0.6044 -0.1102 -0.2860
  770MOL0     C 3870   9.296   4.078   2.222 -0.2951  0.1363 -0.6465
  770MOL0     C 3871   9.408   4.069   2.145 -0.5945  0.0774 -0.2517
  770MOL0     C 3872   9.527   4.138   2.182  0.5632  0.8961  0.2874
  770MOL0     O 3873   9.639   4.151   2.107 -0.2393 -0.4565  0.5835
  770MOL0     C 3874   9.637   4.121   1.966  0.5492  0.2806  0.6493
  770MOL0     C 3875   9.540   4.214   1.889 -0.0934  0.2028 -0.1582
  770MOL0     C 3876   9.562   4.208   1.738 -0.2156  1.1315  0.1089
  770MOL0     C 3877   9.462   4.121   1.653  0.3439  0.5446 -0.3528
  770MOL0     C 3878   9.439   3.989   1.722  0.0697  0.5261 -0.2801
  770MOL0     C 3879   9.424   3.881   1.777  0.4584  1.0278  0.4172
  770MOL0     C 3880   9.532   4.192   2.305  1.0909 -0.5195  0.3049
  770MOL0     C 3881   9.421   4.199   2.383 -0.3410 -0.7300 -0.5577
  770MOL0     C 3882   9.442   4.263   2.523  0.1240  0.5807  0.1026
  770MOL0     H 3883   9.013   4.131   2.645  0.1848  0.4246 -2.5651
  770MOL0     H 3884   8.827   4.207   2.787  0.6613 -1.4143 -2.3247
  770MOL0     H 3885   8.566   4.581   2.834  0.4702  1.3523 -0.5409
  770MOL0     H 3886   8.684   4.627   2.715  1.8649 -0.9886 -1.2506
  770MOL0     H 3887   8.596   4.459   2.559 -0.5880  0.5161  0.9788
  770MOL0     H 3888   8.456   4.555   2.606  0.1103  0.1682 -1.2415
  770MOL0     H 3889   8.488   4.296   2.763 -1.1808  0.1215  1.5869
  770MOL0     H 3890   8.470   4.267   2.592 -0.4896  0.0362  1.0271
  770MOL0     H 3891   8.290   4.423   2.767 -0.5122 -1.0945  0.7494
  770MOL0     H 3892   8.281   4.421   2.584  1.7454 -1.4635 -0.6912
  770MOL0     H 3893   8.225   4.203   2.597  3.2351  1.0262 -0.2716
  770MOL0     H 3894   8.279   4.170   2.771  0.3540 -2.2653 -0.7708
  770MOL0     H 3895   8.078   4.338   2.813  2.1750  0.0454  0.9255
  770MOL0     H 3896   8.062   4.328   2.643  1.0340  1.5623  0.5624
  770MOL0     H 3897   7.922   4.157   2.808 -0.2990  0.4400  0.2071
  770MOL0     H 3898   8.080   4.083   2.835 -1.7851 -1.4124  0.7275
  770MOL0     H 3899   7.921   4.110   2.564 -0.9454 -1.1171 -0.6887
  770MOL0     H 3900   8.079   4.026   2.593 -0.4447 -0.6138 -1.3956
  770MOL0     H 3901   7.988   3.881   2.878 -3.4938 -1.0779  2.3886
  770MOL0     H 3902   7.785   3.555   2.844 -1.1357 -2.2450  2.8504
  770MOL0     H 3903   7.899   3.647   2.951  1.7288 -1.2456 -1.4483
  770MOL0     H 3904   7.694   3.813   2.972  1.3751  0.8674 -1.6652
  770MOL0     H 3905   7.609   3.683   2.894 -1.2054  3.3401  1.3445
  770MOL0     H 3906   7.657   3.521   3.082  2.4571  0.5861 -0.3756
  770MOL0     H 3907   7.543   3.637   3.101  0.2464 -1.3157 -0.2879
  770MOL0     H 3908   7.808   3.723   3.177 -0.2167  0.4108 -1.1139
  770MOL0     H 3909   7.762   3.571   3.251  0.6515  0.6065 -0.6262
  770MOL0     H 3910   7.759   3.551   3.459  0.5180  2.1776 -0.8936
  770MOL0     H 3911   7.673   3.480   3.683  0.8189  1.1920  3.1101
  770MOL0     H 3912   7.674   3.456   4.097 -0.0601  1.1174  1.9095
  770MOL0     H 3913   7.611   3.396   4.311  0.4111 -0.5639 -0.0439
  770MOL0     H 3914   7.516   3.346   4.517  0.3548 -2.2553  3.1344
  770MOL0     H 3915   7.402   3.483   4.510  3.1418  0.4008  2.9024
  770MOL0     H 3916   7.336   3.219   4.638  1.1294 -0.4701  0.2280
  770MOL0     H 3917   7.376   3.373   4.713  0.6233 -1.2459 -0.4012
  770MOL0     H 3918   7.175   3.478   4.613  2.6557 -0.1093 -1.5550
  770MOL0     H 3919   7.149   3.363   4.490 -0.4044  2.1911 -0.9343
  770MOL0     H 3920   7.132   3.327   4.802  0.5940 -0.6512  0.2522
  770MOL0     H 3921   7.086   3.194   4.672  0.1287 -1.0259  1.1551
  770MOL0     H 3922   6.913   3.321   4.592 -0.9102  1.3331  1.0246
  770MOL0     H 3923   6.953   3.460   4.697  2.4069 -0.3331  0.7032
  770MOL0     H 3924   6.858   3.169   4.768 -3.1045  0.5486  1.4922
  770MOL0     H 3925   6.920   3.300   4.882  1.1984  2.4634 -0.5573
  770MOL0     H 3926   6.668   3.308   4.723 -1.8704 -2.8510  2.4924
  770MOL0     H 3927   6.743   3.446   4.814 -3.7361  0.9983  4.8397
  770MOL0     H 3928   6.730   3.317   5.035  1.8997 -2.2749  0.0664
  770MOL0     H 3929   6.562   3.332   4.960  0.0030  1.4533 -0.8892
  770MOL0     H 3930   7.225   3.303   4.193  0.0788 -0.9145 -0.6762
  770MOL0     H 3931   7.264   3.406   3.972 -0.1281  0.5356 -0.0461
  770MOL0     H 3932   7.353   3.747   3.642  1.4601 -1.4174  0.9708
  770MOL0     H 3933   7.422   3.821   3.420 -0.0795 -1.7518 -1.5404
  770MOL0     H 3934   8.863   4.595   2.614  1.2021  0.5890 -0.1064
  770MOL0     H 3935   9.064   4.529   2.509 -0.8454  1.1100 -1.2626
  770MOL0     H 3936   9.202   4.041   2.182 -1.7987  3.5881 -0.6976
  770MOL0     H 3937   9.391   4.021   2.049 -3.2436 -0.1497  0.2765
  770MOL0     H 3938   9.605   4.019   1.942 -0.7760  0.5986  0.9585
  770MOL0     H 3939   9.736   4.120   1.920  0.3195 -0.9870  0.1446
  770MOL0     H 3940   9.557   4.318   1.917 -1.8084  1.0687 -2.1208
  770MOL0     H 3941   9.433   4.197   1.903 -0.1108 -0.5497 -1.0453
  770MOL0     H 3942   9.662   4.169   1.720 -0.8798 -0.6326 -0.0076
  770MOL0     H 3943   9.543   4.305   1.693  1.9448  0.5856 -2.1756
  770MOL0     H 3944   9.370   4.180   1.639 -0.5272 -0.4705  0.8151
  770MOL0     H 3945   9.503   4.111   1.553  0.8835 -0.3638 -0.0443
  770MOL0     H 3946   9.408   3.791   1.834  1.8548  1.3931  1.4520
  770MOL0     H 3947   9.626   4.240   2.330  1.1726 -0.0856 -0.7905
  770MOL0     H 3948   9.541   4.232   2.558  0.8505  0.0829 -2.2506
  770MOL0     H 3949   9.438   4.371   2.510  1.9116  0.7699  0.7788
  770MOL0     H 3950   9.374   4.234   2.604 -0.9121  0.7811 -0.6776
  771MOL0     O 3951   9.021   4.893   1.651 -0.1074  0.5003 -0.1136
  771MOL0     C 3952   8.940   4.889   1.736  0.1208  0.0084  0.1654
  771MOL0     O 3953   8.907   4.991   1.824 -0.1031 -0.0024 -0.6196
  771MOL0     C 3954   8.940   5.116   1.785  0.2493 -0.8319  0.0739
  771MOL0     C 3955   8.934   5.161   1.654  0.6460  0.3534 -0.5995
  771MOL0     C 3956   8.981   5.284   1.624 -0.2186 -0.3550 -0.6553
  771MOL0     C 3957   9.012   5.380   1.722 -0.0897 -0.1429  0.2212
  771MOL0     O 3958   9.070   5.496   1.677 -0.5188 -0.0367 -0.1206
  771MOL0     C 3959   9.149   5.591   1.753  0.4614 -0.2097 -0.4530
  771MOL0     C 3960   9.290   5.532   1.779 -0.3449 -0.4754 -0.5142
  771MOL0     C 3961   9.394   5.615   1.698 -0.0432 -0.1568 -0.4066
  771MOL0     C 3962   9.532   5.579   1.745  0.3829  0.1641  0.7277
  771MOL0     C 3963   9.636   5.677   1.695  0.5494  0.6571  0.7829
  771MOL0     C 3964   9.781   5.625   1.710 -0.3672  0.3173 -0.0747
  771MOL0     C 3965   9.892   5.738   1.699  0.4683  0.0974  0.2686
  771MOL0     C 3966  10.033   5.692   1.664 -0.0382 -0.1617  1.1006
  771MOL0     N 3967  10.083   5.594   1.757  0.7166  0.4105  0.2458
  771MOL0     C 3968  10.129   5.620   1.877 -0.5223  0.4381  0.1543
  771MOL0     C 3969  10.157   5.498   1.928 -0.1888  0.4288 -0.0694
  771MOL0     C 3970  10.265   5.472   2.042  1.0964 -0.1771  0.4990
  771MOL0     C 3971  10.254   5.329   2.104 -0.3366  0.6866 -0.6443
  771MOL0     C 3972  10.381   5.292   2.179  0.0324 -0.1470  0.7451
  771MOL0     C 3973  10.384   5.145   2.218 -0.0831 -0.8802 -0.4694
  771MOL0     O 3974  10.518   5.104   2.263  0.4858  0.2932 -0.1306
  771MOL0     C 3975  10.543   4.973   2.259  0.2801  1.0692 -0.2373
  771MOL0     C 3976  10.444   4.869   2.228 -0.3726 -0.2085  0.5095
  771MOL0     C 3977  10.474   4.737   2.229  0.2292 -0.4926 -0.6284
  771MOL0     C 3978  10.597   4.693   2.261  1.1946 -0.9922  0.8809
  771MOL0     C 3979  10.620   4.549   2.263  0.6934 -0.9203  0.4059
  771MOL0     O 3980  10.512   4.473   2.291 -0.3362  0.2255  0.0982
  771MOL0     C 3981  10.510   4.334   2.277  0.5818  0.1158  0.2527
  771MOL0     C 3982  10.617   4.242   2.293  0.5486  0.6728  0.3856
  771MOL0     C 3983  10.602   4.109   2.281 -0.1983  0.8186 -0.6877
  771MOL0     C 3984  10.485   4.041   2.261 -0.1221 -0.4914  0.4500
  771MOL0     O 3985  10.480   3.908   2.272 -0.4125 -0.2003 -0.8810
  771MOL0     C 3986  10.358   3.845   2.229  0.0967  0.2556  0.8821
  771MOL0     C 3987  10.376   3.694   2.209 -0.1397 -1.0517  0.0079
  771MOL0     C 3988  10.455   3.662   2.080  0.7875 -0.2233  0.3855
  771MOL0     C 3989  10.352   3.635   1.962  0.7347  0.0355 -0.2014
  771MOL0     C 3990  10.406   3.579   1.831  0.5210  0.4905  0.9857
  771MOL0     C 3991  10.479   3.671   1.736  0.4749 -0.7314  0.1533
  771MOL0     C 3992  10.500   3.601   1.595  0.2997 -0.1007  0.0885
  771MOL0     C 3993  10.601   3.490   1.597 -0.1084 -0.4532  0.0793
  771MOL0    Cl 3994  10.657   3.457   1.424  0.0419 -0.1477 -0.3928
  771MOL0     C 3995  10.377   4.130   2.246  0.4865  0.2954 -0.3627
  771MOL0     C 3996  10.383   4.272   2.257 -0.1281  0.0813  0.9779
  771MOL0     O 3997  10.730   4.513   2.235  0.2967  0.1214  0.3702
  771MOL0     C 3998  10.703   4.790   2.279 -0.1513  0.1314  0.1380
  771MOL0     C 3999  10.672   4.925   2.284  0.2357 -0.1097 -0.6502
  771MOL0     N 4000  10.114   5.404   1.838 -0.2772  0.3058  0.3172
  771MOL0     N 4001  10.065   5.461   1.732 -0.2017  0.0124  0.0171
  771MOL0     C 4002   9.006   5.338   1.856  0.4662 -0.2595  0.4138
  771MOL0     C 4003   8.967   5.210   1.890  0.9772  0.8215 -0.2088
  771MOL0     C 4004   8.883   4.756   1.766  0.5826  1.5246  0.0480
  771MOL0     C 4005   8.791   4.746   1.872 -0.8106  0.2896 -0.1127
  771MOL0     C 4006   8.720   4.631   1.905  0.2758  0.5279  0.0465
  771MOL0     C 4007   8.722   4.526   1.813  0.0152  0.3735 -0.8167
  771MOL0     O 4008   8.646   4.417   1.853 -0.8587  0.6255 -0.7623
  771MOL0     C 4009   8.576   4.341   1.751 -0.3549  0.0620 -0.5646
  771MOL0     C 4010   8.657   4.207   1.713  0.4991  0.0149 -0.1366
  771MOL0     C 4011   8.555   4.099   1.667 -0.7794 -0.5441 -0.6002
  771MOL0     C 4012   8.625   3.979   1.606  0.0408  1.2139 -0.2498
  771MOL0     C 4013   8.514   3.888   1.558  1.0172  0.4023 -0.1588
  771MOL0     C 4014   8.423   3.810   1.529 -0.3213  0.4553 -0.1619
  771MOL0     C 4015   8.813   4.527   1.709 -1.0849 -0.2708  0.0641
  771MOL0     C 4016   8.895   4.642   1.686  0.1593 -0.6114 -0.1917
  771MOL0     C 4017   8.997   4.616   1.572 -1.3847 -0.4481  0.4362
  771MOL0     H 4018   8.890   5.100   1.576 -1.8211 -0.7686  1.5049
  771MOL0     H 4019   8.998   5.307   1.520  1.4846  0.8211 -0.1625
  771MOL0     H 4020   9.145   5.689   1.707 -1.4715  1.4162  2.8221
  771MOL0     H 4021   9.100   5.601   1.851  1.8537 -2.5755  0.5810
  771MOL0     H 4022   9.311   5.433   1.738  1.9118 -1.2859  2.2464
  771MOL0     H 4023   9.318   5.533   1.885 -0.9399 -1.2091 -0.3478
  771MOL0     H 4024   9.387   5.722   1.716  0.4876 -0.4520  1.8887
  771MOL0     H 4025   9.370   5.603   1.592 -0.7671 -2.5837 -0.0338
  771MOL0     H 4026   9.526   5.578   1.854  1.3901 -0.7545  0.7912
  771MOL0     H 4027   9.555   5.478   1.709  0.8812 -0.4804  2.7155
  771MOL0     H 4028   9.615   5.693   1.589  1.0643 -0.0800  0.5582
  771MOL0     H 4029   9.635   5.768   1.754  0.1534 -0.5366  2.7104
  771MOL0     H 4030   9.803   5.566   1.800  1.7816  0.3758 -0.4930
  771MOL0     H 4031   9.790   5.553   1.629 -1.9305  0.5994 -0.5203
  771MOL0     H 4032   9.892   5.775   1.802 -0.1518 -0.3558  0.4355
  771MOL0     H 4033   9.853   5.811   1.627 -2.5320 -0.8324  0.7988
  771MOL0     H 4034  10.020   5.670   1.558  0.9664  1.8487  0.5193
  771MOL0     H 4035  10.101   5.775   1.649 -0.5841  0.2253  0.7112
  771MOL0     H 4036  10.162   5.713   1.923  0.4679  0.5422 -0.7172
  771MOL0     H 4037  10.360   5.483   1.989 -0.0718 -0.7349 -1.8489
  771MOL0     H 4038  10.240   5.539   2.124 -0.6259  0.7749 -0.7423
  771MOL0     H 4039  10.171   5.323   2.175 -0.0698 -1.6791 -0.4773
  771MOL0     H 4040  10.231   5.259   2.023  2.9083  0.8930 -1.9132
  771MOL0     H 4041  10.396   5.351   2.270 -3.1206  1.0294  0.6185
  771MOL0     H 4042  10.467   5.305   2.112 -0.6501 -1.7619 -0.4852
  771MOL0     H 4043  10.364   5.100   2.120 -2.8357 -0.8743  0.0260
  771MOL0     H 4044  10.300   5.107   2.277 -0.2878 -4.1060 -2.5566
  771MOL0     H 4045  10.342   4.894   2.198 -0.2115  0.9865  0.9067
  771MOL0     H 4046  10.387   4.676   2.210  1.2087 -2.3088  0.4727
  771MOL0     H 4047  10.713   4.283   2.325  1.0990 -1.9772  2.5244
  771MOL0     H 4048  10.684   4.045   2.314 -0.4649  1.4034  1.2752
  771MOL0     H 4049  10.271   3.858   2.294  0.3009 -0.6149  1.3467
  771MOL0     H 4050  10.323   3.892   2.137  2.3781  1.3359  0.4950
  771MOL0     H 4051  10.423   3.666   2.304 -2.8313  0.4948  1.9256
  771MOL0     H 4052  10.285   3.634   2.201  0.0425 -1.1879 -1.2485
  771MOL0     H 4053  10.521   3.746   2.057  0.6255  0.8301  3.2778
  771MOL0     H 4054  10.519   3.574   2.079  2.2021  0.7489  1.1080
  771MOL0     H 4055  10.297   3.726   1.937 -0.7240 -0.6129  0.5474
  771MOL0     H 4056  10.279   3.561   1.995 -2.1032  1.9731 -1.7497
  771MOL0     H 4057  10.329   3.516   1.786  0.9306 -2.3906  3.8946
  771MOL0     H 4058  10.480   3.504   1.861 -1.1825 -2.4475 -1.5467
  771MOL0     H 4059  10.418   3.760   1.717  0.2476 -1.3692 -2.5843
  771MOL0     H 4060  10.578   3.694   1.776  1.6591 -1.5397 -2.1129
  771MOL0     H 4061  10.541   3.682   1.533 -1.0095 -1.0083 -2.0777
  771MOL0     H 4062  10.409   3.571   1.542  0.5910  2.2255 -1.9141
  771MOL0     H 4063  10.688   3.523   1.654  0.2898 -0.0826 -0.7218
  771MOL0     H 4064  10.571   3.398   1.648 -0.1724  0.6775  2.1790
  771MOL0     H 4065  10.278   4.086   2.252  0.8743 -0.4788  0.7030
  771MOL0     H 4066  10.297   4.336   2.266 -1.3033 -1.1322 -0.9642
  771MOL0     H 4067  10.805   4.755   2.284 -0.7699 -1.9934 -0.8267
  771MOL0     H 4068  10.750   4.999   2.303 -1.9379  1.9650  0.8174
  771MOL0     H 4069   9.048   5.396   1.938  0.2812 -0.6303  0.7751
  771MOL0     H 4070   8.966   5.185   1.995  0.4817 -1.2682 -0.6661
  771MOL0     H 4071   8.766   4.826   1.940  0.7552  1.1116 -0.4511
  771MOL0     H 4072   8.651   4.646   1.987 -2.1665  2.7139 -2.2137
  771MOL0     H 4073   8.580   4.395   1.656 -1.7005  1.0476 -0.1037
  771MOL0     H 4074   8.470   4.329   1.778 -1.1235  0.9056 -2.9922
  771MOL0     H 4075   8.705   4.175   1.806 -2.8318  0.2894  1.8701
  771MOL0     H 4076   8.737   4.215   1.640 -1.1522 -0.2611 -2.0741
  771MOL0     H 4077   8.487   4.146   1.595 -2.0178 -0.0752  0.8455
  771MOL0     H 4078   8.494   4.061   1.749  2.6410 -1.6627  1.6599
  771MOL0     H 4079   8.702   3.997   1.531 -1.3122  0.9356 -1.7569
  771MOL0     H 4080   8.672   3.925   1.689 -0.5370 -0.8597 -1.2066
  771MOL0     H 4081   8.334   3.751   1.522 -1.0480  0.9154  3.1390
  771MOL0     H 4082   8.814   4.443   1.640 -1.8908 -1.7338  1.7734
  771MOL0     H 4083   9.010   4.508   1.556  3.0432 -0.5451  3.0733
  771MOL0     H 4084   8.970   4.653   1.473 -1.7616 -0.3451  0.5753
  771MOL0     H 4085   9.095   4.661   1.590 -1.6215  0.4960 -0.5742
  772MOL0     O 4086   2.707   2.551   4.914  0.4226 -0.9776 -0.2076
  772MOL0     C 4087   2.739   2.568   4.795  0.0829  0.2956 -0.5272
  772MOL0     O 4088   2.655   2.545   4.689  0.4218  0.3185 -0.2389
  772MOL0     C 4089   2.548   2.460   4.711  0.5150 -0.4746  0.4283
  772MOL0     C 4090   2.432   2.476   4.624 -0.4394  0.6114  0.0113
  772MOL0     C 4091   2.322   2.397   4.644  0.0191 -1.0448 -0.1608
  772MOL0     C 4092   2.307   2.306   4.753 -0.5458  0.0589 -0.5761
  772MOL0     O 4093   2.182   2.249   4.761 -0.4629 -0.2082  0.0053
  772MOL0     C 4094   2.178   2.122   4.828 -0.3108 -0.5934 -0.0290
  772MOL0     C 4095   2.065   2.041   4.766 -0.3096 -0.0449 -0.0638
  772MOL0     C 4096   1.936   2.112   4.797 -0.1504  0.5419  0.8897
  772MOL0     C 4097   1.823   2.017   4.782  0.1487 -1.0793  0.5630
  772MOL0     C 4098   1.686   2.067   4.815 -0.4311 -0.7805 -0.1990
  772MOL0     C 4099   1.582   1.960   4.834  0.3455  0.0370  0.4544
  772MOL0     C 4100   1.454   2.019   4.904 -0.7542 -0.5924 -0.7555
  772MOL0     C 4101   1.316   1.954   4.865  0.3054 -0.2968 -0.5191
  772MOL0     N 4102   1.204   2.008   4.948 -0.6159 -0.5843 -1.1734
  772MOL0     C 4103   1.160   2.140   4.952 -0.3985  0.8167 -0.6118
  772MOL0     C 4104   1.068   2.129   5.044 -0.3046  0.4148 -0.7853
  772MOL0     C 4105   0.979   2.253   5.079 -0.0468 -0.9283 -0.2205
  772MOL0     C 4106   0.840   2.204   5.132 -0.0184  0.9475  0.5709
  772MOL0     C 4107   0.732   2.312   5.121  0.1266  0.0154  0.7757
  772MOL0     C 4108   0.751   2.445   5.198 -1.1640 -0.0808  0.1559
  772MOL0     O 4109   0.723   2.556   5.110  0.4140 -0.0781  0.1906
  772MOL0     C 4110   0.598   2.614   5.120 -0.4237 -0.1098  0.3292
  772MOL0     C 4111   0.587   2.711   5.027 -0.1835  1.0159  0.6576
  772MOL0     C 4112   0.476   2.792   5.017  0.1702  0.6763 -0.1214
  772MOL0     C 4113   0.372   2.767   5.108  0.2095 -0.1408  0.0524
  772MOL0     C 4114   0.244   2.849   5.111  0.7225  0.0772  0.3589
  772MOL0     O 4115   0.148   2.802   5.189  0.1933 -0.2099  0.6684
  772MOL0     C 4116   0.028   2.859   5.208  0.3961  0.9991  0.0588
  772MOL0     C 4117  -0.031   2.853   5.340 -0.9676  0.2343  0.3380
  772MOL0     C 4118  -0.160   2.898   5.359  0.4049 -0.1118 -0.6819
  772MOL0     C 4119  -0.233   2.965   5.254 -0.0818 -0.8851  0.1205
  772MOL0     O 4120  -0.353   3.033   5.269  0.3876  0.3429 -0.3310
  772MOL0     C 4121  -0.462   2.959   5.217 -1.1687 -0.5306  0.3987
  772MOL0     C 4122  -0.590   3.004   5.266  0.5662 -0.0511 -0.8553
  772MOL0     C 4123  -0.699   2.916   5.206 -0.3631 -0.3204 -0.1577
  772MOL0     C 4124  -0.841   2.970   5.250 -0.1424 -0.2326  1.3174
  772MOL0     C 4125  -0.948   2.866   5.242  0.9450  1.0640  0.5127
  772MOL0     C 4126  -1.076   2.930   5.202  0.6318 -0.6278 -1.3300
  772MOL0     C 4127  -1.076   2.968   5.056 -0.0707 -0.1287 -0.3896
  772MOL0     C 4128  -1.129   2.851   4.972  0.1771 -0.2205  0.0895
  772MOL0    Cl 4129  -1.306   2.818   4.996  0.2454 -0.1149  0.4225
  772MOL0     C 4130  -0.173   2.964   5.127 -0.1148  0.8377  0.8782
  772MOL0     C 4131  -0.049   2.911   5.106  0.1819 -0.7947 -0.3775
  772MOL0     O 4132   0.242   2.956   5.056 -0.7476  0.1015 -0.6207
  772MOL0     C 4133   0.386   2.660   5.203  0.2847  0.9543  0.7992
  772MOL0     C 4134   0.503   2.584   5.213 -0.7101 -0.3853  0.0898
  772MOL0     N 4135   1.053   2.006   5.097  0.4138 -0.0824  0.0449
  772MOL0     N 4136   1.133   1.934   5.034  0.5777 -0.1338  0.6659
  772MOL0     C 4137   2.423   2.283   4.825 -0.0388  0.0921 -0.6256
  772MOL0     C 4138   2.539   2.358   4.808  0.6437 -0.3205 -0.5358
  772MOL0     C 4139   2.885   2.619   4.779  0.1350  0.4710  0.1525
  772MOL0     C 4140   2.968   2.599   4.888 -1.1703 -1.0131 -0.9679
  772MOL0     C 4141   3.096   2.655   4.898  0.5668  0.3148  0.4353
  772MOL0     C 4142   3.149   2.728   4.792  0.0742 -0.1289  0.1296
  772MOL0     O 4143   3.274   2.788   4.795  0.9741  0.2280  0.1756
  772MOL0     C 4144   3.358   2.761   4.899 -0.2401  0.2140  0.1238
  772MOL0     C 4145   3.498   2.807   4.880 -0.7164  0.4025 -0.3836
  772MOL0     C 4146   3.583   2.805   5.018 -0.1101 -0.1495 -0.1398
  772MOL0     C 4147   3.719   2.876   5.001 -0.2627 -0.6253 -0.1863
  772MOL0     C 4148   3.805   2.848   5.112  0.5599  0.6256  0.0041
  772MOL0     C 4149   3.860   2.822   5.214  0.3417 -1.3871 -0.6090
  772MOL0     C 4150   3.076   2.731   4.673  0.0317  1.3241  0.4163
  772MOL0     C 4151   2.946   2.676   4.665 -0.0655 -0.2808 -0.1953
  772MOL0     C 4152   2.864   2.681   4.543  1.1404 -0.4126 -0.1966
  772MOL0     H 4153   2.416   2.561   4.558  2.8351 -0.5404 -2.5280
  772MOL0     H 4154   2.237   2.398   4.575 -0.8507 -1.9043  0.8547
  772MOL0     H 4155   2.268   2.062   4.811 -0.1286  0.2377 -2.4105
  772MOL0     H 4156   2.172   2.127   4.937  2.9973  1.7836  0.2192
  772MOL0     H 4157   2.068   1.940   4.807 -0.2455 -0.4673 -1.0853
  772MOL0     H 4158   2.082   2.032   4.658 -3.5671  1.1667 -0.8131
  772MOL0     H 4159   1.918   2.204   4.741  0.3920  0.1566  0.0565
  772MOL0     H 4160   1.945   2.132   4.904 -1.2841  1.0710  0.8915
  772MOL0     H 4161   1.816   1.979   4.680 -0.0881  1.0625 -0.2841
  772MOL0     H 4162   1.856   1.932   4.841  1.6517 -0.3293  0.8499
  772MOL0     H 4163   1.695   2.125   4.907  0.4093 -2.0807  0.5633
  772MOL0     H 4164   1.655   2.136   4.735 -1.0104  3.3423  3.2323
  772MOL0     H 4165   1.557   1.933   4.731 -0.2795  1.6028  0.1630
  772MOL0     H 4166   1.620   1.873   4.889  0.3810  1.8212  3.4889
  772MOL0     H 4167   1.442   2.124   4.875 -0.5106  0.4309  2.4598
  772MOL0     H 4168   1.476   2.008   5.010 -0.4391  3.4268 -0.2584
  772MOL0     H 4169   1.282   1.974   4.763 -3.9713 -1.5512  0.4201
  772MOL0     H 4170   1.305   1.848   4.893  3.6883  0.0036  2.6898
  772MOL0     H 4171   1.202   2.227   4.901 -2.1654  0.7095 -2.3441
  772MOL0     H 4172   1.025   2.324   5.149 -0.3305 -0.6454 -0.3196
  772MOL0     H 4173   0.961   2.309   4.987 -0.4197 -1.5973 -0.5621
  772MOL0     H 4174   0.808   2.126   5.062  5.1537  1.1232 -2.4555
  772MOL0     H 4175   0.832   2.167   5.235  0.9428 -0.0833  0.2958
  772MOL0     H 4176   0.632   2.277   5.149 -1.0923  2.1067 -0.6207
  772MOL0     H 4177   0.725   2.327   5.013 -1.2961 -0.1461  0.8330
  772MOL0     H 4178   0.858   2.459   5.214 -0.6885 -1.6690 -1.3625
  772MOL0     H 4179   0.707   2.440   5.298 -0.3461  1.4360  0.6228
  772MOL0     H 4180   0.658   2.733   4.948 -0.6862  0.7294  0.1115
  772MOL0     H 4181   0.469   2.871   4.943 -1.1270 -1.6172 -2.6510
  772MOL0     H 4182   0.021   2.808   5.424  0.7692 -5.4107 -3.1509
  772MOL0     H 4183  -0.213   2.892   5.453  0.5179 -3.1629 -0.7330
  772MOL0     H 4184  -0.457   2.971   5.108 -1.9260  0.8093  0.4843
  772MOL0     H 4185  -0.458   2.850   5.226 -0.6419 -0.7913 -2.1838
  772MOL0     H 4186  -0.592   2.995   5.375 -0.1983  1.2821 -0.7416
  772MOL0     H 4187  -0.614   3.107   5.239 -4.4619 -0.4510  0.9904
  772MOL0     H 4188  -0.682   2.921   5.098  0.7260 -3.3258 -0.2253
  772MOL0     H 4189  -0.684   2.812   5.236  0.3472 -0.1431  0.1171
  772MOL0     H 4190  -0.863   3.057   5.187 -2.3843 -0.7304  1.3116
  772MOL0     H 4191  -0.827   3.003   5.353  2.9525 -1.8625  1.5508
  772MOL0     H 4192  -0.956   2.823   5.342  1.8507  0.5529  0.3837
  772MOL0     H 4193  -0.915   2.786   5.174  2.4764  3.3717 -1.6424
  772MOL0     H 4194  -1.162   2.868   5.226  0.8839 -1.3872 -2.3425
  772MOL0     H 4195  -1.103   3.018   5.263  1.3932 -0.9912 -0.4380
  772MOL0     H 4196  -0.978   3.004   5.024  1.7484 -0.6301  3.9318
  772MOL0     H 4197  -1.147   3.048   5.036 -0.0220  0.3545  1.2074
  772MOL0     H 4198  -1.124   2.896   4.872 -0.8445  2.4966  1.1556
  772MOL0     H 4199  -1.057   2.769   4.983 -0.4561 -0.5275  2.7146
  772MOL0     H 4200  -0.220   2.995   5.034  1.7264 -0.8498 -0.7216
  772MOL0     H 4201  -0.017   2.907   5.002  0.7277  0.9445 -0.3154
  772MOL0     H 4202   0.317   2.627   5.279 -2.1711  0.1976 -1.5802
  772MOL0     H 4203   0.518   2.502   5.282  2.8411 -1.7254 -2.0101
  772MOL0     H 4204   2.417   2.203   4.898 -0.4365 -2.3517 -3.1682
  772MOL0     H 4205   2.629   2.339   4.867  0.2890  0.3231  0.2356
  772MOL0     H 4206   2.939   2.546   4.978 -0.2842 -0.0650 -0.0893
  772MOL0     H 4207   3.150   2.630   4.988  2.3506  3.5803  0.4359
  772MOL0     H 4208   3.369   2.652   4.908  0.7603  0.2377 -0.7204
  772MOL0     H 4209   3.321   2.792   4.997 -1.0610 -1.0467  0.2428
  772MOL0     H 4210   3.497   2.911   4.847 -1.0945  0.7761  0.7477
  772MOL0     H 4211   3.543   2.740   4.807 -0.3088 -1.5386  1.5595
  772MOL0     H 4212   3.597   2.701   5.048  0.7059  0.0935  0.3298
  772MOL0     H 4213   3.525   2.854   5.097 -0.7555  0.7983 -1.1666
  772MOL0     H 4214   3.773   2.852   4.909  0.8144  0.9584 -0.0065
  772MOL0     H 4215   3.691   2.982   5.007 -1.0198 -0.8073 -0.3443
  772MOL0     H 4216   3.906   2.807   5.309 -0.8436  2.2444  0.7178
  772MOL0     H 4217   3.125   2.767   4.583  2.5086 -1.2550  0.6125
  772MOL0     H 4218   2.909   2.728   4.455 -2.0999 -1.6317 -2.6958
  772MOL0     H 4219   2.840   2.578   4.514  0.6651 -0.3089 -0.1749
  772MOL0     H 4220   2.763   2.715   4.567  0.9851 -2.0177  1.7515
  773MOL0     O 4221   6.013   9.902   1.473 -0.8284 -0.1311 -0.1305
  773MOL0     C 4222   6.058   9.948   1.370 -0.0968 -0.6994  0.1947
  773MOL0     O 4223   6.182   9.926   1.331 -0.4337  0.1433  0.5426
  773MOL0     C 4224   6.260   9.850   1.407 -0.5238 -0.1541  0.8447
  773MOL0     C 4225   6.289   9.720   1.361  0.7686 -0.2713  0.5685
  773MOL0     C 4226   6.384   9.651   1.431  0.5122  0.4652 -0.3290
  773MOL0     C 4227   6.451   9.704   1.546 -1.0612 -0.7948 -0.8032
  773MOL0     O 4228   6.543   9.639   1.623  0.2616 -0.8948 -0.0208
  773MOL0     C 4229   6.619   9.539   1.557  0.3028 -0.3933  0.3459
  773MOL0     C 4230   6.735   9.505   1.652  0.8894  0.3827  0.6729
  773MOL0     C 4231   6.822   9.623   1.686 -1.0615 -0.4149 -0.2242
  773MOL0     C 4232   6.900   9.664   1.557  0.0433  0.0370 -0.1974
  773MOL0     C 4233   7.001   9.781   1.574  0.2520 -1.1441  0.0611
  773MOL0     C 4234   6.925   9.913   1.598 -0.8924 -0.7652  0.1346
  773MOL0     C 4235   7.014  10.039   1.609  0.2572  0.4336  0.4324
  773MOL0     C 4236   6.926  10.160   1.628  0.6103 -0.7182 -0.3499
  773MOL0     N 4237   6.834  10.197   1.518 -0.0386 -0.0339  0.9486
  773MOL0     C 4238   6.844  10.270   1.406 -0.1003 -1.3730  0.5643
  773MOL0     C 4239   6.729  10.259   1.336  0.5925 -0.1829  0.5003
  773MOL0     C 4240   6.701  10.306   1.202 -0.3477 -0.0369  0.0803
  773MOL0     C 4241   6.551  10.339   1.192 -0.3193  0.4474 -0.3428
  773MOL0     C 4242   6.516  10.466   1.282  0.0466 -1.3626  0.1977
  773MOL0     C 4243   6.358  10.488   1.289  0.2342 -0.5201  0.3556
  773MOL0     O 4244   6.329  10.594   1.387 -0.1830 -0.5586  0.3891
  773MOL0     C 4245   6.205  10.617   1.426  0.3448 -0.5513  0.2905
  773MOL0     C 4246   6.098  10.617   1.335  0.6464  1.0484  0.4223
  773MOL0     C 4247   5.967  10.647   1.375  0.5498 -0.5394 -0.1587
  773MOL0     C 4248   5.942  10.690   1.509  0.0452 -0.1966  0.0321
  773MOL0     C 4249   5.806  10.735   1.538  0.7684 -0.7547 -1.0963
  773MOL0     O 4250   5.786  10.769   1.666  0.6153  0.4062  1.0522
  773MOL0     C 4251   5.674  10.821   1.727 -0.0135  0.2212  1.2599
  773MOL0     C 4252   5.540  10.799   1.684  0.5437  1.1738 -0.6040
  773MOL0     C 4253   5.431  10.843   1.761 -0.1321 -0.3425  0.3799
  773MOL0     C 4254   5.451  10.905   1.885 -0.0381  0.6626  0.3535
  773MOL0     O 4255   5.353  10.942   1.972  0.6274 -0.0767  0.1721
  773MOL0     C 4256   5.211  10.915   1.932 -1.0899 -0.1607 -0.3828
  773MOL0     C 4257   5.117  10.949   2.048 -0.2581 -0.3061 -0.0063
  773MOL0     C 4258   5.157  11.079   2.121  0.5629  0.8781 -0.3203
  773MOL0     C 4259   5.031  11.148   2.188  0.4667  0.9772  0.5868
  773MOL0     C 4260   4.957  11.055   2.288  0.3897 -0.1498 -0.8160
  773MOL0     C 4261   5.039  10.997   2.405 -0.0799  0.0117  0.3010
  773MOL0     C 4262   5.068  11.094   2.515 -0.2024 -1.1229 -0.8487
  773MOL0     C 4263   5.149  11.048   2.637  0.0998 -0.2674 -0.4205
  773MOL0    Cl 4264   5.311  11.008   2.579 -0.2781 -0.1674  0.0717
  773MOL0     C 4265   5.585  10.916   1.932  0.7504  0.0708  0.2934
  773MOL0     C 4266   5.697  10.876   1.854 -0.0630 -0.8113 -0.2948
  773MOL0     O 4267   5.727  10.758   1.450  0.0896  0.2264 -0.8065
  773MOL0     C 4268   6.052  10.687   1.601  0.0487 -0.4700 -0.2401
  773MOL0     C 4269   6.175  10.668   1.551 -0.3348  0.2165  0.4346
  773MOL0     N 4270   6.647  10.181   1.416 -0.3022 -0.0676  0.1623
  773MOL0     N 4271   6.698  10.159   1.530 -0.5099  0.4148 -0.7093
  773MOL0     C 4272   6.432   9.835   1.582 -0.4118 -0.2067  1.2391
  773MOL0     C 4273   6.332   9.909   1.510 -0.4049  0.8192 -0.2272
  773MOL0     C 4274   5.981  10.052   1.302  0.3256 -0.2761  0.2985
  773MOL0     C 4275   6.048  10.167   1.264  0.4766  0.1310 -0.2168
  773MOL0     C 4276   5.986  10.279   1.199 -0.4183  0.2929 -0.0470
  773MOL0     C 4277   5.850  10.264   1.163 -0.2055 -0.2955  0.2298
  773MOL0     O 4278   5.767  10.356   1.095 -0.3509  0.8052  0.5568
  773MOL0     C 4279   5.675  10.422   1.175 -0.6053 -0.1511  0.0344
  773MOL0     C 4280   5.601  10.541   1.093 -0.4362 -1.5748 -0.7709
  773MOL0     C 4281   5.529  10.494   0.972  0.4397  1.0499  0.2659
  773MOL0     C 4282   5.490  10.607   0.872 -0.8788 -0.1229  0.4492
  773MOL0     C 4283   5.384  10.558   0.772  0.1382 -0.4823 -0.3877
  773MOL0     C 4284   5.290  10.508   0.725  0.5856 -0.8032 -0.1304
  773MOL0     C 4285   5.780  10.147   1.198  0.0053  0.3551 -0.0462
  773MOL0     C 4286   5.836  10.045   1.269 -0.1138 -0.9791 -0.1508
  773MOL0     C 4287   5.740   9.940   1.321 -0.3663 -0.1223  0.1916
  773MOL0     H 4288   6.239   9.673   1.277  1.6994 -0.8844  0.3446
  773MOL0     H 4289   6.400   9.551   1.391 -0.5459  0.5135 -0.8981
  773MOL0     H 4290   6.553   9.458   1.525 -0.7229  0.6525 -0.2817
  773MOL0     H 4291   6.647   9.575   1.457  0.1830  0.5808  0.6539
  773MOL0     H 4292   6.790   9.429   1.596  1.8789  2.2919 -1.0996
  773MOL0     H 4293   6.701   9.456   1.744 -0.7477 -4.2211 -2.0353
  773MOL0     H 4294   6.891   9.593   1.766 -0.3779  1.7123  0.0515
  773MOL0     H 4295   6.762   9.699   1.736 -0.7089  2.2001 -3.4303
  773MOL0     H 4296   6.960   9.577   1.529 -4.1451 -2.6416 -1.8066
  773MOL0     H 4297   6.828   9.683   1.476 -0.5473 -1.4696 -0.0485
  773MOL0     H 4298   7.068   9.769   1.660 -0.1381  1.5029  0.8301
  773MOL0     H 4299   7.069   9.798   1.491 -0.6047  1.6794 -0.1522
  773MOL0     H 4300   6.846   9.929   1.524 -2.8462  0.9314  2.4663
  773MOL0     H 4301   6.885   9.900   1.698  2.0522 -1.3144  1.3620
  773MOL0     H 4302   7.086  10.060   1.529 -0.2256  0.6281  0.0438
  773MOL0     H 4303   7.068  10.026   1.703  0.2543 -0.9795  0.2589
  773MOL0     H 4304   6.870  10.137   1.719  2.1182 -2.2356  0.2402
  773MOL0     H 4305   6.991  10.247   1.640  0.0667  0.4401 -4.1990
  773MOL0     H 4306   6.931  10.324   1.369 -0.8611 -0.0038  0.6936
  773MOL0     H 4307   6.761  10.396   1.189 -1.0018  0.8430  2.7244
  773MOL0     H 4308   6.732  10.229   1.130 -0.4698 -1.5009  1.5437
  773MOL0     H 4309   6.519  10.352   1.088 -0.3647  0.3570 -0.3409
  773MOL0     H 4310   6.500  10.244   1.212  1.0002 -0.3671 -0.6602
  773MOL0     H 4311   6.557  10.551   1.226  0.1372 -0.1355  2.0380
  773MOL0     H 4312   6.554  10.458   1.384  0.6352 -3.6635 -0.1491
  773MOL0     H 4313   6.293  10.402   1.308  0.4824 -0.7079  0.3512
  773MOL0     H 4314   6.319  10.528   1.195  1.9426  1.0865  0.2715
  773MOL0     H 4315   6.114  10.597   1.229  1.2435 -1.0067  0.8477
  773MOL0     H 4316   5.889  10.636   1.301 -0.4387  0.8357  0.6372
  773MOL0     H 4317   5.519  10.748   1.591 -2.3401  1.9011 -0.4478
  773MOL0     H 4318   5.329  10.825   1.729 -1.5289  1.5430  3.3311
  773MOL0     H 4319   5.185  10.961   1.836  2.4000 -2.3863 -2.6216
  773MOL0     H 4320   5.230  10.809   1.916 -0.7453  0.1685 -2.4771
  773MOL0     H 4321   5.015  10.942   2.007  0.1061 -1.7256 -0.7556
  773MOL0     H 4322   5.119  10.864   2.117 -1.2830 -2.0035 -1.9520
  773MOL0     H 4323   5.226  11.054   2.201 -0.1088  4.0419  1.3767
  773MOL0     H 4324   5.202  11.154   2.055  1.0621  0.8849  0.0261
  773MOL0     H 4325   4.966  11.175   2.104  0.5470  0.2063  0.2720
  773MOL0     H 4326   5.075  11.232   2.242  4.7112  0.3281 -1.4368
  773MOL0     H 4327   4.912  10.972   2.233 -0.5996 -0.3495  0.2511
  773MOL0     H 4328   4.870  11.108   2.330 -1.2472 -3.1370 -0.1516
  773MOL0     H 4329   4.974  10.918   2.444 -0.1384 -0.1312 -0.0831
  773MOL0     H 4330   5.135  10.955   2.376  1.7708  3.0048  1.6504
  773MOL0     H 4331   4.972  11.118   2.560 -0.7100 -1.3205 -1.7908
  773MOL0     H 4332   5.119  11.187   2.487  1.9452 -1.8406  0.4186
  773MOL0     H 4333   5.156  11.128   2.711  0.2490 -0.9775  0.3501
  773MOL0     H 4334   5.110  10.966   2.697  2.1649 -1.7857 -1.0385
  773MOL0     H 4335   5.610  10.940   2.035  1.2101  0.7928  0.0209
  773MOL0     H 4336   5.798  10.893   1.891  0.1527  3.6619 -2.3409
  773MOL0     H 4337   6.046  10.726   1.702 -0.7243 -3.8625  1.1391
  773MOL0     H 4338   6.253  10.673   1.627  0.6101 -0.3846 -0.4615
  773MOL0     H 4339   6.482   9.885   1.665 -0.4376 -1.9056  2.3260
  773MOL0     H 4340   6.315  10.015   1.525  1.1520  1.2926 -1.5640
  773MOL0     H 4341   6.153  10.182   1.288  0.3165  1.6950 -0.3679
  773MOL0     H 4342   6.038  10.364   1.157  0.7935  0.5204  1.7980
  773MOL0     H 4343   5.727  10.464   1.262 -1.7018 -0.0178  0.6447
  773MOL0     H 4344   5.606  10.347   1.214 -0.6367  0.2777  0.8390
  773MOL0     H 4345   5.669  10.624   1.070  0.9825 -2.6849 -0.7256
  773MOL0     H 4346   5.531  10.588   1.162  2.1393 -0.0042  0.9714
  773MOL0     H 4347   5.432  10.453   1.000  0.5719  0.8134  0.3747
  773MOL0     H 4348   5.588  10.418   0.920  3.1543  2.4661  1.0634
  773MOL0     H 4349   5.441  10.688   0.927 -0.3672  0.1660  0.4840
  773MOL0     H 4350   5.581  10.643   0.823 -2.0112 -1.0325 -2.5174
  773MOL0     H 4351   5.206  10.458   0.681  0.3552  1.0327 -1.9065
  773MOL0     H 4352   5.677  10.139   1.166 -0.5781  0.3363  1.7588
  773MOL0     H 4353   5.792   9.844   1.323  0.4634  0.2259 -2.0055
  773MOL0     H 4354   5.711   9.962   1.424  1.8378  2.1607  0.4079
  773MOL0     H 4355   5.650   9.927   1.260  0.3886  1.1992 -1.2817
  774MOL0     O 4356  11.170   6.492   7.443  0.4088  0.0938  1.0146
  774MOL0     C 4357  11.212   6.432   7.343 -0.4948 -0.0763 -0.4083
  774MOL0     O 4358  11.160   6.429   7.214  0.2980 -0.1878  0.0083
  774MOL0     C 4359  11.055   6.511   7.178 -0.8365 -0.5279  0.7352
  774MOL0     C 4360  11.081   6.648   7.171 -0.1868 -0.2638  0.6160
  774MOL0     C 4361  10.976   6.729   7.132  1.0575 -0.4007  0.5971
  774MOL0     C 4362  10.853   6.683   7.090  0.7148 -0.1887 -0.1303
  774MOL0     O 4363  10.758   6.762   7.042  0.4854 -0.2334  0.0642
  774MOL0     C 4364  10.782   6.796   6.906 -0.4221 -0.0519 -0.7118
  774MOL0     C 4365  10.713   6.924   6.867  0.4548  0.6564 -0.8981
  774MOL0     C 4366  10.767   6.968   6.724  1.0232  0.4237 -0.7212
  774MOL0     C 4367  10.725   6.883   6.600 -0.6699  0.3124 -0.1920
  774MOL0     C 4368  10.771   6.957   6.475  0.0324  0.1180  0.5243
  774MOL0     C 4369  10.702   6.894   6.353 -0.8859 -0.4534  0.7488
  774MOL0     C 4370  10.751   6.960   6.222  0.3496  0.0832  0.2022
  774MOL0     C 4371  10.677   6.916   6.100 -0.4709 -0.2300  0.0157
  774MOL0     N 4372  10.542   6.963   6.088  0.8215  0.4980 -0.6787
  774MOL0     C 4373  10.428   6.880   6.093 -0.5019  0.2086  0.3120
  774MOL0     C 4374  10.321   6.965   6.095  0.1846  0.0018  0.7642
  774MOL0     C 4375  10.176   6.924   6.099  0.5561 -0.1677  1.1445
  774MOL0     C 4376  10.099   7.040   6.034  0.3574 -0.0299 -0.3526
  774MOL0     C 4377   9.950   7.013   6.025  1.4602 -0.3395 -0.4254
  774MOL0     C 4378   9.888   7.064   6.162 -0.8294 -0.6143 -0.3829
  774MOL0     O 4379   9.748   7.070   6.168 -0.0873  0.0617  0.2620
  774MOL0     C 4380   9.682   6.952   6.152  0.4872  0.0662 -0.2981
  774MOL0     C 4381   9.543   6.968   6.158  0.2968  0.9545 -0.8873
  774MOL0     C 4382   9.451   6.861   6.151 -0.9160 -0.0093  0.0651
  774MOL0     C 4383   9.508   6.732   6.152 -0.3441  0.0849 -0.7465
  774MOL0     C 4384   9.415   6.609   6.147 -0.4906  0.1490  0.1891
  774MOL0     O 4385   9.484   6.496   6.164  0.9844  0.1055 -0.4565
  774MOL0     C 4386   9.410   6.375   6.151  0.6984 -0.8763 -0.4209
  774MOL0     C 4387   9.452   6.265   6.220  0.0409  1.1194 -0.0157
  774MOL0     C 4388   9.377   6.147   6.204 -0.0135 -0.4544 -1.7787
  774MOL0     C 4389   9.270   6.129   6.113 -0.0354  0.2722 -0.2983
  774MOL0     O 4390   9.213   6.003   6.101 -0.4239  0.2786  0.5372
  774MOL0     C 4391   9.081   6.000   6.050  0.1645  0.2793  0.0171
  774MOL0     C 4392   9.019   5.876   6.074 -0.9734 -0.0098 -0.7090
  774MOL0     C 4393   9.072   5.766   5.976 -0.0258 -0.1446 -0.3716
  774MOL0     C 4394   9.059   5.627   6.040 -0.0096  0.2545  0.5853
  774MOL0     C 4395   9.069   5.507   5.937 -0.6604 -0.5242 -0.8788
  774MOL0     C 4396   9.212   5.465   5.919 -0.4732 -0.0272  0.2252
  774MOL0     C 4397   9.249   5.358   6.017  1.1777  0.3381  0.3178
  774MOL0     C 4398   9.397   5.335   6.013 -0.5091 -0.1258  0.0085
  774MOL0    Cl 4399   9.453   5.250   5.867  0.2817 -0.1597 -0.4097
  774MOL0     C 4400   9.245   6.237   6.022  0.0393  0.4941 -0.0501
  774MOL0     C 4401   9.310   6.359   6.053 -0.6824 -0.1746  0.4701
  774MOL0     O 4402   9.291   6.628   6.139  0.5733  0.1974  0.0649
  774MOL0     C 4403   9.646   6.706   6.160 -0.4780 -0.3385  0.1613
  774MOL0     C 4404   9.733   6.825   6.152  0.2607  0.5834  0.2967
  774MOL0     N 4405  10.367   7.094   6.087 -0.3398 -0.2591  0.5437
  774MOL0     N 4406  10.494   7.087   6.086  0.2469 -0.2562 -0.4586
  774MOL0     C 4407  10.832   6.544   7.102 -0.1505 -0.2002  0.7090
  774MOL0     C 4408  10.942   6.459   7.132  1.4316  0.0806  0.3354
  774MOL0     C 4409  11.339   6.356   7.358  0.9487  0.6597 -0.1794
  774MOL0     C 4410  11.392   6.286   7.241  0.7168  0.7595 -0.2614
  774MOL0     C 4411  11.517   6.236   7.238 -0.4891  0.2101  0.0585
  774MOL0     C 4412  11.598   6.241   7.350 -0.3295  0.0427 -0.5063
  774MOL0     O 4413  11.726   6.193   7.348 -0.1771 -1.3584  0.0510
  774MOL0     C 4414  11.805   6.220   7.469  0.8932 -0.0608 -0.1840
  774MOL0     C 4415  11.942   6.163   7.432 -0.4953 -0.5571  0.1592
  774MOL0     C 4416  12.051   6.238   7.504  0.3453  0.4229 -0.5510
  774MOL0     C 4417  12.188   6.166   7.490 -0.2386 -0.3566 -0.3920
  774MOL0     C 4418  12.292   6.212   7.583  0.7976  0.7945 -0.2242
  774MOL0     C 4419  12.379   6.250   7.651 -0.6351 -0.3296 -0.8951
  774MOL0     C 4420  11.552   6.303   7.468  0.2031 -0.8203 -0.6814
  774MOL0     C 4421  11.425   6.368   7.473  0.3690 -0.1484  0.1527
  774MOL0     C 4422  11.377   6.412   7.610 -0.5183  0.2661  0.1007
  774MOL0     H 4423  11.171   6.699   7.204  0.2244 -0.1411 -0.6191
  774MOL0     H 4424  10.983   6.837   7.139 -0.2973 -0.4216  3.4233
  774MOL0     H 4425  10.887   6.813   6.881 -1.4230  2.4229 -3.8502
  774MOL0     H 4426  10.750   6.708   6.849 -2.2693 -1.5231  2.3088
  774MOL0     H 4427  10.743   7.005   6.934 -3.2333 -2.0982  4.8901
  774MOL0     H 4428  10.604   6.921   6.879  0.6254  0.0078  0.6835
  774MOL0     H 4429  10.875   6.986   6.718  1.2169 -0.8373 -1.4028
  774MOL0     H 4430  10.719   7.065   6.716 -0.1296 -0.0808 -0.0751
  774MOL0     H 4431  10.786   6.792   6.593  2.5494  2.3330 -0.5712
  774MOL0     H 4432  10.617   6.866   6.596 -0.2634 -3.6601  1.1756
  774MOL0     H 4433  10.741   7.062   6.474 -0.3035  0.2226  4.6097
  774MOL0     H 4434  10.879   6.956   6.460  0.0465 -1.3658  0.6037
  774MOL0     H 4435  10.738   6.792   6.339  1.1407  0.1494  1.1422
  774MOL0     H 4436  10.593   6.886   6.362 -0.8466 -3.9020 -0.6483
  774MOL0     H 4437  10.858   6.946   6.203  1.4969  3.2643  3.1668
  774MOL0     H 4438  10.746   7.069   6.226 -0.0729  0.2383 -2.6919
  774MOL0     H 4439  10.739   6.953   6.018  0.1827  2.4329  1.5791
  774MOL0     H 4440  10.685   6.807   6.099  0.4346 -0.1721  0.0682
  774MOL0     H 4441  10.418   6.772   6.086 -0.9936  0.3311 -1.2215
  774MOL0     H 4442  10.165   6.830   6.044 -1.1615 -0.4778  1.9429
  774MOL0     H 4443  10.148   6.902   6.203  1.1303 -0.1617  1.3065
  774MOL0     H 4444  10.112   7.130   6.094  0.3641  0.2306 -0.7402
  774MOL0     H 4445  10.131   7.074   5.935  0.2870 -1.0680 -0.7442
  774MOL0     H 4446   9.914   6.913   5.999 -0.8291 -0.2742  1.9681
  774MOL0     H 4447   9.909   7.081   5.950  2.1145 -0.2929 -0.7430
  774MOL0     H 4448   9.920   7.164   6.192  1.1216 -1.6774  1.3593
  774MOL0     H 4449   9.931   6.999   6.238  1.6339  1.1340 -0.1770
  774MOL0     H 4450   9.510   7.071   6.170  0.1548  0.8990 -0.7980
  774MOL0     H 4451   9.344   6.875   6.162 -0.8710  1.3955 -0.9784
  774MOL0     H 4452   9.528   6.255   6.297 -0.2274 -3.4692 -0.0429
  774MOL0     H 4453   9.402   6.059   6.263  2.1711  1.6222  0.6315
  774MOL0     H 4454   9.027   6.075   6.109 -0.7014  1.0987 -1.7381
  774MOL0     H 4455   9.082   6.029   5.945  0.3284  0.2692  0.0156
  774MOL0     H 4456   9.047   5.842   6.174 -0.0237 -0.4618 -1.1181
  774MOL0     H 4457   8.909   5.879   6.072 -0.9617  0.3433 -1.0101
  774MOL0     H 4458   8.994   5.771   5.899 -0.6991 -3.7141 -0.0739
  774MOL0     H 4459   9.174   5.779   5.941 -0.5202 -0.1092 -1.8920
  774MOL0     H 4460   8.965   5.614   6.093  3.1083 -2.9198  6.2462
  774MOL0     H 4461   9.142   5.632   6.111  0.1748  2.0288  0.3114
  774MOL0     H 4462   9.021   5.542   5.845 -1.0947  1.6582  0.1130
  774MOL0     H 4463   9.003   5.427   5.972 -1.2261  0.3698  0.1525
  774MOL0     H 4464   9.224   5.430   5.816 -1.1782  2.0806 -0.6179
  774MOL0     H 4465   9.276   5.552   5.935  1.2420 -1.7731  3.9905
  774MOL0     H 4466   9.196   5.265   5.992  1.2366  0.4541 -0.2688
  774MOL0     H 4467   9.238   5.383   6.122  0.3561 -1.2202  0.6308
  774MOL0     H 4468   9.449   5.430   6.030  1.1073 -1.2133  1.4837
  774MOL0     H 4469   9.435   5.275   6.096 -0.4840 -1.7678 -1.1383
  774MOL0     H 4470   9.176   6.223   5.940 -1.9475 -0.3580  1.6824
  774MOL0     H 4471   9.289   6.435   5.979 -2.0678 -0.8618  0.1224
  774MOL0     H 4472   9.688   6.606   6.154 -0.5642 -0.4110 -6.3690
  774MOL0     H 4473   9.839   6.807   6.165  0.9821  1.8024 -2.9385
  774MOL0     H 4474  10.734   6.500   7.083  0.8241 -1.7808 -0.9323
  774MOL0     H 4475  10.925   6.352   7.134  3.0164 -0.1968  1.4965
  774MOL0     H 4476  11.341   6.301   7.147 -0.6788  1.2900  0.5419
  774MOL0     H 4477  11.558   6.190   7.148 -0.4646 -0.8894  0.6170
  774MOL0     H 4478  11.752   6.169   7.550 -4.9740  0.6098 -3.0774
  774MOL0     H 4479  11.817   6.327   7.482  1.0777 -0.3652  2.7406
  774MOL0     H 4480  11.962   6.175   7.325 -1.0896  0.2758  0.1319
  774MOL0     H 4481  11.940   6.057   7.456 -0.7444 -0.8001 -0.8810
  774MOL0     H 4482  12.025   6.242   7.610 -1.0828  0.8813 -0.8864
  774MOL0     H 4483  12.065   6.340   7.467  3.2316  0.3745  0.1737
  774MOL0     H 4484  12.174   6.058   7.498 -0.4541 -0.5352 -2.5132
  774MOL0     H 4485  12.213   6.192   7.386 -2.4686 -0.8327 -1.1058
  774MOL0     H 4486  12.445   6.307   7.713 -0.7840  0.8379 -1.7677
  774MOL0     H 4487  11.612   6.301   7.558 -0.9825 -0.6454  0.1276
  774MOL0     H 4488  11.447   6.368   7.682 -0.6864  0.0374  0.1247
  774MOL0     H 4489  11.362   6.520   7.611 -2.1893  0.1698 -2.8974
  774MOL0     H 4490  11.282   6.361   7.629 -0.2724 -0.6282 -0.9178
  775MOL0     O 4491   7.452   1.808   6.504  0.4105  0.2680  0.2638
  775MOL0     C 4492   7.414   1.920   6.531  0.0414 -1.0536 -0.4381
  775MOL0     O 4493   7.486   2.015   6.596 -0.0675 -0.6915  0.4971
  775MOL0     C 4494   7.621   1.995   6.617  0.0736 -0.2803 -0.0082
  775MOL0     C 4495   7.663   1.999   6.752 -0.1260  0.4105  0.6429
  775MOL0     C 4496   7.793   2.010   6.782 -0.5073  0.0205  0.0697
  775MOL0     C 4497   7.892   2.010   6.679  0.2163 -0.0664 -1.0335
  775MOL0     O 4498   8.020   2.026   6.733  0.7496 -0.5243  0.1182
  775MOL0     C 4499   8.134   2.049   6.652 -0.2309  0.3115  1.0011
  775MOL0     C 4500   8.134   2.198   6.626 -0.3458  0.5974  0.0127
  775MOL0     C 4501   8.158   2.298   6.745 -0.5336 -0.2733  0.4805
  775MOL0     C 4502   8.307   2.289   6.792 -0.4254  0.3014 -0.2904
  775MOL0     C 4503   8.331   2.321   6.943  0.2576 -0.0540  0.3465
  775MOL0     C 4504   8.316   2.195   7.042  0.9330  0.1326 -0.1332
  775MOL0     C 4505   8.422   2.081   7.018 -0.0328  1.1062  0.0447
  775MOL0     C 4506   8.563   2.108   7.058  1.4934 -0.6050  1.1813
  775MOL0     N 4507   8.633   1.987   7.110 -0.2264 -0.4877 -0.7934
  775MOL0     C 4508   8.676   1.886   7.024  0.6259  0.4850 -0.0974
  775MOL0     C 4509   8.756   1.803   7.097 -0.2380 -0.1984 -0.0556
  775MOL0     C 4510   8.828   1.678   7.052 -0.3243 -0.3157  0.4035
  775MOL0     C 4511   8.968   1.669   7.099 -0.7095  0.2483 -0.0092
  775MOL0     C 4512   9.057   1.797   7.071 -0.5000  0.2567 -0.0306
  775MOL0     C 4513   9.049   1.837   6.922  1.0131  0.6308  0.4295
  775MOL0     O 4514   9.149   1.929   6.879 -0.3588  0.1492 -0.1128
  775MOL0     C 4515   9.236   1.881   6.794  0.8265 -1.1350  0.3519
  775MOL0     C 4516   9.370   1.882   6.839 -0.8533  0.3497 -0.2079
  775MOL0     C 4517   9.476   1.830   6.767  1.0591  0.4152  0.1059
  775MOL0     C 4518   9.446   1.801   6.628 -0.1301  0.1364 -0.7976
  775MOL0     C 4519   9.542   1.735   6.545  0.2397  0.1476  0.3757
  775MOL0     O 4520   9.663   1.713   6.610 -0.4843  0.7288 -0.4672
  775MOL0     C 4521   9.774   1.686   6.530  0.1269  0.1950  0.0998
  775MOL0     C 4522   9.780   1.552   6.490 -0.2002 -0.3018 -0.4922
  775MOL0     C 4523   9.883   1.503   6.415  0.2979 -0.7079 -0.9248
  775MOL0     C 4524   9.988   1.586   6.378  0.0396 -0.3542 -0.5225
  775MOL0     O 4525  10.097   1.524   6.312  0.0710 -0.4692 -0.1147
  775MOL0     C 4526  10.206   1.596   6.245  0.4013  0.2273  0.8128
  775MOL0     C 4527  10.291   1.498   6.163  0.1718  0.0772 -0.2048
  775MOL0     C 4528  10.378   1.411   6.244 -1.0287 -0.4684  0.0889
  775MOL0     C 4529  10.416   1.288   6.153  0.2732  1.0801 -0.2528
  775MOL0     C 4530  10.456   1.165   6.244 -0.0101  0.6356  0.3532
  775MOL0     C 4531  10.337   1.072   6.285  0.9098 -0.6862 -0.2966
  775MOL0     C 4532  10.386   0.968   6.388 -0.2110  0.6905  0.4199
  775MOL0     C 4533  10.277   0.859   6.422 -0.3965  0.5679 -0.4406
  775MOL0    Cl 4534  10.311   0.794   6.594  0.1512 -0.3703  0.1500
  775MOL0     C 4535   9.984   1.731   6.417  0.4827 -0.7991  0.4520
  775MOL0     C 4536   9.873   1.776   6.488  0.2607 -0.0769  0.1607
  775MOL0     O 4537   9.523   1.713   6.426  0.5893 -0.1778 -0.3930
  775MOL0     C 4538   9.313   1.812   6.581  0.9931 -0.2120 -0.5441
  775MOL0     C 4539   9.207   1.857   6.664  0.3548 -0.6581  0.2374
  775MOL0     N 4540   8.762   1.846   7.228  0.2637 -0.0292  0.5685
  775MOL0     N 4541   8.687   1.960   7.236  0.9744 -0.0787 -0.2676
  775MOL0     C 4542   7.855   2.004   6.540  0.1898  0.4119  0.6375
  775MOL0     C 4543   7.718   1.986   6.510  0.1367 -0.1348 -0.2846
  775MOL0     C 4544   7.279   1.961   6.479 -0.0009  0.6662  0.7755
  775MOL0     C 4545   7.195   1.857   6.423 -1.1824 -0.0465  0.4924
  775MOL0     C 4546   7.066   1.872   6.380  0.2710  0.3206 -0.1956
  775MOL0     C 4547   7.009   2.001   6.375  0.2500  0.1743  0.0904
  775MOL0     O 4548   6.877   2.015   6.363  0.1705  0.1821 -1.1806
  775MOL0     C 4549   6.831   2.087   6.251 -0.0172  0.0869 -0.3115
  775MOL0     C 4550   6.770   1.999   6.150 -0.1334 -0.4473 -0.4612
  775MOL0     C 4551   6.868   1.915   6.078  0.0476  0.9686 -0.4263
  775MOL0     C 4552   6.911   1.965   5.936  0.5590  0.2027 -0.7297
  775MOL0     C 4553   7.011   2.072   5.950 -0.0411 -0.1619 -0.5686
  775MOL0     C 4554   7.098   2.153   5.964 -0.0451  0.8085 -0.8472
  775MOL0     C 4555   7.083   2.109   6.420 -0.4768  0.1276  0.2599
  775MOL0     C 4556   7.219   2.094   6.468 -0.6982 -0.6614 -0.4865
  775MOL0     C 4557   7.288   2.218   6.517  1.0046 -0.2691 -0.7488
  775MOL0     H 4558   7.596   2.008   6.837 -0.6866 -2.1754  0.5505
  775MOL0     H 4559   7.816   2.011   6.888 -1.4978  0.1756  0.2961
  775MOL0     H 4560   8.226   2.015   6.700 -0.3758  0.3839  1.3338
  775MOL0     H 4561   8.129   1.994   6.558 -3.4105 -0.6582  1.6316
  775MOL0     H 4562   8.042   2.244   6.587 -0.4571 -0.5598 -1.1698
  775MOL0     H 4563   8.218   2.205   6.556  0.2667  3.2159  0.8961
  775MOL0     H 4564   8.090   2.293   6.830  0.3993 -0.1220  1.2479
  775MOL0     H 4565   8.153   2.402   6.711 -1.3625 -0.7673 -1.0489
  775MOL0     H 4566   8.352   2.193   6.768 -0.1741 -0.0158  1.3690
  775MOL0     H 4567   8.364   2.373   6.751 -0.0129  0.4846  0.6232
  775MOL0     H 4568   8.430   2.367   6.953  0.7243 -0.7419 -0.9645
  775MOL0     H 4569   8.264   2.402   6.975  0.2503  0.1205 -0.1116
  775MOL0     H 4570   8.333   2.226   7.145  2.9373 -3.2327  0.6989
  775MOL0     H 4571   8.214   2.155   7.034  0.6968  0.8847 -1.2890
  775MOL0     H 4572   8.416   2.043   6.916 -1.5237 -2.5349  1.3200
  775MOL0     H 4573   8.387   1.990   7.067  2.5686 -0.5027 -0.8733
  775MOL0     H 4574   8.618   2.144   6.971 -0.7410 -1.5703 -0.7472
  775MOL0     H 4575   8.547   2.184   7.135 -3.6251  1.0626 -1.0869
  775MOL0     H 4576   8.660   1.879   6.917 -1.8122  1.8361  0.1088
  775MOL0     H 4577   8.785   1.596   7.110  1.2698  0.6210  3.0984
  775MOL0     H 4578   8.823   1.656   6.945  5.8195 -1.9535  0.0523
  775MOL0     H 4579   8.971   1.650   7.206  0.8701  2.6770  0.4529
  775MOL0     H 4580   9.016   1.584   7.050 -0.3622 -0.2537  1.1834
  775MOL0     H 4581   9.157   1.767   7.105 -0.3096 -2.5482 -2.6845
  775MOL0     H 4582   9.019   1.877   7.135  1.1728  0.2755  1.0184
  775MOL0     H 4583   8.955   1.883   6.890  0.9721 -0.5970 -1.3584
  775MOL0     H 4584   9.045   1.740   6.872 -1.1015  0.4397  0.8538
  775MOL0     H 4585   9.394   1.913   6.940  2.3255 -3.8887  0.6181
  775MOL0     H 4586   9.577   1.824   6.807  1.7387 -0.1176 -1.5872
  775MOL0     H 4587   9.701   1.484   6.521  1.0976 -1.4712  0.3277
  775MOL0     H 4588   9.879   1.397   6.392 -0.0826 -1.3291  1.6445
  775MOL0     H 4589  10.177   1.674   6.176  2.2438  0.1755 -0.0873
  775MOL0     H 4590  10.267   1.651   6.317  2.6215  1.0626 -1.5647
  775MOL0     H 4591  10.227   1.442   6.094  0.7593 -0.0844 -0.6303
  775MOL0     H 4592  10.350   1.565   6.098 -2.6325  1.5881 -1.3664
  775MOL0     H 4593  10.466   1.472   6.264 -2.9053  1.3726  3.8904
  775MOL0     H 4594  10.337   1.389   6.343 -2.3039 -2.9710 -0.9172
  775MOL0     H 4595  10.509   1.307   6.098  2.3286 -2.0728  1.8396
  775MOL0     H 4596  10.331   1.252   6.093 -0.8527  1.8890  0.8121
  775MOL0     H 4597  10.504   1.208   6.332 -2.4259  2.5192  0.8622
  775MOL0     H 4598  10.524   1.100   6.187  0.5776  3.3558 -2.2583
  775MOL0     H 4599  10.262   1.134   6.334  1.5287  1.8436 -2.3348
  775MOL0     H 4600  10.287   1.016   6.206 -3.7951  1.5715  0.7211
  775MOL0     H 4601  10.413   1.025   6.478 -0.2635  0.0242  0.8654
  775MOL0     H 4602  10.473   0.912   6.353 -0.8722 -0.3448  0.4125
  775MOL0     H 4603  10.180   0.907   6.438  0.1015  1.2185  0.7015
  775MOL0     H 4604  10.268   0.777   6.351 -1.0513  0.3874 -0.1541
  775MOL0     H 4605  10.052   1.797   6.365  1.4538 -2.4142 -0.4459
  775MOL0     H 4606   9.870   1.885   6.496  1.1332 -0.0425  0.1473
  775MOL0     H 4607   9.282   1.792   6.479 -0.6158  1.4384 -0.4336
  775MOL0     H 4608   9.105   1.874   6.633  1.0632 -0.2109 -2.0443
  775MOL0     H 4609   7.935   2.006   6.467  0.7501  1.0727  1.2564
  775MOL0     H 4610   7.693   1.973   6.405 -1.3311 -0.6422  0.1033
  775MOL0     H 4611   7.235   1.757   6.409  1.2755  0.7582  1.2049
  775MOL0     H 4612   6.999   1.788   6.362 -2.0597  2.0713 -0.1904
  775MOL0     H 4613   6.907   2.158   6.218  2.6753 -0.4448  3.9520
  775MOL0     H 4614   6.747   2.148   6.286 -0.6432 -1.9530  1.9814
  775MOL0     H 4615   6.739   2.069   6.072  1.7328  0.5580 -0.3453
  775MOL0     H 4616   6.690   1.931   6.182  1.5805 -2.6567 -0.6510
  775MOL0     H 4617   6.823   1.815   6.069 -0.9317  1.4465 -0.9725
  775MOL0     H 4618   6.943   1.886   6.152  1.1810 -0.7362 -2.1632
  775MOL0     H 4619   6.958   1.878   5.891 -0.7150 -0.4935 -0.7491
  775MOL0     H 4620   6.824   2.002   5.880 -0.2211 -1.0502 -0.3759
  775MOL0     H 4621   7.180   2.212   6.000  1.1509 -0.3185 -1.6329
  775MOL0     H 4622   7.038   2.206   6.442  0.3664  0.4369  0.6527
  775MOL0     H 4623   7.358   2.238   6.436 -1.8840 -0.6702 -3.5734
  775MOL0     H 4624   7.215   2.300   6.516  1.7155  0.3734 -0.5718
  775MOL0     H 4625   7.324   2.219   6.620 -0.2694  1.2446 -0.2730
  776MOL0     O 4626   8.246   4.214   1.881 -0.1840  0.1752  0.8830
  776MOL0     C 4627   8.146   4.162   1.843 -0.0432  1.0326 -0.0295
  776MOL0     O 4628   8.033   4.228   1.812 -0.3299 -0.0503 -0.2393
  776MOL0     C 4629   8.017   4.360   1.832  0.7709 -0.0085 -0.2032
  776MOL0     C 4630   7.887   4.401   1.865  0.2105  0.5941  0.1719
  776MOL0     C 4631   7.849   4.534   1.865  0.0156  0.3991  0.5744
  776MOL0     C 4632   7.946   4.627   1.825  0.1497 -0.7695 -0.0903
  776MOL0     O 4633   7.900   4.762   1.819  0.0248  0.9232 -0.9882
  776MOL0     C 4634   7.967   4.848   1.735  0.7304 -0.0917 -0.5545
  776MOL0     C 4635   7.923   4.989   1.749 -0.1505 -0.6782 -0.2767
  776MOL0     C 4636   7.777   5.002   1.763 -0.2694 -0.0310  0.5896
  776MOL0     C 4637   7.733   5.147   1.778  1.0675  0.1444  0.0141
  776MOL0     C 4638   7.577   5.169   1.773  0.0462 -0.2049 -0.1220
  776MOL0     C 4639   7.539   5.316   1.787 -0.1269  0.4313 -0.2498
  776MOL0     C 4640   7.388   5.318   1.776  0.4991 -0.2251 -0.4252
  776MOL0     C 4641   7.316   5.448   1.790  0.1054 -0.4030 -0.5479
  776MOL0     N 4642   7.174   5.463   1.746  0.3357 -0.8138  0.8338
  776MOL0     C 4643   7.078   5.367   1.765  0.6476 -0.0812  0.6988
  776MOL0     C 4644   6.953   5.431   1.732 -0.5848 -0.1528  0.1090
  776MOL0     C 4645   6.820   5.369   1.704  0.8391  0.3780  0.4597
  776MOL0     C 4646   6.704   5.455   1.746  0.9255  0.8642 -0.3361
  776MOL0     C 4647   6.588   5.355   1.744 -0.1849 -0.1095 -0.1484
  776MOL0     C 4648   6.462   5.429   1.784 -0.4331 -0.1577  0.0152
  776MOL0     O 4649   6.448   5.436   1.923 -0.4689 -0.8460  0.0841
  776MOL0     C 4650   6.329   5.436   1.989  0.8948 -0.8964 -0.2129
  776MOL0     C 4651   6.345   5.433   2.130 -0.4725 -0.1331  0.3588
  776MOL0     C 4652   6.227   5.447   2.214  0.4158  0.8482  0.3498
  776MOL0     C 4653   6.095   5.461   2.158 -0.2959 -0.1242 -0.6521
  776MOL0     C 4654   5.970   5.470   2.231 -0.1301  0.6645 -0.7655
  776MOL0     O 4655   5.854   5.473   2.162 -0.2167 -0.6609  0.0030
  776MOL0     C 4656   5.736   5.455   2.225  0.2032  0.1548  0.2861
  776MOL0     C 4657   5.627   5.506   2.155  0.5388 -0.3876  1.0744
  776MOL0     C 4658   5.497   5.479   2.181 -0.1871  0.1677 -0.0038
  776MOL0     C 4659   5.460   5.408   2.290 -0.4804 -0.2357 -0.3594
  776MOL0     O 4660   5.336   5.377   2.321  0.2086  0.4085  0.0937
  776MOL0     C 4661   5.248   5.328   2.216 -0.1698  0.2578 -0.0850
  776MOL0     C 4662   5.113   5.278   2.282  0.3998 -0.1248  0.4368
  776MOL0     C 4663   5.132   5.163   2.390 -0.0508 -0.5284 -0.2916
  776MOL0     C 4664   4.997   5.131   2.454  0.1687  0.3220 -0.4800
  776MOL0     C 4665   4.936   5.016   2.382 -0.3615  0.1233 -0.0546
  776MOL0     C 4666   4.796   4.995   2.438  0.8523 -0.5026 -0.3042
  776MOL0     C 4667   4.752   4.861   2.394  0.7066  0.1111  0.0107
  776MOL0     C 4668   4.599   4.837   2.433  0.4701 -0.3498  0.1252
  776MOL0    Cl 4669   4.490   4.881   2.284  0.2601 -0.2771 -0.3567
  776MOL0     C 4670   5.562   5.360   2.375  0.3187  0.3207  0.0496
  776MOL0     C 4671   5.699   5.384   2.343 -0.8874 -0.9303 -0.3676
  776MOL0     O 4672   5.979   5.483   2.351 -0.5232  0.1018  0.7344
  776MOL0     C 4673   6.093   5.468   2.028  0.7696  0.4238  0.5662
  776MOL0     C 4674   6.200   5.466   1.939 -0.4202  0.7893 -0.1155
  776MOL0     N 4675   6.988   5.566   1.695  0.2586  0.3771  0.0469
  776MOL0     N 4676   7.115   5.591   1.708  0.2750 -0.0766  0.2606
  776MOL0     C 4677   8.082   4.587   1.810 -0.4787  0.4129  0.1443
  776MOL0     C 4678   8.110   4.452   1.807 -0.2054 -0.6029 -0.6723
  776MOL0     C 4679   8.144   4.014   1.819  0.1406  0.4940 -0.8208
  776MOL0     C 4680   8.265   3.951   1.846  0.7856 -0.0399  0.4196
  776MOL0     C 4681   8.291   3.814   1.825  0.1404 -0.5263  0.8823
  776MOL0     C 4682   8.199   3.729   1.763  1.1068  0.4376 -0.4209
  776MOL0     O 4683   8.224   3.596   1.727  0.4799 -0.4384 -1.2244
  776MOL0     C 4684   8.127   3.501   1.768 -0.3452 -1.1262  0.8492
  776MOL0     C 4685   8.182   3.351   1.783 -0.5471 -0.7955 -0.3268
  776MOL0     C 4686   8.315   3.340   1.871  0.3433  0.1372  0.1851
  776MOL0     C 4687   8.345   3.188   1.912 -0.5910 -0.5915 -0.3695
  776MOL0     C 4688   8.236   3.132   1.994 -0.6608  0.1231 -0.4738
  776MOL0     C 4689   8.151   3.086   2.066 -0.0849 -0.0307  0.4758
  776MOL0     C 4690   8.067   3.788   1.752  0.0595 -0.1471  0.3749
  776MOL0     C 4691   8.040   3.922   1.785 -1.1494 -0.6055  0.4071
  776MOL0     C 4692   7.899   3.966   1.764 -0.5402 -0.0710  1.0072
  776MOL0     H 4693   7.800   4.336   1.872  1.5603 -1.2983  0.2481
  776MOL0     H 4694   7.744   4.560   1.870 -0.7572 -1.5365 -2.6918
  776MOL0     H 4695   8.075   4.848   1.758  1.3099 -1.1086 -3.0145
  776MOL0     H 4696   7.958   4.822   1.630 -0.4151 -1.7474 -0.0920
  776MOL0     H 4697   7.965   5.039   1.662  3.9690 -1.0114  1.2953
  776MOL0     H 4698   7.968   5.042   1.834  0.9597  0.7690 -1.7236
  776MOL0     H 4699   7.742   4.957   1.856 -0.7752  1.5289  1.1778
  776MOL0     H 4700   7.732   4.954   1.676  2.5769  2.3561 -2.4638
  776MOL0     H 4701   7.770   5.185   1.873  3.5725  0.9476 -1.1882
  776MOL0     H 4702   7.783   5.201   1.697  2.5168 -1.7557 -0.4157
  776MOL0     H 4703   7.532   5.122   1.686 -0.7444 -0.8108  0.5966
  776MOL0     H 4704   7.528   5.112   1.852  1.6840 -0.6790  0.5909
  776MOL0     H 4705   7.565   5.340   1.890  3.7164  1.9962 -1.4251
  776MOL0     H 4706   7.596   5.384   1.723 -2.6871  0.9287 -2.2213
  776MOL0     H 4707   7.352   5.249   1.852  1.1363 -1.1736 -0.9683
  776MOL0     H 4708   7.359   5.267   1.684  0.1473 -1.5915  0.4097
  776MOL0     H 4709   7.313   5.464   1.898  0.6227 -0.1765 -0.5642
  776MOL0     H 4710   7.375   5.531   1.749 -2.9247  2.2351  0.0481
  776MOL0     H 4711   7.087   5.261   1.787  2.0163  0.6102  4.0657
  776MOL0     H 4712   6.819   5.362   1.595  1.9431  0.0316  0.4526
  776MOL0     H 4713   6.807   5.270   1.748 -0.6752 -0.0054 -0.7599
  776MOL0     H 4714   6.718   5.484   1.850  3.6261 -1.4461  0.0485
  776MOL0     H 4715   6.686   5.545   1.686 -3.6961 -1.5220 -3.2083
  776MOL0     H 4716   6.594   5.265   1.806 -1.4505 -2.3725 -3.0437
  776MOL0     H 4717   6.587   5.313   1.643  0.7483 -0.8487  0.1393
  776MOL0     H 4718   6.379   5.375   1.738  1.8516 -0.9101 -3.6133
  776MOL0     H 4719   6.455   5.528   1.736  2.8684  0.0580 -0.2438
  776MOL0     H 4720   6.446   5.427   2.169 -0.7079  0.3709  1.0827
  776MOL0     H 4721   6.230   5.440   2.322 -0.6497  1.4966  0.4402
  776MOL0     H 4722   5.647   5.544   2.055 -1.0820 -1.8405  0.1362
  776MOL0     H 4723   5.428   5.516   2.105  0.8572 -0.3866 -1.2685
  776MOL0     H 4724   5.227   5.404   2.140 -0.6947 -0.2990 -0.5109
  776MOL0     H 4725   5.283   5.233   2.175  1.2149  0.9738 -0.6295
  776MOL0     H 4726   5.056   5.366   2.315 -2.6865 -1.7101 -0.3182
  776MOL0     H 4727   5.055   5.230   2.203  0.6564 -1.8378  1.2436
  776MOL0     H 4728   5.167   5.070   2.344 -1.7047 -0.5897 -1.5145
  776MOL0     H 4729   5.198   5.208   2.464 -2.2036 -0.5715  1.7733
  776MOL0     H 4730   4.935   5.219   2.434  0.4070  0.3255 -1.2391
  776MOL0     H 4731   5.013   5.101   2.558  3.2408  1.9644 -0.3837
  776MOL0     H 4732   4.991   4.927   2.413 -0.6679 -0.5069 -1.2969
  776MOL0     H 4733   4.937   5.032   2.274 -2.1267 -1.8645 -0.4256
  776MOL0     H 4734   4.798   5.008   2.546  0.1031 -1.2382 -0.1930
  776MOL0     H 4735   4.731   5.075   2.401 -0.9048 -1.6496  0.2108
  776MOL0     H 4736   4.818   4.789   2.444  0.5466  0.1895  0.3384
  776MOL0     H 4737   4.771   4.850   2.287  1.0494 -1.9115  0.2351
  776MOL0     H 4738   4.585   4.729   2.447  0.0495 -0.7503 -2.6666
  776MOL0     H 4739   4.582   4.892   2.526  0.4712  0.7987 -0.5348
  776MOL0     H 4740   5.538   5.293   2.457  3.2800 -1.4059 -0.3351
  776MOL0     H 4741   5.769   5.328   2.403 -0.4680  0.2911  0.3063
  776MOL0     H 4742   6.005   5.497   1.971  2.3262 -0.9839 -2.8347
  776MOL0     H 4743   6.188   5.480   1.832 -0.1527 -1.1022 -0.4295
  776MOL0     H 4744   8.157   4.660   1.779 -0.6834  0.5683  0.0056
  776MOL0     H 4745   8.214   4.431   1.780  0.1115  1.5269 -1.3301
  776MOL0     H 4746   8.345   3.999   1.901  1.2871 -0.4414  0.0488
  776MOL0     H 4747   8.386   3.766   1.848 -0.4156 -1.5706  1.0451
  776MOL0     H 4748   8.046   3.491   1.695  1.2405 -2.7723 -0.7763
  776MOL0     H 4749   8.077   3.532   1.861 -4.7313  1.3861 -2.0020
  776MOL0     H 4750   8.206   3.321   1.680  2.0412 -0.2184  0.0259
  776MOL0     H 4751   8.104   3.290   1.828  0.4715 -0.4341  2.1101
  776MOL0     H 4752   8.325   3.402   1.960  0.9283  0.6634 -0.2318
  776MOL0     H 4753   8.386   3.386   1.801  0.3008  0.8341  0.5941
  776MOL0     H 4754   8.364   3.118   1.831  1.5035 -1.0549  0.4564
  776MOL0     H 4755   8.437   3.177   1.970 -1.2480 -0.5075  0.7207
  776MOL0     H 4756   8.095   3.029   2.137  0.7999 -1.4257  0.0845
  776MOL0     H 4757   7.980   3.726   1.730  1.5321 -2.6067  1.1021
  776MOL0     H 4758   7.853   3.994   1.860 -1.1716 -2.2439  1.3985
  776MOL0     H 4759   7.895   4.051   1.696 -0.4743  1.3147  2.6571
  776MOL0     H 4760   7.841   3.887   1.715 -0.1683  0.2720  0.0053
  777MOL0     O 4761  10.381   1.253   0.888  0.0930 -0.8019  0.0517
  777MOL0     C 4762  10.266   1.248   0.936 -0.4296 -0.6866  0.1706
  777MOL0     O 4763  10.241   1.197   1.053  0.0895  0.1538  0.0438
  777MOL0     C 4764  10.330   1.162   1.162 -0.0263  1.2711  0.1501
  777MOL0     C 4765  10.270   1.098   1.272  0.7075 -0.5045 -0.7951
  777MOL0     C 4766  10.354   1.047   1.374 -0.1718 -0.6728  0.4990
  777MOL0     C 4767  10.492   1.070   1.376 -0.2337  0.0046 -0.9608
  777MOL0     O 4768  10.571   1.028   1.480  0.2583  0.0450  0.4590
  777MOL0     C 4769  10.636   1.134   1.553  0.4589 -0.3396  0.0694
  777MOL0     C 4770  10.781   1.096   1.577 -0.8058  0.0993  0.1457
  777MOL0     C 4771  10.852   1.171   1.683  1.4524 -0.8677  0.6675
  777MOL0     C 4772  10.992   1.115   1.723 -0.1317  0.2605  0.2935
  777MOL0     C 4773  11.110   1.178   1.642 -0.5274  0.0513 -0.1309
  777MOL0     C 4774  11.221   1.077   1.614  0.7288 -0.3544  0.6450
  777MOL0     C 4775  11.338   1.141   1.537 -0.3059 -1.7331  0.3009
  777MOL0     C 4776  11.458   1.047   1.525  0.6544  0.1750 -0.8555
  777MOL0     N 4777  11.574   1.104   1.469 -0.4185 -1.2846  0.0332
  777MOL0     C 4778  11.642   1.211   1.523  0.6326 -0.0913  0.1699
  777MOL0     C 4779  11.741   1.237   1.441 -0.5104 -0.8571  1.0054
  777MOL0     C 4780  11.849   1.336   1.465 -0.5407  0.3212  0.7998
  777MOL0     C 4781  11.904   1.395   1.339  0.4600 -0.1076  0.6395
  777MOL0     C 4782  11.999   1.519   1.354  1.6004 -0.5617 -0.2079
  777MOL0     C 4783  12.019   1.595   1.214 -1.0375 -0.7670 -0.1094
  777MOL0     O 4784  12.103   1.709   1.242  1.0645 -0.1489 -0.1571
  777MOL0     C 4785  12.130   1.798   1.138 -0.3125 -0.2260  0.5940
  777MOL0     C 4786  12.255   1.853   1.141 -0.5988 -0.5818  0.7244
  777MOL0     C 4787  12.302   1.948   1.043 -0.8728  1.0691 -0.4681
  777MOL0     C 4788  12.215   1.997   0.943  0.9437  0.1900 -0.6991
  777MOL0     C 4789  12.270   2.097   0.848 -0.2887  0.2247  0.5856
  777MOL0     O 4790  12.408   2.104   0.825 -0.2323 -0.4907 -0.0133
  777MOL0     C 4791  12.438   2.211   0.737  0.1860  0.7510 -1.2217
  777MOL0     C 4792  12.473   2.333   0.783  0.7966 -0.1527 -0.1264
  777MOL0     C 4793  12.508   2.444   0.705 -0.8414 -0.1962  0.1686
  777MOL0     C 4794  12.515   2.419   0.567 -1.0764  0.9418  0.4293
  777MOL0     O 4795  12.562   2.503   0.469  0.2647  0.1773 -0.9292
  777MOL0     C 4796  12.630   2.618   0.515 -0.8019  0.3662 -0.3007
  777MOL0     C 4797  12.681   2.690   0.396 -0.1464  0.1147 -0.1750
  777MOL0     C 4798  12.766   2.811   0.435 -0.7589  0.1478 -0.2261
  777MOL0     C 4799  12.685   2.921   0.501  0.0598 -0.0269  0.4271
  777MOL0     C 4800  12.753   3.054   0.510 -0.8589 -0.9279 -0.9627
  777MOL0     C 4801  12.672   3.153   0.601  0.5293 -0.3554  0.6875
  777MOL0     C 4802  12.738   3.294   0.606  0.4559  0.0528 -0.1679
  777MOL0     C 4803  12.661   3.387   0.698  0.0172  0.5762 -0.0949
  777MOL0    Cl 4804  12.634   3.321   0.855  0.3573 -0.1989  0.1403
  777MOL0     C 4805  12.489   2.295   0.513  0.5868  0.1801 -0.2358
  777MOL0     C 4806  12.446   2.189   0.598  0.1262 -0.4480 -0.2240
  777MOL0     O 4807  12.188   2.161   0.784  0.0461  0.0379 -0.8180
  777MOL0     C 4808  12.083   1.941   0.949 -0.5860 -0.1940  0.0791
  777MOL0     C 4809  12.040   1.846   1.041 -1.1524  0.3176  0.5411
  777MOL0     N 4810  11.731   1.152   1.329  0.0616  0.4466 -0.8417
  777MOL0     N 4811  11.626   1.076   1.351  0.4239 -0.3594  0.7517
  777MOL0     C 4812  10.546   1.142   1.271  0.5922 -0.1209 -0.3140
  777MOL0     C 4813  10.463   1.188   1.166  0.5110  0.0062 -0.0042
  777MOL0     C 4814  10.153   1.291   0.855  0.3169 -0.3958 -0.1113
  777MOL0     C 4815  10.023   1.273   0.908  0.5305 -0.0261 -0.0233
  777MOL0     C 4816   9.906   1.313   0.836 -0.5489 -0.2617 -0.1180
  777MOL0     C 4817   9.911   1.341   0.697 -1.0322  0.0648  0.0419
  777MOL0     O 4818   9.798   1.368   0.626 -0.3336 -0.5215 -0.2228
  777MOL0     C 4819   9.796   1.506   0.578  0.6642  0.2242  0.0916
  777MOL0     C 4820   9.663   1.563   0.619 -0.9115  0.4869  0.0896
  777MOL0     C 4821   9.653   1.719   0.595 -0.0351  0.2825  0.5269
  777MOL0     C 4822   9.581   1.771   0.712 -0.5579  0.1726 -0.0983
  777MOL0     C 4823   9.460   1.702   0.759 -0.5824  0.5300  0.2902
  777MOL0     C 4824   9.357   1.658   0.795  0.5491 -0.0109 -0.5562
  777MOL0     C 4825  10.042   1.346   0.641  0.3113 -0.1113 -0.4668
  777MOL0     C 4826  10.160   1.337   0.718 -0.2686 -0.0507  0.0004
  777MOL0     C 4827  10.287   1.354   0.640  0.7257  0.6336  0.9056
  777MOL0     H 4828  10.161   1.090   1.274  0.6504 -0.5212 -2.3348
  777MOL0     H 4829  10.303   1.000   1.458 -0.6992  3.4526  2.7675
  777MOL0     H 4830  10.638   1.234   1.509  2.0525 -0.8078 -0.9738
  777MOL0     H 4831  10.577   1.147   1.644 -3.1033  0.4171 -2.1360
  777MOL0     H 4832  10.839   1.101   1.485 -0.4160  1.1542  0.4348
  777MOL0     H 4833  10.779   0.992   1.612  1.9727  0.0242  0.2896
  777MOL0     H 4834  10.787   1.149   1.769 -0.9983 -1.3453 -1.1757
  777MOL0     H 4835  10.858   1.279   1.667  1.7087 -1.1889 -1.6024
  777MOL0     H 4836  11.014   1.131   1.829 -1.4819 -2.3391  1.0625
  777MOL0     H 4837  10.994   1.007   1.707  2.8414  0.5126 -1.7591
  777MOL0     H 4838  11.079   1.214   1.544  0.1883  1.6988  0.2094
  777MOL0     H 4839  11.154   1.259   1.701  0.9651 -1.0006  0.2645
  777MOL0     H 4840  11.257   1.025   1.704  1.3385 -2.3460 -0.7026
  777MOL0     H 4841  11.174   1.001   1.551  1.7287 -1.4671  1.1952
  777MOL0     H 4842  11.372   1.232   1.587 -1.3972 -1.4828  0.6164
  777MOL0     H 4843  11.312   1.165   1.434  2.0104  1.6438  0.3569
  777MOL0     H 4844  11.469   1.004   1.625  0.6061  2.4903  0.1890
  777MOL0     H 4845  11.417   0.964   1.466 -1.9060  1.0221 -0.4019
  777MOL0     H 4846  11.617   1.266   1.613  2.0506 -3.1460  2.6017
  777MOL0     H 4847  11.801   1.416   1.523 -0.0113  0.8049  0.5746
  777MOL0     H 4848  11.929   1.293   1.525 -1.4315 -1.7774  0.5670
  777MOL0     H 4849  11.972   1.324   1.290 -1.8674 -0.2775 -2.6769
  777MOL0     H 4850  11.825   1.429   1.271  0.1238 -0.4632  0.8510
  777MOL0     H 4851  12.095   1.485   1.393  0.3421 -1.9739  1.9014
  777MOL0     H 4852  11.954   1.585   1.429 -0.5268  0.8460 -2.5455
  777MOL0     H 4853  11.924   1.639   1.181 -0.2220  0.2512 -1.2036
  777MOL0     H 4854  12.066   1.526   1.143  0.9307  0.1211  0.2907
  777MOL0     H 4855  12.329   1.836   1.218  0.2090  1.7379  0.5308
  777MOL0     H 4856  12.408   1.971   1.048 -0.7334  0.5370 -0.8559
  777MOL0     H 4857  12.484   2.340   0.891  3.9222 -2.5573 -0.1614
  777MOL0     H 4858  12.536   2.544   0.740  3.3103 -0.1987 -2.3907
  777MOL0     H 4859  12.571   2.691   0.571 -0.6198 -0.7393  1.4196
  777MOL0     H 4860  12.714   2.590   0.579 -0.2365  0.9148 -0.7900
  777MOL0     H 4861  12.732   2.613   0.337 -1.4026 -1.7936  1.1101
  777MOL0     H 4862  12.588   2.723   0.348  0.8033  0.0471 -2.1673
  777MOL0     H 4863  12.849   2.781   0.500 -1.3337  1.5998  1.2646
  777MOL0     H 4864  12.807   2.836   0.337 -1.0672 -2.2256 -1.0070
  777MOL0     H 4865  12.651   2.895   0.601 -1.7948 -2.0826 -0.6438
  777MOL0     H 4866  12.591   2.937   0.448  0.6236  0.8067 -0.3521
  777MOL0     H 4867  12.765   3.096   0.410 -1.0590  2.6259  0.3826
  777MOL0     H 4868  12.853   3.037   0.550 -0.6473 -0.3221 -1.2318
  777MOL0     H 4869  12.568   3.156   0.568  0.3559  0.5927  1.2681
  777MOL0     H 4870  12.661   3.104   0.698 -3.6027 -0.3856  0.3519
  777MOL0     H 4871  12.747   3.341   0.507 -0.8373  1.8794  0.5003
  777MOL0     H 4872  12.842   3.287   0.636  0.0046 -1.0367  1.2332
  777MOL0     H 4873  12.727   3.473   0.714 -1.5213  2.3014 -2.3961
  777MOL0     H 4874  12.564   3.426   0.667  0.3373  0.5273 -1.1906
  777MOL0     H 4875  12.493   2.280   0.405  1.2023  0.0567 -0.1961
  777MOL0     H 4876  12.423   2.088   0.563 -1.7467  0.2158 -1.0734
  777MOL0     H 4877  12.007   1.972   0.879 -0.7785 -0.5333  0.1362
  777MOL0     H 4878  11.953   1.784   1.020 -0.3556 -0.5198 -0.4217
  777MOL0     H 4879  10.648   1.178   1.268 -0.2108  2.4596  0.5919
  777MOL0     H 4880  10.517   1.247   1.093  0.4973 -0.7345 -0.6231
  777MOL0     H 4881  10.014   1.246   1.012 -2.3837  1.6327  0.2596
  777MOL0     H 4882   9.805   1.310   0.876 -0.2771 -0.4306  0.5611
  777MOL0     H 4883   9.810   1.504   0.470 -0.8552 -0.9447 -0.1161
  777MOL0     H 4884   9.879   1.568   0.615  2.6879 -0.9721 -2.1915
  777MOL0     H 4885   9.626   1.541   0.720 -2.9454  1.2754 -0.4315
  777MOL0     H 4886   9.588   1.517   0.553  1.3583 -3.5622 -0.0185
  777MOL0     H 4887   9.605   1.745   0.500 -0.9196  0.6967  1.0713
  777MOL0     H 4888   9.757   1.749   0.580  0.5136 -1.7962 -0.2742
  777MOL0     H 4889   9.655   1.784   0.791  0.3338  1.9177 -1.1504
  777MOL0     H 4890   9.558   1.874   0.683  2.3154  1.4580  1.7439
  777MOL0     H 4891   9.261   1.618   0.822  1.1055 -1.1805 -0.2369
  777MOL0     H 4892  10.039   1.356   0.533 -1.0349 -0.8972 -0.5253
  777MOL0     H 4893  10.349   1.432   0.685  0.8671 -0.0059  1.8413
  777MOL0     H 4894  10.343   1.260   0.632 -1.9326 -0.9154 -1.2938
  777MOL0     H 4895  10.269   1.394   0.540 -0.1650 -1.1269  0.3044
  778MOL0     O 4896  10.086   6.512   4.349 -0.3236  0.2006 -0.2147
  778MOL0     C 4897  10.034   6.546   4.459 -0.2623  0.0722 -0.2537
  778MOL0     O 4898  10.099   6.600   4.561 -0.2703 -0.2267  0.4285
  778MOL0     C 4899  10.239   6.575   4.549 -1.0903 -0.9642 -0.7217
  778MOL0     C 4900  10.286   6.481   4.632  1.0701 -0.4724  0.1512
  778MOL0     C 4901  10.417   6.443   4.633  0.0804  1.2789 -0.6482
  778MOL0     C 4902  10.515   6.513   4.554 -0.0852  0.4840 -0.4221
  778MOL0     O 4903  10.643   6.472   4.543  0.2333 -0.9421 -0.0047
  778MOL0     C 4904  10.715   6.491   4.664  0.0752 -0.4488 -0.0469
  778MOL0     C 4905  10.850   6.441   4.666  0.1455 -0.0500  1.2434
  778MOL0     C 4906  10.950   6.510   4.568 -0.3457  0.1343 -0.2064
  778MOL0     C 4907  11.097   6.471   4.604 -0.3718  0.1166  0.4858
  778MOL0     C 4908  11.151   6.552   4.724 -0.1222 -0.4418 -0.8267
  778MOL0     C 4909  11.297   6.527   4.753 -0.6247 -0.8485  0.0358
  778MOL0     C 4910  11.340   6.566   4.892  0.3454  0.5205 -0.0799
  778MOL0     C 4911  11.342   6.717   4.900 -0.7886  0.5472  0.7506
  778MOL0     N 4912  11.353   6.758   5.041  0.1653  0.2615 -0.5286
  778MOL0     C 4913  11.461   6.723   5.123  0.0839  0.1426 -0.1248
  778MOL0     C 4914  11.419   6.761   5.244 -0.0718 -0.1880  0.2027
  778MOL0     C 4915  11.499   6.766   5.375  0.4748 -1.0545  0.3610
  778MOL0     C 4916  11.422   6.695   5.492 -0.7761 -0.3364 -1.0125
  778MOL0     C 4917  11.402   6.548   5.472  0.7305 -0.0600 -0.4837
  778MOL0     C 4918  11.525   6.457   5.468 -0.8360 -0.8322  0.6000
  778MOL0     O 4919  11.596   6.458   5.594 -0.8560 -0.2889  0.4220
  778MOL0     C 4920  11.714   6.403   5.606 -0.4526  0.8507  0.0520
  778MOL0     C 4921  11.814   6.396   5.513 -0.2432  0.1362  0.0301
  778MOL0     C 4922  11.941   6.351   5.547 -0.3095 -0.1826  0.1846
  778MOL0     C 4923  11.967   6.304   5.678 -0.2501 -0.1754  0.1478
  778MOL0     C 4924  12.095   6.252   5.718 -0.3828 -0.5418 -0.1615
  778MOL0     O 4925  12.110   6.222   5.853  0.6944 -0.1283 -0.3030
  778MOL0     C 4926  12.226   6.177   5.914  0.7631  0.2745 -0.1689
  778MOL0     C 4927  12.347   6.172   5.852 -0.3760  0.3290  0.4891
  778MOL0     C 4928  12.447   6.100   5.913  0.3669  0.2036 -0.3750
  778MOL0     C 4929  12.424   6.042   6.042 -0.3440 -0.0189  0.0090
  778MOL0     O 4930  12.520   5.973   6.114 -0.4492  0.0413  0.1422
  778MOL0     C 4931  12.653   5.959   6.061 -0.4241 -0.4369 -0.8695
  778MOL0     C 4932  12.739   6.011   6.171 -0.6656 -0.0041  0.0415
  778MOL0     C 4933  12.701   6.169   6.201  0.1902  0.3483  0.2795
  778MOL0     C 4934  12.774   6.220   6.322  0.2782  0.2059 -0.2146
  778MOL0     C 4935  12.893   6.299   6.274 -0.2721 -0.0152 -0.5495
  778MOL0     C 4936  12.978   6.349   6.394 -0.1528 -0.4826 -0.3843
  778MOL0     C 4937  13.081   6.430   6.335 -0.2035 -0.0318 -0.9999
  778MOL0     C 4938  13.162   6.489   6.457 -0.0188  0.4577 -0.4521
  778MOL0    Cl 4939  13.083   6.632   6.528  0.0168  0.0226 -0.2051
  778MOL0     C 4940  12.306   6.064   6.108  0.3896 -0.4208  0.1033
  778MOL0     C 4941  12.203   6.136   6.051  1.2914  0.0703  0.0444
  778MOL0     O 4942  12.178   6.228   5.633  0.0397  0.3094  0.2656
  778MOL0     C 4943  11.867   6.305   5.770 -0.7042 -0.2345 -0.0518
  778MOL0     C 4944  11.743   6.356   5.738  0.3554  0.2025  0.2062
  778MOL0     N 4945  11.300   6.814   5.244  0.0860  0.0816  0.5464
  778MOL0     N 4946  11.257   6.809   5.125 -0.3689 -0.7351  0.7192
  778MOL0     C 4947  10.473   6.613   4.466 -0.6336 -0.1769  0.8927
  778MOL0     C 4948  10.330   6.650   4.471  0.3522 -0.2877 -0.7041
  778MOL0     C 4949   9.901   6.506   4.485 -0.1190  0.6016 -0.5193
  778MOL0     C 4950   9.863   6.450   4.611 -0.4052 -0.1459  0.7825
  778MOL0     C 4951   9.748   6.388   4.638 -0.1776  0.7731  0.8326
  778MOL0     C 4952   9.647   6.396   4.540  0.0697  0.1252 -0.1245
  778MOL0     O 4953   9.518   6.351   4.575 -0.2956  0.2877 -0.6322
  778MOL0     C 4954   9.409   6.376   4.488 -0.2313 -0.5395  0.2785
  778MOL0     C 4955   9.266   6.362   4.544  0.3921  0.1675  0.3661
  778MOL0     C 4956   9.239   6.240   4.619 -0.1309 -0.9680  0.0896
  778MOL0     C 4957   9.092   6.239   4.662  0.3894 -0.3184 -0.0570
  778MOL0     C 4958   9.062   6.118   4.734 -0.5742 -0.1547 -0.0955
  778MOL0     C 4959   9.017   6.020   4.792 -0.3906  0.0576  0.4659
  778MOL0     C 4960   9.675   6.467   4.418 -0.8307  0.3261 -0.6820
  778MOL0     C 4961   9.798   6.523   4.385  1.8052  1.4130 -1.3353
  778MOL0     C 4962   9.813   6.603   4.263 -1.1420  0.8716  0.7273
  778MOL0     H 4963  10.210   6.428   4.689  0.3431  0.5456  0.1571
  778MOL0     H 4964  10.446   6.359   4.696 -2.5812  0.6860 -0.0894
  778MOL0     H 4965  10.725   6.598   4.685 -3.8978  0.0529  0.0250
  778MOL0     H 4966  10.671   6.445   4.753  2.4990  2.9907  3.2629
  778MOL0     H 4967  10.857   6.335   4.640  2.1355  0.3757 -0.2346
  778MOL0     H 4968  10.886   6.442   4.769  1.7452  1.8398  0.7402
  778MOL0     H 4969  10.942   6.619   4.568 -0.4814  0.1240 -0.1218
  778MOL0     H 4970  10.933   6.473   4.466  0.0796  0.1418 -0.2825
  778MOL0     H 4971  11.094   6.365   4.629  1.3202  0.5567  2.9364
  778MOL0     H 4972  11.156   6.491   4.514 -1.7694 -1.9814 -0.9920
  778MOL0     H 4973  11.123   6.658   4.724  1.3358  0.0863  2.7474
  778MOL0     H 4974  11.089   6.517   4.807 -3.3230  2.9697 -1.5186
  778MOL0     H 4975  11.305   6.418   4.747 -0.0291 -0.8448  0.5866
  778MOL0     H 4976  11.355   6.570   4.671 -0.8656  0.2653  0.4310
  778MOL0     H 4977  11.439   6.520   4.904  0.3348 -0.6399 -3.3849
  778MOL0     H 4978  11.264   6.528   4.960 -1.5340  3.9053 -0.1143
  778MOL0     H 4979  11.421   6.771   4.846 -0.7790 -1.9640 -1.9887
  778MOL0     H 4980  11.253   6.766   4.861  0.8768  3.4057  0.1948
  778MOL0     H 4981  11.553   6.684   5.080 -1.5830 -2.0452 -1.9924
  778MOL0     H 4982  11.599   6.723   5.365  1.3643  1.2113 -1.6075
  778MOL0     H 4983  11.518   6.869   5.406 -0.9751 -1.0705  1.3988
  778MOL0     H 4984  11.473   6.706   5.587 -2.2138  1.6179 -0.3913
  778MOL0     H 4985  11.321   6.735   5.508 -1.0117 -1.9769  2.2882
  778MOL0     H 4986  11.343   6.533   5.381  0.5860 -4.1086  0.0797
  778MOL0     H 4987  11.341   6.506   5.553  0.1664  0.8573 -0.4239
  778MOL0     H 4988  11.581   6.492   5.381  0.0369 -1.2893  0.9643
  778MOL0     H 4989  11.498   6.353   5.445  1.9727 -1.2319 -1.3629
  778MOL0     H 4990  11.798   6.436   5.413 -0.2511  0.5588  0.2011
  778MOL0     H 4991  12.021   6.359   5.475 -0.1964 -0.1787  0.3097
  778MOL0     H 4992  12.364   6.215   5.754 -1.0035  1.6248  0.9253
  778MOL0     H 4993  12.544   6.082   5.868  1.2180  1.4645  0.8312
  778MOL0     H 4994  12.673   5.852   6.051 -1.4635 -0.5600 -1.8563
  778MOL0     H 4995  12.685   6.010   5.970  3.1038 -1.9855 -0.6475
  778MOL0     H 4996  12.731   5.948   6.259  2.8145  1.5003  1.6341
  778MOL0     H 4997  12.842   5.997   6.136 -0.4298  3.2149 -0.9174
  778MOL0     H 4998  12.720   6.228   6.111 -2.3032 -0.0188 -0.5845
  778MOL0     H 4999  12.593   6.165   6.219  0.2387 -0.0242  0.5158
  778MOL0     H 5000  12.813   6.141   6.386 -0.3330  1.4159  1.7569
  778MOL0     H 5001  12.707   6.287   6.377 -0.0867  0.9463 -1.5059
  778MOL0     H 5002  12.854   6.387   6.221 -0.4522 -0.1435 -0.6292
  778MOL0     H 5003  12.957   6.234   6.214 -1.1778 -1.4815  0.0145
  778MOL0     H 5004  12.909   6.407   6.455  0.9520  0.1770  0.2630
  778MOL0     H 5005  13.023   6.271   6.455  0.5232 -0.4084 -0.7811
  778MOL0     H 5006  13.037   6.509   6.273 -1.7254 -0.5490 -0.6332
  778MOL0     H 5007  13.148   6.368   6.274 -2.9981 -1.5628 -2.7422
  778MOL0     H 5008  13.190   6.415   6.533 -0.6956  0.6373 -0.0229
  778MOL0     H 5009  13.262   6.521   6.424 -1.0243  2.4525 -1.7433
  778MOL0     H 5010  12.297   6.023   6.208 -2.4935  0.5158  0.3008
  778MOL0     H 5011  12.100   6.139   6.087  1.1312 -0.8756 -0.3087
  778MOL0     H 5012  11.876   6.252   5.864 -3.0226  0.4914  0.6383
  778MOL0     H 5013  11.657   6.344   5.804  0.0212 -3.1830 -0.6644
  778MOL0     H 5014  10.542   6.662   4.399  0.9533 -1.4060  1.5809
  778MOL0     H 5015  10.294   6.729   4.407 -0.6968 -1.2434 -1.3356
  778MOL0     H 5016   9.937   6.464   4.690  0.8633 -1.4578 -0.1046
  778MOL0     H 5017   9.742   6.328   4.728 -0.4573  1.1406  1.0610
  778MOL0     H 5018   9.423   6.319   4.396  2.3723  1.5309 -0.7232
  778MOL0     H 5019   9.419   6.480   4.455 -0.1971 -1.5010 -3.1824
  778MOL0     H 5020   9.195   6.375   4.461 -3.2433  1.1097  3.3537
  778MOL0     H 5021   9.249   6.448   4.609  0.4240 -0.8180  1.7074
  778MOL0     H 5022   9.298   6.247   4.711  1.4375  0.3420 -0.9754
  778MOL0     H 5023   9.261   6.148   4.563  5.3739 -0.8594  1.5042
  778MOL0     H 5024   9.078   6.332   4.717  0.1250  2.3611 -4.1819
  778MOL0     H 5025   9.016   6.235   4.583 -3.4466  0.0856  3.2918
  778MOL0     H 5026   8.988   5.934   4.848 -1.1653  3.1038  5.4086
  778MOL0     H 5027   9.585   6.468   4.358 -2.9290  0.5115  2.2500
  778MOL0     H 5028   9.711   6.637   4.242 -1.6058 -1.0128 -0.2881
  778MOL0     H 5029   9.879   6.689   4.277 -1.4210  0.9278  1.7508
  778MOL0     H 5030   9.856   6.537   4.187  0.7043  2.7082  0.0903
  779MOL0     O 5031   2.103   8.574   4.683 -0.0985  0.1207  0.1234
  779MOL0     C 5032   2.099   8.686   4.743 -0.1157  0.0376  1.0811
  779MOL0     O 5033   1.989   8.754   4.763  0.5541 -0.6876 -0.0272
  779MOL0     C 5034   1.874   8.704   4.706  0.0255 -0.1095 -0.0210
  779MOL0     C 5035   1.795   8.605   4.772  0.2111 -0.1591  0.1251
  779MOL0     C 5036   1.675   8.566   4.714  0.0525  0.5883 -0.4563
  779MOL0     C 5037   1.623   8.615   4.595 -0.7397  0.1154  0.0498
  779MOL0     O 5038   1.506   8.573   4.541  0.3421  0.4952  0.6496
  779MOL0     C 5039   1.428   8.487   4.615 -0.2902 -0.0997  0.0147
  779MOL0     C 5040   1.283   8.470   4.558  0.8303  0.5074  0.1638
  779MOL0     C 5041   1.199   8.591   4.507 -0.4193  0.8922 -0.3525
  779MOL0     C 5042   1.198   8.612   4.358  0.7395  0.1553 -0.4131
  779MOL0     C 5043   1.104   8.729   4.317  0.0826  0.8996 -0.5336
  779MOL0     C 5044   1.148   8.776   4.177 -0.2141  0.1313  0.3507
  779MOL0     C 5045   1.076   8.896   4.120  0.1318  0.0017 -0.4327
  779MOL0     C 5046   0.926   8.904   4.118 -1.0151 -0.4788 -0.0369
  779MOL0     N 5047   0.861   8.843   4.001  0.6434 -0.1701 -0.2807
  779MOL0     C 5048   0.797   8.725   4.009 -0.3434  0.4867 -0.0545
  779MOL0     C 5049   0.740   8.715   3.894  0.6493  0.3676 -1.1886
  779MOL0     C 5050   0.672   8.591   3.839  0.3480 -0.6192 -0.3860
  779MOL0     C 5051   0.746   8.471   3.906 -0.2695 -0.7045 -0.3504
  779MOL0     C 5052   0.685   8.333   3.881 -0.3759  0.9611  1.3370
  779MOL0     C 5053   0.773   8.215   3.943  0.1457  0.0569  0.3911
  779MOL0     O 5054   0.819   8.262   4.073 -1.0899  0.1340 -0.5114
  779MOL0     C 5055   0.908   8.184   4.146 -0.1923 -0.2817 -0.4094
  779MOL0     C 5056   0.958   8.050   4.112  0.3601 -0.2884  0.1536
  779MOL0     C 5057   1.046   7.985   4.204  0.0039 -0.5588 -0.1743
  779MOL0     C 5058   1.092   8.059   4.319  1.0502  1.7027 -0.4766
  779MOL0     C 5059   1.202   8.008   4.397 -1.3663 -0.1245 -0.5737
  779MOL0     O 5060   1.257   7.885   4.361  0.0942 -0.8620  0.0081
  779MOL0     C 5061   1.356   7.842   4.443 -0.0348 -0.3776  0.5618
  779MOL0     C 5062   1.479   7.797   4.387  0.2016 -0.1917  0.1491
  779MOL0     C 5063   1.586   7.752   4.472 -0.2131  0.8139  0.1916
  779MOL0     C 5064   1.559   7.718   4.603 -0.0335  0.8463 -0.1639
  779MOL0     O 5065   1.641   7.637   4.675 -0.1563  0.4501 -0.7337
  779MOL0     C 5066   1.779   7.633   4.657  0.2124  0.4536 -0.0913
  779MOL0     C 5067   1.861   7.644   4.791  0.0512  0.0164 -0.8472
  779MOL0     C 5068   1.846   7.779   4.862 -0.0344  0.2502 -0.5269
  779MOL0     C 5069   1.917   7.785   5.000  0.7318 -0.7910 -1.0184
  779MOL0     C 5070   1.829   7.748   5.128  0.2332  1.2696  0.2670
  779MOL0     C 5071   1.898   7.786   5.265  0.2371  0.1977  1.1917
  779MOL0     C 5072   1.921   7.932   5.294 -0.7144  0.0076 -0.4402
  779MOL0     C 5073   2.064   7.983   5.282 -0.4470  0.5775  0.7142
  779MOL0    Cl 5074   2.188   7.904   5.375 -0.0147 -0.0543  0.3455
  779MOL0     C 5075   1.432   7.743   4.656 -1.1133 -0.2080  0.1738
  779MOL0     C 5076   1.329   7.804   4.581 -0.3687 -0.3423  0.3994
  779MOL0     O 5077   1.245   8.084   4.485 -0.1261 -0.4831 -0.2088
  779MOL0     C 5078   1.032   8.184   4.353 -0.1248  0.4042 -0.2707
  779MOL0     C 5079   0.938   8.246   4.272  0.0819 -0.2535  0.2978
  779MOL0     N 5080   0.769   8.821   3.817  0.1515  0.4235 -0.6108
  779MOL0     N 5081   0.848   8.904   3.880 -0.0933 -0.2947 -0.6446
  779MOL0     C 5082   1.705   8.711   4.532 -0.3424  0.1010  0.2070
  779MOL0     C 5083   1.826   8.758   4.590  0.0194  0.4622  0.3599
  779MOL0     C 5084   2.219   8.742   4.805  0.3747  0.7522 -1.0547
  779MOL0     C 5085   2.204   8.827   4.916  0.7619 -0.4784  0.3499
  779MOL0     C 5086   2.309   8.888   4.980 -0.7241 -0.0200  0.8264
  779MOL0     C 5087   2.436   8.851   4.937  0.6199  0.6491 -0.1186
  779MOL0     O 5088   2.545   8.887   5.011 -0.3808  0.1254  1.0767
  779MOL0     C 5089   2.540   8.978   5.121 -0.2996  0.9906  0.0837
  779MOL0     C 5090   2.509   8.899   5.252  0.3679  0.1792 -0.5042
  779MOL0     C 5091   2.497   8.977   5.376 -0.3225  0.4405  0.1220
  779MOL0     C 5092   2.619   9.036   5.435 -0.0770  0.9232 -0.1300
  779MOL0     C 5093   2.689   8.929   5.511 -0.3771  0.7697  0.0775
  779MOL0     C 5094   2.741   8.840   5.578 -0.4317  0.1706  0.1701
  779MOL0     C 5095   2.450   8.772   4.826 -0.2210 -0.1576 -0.7271
  779MOL0     C 5096   2.353   8.721   4.755 -0.0819  1.2818 -1.2252
  779MOL0     C 5097   2.376   8.617   4.646 -0.2957 -0.0231 -0.4689
  779MOL0     H 5098   1.823   8.569   4.871 -0.2489 -1.4323 -0.1897
  779MOL0     H 5099   1.631   8.484   4.769  3.3214 -2.6226 -2.1866
  779MOL0     H 5100   1.482   8.391   4.617  0.2131  0.1416 -1.1804
  779MOL0     H 5101   1.416   8.525   4.716  0.3811  1.6679 -0.5427
  779MOL0     H 5102   1.223   8.406   4.623 -0.9224  3.1779  1.3582
  779MOL0     H 5103   1.297   8.401   4.474  1.1521 -0.9537  1.3845
  779MOL0     H 5104   1.244   8.678   4.556  1.6866 -0.7183  0.7749
  779MOL0     H 5105   1.095   8.573   4.537  0.1614 -1.6728  0.4066
  779MOL0     H 5106   1.302   8.624   4.326  0.8224 -0.2621 -0.3129
  779MOL0     H 5107   1.169   8.517   4.311  0.8335  0.9494 -2.1560
  779MOL0     H 5108   1.001   8.693   4.312  0.8549 -1.3052 -1.6137
  779MOL0     H 5109   1.112   8.813   4.387  0.4972  0.4233 -0.0013
  779MOL0     H 5110   1.253   8.807   4.175 -1.0886  3.4622 -2.2283
  779MOL0     H 5111   1.143   8.700   4.098  0.0318  2.6959 -2.3350
  779MOL0     H 5112   1.112   8.916   4.018 -1.7298  0.2524 -1.0795
  779MOL0     H 5113   1.118   8.977   4.181 -0.4581 -1.2609  1.7594
  779MOL0     H 5114   0.881   8.867   4.211 -1.1583  3.7672  1.8131
  779MOL0     H 5115   0.901   9.011   4.113  0.0057 -0.2436 -0.2769
  779MOL0     H 5116   0.799   8.655   4.092  1.4202  4.2687  3.4654
  779MOL0     H 5117   0.567   8.581   3.870  0.1859 -3.1178 -1.5273
  779MOL0     H 5118   0.674   8.589   3.730  0.4413  0.2991 -0.4110
  779MOL0     H 5119   0.850   8.473   3.872  0.5035 -0.8435  1.8628
  779MOL0     H 5120   0.746   8.481   4.014 -1.2743 -1.4512 -0.2634
  779MOL0     H 5121   0.684   8.329   3.772  0.1177  2.9563  1.2135
  779MOL0     H 5122   0.585   8.312   3.921  0.7536 -2.9544  2.5782
  779MOL0     H 5123   0.862   8.201   3.880  0.1257  0.4674  0.2722
  779MOL0     H 5124   0.719   8.120   3.939 -2.5701  1.5112  0.2558
  779MOL0     H 5125   0.932   8.008   4.016  0.2679  0.1912 -0.0366
  779MOL0     H 5126   1.078   7.884   4.180 -0.6603 -1.1502  1.3288
  779MOL0     H 5127   1.493   7.802   4.280 -2.0275 -3.4710 -0.4514
  779MOL0     H 5128   1.682   7.725   4.427 -0.4306 -2.7757  1.5660
  779MOL0     H 5129   1.793   7.538   4.605 -3.5922 -0.2389 -0.1041
  779MOL0     H 5130   1.814   7.717   4.596 -1.5229  0.6874 -0.8052
  779MOL0     H 5131   1.830   7.564   4.858  3.5595 -1.2058 -0.4597
  779MOL0     H 5132   1.968   7.624   4.782  0.4641 -0.5112  3.4360
  779MOL0     H 5133   1.886   7.855   4.794  2.2204  0.1860  0.6232
  779MOL0     H 5134   1.742   7.805   4.882  0.0455 -0.9272  1.7537
  779MOL0     H 5135   1.961   7.884   5.016 -1.2215 -0.0675  0.1753
  779MOL0     H 5136   2.007   7.723   5.005 -0.4934 -2.5556  0.8096
  779MOL0     H 5137   1.808   7.641   5.126 -0.3409  1.3741 -1.7283
  779MOL0     H 5138   1.731   7.798   5.123  0.3406  1.5916  1.2107
  779MOL0     H 5139   1.840   7.746   5.349 -1.0885  0.7233  0.5598
  779MOL0     H 5140   1.992   7.731   5.263 -0.5774 -1.2596 -0.0409
  779MOL0     H 5141   1.889   7.938   5.399  0.1409 -1.9755 -0.0157
  779MOL0     H 5142   1.859   7.992   5.227 -0.6490  1.7471  0.9900
  779MOL0     H 5143   2.091   7.984   5.176 -1.5902  3.5572  0.3502
  779MOL0     H 5144   2.059   8.090   5.305  1.2209  0.7009  0.6720
  779MOL0     H 5145   1.422   7.708   4.759 -2.3338 -1.6787 -0.4093
  779MOL0     H 5146   1.236   7.837   4.625 -1.3033 -2.5504  0.1845
  779MOL0     H 5147   1.071   8.241   4.437 -2.1201  3.0094 -0.9639
  779MOL0     H 5148   0.908   8.350   4.284  0.4312  0.6115 -4.4427
  779MOL0     H 5149   1.668   8.750   4.437 -1.5071  0.4098  0.7600
  779MOL0     H 5150   1.889   8.820   4.528  0.7626  0.0641  0.7090
  779MOL0     H 5151   2.104   8.857   4.947  1.2182  1.4552  0.0917
  779MOL0     H 5152   2.290   8.959   5.059  0.5747 -0.5292  1.6181
  779MOL0     H 5153   2.470   9.062   5.106 -1.2745  0.4387  1.3766
  779MOL0     H 5154   2.638   9.026   5.129 -1.0918  2.5169  1.0992
  779MOL0     H 5155   2.592   8.829   5.263  1.1769  1.3428  1.2764
  779MOL0     H 5156   2.410   8.854   5.239  0.9786 -0.7935 -2.0237
  779MOL0     H 5157   2.439   8.922   5.451  1.5065 -0.0189  1.2505
  779MOL0     H 5158   2.439   9.064   5.342 -0.7462 -0.7914 -2.6290
  779MOL0     H 5159   2.691   9.062   5.357  1.8499 -2.4728  0.2877
  779MOL0     H 5160   2.594   9.119   5.501 -0.7798  1.3937 -0.9857
  779MOL0     H 5161   2.792   8.764   5.633 -1.0293 -1.0537 -0.9245
  779MOL0     H 5162   2.544   8.720   4.808 -0.4852 -0.9104  0.0072
  779MOL0     H 5163   2.483   8.625   4.622 -0.7152 -0.3218 -2.6987
  779MOL0     H 5164   2.360   8.516   4.683 -2.3558 -0.0776 -1.3943
  779MOL0     H 5165   2.310   8.625   4.559 -1.1667 -0.0839  0.1756
  780MOL0     O 5166   3.090   6.411   7.660 -0.5416 -0.3825 -0.5990
  780MOL0     C 5167   3.118   6.298   7.627  0.0432  0.0069 -0.7791
  780MOL0     O 5168   3.239   6.232   7.668 -0.8223 -0.2776 -0.3901
  780MOL0     C 5169   3.345   6.302   7.723  0.2206 -0.0674 -0.0294
  780MOL0     C 5170   3.338   6.385   7.839 -0.6236 -0.7466 -0.7671
  780MOL0     C 5171   3.446   6.445   7.891  0.2127 -0.3908 -0.1422
  780MOL0     C 5172   3.578   6.419   7.833  0.4626 -0.8707  0.3881
  780MOL0     O 5173   3.689   6.470   7.885 -0.9461 -0.6650  0.1867
  780MOL0     C 5174   3.700   6.451   8.027 -0.0983  0.2623 -0.4702
  780MOL0     C 5175   3.848   6.503   8.064  0.2150 -1.2612 -0.5396
  780MOL0     C 5176   3.910   6.430   8.175  0.3194 -0.3505 -0.4540
  780MOL0     C 5177   4.043   6.479   8.218 -0.3336  1.0375  0.0721
  780MOL0     C 5178   4.103   6.364   8.301  0.2460 -0.2317  0.3878
  780MOL0     C 5179   4.044   6.360   8.446 -0.0619 -0.2826 -0.0208
  780MOL0     C 5180   4.126   6.467   8.530  0.2244  0.3588  0.1635
  780MOL0     C 5181   4.040   6.516   8.644  0.0178  0.1796  0.3220
  780MOL0     N 5182   3.914   6.574   8.603 -0.0261  0.0039  0.3363
  780MOL0     C 5183   3.786   6.521   8.599 -0.6944  0.3020 -0.6110
  780MOL0     C 5184   3.704   6.616   8.550 -0.1973 -1.3308 -0.3224
  780MOL0     C 5185   3.560   6.619   8.511 -0.7690  0.1293 -0.8384
  780MOL0     C 5186   3.539   6.493   8.428  0.3380  0.1929  0.5172
  780MOL0     C 5187   3.393   6.501   8.365 -0.0508  0.2484 -0.4751
  780MOL0     C 5188   3.348   6.356   8.335 -0.6000 -1.2287  0.6705
  780MOL0     O 5189   3.205   6.346   8.310  0.1827  0.0502  0.2606
  780MOL0     C 5190   3.125   6.327   8.419 -0.2295 -0.0139  0.7764
  780MOL0     C 5191   2.989   6.346   8.391  1.0899 -0.0366  0.9973
  780MOL0     C 5192   2.895   6.318   8.487 -0.4367  0.0078  0.6908
  780MOL0     C 5193   2.930   6.268   8.619  0.3841  0.0400  0.2189
  780MOL0     C 5194   2.836   6.275   8.726 -0.3979 -0.8177  0.2636
  780MOL0     O 5195   2.705   6.311   8.694  0.0349 -0.3226 -1.3196
  780MOL0     C 5196   2.600   6.306   8.794  0.2015 -0.0869  0.4083
  780MOL0     C 5197   2.586   6.202   8.888  1.3143  0.1201  0.0921
  780MOL0     C 5198   2.482   6.199   8.986  0.9994  0.3154  0.3814
  780MOL0     C 5199   2.398   6.309   8.993  0.2038 -0.9833  0.8997
  780MOL0     O 5200   2.277   6.316   9.061  0.2229 -1.0407  0.0158
  780MOL0     C 5201   2.212   6.183   9.087  0.3398  0.7666 -0.2136
  780MOL0     C 5202   2.080   6.222   9.168 -0.3796 -0.3997  0.3680
  780MOL0     C 5203   1.986   6.101   9.182 -0.0700 -1.1831  0.0060
  780MOL0     C 5204   1.863   6.152   9.254  0.1520 -0.8594  0.6232
  780MOL0     C 5205   1.769   6.040   9.281 -0.1550  0.9537 -0.7840
  780MOL0     C 5206   1.632   6.091   9.327 -0.8280 -0.1821 -0.3952
  780MOL0     C 5207   1.529   5.972   9.334 -1.0243  0.2755  0.6801
  780MOL0     C 5208   1.392   6.029   9.347 -0.0999  0.0422 -0.4614
  780MOL0    Cl 5209   1.269   5.902   9.348  0.3311 -0.0478 -0.2020
  780MOL0     C 5210   2.425   6.421   8.910  0.3031 -0.6278  0.0513
  780MOL0     C 5211   2.519   6.420   8.811  0.3028 -0.6049 -0.5058
  780MOL0     O 5212   2.871   6.240   8.840 -0.4874  0.2043  0.1217
  780MOL0     C 5213   3.067   6.255   8.643  0.6648 -0.2343  0.0171
  780MOL0     C 5214   3.167   6.284   8.546 -0.4528 -0.1769 -0.1526
  780MOL0     N 5215   3.788   6.731   8.536  0.2546 -0.6620 -0.4832
  780MOL0     N 5216   3.909   6.699   8.552 -1.0385 -1.0577  0.0624
  780MOL0     C 5217   3.591   6.348   7.710  0.6889  0.0424  0.4333
  780MOL0     C 5218   3.473   6.285   7.664  0.2953 -0.1687  0.0696
  780MOL0     C 5219   3.029   6.235   7.529 -0.1200  0.2305  0.6479
  780MOL0     C 5220   2.888   6.242   7.542 -0.5262  0.6997  0.0675
  780MOL0     C 5221   2.803   6.184   7.455  0.1269  0.3306 -0.2043
  780MOL0     C 5222   2.859   6.124   7.340 -0.5728  0.5222  0.0402
  780MOL0     O 5223   2.796   6.074   7.223 -0.5386 -0.1443  0.7063
  780MOL0     C 5224   2.652   6.097   7.213  0.4762  0.5595  0.1849
  780MOL0     C 5225   2.629   6.241   7.176  1.2227 -0.6380  0.7170
  780MOL0     C 5226   2.686   6.279   7.040 -0.1768 -0.1592 -0.2616
  780MOL0     C 5227   2.636   6.422   7.016 -0.0345 -0.2181  0.5939
  780MOL0     C 5228   2.729   6.498   6.926 -0.5181  0.2064  0.8557
  780MOL0     C 5229   2.816   6.573   6.871 -0.2774  0.1510 -0.0620
  780MOL0     C 5230   2.999   6.116   7.327  0.4951  0.1645  1.0200
  780MOL0     C 5231   3.083   6.166   7.424  0.8948  0.0730  1.0260
  780MOL0     C 5232   3.230   6.143   7.401 -0.3515 -0.4371  0.5256
  780MOL0     H 5233   3.242   6.395   7.887 -0.1498 -2.5320  0.6738
  780MOL0     H 5234   3.427   6.526   7.961 -1.6507 -3.6071  3.5075
  780MOL0     H 5235   3.627   6.511   8.083 -0.9483 -3.4307  2.8838
  780MOL0     H 5236   3.693   6.348   8.066  1.5040 -0.0870 -1.0487
  780MOL0     H 5237   3.866   6.609   8.088  0.6572 -1.7013  1.2897
  780MOL0     H 5238   3.911   6.498   7.976 -0.3144 -2.3147 -0.8676
  780MOL0     H 5239   3.894   6.325   8.152 -1.0016 -0.3701  0.4520
  780MOL0     H 5240   3.849   6.461   8.260  0.5468  1.1956 -0.8076
  780MOL0     H 5241   4.110   6.520   8.141  1.2361  0.3121  1.0007
  780MOL0     H 5242   4.034   6.570   8.277  0.9767 -0.0028  1.9910
  780MOL0     H 5243   4.089   6.266   8.253  3.7512 -1.0829  0.8751
  780MOL0     H 5244   4.212   6.372   8.297  0.7603 -4.8310 -2.8182
  780MOL0     H 5245   3.936   6.377   8.454  0.3326  1.5874  2.7197
  780MOL0     H 5246   4.060   6.263   8.494  3.8577 -0.1909 -0.7868
  780MOL0     H 5247   4.125   6.548   8.457 -2.4189 -0.4142 -0.8012
  780MOL0     H 5248   4.230   6.447   8.555  0.6874  0.6999 -1.4194
  780MOL0     H 5249   4.001   6.438   8.710 -4.5021 -0.4118 -2.5615
  780MOL0     H 5250   4.109   6.575   8.704  0.7480  0.4951 -0.8018
  780MOL0     H 5251   3.758   6.418   8.619  0.3335 -0.2291 -1.7635
  780MOL0     H 5252   3.489   6.611   8.593 -0.2375  0.4214 -0.3427
  780MOL0     H 5253   3.537   6.707   8.450 -2.2271  0.7391  0.5197
  780MOL0     H 5254   3.611   6.486   8.347  0.0673  0.3293  0.2624
  780MOL0     H 5255   3.534   6.401   8.488  2.1286 -1.1034 -1.2164
  780MOL0     H 5256   3.395   6.559   8.273 -1.7177  0.0896 -0.6408
  780MOL0     H 5257   3.329   6.547   8.441  0.7317  1.0017 -0.2466
  780MOL0     H 5258   3.379   6.286   8.414 -0.9911  1.6419  3.6020
  780MOL0     H 5259   3.405   6.336   8.244  2.0051  1.6912  1.4883
  780MOL0     H 5260   2.954   6.390   8.299  0.2035 -0.3496  1.1699
  780MOL0     H 5261   2.793   6.351   8.470 -0.2954 -0.5212 -1.3786
  780MOL0     H 5262   2.656   6.119   8.888  1.0972 -0.0717  0.8018
  780MOL0     H 5263   2.465   6.106   9.039  0.0354  0.2644  0.0026
  780MOL0     H 5264   2.198   6.139   8.988  3.7225 -0.5856 -0.2417
  780MOL0     H 5265   2.277   6.111   9.137 -0.4774 -0.4003 -0.7877
  780MOL0     H 5266   2.098   6.263   9.268 -1.5537  1.0615  0.0192
  780MOL0     H 5267   2.018   6.293   9.112  0.5725  0.5579  0.4879
  780MOL0     H 5268   1.952   6.066   9.084  1.5747 -3.2868  0.1204
  780MOL0     H 5269   2.038   6.014   9.224 -2.0654 -2.9181 -0.9004
  780MOL0     H 5270   1.808   6.221   9.189  1.4711 -0.8011 -0.4930
  780MOL0     H 5271   1.888   6.207   9.346  0.3247 -5.2534  3.4950
  780MOL0     H 5272   1.806   5.961   9.348  0.6360  0.6566 -1.5529
  780MOL0     H 5273   1.756   5.992   9.184  0.2003 -1.3446  0.2141
  780MOL0     H 5274   1.658   6.130   9.426  0.7100  0.6644 -1.0993
  780MOL0     H 5275   1.604   6.174   9.261 -0.1223  1.8594  1.7145
  780MOL0     H 5276   1.551   5.906   9.418 -0.6239  0.5838  0.8204
  780MOL0     H 5277   1.533   5.921   9.237  2.1808  2.5023 -0.5328
  780MOL0     H 5278   1.386   6.080   9.443  2.3360 -0.1553 -0.1427
  780MOL0     H 5279   1.370   6.098   9.265  1.9886 -0.5764 -1.6218
  780MOL0     H 5280   2.367   6.511   8.927 -0.1622 -0.2443 -2.9874
  780MOL0     H 5281   2.520   6.508   8.748 -0.1818 -0.3556 -0.1726
  780MOL0     H 5282   3.087   6.217   8.743 -1.1710  2.2623  1.4310
  780MOL0     H 5283   3.270   6.270   8.577 -0.7367 -1.6456  0.1749
  780MOL0     H 5284   3.685   6.338   7.657 -0.8640  1.8391 -2.9076
  780MOL0     H 5285   3.472   6.243   7.564  2.2102 -2.6581  0.9738
  780MOL0     H 5286   2.850   6.308   7.619 -0.7651 -0.3111  0.8206
  780MOL0     H 5287   2.695   6.192   7.465 -0.2926 -2.6958 -1.2447
  780MOL0     H 5288   2.606   6.077   7.310 -0.4731  1.4627 -0.0632
  780MOL0     H 5289   2.609   6.025   7.142 -2.7914  3.1373 -0.7326
  780MOL0     H 5290   2.672   6.304   7.255 -0.0174  1.4495 -0.1813
  780MOL0     H 5291   2.525   6.272   7.186  1.6460  0.5469  1.6767
  780MOL0     H 5292   2.643   6.214   6.963  0.2879 -0.2635 -0.4324
  780MOL0     H 5293   2.795   6.274   7.038 -0.1695 -2.0809  2.0035
  780MOL0     H 5294   2.537   6.406   6.972 -0.4361 -1.3238  1.8312
  780MOL0     H 5295   2.622   6.485   7.104  0.4228  1.2112 -0.3064
  780MOL0     H 5296   2.903   6.624   6.834 -1.1963  1.9691  0.1864
  780MOL0     H 5297   3.045   6.085   7.233  1.4489 -0.1011  1.5631
  780MOL0     H 5298   3.296   6.230   7.404 -1.4298  0.4842 -1.1278
  780MOL0     H 5299   3.265   6.068   7.473  3.0912  0.1488 -0.3230
  780MOL0     H 5300   3.258   6.109   7.301 -1.2819 -0.2058  0.1825
  781MOL0     O 5301   9.010   0.555   0.135 -0.6366  0.1863  0.4239
  781MOL0     C 5302   9.117   0.589   0.186 -0.6047  0.2905 -0.2672
  781MOL0     O 5303   9.175   0.711   0.171 -0.3295  0.1556  0.5580
  781MOL0     C 5304   9.115   0.794   0.080  1.0430  0.6359 -0.4384
  781MOL0     C 5305   9.136   0.784  -0.053 -0.8987 -0.2844 -0.4666
  781MOL0     C 5306   9.083   0.866  -0.150  0.0655 -0.4447  0.8522
  781MOL0     C 5307   8.974   0.956  -0.111 -1.1572  0.5736 -0.6636
  781MOL0     O 5308   8.922   1.039  -0.209  0.5555 -0.4979  0.0079
  781MOL0     C 5309   8.846   0.969  -0.314 -0.0185  0.3828  0.1187
  781MOL0     C 5310   8.848   1.073  -0.431 -0.0527  0.2306 -0.3597
  781MOL0     C 5311   8.991   1.122  -0.476  0.0341  0.4400  0.8868
  781MOL0     C 5312   8.995   1.242  -0.580  0.1623  1.0152  0.4055
  781MOL0     C 5313   8.871   1.265  -0.673 -1.3759  0.1834 -0.1685
  781MOL0     C 5314   8.820   1.146  -0.764 -0.0483  0.4112  0.1263
  781MOL0     C 5315   8.932   1.059  -0.823  0.0292 -0.7144 -0.0771
  781MOL0     C 5316   8.883   0.981  -0.946  0.2498  0.0199 -0.1711
  781MOL0     N 5317   8.984   0.892  -0.994 -0.5009  0.7529 -0.5571
  781MOL0     C 5318   9.073   0.921  -1.093  0.2099 -0.6626 -0.4727
  781MOL0     C 5319   9.137   0.801  -1.119 -0.4313 -0.8371 -0.3672
  781MOL0     C 5320   9.238   0.779  -1.234  0.9831 -0.4729  0.6250
  781MOL0     C 5321   9.182   0.806  -1.379  0.6930 -0.4398 -0.4049
  781MOL0     C 5322   9.293   0.780  -1.489  0.8572  0.4648 -0.4502
  781MOL0     C 5323   9.401   0.892  -1.488  0.0023 -0.6814  0.2337
  781MOL0     O 5324   9.347   1.026  -1.514 -0.4445  0.0062  0.7139
  781MOL0     C 5325   9.422   1.131  -1.561  0.0522  0.1231 -0.4209
  781MOL0     C 5326   9.370   1.259  -1.553 -0.1253  0.3747  0.4015
  781MOL0     C 5327   9.457   1.365  -1.563  0.2839 -0.4370  0.0999
  781MOL0     C 5328   9.593   1.349  -1.594  0.2953 -0.8795 -0.3443
  781MOL0     C 5329   9.677   1.476  -1.606  0.7007  0.4429  0.2337
  781MOL0     O 5330   9.617   1.596  -1.572 -0.1880  0.0393 -0.4147
  781MOL0     C 5331   9.691   1.712  -1.568  0.9136 -0.3453 -0.5974
  781MOL0     C 5332   9.808   1.745  -1.644  1.0868 -0.0183 -0.2997
  781MOL0     C 5333   9.875   1.865  -1.633 -0.2108 -0.1138 -0.3347
  781MOL0     C 5334   9.827   1.955  -1.526  0.1744 -0.7857  0.7720
  781MOL0     O 5335   9.891   2.077  -1.511  0.4487  0.4951  0.2265
  781MOL0     C 5336   9.807   2.193  -1.518  0.1750  0.7243 -0.3837
  781MOL0     C 5337   9.891   2.321  -1.553  0.4447  0.2917  0.0121
  781MOL0     C 5338   9.808   2.443  -1.591 -0.1704  0.1978 -0.7477
  781MOL0     C 5339   9.892   2.574  -1.599  0.7238  0.4899  0.2307
  781MOL0     C 5340   9.999   2.599  -1.716  0.2248 -0.4097 -0.3817
  781MOL0     C 5341   9.947   2.589  -1.854 -0.8093 -0.1708 -0.0872
  781MOL0     C 5342  10.052   2.619  -1.967  0.0579 -0.2907  0.3165
  781MOL0     C 5343  10.154   2.497  -1.979 -0.0138  0.1259 -0.5728
  781MOL0    Cl 5344  10.306   2.535  -2.086 -0.0068  0.1768  0.1636
  781MOL0     C 5345   9.703   1.934  -1.465 -0.3814  0.1858 -0.0532
  781MOL0     C 5346   9.637   1.812  -1.479 -0.2190  0.3356  0.6374
  781MOL0     O 5347   9.794   1.461  -1.644 -0.4521 -0.3302 -0.5903
  781MOL0     C 5348   9.642   1.223  -1.620 -0.1142  0.0084 -0.5378
  781MOL0     C 5349   9.555   1.123  -1.594 -0.6281 -0.3147 -0.1149
  781MOL0     N 5350   9.091   0.704  -1.027  0.3592  0.1352 -0.2761
  781MOL0     N 5351   9.003   0.764  -0.949  0.4958  0.0447  0.8561
  781MOL0     C 5352   8.947   0.963   0.028  0.8893 -0.0845  0.5334
  781MOL0     C 5353   9.023   0.891   0.124 -0.5396  0.9084 -0.1723
  781MOL0     C 5354   9.199   0.502   0.287  0.2750  0.6808 -0.1223
  781MOL0     C 5355   9.332   0.528   0.301 -0.8296  0.3188 -0.6831
  781MOL0     C 5356   9.408   0.456   0.395 -0.1331 -0.5365  0.7240
  781MOL0     C 5357   9.346   0.375   0.488 -0.0991 -0.1677  0.6288
  781MOL0     O 5358   9.427   0.317   0.581  0.0658  0.2144 -0.3917
  781MOL0     C 5359   9.371   0.217   0.677 -0.1062  0.2797 -0.0259
  781MOL0     C 5360   9.465   0.187   0.797  0.6922 -0.2695 -0.5297
  781MOL0     C 5361   9.462   0.310   0.895 -0.6852  0.0546  0.0244
  781MOL0     C 5362   9.591   0.316   0.974 -1.1329  0.5885 -0.4721
  781MOL0     C 5363   9.622   0.184   1.042  0.3806  0.1161  0.4098
  781MOL0     C 5364   9.653   0.085   1.106 -0.8524  0.0958 -0.3593
  781MOL0     C 5365   9.216   0.341   0.461 -0.8635  0.6754  0.0171
  781MOL0     C 5366   9.142   0.409   0.368  0.9257  0.1039  0.4923
  781MOL0     C 5367   9.000   0.369   0.363  0.4652 -0.3018  0.6276
  781MOL0     H 5368   9.212   0.712  -0.082  0.6833  0.7269  0.9846
  781MOL0     H 5369   9.113   0.855  -0.253 -3.2373 -0.9611 -0.1784
  781MOL0     H 5370   8.883   0.871  -0.345 -1.5605 -0.6422  1.3955
  781MOL0     H 5371   8.746   0.962  -0.273 -0.5266 -0.4541 -1.1949
  781MOL0     H 5372   8.783   1.154  -0.395 -0.8008 -0.8813  0.8808
  781MOL0     H 5373   8.793   1.021  -0.510  0.2082  0.6400 -0.8186
  781MOL0     H 5374   9.043   1.038  -0.525  1.1371  2.0351 -0.8194
  781MOL0     H 5375   9.043   1.165  -0.391 -1.2143  1.1716  1.3102
  781MOL0     H 5376   9.030   1.333  -0.532  5.0523 -1.0977  1.4867
  781MOL0     H 5377   9.081   1.217  -0.642  1.4795  0.9252  2.1781
  781MOL0     H 5378   8.797   1.306  -0.604  1.9475  2.1830  2.4984
  781MOL0     H 5379   8.895   1.340  -0.749  0.7181  2.1518  2.2578
  781MOL0     H 5380   8.747   1.088  -0.708  1.9164 -1.6274  0.7275
  781MOL0     H 5381   8.768   1.186  -0.852  2.3432  0.8296 -1.2002
  781MOL0     H 5382   8.988   1.008  -0.744 -0.2159  0.2512  0.7253
  781MOL0     H 5383   9.012   1.121  -0.866 -2.2095  0.2207 -3.2644
  781MOL0     H 5384   8.793   0.925  -0.920  0.6543  0.7680  3.4787
  781MOL0     H 5385   8.851   1.056  -1.018 -1.2232 -1.4067 -1.0772
  781MOL0     H 5386   9.078   1.014  -1.149 -0.4357 -1.2595 -1.5445
  781MOL0     H 5387   9.318   0.848  -1.209 -0.6752  2.0330 -0.5927
  781MOL0     H 5388   9.278   0.677  -1.237 -1.0309 -1.3172  0.6884
  781MOL0     H 5389   9.090   0.752  -1.402 -1.0435  1.9907  0.4021
  781MOL0     H 5390   9.146   0.910  -1.381  0.0479 -0.6637 -1.7486
  781MOL0     H 5391   9.253   0.761  -1.589 -2.1399 -0.3460  0.7875
  781MOL0     H 5392   9.352   0.695  -1.452 -1.1251  0.2062  2.4583
  781MOL0     H 5393   9.472   0.873  -1.568 -1.8760  2.1150 -2.2782
  781MOL0     H 5394   9.448   0.897  -1.389  1.2682 -3.0429 -0.1731
  781MOL0     H 5395   9.269   1.278  -1.519  0.0960  0.6743  0.9122
  781MOL0     H 5396   9.414   1.459  -1.529 -2.5176 -2.0994  1.5585
  781MOL0     H 5397   9.834   1.676  -1.724 -3.2119 -0.3872 -1.6032
  781MOL0     H 5398   9.961   1.879  -1.698 -1.1137 -0.2771 -1.6077
  781MOL0     H 5399   9.736   2.174  -1.599  1.0035 -1.1024 -0.7331
  781MOL0     H 5400   9.749   2.197  -1.426  0.2021 -0.3819 -0.3029
  781MOL0     H 5401   9.941   2.347  -1.459  0.1085 -0.1762  0.3292
  781MOL0     H 5402   9.970   2.311  -1.629 -0.8041  0.7611 -1.3906
  781MOL0     H 5403   9.763   2.418  -1.688 -0.3194 -0.5385 -0.4983
  781MOL0     H 5404   9.722   2.461  -1.525 -1.2013 -0.4638 -1.8662
  781MOL0     H 5405   9.953   2.570  -1.508 -0.7137 -1.9659  1.2020
  781MOL0     H 5406   9.830   2.664  -1.595 -0.6043 -0.4262  1.5768
  781MOL0     H 5407  10.063   2.511  -1.702 -1.2775 -1.5640 -0.4500
  781MOL0     H 5408  10.039   2.698  -1.691 -1.2434  1.1095 -3.5293
  781MOL0     H 5409   9.914   2.486  -1.866 -0.8392 -0.2462  0.5862
  781MOL0     H 5410   9.862   2.658  -1.860 -0.8093 -0.2876 -1.9819
  781MOL0     H 5411  10.097   2.715  -1.940 -4.1951  2.3544 -1.0434
  781MOL0     H 5412  10.014   2.632  -2.069  2.2630  2.9707 -0.2269
  781MOL0     H 5413  10.203   2.484  -1.882 -1.0688  1.6705  0.1997
  781MOL0     H 5414  10.124   2.395  -2.006  0.0036 -0.2022  0.5905
  781MOL0     H 5415   9.666   2.004  -1.391  0.8623 -0.0869  0.8697
  781MOL0     H 5416   9.551   1.793  -1.416 -1.4553  0.9465 -0.7960
  781MOL0     H 5417   9.744   1.203  -1.649  0.0429  0.2434 -0.1504
  781MOL0     H 5418   9.610   1.031  -1.614 -1.8089 -1.3772  1.2451
  781MOL0     H 5419   8.860   1.024   0.047  1.3550  0.4873  0.8453
  781MOL0     H 5420   9.009   0.881   0.231 -0.7021 -3.7431 -0.4022
  781MOL0     H 5421   9.382   0.598   0.234  0.8564  1.7012  1.8490
  781MOL0     H 5422   9.517   0.453   0.399 -0.1698 -1.0369  1.5798
  781MOL0     H 5423   9.357   0.122   0.624 -2.2545 -1.9613  4.0629
  781MOL0     H 5424   9.269   0.239   0.710  0.4600  0.3940  1.7089
  781MOL0     H 5425   9.567   0.165   0.764  1.6315  1.0120  1.3097
  781MOL0     H 5426   9.416   0.100   0.841  0.9340 -0.3079 -0.3321
  781MOL0     H 5427   9.382   0.290   0.967 -1.6098 -1.8967 -1.4231
  781MOL0     H 5428   9.454   0.410   0.852 -0.4749  1.5431  3.1938
  781MOL0     H 5429   9.672   0.319   0.901 -1.7020  3.0553 -1.0863
  781MOL0     H 5430   9.596   0.402   1.041 -0.8198 -0.7429  1.3131
  781MOL0     H 5431   9.691   0.016   1.178 -2.6317 -0.8447 -0.2586
  781MOL0     H 5432   9.163   0.263   0.515  0.2433  0.5833  0.9917
  781MOL0     H 5433   8.932   0.455   0.371 -4.6830 -3.8245 -0.3567
  781MOL0     H 5434   8.994   0.334   0.259  0.0292  0.5135  0.3701
  781MOL0     H 5435   8.974   0.291   0.435  0.5200  0.8090  1.8996
  782MOL0     O 5436   4.600   5.592   3.027  0.1887 -0.4670 -0.7082
  782MOL0     C 5437   4.693   5.556   3.102 -0.8694  0.4581  0.1170
  782MOL0     O 5438   4.688   5.450   3.184  0.6215 -0.1707  0.4362
  782MOL0     C 5439   4.561   5.396   3.200  1.1957  0.9272  0.1968
  782MOL0     C 5440   4.529   5.275   3.148 -0.1984  0.7476 -0.4511
  782MOL0     C 5441   4.402   5.217   3.158 -1.0320  0.0612  0.1130
  782MOL0     C 5442   4.294   5.289   3.205 -0.0433  0.7789  0.2777
  782MOL0     O 5443   4.164   5.229   3.214 -0.0565  0.0191  0.1522
  782MOL0     C 5444   4.124   5.130   3.122  0.1094 -0.3490 -0.6994
  782MOL0     C 5445   3.988   5.163   3.062 -1.1149  0.3913  0.3052
  782MOL0     C 5446   3.895   5.037   3.051 -0.3456  0.2113 -0.2142
  782MOL0     C 5447   3.818   5.010   3.186 -0.6999  0.3319  0.3676
  782MOL0     C 5448   3.718   4.890   3.175 -0.4126 -0.6862  0.1876
  782MOL0     C 5449   3.619   4.879   3.294 -0.2604 -0.2999 -0.2074
  782MOL0     C 5450   3.496   4.797   3.262 -0.8105  0.5112  0.2804
  782MOL0     C 5451   3.391   4.807   3.377 -0.2549 -0.5620  0.7737
  782MOL0     N 5452   3.419   4.732   3.499  0.5862  1.3214 -0.9953
  782MOL0     C 5453   3.371   4.602   3.523  0.2028  0.6863 -0.0029
  782MOL0     C 5454   3.426   4.557   3.640 -0.8449 -0.1325 -0.4222
  782MOL0     C 5455   3.413   4.431   3.720 -0.8938  0.1134 -0.2624
  782MOL0     C 5456   3.401   4.307   3.630  0.2727 -0.2043  0.4786
  782MOL0     C 5457   3.510   4.272   3.531  0.6329 -0.1941  0.4493
  782MOL0     C 5458   3.650   4.284   3.589 -0.0152  0.6042  1.1866
  782MOL0     O 5459   3.657   4.195   3.699  0.4399  0.5160  0.2844
  782MOL0     C 5460   3.767   4.192   3.777  0.0188 -0.6876  0.0503
  782MOL0     C 5461   3.884   4.261   3.745  0.1341  0.3217 -0.6451
  782MOL0     C 5462   3.998   4.255   3.827  0.3270 -1.3522  0.0223
  782MOL0     C 5463   4.003   4.180   3.944  0.1377 -0.5426  0.7424
  782MOL0     C 5464   4.132   4.176   4.026 -0.8634 -0.6184  0.2545
  782MOL0     O 5465   4.237   4.260   3.985 -0.6849  0.8405 -0.2395
  782MOL0     C 5466   4.351   4.277   4.055 -0.0862 -0.2706 -1.1042
  782MOL0     C 5467   4.415   4.396   4.038 -0.1081  0.1440 -0.1984
  782MOL0     C 5468   4.538   4.426   4.098 -0.2538 -0.9848 -0.1147
  782MOL0     C 5469   4.598   4.335   4.189  0.7174 -0.1105 -0.2474
  782MOL0     O 5470   4.718   4.348   4.246 -0.4497  0.5956 -0.3541
  782MOL0     C 5471   4.802   4.462   4.220 -0.1991  0.3326  0.2227
  782MOL0     C 5472   4.942   4.439   4.291 -0.2720  0.1338 -0.0835
  782MOL0     C 5473   5.015   4.308   4.241  1.2340 -0.2982  0.8757
  782MOL0     C 5474   5.133   4.281   4.326 -0.5656  0.0668 -0.1438
  782MOL0     C 5475   5.202   4.158   4.263  0.4485 -1.3369 -0.3579
  782MOL0     C 5476   5.298   4.094   4.354 -0.7051 -0.6344 -0.7990
  782MOL0     C 5477   5.344   3.967   4.272 -0.4566 -0.2446  0.2301
  782MOL0     C 5478   5.402   3.848   4.349  0.2056  0.1756  0.4251
  782MOL0    Cl 5479   5.420   3.705   4.239 -0.4279 -0.3824 -0.2925
  782MOL0     C 5480   4.535   4.210   4.214  1.5174 -0.3398  0.0055
  782MOL0     C 5481   4.412   4.182   4.147 -0.5064 -0.0324  0.6163
  782MOL0     O 5482   4.125   4.111   4.134 -0.5177 -0.3308 -0.3205
  782MOL0     C 5483   3.894   4.105   3.969 -1.0103 -0.3614  0.6086
  782MOL0     C 5484   3.772   4.115   3.896 -0.8746  0.3770 -0.2100
  782MOL0     N 5485   3.502   4.670   3.685  0.8137  0.7649 -0.4682
  782MOL0     N 5486   3.497   4.766   3.607 -0.3569  0.3648  0.4957
  782MOL0     C 5487   4.330   5.416   3.257  1.0907 -0.0715  0.3385
  782MOL0     C 5488   4.456   5.468   3.263 -1.0977  0.2809  0.1136
  782MOL0     C 5489   4.818   5.628   3.076 -0.8598 -0.3074 -0.7197
  782MOL0     C 5490   4.824   5.722   2.969 -1.0448  0.5485 -0.2228
  782MOL0     C 5491   4.925   5.823   2.968 -0.3747 -0.1223 -0.6178
  782MOL0     C 5492   5.029   5.824   3.062  0.2393  0.2455  0.1426
  782MOL0     O 5493   5.108   5.938   3.082 -0.2578 -0.3424 -0.3905
  782MOL0     C 5494   5.242   5.923   3.115  0.6604 -0.0337 -0.4895
  782MOL0     C 5495   5.320   5.846   3.005  0.0186  0.5727 -0.2905
  782MOL0     C 5496   5.474   5.849   3.014 -0.2293 -0.3695 -0.2500
  782MOL0     C 5497   5.536   5.793   2.885  0.3819  0.5335 -0.3346
  782MOL0     C 5498   5.681   5.804   2.896 -0.0296  0.9263 -0.3548
  782MOL0     C 5499   5.798   5.782   2.895 -0.4466 -0.4580  0.5943
  782MOL0     C 5500   5.029   5.713   3.155 -0.3384  0.4838  0.6035
  782MOL0     C 5501   4.926   5.621   3.167  1.0810 -0.1078  0.9976
  782MOL0     C 5502   4.947   5.507   3.261 -0.5134  0.7665  0.8959
  782MOL0     H 5503   4.605   5.216   3.098 -0.2541 -0.0715  0.4010
  782MOL0     H 5504   4.395   5.111   3.135 -0.3962 -0.7368  3.1365
  782MOL0     H 5505   4.198   5.124   3.042  2.0761 -2.1863  1.1090
  782MOL0     H 5506   4.117   5.031   3.168 -0.2474 -0.0511 -0.0937
  782MOL0     H 5507   4.012   5.197   2.961  2.8073 -2.7723 -0.0540
  782MOL0     H 5508   3.932   5.234   3.124  0.2793 -0.4693  2.6742
  782MOL0     H 5509   3.961   4.953   3.027  1.2873  0.0961  3.8950
  782MOL0     H 5510   3.821   5.048   2.971 -1.0814 -0.0810  0.4171
  782MOL0     H 5511   3.891   4.992   3.266 -0.8078  0.8430  0.5855
  782MOL0     H 5512   3.758   5.098   3.209  1.2704  1.9940 -0.4810
  782MOL0     H 5513   3.658   4.928   3.092  1.4175  4.2669  0.8187
  782MOL0     H 5514   3.767   4.793   3.160  0.3943 -0.7601  2.8138
  782MOL0     H 5515   3.667   4.856   3.390 -3.5524 -0.5651  1.5069
  782MOL0     H 5516   3.578   4.980   3.305 -3.1112 -1.1609 -1.8238
  782MOL0     H 5517   3.523   4.691   3.254 -0.5965  0.4321  1.7990
  782MOL0     H 5518   3.452   4.838   3.171 -1.9464  0.2277  0.6867
  782MOL0     H 5519   3.370   4.912   3.398  0.0297 -0.3265 -0.0799
  782MOL0     H 5520   3.300   4.767   3.330 -0.0300  0.7661 -0.9068
  782MOL0     H 5521   3.310   4.542   3.456  0.1515  0.2715  0.4090
  782MOL0     H 5522   3.505   4.416   3.777  0.6690 -1.2456 -2.9214
  782MOL0     H 5523   3.327   4.444   3.785 -0.6749  0.1324  0.0256
  782MOL0     H 5524   3.382   4.218   3.691 -0.4729  0.1838  0.8282
  782MOL0     H 5525   3.313   4.324   3.567  1.3285  0.5517 -0.8543
  782MOL0     H 5526   3.499   4.339   3.444  4.3466  1.0812  0.7829
  782MOL0     H 5527   3.489   4.168   3.505  1.6104 -0.8903  2.2902
  782MOL0     H 5528   3.668   4.390   3.611 -1.0350  1.1584 -0.4862
  782MOL0     H 5529   3.717   4.256   3.507 -3.1424 -1.3729 -0.9079
  782MOL0     H 5530   3.898   4.320   3.655  4.6615 -0.2669 -0.5734
  782MOL0     H 5531   4.085   4.318   3.809 -0.7833  1.2868  3.0890
  782MOL0     H 5532   4.374   4.463   3.964 -1.9803 -0.7541 -0.0241
  782MOL0     H 5533   4.590   4.506   4.046  1.3191 -2.1511 -0.3885
  782MOL0     H 5534   4.808   4.474   4.112 -0.9495 -2.5316 -0.2053
  782MOL0     H 5535   4.757   4.558   4.249 -0.6676  0.1478  0.1171
  782MOL0     H 5536   5.011   4.523   4.280  3.0408 -2.1750  1.5271
  782MOL0     H 5537   4.922   4.436   4.398 -1.4338 -0.6281 -0.3001
  782MOL0     H 5538   4.946   4.224   4.255 -0.1112  0.6767  0.2742
  782MOL0     H 5539   5.033   4.309   4.133 -1.0480 -3.2774  0.3542
  782MOL0     H 5540   5.108   4.235   4.422 -0.6206 -1.5781 -0.9121
  782MOL0     H 5541   5.201   4.367   4.334 -1.2572  0.6871 -0.8157
  782MOL0     H 5542   5.248   4.192   4.169 -1.3689 -1.2070 -1.2390
  782MOL0     H 5543   5.130   4.085   4.225  1.4504 -1.2430 -2.6355
  782MOL0     H 5544   5.387   4.154   4.374 -0.1319 -1.4440 -0.8848
  782MOL0     H 5545   5.239   4.074   4.444 -0.3634  3.3870  0.5178
  782MOL0     H 5546   5.407   3.984   4.184 -1.6138 -1.3453 -0.8465
  782MOL0     H 5547   5.249   3.924   4.237 -1.0479  1.7340 -0.7961
  782MOL0     H 5548   5.497   3.888   4.385 -0.3566  2.1711 -0.1589
  782MOL0     H 5549   5.337   3.822   4.432  3.6592  0.6204  3.4956
  782MOL0     H 5550   4.575   4.132   4.278  1.4455 -0.5062 -0.1527
  782MOL0     H 5551   4.372   4.081   4.148  0.7071 -0.5241  1.2026
  782MOL0     H 5552   3.897   4.030   4.047 -0.3495 -0.5623  0.3947
  782MOL0     H 5553   3.699   4.043   3.932 -2.9620  2.0691 -0.8678
  782MOL0     H 5554   4.241   5.464   3.298 -0.2642 -1.5179 -0.8224
  782MOL0     H 5555   4.465   5.568   3.305 -4.3582  1.0409 -0.7094
  782MOL0     H 5556   4.743   5.730   2.897 -1.1035 -0.8453 -0.3419
  782MOL0     H 5557   4.935   5.910   2.903 -4.1111  1.2353  0.3519
  782MOL0     H 5558   5.257   5.882   3.216 -0.9662  1.0882  0.2477
  782MOL0     H 5559   5.291   6.021   3.117  2.4564 -0.8875 -0.3933
  782MOL0     H 5560   5.297   5.905   2.915 -2.0296 -0.1233 -0.2803
  782MOL0     H 5561   5.277   5.747   2.988 -1.8427  1.3687 -0.4520
  782MOL0     H 5562   5.508   5.793   3.102 -0.2204  3.2926  2.2927
  782MOL0     H 5563   5.519   5.949   3.017  2.0738 -1.3439 -0.3846
  782MOL0     H 5564   5.505   5.689   2.870 -2.1563  0.8797  1.7411
  782MOL0     H 5565   5.503   5.855   2.802 -0.1151 -0.8678 -1.2216
  782MOL0     H 5566   5.901   5.759   2.911 -0.6082 -0.4903  1.6065
  782MOL0     H 5567   5.119   5.701   3.215 -0.5230  1.7808  1.1844
  782MOL0     H 5568   4.888   5.526   3.351 -2.8443 -1.1826 -0.1009
  782MOL0     H 5569   4.927   5.411   3.211  1.8033  1.5182 -1.7246
  782MOL0     H 5570   5.051   5.491   3.291 -1.5296 -3.5842  2.9153
  783MOL0     O 5571   2.461   1.132   0.017 -0.3989 -0.3782 -0.9026
  783MOL0     C 5572   2.418   1.015   0.026  0.5807 -0.5800  1.1760
  783MOL0     O 5573   2.486   0.898   0.058 -0.0961 -0.6658  0.6140
  783MOL0     C 5574   2.615   0.895   0.115 -0.3828  0.4945 -0.4385
  783MOL0     C 5575   2.698   0.784   0.092  0.1086 -0.6030 -0.7201
  783MOL0     C 5576   2.821   0.777   0.158 -0.0224 -0.0509 -0.4140
  783MOL0     C 5577   2.868   0.887   0.233 -1.1378  0.3759 -0.2854
  783MOL0     O 5578   3.001   0.884   0.273 -0.4555  0.4342  0.9239
  783MOL0     C 5579   3.080   1.004   0.258 -0.2570  0.7569  0.8727
  783MOL0     C 5580   3.125   1.075   0.383  0.7626 -0.4563  0.7475
  783MOL0     C 5581   3.230   1.173   0.359  0.2462 -0.6705  0.2807
  783MOL0     C 5582   3.296   1.231   0.483 -0.5639  0.6175 -0.3852
  783MOL0     C 5583   3.410   1.322   0.438  0.3915 -0.1943 -0.5921
  783MOL0     C 5584   3.523   1.357   0.545  0.0420 -0.7208  0.1832
  783MOL0     C 5585   3.649   1.424   0.481 -1.1688  0.1001  0.5923
  783MOL0     C 5586   3.623   1.561   0.422 -0.5524 -0.1421 -0.3638
  783MOL0     N 5587   3.748   1.632   0.408 -0.3740  0.3063  0.7286
  783MOL0     C 5588   3.808   1.699   0.508 -0.3633 -0.5824 -0.0633
  783MOL0     C 5589   3.920   1.754   0.458 -0.6530  0.2210  0.2443
  783MOL0     C 5590   4.025   1.838   0.525  0.0965 -0.1373  0.2500
  783MOL0     C 5591   4.134   1.748   0.586  0.3472  0.1863  0.4779
  783MOL0     C 5592   4.254   1.847   0.620  0.5693 -0.1212  0.3389
  783MOL0     C 5593   4.366   1.773   0.692  0.1405 -0.0014  0.3081
  783MOL0     O 5594   4.406   1.839   0.811 -0.5091  0.0992  0.0664
  783MOL0     C 5595   4.524   1.917   0.821  1.5132  0.5926 -0.2730
  783MOL0     C 5596   4.582   1.973   0.707 -0.2602 -1.2925 -0.2266
  783MOL0     C 5597   4.694   2.053   0.720 -0.4752 -1.0220 -0.2704
  783MOL0     C 5598   4.725   2.112   0.842 -0.2081  0.6260 -0.7819
  783MOL0     C 5599   4.836   2.211   0.861 -0.4748 -0.4988  0.0117
  783MOL0     O 5600   4.929   2.212   0.758  0.6578 -0.0866 -0.5949
  783MOL0     C 5601   5.019   2.313   0.752 -0.1671  0.4621 -0.0444
  783MOL0     C 5602   5.152   2.268   0.746 -0.2609 -0.3981 -0.2181
  783MOL0     C 5603   5.256   2.369   0.748  0.4190  0.3631 -0.6557
  783MOL0     C 5604   5.219   2.508   0.753  0.6637 -0.5883  0.3112
  783MOL0     O 5605   5.300   2.619   0.752  0.2379  0.4451 -0.1179
  783MOL0     C 5606   5.435   2.609   0.703 -0.1418 -0.3959 -1.0618
  783MOL0     C 5607   5.475   2.754   0.692 -0.9552 -0.4861  0.5084
  783MOL0     C 5608   5.633   2.750   0.664  0.3216  0.4475 -0.1447
  783MOL0     C 5609   5.683   2.883   0.596  0.5881  0.4219 -0.0585
  783MOL0     C 5610   5.789   2.870   0.485 -0.0188  0.0952  0.2553
  783MOL0     C 5611   5.851   2.999   0.433  0.2642 -0.5247  0.0617
  783MOL0     C 5612   5.744   3.114   0.411  0.1049  0.9875  0.3783
  783MOL0     C 5613   5.810   3.250   0.383 -0.1874  1.0284  0.9818
  783MOL0    Cl 5614   5.843   3.260   0.205  0.4351 -0.2732 -0.1164
  783MOL0     C 5615   5.085   2.546   0.772  0.7851  0.4008 -0.0013
  783MOL0     C 5616   4.981   2.454   0.757 -0.1935  0.9631  0.5634
  783MOL0     O 5617   4.842   2.282   0.957  0.4037 -0.2027  0.1485
  783MOL0     C 5618   4.652   2.067   0.951 -0.2581  0.1837 -0.4535
  783MOL0     C 5619   4.556   1.972   0.946  0.3735 -0.7839  0.7636
  783MOL0     N 5620   3.918   1.718   0.323 -0.5124 -0.0253 -0.0199
  783MOL0     N 5621   3.819   1.642   0.289  0.4142  0.6552 -1.0151
  783MOL0     C 5622   2.785   0.995   0.255  0.4581 -0.4131  0.1938
  783MOL0     C 5623   2.657   1.002   0.199  0.4135 -0.2124 -0.2709
  783MOL0     C 5624   2.271   0.998  -0.008 -0.8594 -0.0795  1.0184
  783MOL0     C 5625   2.236   0.871  -0.064  0.9847  0.1305 -0.7054
  783MOL0     C 5626   2.105   0.848  -0.095 -0.0901 -0.2902 -0.3042
  783MOL0     C 5627   2.005   0.947  -0.090  0.5825 -0.0317  0.4996
  783MOL0     O 5628   1.878   0.915  -0.123  0.3287  0.1390  0.2320
  783MOL0     C 5629   1.837   0.988  -0.237  0.0290  0.3748 -0.8329
  783MOL0     C 5630   1.690   0.977  -0.218 -0.6879  0.8754 -0.4032
  783MOL0     C 5631   1.606   1.045  -0.321  0.3843  0.4123 -1.2196
  783MOL0     C 5632   1.461   0.977  -0.317  0.3113  0.2482  0.4647
  783MOL0     C 5633   1.361   1.054  -0.395 -1.2434  0.1154  0.1022
  783MOL0     C 5634   1.277   1.118  -0.453 -0.0089  0.2621  0.7789
  783MOL0     C 5635   2.036   1.066  -0.035 -1.1045 -0.6118  0.2803
  783MOL0     C 5636   2.172   1.095   0.008 -0.4621 -0.5523  0.4676
  783MOL0     C 5637   2.198   1.226   0.075 -0.9155 -0.0135 -0.1471
  783MOL0     H 5638   2.675   0.697   0.031  1.3614 -0.1639 -1.8873
  783MOL0     H 5639   2.889   0.693   0.168 -0.2311 -0.0861  0.9685
  783MOL0     H 5640   3.166   0.981   0.195 -1.9607  2.8087 -2.4799
  783MOL0     H 5641   3.025   1.077   0.198  2.9735  2.8047  0.1823
  783MOL0     H 5642   3.160   0.987   0.437 -0.8211 -1.4832  0.1553
  783MOL0     H 5643   3.041   1.113   0.442  1.0960  1.2409  0.1822
  783MOL0     H 5644   3.189   1.266   0.318 -0.5931 -1.0793  0.1663
  783MOL0     H 5645   3.301   1.120   0.295 -1.5759 -3.5754  0.4454
  783MOL0     H 5646   3.229   1.277   0.557  0.2548  2.1772 -0.5672
  783MOL0     H 5647   3.354   1.150   0.529 -2.0836  0.2035  0.9109
  783MOL0     H 5648   3.455   1.280   0.348  1.5043  1.5906 -0.9108
  783MOL0     H 5649   3.358   1.416   0.420 -3.4634 -1.7130  1.2495
  783MOL0     H 5650   3.482   1.414   0.628  0.1822 -0.9834  0.4348
  783MOL0     H 5651   3.560   1.259   0.577  0.2673 -1.3104 -1.7195
  783MOL0     H 5652   3.697   1.363   0.403 -0.1283  3.8081 -1.9252
  783MOL0     H 5653   3.724   1.441   0.558  1.4855  0.4822 -1.8908
  783MOL0     H 5654   3.582   1.535   0.324 -1.6975 -0.8362  0.2828
  783MOL0     H 5655   3.561   1.620   0.491 -2.2512  3.4388 -4.5010
  783MOL0     H 5656   3.779   1.713   0.612  1.6141  1.4704  0.2985
  783MOL0     H 5657   4.066   1.899   0.444 -2.0632  0.1019 -0.7306
  783MOL0     H 5658   3.983   1.899   0.606  0.4940 -0.5838  0.8008
  783MOL0     H 5659   4.099   1.696   0.676 -2.0707 -2.2042 -1.6712
  783MOL0     H 5660   4.157   1.673   0.510  1.0310 -0.0374  0.8974
  783MOL0     H 5661   4.216   1.923   0.689 -0.2443 -2.5642  2.7890
  783MOL0     H 5662   4.293   1.885   0.525  1.7742 -3.0897 -0.4752
  783MOL0     H 5663   4.455   1.748   0.634 -0.1029  0.4883 -0.2919
  783MOL0     H 5664   4.326   1.678   0.728  2.5505 -1.8122 -1.5314
  783MOL0     H 5665   4.534   1.940   0.615 -2.0337 -0.1589  0.2330
  783MOL0     H 5666   4.755   2.070   0.633  0.1820  2.3385  0.7081
  783MOL0     H 5667   5.177   2.162   0.736  0.8025 -0.0487 -1.4998
  783MOL0     H 5668   5.354   2.339   0.713  0.8019  2.5702 -1.6440
  783MOL0     H 5669   5.505   2.558   0.770  1.5028  0.8281 -1.7848
  783MOL0     H 5670   5.444   2.571   0.601 -1.1922  3.6546 -2.8664
  783MOL0     H 5671   5.421   2.783   0.601 -1.3153 -1.4641  0.3979
  783MOL0     H 5672   5.434   2.820   0.770 -3.9037 -1.4260 -0.0957
  783MOL0     H 5673   5.695   2.722   0.750  1.7356  1.0358 -0.9262
  783MOL0     H 5674   5.654   2.670   0.592  2.7654  3.6875 -3.4264
  783MOL0     H 5675   5.716   2.946   0.679 -0.5091 -1.4735  1.9297
  783MOL0     H 5676   5.587   2.908   0.551 -1.1194 -4.3846  0.2535
  783MOL0     H 5677   5.750   2.822   0.395 -1.0087  1.4493 -0.0730
  783MOL0     H 5678   5.872   2.809   0.524  0.1427  0.6105  0.7338
  783MOL0     H 5679   5.916   3.041   0.510 -1.5902 -0.3436  1.6220
  783MOL0     H 5680   5.908   2.977   0.343 -4.3506 -1.7540 -2.8842
  783MOL0     H 5681   5.699   3.122   0.511 -2.8445 -3.0878 -0.3765
  783MOL0     H 5682   5.665   3.091   0.339  1.2766  1.4046 -1.0990
  783MOL0     H 5683   5.736   3.328   0.402  1.0417  2.1953  1.0638
  783MOL0     H 5684   5.897   3.259   0.448  0.4178 -1.7959  0.7019
  783MOL0     H 5685   5.052   2.649   0.768 -2.0078 -0.4093  0.4834
  783MOL0     H 5686   4.878   2.484   0.768 -0.3626 -0.1002  2.2506
  783MOL0     H 5687   4.688   2.122   1.037  0.0043  1.6920 -1.4923
  783MOL0     H 5688   4.497   1.942   1.032  0.6520  1.0104  1.6138
  783MOL0     H 5689   2.837   1.074   0.308  2.1097 -0.3494 -1.4061
  783MOL0     H 5690   2.587   1.084   0.215 -0.2631 -0.1113 -3.1809
  783MOL0     H 5691   2.318   0.803  -0.087  3.5291  3.5298 -2.6152
  783MOL0     H 5692   2.072   0.756  -0.141 -1.2057 -0.1604  0.1896
  783MOL0     H 5693   1.862   0.938  -0.331 -1.9685 -1.5946 -0.4132
  783MOL0     H 5694   1.866   1.093  -0.232  0.0679  0.3448 -0.3674
  783MOL0     H 5695   1.664   1.022  -0.121  0.1257  0.3357  0.0793
  783MOL0     H 5696   1.655   0.874  -0.214 -2.0478  1.3312  1.0627
  783MOL0     H 5697   1.657   1.033  -0.417  4.8343 -1.2701  1.0566
  783MOL0     H 5698   1.592   1.150  -0.293 -2.6000 -0.6135  1.7720
  783MOL0     H 5699   1.457   0.877  -0.362 -1.3461  0.8148 -0.7692
  783MOL0     H 5700   1.430   0.967  -0.213 -4.8262 -0.2552 -0.8338
  783MOL0     H 5701   1.226   1.180  -0.524  1.2401  2.3040  1.5827
  783MOL0     H 5702   1.963   1.145  -0.024  1.0552  1.5515 -0.0449
  783MOL0     H 5703   2.277   1.209   0.149  0.4976  1.7069 -1.1698
  783MOL0     H 5704   2.243   1.299   0.006  0.8477  1.4175  2.3359
  783MOL0     H 5705   2.116   1.274   0.130 -2.0544  0.3795 -2.0688
  784MOL0     O 5706   6.678  11.030   8.890 -0.6458  0.0206  0.4173
  784MOL0     C 5707   6.562  11.013   8.879  0.0941  0.3450  0.2533
  784MOL0     O 5708   6.465  11.047   8.974  0.3218  0.1568  0.1808
  784MOL0     C 5709   6.475  11.118   9.091 -0.9326 -0.5200  1.0716
  784MOL0     C 5710   6.359  11.171   9.140  0.2505  0.4140  0.5893
  784MOL0     C 5711   6.367  11.240   9.259  0.8239 -1.0923 -0.2700
  784MOL0     C 5712   6.491  11.262   9.327 -0.7795  0.1344  0.1342
  784MOL0     O 5713   6.482  11.325   9.452  0.7304 -0.4962  1.1871
  784MOL0     C 5714   6.514  11.247   9.566  0.3737  0.1453  0.3277
  784MOL0     C 5715   6.586  11.340   9.662  0.1710  0.0755 -0.0972
  784MOL0     C 5716   6.603  11.268   9.805 -0.2794 -0.2436 -0.0274
  784MOL0     C 5717   6.678  11.353   9.908 -0.2134 -0.5919  0.6229
  784MOL0     C 5718   6.584  11.473   9.957  0.2705 -1.0316  0.6638
  784MOL0     C 5719   6.657  11.576  10.047  0.7863  0.4758 -0.3188
  784MOL0     C 5720   6.781  11.638   9.973  0.7572 -0.8732  0.8144
  784MOL0     C 5721   6.754  11.705   9.832  0.1222 -0.2119 -0.8393
  784MOL0     N 5722   6.857  11.807   9.801  0.5974  0.2700  0.0631
  784MOL0     C 5723   6.926  11.823   9.684  0.8409 -0.0074 -0.2235
  784MOL0     C 5724   6.995  11.937   9.700 -0.1143 -0.5825 -0.1708
  784MOL0     C 5725   7.091  11.990   9.593  0.3222  0.9890 -0.6063
  784MOL0     C 5726   7.021  12.089   9.499  0.8875  0.3611 -0.1038
  784MOL0     C 5727   6.897  12.045   9.407 -1.2408  0.0093  0.3031
  784MOL0     C 5728   6.855  12.168   9.320 -0.7542  0.4768  0.1126
  784MOL0     O 5729   6.744  12.139   9.224 -0.6280  0.5987  0.0528
  784MOL0     C 5730   6.618  12.115   9.268  0.7129 -0.2742 -0.1994
  784MOL0     C 5731   6.526  12.073   9.173  0.6694 -0.3191 -1.1284
  784MOL0     C 5732   6.395  12.052   9.212 -0.2627  0.4533  0.2093
  784MOL0     C 5733   6.356  12.077   9.348 -0.0530 -0.4677  0.5533
  784MOL0     C 5734   6.215  12.060   9.401 -1.2536 -0.3554  0.5348
  784MOL0     O 5735   6.126  12.000   9.324  0.1307  0.1452  0.3070
  784MOL0     C 5736   5.988  11.980   9.352 -0.5741  0.5664 -0.4657
  784MOL0     C 5737   5.920  12.009   9.469 -0.6493  0.2082 -0.5729
  784MOL0     C 5738   5.771  11.993   9.472 -1.0357 -1.3146 -0.1339
  784MOL0     C 5739   5.704  11.940   9.357 -0.5780 -0.2311  0.7878
  784MOL0     O 5740   5.572  11.931   9.344 -0.4916  0.7418  0.2325
  784MOL0     C 5741   5.502  11.844   9.437 -0.4226 -0.4099 -0.3202
  784MOL0     C 5742   5.354  11.871   9.455 -0.4027 -0.2173  0.8791
  784MOL0     C 5743   5.271  11.833   9.327  0.2431  0.5405  0.2483
  784MOL0     C 5744   5.130  11.883   9.354  0.9703 -0.3334  0.5492
  784MOL0     C 5745   5.113  12.037   9.371 -0.3978 -0.1396 -0.0091
  784MOL0     C 5746   4.997  12.095   9.295  0.0910 -0.2317 -0.2730
  784MOL0     C 5747   4.860  12.065   9.353  0.3007 -0.0092  0.1835
  784MOL0     C 5748   4.745  12.147   9.285  0.2428  0.1696 -0.6328
  784MOL0    Cl 5749   4.764  12.134   9.109 -0.1864 -0.1876 -0.0079
  784MOL0     C 5750   5.777  11.910   9.244  0.9475  0.4262 -0.7873
  784MOL0     C 5751   5.919  11.928   9.243  1.1647 -0.7336 -0.4192
  784MOL0     O 5752   6.197  12.109   9.510  0.0860  0.1070  0.4246
  784MOL0     C 5753   6.453  12.120   9.443  0.1087  0.1953  1.0063
  784MOL0     C 5754   6.581  12.143   9.406 -0.2973  0.0600  0.9317
  784MOL0     N 5755   6.961  11.997   9.825  0.0758  0.1800 -0.6817
  784MOL0     N 5756   6.877  11.912   9.887 -0.1574  0.3285  0.0351
  784MOL0     C 5757   6.617  11.219   9.278 -0.7028 -0.6820  0.5592
  784MOL0     C 5758   6.604  11.148   9.155  0.2339 -0.2644  0.2014
  784MOL0     C 5759   6.517  10.955   8.744  0.4395  0.4366  0.5843
  784MOL0     C 5760   6.610  10.964   8.639  0.0710 -0.3611  0.5491
  784MOL0     C 5761   6.579  10.930   8.507  0.5003  0.1108 -0.2328
  784MOL0     C 5762   6.450  10.893   8.470 -0.4649  0.1388  0.3609
  784MOL0     O 5763   6.420  10.867   8.335  0.3801 -0.2643 -0.1944
  784MOL0     C 5764   6.346  10.740   8.329 -0.1642 -0.5130  0.5352
  784MOL0     C 5765   6.446  10.627   8.290  0.9741 -0.4734  0.4464
  784MOL0     C 5766   6.378  10.492   8.248 -0.0027 -0.9924  0.6560
  784MOL0     C 5767   6.305  10.490   8.112  0.1926 -0.3567 -0.7373
  784MOL0     C 5768   6.402  10.502   7.999 -0.8135  0.6083 -0.4932
  784MOL0     C 5769   6.474  10.518   7.902 -0.2186 -0.4834  0.6950
  784MOL0     C 5770   6.356  10.886   8.571  0.1484  0.7078 -0.1362
  784MOL0     C 5771   6.385  10.919   8.707 -0.7910  0.6586  0.1345
  784MOL0     C 5772   6.271  10.918   8.804 -0.0946 -0.0486 -0.1895
  784MOL0     H 5773   6.266  11.157   9.086  0.2637 -1.0518  0.8947
  784MOL0     H 5774   6.277  11.284   9.300 -0.5359 -2.8599 -1.2250
  784MOL0     H 5775   6.424  11.209   9.615  0.2168  1.6778  1.3097
  784MOL0     H 5776   6.570  11.161   9.530 -0.3516  0.7589 -2.5247
  784MOL0     H 5777   6.524  11.429   9.672 -1.7569 -1.2326  0.1554
  784MOL0     H 5778   6.686  11.371   9.628 -0.5080  2.9901  0.3416
  784MOL0     H 5779   6.676  11.189   9.785  1.0023 -0.4523  4.3887
  784MOL0     H 5780   6.514  11.218   9.846 -0.3768  0.6392  0.8713
  784MOL0     H 5781   6.698  11.286   9.992  0.3916 -1.6427 -0.3243
  784MOL0     H 5782   6.768  11.386   9.856  0.7519 -1.5066  1.6742
  784MOL0     H 5783   6.534  11.515   9.868  1.4027  0.5094  0.7042
  784MOL0     H 5784   6.500  11.434  10.015  1.4285 -0.2481  2.9924
  784MOL0     H 5785   6.581  11.653  10.063 -0.1566 -1.0872  4.1038
  784MOL0     H 5786   6.666  11.527  10.144 -0.3607 -1.1404 -0.9732
  784MOL0     H 5787   6.862  11.569   9.949  1.9659  0.7455  0.0600
  784MOL0     H 5788   6.827  11.712  10.040  0.2720 -0.4899  0.7348
  784MOL0     H 5789   6.755  11.618   9.766 -0.1928 -0.4194 -0.5774
  784MOL0     H 5790   6.651  11.744   9.834  0.9446  2.3116 -2.6355
  784MOL0     H 5791   6.909  11.766   9.594  2.6152 -1.6280  0.3949
  784MOL0     H 5792   7.180  12.032   9.640  1.3098 -1.5059 -0.0895
  784MOL0     H 5793   7.123  11.899   9.541  1.4869  0.1468  1.4530
  784MOL0     H 5794   6.979  12.163   9.568 -0.8966 -0.7641  0.0789
  784MOL0     H 5795   7.098  12.138   9.438 -1.1555 -0.8570 -3.9634
  784MOL0     H 5796   6.813  11.997   9.458 -3.4029  2.4681 -0.6878
  784MOL0     H 5797   6.931  11.971   9.334 -3.3907  0.7322 -1.5665
  784MOL0     H 5798   6.942  12.201   9.263  0.2323 -0.2004  1.1751
  784MOL0     H 5799   6.826  12.253   9.382 -1.5981  0.1784  0.1424
  784MOL0     H 5800   6.565  12.037   9.078  3.1957  0.3854 -0.4391
  784MOL0     H 5801   6.335  12.022   9.126 -1.4178  1.2503  0.7118
  784MOL0     H 5802   5.973  12.036   9.560  1.4865 -0.8749 -1.4442
  784MOL0     H 5803   5.715  12.034   9.555 -1.6006 -0.4203 -0.9308
  784MOL0     H 5804   5.518  11.741   9.406  0.9370 -0.6882  1.1717
  784MOL0     H 5805   5.558  11.858   9.530  1.4031 -0.9521 -1.2810
  784MOL0     H 5806   5.313  11.817   9.540 -1.1974 -2.4572 -0.8345
  784MOL0     H 5807   5.349  11.979   9.475  0.9179 -0.4775  2.8714
  784MOL0     H 5808   5.303  11.879   9.233  1.5461 -3.2419 -1.3592
  784MOL0     H 5809   5.270  11.724   9.327 -1.9638  0.4696  2.8200
  784MOL0     H 5810   5.090  11.838   9.445 -0.3059  0.4764  0.4243
  784MOL0     H 5811   5.064  11.855   9.271  2.1892 -0.5739 -0.3589
  784MOL0     H 5812   5.204  12.077   9.324  2.0585 -3.2747  1.6757
  784MOL0     H 5813   5.116  12.074   9.474  2.0854  3.7299 -1.2160
  784MOL0     H 5814   5.009  12.203   9.309 -1.9939 -0.0052  0.1095
  784MOL0     H 5815   5.000  12.067   9.189  1.1001 -0.7086 -0.1303
  784MOL0     H 5816   4.861  12.079   9.461  0.9666 -0.3184  0.2206
  784MOL0     H 5817   4.837  11.960   9.333 -1.1390  0.3236 -0.0548
  784MOL0     H 5818   4.647  12.109   9.314  0.3237  1.9415  2.3644
  784MOL0     H 5819   4.755  12.250   9.319  0.0954  0.4973 -1.5412
  784MOL0     H 5820   5.715  11.869   9.165 -0.4022  1.2843 -0.2107
  784MOL0     H 5821   5.969  11.915   9.148  1.5468 -1.5180 -0.1147
  784MOL0     H 5822   6.433  12.141   9.547  1.7987  0.4943  1.3029
  784MOL0     H 5823   6.661  12.178   9.471  0.3351 -0.6378  0.5388
  784MOL0     H 5824   6.713  11.248   9.319 -0.7824  0.6831 -0.1615
  784MOL0     H 5825   6.695  11.115   9.107  0.2584 -1.3449  0.9551
  784MOL0     H 5826   6.714  10.993   8.651 -0.5480  1.0487  3.1853
  784MOL0     H 5827   6.657  10.925   8.432  3.2614 -1.4697  2.5009
  784MOL0     H 5828   6.275  10.757   8.248  2.1859  0.8889 -1.3467
  784MOL0     H 5829   6.291  10.712   8.420 -2.0587  0.1607 -0.3385
  784MOL0     H 5830   6.509  10.602   8.376 -1.3181 -0.9651  2.0594
  784MOL0     H 5831   6.511  10.666   8.210  1.2454 -2.4215 -0.3298
  784MOL0     H 5832   6.315  10.449   8.327 -0.9950 -1.5370 -0.3965
  784MOL0     H 5833   6.464  10.425   8.241 -1.1212 -2.3535 -0.7982
  784MOL0     H 5834   6.250  10.396   8.102 -1.9494  0.2411  3.3183
  784MOL0     H 5835   6.232  10.572   8.107  0.5878  0.0614  0.2474
  784MOL0     H 5836   6.550  10.520   7.827  0.7580 -0.8882  1.6327
  784MOL0     H 5837   6.256  10.864   8.539  0.6136 -0.7565 -0.6256
  784MOL0     H 5838   6.293  10.835   8.872 -1.8011 -0.1146  0.3390
  784MOL0     H 5839   6.266  11.019   8.844  0.1136  0.2739 -0.9588
  784MOL0     H 5840   6.178  10.892   8.751 -0.0920 -1.6237  0.5150
  785MOL0     O 5841  10.786   9.165   0.843 -0.0365 -0.5441  0.0776
  785MOL0     C 5842  10.673   9.145   0.814 -0.0388 -0.4714  1.1348
  785MOL0     O 5843  10.628   9.066   0.712  0.5464 -0.4027  0.1142
  785MOL0     C 5844  10.721   8.991   0.649  1.0330  0.3330 -0.6644
  785MOL0     C 5845  10.797   8.900   0.722  0.6698 -0.5816 -0.7567
  785MOL0     C 5846  10.894   8.830   0.646 -0.0617 -0.7133 -0.3299
  785MOL0     C 5847  10.891   8.825   0.500  0.4055 -0.8019 -0.0364
  785MOL0     O 5848  10.960   8.727   0.431  0.2892  0.2884  0.2027
  785MOL0     C 5849  11.033   8.622   0.499 -0.4872  0.0746  0.4551
  785MOL0     C 5850  11.184   8.665   0.521 -0.2945 -0.8042 -0.7056
  785MOL0     C 5851  11.236   8.728   0.389 -0.9707  0.3374  0.4808
  785MOL0     C 5852  11.385   8.778   0.407  0.7728 -0.1051  0.2442
  785MOL0     C 5853  11.451   8.829   0.286 -0.0634  1.3159 -0.8142
  785MOL0     C 5854  11.393   8.949   0.220 -0.0858 -0.3717  0.4370
  785MOL0     C 5855  11.433   9.076   0.290 -0.2622 -0.2136  0.1616
  785MOL0     C 5856  11.397   9.192   0.194  0.4249  0.1899 -0.0998
  785MOL0     N 5857  11.303   9.291   0.264  0.5072 -0.2298  0.8498
  785MOL0     C 5858  11.172   9.253   0.294  0.7166  0.3680  0.7765
  785MOL0     C 5859  11.108   9.371   0.341  0.2944  0.3114 -0.5593
  785MOL0     C 5860  10.971   9.383   0.393 -0.0751 -0.5239 -0.6756
  785MOL0     C 5861  10.970   9.359   0.544 -0.1931  0.4553 -0.8625
  785MOL0     C 5862  11.009   9.476   0.630  0.7084 -0.6280  0.2245
  785MOL0     C 5863  10.977   9.432   0.777  0.0471  0.3977  0.3154
  785MOL0     O 5864  11.062   9.490   0.877  0.0053 -0.3536  0.2709
  785MOL0     C 5865  11.000   9.555   0.976  0.0668 -0.1061  0.6908
  785MOL0     C 5866  10.937   9.486   1.083  0.1801 -0.3448 -0.1450
  785MOL0     C 5867  10.860   9.563   1.177 -0.0206 -0.0436  0.0048
  785MOL0     C 5868  10.856   9.705   1.162  0.5015 -0.6695  0.1463
  785MOL0     C 5869  10.767   9.792   1.257  0.2557  1.1121  0.4371
  785MOL0     O 5870  10.707   9.730   1.370 -0.5501  0.8551 -0.0473
  785MOL0     C 5871  10.628   9.799   1.446  0.1776 -0.3159 -0.5179
  785MOL0     C 5872  10.649   9.798   1.581 -0.4674 -0.3891 -0.3070
  785MOL0     C 5873  10.555   9.870   1.665  0.4699  0.0465  0.0226
  785MOL0     C 5874  10.444   9.940   1.605 -0.3956 -0.1543 -0.0671
  785MOL0     O 5875  10.356  10.021   1.678  0.0675 -0.3172 -0.6145
  785MOL0     C 5876  10.411  10.071   1.805 -0.7836 -0.2529 -0.5990
  785MOL0     C 5877  10.346  10.219   1.820  1.0670  0.4044 -0.8437
  785MOL0     C 5878  10.198  10.210   1.849 -0.2421 -0.2878 -0.4774
  785MOL0     C 5879  10.163  10.163   1.986  0.2172 -0.2975  0.5567
  785MOL0     C 5880  10.017  10.139   2.001  0.3411 -0.5277 -0.6491
  785MOL0     C 5881   9.984  10.122   2.143 -0.9371  0.0035 -0.7512
  785MOL0     C 5882   9.838  10.089   2.157  0.1582  0.3658 -0.6299
  785MOL0     C 5883   9.804  10.084   2.309 -0.0730 -0.8197  0.3424
  785MOL0    Cl 5884   9.631  10.074   2.337  0.2661  0.0071  0.4665
  785MOL0     C 5885  10.418   9.929   1.473 -0.1192  0.2837  0.5735
  785MOL0     C 5886  10.511   9.846   1.393 -0.0983 -0.5450  0.1253
  785MOL0     O 5887  10.743   9.898   1.208  0.4340 -0.6113  0.5559
  785MOL0     C 5888  10.921   9.772   1.057 -0.2544  0.5119 -0.2925
  785MOL0     C 5889  10.998   9.692   0.970 -0.1695  0.1376  0.7682
  785MOL0     N 5890  11.197   9.475   0.314  0.0396  0.3927  0.6707
  785MOL0     N 5891  11.318   9.422   0.285  0.9913 -0.8179  0.7230
  785MOL0     C 5892  10.806   8.898   0.437  0.4339  0.4700 -0.6163
  785MOL0     C 5893  10.717   8.979   0.508 -0.0831 -0.7986  0.0677
  785MOL0     C 5894  10.575   9.219   0.901  0.6113 -0.7456  0.7641
  785MOL0     C 5895  10.626   9.327   0.976  0.1744 -0.8414 -0.2428
  785MOL0     C 5896  10.543   9.388   1.070  0.3153  0.6168  0.7902
  785MOL0     C 5897  10.408   9.356   1.078 -0.2534  0.0666  0.0776
  785MOL0     O 5898  10.334   9.413   1.176 -0.0026  0.3163  0.1143
  785MOL0     C 5899  10.317   9.563   1.180 -0.6318 -0.1069 -0.0443
  785MOL0     C 5900  10.246   9.617   1.058  0.6397 -0.6610  0.3863
  785MOL0     C 5901  10.110   9.553   1.014  1.4429  0.2831 -0.6091
  785MOL0     C 5902  10.066   9.577   0.874  0.1848  0.5157  0.3775
  785MOL0     C 5903   9.922   9.582   0.858 -0.3909  0.7546 -0.2408
  785MOL0     C 5904   9.804   9.592   0.833 -0.3307  0.8656 -0.1233
  785MOL0     C 5905  10.359   9.255   0.998 -0.0202 -0.7174  0.0181
  785MOL0     C 5906  10.439   9.175   0.910 -0.0176 -0.0939  0.7726
  785MOL0     C 5907  10.372   9.052   0.840 -0.1110 -0.2873  0.3675
  785MOL0     H 5908  10.805   8.904   0.830  0.1306  5.0357 -0.5965
  785MOL0     H 5909  10.966   8.764   0.693 -1.5269 -2.7536 -0.7678
  785MOL0     H 5910  10.990   8.592   0.595 -1.4959  0.7925  0.2519
  785MOL0     H 5911  11.035   8.530   0.440  1.4929 -1.1109  2.2189
  785MOL0     H 5912  11.231   8.569   0.543  0.7997 -0.2516 -0.5848
  785MOL0     H 5913  11.191   8.731   0.608 -0.0622 -0.5917 -0.8836
  785MOL0     H 5914  11.171   8.807   0.348 -3.8000 -0.9653  2.1449
  785MOL0     H 5915  11.235   8.645   0.318  0.4828 -0.8639  1.8002
  785MOL0     H 5916  11.384   8.855   0.484 -0.0250  0.1267  0.0132
  785MOL0     H 5917  11.439   8.692   0.448  1.4115  0.6994  1.1152
  785MOL0     H 5918  11.558   8.843   0.307 -0.4057  1.5093  0.9798
  785MOL0     H 5919  11.438   8.755   0.207  3.1603 -1.5713  1.0625
  785MOL0     H 5920  11.419   8.945   0.113 -1.7871 -0.7921  0.0038
  785MOL0     H 5921  11.284   8.938   0.224 -0.1252  0.3072  2.4414
  785MOL0     H 5922  11.542   9.078   0.302 -0.3662  2.4334  1.3820
  785MOL0     H 5923  11.370   9.083   0.379 -1.1468 -1.8128 -0.3024
  785MOL0     H 5924  11.495   9.236   0.172  0.6384  0.2251  0.8851
  785MOL0     H 5925  11.353   9.156   0.101 -0.7373 -2.0982  1.2615
  785MOL0     H 5926  11.127   9.154   0.292  0.1104  0.6406  0.7801
  785MOL0     H 5927  10.939   9.486   0.372 -1.3544 -0.3054  1.9288
  785MOL0     H 5928  10.884   9.337   0.345 -2.2710  1.1141  1.4180
  785MOL0     H 5929  10.862   9.343   0.553 -0.2238  1.1390  0.2087
  785MOL0     H 5930  11.024   9.268   0.570 -2.7776 -1.1386 -0.7450
  785MOL0     H 5931  10.958   9.571   0.610  0.9960 -0.8545 -1.8230
  785MOL0     H 5932  11.113   9.503   0.611  0.0967  0.6620 -1.6044
  785MOL0     H 5933  10.996   9.325   0.786  0.8397  0.5564  0.6080
  785MOL0     H 5934  10.873   9.449   0.807 -0.1810 -0.4174 -0.0003
  785MOL0     H 5935  10.950   9.379   1.094  0.6685 -0.4272 -1.3264
  785MOL0     H 5936  10.792   9.519   1.249  0.0579 -1.6569 -0.8667
  785MOL0     H 5937  10.736   9.739   1.608 -0.3631 -1.9738 -3.5869
  785MOL0     H 5938  10.573   9.877   1.771  1.1592 -1.6015  0.0406
  785MOL0     H 5939  10.397  10.010   1.894 -1.1152 -0.7451 -0.9784
  785MOL0     H 5940  10.518  10.095   1.799 -0.9853  1.2729  1.1747
  785MOL0     H 5941  10.397  10.288   1.888  1.5358 -0.3785 -0.3821
  785MOL0     H 5942  10.367  10.264   1.723 -0.5768  0.4266 -1.2138
  785MOL0     H 5943  10.158  10.311   1.843  0.8953  0.2989  0.9846
  785MOL0     H 5944  10.146  10.151   1.773 -1.8863 -0.0914  0.4632
  785MOL0     H 5945  10.201  10.240   2.055 -0.8327 -0.1342  0.9734
  785MOL0     H 5946  10.205  10.065   2.011 -1.9115 -0.6712  3.1023
  785MOL0     H 5947  10.002  10.048   1.942 -0.6684  1.0009 -2.8904
  785MOL0     H 5948   9.960  10.220   1.954 -2.8933 -1.7326  0.8323
  785MOL0     H 5949  10.045  10.049   2.197 -2.9664 -1.0221  0.2421
  785MOL0     H 5950  10.000  10.220   2.189 -1.5850 -0.2188 -0.0324
  785MOL0     H 5951   9.809   9.994   2.112  1.1830  0.0977 -0.7642
  785MOL0     H 5952   9.776  10.173   2.124 -1.6036 -1.6856 -2.9447
  785MOL0     H 5953   9.844   9.996   2.361  2.6578 -0.3528 -0.8329
  785MOL0     H 5954   9.839  10.176   2.357  1.5262 -0.4152 -1.5032
  785MOL0     H 5955  10.334   9.978   1.424  0.9872  2.6551  0.8762
  785MOL0     H 5956  10.493   9.837   1.287 -2.2323  2.2110  0.1576
  785MOL0     H 5957  10.899   9.876   1.036 -0.4398  0.1691 -1.9508
  785MOL0     H 5958  11.053   9.742   0.891  2.9035 -0.6087  2.2965
  785MOL0     H 5959  10.821   8.892   0.329 -1.4467 -2.9992 -0.8402
  785MOL0     H 5960  10.632   9.031   0.464 -0.4347  1.4363  3.0491
  785MOL0     H 5961  10.730   9.358   0.973 -0.2061  0.3933 -0.9816
  785MOL0     H 5962  10.579   9.458   1.145 -1.5719  0.7075  1.6697
  785MOL0     H 5963  10.407   9.622   1.203 -1.7585  2.3287 -1.4614
  785MOL0     H 5964  10.261   9.596   1.268  0.7664  1.6116  0.2699
  785MOL0     H 5965  10.302   9.606   0.964  0.9407  0.4385  0.4214
  785MOL0     H 5966  10.230   9.725   1.070  0.1555 -0.7524  0.5857
  785MOL0     H 5967  10.030   9.594   1.077  0.3969 -0.4284 -1.4432
  785MOL0     H 5968  10.118   9.445   1.026 -0.7964  0.1706  0.3776
  785MOL0     H 5969  10.100   9.676   0.843  0.7332 -0.1390 -1.1581
  785MOL0     H 5970  10.114   9.514   0.799 -1.5506 -1.7565  1.0544
  785MOL0     H 5971   9.701   9.611   0.812  0.4898  4.1963 -1.9588
  785MOL0     H 5972  10.254   9.229   1.006 -1.0171  2.8944  0.7776
  785MOL0     H 5973  10.378   9.050   0.731  0.7421 -0.9392  0.4176
  785MOL0     H 5974  10.400   8.957   0.885 -0.3898  1.3155  4.3226
  785MOL0     H 5975  10.267   9.064   0.868 -0.6054 -1.3209 -0.9548
  786MOL0     O 5976   3.987   4.760   5.757 -0.0835  0.2684  0.0650
  786MOL0     C 5977   4.039   4.688   5.678  0.1729  0.3600  0.7106
  786MOL0     O 5978   3.978   4.581   5.603  0.6091 -0.5417  0.2165
  786MOL0     C 5979   3.849   4.548   5.637 -0.1760  0.5311 -0.3875
  786MOL0     C 5980   3.822   4.462   5.743  0.1919 -0.6393  0.5903
  786MOL0     C 5981   3.694   4.449   5.796 -1.2162 -0.6317  0.3765
  786MOL0     C 5982   3.589   4.496   5.716  0.2622  0.1506  0.4273
  786MOL0     O 5983   3.467   4.502   5.776  0.4339 -0.8643 -0.5089
  786MOL0     C 5984   3.363   4.430   5.711 -0.3764  0.5799  1.0403
  786MOL0     C 5985   3.246   4.374   5.799  0.2771 -0.4542  0.0277
  786MOL0     C 5986   3.276   4.256   5.889 -1.4701 -0.8954  0.6572
  786MOL0     C 5987   3.273   4.128   5.809  0.6003 -0.3857  0.5098
  786MOL0     C 5988   3.377   4.035   5.871 -0.3708 -0.6780  0.3769
  786MOL0     C 5989   3.521   4.063   5.812 -0.6117 -0.2190 -0.4202
  786MOL0     C 5990   3.637   3.998   5.885 -0.2138  0.0324 -0.5819
  786MOL0     C 5991   3.769   4.031   5.816 -0.5187  0.4651 -0.7153
  786MOL0     N 5992   3.886   3.941   5.845  0.4572  0.7744 -0.0701
  786MOL0     C 5993   3.968   3.969   5.949  0.0039 -1.3260  0.1933
  786MOL0     C 5994   4.054   3.863   5.953  0.2122 -0.9202  0.4027
  786MOL0     C 5995   4.163   3.830   6.049 -0.3124  0.0988 -0.5280
  786MOL0     C 5996   4.291   3.916   6.014 -0.5880  0.6570 -0.4331
  786MOL0     C 5997   4.420   3.857   6.070  0.3186 -0.1053 -0.1658
  786MOL0     C 5998   4.540   3.958   6.039  0.1387  0.8844  0.3240
  786MOL0     O 5999   4.511   4.063   6.126 -0.0260  0.1015 -0.8759
  786MOL0     C 6000   4.592   4.173   6.113  0.9190 -0.5459  0.8403
  786MOL0     C 6001   4.711   4.179   6.033  0.0208  0.2672  0.0178
  786MOL0     C 6002   4.785   4.292   6.033  0.4413 -0.3938 -0.1556
  786MOL0     C 6003   4.738   4.414   6.083  0.6943 -1.2770  0.7556
  786MOL0     C 6004   4.820   4.541   6.066 -0.8565 -0.0352  0.4758
  786MOL0     O 6005   4.958   4.527   6.026  0.4652 -0.3148  0.0685
  786MOL0     C 6006   5.042   4.631   6.007  0.6867  0.3823 -1.3089
  786MOL0     C 6007   5.174   4.588   5.999 -0.1083  0.6832 -0.0356
  786MOL0     C 6008   5.274   4.684   5.975  0.8149 -0.5103 -0.4032
  786MOL0     C 6009   5.246   4.824   5.962  0.2098 -0.1599  1.2738
  786MOL0     O 6010   5.359   4.899   5.933 -0.4343 -0.2773  0.4136
  786MOL0     C 6011   5.333   5.040   5.892  0.0272  0.1623  0.3464
  786MOL0     C 6012   5.472   5.098   5.868  0.9501  0.8365  0.9195
  786MOL0     C 6013   5.545   5.095   6.003 -0.7796 -0.2009  0.1591
  786MOL0     C 6014   5.698   5.121   5.977 -0.1646 -0.4096 -1.0654
  786MOL0     C 6015   5.769   5.126   6.111 -1.2004  0.1160 -0.1705
  786MOL0     C 6016   5.916   5.094   6.106 -0.5314 -0.8245  0.0403
  786MOL0     C 6017   5.990   5.162   5.992  0.2516  0.2611 -0.2966
  786MOL0     C 6018   6.140   5.169   6.020  0.4434  0.6244 -0.0605
  786MOL0    Cl 6019   6.214   5.261   5.890 -0.2053  0.0234  0.4027
  786MOL0     C 6020   5.109   4.858   5.957 -0.3238  0.1313 -1.0235
  786MOL0     C 6021   5.008   4.763   5.991 -1.1073  0.1122  0.1141
  786MOL0     O 6022   4.767   4.645   6.098 -0.2139  0.7689  0.2019
  786MOL0     C 6023   4.615   4.415   6.151 -0.3329  0.9490  0.9645
  786MOL0     C 6024   4.548   4.295   6.170  0.1304  0.4039 -0.5553
  786MOL0     N 6025   4.013   3.774   5.862  0.9687  0.1472  0.7432
  786MOL0     N 6026   3.913   3.820   5.797  0.1980  0.5521  0.0680
  786MOL0     C 6027   3.615   4.568   5.602  0.3270  0.3792  0.4063
  786MOL0     C 6028   3.745   4.599   5.565  0.0224  0.4345 -0.3638
  786MOL0     C 6029   4.177   4.721   5.651  0.2362  0.1692  0.5782
  786MOL0     C 6030   4.197   4.837   5.583 -0.6173  0.3922 -0.3885
  786MOL0     C 6031   4.320   4.865   5.524  0.2686  0.3950  0.0229
  786MOL0     C 6032   4.429   4.774   5.549  0.3521 -0.0651  0.3330
  786MOL0     O 6033   4.554   4.785   5.492  0.2727 -0.7469 -0.2477
  786MOL0     C 6034   4.584   4.914   5.433  0.6205 -0.4767  0.7315
  786MOL0     C 6035   4.627   5.018   5.542 -0.4144 -0.7447  0.1469
  786MOL0     C 6036   4.748   5.109   5.512 -0.1509  0.4371  0.6389
  786MOL0     C 6037   4.782   5.205   5.631  0.1221  0.6374 -0.3199
  786MOL0     C 6038   4.886   5.297   5.586 -0.4295  1.1791  0.3869
  786MOL0     C 6039   4.969   5.378   5.545  0.5089  0.4079 -0.0341
  786MOL0     C 6040   4.410   4.661   5.628  0.3774  0.2094  0.2191
  786MOL0     C 6041   4.279   4.631   5.671  0.1577 -0.2445  0.6667
  786MOL0     C 6042   4.264   4.506   5.755 -0.5311 -0.4696  0.6246
  786MOL0     H 6043   3.903   4.433   5.810  1.9658  0.6880 -0.8499
  786MOL0     H 6044   3.687   4.412   5.898  1.8170 -1.5928  0.3282
  786MOL0     H 6045   3.325   4.508   5.644  0.5172 -1.4420 -2.0388
  786MOL0     H 6046   3.400   4.347   5.650 -0.2841 -0.9134  3.0387
  786MOL0     H 6047   3.160   4.355   5.735 -2.9887  3.7827  2.6263
  786MOL0     H 6048   3.196   4.452   5.857 -0.7814 -0.9835 -0.1447
  786MOL0     H 6049   3.199   4.249   5.966 -1.0060  0.8026  1.3121
  786MOL0     H 6050   3.369   4.272   5.945 -2.0883  1.5066  1.0995
  786MOL0     H 6051   3.173   4.082   5.809 -0.2628  1.3904 -1.2632
  786MOL0     H 6052   3.282   4.140   5.701 -1.1631 -2.7167 -0.0040
  786MOL0     H 6053   3.366   4.026   5.979  0.9874 -4.0680  0.3491
  786MOL0     H 6054   3.352   3.935   5.835 -0.5782 -0.5557  0.1799
  786MOL0     H 6055   3.519   4.027   5.709  1.6242  1.1127 -0.9817
  786MOL0     H 6056   3.537   4.171   5.814 -1.0271 -0.1281  2.2253
  786MOL0     H 6057   3.631   3.889   5.884  0.2335 -0.0159 -2.5272
  786MOL0     H 6058   3.643   4.042   5.985 -0.4159  1.4224 -1.1498
  786MOL0     H 6059   3.746   4.022   5.710 -0.9441  4.2087 -1.0756
  786MOL0     H 6060   3.795   4.136   5.833  0.3020 -0.1080  2.1199
  786MOL0     H 6061   3.963   4.055   6.014  2.5479 -1.1435  0.2456
  786MOL0     H 6062   4.128   3.851   6.151  0.5288  2.4385 -0.6471
  786MOL0     H 6063   4.189   3.724   6.039 -2.4085 -0.3850 -1.2405
  786MOL0     H 6064   4.293   3.931   5.906  1.4575 -2.1696 -0.8887
  786MOL0     H 6065   4.273   4.020   6.045 -1.7783  1.1949 -2.7319
  786MOL0     H 6066   4.436   3.758   6.026 -1.3660 -0.8699  0.8504
  786MOL0     H 6067   4.411   3.836   6.177 -1.8894 -0.3115 -0.3534
  786MOL0     H 6068   4.535   3.985   5.933 -0.0895 -1.4095 -0.3067
  786MOL0     H 6069   4.630   3.898   6.055 -1.2472 -1.6617 -0.7835
  786MOL0     H 6070   4.751   4.099   5.972  1.9492  0.2485  1.2424
  786MOL0     H 6071   4.878   4.296   5.976 -0.3990 -4.6257 -2.2090
  786MOL0     H 6072   5.204   4.485   6.016 -1.1644  0.5289  1.1212
  786MOL0     H 6073   5.377   4.651   5.971  0.6884 -0.9577 -5.1198
  786MOL0     H 6074   5.291   5.044   5.791  1.4878  1.3213 -0.2587
  786MOL0     H 6075   5.277   5.085   5.975 -1.1543 -3.4517  1.6962
  786MOL0     H 6076   5.528   5.035   5.798 -0.0160  0.0224  0.8581
  786MOL0     H 6077   5.464   5.199   5.827  1.1405  0.4427 -0.1119
  786MOL0     H 6078   5.502   5.174   6.065 -0.1763  0.5616 -0.3833
  786MOL0     H 6079   5.534   5.003   6.062 -2.0904  0.4017  0.8879
  786MOL0     H 6080   5.708   5.217   5.926 -1.7571  1.7415  2.3424
  786MOL0     H 6081   5.741   5.043   5.913  2.2226  0.8946 -1.1785
  786MOL0     H 6082   5.715   5.068   6.186  0.7912 -0.3655  0.9622
  786MOL0     H 6083   5.763   5.227   6.153 -1.4010  0.6752 -1.4919
  786MOL0     H 6084   5.969   5.120   6.198 -0.4032  2.6104 -0.8482
  786MOL0     H 6085   5.926   4.987   6.091 -1.9227 -0.6447 -2.8191
  786MOL0     H 6086   5.949   5.261   5.972  0.1428 -0.0618 -1.7519
  786MOL0     H 6087   5.957   5.101   5.908  0.8147 -1.4156  0.6393
  786MOL0     H 6088   6.169   5.212   6.116  1.1715  1.0106 -0.4476
  786MOL0     H 6089   6.168   5.063   6.013  2.7231  0.9846  2.2044
  786MOL0     H 6090   5.078   4.961   5.940  0.7116  0.4706 -0.9096
  786MOL0     H 6091   4.910   4.803   6.009 -1.0117 -0.2826  1.6034
  786MOL0     H 6092   4.575   4.511   6.184 -1.1359 -0.1884  3.5096
  786MOL0     H 6093   4.461   4.300   6.236 -0.6410 -1.2083 -1.3877
  786MOL0     H 6094   3.528   4.604   5.548  0.8638 -1.1666 -1.6123
  786MOL0     H 6095   3.778   4.670   5.490  0.0395  1.0791  0.2472
  786MOL0     H 6096   4.114   4.904   5.560 -0.7739 -0.9609 -4.5149
  786MOL0     H 6097   4.328   4.968   5.489 -1.7751  1.0370  1.2884
  786MOL0     H 6098   4.506   4.940   5.361  2.3788 -3.0380 -2.3311
  786MOL0     H 6099   4.673   4.896   5.372  1.8065  1.3056  1.8630
  786MOL0     H 6100   4.629   4.975   5.643 -0.1208  1.1183  0.9844
  786MOL0     H 6101   4.544   5.088   5.551  0.5802  0.2398  2.6130
  786MOL0     H 6102   4.726   5.183   5.434  1.8228  0.1303 -0.2778
  786MOL0     H 6103   4.830   5.041   5.487 -0.7032  0.2867 -0.8713
  786MOL0     H 6104   4.695   5.262   5.664 -0.3483  0.0082 -0.4536
  786MOL0     H 6105   4.824   5.149   5.716  0.1098 -0.3034 -0.9237
  786MOL0     H 6106   5.035   5.450   5.501  0.1806  0.5402 -0.3053
  786MOL0     H 6107   4.499   4.605   5.654  1.2530  1.9677  1.1461
  786MOL0     H 6108   4.231   4.413   5.709  1.5641 -0.6793 -0.5598
  786MOL0     H 6109   4.358   4.476   5.801  0.5195  0.1683 -1.0342
  786MOL0     H 6110   4.188   4.529   5.831  0.2702  2.8443  0.5775
  787MOL0     O 6111   2.254   0.123   4.155 -0.2306  0.1455  0.5324
  787MOL0     C 6112   2.172   0.094   4.245  0.3765 -0.3495  0.1897
  787MOL0     O 6113   2.052   0.159   4.260  0.0485 -0.5664  0.2137
  787MOL0     C 6114   2.005   0.238   4.155  0.1169  0.1877  0.0056
  787MOL0     C 6115   2.076   0.345   4.101 -0.5399 -0.5557  0.3384
  787MOL0     C 6116   2.023   0.426   3.996 -0.0950 -0.2748 -0.0192
  787MOL0     C 6117   1.900   0.391   3.934  0.2797  0.1250 -0.3190
  787MOL0     O 6118   1.859   0.466   3.820 -0.5362  0.7597 -1.0410
  787MOL0     C 6119   1.756   0.415   3.733  0.1421  0.0921  0.0721
  787MOL0     C 6120   1.611   0.415   3.782  0.3156  0.0574 -1.0177
  787MOL0     C 6121   1.513   0.337   3.702 -0.3220 -0.0773 -0.5944
  787MOL0     C 6122   1.525   0.182   3.728  0.2078  0.4894  0.2821
  787MOL0     C 6123   1.419   0.112   3.648  1.4509  0.2959  0.3991
  787MOL0     C 6124   1.424  -0.040   3.675 -0.9078  1.0937  0.8491
  787MOL0     C 6125   1.304  -0.114   3.602  0.3431 -0.0676  0.5095
  787MOL0     C 6126   1.323  -0.123   3.462 -0.3469 -0.2627  1.5014
  787MOL0     N 6127   1.220  -0.202   3.380  1.0528 -0.0448  0.0680
  787MOL0     C 6128   1.082  -0.186   3.385 -0.3336  0.5095  0.7591
  787MOL0     C 6129   1.028  -0.286   3.307  0.0786 -0.6438  0.3206
  787MOL0     C 6130   0.888  -0.294   3.241  0.4903 -0.8493 -0.4106
  787MOL0     C 6131   0.761  -0.323   3.328 -0.4504 -0.2344 -0.2867
  787MOL0     C 6132   0.766  -0.454   3.416 -1.3812 -0.3686 -0.2425
  787MOL0     C 6133   0.878  -0.437   3.533 -0.0163  0.2741  0.1107
  787MOL0     O 6134   0.863  -0.511   3.656  0.0977  0.3609 -0.1455
  787MOL0     C 6135   0.751  -0.479   3.733 -0.4479 -0.1094  0.6359
  787MOL0     C 6136   0.713  -0.568   3.827 -1.0739 -0.4202 -0.1531
  787MOL0     C 6137   0.612  -0.537   3.914 -0.3783  0.1671 -0.4203
  787MOL0     C 6138   0.536  -0.422   3.901  0.1118 -0.4904  0.3830
  787MOL0     C 6139   0.417  -0.409   3.997  0.2086  0.7527  0.2141
  787MOL0     O 6140   0.360  -0.523   4.038 -0.2096  0.1144 -0.8337
  787MOL0     C 6141   0.251  -0.515   4.127 -0.7391  0.7441  0.0059
  787MOL0     C 6142   0.127  -0.477   4.082  0.1180 -0.5727  1.1045
  787MOL0     C 6143   0.015  -0.468   4.164  0.2528  0.7304  0.0501
  787MOL0     C 6144   0.035  -0.506   4.301  0.5399  0.5876  0.5494
  787MOL0     O 6145  -0.072  -0.516   4.392 -0.5583 -0.4346 -0.6243
  787MOL0     C 6146  -0.205  -0.463   4.368  0.4542 -0.0786 -0.0091
  787MOL0     C 6147  -0.212  -0.305   4.334 -0.6851  0.0751 -0.1296
  787MOL0     C 6148  -0.121  -0.225   4.429 -0.1277  0.8812  1.2563
  787MOL0     C 6149  -0.151  -0.257   4.577 -0.5860 -0.2202 -0.2934
  787MOL0     C 6150  -0.053  -0.204   4.672  0.5517 -0.6228 -0.5530
  787MOL0     C 6151  -0.117  -0.184   4.811  0.1180  0.1098 -0.6360
  787MOL0     C 6152  -0.031  -0.112   4.912  0.2493 -0.4897 -0.4108
  787MOL0     C 6153  -0.071  -0.150   5.050 -0.2224 -0.5058 -0.8965
  787MOL0    Cl 6154  -0.230  -0.096   5.091  0.0471 -0.2614 -0.2203
  787MOL0     C 6155   0.157  -0.552   4.349 -0.2522 -0.5468  0.4035
  787MOL0     C 6156   0.264  -0.555   4.269  0.0904  0.9506  1.1389
  787MOL0     O 6157   0.380  -0.293   4.029  0.4511 -0.5554 -0.0281
  787MOL0     C 6158   0.569  -0.338   3.798  0.3836 -0.3437 -0.5079
  787MOL0     C 6159   0.677  -0.364   3.718 -0.2850 -0.5123 -1.0379
  787MOL0     N 6160   1.122  -0.389   3.293 -1.1012  0.1623  0.3809
  787MOL0     N 6161   1.234  -0.332   3.335 -0.0233  0.3724  0.8811
  787MOL0     C 6162   1.834   0.269   3.988 -0.0173  0.0944  0.4293
  787MOL0     C 6163   1.884   0.206   4.105 -0.2974  0.1581  0.3494
  787MOL0     C 6164   2.197  -0.016   4.336 -1.0365  0.0020  0.8258
  787MOL0     C 6165   2.102  -0.059   4.423 -0.5298 -0.2763 -0.0971
  787MOL0     C 6166   2.118  -0.150   4.523 -0.2484  0.7910  0.1964
  787MOL0     C 6167   2.240  -0.208   4.543 -0.3210 -0.0651  0.9265
  787MOL0     O 6168   2.240  -0.299   4.644 -0.7363  0.5441  0.8472
  787MOL0     C 6169   2.352  -0.388   4.650 -0.6249 -0.0356  0.4946
  787MOL0     C 6170   2.348  -0.498   4.760 -0.6009 -0.2792 -0.6959
  787MOL0     C 6171   2.475  -0.585   4.744  0.7437 -1.3197 -0.2327
  787MOL0     C 6172   2.525  -0.637   4.888  0.0982  0.7306 -0.5668
  787MOL0     C 6173   2.637  -0.721   4.855 -0.4787  0.4586 -0.7595
  787MOL0     C 6174   2.732  -0.790   4.812  0.1161  0.8702 -0.4217
  787MOL0     C 6175   2.350  -0.173   4.453 -0.0860  0.3102 -0.1158
  787MOL0     C 6176   2.327  -0.076   4.356  0.1717 -0.0823 -0.9849
  787MOL0     C 6177   2.455  -0.027   4.288  0.3084  0.2416 -0.6850
  787MOL0     H 6178   2.172   0.368   4.146 -0.3301 -4.6179  2.4234
  787MOL0     H 6179   2.081   0.507   3.953  0.0585 -0.6953 -0.6182
  787MOL0     H 6180   1.759   0.477   3.643 -0.5017  3.8005  2.3908
  787MOL0     H 6181   1.788   0.312   3.715  1.3015  0.4346  0.1045
  787MOL0     H 6182   1.580   0.519   3.798  0.1513 -0.0075 -0.9073
  787MOL0     H 6183   1.602   0.376   3.884 -1.3422  2.3946 -0.2040
  787MOL0     H 6184   1.533   0.358   3.597  0.8605 -1.1655 -0.6023
  787MOL0     H 6185   1.408   0.363   3.719 -0.7840 -1.2158 -1.5782
  787MOL0     H 6186   1.625   0.150   3.697  0.6528 -0.7486  2.7593
  787MOL0     H 6187   1.516   0.149   3.832  2.3710 -0.1906  0.3039
  787MOL0     H 6188   1.320   0.151   3.673  1.0656 -1.6901  2.2670
  787MOL0     H 6189   1.456   0.141   3.549  1.0820  1.2198  0.5169
  787MOL0     H 6190   1.512  -0.089   3.633 -1.9404 -0.5782  0.5437
  787MOL0     H 6191   1.436  -0.069   3.780 -0.3905 -3.5921 -0.2807
  787MOL0     H 6192   1.213  -0.058   3.626  1.1549  0.5526  2.3371
  787MOL0     H 6193   1.289  -0.215   3.640 -0.8632 -0.5996 -1.2713
  787MOL0     H 6194   1.323  -0.021   3.421 -0.9282 -0.7574  0.2292
  787MOL0     H 6195   1.421  -0.171   3.451  1.3099  3.2211 -0.9676
  787MOL0     H 6196   1.026  -0.097   3.414  0.6089  0.7801  1.8126
  787MOL0     H 6197   0.877  -0.202   3.183 -1.0346 -1.0684 -0.5115
  787MOL0     H 6198   0.882  -0.373   3.165 -3.3547 -0.0067 -1.1722
  787MOL0     H 6199   0.748  -0.243   3.402 -1.1661 -0.8203  0.2413
  787MOL0     H 6200   0.670  -0.335   3.269 -1.1112 -1.6090  0.9238
  787MOL0     H 6201   0.788  -0.533   3.343  3.9754  1.0590 -0.6141
  787MOL0     H 6202   0.672  -0.467   3.470 -1.1759 -1.1191 -0.0584
  787MOL0     H 6203   0.889  -0.329   3.547  2.6945  0.1769 -0.7315
  787MOL0     H 6204   0.976  -0.460   3.489  0.6783  0.3416  1.5537
  787MOL0     H 6205   0.768  -0.660   3.845 -0.0547  0.2810  0.4478
  787MOL0     H 6206   0.579  -0.609   3.988 -0.3163 -0.4451 -0.9766
  787MOL0     H 6207   0.103  -0.451   3.979 -1.1533  0.4631  1.6296
  787MOL0     H 6208  -0.081  -0.445   4.120  0.1372 -2.7342 -1.9097
  787MOL0     H 6209  -0.256  -0.512   4.283  1.0869 -0.4127 -0.2026
  787MOL0     H 6210  -0.266  -0.481   4.457 -0.7232  1.0901 -0.5374
  787MOL0     H 6211  -0.181  -0.293   4.230 -0.2498  0.9581  0.0875
  787MOL0     H 6212  -0.313  -0.264   4.345 -0.1273  0.9363  2.8783
  787MOL0     H 6213  -0.017  -0.252   4.405 -0.5974  0.3173 -0.2391
  787MOL0     H 6214  -0.123  -0.121   4.396 -3.6231  0.4617 -0.3217
  787MOL0     H 6215  -0.155  -0.364   4.602 -0.5610 -0.6833 -2.1101
  787MOL0     H 6216  -0.255  -0.231   4.594 -1.0154 -2.4251  0.8905
  787MOL0     H 6217  -0.021  -0.106   4.634  2.4765  0.4127  3.1745
  787MOL0     H 6218   0.028  -0.277   4.682 -0.4172 -2.7102 -5.1493
  787MOL0     H 6219  -0.209  -0.126   4.797 -0.5751 -0.5522  0.9049
  787MOL0     H 6220  -0.150  -0.280   4.852  0.5085 -0.3355 -1.3402
  787MOL0     H 6221  -0.038  -0.003   4.912 -1.7566 -0.5774 -1.4136
  787MOL0     H 6222   0.075  -0.128   4.888  0.8433  3.8839 -1.5419
  787MOL0     H 6223  -0.056  -0.258   5.059  1.1928 -0.1088  2.8922
  787MOL0     H 6224  -0.004  -0.097   5.118 -1.7980 -1.1033  1.2339
  787MOL0     H 6225   0.166  -0.574   4.455 -0.7813  0.5389  0.6850
  787MOL0     H 6226   0.360  -0.594   4.300  1.7687  4.9333  1.4333
  787MOL0     H 6227   0.518  -0.243   3.797  1.8280  0.4802  0.2700
  787MOL0     H 6228   0.704  -0.281   3.653 -2.0277  1.9303  1.1018
  787MOL0     H 6229   1.763   0.221   3.922 -1.8458 -0.2840  2.5512
  787MOL0     H 6230   1.819   0.124   4.132  0.6892 -0.5756  0.5716
  787MOL0     H 6231   1.999  -0.024   4.415 -0.2715  0.1392 -1.9260
  787MOL0     H 6232   2.042  -0.183   4.594 -0.6390  1.0027 -0.1170
  787MOL0     H 6233   2.437  -0.320   4.662 -1.3471  2.3796 -5.2131
  787MOL0     H 6234   2.357  -0.438   4.554  1.8574  0.8157  0.0939
  787MOL0     H 6235   2.259  -0.562   4.768 -0.8962  0.2802  0.8856
  787MOL0     H 6236   2.338  -0.439   4.851  1.4249  0.1030 -0.6920
  787MOL0     H 6237   2.550  -0.519   4.700 -0.8821  0.5330 -0.3894
  787MOL0     H 6238   2.443  -0.658   4.670  0.4010 -0.0499 -1.3630
  787MOL0     H 6239   2.554  -0.554   4.952 -0.6358  1.2081 -0.8436
  787MOL0     H 6240   2.453  -0.708   4.931  1.6627 -1.1209 -0.8955
  787MOL0     H 6241   2.818  -0.838   4.770  0.4689  1.0726  0.0686
  787MOL0     H 6242   2.453  -0.208   4.458 -0.1224  0.3544  1.3077
  787MOL0     H 6243   2.534  -0.095   4.323 -2.5976 -1.6425  2.9553
  787MOL0     H 6244   2.442  -0.047   4.181  3.2592  0.3885 -1.1418
  787MOL0     H 6245   2.468   0.078   4.313  0.2371 -0.7228  4.3601
  788MOL0     O 6246   2.381   6.822   5.457 -0.0104 -0.1392  0.1802
  788MOL0     C 6247   2.403   6.941   5.420 -0.9478  0.5504  0.1211
  788MOL0     O 6248   2.526   6.992   5.363  0.3437  0.0825 -0.9140
  788MOL0     C 6249   2.618   6.900   5.336  0.7819  0.1039 -0.6608
  788MOL0     C 6250   2.648   6.869   5.204  0.1443  0.1741 -0.8268
  788MOL0     C 6251   2.747   6.776   5.179 -0.4279  0.2774 -0.6686
  788MOL0     C 6252   2.811   6.714   5.277  1.1372 -0.2187 -0.7628
  788MOL0     O 6253   2.910   6.621   5.246 -0.1838  0.3346  0.1691
  788MOL0     C 6254   3.024   6.679   5.155  0.8996  1.0488  0.3530
  788MOL0     C 6255   3.160   6.652   5.225  0.9180  0.0202  0.0011
  788MOL0     C 6256   3.276   6.700   5.137 -0.0547 -0.1818  0.4149
  788MOL0     C 6257   3.405   6.638   5.190  0.3141 -0.0711 -0.3721
  788MOL0     C 6258   3.445   6.719   5.319  0.3236  0.1033  0.2247
  788MOL0     C 6259   3.598   6.728   5.329 -0.1444 -0.3963 -0.1486
  788MOL0     C 6260   3.620   6.781   5.475  0.0981 -0.3526  0.0590
  788MOL0     C 6261   3.756   6.743   5.529  0.2166  0.1938 -0.8314
  788MOL0     N 6262   3.774   6.815   5.651 -0.1160 -0.6775  0.0643
  788MOL0     C 6263   3.699   6.793   5.763  0.1444 -0.2713  1.3669
  788MOL0     C 6264   3.729   6.895   5.850  0.2491 -0.0192 -0.0015
  788MOL0     C 6265   3.670   6.910   5.987 -0.1698 -0.3778  0.3907
  788MOL0     C 6266   3.777   6.981   6.076  0.3877 -1.0128 -0.9917
  788MOL0     C 6267   3.905   6.906   6.115  1.0926  0.4329 -0.9644
  788MOL0     C 6268   4.027   6.991   6.131 -0.8379 -0.4864  0.4487
  788MOL0     O 6269   4.053   7.050   6.004  0.3413 -0.0468  0.5665
  788MOL0     C 6270   4.176   7.104   5.968 -0.7754  0.9841  0.0983
  788MOL0     C 6271   4.277   7.132   6.055 -0.6674 -0.0936 -0.0380
  788MOL0     C 6272   4.400   7.171   6.001 -0.2917 -0.5163  1.1922
  788MOL0     C 6273   4.422   7.201   5.856  0.5585  0.0477 -0.0350
  788MOL0     C 6274   4.551   7.249   5.798 -0.5011 -0.5988 -1.0141
  788MOL0     O 6275   4.635   7.299   5.901  0.7401  0.4649  0.0714
  788MOL0     C 6276   4.720   7.402   5.876 -0.7064 -0.0873  0.2159
  788MOL0     C 6277   4.798   7.411   5.752  0.2397 -0.0646  0.3120
  788MOL0     C 6278   4.898   7.506   5.738 -0.2237 -0.8831  0.2154
  788MOL0     C 6279   4.932   7.592   5.843  0.0971 -0.7514 -0.6486
  788MOL0     O 6280   5.035   7.681   5.833  0.6574  0.2893  1.5427
  788MOL0     C 6281   5.116   7.697   5.948 -0.4572  0.1966 -0.1576
  788MOL0     C 6282   5.265   7.699   5.920 -0.1033  0.4799 -0.4136
  788MOL0     C 6283   5.327   7.572   5.855  0.1040  0.0126  0.2182
  788MOL0     C 6284   5.317   7.584   5.696 -1.0227 -0.2885 -0.6352
  788MOL0     C 6285   5.420   7.498   5.628 -0.5767 -0.8502 -0.3276
  788MOL0     C 6286   5.387   7.347   5.626 -0.5024 -0.6549  0.1070
  788MOL0     C 6287   5.254   7.320   5.557  0.3151 -0.4608  0.1488
  788MOL0     C 6288   5.235   7.175   5.537  0.4019 -0.0012 -0.4240
  788MOL0    Cl 6289   5.255   7.084   5.699  0.5155  0.3257 -0.1790
  788MOL0     C 6290   4.850   7.597   5.963  0.4892  0.6152  0.2048
  788MOL0     C 6291   4.745   7.502   5.971 -0.0163 -0.4578 -0.1395
  788MOL0     O 6292   4.577   7.243   5.678 -0.2038 -0.1206 -0.0483
  788MOL0     C 6293   4.313   7.173   5.771  0.3875 -0.4116  0.0056
  788MOL0     C 6294   4.190   7.130   5.830  0.0055 -0.4849 -0.7188
  788MOL0     N 6295   3.816   6.984   5.783  0.4309  0.5030  0.3509
  788MOL0     N 6296   3.838   6.938   5.667 -0.2419 -0.7337  0.5785
  788MOL0     C 6297   2.787   6.749   5.412 -0.8112  0.0075  0.1995
  788MOL0     C 6298   2.680   6.836   5.438 -0.9062  0.7998  0.4287
  788MOL0     C 6299   2.314   7.040   5.460  0.6491  0.9906  1.0049
  788MOL0     C 6300   2.371   7.154   5.519  0.2359  0.2530 -0.4332
  788MOL0     C 6301   2.278   7.247   5.578 -0.5280 -0.4667  1.0095
  788MOL0     C 6302   2.137   7.234   5.567 -0.8609  0.0805 -0.6823
  788MOL0     O 6303   2.046   7.313   5.630 -0.4210 -0.2674 -0.4294
  788MOL0     C 6304   2.051   7.443   5.572 -0.2849 -0.3459 -1.2552
  788MOL0     C 6305   1.962   7.449   5.450  0.3582  0.1809  1.1207
  788MOL0     C 6306   1.828   7.368   5.448  0.1212 -0.6429  0.4790
  788MOL0     C 6307   1.718   7.442   5.373  0.5379  0.2369  0.8368
  788MOL0     C 6308   1.593   7.366   5.372 -0.0339 -0.3712  0.9564
  788MOL0     C 6309   1.483   7.315   5.360  0.8179 -0.2838 -0.4865
  788MOL0     C 6310   2.095   7.111   5.517 -0.0639 -0.9630 -0.3748
  788MOL0     C 6311   2.173   7.013   5.461 -0.4165  0.2601  0.0305
  788MOL0     C 6312   2.114   6.898   5.389  1.0679 -0.2935  0.5235
  788MOL0     H 6313   2.595   6.917   5.123 -1.9354  0.4382  0.6207
  788MOL0     H 6314   2.760   6.740   5.077 -2.7209  2.7066 -1.9303
  788MOL0     H 6315   3.019   6.636   5.054  2.1257  1.7589 -0.0286
  788MOL0     H 6316   2.995   6.784   5.147 -4.9077 -0.2832 -0.2403
  788MOL0     H 6317   3.176   6.544   5.231  1.5027  0.1414  4.7852
  788MOL0     H 6318   3.144   6.687   5.328  0.9339 -0.9353  0.3401
  788MOL0     H 6319   3.277   6.809   5.131  0.1601 -0.1276  1.3135
  788MOL0     H 6320   3.252   6.684   5.031 -3.6978  2.9988  0.5599
  788MOL0     H 6321   3.387   6.533   5.214 -3.7935  0.4015 -0.8301
  788MOL0     H 6322   3.482   6.639   5.112  3.0422 -0.3218  2.1095
  788MOL0     H 6323   3.398   6.817   5.325  0.4221  0.1265  0.6481
  788MOL0     H 6324   3.419   6.670   5.414 -1.1520  2.1715  0.9529
  788MOL0     H 6325   3.626   6.622   5.327 -3.1049 -1.2968 -0.1122
  788MOL0     H 6326   3.652   6.794   5.262  0.5412 -0.4152  0.3814
  788MOL0     H 6327   3.538   6.762   5.545  0.4991  0.8757  0.8861
  788MOL0     H 6328   3.628   6.890   5.469  0.2255 -0.4084 -1.0163
  788MOL0     H 6329   3.750   6.636   5.551 -2.4939 -0.1125 -2.6050
  788MOL0     H 6330   3.834   6.753   5.452  2.4188 -0.7145  1.1563
  788MOL0     H 6331   3.625   6.715   5.775  0.8385 -1.0803  0.5399
  788MOL0     H 6332   3.586   6.980   5.984 -1.9562 -2.4429 -0.3233
  788MOL0     H 6333   3.639   6.815   6.032 -2.1745 -0.1149 -0.2940
  788MOL0     H 6334   3.795   7.086   6.052  0.7228 -0.5883  0.9819
  788MOL0     H 6335   3.723   6.990   6.170 -2.3205  0.7212 -2.5661
  788MOL0     H 6336   3.910   6.827   6.040  1.2692 -0.1183 -0.3798
  788MOL0     H 6337   3.888   6.858   6.212  3.0634  0.5055 -0.5467
  788MOL0     H 6338   4.115   6.932   6.159 -1.0553 -1.4227 -0.7425
  788MOL0     H 6339   4.006   7.068   6.205 -1.8164 -0.2999 -0.0062
  788MOL0     H 6340   4.279   7.103   6.160 -1.3055 -1.3443 -0.3496
  788MOL0     H 6341   4.481   7.183   6.072  0.4694  1.8793  0.0370
  788MOL0     H 6342   4.777   7.365   5.656  0.6381 -0.9427  0.6368
  788MOL0     H 6343   4.939   7.520   5.639 -0.9877  1.6961  0.1762
  788MOL0     H 6344   5.075   7.789   5.991 -1.1180  0.0631 -0.4844
  788MOL0     H 6345   5.093   7.615   6.018  0.7671  0.7166  0.8981
  788MOL0     H 6346   5.292   7.789   5.864  1.2614  1.4171  1.6176
  788MOL0     H 6347   5.311   7.719   6.018  1.5875  3.2456 -1.6504
  788MOL0     H 6348   5.432   7.570   5.884  0.9246 -2.3481 -2.4786
  788MOL0     H 6349   5.287   7.478   5.893 -0.6293 -0.0670 -0.7039
  788MOL0     H 6350   5.332   7.687   5.663  2.2712 -1.0291 -1.7882
  788MOL0     H 6351   5.217   7.563   5.657 -1.0910 -1.2143 -0.0101
  788MOL0     H 6352   5.516   7.511   5.680  0.1373  0.8339 -1.9569
  788MOL0     H 6353   5.430   7.530   5.524  3.1612  0.6432  0.3318
  788MOL0     H 6354   5.471   7.292   5.583 -0.6313 -0.9827  0.2711
  788MOL0     H 6355   5.379   7.309   5.728  0.1586 -3.3144 -0.7685
  788MOL0     H 6356   5.253   7.370   5.460  1.8311  1.2284  0.9528
  788MOL0     H 6357   5.169   7.360   5.613 -1.4586 -1.8976 -1.3922
  788MOL0     H 6358   5.137   7.152   5.495  0.4806 -2.5152  0.6056
  788MOL0     H 6359   5.309   7.131   5.470 -0.2491  0.9629 -1.8244
  788MOL0     H 6360   4.866   7.677   6.035  2.1820  0.6550 -0.1616
  788MOL0     H 6361   4.679   7.499   6.057 -0.3347  1.1483 -0.2980
  788MOL0     H 6362   4.319   7.189   5.664  2.5527 -0.6114  0.0589
  788MOL0     H 6363   4.095   7.119   5.778 -1.2100 -4.1448  1.8264
  788MOL0     H 6364   2.844   6.693   5.486  1.3527  2.0983  0.2514
  788MOL0     H 6365   2.672   6.873   5.540  0.5877  2.0086  0.1537
  788MOL0     H 6366   2.479   7.162   5.529  0.8274 -3.3531 -2.3413
  788MOL0     H 6367   2.320   7.327   5.638  1.5044  0.3473 -1.3432
  788MOL0     H 6368   2.155   7.473   5.557  0.4128 -1.6005  0.7583
  788MOL0     H 6369   2.013   7.519   5.642 -0.3496  0.3580 -2.0378
  788MOL0     H 6370   2.027   7.414   5.370 -0.3017 -2.7598  1.7408
  788MOL0     H 6371   1.941   7.554   5.431 -0.2418  0.0466  1.0378
  788MOL0     H 6372   1.790   7.346   5.548  0.2659 -0.1300  0.6502
  788MOL0     H 6373   1.851   7.275   5.395  0.2218  0.3742 -1.3880
  788MOL0     H 6374   1.687   7.529   5.432 -3.0159 -0.6809  0.5636
  788MOL0     H 6375   1.746   7.472   5.272  2.1402  0.7819  1.4121
  788MOL0     H 6376   1.378   7.293   5.362  1.0579 -1.6695  2.6401
  788MOL0     H 6377   1.988   7.095   5.513 -0.2784  0.4604 -0.7979
  788MOL0     H 6378   2.144   6.799   5.425 -0.0276  0.0376  2.4836
  788MOL0     H 6379   2.006   6.904   5.404  1.1906  2.1293  0.7627
  788MOL0     H 6380   2.126   6.906   5.280  0.6420  1.5143  0.5769
  789MOL0     O 6381   5.724   4.830  11.076  0.6088  0.5256  0.5483
  789MOL0     C 6382   5.813   4.761  11.030  0.7055  0.2963  0.0750
  789MOL0     O 6383   5.796   4.635  10.967  0.4044 -0.2097 -0.7752
  789MOL0     C 6384   5.691   4.552  10.998 -0.9692 -1.0891 -0.1284
  789MOL0     C 6385   5.620   4.549  11.117 -0.8923  0.6240  0.5398
  789MOL0     C 6386   5.514   4.459  11.140  0.1330  0.1246  0.4337
  789MOL0     C 6387   5.489   4.356  11.046 -0.7888 -0.2820 -0.2208
  789MOL0     O 6388   5.400   4.261  11.074 -0.5680 -0.3316 -0.7258
  789MOL0     C 6389   5.369   4.162  10.981 -0.3637  0.8388  0.2283
  789MOL0     C 6390   5.257   4.072  11.048 -0.0742  1.1833  0.4397
  789MOL0     C 6391   5.197   3.955  10.966 -0.0938  0.4375 -0.0335
  789MOL0     C 6392   5.069   3.893  11.028 -0.6638  0.8391  0.9474
  789MOL0     C 6393   5.039   3.762  10.966 -0.2393  0.5704  0.4203
  789MOL0     C 6394   4.911   3.713  11.018  0.1566  0.5267  0.5791
  789MOL0     C 6395   4.863   3.585  10.943 -0.1464  0.5993  0.3246
  789MOL0     C 6396   4.714   3.547  10.961 -0.4017 -0.9307  0.5419
  789MOL0     N 6397   4.682   3.510  11.102 -0.0435  0.1056  0.2499
  789MOL0     C 6398   4.690   3.602  11.207 -0.3245 -0.9164  0.3354
  789MOL0     C 6399   4.679   3.522  11.313 -0.6796  0.9439  0.3738
  789MOL0     C 6400   4.647   3.555  11.454  0.8294  0.2316 -0.1023
  789MOL0     C 6401   4.738   3.666  11.516 -0.0065  0.3409 -0.0266
  789MOL0     C 6402   4.683   3.694  11.653  0.0437 -0.0506 -1.0924
  789MOL0     C 6403   4.762   3.801  11.737 -0.1496 -0.0591 -0.6033
  789MOL0     O 6404   4.895   3.764  11.751 -0.9917  0.1505  0.4187
  789MOL0     C 6405   4.976   3.861  11.809  0.0301  1.6668 -0.2650
  789MOL0     C 6406   5.109   3.874  11.772 -0.5559  0.0925  0.3910
  789MOL0     C 6407   5.192   3.972  11.832 -0.7226 -0.0605  0.9539
  789MOL0     C 6408   5.141   4.053  11.937  0.1569 -0.3242 -0.3955
  789MOL0     C 6409   5.219   4.152  12.005 -0.7043  0.4590 -0.3298
  789MOL0     O 6410   5.174   4.207  12.123  0.3471  0.3463 -0.9647
  789MOL0     C 6411   5.235   4.311  12.196 -0.5180  0.2343 -0.2636
  789MOL0     C 6412   5.214   4.327  12.332 -0.5969 -0.2766  0.6106
  789MOL0     C 6413   5.241   4.446  12.388  0.2872  0.2490 -0.2800
  789MOL0     C 6414   5.325   4.547  12.334 -0.4824  0.1165 -0.1663
  789MOL0     O 6415   5.363   4.652  12.408  0.1805 -0.1029  0.0999
  789MOL0     C 6416   5.441   4.768  12.359 -0.2501  0.2022  0.1963
  789MOL0     C 6417   5.595   4.715  12.361 -0.5582 -0.9678  0.9351
  789MOL0     C 6418   5.635   4.638  12.492 -0.2429  0.8731  0.3545
  789MOL0     C 6419   5.616   4.722  12.612  0.8148 -0.2014 -0.7751
  789MOL0     C 6420   5.629   4.631  12.738  0.3042  0.2873  0.1030
  789MOL0     C 6421   5.604   4.723  12.861  0.2495  0.0075 -0.3924
  789MOL0     C 6422   5.701   4.838  12.880 -0.0352  0.1120 -0.2690
  789MOL0     C 6423   5.843   4.811  12.861  0.6234 -0.2106  0.7169
  789MOL0    Cl 6424   5.949   4.954  12.842  0.5003  0.4009 -0.1429
  789MOL0     C 6425   5.361   4.525  12.198  0.2485 -0.2260 -0.1760
  789MOL0     C 6426   5.326   4.404  12.135  0.3987 -0.7404  0.5515
  789MOL0     O 6427   5.329   4.181  11.956  0.0292 -0.1800  0.2111
  789MOL0     C 6428   5.008   4.034  11.976 -0.6615 -0.3314 -0.7101
  789MOL0     C 6429   4.932   3.938  11.910 -0.5225 -1.6116  0.7412
  789MOL0     N 6430   4.685   3.386  11.273  0.1542 -0.0213  0.3748
  789MOL0     N 6431   4.701   3.382  11.146 -0.0920 -0.2949 -0.5048
  789MOL0     C 6432   5.577   4.349  10.937 -0.2889  0.4413  0.5352
  789MOL0     C 6433   5.676   4.443  10.908 -0.3445 -0.9238 -0.3720
  789MOL0     C 6434   5.949   4.814  11.041 -0.4705  0.1375 -0.6751
  789MOL0     C 6435   6.042   4.791  10.940 -0.5559 -0.4339 -0.4093
  789MOL0     C 6436   6.172   4.843  10.951 -0.6493  0.8309  0.2865
  789MOL0     C 6437   6.218   4.919  11.057  0.4553  0.1608 -0.0474
  789MOL0     O 6438   6.337   4.980  11.065 -0.1717  0.0253  0.1711
  789MOL0     C 6439   6.440   4.949  10.961  0.6962  0.1013  0.0147
  789MOL0     C 6440   6.579   5.011  10.990 -0.2727 -1.2337  0.1420
  789MOL0     C 6441   6.632   4.991  11.131 -0.2595  0.7262 -0.0184
  789MOL0     C 6442   6.775   5.032  11.154 -0.8230 -0.1993  0.1349
  789MOL0     C 6443   6.866   4.973  11.058 -0.0521  0.3834 -0.5343
  789MOL0     C 6444   6.954   4.923  10.995  0.2032  0.6622  0.3794
  789MOL0     C 6445   6.123   4.935  11.159 -0.6909 -0.2737  1.0012
  789MOL0     C 6446   5.986   4.896  11.147 -0.2928 -0.5593 -0.8108
  789MOL0     C 6447   5.902   4.953  11.260 -1.1385 -0.2580 -0.1296
  789MOL0     H 6448   5.638   4.627  11.190 -0.2981  1.0461 -0.0515
  789MOL0     H 6449   5.455   4.475  11.230  1.4992  2.5229  1.0135
  789MOL0     H 6450   5.337   4.209  10.888 -0.0185 -1.1789 -0.9689
  789MOL0     H 6451   5.448   4.094  10.949  0.1733  1.9179 -0.7843
  789MOL0     H 6452   5.173   4.140  11.068  1.1210  2.8574  0.0067
  789MOL0     H 6453   5.290   4.030  11.143  0.5817 -1.3771 -0.8385
  789MOL0     H 6454   5.271   3.875  10.968  0.4595  0.9432  2.5675
  789MOL0     H 6455   5.172   3.980  10.862 -0.7812 -1.3460 -0.3301
  789MOL0     H 6456   5.074   3.881  11.136 -2.7208  0.7827  1.0744
  789MOL0     H 6457   4.978   3.951  11.009 -0.8516 -0.0801 -1.3589
  789MOL0     H 6458   5.033   3.758  10.857 -0.5286 -3.5853  0.4240
  789MOL0     H 6459   5.108   3.682  10.995 -0.0046  1.1256  1.4455
  789MOL0     H 6460   4.911   3.674  11.121 -2.1292 -1.9680 -0.2493
  789MOL0     H 6461   4.830   3.786  11.006  0.8623  1.2851  0.3655
  789MOL0     H 6462   4.929   3.500  10.963  2.0959  1.9971 -0.7242
  789MOL0     H 6463   4.888   3.598  10.838  1.3607 -1.4595  0.3537
  789MOL0     H 6464   4.652   3.634  10.935  0.9549 -0.9547 -3.4923
  789MOL0     H 6465   4.681   3.472  10.889 -3.2191  1.9667 -1.5103
  789MOL0     H 6466   4.686   3.711  11.210 -0.9873 -0.9613  1.7971
  789MOL0     H 6467   4.544   3.582  11.479  0.2792  0.4887 -2.4874
  789MOL0     H 6468   4.666   3.464  11.512 -1.3375 -1.0811 -1.3411
  789MOL0     H 6469   4.841   3.633  11.531  0.4717  1.8900  0.2986
  789MOL0     H 6470   4.747   3.760  11.460 -3.1683  2.1331  2.1631
  789MOL0     H 6471   4.708   3.599  11.701 -0.5432  1.7190  3.1048
  789MOL0     H 6472   4.576   3.713  11.661  0.5134  2.0134  2.1657
  789MOL0     H 6473   4.717   3.817  11.836 -1.1366 -3.7653 -0.3298
  789MOL0     H 6474   4.765   3.897  11.683  4.1481  0.7240  0.6509
  789MOL0     H 6475   5.174   3.821  11.702  0.1005  3.8177 -2.0737
  789MOL0     H 6476   5.295   3.987  11.801 -0.1981 -0.6844  2.3047
  789MOL0     H 6477   5.154   4.250  12.380 -1.9446 -0.8362 -1.8347
  789MOL0     H 6478   5.207   4.478  12.486  2.5240 -0.2815  0.7583
  789MOL0     H 6479   5.402   4.794  12.260 -1.6489 -0.7414  0.4689
  789MOL0     H 6480   5.429   4.855  12.424  0.6000  3.0673 -3.1695
  789MOL0     H 6481   5.616   4.655  12.272  1.8941  1.3314 -0.1804
  789MOL0     H 6482   5.662   4.798  12.336 -0.3542 -1.8599 -1.7715
  789MOL0     H 6483   5.564   4.555  12.495 -2.1547  2.4337 -0.2157
  789MOL0     H 6484   5.741   4.609  12.485  0.4197  2.6369  2.2043
  789MOL0     H 6485   5.509   4.744  12.611  1.2620  2.4371  0.4283
  789MOL0     H 6486   5.667   4.819  12.617 -0.2285  0.3310  2.2863
  789MOL0     H 6487   5.724   4.578  12.739  0.0555 -0.4840 -3.5604
  789MOL0     H 6488   5.544   4.563  12.745  1.6420 -1.4066  0.3519
  789MOL0     H 6489   5.503   4.761  12.845  0.4050 -0.3757 -2.7839
  789MOL0     H 6490   5.603   4.660  12.949 -1.4325  0.9294  0.2853
  789MOL0     H 6491   5.681   4.868  12.983 -0.8350 -0.9118 -0.1055
  789MOL0     H 6492   5.674   4.914  12.806  0.7178 -0.1448 -0.8216
  789MOL0     H 6493   5.887   4.755  12.944  3.1146  3.7220  2.3087
  789MOL0     H 6494   5.861   4.760  12.766 -3.1726  2.5212 -1.7593
  789MOL0     H 6495   5.419   4.603  12.150 -3.0164  1.1104 -2.3158
  789MOL0     H 6496   5.336   4.394  12.027 -2.6900 -0.7911  0.2003
  789MOL0     H 6497   4.970   4.104  12.049  3.7017  2.7919 -1.0531
  789MOL0     H 6498   4.829   3.948  11.943 -0.2268  0.6743  1.1587
  789MOL0     H 6499   5.579   4.261  10.873  2.9759 -0.5634  1.7916
  789MOL0     H 6500   5.743   4.437  10.823  1.5587 -2.4256  1.1421
  789MOL0     H 6501   6.005   4.728  10.860 -2.0002  0.1263 -0.2018
  789MOL0     H 6502   6.242   4.823  10.871 -0.5470 -0.3355  0.6511
  789MOL0     H 6503   6.406   4.990  10.866  1.9649  0.0642 -0.4763
  789MOL0     H 6504   6.445   4.840  10.949  2.3064  0.0295  0.9244
  789MOL0     H 6505   6.569   5.118  10.972 -3.6289 -1.1683  1.6941
  789MOL0     H 6506   6.645   4.978  10.910 -1.8850  1.5804 -2.5300
  789MOL0     H 6507   6.616   4.887  11.160  0.5525 -0.0969 -2.3186
  789MOL0     H 6508   6.571   5.049  11.201 -2.4138 -1.8054  0.3890
  789MOL0     H 6509   6.784   5.141  11.155 -0.0841 -0.2401  1.9048
  789MOL0     H 6510   6.808   5.012  11.256  0.9369 -0.4769 -0.4611
  789MOL0     H 6511   7.024   4.861  10.943  0.3811 -0.0764  1.4794
  789MOL0     H 6512   6.158   4.993  11.243 -2.1704  1.4125  0.5191
  789MOL0     H 6513   5.963   5.017  11.323 -1.0441 -1.4944  1.0798
  789MOL0     H 6514   5.819   5.012  11.221 -2.4967 -0.7984  1.7732
  789MOL0     H 6515   5.863   4.868  11.317  0.4019 -2.0401 -1.5725
  790MOL0     O 6516  11.315   8.200   5.138 -0.1942 -0.2973 -0.1712
  790MOL0     C 6517  11.289   8.269   5.235  0.8744 -0.2637 -0.1622
  790MOL0     O 6518  11.354   8.258   5.356 -0.0330  0.2354  0.0266
  790MOL0     C 6519  11.443   8.157   5.375 -0.3200 -1.1563  0.5714
  790MOL0     C 6520  11.423   8.063   5.471  0.3000 -0.4822  0.2830
  790MOL0     C 6521  11.511   7.956   5.495 -0.4960 -0.8790 -0.0866
  790MOL0     C 6522  11.622   7.944   5.410 -0.0785 -0.7232 -0.7084
  790MOL0     O 6523  11.699   7.835   5.424  0.5960  0.1722 -0.6256
  790MOL0     C 6524  11.650   7.725   5.336 -0.2090 -0.4676  0.1741
  790MOL0     C 6525  11.737   7.600   5.350 -0.0578 -0.1187 -0.5216
  790MOL0     C 6526  11.872   7.632   5.284 -0.2101  0.1115 -0.9310
  790MOL0     C 6527  11.979   7.526   5.320 -0.8177 -0.2733  0.3196
  790MOL0     C 6528  12.004   7.485   5.466  0.3271 -0.8214 -0.3915
  790MOL0     C 6529  12.072   7.603   5.550 -0.1666  0.8083  0.8745
  790MOL0     C 6530  12.087   7.568   5.700  0.5924  0.0096  0.8605
  790MOL0     C 6531  12.192   7.458   5.709  0.2601  0.2732 -0.3978
  790MOL0     N 6532  12.220   7.449   5.851 -0.8096  0.1792 -0.9245
  790MOL0     C 6533  12.147   7.377   5.942  0.3304 -0.1825  0.9117
  790MOL0     C 6534  12.189   7.409   6.063 -0.3696  0.1468 -0.4162
  790MOL0     C 6535  12.139   7.353   6.189  0.6315  0.7814 -0.8653
  790MOL0     C 6536  11.986   7.374   6.181  0.4211  0.0998  0.6456
  790MOL0     C 6537  11.956   7.524   6.187 -0.8892  0.3293  0.0758
  790MOL0     C 6538  11.824   7.551   6.123  0.1827  0.6814 -0.3566
  790MOL0     O 6539  11.856   7.564   5.981  0.4363 -0.0030 -0.1051
  790MOL0     C 6540  11.740   7.601   5.915  0.1039  0.4155  0.4070
  790MOL0     C 6541  11.640   7.502   5.911  0.3554 -0.4486  0.0858
  790MOL0     C 6542  11.507   7.534   5.884 -0.1016 -0.3994  0.3263
  790MOL0     C 6543  11.476   7.664   5.852 -0.0531 -1.0362 -0.9966
  790MOL0     C 6544  11.336   7.701   5.822 -0.2658 -0.5870 -0.2290
  790MOL0     O 6545  11.312   7.834   5.783 -0.2638 -0.2442  0.6218
  790MOL0     C 6546  11.182   7.858   5.733 -0.0944  0.3096  0.0510
  790MOL0     C 6547  11.119   7.979   5.773 -0.1724  0.6235  0.5411
  790MOL0     C 6548  11.005   8.025   5.697 -0.0841  1.1597  0.4017
  790MOL0     C 6549  10.956   7.945   5.588 -0.1083 -0.1886 -0.3460
  790MOL0     O 6550  10.850   7.993   5.507  0.6539 -0.0752 -0.1850
  790MOL0     C 6551  10.810   8.132   5.516  0.4364 -0.4723  0.6074
  790MOL0     C 6552  10.718   8.188   5.400 -0.1274  0.4022 -0.4393
  790MOL0     C 6553  10.809   8.168   5.282  0.2763 -0.6681  0.2332
  790MOL0     C 6554  10.760   8.244   5.153 -0.7041 -1.0326  0.5825
  790MOL0     C 6555  10.830   8.185   5.033 -0.3919  0.7544  0.3858
  790MOL0     C 6556  10.786   8.036   5.004 -0.2295 -1.2096 -0.1543
  790MOL0     C 6557  10.862   7.963   4.895  0.1478 -0.1911 -0.0507
  790MOL0     C 6558  10.807   8.020   4.757 -0.6497  0.3813  1.1161
  790MOL0    Cl 6559  10.626   8.012   4.733 -0.2463 -0.1814  0.7012
  790MOL0     C 6560  11.014   7.822   5.562  0.3148 -0.2123 -0.4744
  790MOL0     C 6561  11.130   7.780   5.623  0.7295  0.9582 -0.5343
  790MOL0     O 6562  11.258   7.607   5.837  0.3967  1.0964  0.7651
  790MOL0     C 6563  11.583   7.758   5.858 -0.9386  0.4101  0.2848
  790MOL0     C 6564  11.711   7.730   5.886 -0.8656  0.4238  0.4604
  790MOL0     N 6565  12.284   7.506   6.048 -0.2817 -0.4151 -0.4335
  790MOL0     N 6566  12.303   7.527   5.929  0.4918  0.1877  0.4385
  790MOL0     C 6567  11.646   8.028   5.309  0.9453  0.1323  0.3588
  790MOL0     C 6568  11.554   8.133   5.287 -0.5702 -0.5939  0.4587
  790MOL0     C 6569  11.182   8.363   5.232 -0.4265  0.2030 -0.5276
  790MOL0     C 6570  11.147   8.408   5.103 -0.1136  0.2270 -0.6744
  790MOL0     C 6571  11.051   8.506   5.094 -0.2757 -0.2550 -0.5069
  790MOL0     C 6572  10.985   8.566   5.207  0.3982 -0.9578 -0.4843
  790MOL0     O 6573  10.909   8.682   5.198  0.1278  0.1473  0.3604
  790MOL0     C 6574  10.879   8.732   5.063  0.3158  0.7127  0.0233
  790MOL0     C 6575  10.766   8.829   5.075  0.7328  0.2972 -0.1017
  790MOL0     C 6576  10.712   8.864   4.932  0.3991 -0.8496  0.1171
  790MOL0     C 6577  10.659   9.005   4.938 -0.3809 -0.2097 -0.1607
  790MOL0     C 6578  10.762   9.095   4.893 -0.8603  0.0237  0.9859
  790MOL0     C 6579  10.847   9.167   4.844  0.5994 -0.5123 -0.4605
  790MOL0     C 6580  11.009   8.513   5.331  0.0337  0.1627 -0.0902
  790MOL0     C 6581  11.106   8.411   5.347 -0.1418 -0.7614 -0.4390
  790MOL0     C 6582  11.130   8.361   5.490  0.0791  0.2397  0.0196
  790MOL0     H 6583  11.343   8.078   5.542  1.4836 -1.0493  1.7847
  790MOL0     H 6584  11.491   7.881   5.572  0.3214  0.6105  1.6517
  790MOL0     H 6585  11.543   7.706   5.341 -0.3135  0.2383  0.6555
  790MOL0     H 6586  11.661   7.757   5.232 -2.8099  1.2062  0.3514
  790MOL0     H 6587  11.684   7.512   5.311  0.8327 -0.4125 -1.1032
  790MOL0     H 6588  11.746   7.576   5.456  2.6138  0.3773 -0.5638
  790MOL0     H 6589  11.907   7.726   5.326 -0.0206 -1.3081  2.4375
  790MOL0     H 6590  11.859   7.644   5.177 -1.2383  0.1218 -0.8153
  790MOL0     H 6591  11.948   7.434   5.270 -3.0559  1.6170 -2.0492
  790MOL0     H 6592  12.078   7.554   5.283 -0.3109 -1.3332  0.8348
  790MOL0     H 6593  11.915   7.450   5.519 -0.5137  0.1555 -1.1312
  790MOL0     H 6594  12.076   7.402   5.470  2.1558  0.6713 -0.7485
  790MOL0     H 6595  12.162   7.625   5.492 -0.2926 -1.7734 -0.4361
  790MOL0     H 6596  12.015   7.695   5.533 -0.9983  0.3431  1.0940
  790MOL0     H 6597  11.993   7.539   5.748  1.2965 -1.0585  1.6387
  790MOL0     H 6598  12.122   7.651   5.762  1.5457 -0.9357  1.6265
  790MOL0     H 6599  12.148   7.367   5.665 -1.3453  0.6192  0.4003
  790MOL0     H 6600  12.282   7.484   5.653 -1.0376  3.5720 -1.2016
  790MOL0     H 6601  12.073   7.298   5.929  2.8216 -2.7184  1.0497
  790MOL0     H 6602  12.164   7.247   6.192 -2.2864 -0.2218 -4.2030
  790MOL0     H 6603  12.185   7.391   6.280 -0.7974 -3.8359  2.1194
  790MOL0     H 6604  11.944   7.331   6.089 -1.0184 -0.5841  1.5988
  790MOL0     H 6605  11.943   7.317   6.263 -0.9517 -0.9968 -0.7899
  790MOL0     H 6606  12.033   7.586   6.140 -1.1933 -0.6091 -1.7463
  790MOL0     H 6607  11.953   7.557   6.292 -3.7028  2.4833 -0.5718
  790MOL0     H 6608  11.776   7.645   6.153  0.8520  0.7203  0.6196
  790MOL0     H 6609  11.750   7.472   6.135 -0.0036  0.4861 -2.4296
  790MOL0     H 6610  11.669   7.399   5.931 -0.8004 -1.0752 -1.2958
  790MOL0     H 6611  11.431   7.459   5.902 -0.7953 -0.6254 -3.0188
  790MOL0     H 6612  11.148   8.029   5.865  1.7422  0.1918  0.2126
  790MOL0     H 6613  10.962   8.122   5.722 -0.3290  1.0898  0.2621
  790MOL0     H 6614  10.753   8.148   5.608 -0.3072  1.2435 -0.1084
  790MOL0     H 6615  10.907   8.182   5.527  1.2878 -1.2292 -2.3090
  790MOL0     H 6616  10.620   8.142   5.384 -0.1967  1.3405 -3.3082
  790MOL0     H 6617  10.709   8.294   5.424 -3.1174  0.6362 -2.1125
  790MOL0     H 6618  10.907   8.209   5.307  0.0497 -0.4672  0.7998
  790MOL0     H 6619  10.825   8.061   5.267  1.3195 -0.1731 -2.8783
  790MOL0     H 6620  10.781   8.352   5.157 -1.9273 -0.7585  0.0269
  790MOL0     H 6621  10.652   8.231   5.148 -1.4516  2.5940  2.9906
  790MOL0     H 6622  10.939   8.189   5.026 -0.2673 -2.1192 -1.0541
  790MOL0     H 6623  10.785   8.243   4.952 -0.6083  0.1829  0.0914
  790MOL0     H 6624  10.805   7.983   5.098 -0.0832 -0.4756  0.2336
  790MOL0     H 6625  10.678   8.031   4.985 -0.6842 -2.7619  2.2594
  790MOL0     H 6626  10.852   7.854   4.892  1.2231 -0.3516  1.4337
  790MOL0     H 6627  10.970   7.970   4.904  0.4809 -3.2903 -0.5777
  790MOL0     H 6628  10.824   8.128   4.755 -0.3701  0.3455 -0.5958
  790MOL0     H 6629  10.846   7.976   4.664 -2.3727  1.1354 -0.0043
  790MOL0     H 6630  10.977   7.765   5.478 -1.0577  0.2399 -0.2035
  790MOL0     H 6631  11.165   7.694   5.566 -1.2685 -0.7953  0.6933
  790MOL0     H 6632  11.572   7.865   5.847  0.9607  0.6589  0.4351
  790MOL0     H 6633  11.786   7.808   5.881  3.0118 -2.9980 -1.5530
  790MOL0     H 6634  11.736   8.027   5.250  0.6800  1.2649 -0.0886
  790MOL0     H 6635  11.576   8.213   5.218  1.2005 -1.2426  0.2241
  790MOL0     H 6636  11.191   8.363   5.015  2.3571 -2.3564  1.6645
  790MOL0     H 6637  11.018   8.535   4.995 -2.3774 -2.4069 -0.5232
  790MOL0     H 6638  10.848   8.651   4.996 -1.3893  0.8478  0.5897
  790MOL0     H 6639  10.963   8.777   5.009  0.7819 -0.5857 -0.3678
  790MOL0     H 6640  10.789   8.909   5.145 -0.8295 -1.4888  2.6194
  790MOL0     H 6641  10.682   8.774   5.118  2.9450 -1.7702  1.8325
  790MOL0     H 6642  10.636   8.792   4.902  1.6074 -1.5354 -1.4286
  790MOL0     H 6643  10.789   8.845   4.858 -2.0578 -1.9512 -2.3141
  790MOL0     H 6644  10.571   9.000   4.874 -0.4936 -4.9068  0.0081
  790MOL0     H 6645  10.639   9.038   5.041  1.4274  1.0392 -0.1622
  790MOL0     H 6646  10.911   9.246   4.809  1.2391 -0.3922  0.9475
  790MOL0     H 6647  10.949   8.545   5.416  0.9954 -0.7096  0.9407
  790MOL0     H 6648  11.044   8.379   5.555  1.8045  1.1227  2.1989
  790MOL0     H 6649  11.137   8.252   5.479  1.9484  0.2641  0.5908
  790MOL0     H 6650  11.219   8.392   5.544  1.3641 -0.8581 -1.3670
  791MOL0     O 6651   7.887   0.817   9.042  0.5746 -0.3473  0.5567
  791MOL0     C 6652   7.835   0.731   8.956 -0.5770 -0.8629 -0.9060
  791MOL0     O 6653   7.896   0.610   8.931  0.6017  0.6423 -0.3659
  791MOL0     C 6654   8.031   0.583   8.969  0.5929  0.5239 -0.0820
  791MOL0     C 6655   8.095   0.605   9.091  0.8188  0.0273  0.1278
  791MOL0     C 6656   8.223   0.568   9.112 -0.3953  0.5736 -0.3628
  791MOL0     C 6657   8.300   0.526   9.004 -0.7252  0.2254  0.4650
  791MOL0     O 6658   8.437   0.527   9.016  0.7863 -0.1205 -0.2247
  791MOL0     C 6659   8.526   0.475   8.914 -0.8646  0.3803 -0.5066
  791MOL0     C 6660   8.663   0.470   8.975 -0.6368  0.0669  0.2795
  791MOL0     C 6661   8.678   0.392   9.107 -0.3737  0.1844 -0.0189
  791MOL0     C 6662   8.649   0.459   9.242  0.0274  0.5371 -0.2734
  791MOL0     C 6663   8.700   0.383   9.365  0.2128 -0.1257 -0.1077
  791MOL0     C 6664   8.638   0.237   9.366 -0.0293 -0.7005  1.0231
  791MOL0     C 6665   8.490   0.222   9.413 -0.9406 -0.4112  0.6858
  791MOL0     C 6666   8.447   0.073   9.395  0.2787  0.0185 -0.4149
  791MOL0     N 6667   8.452   0.033   9.255 -0.7686 -0.2097 -0.1798
  791MOL0     C 6668   8.346   0.054   9.174 -0.1175  0.4062  0.6916
  791MOL0     C 6669   8.364  -0.026   9.060 -0.0176  0.1241  0.4793
  791MOL0     C 6670   8.268  -0.040   8.947  0.4974  0.1212  0.3355
  791MOL0     C 6671   8.270  -0.180   8.874  0.0466 -0.6192  1.0991
  791MOL0     C 6672   8.400  -0.220   8.813 -0.7415  0.1720 -0.1330
  791MOL0     C 6673   8.384  -0.339   8.708 -1.0565 -0.2846  0.2423
  791MOL0     O 6674   8.300  -0.285   8.596 -0.3237  0.7845 -0.8652
  791MOL0     C 6675   8.355  -0.217   8.481 -0.2207  0.3014 -0.5305
  791MOL0     C 6676   8.490  -0.170   8.479  0.8050  0.1572  0.2036
  791MOL0     C 6677   8.527  -0.103   8.363  0.0935 -0.1439  0.6011
  791MOL0     C 6678   8.441  -0.086   8.256  0.3116  0.2273 -0.0548
  791MOL0     C 6679   8.498  -0.016   8.140  0.0079  0.7648 -1.2503
  791MOL0     O 6680   8.402   0.032   8.043  0.1218 -0.2984  0.3163
  791MOL0     C 6681   8.451   0.102   7.939 -1.0333 -0.4679 -0.5395
  791MOL0     C 6682   8.408   0.223   7.895  0.0082  0.0270 -0.0205
  791MOL0     C 6683   8.460   0.282   7.774  0.3551 -0.3285  0.0341
  791MOL0     C 6684   8.559   0.226   7.702  0.1679  0.6085  0.1169
  791MOL0     O 6685   8.598   0.291   7.584  0.4612 -0.1508 -0.2426
  791MOL0     C 6686   8.656   0.207   7.486 -0.2360  0.4183 -0.0513
  791MOL0     C 6687   8.645   0.263   7.343 -0.5449  0.0974 -0.5659
  791MOL0     C 6688   8.501   0.309   7.304  0.3170 -0.4111 -0.7747
  791MOL0     C 6689   8.464   0.292   7.159 -0.1735 -0.1181 -0.4061
  791MOL0     C 6690   8.327   0.336   7.123 -0.1012  0.0837  0.2103
  791MOL0     C 6691   8.272   0.469   7.162 -0.7021 -0.0453  0.1338
  791MOL0     C 6692   8.316   0.588   7.068  0.1013  0.2696  0.4895
  791MOL0     C 6693   8.466   0.608   7.068  0.1283 -0.0871  0.1401
  791MOL0    Cl 6694   8.499   0.730   6.954 -0.0358  0.1729 -0.2348
  791MOL0     C 6695   8.610   0.106   7.750 -0.0210  0.1748 -0.4209
  791MOL0     C 6696   8.561   0.048   7.868 -0.2143  0.2697 -0.0135
  791MOL0     O 6697   8.617   0.019   8.145 -0.0063  0.0601 -0.4201
  791MOL0     C 6698   8.308  -0.117   8.257  0.4157 -0.0226 -0.0896
  791MOL0     C 6699   8.265  -0.184   8.373  0.1579 -0.2400  0.5316
  791MOL0     N 6700   8.498  -0.072   9.073  0.9863 -0.2353 -0.0006
  791MOL0     N 6701   8.545  -0.046   9.190  0.2422  0.0757  0.6654
  791MOL0     C 6702   8.238   0.487   8.886  0.1460  0.3236 -0.2930
  791MOL0     C 6703   8.101   0.512   8.869  0.4097 -0.4425  0.7138
  791MOL0     C 6704   7.709   0.756   8.877  0.7756 -0.1623 -0.3744
  791MOL0     C 6705   7.651   0.643   8.825  0.4423 -0.3316 -0.3109
  791MOL0     C 6706   7.537   0.642   8.745 -0.3870  0.4962  0.3007
  791MOL0     C 6707   7.482   0.768   8.708  0.3107 -0.0439 -0.5589
  791MOL0     O 6708   7.403   0.761   8.598 -0.8579  0.4418 -0.3497
  791MOL0     C 6709   7.322   0.880   8.563 -0.4521  0.3693 -1.0353
  791MOL0     C 6710   7.270   0.886   8.419  0.2387  0.0910  0.8548
  791MOL0     C 6711   7.388   0.930   8.319 -0.5124 -0.2577  0.3373
  791MOL0     C 6712   7.350   0.918   8.164 -1.2544  0.0362  0.2203
  791MOL0     C 6713   7.251   1.023   8.132 -0.0552  1.1573 -0.1574
  791MOL0     C 6714   7.180   1.095   8.073 -1.0349 -0.8456 -0.5595
  791MOL0     C 6715   7.528   0.883   8.769 -0.6601  0.6137 -0.4081
  791MOL0     C 6716   7.643   0.880   8.859 -0.3957  0.4715 -0.4588
  791MOL0     C 6717   7.694   1.015   8.917 -0.1050  1.5244  0.4177
  791MOL0     H 6718   8.041   0.654   9.172  0.1290  0.2275 -0.4394
  791MOL0     H 6719   8.263   0.601   9.207 -2.6701 -1.0429  1.2861
  791MOL0     H 6720   8.497   0.376   8.878 -3.7418  1.4058 -1.3774
  791MOL0     H 6721   8.537   0.543   8.828  2.3411  0.2329 -0.3243
  791MOL0     H 6722   8.704   0.571   8.973  1.9873 -0.9124 -1.0469
  791MOL0     H 6723   8.722   0.399   8.917  0.1370 -1.2196  2.5088
  791MOL0     H 6724   8.788   0.386   9.114 -0.1089  3.8649  1.3316
  791MOL0     H 6725   8.623   0.298   9.102 -0.1080 -0.2016  2.5715
  791MOL0     H 6726   8.699   0.556   9.249  0.8492  0.0663  0.6154
  791MOL0     H 6727   8.539   0.462   9.249 -0.2919 -3.9355 -0.3419
  791MOL0     H 6728   8.809   0.377   9.354  0.1871  1.6877 -2.1202
  791MOL0     H 6729   8.662   0.434   9.454 -1.6003 -3.7338  1.3704
  791MOL0     H 6730   8.661   0.179   9.276 -0.2924 -1.2585  1.3085
  791MOL0     H 6731   8.693   0.187   9.446  2.3215 -4.4405 -2.5439
  791MOL0     H 6732   8.429   0.290   9.351 -0.4842 -0.5654  0.0562
  791MOL0     H 6733   8.489   0.250   9.518  2.4138 -0.7828  0.9305
  791MOL0     H 6734   8.507  -0.000   9.450  0.2520  0.5389  0.3278
  791MOL0     H 6735   8.344   0.055   9.425  0.5736 -2.8401 -0.8242
  791MOL0     H 6736   8.257   0.114   9.189 -1.0686 -0.6882 -0.3819
  791MOL0     H 6737   8.166  -0.043   8.986 -0.9001  0.7159 -2.9840
  791MOL0     H 6738   8.281   0.040   8.874 -0.1449  0.3461  0.4575
  791MOL0     H 6739   8.243  -0.256   8.948  1.1109 -0.7061  1.4279
  791MOL0     H 6740   8.190  -0.177   8.799  1.4243  0.3923 -0.3969
  791MOL0     H 6741   8.472  -0.255   8.887  0.7481 -0.2715 -1.7073
  791MOL0     H 6742   8.445  -0.129   8.773  1.4420 -0.0674  1.5534
  791MOL0     H 6743   8.348  -0.437   8.742 -0.4280 -0.0715  1.6168
  791MOL0     H 6744   8.482  -0.361   8.665 -0.3004  2.3732  0.4439
  791MOL0     H 6745   8.560  -0.184   8.561 -0.7389 -2.2765  1.2484
  791MOL0     H 6746   8.633  -0.079   8.359 -0.1512  0.9584 -2.3384
  791MOL0     H 6747   8.332   0.278   7.951 -1.6013 -0.5332 -1.5879
  791MOL0     H 6748   8.412   0.376   7.751 -1.0640  0.1108  4.0849
  791MOL0     H 6749   8.765   0.200   7.494 -0.2291  1.3799  0.9424
  791MOL0     H 6750   8.609   0.109   7.490  0.6035 -0.0172 -0.5969
  791MOL0     H 6751   8.708   0.351   7.328  0.8171 -0.9728 -1.3378
  791MOL0     H 6752   8.697   0.194   7.275  4.7450  1.7180  1.3086
  791MOL0     H 6753   8.434   0.260   7.375 -0.4362  0.1327 -1.0900
  791MOL0     H 6754   8.485   0.415   7.328  2.7380  0.0438 -0.8605
  791MOL0     H 6755   8.482   0.191   7.120  0.2854  0.2375 -1.1341
  791MOL0     H 6756   8.541   0.345   7.102  1.2072 -0.2147  1.2871
  791MOL0     H 6757   8.261   0.261   7.169  0.4334  0.0775  0.9749
  791MOL0     H 6758   8.314   0.312   7.017  0.3731  0.0562  0.1596
  791MOL0     H 6759   8.164   0.451   7.158 -0.5085 -2.1064  2.0885
  791MOL0     H 6760   8.300   0.480   7.267  3.1926 -3.8434 -0.2640
  791MOL0     H 6761   8.261   0.671   7.113 -0.7815 -0.1096  0.1144
  791MOL0     H 6762   8.267   0.556   6.976 -0.3368 -1.3470  1.2404
  791MOL0     H 6763   8.504   0.628   7.168  2.6056 -2.2551 -0.2334
  791MOL0     H 6764   8.529   0.522   7.039  0.4904  0.6755 -1.4678
  791MOL0     H 6765   8.688   0.060   7.690  2.5143  1.7136  1.5050
  791MOL0     H 6766   8.595  -0.051   7.897  1.7499  0.3642 -1.7848
  791MOL0     H 6767   8.234  -0.102   8.179  0.3043  1.0731  0.2076
  791MOL0     H 6768   8.160  -0.210   8.382 -0.2756  1.3629  0.3968
  791MOL0     H 6769   8.296   0.449   8.803  0.1699  0.6036 -0.4047
  791MOL0     H 6770   8.042   0.492   8.780  0.1038 -0.5650  0.9389
  791MOL0     H 6771   7.694   0.544   8.838 -0.3975 -0.7160 -0.4278
  791MOL0     H 6772   7.493   0.560   8.689 -0.8096  1.9956 -1.6700
  791MOL0     H 6773   7.374   0.975   8.581  4.6349 -1.8726 -1.9274
  791MOL0     H 6774   7.232   0.873   8.623  0.7940 -0.0998  0.8571
  791MOL0     H 6775   7.187   0.956   8.405  0.9875  1.0318  0.9555
  791MOL0     H 6776   7.233   0.787   8.390 -4.3792  1.3564  1.6315
  791MOL0     H 6777   7.462   0.850   8.328 -1.3811 -0.9950  1.1870
  791MOL0     H 6778   7.434   1.026   8.340  0.4463  0.4616 -4.0605
  791MOL0     H 6779   7.444   0.929   8.110 -0.5978 -1.5823  0.9754
  791MOL0     H 6780   7.314   0.816   8.148  3.4444 -1.8289  0.0574
  791MOL0     H 6781   7.120   1.156   8.009  0.9489 -2.0312 -3.8500
  791MOL0     H 6782   7.484   0.980   8.748 -2.2713 -0.4578 -2.2521
  791MOL0     H 6783   7.797   1.028   8.884 -0.2897 -0.7777 -1.3151
  791MOL0     H 6784   7.629   1.101   8.902  0.7365  1.8894 -1.2999
  791MOL0     H 6785   7.705   1.015   9.026  0.3957  0.5185  0.3767
  792MOL0     O 6786  10.668   6.983   3.739  0.2323  0.6659 -0.9914
  792MOL0     C 6787  10.650   7.081   3.671 -0.7885  0.2946  0.6874
  792MOL0     O 6788  10.745   7.122   3.576  0.0440  0.3870  0.2027
  792MOL0     C 6789  10.876   7.071   3.595 -0.2975 -0.6326 -0.4338
  792MOL0     C 6790  10.951   7.120   3.698  0.3836 -0.6569 -0.4166
  792MOL0     C 6791  11.077   7.067   3.716  0.3035 -0.5843 -1.4928
  792MOL0     C 6792  11.127   6.965   3.640 -0.3605  0.8032 -0.3792
  792MOL0     O 6793  11.251   6.922   3.680  0.2190  0.0110 -0.0028
  792MOL0     C 6794  11.360   6.919   3.589  0.3104 -0.5197 -0.8246
  792MOL0     C 6795  11.496   6.946   3.664 -0.8714 -0.6019  0.0133
  792MOL0     C 6796  11.608   6.964   3.556  0.6893 -0.0414 -0.4251
  792MOL0     C 6797  11.748   6.979   3.628  0.5439 -0.1510 -0.3805
  792MOL0     C 6798  11.809   7.122   3.589  0.2685  0.5828  0.6449
  792MOL0     C 6799  11.960   7.157   3.636 -0.3385  0.2809  0.3218
  792MOL0     C 6800  11.980   7.119   3.789  0.8386 -0.5047  0.5202
  792MOL0     C 6801  11.894   7.214   3.865 -0.4322 -0.3658 -0.2904
  792MOL0     N 6802  11.759   7.177   3.905  0.2526  0.0573 -0.0197
  792MOL0     C 6803  11.730   7.074   3.992 -0.8566 -1.4667 -0.4903
  792MOL0     C 6804  11.596   7.078   4.007 -0.0689  0.5454  1.3674
  792MOL0     C 6805  11.509   6.986   4.074 -0.0735  0.3882  0.6103
  792MOL0     C 6806  11.423   6.901   3.982 -0.3814 -0.4501  0.1374
  792MOL0     C 6807  11.312   6.823   4.058 -1.1784  0.5605  0.2284
  792MOL0     C 6808  11.164   6.864   4.059 -0.0621 -0.0974  0.3583
  792MOL0     O 6809  11.084   6.765   4.125  0.6311  0.6735  0.7234
  792MOL0     C 6810  10.947   6.793   4.119 -0.1914  0.0698  0.3297
  792MOL0     C 6811  10.881   6.915   4.073 -0.1738  0.1612 -0.7077
  792MOL0     C 6812  10.740   6.922   4.073  0.9825 -0.3905 -0.4918
  792MOL0     C 6813  10.655   6.809   4.107 -0.4434  0.2258 -0.3107
  792MOL0     C 6814  10.513   6.812   4.092  0.7833 -0.0746  0.1809
  792MOL0     O 6815  10.458   6.917   4.026  0.0150  0.0422 -0.3846
  792MOL0     C 6816  10.319   6.943   4.036  0.9504  0.1901 -0.4423
  792MOL0     C 6817  10.211   6.846   4.047 -0.1537 -0.3148  0.0307
  792MOL0     C 6818  10.079   6.876   4.050 -0.0017  0.1833 -0.0626
  792MOL0     C 6819  10.051   7.012   4.043  0.3275  0.9545 -0.3906
  792MOL0     O 6820   9.911   7.029   4.049  0.7091  0.3269 -0.3633
  792MOL0     C 6821   9.850   7.083   3.926  0.5424 -0.7223  0.0669
  792MOL0     C 6822   9.743   6.992   3.858 -0.0480 -0.2599  0.4384
  792MOL0     C 6823   9.813   6.911   3.741 -0.1744 -0.2795 -0.2110
  792MOL0     C 6824   9.809   6.973   3.600 -0.4918  0.3994 -0.0053
  792MOL0     C 6825   9.666   6.945   3.548 -0.9213  1.0379  0.2462
  792MOL0     C 6826   9.620   7.054   3.450 -0.0264 -0.3649  0.4727
  792MOL0     C 6827   9.692   7.050   3.308  0.0063 -0.4213  0.5711
  792MOL0     C 6828   9.655   6.926   3.230 -0.4606 -0.1146  0.1568
  792MOL0    Cl 6829   9.726   6.927   3.077 -0.1616  0.1548 -0.0338
  792MOL0     C 6830  10.152   7.105   4.023 -0.0882 -0.5927  0.6171
  792MOL0     C 6831  10.283   7.072   4.019  0.2958 -1.3661 -0.0736
  792MOL0     O 6832  10.452   6.726   4.153  0.4300  0.9600 -0.3961
  792MOL0     C 6833  10.723   6.693   4.163 -0.4576  0.3223  0.4697
  792MOL0     C 6834  10.864   6.695   4.161 -0.5418 -0.6146 -0.4033
  792MOL0     N 6835  11.553   7.185   3.932  0.1913  0.9641 -0.3836
  792MOL0     N 6836  11.647   7.250   3.886 -0.1689 -0.5362  0.5727
  792MOL0     C 6837  11.048   6.906   3.544  0.1477 -0.7872 -0.8198
  792MOL0     C 6838  10.922   6.957   3.512  0.1463 -0.0212  0.3512
  792MOL0     C 6839  10.521   7.154   3.648 -0.3105  0.2299  0.0595
  792MOL0     C 6840  10.399   7.073   3.650  0.2114  0.0930 -0.6497
  792MOL0     C 6841  10.269   7.114   3.600 -0.1673 -0.5765 -0.8865
  792MOL0     C 6842  10.257   7.246   3.557  0.4269 -0.8287  0.1680
  792MOL0     O 6843  10.130   7.290   3.532  0.7265  0.4394  0.1336
  792MOL0     C 6844  10.111   7.427   3.482  0.0834 -0.6909 -0.2743
  792MOL0     C 6845   9.964   7.468   3.504 -0.1134 -0.0584  0.7136
  792MOL0     C 6846   9.854   7.374   3.459 -0.4858 -0.3910  0.1981
  792MOL0     C 6847   9.723   7.425   3.516 -0.6438 -0.1349 -0.4821
  792MOL0     C 6848   9.711   7.387   3.657  0.5689 -0.3723  0.1445
  792MOL0     C 6849   9.683   7.342   3.768  0.1571 -0.4631  1.2680
  792MOL0     C 6850  10.373   7.327   3.559  0.6529  0.1318  0.1268
  792MOL0     C 6851  10.498   7.286   3.608 -0.4548 -0.4049  0.1209
  792MOL0     C 6852  10.601   7.382   3.618 -0.3258  0.3017  0.4483
  792MOL0     H 6853  10.902   7.193   3.762 -0.6649 -0.2633 -1.6090
  792MOL0     H 6854  11.138   7.095   3.801 -2.2646  0.1377  0.1975
  792MOL0     H 6855  11.373   6.822   3.542  3.6201 -1.0127  0.8115
  792MOL0     H 6856  11.339   6.986   3.505 -3.1078 -0.2725  0.0734
  792MOL0     H 6857  11.521   6.871   3.739 -2.6886  1.4056  2.8686
  792MOL0     H 6858  11.487   7.037   3.723 -3.4810  0.3286 -1.6266
  792MOL0     H 6859  11.591   7.059   3.504  1.7337  1.5566  2.0362
  792MOL0     H 6860  11.601   6.895   3.470 -1.7806  0.5255 -0.7588
  792MOL0     H 6861  11.731   6.982   3.736 -1.3004  0.6563 -0.6481
  792MOL0     H 6862  11.811   6.896   3.594 -2.3733 -2.1483 -1.3226
  792MOL0     H 6863  11.801   7.128   3.480 -4.4005 -0.0256  0.7264
  792MOL0     H 6864  11.752   7.213   3.610  0.6919  1.5475 -2.0440
  792MOL0     H 6865  12.039   7.105   3.582 -2.6504 -1.6745 -1.4315
  792MOL0     H 6866  11.982   7.262   3.615 -0.1570 -0.1656 -2.0093
  792MOL0     H 6867  12.086   7.131   3.814  0.9847 -0.0667 -0.2786
  792MOL0     H 6868  11.952   7.016   3.811  1.5719 -0.8297 -0.0320
  792MOL0     H 6869  11.942   7.222   3.963  1.0104  0.9002 -1.0564
  792MOL0     H 6870  11.895   7.313   3.819 -0.0998 -0.1846  0.0935
  792MOL0     H 6871  11.804   7.004   4.027 -0.8043 -1.1949 -0.0520
  792MOL0     H 6872  11.555   6.922   4.150 -1.8287 -3.3449 -1.1723
  792MOL0     H 6873  11.437   7.052   4.122 -0.7660 -0.8471  1.3449
  792MOL0     H 6874  11.371   6.961   3.907 -0.5406  1.0137  1.3821
  792MOL0     H 6875  11.491   6.832   3.931  0.6030 -0.2292  1.1212
  792MOL0     H 6876  11.336   6.794   4.161 -0.2087 -3.7248 -0.9853
  792MOL0     H 6877  11.305   6.725   4.010 -1.6624 -0.0615  1.5063
  792MOL0     H 6878  11.139   6.890   3.956  0.1855  0.9599  0.5554
  792MOL0     H 6879  11.137   6.942   4.131 -0.7935 -2.2289  2.5730
  792MOL0     H 6880  10.937   7.003   4.041  0.9606 -0.5461 -0.7138
  792MOL0     H 6881  10.687   7.004   4.026  2.2030  0.4191 -0.4994
  792MOL0     H 6882  10.235   6.741   4.036  0.9582 -0.2818  1.7505
  792MOL0     H 6883   9.991   6.814   4.061 -0.2345  0.5858  0.3790
  792MOL0     H 6884   9.793   7.174   3.948 -0.0193 -1.4560  1.8017
  792MOL0     H 6885   9.918   7.119   3.847  0.8489 -2.7714 -0.6543
  792MOL0     H 6886   9.696   6.925   3.931 -2.3528 -0.8157 -1.4418
  792MOL0     H 6887   9.650   7.040   3.828 -0.1063  0.4003  1.6266
  792MOL0     H 6888   9.918   6.907   3.771 -0.0586  2.7074  0.1037
  792MOL0     H 6889   9.772   6.810   3.735 -0.2009 -0.2913  0.1565
  792MOL0     H 6890   9.884   6.943   3.526 -0.3824  0.0634  0.2394
  792MOL0     H 6891   9.826   7.081   3.608  3.1172  0.1952 -2.4895
  792MOL0     H 6892   9.593   6.946   3.629  0.5863  1.3898  1.6451
  792MOL0     H 6893   9.657   6.843   3.509 -2.1399  1.4046 -0.4976
  792MOL0     H 6894   9.511   7.045   3.444  0.0217 -0.0233 -1.8107
  792MOL0     H 6895   9.644   7.151   3.493 -0.1196 -0.5518  0.9492
  792MOL0     H 6896   9.798   7.032   3.328  0.1653  1.9169  2.1647
  792MOL0     H 6897   9.680   7.143   3.252  2.1889  0.8715  2.0807
  792MOL0     H 6898   9.702   6.844   3.285  1.0044  0.5529 -0.0688
  792MOL0     H 6899   9.548   6.903   3.234 -0.3878 -0.2575  2.8578
  792MOL0     H 6900  10.133   7.212   4.015 -2.2586 -0.8101  1.9888
  792MOL0     H 6901  10.355   7.154   4.012 -1.3500  0.0112 -5.0479
  792MOL0     H 6902  10.671   6.602   4.193  2.3808 -0.6966  2.6748
  792MOL0     H 6903  10.910   6.604   4.197  0.3938  0.2617  0.7079
  792MOL0     H 6904  11.080   6.811   3.503 -0.0362 -1.7294  1.1222
  792MOL0     H 6905  10.858   6.920   3.433 -1.6133  3.3370  0.0289
  792MOL0     H 6906  10.413   6.975   3.695 -0.8130  1.2201  2.3412
  792MOL0     H 6907  10.176   7.057   3.598 -1.2696  1.0908  0.4906
  792MOL0     H 6908  10.140   7.450   3.379 -0.5706  1.5532 -0.0099
  792MOL0     H 6909  10.160   7.502   3.544  3.1463  1.3549 -4.6729
  792MOL0     H 6910   9.954   7.562   3.449 -0.4697  1.2553  2.9318
  792MOL0     H 6911   9.952   7.500   3.608 -3.3427  0.0558  0.4070
  792MOL0     H 6912   9.869   7.268   3.480  1.1672 -0.2631 -0.2511
  792MOL0     H 6913   9.846   7.376   3.350  0.9665 -0.8332  0.0644
  792MOL0     H 6914   9.710   7.533   3.514  1.5363  0.1749 -0.7105
  792MOL0     H 6915   9.647   7.374   3.455  1.2440 -0.3034 -2.8569
  792MOL0     H 6916   9.661   7.322   3.871  0.5433 -1.4237  1.1819
  792MOL0     H 6917  10.364   7.427   3.519 -1.1878 -0.4638 -1.0878
  792MOL0     H 6918  10.569   7.486   3.616 -0.2679  0.3100 -0.6756
  792MOL0     H 6919  10.650   7.357   3.712  0.5472  0.5166  0.0580
  792MOL0     H 6920  10.667   7.375   3.531 -0.4072  1.5790  0.2673
  793MOL0     O 6921   9.520   0.647  10.470  0.5595 -0.9567 -0.1654
  793MOL0     C 6922   9.462   0.609  10.572 -0.9191 -0.5368 -1.5967
  793MOL0     O 6923   9.447   0.681  10.688 -1.1487  0.7684 -0.8550
  793MOL0     C 6924   9.528   0.788  10.712  0.1401 -0.6637 -0.0521
  793MOL0     C 6925   9.467   0.907  10.704  1.4764 -0.6356 -0.5570
  793MOL0     C 6926   9.542   1.020  10.708 -0.2259 -0.6423 -1.0311
  793MOL0     C 6927   9.676   1.017  10.730 -0.2300 -0.3278 -0.8940
  793MOL0     O 6928   9.761   1.131  10.737  0.5904  0.4796 -0.3487
  793MOL0     C 6929   9.712   1.266  10.715  0.7147 -1.4684  1.6792
  793MOL0     C 6930   9.693   1.289  10.562  0.3382  0.7427 -0.6319
  793MOL0     C 6931   9.832   1.289  10.491  0.1958  0.0717 -0.1790
  793MOL0     C 6932   9.823   1.385  10.363  0.4177 -0.1738  0.2315
  793MOL0     C 6933   9.963   1.389  10.296  0.8448  0.0667  0.0964
  793MOL0     C 6934   9.954   1.428  10.149  0.7962  0.1239 -0.1226
  793MOL0     C 6935  10.036   1.327  10.066  0.3296  0.0378 -0.1618
  793MOL0     C 6936   9.963   1.184  10.066 -0.6700 -1.3008  0.0566
  793MOL0     N 6937  10.052   1.091  10.006  0.1840  0.6292  0.4251
  793MOL0     C 6938  10.112   1.105   9.889  0.5552  0.7566 -0.1970
  793MOL0     C 6939  10.210   1.013   9.885  0.0207 -0.5235  0.0595
  793MOL0     C 6940  10.332   1.003   9.790  0.4799 -0.1188 -0.5116
  793MOL0     C 6941  10.350   0.861   9.722  0.0477 -1.1007 -0.1645
  793MOL0     C 6942  10.243   0.844   9.606 -0.1550 -0.5554  0.2094
  793MOL0     C 6943  10.284   0.708   9.543 -0.1249  0.0918 -0.6114
  793MOL0     O 6944  10.197   0.686   9.426 -0.6610 -0.3289 -0.6293
  793MOL0     C 6945  10.087   0.607   9.434 -0.0846 -0.0407  0.4754
  793MOL0     C 6946  10.020   0.574   9.545 -0.8298  0.4141 -0.4196
  793MOL0     C 6947   9.910   0.490   9.549 -0.0322  1.1388  0.1613
  793MOL0     C 6948   9.857   0.447   9.428  0.1457 -0.1630 -0.7138
  793MOL0     C 6949   9.733   0.361   9.423 -0.4059 -0.3058 -0.2668
  793MOL0     O 6950   9.699   0.301   9.304  0.2626 -0.7034  0.4798
  793MOL0     C 6951   9.603   0.212   9.300  0.2616 -0.4927  0.5639
  793MOL0     C 6952   9.475   0.252   9.262 -0.6210 -0.1491 -1.0144
  793MOL0     C 6953   9.366   0.159   9.263 -0.1712  0.1218 -0.4694
  793MOL0     C 6954   9.401   0.026   9.291  0.8837  0.3180  0.3241
  793MOL0     O 6955   9.303  -0.069   9.286  0.2267  0.6298 -0.9728
  793MOL0     C 6956   9.191  -0.059   9.193 -0.2566 -0.0587  0.8415
  793MOL0     C 6957   9.124  -0.200   9.188 -0.2939 -0.6704 -0.2823
  793MOL0     C 6958   8.991  -0.198   9.109 -0.1129 -0.6044  0.0564
  793MOL0     C 6959   8.944  -0.345   9.073 -0.6534  0.2607 -0.4762
  793MOL0     C 6960   8.806  -0.333   9.008  0.4766  0.1376  0.4460
  793MOL0     C 6961   8.779  -0.482   8.996 -0.3720  0.3414 -0.1531
  793MOL0     C 6962   8.659  -0.529   8.912  0.0080  0.8531  0.2008
  793MOL0     C 6963   8.626  -0.679   8.937 -0.8561  0.1227  0.5336
  793MOL0    Cl 6964   8.469  -0.720   8.860 -0.3170 -0.3848  0.4684
  793MOL0     C 6965   9.530  -0.016   9.327 -0.1172  0.3253  0.2504
  793MOL0     C 6966   9.636   0.076   9.332  0.1220 -0.6599 -0.0239
  793MOL0     O 6967   9.671   0.352   9.527  0.1633 -0.3632  0.0791
  793MOL0     C 6968   9.914   0.491   9.309  0.2759  0.2863 -0.1797
  793MOL0     C 6969  10.030   0.565   9.315 -0.5546  0.1522 -0.5626
  793MOL0     N 6970  10.188   0.934   9.998 -0.6492  0.3594 -0.1351
  793MOL0     N 6971  10.094   0.981  10.063  0.0211  0.1947 -0.8506
  793MOL0     C 6972   9.743   0.893  10.740 -0.6881  0.7886  0.3900
  793MOL0     C 6973   9.671   0.775  10.730  0.0121 -0.1063  0.3080
  793MOL0     C 6974   9.392   0.477  10.563 -0.3241  0.9215  0.2352
  793MOL0     C 6975   9.316   0.448  10.456 -0.1539 -0.7049 -0.6289
  793MOL0     C 6976   9.239   0.324  10.445 -0.5483  0.1818 -0.1401
  793MOL0     C 6977   9.240   0.224  10.534 -0.6008 -0.0897  0.4119
  793MOL0     O 6978   9.171   0.112  10.523  0.4390  0.3458 -0.1480
  793MOL0     C 6979   9.079   0.087  10.411 -0.7600  0.0910 -0.2946
  793MOL0     C 6980   9.026  -0.054  10.443 -0.5872 -0.6223  0.4801
  793MOL0     C 6981   8.904  -0.084  10.536 -0.3381 -0.3700 -0.1612
  793MOL0     C 6982   8.866  -0.230  10.524 -0.5702  0.4341 -0.0381
  793MOL0     C 6983   8.760  -0.254  10.430 -0.4498  0.9037  0.5009
  793MOL0     C 6984   8.672  -0.254  10.338  0.3360  0.5824 -0.3336
  793MOL0     C 6985   9.317   0.249  10.645  0.5972 -0.1193  0.3763
  793MOL0     C 6986   9.396   0.363  10.663  0.3925 -0.8702  0.5629
  793MOL0     C 6987   9.468   0.374  10.792 -0.4185  0.4434 -0.7780
  793MOL0     H 6988   9.361   0.930  10.700  1.8334  1.3442  0.3887
  793MOL0     H 6989   9.497   1.119  10.707 -0.3357 -0.6875 -0.5019
  793MOL0     H 6990   9.621   1.296  10.768  0.3779 -0.6891  0.7008
  793MOL0     H 6991   9.788   1.335  10.752  0.8737 -0.4617 -0.3743
  793MOL0     H 6992   9.632   1.377  10.539 -1.1695  0.2186  1.1834
  793MOL0     H 6993   9.640   1.200  10.529  1.4040 -0.3483  0.4803
  793MOL0     H 6994   9.843   1.186  10.455 -2.7023 -0.8173  1.2427
  793MOL0     H 6995   9.911   1.314  10.562 -0.8370 -2.2958  1.9657
  793MOL0     H 6996   9.755   1.334  10.295 -0.4931  1.5497 -0.2128
  793MOL0     H 6997   9.789   1.487  10.381 -0.5904 -0.2312 -1.1955
  793MOL0     H 6998  10.018   1.459  10.359 -0.6426  0.3753  1.1039
  793MOL0     H 6999  10.003   1.287  10.299 -4.5305 -2.4014 -0.0323
  793MOL0     H 7000   9.853   1.435  10.107  0.2740 -0.3786  1.0019
  793MOL0     H 7001  10.008   1.523  10.143  2.7872 -1.0600 -2.4878
  793MOL0     H 7002  10.139   1.323  10.102  0.4597  0.7444 -0.4581
  793MOL0     H 7003  10.039   1.357   9.961  0.6143  0.8325  0.0718
  793MOL0     H 7004   9.933   1.157  10.167  0.3513  3.2049  1.8308
  793MOL0     H 7005   9.880   1.197   9.995  1.9298  0.7301 -2.9130
  793MOL0     H 7006  10.104   1.183   9.814  0.0093  3.0005  2.0657
  793MOL0     H 7007  10.309   1.078   9.713 -1.9692  1.0850  1.2300
  793MOL0     H 7008  10.418   1.033   9.850  1.2278 -1.1697 -1.0445
  793MOL0     H 7009  10.449   0.858   9.674  0.5583  2.5795  0.3469
  793MOL0     H 7010  10.356   0.792   9.807  3.2564  0.0210  0.6651
  793MOL0     H 7011  10.246   0.923   9.531  2.7233  1.2633  2.0364
  793MOL0     H 7012  10.143   0.840   9.652 -0.9022  2.8138 -0.8410
  793MOL0     H 7013  10.275   0.631   9.621  0.4875 -0.3047 -0.9305
  793MOL0     H 7014  10.385   0.705   9.502 -0.3599  0.9841 -1.2843
  793MOL0     H 7015  10.064   0.615   9.635  0.0082  0.6078 -0.9053
  793MOL0     H 7016   9.861   0.462   9.642 -0.9963 -0.4246 -0.7729
  793MOL0     H 7017   9.454   0.354   9.232 -1.3928  0.4151  1.2096
  793MOL0     H 7018   9.265   0.188   9.235 -0.4176 -0.4372 -0.1642
  793MOL0     H 7019   9.118   0.016   9.224  1.3556  0.7834  2.9138
  793MOL0     H 7020   9.210  -0.039   9.087  1.0074 -0.6546  0.9363
  793MOL0     H 7021   9.188  -0.273   9.137 -0.2545 -0.3203 -0.7403
  793MOL0     H 7022   9.106  -0.234   9.290  0.1652  2.4436  0.9325
  793MOL0     H 7023   8.916  -0.160   9.180  0.5927 -0.0035  0.4910
  793MOL0     H 7024   8.992  -0.145   9.014  0.2186 -2.3650 -0.9609
  793MOL0     H 7025   8.957  -0.407   9.162  2.3680  1.6785  0.2131
  793MOL0     H 7026   9.014  -0.389   9.002 -1.2307 -1.5278  0.0056
  793MOL0     H 7027   8.804  -0.277   8.914 -0.0010 -0.5451  0.0381
  793MOL0     H 7028   8.735  -0.281   9.073  0.0093  0.8802 -0.6222
  793MOL0     H 7029   8.853  -0.520   8.926 -0.6086  0.2303 -0.3460
  793MOL0     H 7030   8.786  -0.535   9.092  0.3868 -0.0743 -0.4354
  793MOL0     H 7031   8.670  -0.509   8.805  0.5853  1.2235  0.3281
  793MOL0     H 7032   8.576  -0.463   8.941  1.3687  1.9567  1.7462
  793MOL0     H 7033   8.699  -0.750   8.895 -0.3169  0.0986  1.4786
  793MOL0     H 7034   8.614  -0.694   9.045 -1.3560 -0.1556  0.4412
  793MOL0     H 7035   9.553  -0.122   9.332 -0.9102 -0.0939 -2.7663
  793MOL0     H 7036   9.740   0.050   9.352 -0.5241 -1.7695  2.2150
  793MOL0     H 7037   9.876   0.455   9.214  0.5309 -0.7429  0.0990
  793MOL0     H 7038  10.074   0.605   9.224  2.0457  0.2154  0.6198
  793MOL0     H 7039   9.851   0.884  10.747 -0.7790 -0.5483  0.3261
  793MOL0     H 7040   9.721   0.679  10.738  0.3335 -0.0232 -0.6426
  793MOL0     H 7041   9.307   0.533  10.388  2.4246 -1.2332 -1.7387
  793MOL0     H 7042   9.177   0.312  10.357 -2.5818  0.0943  1.2296
  793MOL0     H 7043   9.138   0.095  10.320  3.0596 -2.4187  1.6909
  793MOL0     H 7044   8.995   0.158  10.413 -0.1037  0.8728  0.9734
  793MOL0     H 7045   9.103  -0.127  10.471 -0.5538 -2.0923 -2.9094
  793MOL0     H 7046   8.992  -0.089  10.345  3.3753 -1.6014 -0.7400
  793MOL0     H 7047   8.818  -0.019  10.522 -0.1695  0.0134  0.5133
  793MOL0     H 7048   8.941  -0.060  10.636 -0.2152  0.3471 -0.3769
  793MOL0     H 7049   8.955  -0.292  10.512 -1.0468  0.2453 -3.3333
  793MOL0     H 7050   8.817  -0.255  10.619 -3.2840  1.8637 -0.9459
  793MOL0     H 7051   8.598  -0.239  10.262 -0.2620  0.0012  0.1281
  793MOL0     H 7052   9.310   0.180  10.729 -0.0288 -0.3471  0.1440
  793MOL0     H 7053   9.538   0.457  10.806  1.9234 -1.9184  4.2348
  793MOL0     H 7054   9.405   0.386  10.881  0.3833  2.2870 -0.4029
  793MOL0     H 7055   9.525   0.281  10.802  0.2798  1.0324  1.4216
  794MOL0     O 7056   6.892   4.492   0.177 -0.3802 -0.3528  0.1183
  794MOL0     C 7057   6.923   4.520   0.291  0.8118  1.3411 -0.1352
  794MOL0     O 7058   6.882   4.635   0.357 -0.3052 -0.2822 -0.4278
  794MOL0     C 7059   6.828   4.741   0.281  0.5001  0.0225  0.4252
  794MOL0     C 7060   6.877   4.769   0.149 -0.5325 -0.8405 -0.3606
  794MOL0     C 7061   6.813   4.860   0.067 -0.7064  0.2594 -0.1100
  794MOL0     C 7062   6.699   4.932   0.110 -0.9070 -0.1793  0.3870
  794MOL0     O 7063   6.657   5.029   0.025  0.8031 -0.4148  0.1387
  794MOL0     C 7064   6.543   5.114   0.059 -0.3357 -0.0760  0.2032
  794MOL0     C 7065   6.592   5.241   0.132  1.0940  0.1219 -0.2148
  794MOL0     C 7066   6.663   5.338   0.031  0.4249 -0.5921  0.7347
  794MOL0     C 7067   6.739   5.447   0.101 -0.3648 -0.1537  0.1766
  794MOL0     C 7068   6.847   5.516   0.021 -1.1716 -0.3081 -0.6388
  794MOL0     C 7069   6.987   5.450   0.030  1.0861 -0.2499 -0.2976
  794MOL0     C 7070   6.989   5.304  -0.014 -0.7542 -0.3230  0.1095
  794MOL0     C 7071   7.135   5.261  -0.030 -0.6812 -0.3329 -0.5978
  794MOL0     N 7072   7.188   5.208   0.090 -0.3205 -0.3591  0.1212
  794MOL0     C 7073   7.206   5.074   0.117 -0.0753  0.6978  0.7236
  794MOL0     C 7074   7.248   5.063   0.241 -0.3012 -0.3484  0.1710
  794MOL0     C 7075   7.300   4.938   0.309  0.2809  0.5771  0.5831
  794MOL0     C 7076   7.220   4.916   0.433 -0.2855 -0.2077  0.0844
  794MOL0     C 7077   7.237   4.777   0.497  1.2806 -0.7681  0.6099
  794MOL0     C 7078   7.174   4.773   0.631  0.3870  1.5331  0.4882
  794MOL0     O 7079   7.040   4.706   0.628 -0.8109 -0.2424  0.1068
  794MOL0     C 7080   6.969   4.702   0.743 -0.0029 -0.3565 -0.1538
  794MOL0     C 7081   6.830   4.706   0.729 -0.0325  1.0836 -0.3161
  794MOL0     C 7082   6.758   4.707   0.850 -0.4983 -0.6082  0.1279
  794MOL0     C 7083   6.812   4.702   0.975  0.2031  0.8682 -0.1215
  794MOL0     C 7084   6.717   4.720   1.089 -0.2763  0.0224  0.0369
  794MOL0     O 7085   6.582   4.743   1.067 -0.1704  0.0390 -0.1742
  794MOL0     C 7086   6.504   4.725   1.172 -0.7653  0.3766 -0.4807
  794MOL0     C 7087   6.449   4.832   1.242  0.3107 -0.4652  0.0669
  794MOL0     C 7088   6.371   4.796   1.355 -0.4474 -0.2035 -0.8079
  794MOL0     C 7089   6.351   4.667   1.408 -0.1958 -0.1083 -0.3834
  794MOL0     O 7090   6.298   4.633   1.529  0.7929  0.6798 -0.6171
  794MOL0     C 7091   6.197   4.711   1.591 -0.2605 -0.3585  0.2106
  794MOL0     C 7092   6.202   4.692   1.742 -0.2130  0.4045  0.1723
  794MOL0     C 7093   6.109   4.567   1.766 -0.2033  0.6306 -0.5474
  794MOL0     C 7094   6.122   4.514   1.913 -0.4138 -0.9911  0.0172
  794MOL0     C 7095   6.024   4.401   1.946  0.2443 -0.7591  0.5586
  794MOL0     C 7096   6.094   4.261   1.908  0.7650 -0.5824 -0.4323
  794MOL0     C 7097   5.999   4.148   1.902  0.6110 -0.4644  0.2211
  794MOL0     C 7098   6.068   4.011   1.886 -0.3797 -0.7756 -0.7598
  794MOL0    Cl 7099   5.974   3.871   1.836  0.0930 -0.2056  0.5088
  794MOL0     C 7100   6.390   4.558   1.327  0.4440  0.1120  0.4007
  794MOL0     C 7101   6.477   4.589   1.214  0.3405 -0.2027 -0.4309
  794MOL0     O 7102   6.766   4.691   1.198  0.2027 -0.1263  0.4994
  794MOL0     C 7103   6.952   4.697   0.988  0.4565 -0.6016 -0.0780
  794MOL0     C 7104   7.029   4.699   0.871 -0.0550 -0.5230  0.1215
  794MOL0     N 7105   7.258   5.193   0.289  0.0378 -0.1424 -0.8664
  794MOL0     N 7106   7.215   5.277   0.196 -0.3533  0.4454  0.0875
  794MOL0     C 7107   6.659   4.912   0.243 -0.1304 -0.0317  0.0367
  794MOL0     C 7108   6.715   4.820   0.327  0.3007 -0.2861 -0.1022
  794MOL0     C 7109   6.996   4.411   0.358  1.3677 -0.0154  0.7951
  794MOL0     C 7110   6.961   4.388   0.487 -0.3006 -0.1856  0.5450
  794MOL0     C 7111   7.022   4.287   0.563  0.3054  0.3663 -0.0046
  794MOL0     C 7112   7.122   4.209   0.503  0.7157 -0.3603 -1.2621
  794MOL0     O 7113   7.167   4.108   0.579 -0.0845 -0.1392 -0.6143
  794MOL0     C 7114   7.252   4.006   0.521 -0.1998  0.2286 -0.1246
  794MOL0     C 7115   7.400   4.049   0.537 -0.3094 -0.3851  0.4962
  794MOL0     C 7116   7.493   3.945   0.480  0.9650 -0.5406 -0.4731
  794MOL0     C 7117   7.642   3.959   0.527 -0.2484 -0.2763 -0.4986
  794MOL0     C 7118   7.718   3.902   0.416  0.1679 -0.2653  0.4613
  794MOL0     C 7119   7.767   3.836   0.324  0.4230 -0.3451 -0.5820
  794MOL0     C 7120   7.155   4.233   0.370 -0.1686 -0.0762  0.5190
  794MOL0     C 7121   7.102   4.338   0.289 -0.7649  0.7467 -0.5318
  794MOL0     C 7122   7.166   4.384   0.164  0.1180 -0.6385 -0.3493
  794MOL0     H 7123   6.968   4.718   0.121 -0.0428 -1.3359  1.9122
  794MOL0     H 7124   6.866   4.887  -0.023  2.8830  0.7698  1.9509
  794MOL0     H 7125   6.494   5.143  -0.035  1.1070 -3.6922 -1.8697
  794MOL0     H 7126   6.470   5.062   0.122 -0.6500  2.4462  2.0965
  794MOL0     H 7127   6.651   5.209   0.219  1.0666  0.5600 -0.0306
  794MOL0     H 7128   6.508   5.303   0.164  0.1981 -1.4261  0.5230
  794MOL0     H 7129   6.589   5.380  -0.038 -0.2870  1.0086  2.3742
  794MOL0     H 7130   6.738   5.285  -0.029  0.1233 -1.1730  0.8640
  794MOL0     H 7131   6.680   5.538   0.114  1.8066  1.8752 -2.6518
  794MOL0     H 7132   6.773   5.404   0.195  0.6391 -2.5708 -1.1830
  794MOL0     H 7133   6.815   5.531  -0.083 -2.7403 -0.8301 -0.2553
  794MOL0     H 7134   6.857   5.620   0.051 -0.4563  0.2480 -2.6337
  794MOL0     H 7135   7.062   5.510  -0.023  1.1631 -0.3350 -0.2868
  794MOL0     H 7136   7.029   5.446   0.131 -0.2500  2.0911  0.4176
  794MOL0     H 7137   6.944   5.289  -0.112  3.7892 -0.5442 -2.1690
  794MOL0     H 7138   6.946   5.231   0.056  2.2443 -1.6908  0.6460
  794MOL0     H 7139   7.129   5.182  -0.106 -1.0122 -0.7355 -0.1602
  794MOL0     H 7140   7.197   5.347  -0.056 -2.1224  1.9314  2.7235
  794MOL0     H 7141   7.192   4.988   0.053  5.4086 -2.3655  2.9761
  794MOL0     H 7142   7.273   4.851   0.248 -0.7038  0.4629  1.1762
  794MOL0     H 7143   7.408   4.939   0.328  0.1111 -0.1385  1.6388
  794MOL0     H 7144   7.234   4.997   0.505 -1.9348 -1.0740  1.4367
  794MOL0     H 7145   7.117   4.923   0.399 -0.4844 -3.1251 -0.1665
  794MOL0     H 7146   7.343   4.759   0.514  1.8678  0.1629 -1.6681
  794MOL0     H 7147   7.185   4.701   0.438 -2.1146  0.0705  2.2512
  794MOL0     H 7148   7.165   4.873   0.673  0.2568  2.1294 -0.8883
  794MOL0     H 7149   7.241   4.707   0.686  0.3258  0.3931 -0.7556
  794MOL0     H 7150   6.794   4.706   0.626 -0.5648  2.1898 -0.1414
  794MOL0     H 7151   6.650   4.713   0.842 -0.6731  0.7245  2.5906
  794MOL0     H 7152   6.473   4.933   1.211 -0.2325 -0.5829 -0.7862
  794MOL0     H 7153   6.336   4.880   1.415  2.2390  1.3251 -1.2480
  794MOL0     H 7154   6.199   4.819   1.575 -0.8547 -0.5883 -1.5470
  794MOL0     H 7155   6.098   4.680   1.557 -0.5122 -0.8030  1.3169
  794MOL0     H 7156   6.304   4.661   1.765 -0.5864 -1.3569 -0.3818
  794MOL0     H 7157   6.157   4.781   1.786 -1.5484  0.5628 -1.4059
  794MOL0     H 7158   6.004   4.589   1.744 -0.9352  2.1835  3.6101
  794MOL0     H 7159   6.149   4.503   1.687 -0.0291  1.0250 -0.7797
  794MOL0     H 7160   6.099   4.599   1.978  1.5934  0.0838 -0.5673
  794MOL0     H 7161   6.229   4.497   1.931 -0.5556 -0.8778  1.0083
  794MOL0     H 7162   5.933   4.413   1.887  0.3065 -1.0655  0.3996
  794MOL0     H 7163   5.993   4.412   2.050  1.1834 -2.6091  1.0839
  794MOL0     H 7164   6.156   4.276   1.819  2.2934  0.1348  0.7013
  794MOL0     H 7165   6.164   4.250   1.991  1.0712  2.7099 -0.1248
  794MOL0     H 7166   5.938   4.165   1.813  0.2761 -0.9768  0.3460
  794MOL0     H 7167   5.936   4.161   1.991 -0.8020  1.1007 -0.9373
  794MOL0     H 7168   6.144   4.027   1.809 -0.3460 -0.2626 -0.6232
  794MOL0     H 7169   6.123   3.971   1.972  2.1887  1.2794 -1.3223
  794MOL0     H 7170   6.369   4.454   1.348 -0.6298  0.1999 -0.1602
  794MOL0     H 7171   6.502   4.502   1.154 -1.3826  1.0489 -3.1219
  794MOL0     H 7172   6.995   4.698   1.088 -0.2840  0.1906  0.2451
  794MOL0     H 7173   7.137   4.695   0.876  0.3932  3.7900 -1.5045
  794MOL0     H 7174   6.578   4.964   0.293  0.3518 -0.4124  1.2473
  794MOL0     H 7175   6.688   4.801   0.430  2.5483  3.6489  1.4292
  794MOL0     H 7176   6.883   4.449   0.532 -2.2275 -1.4415 -0.9235
  794MOL0     H 7177   6.993   4.272   0.666  1.0737  2.2101  0.5286
  794MOL0     H 7178   7.242   3.995   0.413  2.4564  1.6307 -0.5966
  794MOL0     H 7179   7.226   3.913   0.573 -0.4030  1.1425  1.4702
  794MOL0     H 7180   7.411   4.070   0.644 -0.1223  0.6247  0.2900
  794MOL0     H 7181   7.424   4.146   0.493 -1.5218  0.9085  2.5157
  794MOL0     H 7182   7.493   3.946   0.371  3.2337  1.7132 -0.5419
  794MOL0     H 7183   7.463   3.847   0.516 -0.4567  0.5500  1.4867
  794MOL0     H 7184   7.667   4.064   0.543 -1.8122 -0.1885  1.9326
  794MOL0     H 7185   7.661   3.911   0.623 -3.2146 -0.1254  0.2463
  794MOL0     H 7186   7.817   3.781   0.247  1.1877  4.1129 -3.6687
  794MOL0     H 7187   7.240   4.179   0.330  2.2044  0.6862  4.0158
  794MOL0     H 7188   7.101   4.378   0.077 -1.5417  2.3040  0.5444
  794MOL0     H 7189   7.199   4.488   0.179 -2.5696 -0.0184  2.1980
  794MOL0     H 7190   7.257   4.326   0.143  0.3692 -0.3928  0.0356
  795MOL0     O 7191   3.895   7.899   8.159 -0.0101  0.4338 -0.3196
  795MOL0     C 7192   3.899   7.911   8.283  0.1127 -0.1574 -0.0063
  795MOL0     O 7193   3.788   7.888   8.359 -0.8422  0.2704  0.6333
  795MOL0     C 7194   3.664   7.869   8.304 -1.0161  1.1684  0.4666
  795MOL0     C 7195   3.590   7.776   8.374  0.0441 -0.1869 -0.1205
  795MOL0     C 7196   3.466   7.741   8.342  0.9798 -0.3522  0.4865
  795MOL0     C 7197   3.398   7.794   8.229  0.4476 -0.5428  0.3859
  795MOL0     O 7198   3.271   7.751   8.194 -0.2179 -1.0772 -0.1057
  795MOL0     C 7199   3.171   7.762   8.291  0.1133 -0.0188 -0.5505
  795MOL0     C 7200   3.180   7.900   8.362 -0.2992 -0.0033 -0.5952
  795MOL0     C 7201   3.082   7.915   8.483  0.3654 -0.2890  0.5543
  795MOL0     C 7202   3.065   8.061   8.527  0.1701  0.2508 -0.4255
  795MOL0     C 7203   3.022   8.072   8.671  0.2368  0.3223  0.5494
  795MOL0     C 7204   2.898   7.991   8.713 -0.0985 -1.0778 -0.1370
  795MOL0     C 7205   2.837   8.060   8.839  0.3346  0.3712 -0.2689
  795MOL0     C 7206   2.698   7.999   8.856 -0.8570  0.0944 -0.5935
  795MOL0     N 7207   2.634   8.047   8.978  0.0782 -0.3064  0.0740
  795MOL0     C 7208   2.677   8.044   9.113  0.3255 -0.0395  0.5498
  795MOL0     C 7209   2.576   8.095   9.184  0.0301  0.1420 -0.3237
  795MOL0     C 7210   2.572   8.114   9.333  0.3582 -0.1500  0.6549
  795MOL0     C 7211   2.710   8.132   9.399 -0.2811 -0.1011 -0.2604
  795MOL0     C 7212   2.694   8.210   9.530  0.4713 -0.3659  0.4994
  795MOL0     C 7213   2.756   8.343   9.531  0.1635 -0.7078 -0.0033
  795MOL0     O 7214   2.898   8.316   9.538  0.0015 -0.1149 -0.3239
  795MOL0     C 7215   2.990   8.397   9.475  0.2402  0.8053  0.8019
  795MOL0     C 7216   3.125   8.352   9.465  0.2101  0.1048 -0.3905
  795MOL0     C 7217   3.229   8.433   9.423 -0.0624 -0.4973  0.0647
  795MOL0     C 7218   3.207   8.562   9.370 -0.2666  1.0217 -0.1835
  795MOL0     C 7219   3.320   8.622   9.301 -0.0047 -0.5571 -0.5888
  795MOL0     O 7220   3.429   8.544   9.258 -0.0784 -0.2411 -1.0501
  795MOL0     C 7221   3.487   8.588   9.143 -0.3433 -0.1807 -0.2519
  795MOL0     C 7222   3.430   8.668   9.036 -0.5341  0.0398  0.0429
  795MOL0     C 7223   3.511   8.702   8.924  0.2404 -0.1817 -0.1196
  795MOL0     C 7224   3.643   8.646   8.905  0.0821 -0.1942  0.1279
  795MOL0     O 7225   3.708   8.690   8.793 -0.4566  0.1222  0.5320
  795MOL0     C 7226   3.847   8.664   8.782  0.0530  0.2780 -0.2406
  795MOL0     C 7227   3.861   8.524   8.722  1.1839 -0.5459  0.2779
  795MOL0     C 7228   3.864   8.521   8.561 -0.4132 -0.3858 -0.1460
  795MOL0     C 7229   3.864   8.386   8.508 -0.0023  0.8699  0.9230
  795MOL0     C 7230   3.873   8.357   8.360 -0.3340  0.5057 -0.4435
  795MOL0     C 7231   4.011   8.364   8.294  0.2334 -0.3589  0.8638
  795MOL0     C 7232   3.996   8.372   8.141  0.0642  0.0828  0.2855
  795MOL0     C 7233   3.964   8.520   8.111  0.6116  0.2924  0.6364
  795MOL0    Cl 7234   3.882   8.541   7.948  0.3558 -0.2347  0.0752
  795MOL0     C 7235   3.686   8.552   9.002 -0.5679 -0.2567 -0.6733
  795MOL0     C 7236   3.607   8.526   9.117 -0.5374  0.1161 -0.3155
  795MOL0     O 7237   3.299   8.738   9.277  0.8119  0.2722 -0.0805
  795MOL0     C 7238   3.073   8.600   9.359  0.4808  0.3000  0.0607
  795MOL0     C 7239   2.972   8.530   9.419 -1.2604  0.9751 -0.4248
  795MOL0     N 7240   2.478   8.135   9.096 -0.5656 -0.6476 -0.3890
  795MOL0     N 7241   2.511   8.101   8.977  0.1024  0.8819 -0.0712
  795MOL0     C 7242   3.470   7.891   8.149 -0.0396  0.1750  0.3023
  795MOL0     C 7243   3.603   7.918   8.185 -0.0955 -0.2545 -1.3293
  795MOL0     C 7244   4.024   7.955   8.357 -0.4444  0.8802 -0.5568
  795MOL0     C 7245   4.028   7.942   8.494  0.2882 -0.0662 -0.0006
  795MOL0     C 7246   4.130   7.989   8.571  0.5012 -0.3950 -0.5408
  795MOL0     C 7247   4.242   8.062   8.513 -0.6555  0.5145  0.3071
  795MOL0     O 7248   4.348   8.109   8.595 -0.1320  0.1846  0.2971
  795MOL0     C 7249   4.342   8.123   8.737 -0.8084 -0.9685 -0.4807
  795MOL0     C 7250   4.462   8.209   8.797  0.1011  0.5191  0.7371
  795MOL0     C 7251   4.458   8.241   8.949 -0.1895  0.3382  0.0510
  795MOL0     C 7252   4.570   8.339   8.997 -0.6269  0.4967 -0.1283
  795MOL0     C 7253   4.704   8.270   8.986  0.8138  0.1375 -0.7097
  795MOL0     C 7254   4.810   8.220   8.982  0.4449 -0.1658  0.0421
  795MOL0     C 7255   4.247   8.066   8.375  0.0093 -0.1497  1.1343
  795MOL0     C 7256   4.137   8.013   8.300 -0.3576 -0.7350 -1.1496
  795MOL0     C 7257   4.154   8.025   8.155  0.1356 -0.7904 -0.4577
  795MOL0     H 7258   3.627   7.721   8.460 -1.7903 -0.4555  0.5454
  795MOL0     H 7259   3.405   7.682   8.409 -3.0085  4.5719  1.8290
  795MOL0     H 7260   3.074   7.753   8.243 -0.6819  0.8451  0.8137
  795MOL0     H 7261   3.170   7.680   8.364 -0.7650  0.6379  0.2062
  795MOL0     H 7262   3.173   7.984   8.292  1.1416 -0.4130 -1.2488
  795MOL0     H 7263   3.280   7.910   8.404  0.5290 -4.5571 -1.0359
  795MOL0     H 7264   3.117   7.849   8.562  2.8711 -1.4225 -1.3839
  795MOL0     H 7265   2.984   7.874   8.456 -0.9983  1.4531  2.5714
  795MOL0     H 7266   3.161   8.107   8.500 -0.2025 -0.1559 -2.6708
  795MOL0     H 7267   2.990   8.114   8.467 -1.1871 -0.1015  0.9260
  795MOL0     H 7268   3.105   8.053   8.739  3.4956 -0.6803 -3.3074
  795MOL0     H 7269   2.992   8.177   8.670 -3.5411 -0.6203  0.0295
  795MOL0     H 7270   2.833   8.003   8.626  0.4745 -1.1129 -0.5785
  795MOL0     H 7271   2.934   7.890   8.738  3.0056  0.4988  2.5624
  795MOL0     H 7272   2.794   8.160   8.836 -4.4606 -1.4637 -0.8664
  795MOL0     H 7273   2.911   8.048   8.920  0.8846 -0.3275 -0.8638
  795MOL0     H 7274   2.640   8.042   8.774 -0.4354  2.4987  0.2912
  795MOL0     H 7275   2.696   7.889   8.858 -2.2629  0.0738  2.3610
  795MOL0     H 7276   2.769   8.003   9.155  1.1790  2.5734  1.4353
  795MOL0     H 7277   2.501   8.194   9.357 -1.7651 -1.9022  0.4926
  795MOL0     H 7278   2.527   8.028   9.384 -2.1548  0.5994 -0.1985
  795MOL0     H 7279   2.755   8.033   9.416  0.5077  0.0048 -1.6565
  795MOL0     H 7280   2.775   8.183   9.329  2.8315 -0.1946  2.3255
  795MOL0     H 7281   2.736   8.148   9.610  0.3733 -0.9646  0.0931
  795MOL0     H 7282   2.586   8.205   9.548 -0.4175 -2.7453 -4.0854
  795MOL0     H 7283   2.719   8.401   9.617 -1.0261 -0.1901 -0.8430
  795MOL0     H 7284   2.729   8.403   9.444 -2.1407  1.6593  2.1474
  795MOL0     H 7285   3.139   8.252   9.506  2.8213  2.0772  4.3567
  795MOL0     H 7286   3.326   8.388   9.438 -0.7341 -0.7825  5.3530
  795MOL0     H 7287   3.327   8.700   9.039 -1.0334 -1.5879  1.4792
  795MOL0     H 7288   3.465   8.767   8.850  0.0874 -1.2670 -1.0037
  795MOL0     H 7289   3.900   8.735   8.717 -1.2900 -0.9041 -2.8047
  795MOL0     H 7290   3.902   8.661   8.876 -1.2103  1.5446  0.5912
  795MOL0     H 7291   3.952   8.478   8.761  0.3663 -2.9048 -0.4089
  795MOL0     H 7292   3.781   8.461   8.762  1.1889  0.2273  1.5732
  795MOL0     H 7293   3.774   8.570   8.523  0.2291  0.0777 -1.1273
  795MOL0     H 7294   3.956   8.566   8.522 -0.4667  0.4295  0.6410
  795MOL0     H 7295   3.775   8.342   8.556 -0.1862  2.4458  2.0835
  795MOL0     H 7296   3.939   8.325   8.559 -1.6378 -2.1889 -0.0614
  795MOL0     H 7297   3.805   8.430   8.316 -1.5961  1.5265  2.8910
  795MOL0     H 7298   3.829   8.259   8.341 -0.6146  0.7240 -0.9519
  795MOL0     H 7299   4.063   8.449   8.338  1.4884 -0.1779 -0.8537
  795MOL0     H 7300   4.056   8.268   8.321 -0.3389 -0.5698  1.0777
  795MOL0     H 7301   3.922   8.307   8.093  1.6102  0.1737 -2.4771
  795MOL0     H 7302   4.094   8.346   8.099 -0.9975 -4.3431  0.1168
  795MOL0     H 7303   3.896   8.560   8.186  0.3137  2.1908 -0.5833
  795MOL0     H 7304   4.057   8.576   8.125 -0.8835  2.9692  0.4817
  795MOL0     H 7305   3.786   8.510   8.999 -0.4014 -0.0349  0.8313
  795MOL0     H 7306   3.655   8.454   9.183 -4.1228 -0.1453  2.3376
  795MOL0     H 7307   3.052   8.687   9.299  0.6025 -0.1915 -0.7096
  795MOL0     H 7308   2.872   8.573   9.411 -2.2083 -1.0181 -0.0643
  795MOL0     H 7309   3.427   7.940   8.062  3.0283  0.5660 -1.1351
  795MOL0     H 7310   3.650   7.993   8.122  2.3242  0.3532  1.0521
  795MOL0     H 7311   3.946   7.882   8.533  0.0721 -0.0252 -0.3826
  795MOL0     H 7312   4.123   7.990   8.679 -0.1199 -0.8952 -0.5721
  795MOL0     H 7313   4.345   8.022   8.780  1.6434 -1.5007 -1.6924
  795MOL0     H 7314   4.252   8.181   8.759  1.0201  1.3639  1.4605
  795MOL0     H 7315   4.463   8.308   8.751  0.8404  0.1909  0.0375
  795MOL0     H 7316   4.555   8.163   8.763 -2.3297 -2.3883 -2.8577
  795MOL0     H 7317   4.472   8.142   8.992 -0.5407 -1.0758 -2.8069
  795MOL0     H 7318   4.365   8.290   8.980  0.1839  0.0998  1.6164
  795MOL0     H 7319   4.566   8.421   8.925  0.9439  0.8669  0.1756
  795MOL0     H 7320   4.550   8.381   9.097  1.6262 -1.4418  1.2331
  795MOL0     H 7321   4.890   8.149   8.984  0.7158  0.1305 -0.1771
  795MOL0     H 7322   4.332   8.104   8.320  0.8908 -2.4998  0.7559
  795MOL0     H 7323   4.256   8.057   8.133  1.1783 -3.4466  0.0458
  795MOL0     H 7324   4.158   7.927   8.105  0.8227 -0.0062 -2.0010
  795MOL0     H 7325   4.075   8.089   8.115  2.2248  3.8868  2.1130
  796MOL0     O 7326   7.786  10.057   2.420 -0.0349 -0.7003  0.0072
  796MOL0     C 7327   7.803  10.183   2.406  0.3866 -0.2094  0.2596
  796MOL0     O 7328   7.892  10.242   2.328  0.3647  0.2523 -0.1098
  796MOL0     C 7329   7.974  10.170   2.249 -0.9574  0.8073  0.5580
  796MOL0     C 7330   7.934  10.049   2.182 -1.0746  0.1100  0.4995
  796MOL0     C 7331   8.026   9.982   2.093  1.9587 -0.0022 -0.2246
  796MOL0     C 7332   8.155  10.035   2.068 -0.3527 -0.8035  0.7179
  796MOL0     O 7333   8.249   9.977   1.981  0.0023  0.2150  0.3124
  796MOL0     C 7334   8.237   9.835   1.946 -0.4838  0.1907 -0.2756
  796MOL0     C 7335   8.150   9.810   1.820 -0.0976 -1.6339  0.1420
  796MOL0     C 7336   8.229   9.830   1.690 -0.0656  0.0802 -1.2505
  796MOL0     C 7337   8.285   9.972   1.657 -0.8228  0.4428 -0.1884
  796MOL0     C 7338   8.341   9.970   1.513 -1.2878  0.1535 -0.5297
  796MOL0     C 7339   8.406  10.107   1.464 -0.0539  0.3511  0.0711
  796MOL0     C 7340   8.498  10.093   1.347 -0.7001 -0.2875  0.3301
  796MOL0     C 7341   8.636  10.049   1.385 -0.7859 -0.9651 -0.5255
  796MOL0     N 7342   8.712  10.143   1.467  0.3128  0.0654 -0.2072
  796MOL0     C 7343   8.772  10.254   1.421  0.0040  0.7220  0.1387
  796MOL0     C 7344   8.845  10.288   1.530  0.2888 -0.6372 -0.7204
  796MOL0     C 7345   8.920  10.423   1.549 -0.4038  0.3322 -0.1897
  796MOL0     C 7346   8.835  10.518   1.628  0.0615 -0.2582 -0.0640
  796MOL0     C 7347   8.881  10.663   1.623  0.0771  0.4955  0.1905
  796MOL0     C 7348   9.019  10.684   1.673 -0.7279 -0.6996 -0.2397
  796MOL0     O 7349   9.037  10.822   1.720  0.0281 -0.0016 -0.2912
  796MOL0     C 7350   9.152  10.848   1.797  0.3444  0.6851 -0.3589
  796MOL0     C 7351   9.142  10.950   1.893  0.4876 -0.0823  0.1751
  796MOL0     C 7352   9.253  10.988   1.964 -0.2519  0.7184  0.5331
  796MOL0     C 7353   9.375  10.914   1.945 -0.2262  0.1087  0.3767
  796MOL0     C 7354   9.494  10.949   2.028  0.4204  0.1264 -0.2720
  796MOL0     O 7355   9.470  11.039   2.129 -0.1138 -0.5049  0.1147
  796MOL0     C 7356   9.570  11.086   2.214  0.0833 -0.5105  0.1183
  796MOL0     C 7357   9.544  11.215   2.260  0.0829 -0.0198  0.3085
  796MOL0     C 7358   9.629  11.278   2.342  0.3730  0.7413 -0.5249
  796MOL0     C 7359   9.739  11.211   2.403 -0.4038  1.1530  0.1225
  796MOL0     O 7360   9.827  11.287   2.477  0.5367  0.6374  0.2441
  796MOL0     C 7361   9.865  11.231   2.610  0.8317  0.3233  0.4209
  796MOL0     C 7362   9.754  11.231   2.714  0.8643 -0.5829  0.1229
  796MOL0     C 7363   9.777  11.150   2.842 -0.4457 -0.3958 -0.3235
  796MOL0     C 7364   9.696  11.170   2.966 -0.2108 -0.8344  0.9260
  796MOL0     C 7365   9.548  11.201   2.955  0.4910 -0.0554  0.6916
  796MOL0     C 7366   9.468  11.085   2.915  0.2589  0.1299  0.0591
  796MOL0     C 7367   9.320  11.101   2.939  0.4610 -0.6303 -0.2854
  796MOL0     C 7368   9.261  11.101   3.085 -0.0456  0.2879  0.5622
  796MOL0    Cl 7369   9.081  11.116   3.081 -0.0716 -0.4072  0.3850
  796MOL0     C 7370   9.755  11.066   2.364 -1.1585  0.0747 -0.2097
  796MOL0     C 7371   9.676  11.011   2.273 -0.0248  0.4059 -0.0346
  796MOL0     O 7372   9.602  10.901   1.998 -0.8062  0.1806 -0.1528
  796MOL0     C 7373   9.390  10.816   1.839  0.3343 -0.6162  0.5579
  796MOL0     C 7374   9.271  10.780   1.771 -0.0740  0.4294 -0.5306
  796MOL0     N 7375   8.814  10.212   1.639  0.1083  0.3805  0.0671
  796MOL0     N 7376   8.742  10.116   1.594 -1.2081  0.0950 -0.7001
  796MOL0     C 7377   8.192  10.164   2.129 -0.1560 -0.6459 -0.4469
  796MOL0     C 7378   8.103  10.222   2.218  0.6193 -0.1477 -0.8725
  796MOL0     C 7379   7.722  10.278   2.481  0.0507  0.5118 -0.2472
  796MOL0     C 7380   7.597  10.231   2.529  0.4892 -0.3246 -0.3688
  796MOL0     C 7381   7.512  10.309   2.608 -0.3522 -0.0921 -0.8750
  796MOL0     C 7382   7.538  10.444   2.635 -0.1924 -0.1436  0.3608
  796MOL0     O 7383   7.452  10.514   2.715  0.7310  0.4155 -0.7004
  796MOL0     C 7384   7.497  10.601   2.816 -0.4842 -0.5972  0.5320
  796MOL0     C 7385   7.509  10.537   2.958 -0.4847 -0.2610 -0.3376
  796MOL0     C 7386   7.627  10.445   2.986 -0.2764 -0.2757 -0.2442
  796MOL0     C 7387   7.634  10.394   3.129  0.0642  0.4895 -0.4294
  796MOL0     C 7388   7.738  10.309   3.179  0.3524  0.1088  0.5002
  796MOL0     C 7389   7.808  10.210   3.218 -0.9872 -0.2021 -0.2485
  796MOL0     C 7390   7.660  10.495   2.591 -0.3608  0.3570 -1.1579
  796MOL0     C 7391   7.751  10.415   2.507  0.0585 -0.7786 -0.2626
  796MOL0     C 7392   7.877  10.485   2.467 -0.3214  0.4946  0.1184
  796MOL0     H 7393   7.832  10.013   2.189 -1.4746  1.3739  1.3964
  796MOL0     H 7394   7.994   9.889   2.046  0.9519  0.1882  0.0590
  796MOL0     H 7395   8.339   9.797   1.931 -0.8615 -1.8718  1.7730
  796MOL0     H 7396   8.206   9.779   2.035 -2.3587 -0.1829 -1.1417
  796MOL0     H 7397   8.071   9.885   1.816  0.8335 -0.5864  0.9835
  796MOL0     H 7398   8.108   9.709   1.827 -0.0438 -1.8906 -2.2965
  796MOL0     H 7399   8.168   9.805   1.603 -0.0881  3.1192 -2.2010
  796MOL0     H 7400   8.308   9.755   1.701  0.6971  1.0469  0.3579
  796MOL0     H 7401   8.215  10.056   1.663  0.2486  1.2499  2.8851
  796MOL0     H 7402   8.372   9.990   1.721  0.6966 -2.9202 -1.0759
  796MOL0     H 7403   8.423   9.898   1.518 -1.4824  0.0129  1.5423
  796MOL0     H 7404   8.270   9.942   1.434  0.2357 -0.2011 -1.8280
  796MOL0     H 7405   8.320  10.164   1.428  0.5797  0.8231 -0.7300
  796MOL0     H 7406   8.454  10.159   1.548 -1.9938  1.4177  0.5745
  796MOL0     H 7407   8.510  10.191   1.299 -1.8338  0.7783  2.1101
  796MOL0     H 7408   8.465  10.025   1.268  0.0233  0.6445 -0.8091
  796MOL0     H 7409   8.623   9.958   1.444 -0.2489  0.2163  1.5317
  796MOL0     H 7410   8.691  10.024   1.294 -1.8908  0.5193 -1.6529
  796MOL0     H 7411   8.757  10.325   1.341  1.0098  0.8221  0.0317
  796MOL0     H 7412   9.014  10.415   1.605  0.6047  1.4935 -1.6129
  796MOL0     H 7413   8.944  10.443   1.444  2.5399 -3.3796 -0.4613
  796MOL0     H 7414   8.737  10.508   1.581  0.4857 -2.2082 -0.6377
  796MOL0     H 7415   8.822  10.482   1.731 -0.8863 -0.8307 -0.3705
  796MOL0     H 7416   8.812  10.724   1.682 -1.7237 -0.6716 -0.6148
  796MOL0     H 7417   8.879  10.689   1.517 -0.2122 -0.6815 -0.1097
  796MOL0     H 7418   9.098  10.665   1.599 -0.3189 -0.0438  0.0272
  796MOL0     H 7419   9.047  10.627   1.762 -0.9509  1.1620  1.0704
  796MOL0     H 7420   9.049  11.004   1.906  1.2705  1.0731  1.1607
  796MOL0     H 7421   9.244  11.069   2.034  0.1334  2.3409 -1.2086
  796MOL0     H 7422   9.469  11.276   2.211  3.6265  3.2273 -1.5570
  796MOL0     H 7423   9.612  11.379   2.376 -1.9990  0.9815 -2.1516
  796MOL0     H 7424   9.905  11.131   2.590  0.5227  0.6863 -2.5177
  796MOL0     H 7425   9.948  11.282   2.659  0.7305 -0.2339  1.1830
  796MOL0     H 7426   9.726  11.333   2.743  0.7995 -0.6087  0.1479
  796MOL0     H 7427   9.669  11.179   2.670 -0.9798  1.3076  1.2797
  796MOL0     H 7428   9.768  11.044   2.817 -2.2395 -0.3611  0.0723
  796MOL0     H 7429   9.878  11.170   2.880  0.0245  1.8088 -2.4424
  796MOL0     H 7430   9.742  11.251   3.025 -0.5163 -0.4459  0.6332
  796MOL0     H 7431   9.720  11.081   3.025 -1.5041 -1.6272  0.2964
  796MOL0     H 7432   9.533  11.284   2.885  3.3852 -1.9565 -2.5258
  796MOL0     H 7433   9.512  11.227   3.055  0.9326  0.1958  0.7856
  796MOL0     H 7434   9.495  11.066   2.811  0.0385  2.1008 -0.3881
  796MOL0     H 7435   9.506  10.999   2.971 -0.0211 -2.2068 -3.0787
  796MOL0     H 7436   9.259  11.033   2.878 -1.1756 -0.7684  1.4317
  796MOL0     H 7437   9.296  11.199   2.898 -3.4116 -1.1067  0.4840
  796MOL0     H 7438   9.294  11.005   3.127  0.0826  0.9053  1.9100
  796MOL0     H 7439   9.307  11.187   3.133 -0.9512  0.1508  1.7182
  796MOL0     H 7440   9.837  11.005   2.401 -0.6255  0.7839 -0.2026
  796MOL0     H 7441   9.688  10.907   2.245 -0.9633  0.7088 -1.6670
  796MOL0     H 7442   9.486  10.767   1.823  1.5530  1.6553  0.4396
  796MOL0     H 7443   9.279  10.717   1.683  0.8055 -1.3223  0.7616
  796MOL0     H 7444   8.288  10.213   2.123 -0.3371 -0.0663  1.0675
  796MOL0     H 7445   8.143  10.309   2.269  0.3804 -1.4989  1.7730
  796MOL0     H 7446   7.566  10.133   2.495  2.6060  0.0945 -4.1415
  796MOL0     H 7447   7.427  10.267   2.660  0.9901 -2.8258 -0.7146
  796MOL0     H 7448   7.425  10.683   2.813 -1.4086 -1.1289  3.7104
  796MOL0     H 7449   7.596  10.639   2.791  0.2756 -4.0251 -2.4683
  796MOL0     H 7450   7.419  10.479   2.976 -1.2674  1.2848  1.0289
  796MOL0     H 7451   7.504  10.609   3.040  4.3271 -0.5278  0.4701
  796MOL0     H 7452   7.726  10.489   2.969  0.8403 -2.4899  0.1968
  796MOL0     H 7453   7.628  10.353   2.927  2.6982 -0.4151 -0.1293
  796MOL0     H 7454   7.646  10.485   3.189  0.5915 -0.3355  0.7551
  796MOL0     H 7455   7.538  10.354   3.162  0.0021  0.7602 -0.2780
  796MOL0     H 7456   7.874  10.141   3.266 -5.4553 -3.0946  2.5697
  796MOL0     H 7457   7.676  10.599   2.615 -0.7351  0.4310 -1.2351
  796MOL0     H 7458   7.869  10.588   2.504 -2.1102  0.4980 -0.1730
  796MOL0     H 7459   7.970  10.444   2.505  0.9303  0.6687 -2.4943
  796MOL0     H 7460   7.898  10.489   2.359  0.0881 -2.4997  0.0013
  797MOL0     O 7461   9.744   0.330   3.068 -0.5667 -0.9633 -0.1823
  797MOL0     C 7462   9.667   0.285   2.982  0.1279  0.1700 -0.6531
  797MOL0     O 7463   9.712   0.243   2.857  0.5645 -0.4331  0.4004
  797MOL0     C 7464   9.847   0.246   2.843 -0.3856 -0.1702  0.1781
  797MOL0     C 7465   9.911   0.348   2.777  0.0750  0.5509  0.5074
  797MOL0     C 7466  10.045   0.340   2.744  0.2959 -0.7609 -0.7938
  797MOL0     C 7467  10.111   0.225   2.761 -1.1801 -0.4580  0.6968
  797MOL0     O 7468  10.245   0.230   2.721 -0.9060  0.7386  0.2629
  797MOL0     C 7469  10.338   0.121   2.759  0.1250  0.5920 -0.7416
  797MOL0     C 7470  10.474   0.187   2.720  0.0486  0.2668  0.0184
  797MOL0     C 7471  10.587   0.103   2.782  0.1971 -0.2930  0.8944
  797MOL0     C 7472  10.719   0.133   2.714 -0.2379 -1.5188  0.2019
  797MOL0     C 7473  10.823   0.026   2.721  0.0910  0.4082 -0.4903
  797MOL0     C 7474  10.914   0.022   2.844 -0.0553 -0.0684  0.2411
  797MOL0     C 7475  11.026  -0.090   2.841  0.0070 -0.1537 -0.6859
  797MOL0     C 7476  11.148  -0.059   2.757 -1.2949  0.7027 -0.2173
  797MOL0     N 7477  11.253  -0.003   2.851  0.2674  1.0875 -0.2484
  797MOL0     C 7478  11.352  -0.073   2.911 -0.3285  0.6950 -0.8078
  797MOL0     C 7479  11.395   0.018   3.003 -0.6691  0.4055  0.3919
  797MOL0     C 7480  11.499  -0.003   3.106  0.4940  0.1673 -0.2387
  797MOL0     C 7481  11.636   0.051   3.068  0.6839 -0.5180  0.6549
  797MOL0     C 7482  11.736   0.046   3.182 -0.6632 -0.3575 -1.0064
  797MOL0     C 7483  11.789  -0.098   3.195  0.2854 -0.2025  0.1740
  797MOL0     O 7484  11.889  -0.097   3.305  0.2092  0.4093  0.9362
  797MOL0     C 7485  12.005  -0.030   3.299  0.1295 -0.1319  0.5942
  797MOL0     C 7486  12.077   0.012   3.409  0.8359  1.0079 -0.1020
  797MOL0     C 7487  12.195   0.082   3.406 -1.3516  0.2755  1.2845
  797MOL0     C 7488  12.261   0.097   3.280  0.3172 -0.3227 -0.9520
  797MOL0     C 7489  12.389   0.168   3.258  0.1526 -1.0130 -0.4716
  797MOL0     O 7490  12.433   0.191   3.127 -0.5946 -0.0751  0.1621
  797MOL0     C 7491  12.576   0.188   3.111  0.5024 -0.0815 -0.2912
  797MOL0     C 7492  12.655   0.289   3.162  0.5558  0.0113 -0.0034
  797MOL0     C 7493  12.794   0.283   3.132  1.0096 -0.0072 -0.1011
  797MOL0     C 7494  12.852   0.174   3.065  0.9401 -0.8138  0.3319
  797MOL0     O 7495  12.987   0.166   3.041  0.1040  0.3489 -1.1644
  797MOL0     C 7496  13.085   0.239   3.107  0.3260  0.1193  0.1845
  797MOL0     C 7497  13.119   0.363   3.020  0.1166 -0.0831 -0.2898
  797MOL0     C 7498  13.224   0.449   3.090 -0.9329  0.0692  0.2735
  797MOL0     C 7499  13.230   0.586   3.030 -0.0399 -0.9298  0.4669
  797MOL0     C 7500  13.370   0.638   3.048 -0.3420  0.1796  0.8150
  797MOL0     C 7501  13.405   0.779   2.995 -0.6664  0.0768 -0.3472
  797MOL0     C 7502  13.368   0.889   3.099 -0.5649 -0.3423 -0.3888
  797MOL0     C 7503  13.448   0.877   3.226 -0.0559 -1.0733 -0.1398
  797MOL0    Cl 7504  13.421   1.017   3.344 -0.5315 -0.5055  0.0714
  797MOL0     C 7505  12.777   0.069   3.026 -0.1243 -0.3255 -0.3008
  797MOL0     C 7506  12.637   0.064   3.055  0.4380  0.1943 -0.3159
  797MOL0     O 7507  12.456   0.178   3.356 -0.5673 -0.4516  0.2262
  797MOL0     C 7508  12.196   0.051   3.165  0.6883 -0.7914  0.7656
  797MOL0     C 7509  12.066  -0.007   3.172  0.3209  0.1509 -0.9118
  797MOL0     N 7510  11.324   0.136   2.994 -0.8820  0.2445  0.8277
  797MOL0     N 7511  11.246   0.129   2.892 -0.0627  0.6445  0.0001
  797MOL0     C 7512  10.038   0.116   2.803 -1.1802 -0.0466 -0.6411
  797MOL0     C 7513   9.913   0.126   2.850  0.4758 -0.2503  0.1898
  797MOL0     C 7514   9.518   0.276   3.011 -0.5948 -0.6273 -0.4410
  797MOL0     C 7515   9.452   0.177   2.943  0.5377 -0.3132 -0.2814
  797MOL0     C 7516   9.319   0.149   2.968 -0.2292  0.3941  0.9284
  797MOL0     C 7517   9.241   0.213   3.061 -0.9222  0.4972  0.5004
  797MOL0     O 7518   9.107   0.192   3.090 -0.6492  0.1138 -0.6653
  797MOL0     C 7519   9.052   0.062   3.056  0.2209 -1.0838  0.1794
  797MOL0     C 7520   8.914   0.048   3.122  0.3060 -0.1467  0.8226
  797MOL0     C 7521   8.829   0.160   3.055 -0.1032 -0.1935  0.0510
  797MOL0     C 7522   8.682   0.156   3.097  0.2423 -0.1342 -0.8252
  797MOL0     C 7523   8.601   0.270   3.047 -0.1142 -0.2873 -0.7582
  797MOL0     C 7524   8.541   0.370   3.002 -0.3285  0.7984 -0.4676
  797MOL0     C 7525   9.310   0.317   3.130 -0.0643  0.2086  0.3441
  797MOL0     C 7526   9.450   0.348   3.107 -0.1378 -0.6956 -0.0639
  797MOL0     C 7527   9.501   0.466   3.177 -0.8527  1.0021 -0.2697
  797MOL0     H 7528   9.855   0.430   2.732  0.1814 -0.7955 -2.2347
  797MOL0     H 7529  10.092   0.423   2.691 -2.3520  2.1234  1.0227
  797MOL0     H 7530  10.341   0.105   2.867  2.6113  3.1422 -0.2931
  797MOL0     H 7531  10.326   0.030   2.700 -4.4215  0.9982 -0.7450
  797MOL0     H 7532  10.460   0.292   2.747  0.9313  1.3024 -3.1175
  797MOL0     H 7533  10.482   0.189   2.611  2.0421 -0.5066  0.0979
  797MOL0     H 7534  10.559  -0.002   2.773  2.6267 -0.8709 -0.9986
  797MOL0     H 7535  10.589   0.134   2.887 -3.6989 -0.8497  1.2590
  797MOL0     H 7536  10.700   0.151   2.607  4.5733 -1.2728 -0.8043
  797MOL0     H 7537  10.768   0.220   2.758  0.7036 -0.5546 -2.5228
  797MOL0     H 7538  10.767  -0.067   2.717 -0.2455  0.0669  4.8272
  797MOL0     H 7539  10.888   0.035   2.633  0.7939 -1.0491 -0.1505
  797MOL0     H 7540  10.963   0.119   2.856  0.9743 -0.7850  2.1939
  797MOL0     H 7541  10.859   0.021   2.939 -1.1465  1.4259 -0.3243
  797MOL0     H 7542  10.974  -0.187   2.834  1.0196 -0.8052  0.3689
  797MOL0     H 7543  11.055  -0.106   2.945 -0.6103 -1.1233 -0.6425
  797MOL0     H 7544  11.175  -0.157   2.717 -6.6459 -0.4625 -1.7661
  797MOL0     H 7545  11.112   0.005   2.676 -3.7276 -2.0072 -1.4593
  797MOL0     H 7546  11.383  -0.175   2.889 -2.4643 -0.0410 -0.6353
  797MOL0     H 7547  11.465   0.058   3.190  3.0869  1.5537 -0.1022
  797MOL0     H 7548  11.506  -0.105   3.145 -0.0079 -0.0844 -0.7836
  797MOL0     H 7549  11.664  -0.010   2.981  3.6435  2.1122 -0.4239
  797MOL0     H 7550  11.618   0.155   3.038 -1.9918 -0.6792  1.5068
  797MOL0     H 7551  11.697   0.079   3.279  1.4054 -1.8050  0.4033
  797MOL0     H 7552  11.820   0.108   3.151  1.4228 -2.9744 -0.9235
  797MOL0     H 7553  11.829  -0.130   3.099 -1.0797 -2.6002  0.3161
  797MOL0     H 7554  11.701  -0.157   3.222 -1.0167  2.5895  2.5973
  797MOL0     H 7555  12.030  -0.003   3.505 -0.2334  1.1779 -0.5903
  797MOL0     H 7556  12.243   0.111   3.499  1.3539 -1.7936  0.6763
  797MOL0     H 7557  12.613   0.368   3.224  1.4201 -0.5887  1.3957
  797MOL0     H 7558  12.851   0.370   3.164 -1.5189  1.3342  1.0296
  797MOL0     H 7559  13.060   0.263   3.210  1.9371  4.1147 -0.1731
  797MOL0     H 7560  13.171   0.171   3.107 -0.0615 -0.4120 -1.4096
  797MOL0     H 7561  13.165   0.325   2.929  0.4514 -2.3390  0.7607
  797MOL0     H 7562  13.027   0.420   3.000  1.2637  1.8132 -0.4271
  797MOL0     H 7563  13.194   0.459   3.195 -2.1300 -2.4117  0.2361
  797MOL0     H 7564  13.321   0.399   3.089 -0.7295  0.4513  0.5096
  797MOL0     H 7565  13.161   0.656   3.079 -0.0786 -0.1247 -0.6810
  797MOL0     H 7566  13.201   0.590   2.924 -1.2099  0.3591  0.8003
  797MOL0     H 7567  13.430   0.575   2.982 -1.5873  1.8409 -2.0753
  797MOL0     H 7568  13.408   0.618   3.149 -0.1462  1.9279  1.1168
  797MOL0     H 7569  13.513   0.792   2.987 -0.6409  1.6163  1.6952
  797MOL0     H 7570  13.367   0.790   2.893  0.2513 -0.4994 -0.7559
  797MOL0     H 7571  13.261   0.888   3.125 -0.2093  0.7672  1.2880
  797MOL0     H 7572  13.393   0.984   3.050  1.8291 -0.5494  0.2985
  797MOL0     H 7573  13.430   0.788   3.287  0.8071 -0.5140  0.9682
  797MOL0     H 7574  13.552   0.875   3.190  0.1771  1.0301  0.3260
  797MOL0     H 7575  12.828  -0.020   2.990  0.7381  0.5372 -1.2915
  797MOL0     H 7576  12.574  -0.023   3.040  1.9705 -0.5417 -3.1582
  797MOL0     H 7577  12.235   0.065   3.065  1.7592 -0.9722  1.1379
  797MOL0     H 7578  12.022  -0.040   3.078 -0.8422  0.0118 -0.3373
  797MOL0     H 7579  10.090   0.021   2.811  1.3777  1.4197  1.5518
  797MOL0     H 7580   9.867   0.035   2.886 -0.5582  0.1188 -0.1569
  797MOL0     H 7581   9.502   0.104   2.881  3.0400  1.0013  0.0659
  797MOL0     H 7582   9.273   0.066   2.915  2.3969 -0.6080  0.0488
  797MOL0     H 7583   9.116  -0.017   3.097  1.7198  0.8879  1.8354
  797MOL0     H 7584   9.044   0.061   2.947 -2.7137  0.8761  0.2407
  797MOL0     H 7585   8.923   0.060   3.231  0.1430 -3.3143  1.2883
  797MOL0     H 7586   8.880  -0.055   3.111 -3.2049  0.9834 -0.0846
  797MOL0     H 7587   8.835   0.145   2.947 -1.8167  1.5006 -0.3134
  797MOL0     H 7588   8.868   0.261   3.069  0.3658 -0.2463 -0.7925
  797MOL0     H 7589   8.630   0.066   3.063 -2.0734  1.8712 -3.0017
  797MOL0     H 7590   8.693   0.157   3.206  4.9896 -3.1577 -0.9832
  797MOL0     H 7591   8.497   0.458   2.960 -0.4145  0.7360 -0.5101
  797MOL0     H 7592   9.253   0.371   3.206 -0.7140 -2.3299  1.7596
  797MOL0     H 7593   9.608   0.466   3.201 -1.6005  0.9258  3.6593
  797MOL0     H 7594   9.472   0.565   3.140 -1.7941  0.8868  0.1559
  797MOL0     H 7595   9.462   0.469   3.279  1.0886  1.5694  0.5080
  798MOL0     O 7596   3.237   2.723   5.972  0.4429  0.1608 -0.3069
  798MOL0     C 7597   3.303   2.620   5.925  0.0662 -0.4946  0.5153
  798MOL0     O 7598   3.257   2.545   5.821  0.6183  0.5467 -0.0980
  798MOL0     C 7599   3.123   2.544   5.805 -0.1233  0.4844  0.3444
  798MOL0     C 7600   3.038   2.497   5.904  1.7645 -0.9345 -0.1383
  798MOL0     C 7601   2.900   2.521   5.874  0.7091 -1.0267 -0.2499
  798MOL0     C 7602   2.850   2.587   5.758 -1.0451 -0.7875 -0.2284
  798MOL0     O 7603   2.714   2.597   5.730 -0.3500  0.2245  0.5582
  798MOL0     C 7604   2.642   2.492   5.660  0.4385 -0.5234 -0.3269
  798MOL0     C 7605   2.481   2.501   5.663 -0.5059  0.2613 -0.1780
  798MOL0     C 7606   2.438   2.510   5.815 -0.8262 -0.1077 -1.1348
  798MOL0     C 7607   2.293   2.496   5.840  0.6537 -0.6419 -0.3056
  798MOL0     C 7608   2.274   2.467   5.986  0.7573  0.0740 -0.2788
  798MOL0     C 7609   2.125   2.468   6.028 -0.0668 -1.4254  0.1376
  798MOL0     C 7610   2.060   2.615   6.018 -0.9935  0.2126 -0.2218
  798MOL0     C 7611   2.099   2.707   6.136  0.3228 -0.2596  0.1155
  798MOL0     N 7612   2.229   2.761   6.112 -0.0115  0.2434  0.1049
  798MOL0     C 7613   2.332   2.769   6.203  0.5452 -0.6596  0.5589
  798MOL0     C 7614   2.419   2.848   6.135  0.2932  0.5536 -0.6274
  798MOL0     C 7615   2.554   2.884   6.182  0.1480 -0.5137  0.4024
  798MOL0     C 7616   2.670   2.796   6.136  0.4804 -0.1645  0.3096
  798MOL0     C 7617   2.794   2.843   6.196  0.1348 -0.1262 -1.0252
  798MOL0     C 7618   2.904   2.746   6.155  0.3908 -0.0677 -0.5887
  798MOL0     O 7619   3.012   2.770   6.246  0.3061 -0.0505  0.2461
  798MOL0     C 7620   3.034   2.691   6.352  0.4462 -0.1678 -0.0435
  798MOL0     C 7621   3.163   2.713   6.405 -0.4588  0.3840  0.2465
  798MOL0     C 7622   3.198   2.663   6.530 -0.1521 -0.2503  0.5060
  798MOL0     C 7623   3.102   2.591   6.606  0.1907 -0.3080  0.0619
  798MOL0     C 7624   3.153   2.529   6.729  1.7420 -0.0435  0.4356
  798MOL0     O 7625   3.287   2.537   6.748 -0.1672 -0.2381  0.3729
  798MOL0     C 7626   3.349   2.497   6.868 -0.3979 -0.2756 -0.1151
  798MOL0     C 7627   3.450   2.582   6.919 -0.3511 -0.8629 -0.3028
  798MOL0     C 7628   3.531   2.538   7.020  0.6564  0.3947 -0.4482
  798MOL0     C 7629   3.511   2.411   7.082 -0.9423  0.3761 -0.0342
  798MOL0     O 7630   3.614   2.362   7.170  0.5872  0.1492  0.4170
  798MOL0     C 7631   3.664   2.239   7.140 -0.3647  1.9056  0.3646
  798MOL0     C 7632   3.699   2.166   7.268  0.2062 -0.6033 -0.2725
  798MOL0     C 7633   3.577   2.118   7.347 -0.1457  0.4995  0.6848
  798MOL0     C 7634   3.561   1.964   7.351  0.2833  0.5186  0.0680
  798MOL0     C 7635   3.442   1.914   7.431  0.6563  0.0671 -0.8706
  798MOL0     C 7636   3.407   1.767   7.409 -0.2787 -0.4359 -0.4993
  798MOL0     C 7637   3.341   1.694   7.513  0.0204 -0.6483 -0.0314
  798MOL0     C 7638   3.340   1.549   7.477 -0.6678  0.6820 -0.6157
  798MOL0    Cl 7639   3.231   1.478   7.597  0.2780 -0.1888  0.0692
  798MOL0     C 7640   3.397   2.331   7.032 -0.1571  0.2616  0.7803
  798MOL0     C 7641   3.325   2.366   6.914 -1.6039 -0.2776 -0.4900
  798MOL0     O 7642   3.070   2.479   6.804 -0.5495 -0.4496  0.6113
  798MOL0     C 7643   2.971   2.576   6.559 -0.7458 -0.4836 -0.0558
  798MOL0     C 7644   2.939   2.627   6.432 -1.0040 -0.5617  0.4396
  798MOL0     N 7645   2.380   2.872   6.007  0.5216  1.2774 -0.2901
  798MOL0     N 7646   2.263   2.820   5.998  0.1097 -0.0478 -0.1331
  798MOL0     C 7647   2.944   2.628   5.660 -0.2063  0.1396  0.0829
  798MOL0     C 7648   3.083   2.605   5.685  0.6753 -0.3319 -0.4461
  798MOL0     C 7649   3.444   2.577   5.963 -0.1973 -0.0392  0.6411
  798MOL0     C 7650   3.541   2.556   5.860 -0.7163  0.7335  0.3950
  798MOL0     C 7651   3.674   2.509   5.884 -0.1656  0.2716 -0.5388
  798MOL0     C 7652   3.710   2.501   6.023 -0.0349 -0.0294  0.5507
  798MOL0     O 7653   3.839   2.460   6.065  0.4230  0.2164  0.0847
  798MOL0     C 7654   3.946   2.434   5.976  0.9978 -0.2499 -0.7055
  798MOL0     C 7655   3.940   2.294   5.916 -0.5957 -0.0030  0.4804
  798MOL0     C 7656   3.923   2.177   6.013 -0.1910 -0.9157  0.0185
  798MOL0     C 7657   3.928   2.047   5.925  0.1636  0.5184  0.3327
  798MOL0     C 7658   3.958   1.919   5.985  0.1969  0.1131 -0.2987
  798MOL0     C 7659   3.971   1.813   6.042 -0.2350 -0.5484  0.2630
  798MOL0     C 7660   3.617   2.525   6.114 -0.2918  1.0602 -0.2920
  798MOL0     C 7661   3.489   2.566   6.093  0.7790  1.1594 -0.3157
  798MOL0     C 7662   3.401   2.592   6.212 -0.6519  0.4397  0.0844
  798MOL0     H 7663   3.066   2.449   5.997  1.5125  0.4787  0.7077
  798MOL0     H 7664   2.822   2.489   5.942  0.6828  0.1766  0.3106
  798MOL0     H 7665   2.675   2.499   5.556 -0.1529  1.0209 -0.4474
  798MOL0     H 7666   2.670   2.393   5.696 -2.8942 -1.0918  1.0216
  798MOL0     H 7667   2.428   2.414   5.623 -0.8707  0.7137 -0.6939
  798MOL0     H 7668   2.445   2.593   5.616  2.0449  1.3643 -0.1811
  798MOL0     H 7669   2.476   2.606   5.849  2.1347 -2.1563  2.0856
  798MOL0     H 7670   2.499   2.443   5.877 -3.0979  0.4089  1.8715
  798MOL0     H 7671   2.235   2.574   5.791  0.8026 -1.0873 -1.2069
  798MOL0     H 7672   2.257   2.405   5.791 -0.5510 -0.9494  1.0680
  798MOL0     H 7673   2.309   2.365   6.001 -0.2419 -0.0765  1.2217
  798MOL0     H 7674   2.328   2.539   6.048 -0.5369  0.6006  0.2926
  798MOL0     H 7675   2.063   2.407   5.961  0.0641  0.2761 -1.6453
  798MOL0     H 7676   2.103   2.444   6.132  0.7619  0.2163  0.7250
  798MOL0     H 7677   1.954   2.603   6.039 -1.1133  2.7306  1.0108
  798MOL0     H 7678   2.071   2.654   5.917 -0.4656 -2.1917 -1.1522
  798MOL0     H 7679   2.022   2.785   6.142  2.9225  2.6615 -1.2684
  798MOL0     H 7680   2.092   2.654   6.231  1.6871 -0.5221  0.0850
  798MOL0     H 7681   2.333   2.724   6.301 -0.0441  0.3373  1.0415
  798MOL0     H 7682   2.571   2.990   6.161  2.7421 -0.7278  1.1078
  798MOL0     H 7683   2.559   2.880   6.291  2.1551  0.0960  0.3755
  798MOL0     H 7684   2.648   2.695   6.172  1.0364 -0.1174  0.7870
  798MOL0     H 7685   2.683   2.788   6.027  0.6740  4.8471 -0.2348
  798MOL0     H 7686   2.788   2.847   6.305  0.8695 -0.1047 -0.9793
  798MOL0     H 7687   2.818   2.942   6.156  2.2677 -0.5449 -0.9145
  798MOL0     H 7688   2.934   2.773   6.053  1.0329  1.8078  0.0553
  798MOL0     H 7689   2.875   2.641   6.159 -2.3957  0.6187 -0.9090
  798MOL0     H 7690   3.232   2.769   6.342  0.5505 -2.3620 -1.3174
  798MOL0     H 7691   3.305   2.669   6.546 -0.3846 -1.6718  3.0437
  798MOL0     H 7692   3.463   2.677   6.869 -0.3822 -0.2009  0.9115
  798MOL0     H 7693   3.618   2.597   7.046  0.6758 -0.4865  1.7518
  798MOL0     H 7694   3.606   2.172   7.076  1.2016  1.1708 -0.3506
  798MOL0     H 7695   3.760   2.257   7.089  0.2522 -0.5821  0.5214
  798MOL0     H 7696   3.764   2.079   7.252  1.0323 -0.0783  0.1527
  798MOL0     H 7697   3.762   2.239   7.320 -1.5089  1.6648 -1.1911
  798MOL0     H 7698   3.604   2.148   7.448  0.6645  0.3457  0.5219
  798MOL0     H 7699   3.487   2.169   7.312 -0.8973 -0.8868  0.5275
  798MOL0     H 7700   3.650   1.914   7.392  1.1938 -0.1351 -2.5367
  798MOL0     H 7701   3.554   1.935   7.246  2.2410 -2.7648  0.6905
  798MOL0     H 7702   3.353   1.976   7.415  0.0957  0.8842  3.9285
  798MOL0     H 7703   3.471   1.936   7.535 -1.9670  4.3804 -0.7955
  798MOL0     H 7704   3.343   1.763   7.320 -1.1598  1.0441  0.0366
  798MOL0     H 7705   3.497   1.714   7.377  0.7569  1.0431 -0.1484
  798MOL0     H 7706   3.237   1.728   7.523  0.6400  2.9195 -3.2394
  798MOL0     H 7707   3.389   1.713   7.609 -3.2375  0.1137  1.5902
  798MOL0     H 7708   3.306   1.535   7.374 -0.1458  0.2570 -0.7387
  798MOL0     H 7709   3.438   1.504   7.495 -0.7437  0.1354 -1.4928
  798MOL0     H 7710   3.403   2.229   7.069  2.5900  0.4502  1.0875
  798MOL0     H 7711   3.260   2.298   6.861  2.6590 -1.1085 -5.4057
  798MOL0     H 7712   2.897   2.537   6.628  0.1171  0.6049  1.5597
  798MOL0     H 7713   2.834   2.641   6.408 -0.5225  0.5240 -1.2325
  798MOL0     H 7714   2.904   2.675   5.570 -1.2704  2.6392  1.7630
  798MOL0     H 7715   3.152   2.647   5.613 -0.4940  3.5454  0.4699
  798MOL0     H 7716   3.513   2.570   5.756  3.5724 -0.3166 -1.0848
  798MOL0     H 7717   3.753   2.485   5.813  0.2729 -0.8819  0.3135
  798MOL0     H 7718   4.042   2.452   6.026  1.3442 -0.2321 -1.3647
  798MOL0     H 7719   3.935   2.503   5.892  0.5353  1.9691  1.0862
  798MOL0     H 7720   4.038   2.286   5.869 -0.3966  1.4874  0.5906
  798MOL0     H 7721   3.866   2.293   5.835 -0.4014 -0.8927  0.3037
  798MOL0     H 7722   3.821   2.188   6.048 -1.1208 -1.1905 -2.3835
  798MOL0     H 7723   4.002   2.172   6.089 -0.2537 -1.6728  0.0401
  798MOL0     H 7724   3.827   2.045   5.884 -0.2770  4.4951  0.8215
  798MOL0     H 7725   4.004   2.065   5.848  0.7506  0.4038  0.8738
  798MOL0     H 7726   3.976   1.719   6.092  1.4297 -0.1103  1.0019
  798MOL0     H 7727   3.653   2.518   6.216  2.0730 -1.5926 -1.1747
  798MOL0     H 7728   3.417   2.700   6.216  0.8428  0.1976  1.3812
  798MOL0     H 7729   3.295   2.563   6.205 -0.7285  0.8482 -0.5535
  798MOL0     H 7730   3.431   2.537   6.301  0.8600 -0.6885 -1.0734
  799MOL0     O 7731   1.016   1.855   8.804  0.6952 -0.3183 -1.0380
  799MOL0     C 7732   0.999   1.879   8.688  0.1371  0.3339  0.1847
  799MOL0     O 7733   1.100   1.900   8.603  0.4668  0.1313  0.6236
  799MOL0     C 7734   1.226   1.918   8.658  0.0846 -1.1512  0.5154
  799MOL0     C 7735   1.307   1.811   8.710  0.6650  0.3751 -0.1837
  799MOL0     C 7736   1.437   1.846   8.759 -0.3832  0.9864 -0.2351
  799MOL0     C 7737   1.486   1.976   8.755  1.0008  0.3767  0.0029
  799MOL0     O 7738   1.601   2.018   8.805  0.7203  0.2648  0.0703
  799MOL0     C 7739   1.633   1.972   8.936  0.0076 -0.2297  0.1324
  799MOL0     C 7740   1.740   2.065   8.994  0.0178 -0.8095 -0.2699
  799MOL0     C 7741   1.870   2.030   8.933 -0.1004 -0.6183  0.0311
  799MOL0     C 7742   1.982   2.091   9.004 -0.5508  0.6522 -0.1613
  799MOL0     C 7743   2.114   2.052   8.956  0.2063  0.0816 -0.0815
  799MOL0     C 7744   2.203   2.172   8.975 -0.1830  0.1890 -0.1515
  799MOL0     C 7745   2.334   2.142   8.911  0.0815  1.0113 -0.1306
  799MOL0     C 7746   2.411   2.033   8.987  0.7393 -0.1245 -0.4944
  799MOL0     N 7747   2.557   2.045   8.963  0.3027 -0.7098  0.3799
  799MOL0     C 7748   2.643   2.138   9.024 -0.4437 -1.4318 -0.3882
  799MOL0     C 7749   2.769   2.117   8.968  0.3445 -0.6433 -0.0025
  799MOL0     C 7750   2.890   2.196   9.016 -0.9871 -0.5925 -0.5827
  799MOL0     C 7751   3.007   2.109   9.049 -0.2822  0.0107  0.1086
  799MOL0     C 7752   3.104   2.179   9.147 -0.1141  0.9916  0.3255
  799MOL0     C 7753   3.231   2.104   9.161 -0.0415  0.1007  0.4159
  799MOL0     O 7754   3.319   2.186   9.235 -0.7894 -0.3983  0.1100
  799MOL0     C 7755   3.346   2.140   9.366  0.0132 -0.3473  0.1688
  799MOL0     C 7756   3.329   2.233   9.464 -0.0767  0.2516 -0.1320
  799MOL0     C 7757   3.377   2.209   9.593  0.3211 -1.2520 -0.0930
  799MOL0     C 7758   3.424   2.089   9.640  0.1019  0.4072  0.2913
  799MOL0     C 7759   3.469   2.065   9.779  0.4255 -0.1929 -0.3880
  799MOL0     O 7760   3.499   1.938   9.810 -0.0663 -0.4715  0.5596
  799MOL0     C 7761   3.504   1.905   9.944  0.3007 -0.3802 -0.9156
  799MOL0     C 7762   3.586   1.804   9.979 -0.4321  0.8129 -0.1468
  799MOL0     C 7763   3.587   1.755  10.107  0.5578 -0.2371 -0.6345
  799MOL0     C 7764   3.501   1.810  10.212  0.3942 -0.2664 -0.0302
  799MOL0     O 7765   3.484   1.760  10.338 -0.2502 -0.1519  0.3153
  799MOL0     C 7766   3.530   1.624  10.357 -1.7804  0.2049 -0.0921
  799MOL0     C 7767   3.458   1.573  10.484 -0.6065  0.0161 -0.3846
  799MOL0     C 7768   3.313   1.536  10.468  0.1555 -0.3368 -0.0962
  799MOL0     C 7769   3.279   1.414  10.387  0.2693 -0.4650 -0.0939
  799MOL0     C 7770   3.153   1.346  10.446 -0.6125  0.4265  0.9712
  799MOL0     C 7771   3.106   1.237  10.347 -0.6375  0.3751  1.0136
  799MOL0     C 7772   3.026   1.293  10.220 -0.5596  0.0957  0.0506
  799MOL0     C 7773   2.978   1.192  10.114 -0.3765 -0.4562  0.0254
  799MOL0    Cl 7774   2.826   1.252  10.023  0.6208  0.4597  0.5746
  799MOL0     C 7775   3.426   1.915  10.172  0.2778  1.0812  0.2547
  799MOL0     C 7776   3.426   1.963  10.042  0.6670 -0.4549 -0.7890
  799MOL0     O 7777   3.479   2.167   9.848 -0.4033 -0.7951  0.2350
  799MOL0     C 7778   3.433   1.983   9.546 -0.1947 -0.6530  0.4959
  799MOL0     C 7779   3.401   2.014   9.405 -0.3276  0.2630 -0.6343
  799MOL0     N 7780   2.759   2.019   8.874  0.3574 -0.9244 -0.4607
  799MOL0     N 7781   2.635   1.976   8.871 -0.5449  0.5848 -0.4730
  799MOL0     C 7782   1.407   2.078   8.704  0.1049  0.0008  0.2247
  799MOL0     C 7783   1.282   2.054   8.658  0.4806  0.9062  0.1190
  799MOL0     C 7784   0.855   1.855   8.636  0.2111 -0.6153  1.5822
  799MOL0     C 7785   0.830   1.897   8.503 -0.0259 -0.2166 -0.8987
  799MOL0     C 7786   0.705   1.912   8.452  0.2138 -1.1767 -0.6620
  799MOL0     C 7787   0.592   1.855   8.522 -0.5569 -0.0624  0.2233
  799MOL0     O 7788   0.475   1.863   8.461  0.0910 -0.0186 -0.3028
  799MOL0     C 7789   0.377   1.766   8.492  0.0824 -1.2816 -0.0025
  799MOL0     C 7790   0.267   1.823   8.579 -0.6565  0.3202  0.3472
  799MOL0     C 7791   0.137   1.851   8.494 -0.0619 -1.1179 -0.4450
  799MOL0     C 7792   0.052   1.936   8.582 -0.4602  0.2960  0.3824
  799MOL0     C 7793  -0.077   1.980   8.527 -0.0725 -0.7396 -0.6305
  799MOL0     C 7794  -0.180   2.041   8.493  0.2111  0.1048 -0.8448
  799MOL0     C 7795   0.617   1.794   8.643  0.1334 -0.6703 -0.7913
  799MOL0     C 7796   0.743   1.797   8.706  0.2910 -0.3571  1.2569
  799MOL0     C 7797   0.742   1.747   8.845  0.3483  0.4320 -0.3312
  799MOL0     H 7798   1.271   1.709   8.715  0.7338  0.3511 -0.1707
  799MOL0     H 7799   1.501   1.770   8.804 -0.2463  1.1517 -0.1526
  799MOL0     H 7800   1.541   1.970   8.994 -0.7032 -1.0834 -0.9913
  799MOL0     H 7801   1.667   1.868   8.924  0.9518 -0.0217  0.8533
  799MOL0     H 7802   1.742   2.054   9.103  2.1412  2.5115  0.1626
  799MOL0     H 7803   1.719   2.170   8.973 -1.5520 -0.9191  0.6209
  799MOL0     H 7804   1.878   2.054   8.826  0.0915  0.5289  0.2878
  799MOL0     H 7805   1.883   1.921   8.939  3.7734 -0.3371 -0.6223
  799MOL0     H 7806   1.962   2.199   9.001  0.2505  0.8368  0.8190
  799MOL0     H 7807   1.971   2.067   9.110  1.5750 -1.2185 -0.3105
  799MOL0     H 7808   2.146   1.961   9.007 -2.1251  0.3559  2.1076
  799MOL0     H 7809   2.113   2.028   8.849 -3.5153  0.6208 -0.3096
  799MOL0     H 7810   2.161   2.256   8.920 -2.5702 -0.2574  0.8634
  799MOL0     H 7811   2.210   2.196   9.081 -0.1337 -0.3665 -0.0217
  799MOL0     H 7812   2.392   2.235   8.907 -0.5123  1.6153  3.0297
  799MOL0     H 7813   2.319   2.108   8.807 -0.0715  2.6948 -0.6913
  799MOL0     H 7814   2.392   2.054   9.093  0.0745  2.1242 -1.0180
  799MOL0     H 7815   2.381   1.932   8.958  2.5686 -0.7318 -0.4081
  799MOL0     H 7816   2.635   2.198   9.114 -1.7835  0.5179 -1.7223
  799MOL0     H 7817   2.923   2.281   8.955  0.8005 -0.7212  0.1361
  799MOL0     H 7818   2.869   2.255   9.105  3.7102  0.7332 -0.1098
  799MOL0     H 7819   2.980   2.013   9.094 -1.0920 -0.8254 -2.0201
  799MOL0     H 7820   3.063   2.077   8.961  2.7871 -0.9217  2.2378
  799MOL0     H 7821   3.052   2.164   9.242  0.3921 -3.5733  0.0618
  799MOL0     H 7822   3.118   2.286   9.125  0.2966  0.5631 -1.6499
  799MOL0     H 7823   3.278   2.072   9.068  0.4423 -2.0361  1.3537
  799MOL0     H 7824   3.212   2.010   9.214  2.2758 -0.2070  0.7943
  799MOL0     H 7825   3.284   2.330   9.444  1.6233  2.0882  3.7741
  799MOL0     H 7826   3.362   2.290   9.664  1.7218 -0.8502 -0.2175
  799MOL0     H 7827   3.652   1.763   9.904  0.6731 -1.7786  2.0407
  799MOL0     H 7828   3.653   1.671  10.127 -2.1151 -1.8310  2.5491
  799MOL0     H 7829   3.506   1.546  10.284  0.5370 -2.3612  1.7049
  799MOL0     H 7830   3.639   1.628  10.365 -1.7392 -1.5550  0.7019
  799MOL0     H 7831   3.497   1.476  10.515 -1.4489  0.3472  1.9092
  799MOL0     H 7832   3.483   1.644  10.563 -0.2193  0.6591 -1.0759
  799MOL0     H 7833   3.279   1.515  10.570 -2.2098  1.5766 -0.4080
  799MOL0     H 7834   3.249   1.621  10.446  0.5319  0.1618  0.6799
  799MOL0     H 7835   3.359   1.339  10.392  0.9714  0.2983  0.2837
  799MOL0     H 7836   3.262   1.431  10.280 -0.5855 -1.0335 -0.0651
  799MOL0     H 7837   3.078   1.425  10.458  2.2852  3.7508 -0.6962
  799MOL0     H 7838   3.178   1.300  10.542  3.5177 -1.5709 -0.8084
  799MOL0     H 7839   3.192   1.182  10.307  2.4416  3.3875  3.0044
  799MOL0     H 7840   3.042   1.172  10.407 -0.2301  0.9582  2.0916
  799MOL0     H 7841   3.099   1.364  10.180  1.0248 -1.5936 -0.1633
  799MOL0     H 7842   2.936   1.346  10.255 -1.4191 -1.3258  0.0541
  799MOL0     H 7843   3.054   1.154  10.046 -0.8150 -0.5778 -0.4001
  799MOL0     H 7844   2.945   1.102  10.167 -0.7403  0.4763  1.4631
  799MOL0     H 7845   3.367   1.967  10.247 -2.0285  2.2897 -2.2098
  799MOL0     H 7846   3.359   2.047  10.027  0.2088 -0.9016 -1.3042
  799MOL0     H 7847   3.473   1.883   9.555  0.6297 -0.3063  0.8202
  799MOL0     H 7848   3.414   1.932   9.334  0.0651 -1.7824  1.6778
  799MOL0     H 7849   1.440   2.181   8.695  0.9973 -0.1500  1.5276
  799MOL0     H 7850   1.216   2.131   8.618  0.9036  0.8900 -0.6142
  799MOL0     H 7851   0.913   1.934   8.445  1.0516  2.7416  2.2131
  799MOL0     H 7852   0.692   1.958   8.354  2.9095  2.5256  0.5254
  799MOL0     H 7853   0.416   1.678   8.543 -0.6952 -1.2238  0.7203
  799MOL0     H 7854   0.338   1.728   8.398 -1.2129 -0.9769  0.3841
  799MOL0     H 7855   0.305   1.912   8.629  1.5391 -0.7849  0.7414
  799MOL0     H 7856   0.238   1.745   8.650  0.6618 -0.6215 -0.1067
  799MOL0     H 7857   0.089   1.754   8.481 -0.5927 -1.2411  1.9482
  799MOL0     H 7858   0.154   1.910   8.404  1.4030  0.2673  0.6795
  799MOL0     H 7859   0.026   1.886   8.676 -4.0787  3.3032  1.2209
  799MOL0     H 7860   0.113   2.027   8.586  4.1123 -2.1509 -3.1519
  799MOL0     H 7861  -0.274   2.085   8.467  0.0338 -0.6907 -1.6099
  799MOL0     H 7862   0.527   1.773   8.700  0.1077  0.8299 -0.2403
  799MOL0     H 7863   0.655   1.697   8.887  1.7544  0.3349  2.7432
  799MOL0     H 7864   0.818   1.669   8.857  0.3312  0.6460  1.4110
  799MOL0     H 7865   0.764   1.833   8.909  2.4775  0.6538 -1.2383
  800MOL0     O 7866   9.123   6.911   6.629 -0.3773  0.0557 -0.8345
  800MOL0     C 7867   9.129   6.853   6.521 -0.2195  0.9278 -0.4288
  800MOL0     O 7868   9.172   6.903   6.403  0.0641  0.0815  0.2040
  800MOL0     C 7869   9.210   7.030   6.379 -0.0046  0.8841  1.1524
  800MOL0     C 7870   9.287   7.100   6.468 -0.7046 -0.6400 -0.1486
  800MOL0     C 7871   9.321   7.238   6.438 -0.3216  0.1545 -0.0204
  800MOL0     C 7872   9.300   7.288   6.312 -0.3224  0.0221  0.7540
  800MOL0     O 7873   9.327   7.416   6.262  0.0072  0.6883  0.3929
  800MOL0     C 7874   9.431   7.483   6.337 -0.2054  0.1855 -0.4892
  800MOL0     C 7875   9.439   7.623   6.269  0.0777  0.1238 -0.5779
  800MOL0     C 7876   9.485   7.624   6.118 -0.4223 -0.1293 -0.9703
  800MOL0     C 7877   9.633   7.622   6.091 -0.0096 -0.2075 -0.5005
  800MOL0     C 7878   9.663   7.607   5.943 -0.1983 -0.3827  0.1456
  800MOL0     C 7879   9.639   7.732   5.857  0.2726 -0.0572 -0.1891
  800MOL0     C 7880   9.687   7.716   5.713 -0.4048  0.0404 -0.3434
  800MOL0     C 7881   9.691   7.847   5.639 -0.3036 -0.1147  0.1090
  800MOL0     N 7882   9.783   7.955   5.681  0.8707 -0.0242 -1.0876
  800MOL0     C 7883   9.914   7.973   5.652 -0.6124 -0.6756 -0.3423
  800MOL0     C 7884   9.952   8.084   5.718 -0.2993 -0.4798 -0.1373
  800MOL0     C 7885  10.090   8.154   5.716  1.4027  0.5237  0.6117
  800MOL0     C 7886  10.104   8.243   5.588  0.3300  0.6481 -0.1015
  800MOL0     C 7887  10.002   8.368   5.589 -0.1005  0.3998  0.1378
  800MOL0     C 7888  10.025   8.474   5.700 -0.4230 -0.5796  0.2716
  800MOL0     O 7889  10.128   8.571   5.672 -0.0725 -0.2866 -0.1724
  800MOL0     C 7890  10.253   8.535   5.688 -0.3444  1.1552 -0.0710
  800MOL0     C 7891  10.330   8.507   5.578  0.2688  0.4714 -0.4411
  800MOL0     C 7892  10.466   8.480   5.590  0.2612  0.2647  0.1928
  800MOL0     C 7893  10.527   8.466   5.718 -0.4774  0.2199 -0.3273
  800MOL0     C 7894  10.677   8.446   5.738  0.3066  0.5927  0.8176
  800MOL0     O 7895  10.729   8.443   5.864 -0.3977 -0.1762  0.0079
  800MOL0     C 7896  10.858   8.412   5.879  0.7415 -0.0017 -0.7015
  800MOL0     C 7897  10.964   8.482   5.828 -0.5980  0.5891 -0.5677
  800MOL0     C 7898  11.097   8.437   5.855 -0.5922 -1.0221  0.5639
  800MOL0     C 7899  11.128   8.321   5.933  0.8975 -0.9563  0.8018
  800MOL0     O 7900  11.246   8.261   5.953  0.9576  0.0623 -0.4274
  800MOL0     C 7901  11.369   8.322   5.911 -1.5140 -0.2207 -0.5093
  800MOL0     C 7902  11.488   8.225   5.905  0.3889  0.9472 -0.1517
  800MOL0     C 7903  11.620   8.284   5.854  0.2904 -0.1835 -0.9120
  800MOL0     C 7904  11.618   8.328   5.708  0.0588 -0.1336 -0.0900
  800MOL0     C 7905  11.762   8.344   5.649 -1.1407 -0.1587  0.3986
  800MOL0     C 7906  11.817   8.203   5.612 -0.1328 -0.9510 -0.1697
  800MOL0     C 7907  11.970   8.203   5.624 -0.4448  0.5449  0.3506
  800MOL0     C 7908  12.028   8.079   5.562  0.2426  0.1053  0.9333
  800MOL0    Cl 7909  12.013   8.072   5.380  0.4916 -0.5205  0.1393
  800MOL0     C 7910  11.015   8.255   5.983 -0.9330 -0.4269 -0.2530
  800MOL0     C 7911  10.888   8.303   5.968 -0.4290 -0.3095  0.1491
  800MOL0     O 7912  10.740   8.430   5.639 -0.0896  0.7638  0.2691
  800MOL0     C 7913  10.443   8.490   5.834 -0.0113  0.2617 -0.0962
  800MOL0     C 7914  10.307   8.517   5.820 -0.3922 -0.5817  0.8785
  800MOL0     N 7915   9.842   8.122   5.802 -0.8884 -0.2093 -0.3477
  800MOL0     N 7916   9.735   8.056   5.775  0.2645 -0.0700  0.0180
  800MOL0     C 7917   9.216   7.213   6.226 -0.4886  0.2356  0.0931
  800MOL0     C 7918   9.164   7.093   6.256  0.4009 -0.0704  0.1000
  800MOL0     C 7919   9.092   6.701   6.516  0.3453  0.3825  0.2376
  800MOL0     C 7920   9.167   6.618   6.435  0.8022  0.9618  0.4659
  800MOL0     C 7921   9.140   6.488   6.421 -0.1178 -0.9179 -0.0230
  800MOL0     C 7922   9.036   6.436   6.497 -0.0380  0.3374  0.8434
  800MOL0     O 7923   9.024   6.300   6.472 -0.6680 -0.4492 -0.4483
  800MOL0     C 7924   8.962   6.223   6.581  0.2255 -1.1825  0.3696
  800MOL0     C 7925   8.986   6.077   6.556  0.2990  0.6595  0.3995
  800MOL0     C 7926   9.130   6.022   6.575  0.0809  0.3636 -0.1322
  800MOL0     C 7927   9.174   5.911   6.484 -0.0528  0.0528 -0.0766
  800MOL0     C 7928   9.068   5.803   6.492 -0.3880 -0.0659 -0.1143
  800MOL0     C 7929   8.990   5.709   6.465  0.5091  0.1810  0.5615
  800MOL0     C 7930   8.955   6.506   6.579 -0.0913 -0.5555  0.3482
  800MOL0     C 7931   8.989   6.643   6.596 -0.6979  0.4203  0.1675
  800MOL0     C 7932   8.902   6.715   6.698 -0.6616 -1.6683  0.1912
  800MOL0     H 7933   9.317   7.050   6.560 -1.4303  0.9579  1.0230
  800MOL0     H 7934   9.356   7.292   6.526  2.2252 -2.0530  0.4762
  800MOL0     H 7935   9.394   7.488   6.440 -1.0831 -2.6581 -0.5887
  800MOL0     H 7936   9.531   7.439   6.340 -0.1083  0.4612  1.9231
  800MOL0     H 7937   9.505   7.688   6.325 -0.9764  3.3126 -2.7322
  800MOL0     H 7938   9.338   7.666   6.276  0.8992  1.8249  3.3109
  800MOL0     H 7939   9.460   7.728   6.096 -0.7992  0.4021  1.6780
  800MOL0     H 7940   9.421   7.559   6.057 -2.6601 -0.2205  1.2981
  800MOL0     H 7941   9.669   7.719   6.128 -1.4274 -0.1128  0.7394
  800MOL0     H 7942   9.688   7.548   6.149  1.5995 -0.4715 -2.2717
  800MOL0     H 7943   9.761   7.563   5.922  0.7985  1.9846 -0.4195
  800MOL0     H 7944   9.595   7.537   5.894 -0.2002 -0.0974 -0.2644
  800MOL0     H 7945   9.533   7.759   5.853  0.5990  1.8651  2.3096
  800MOL0     H 7946   9.707   7.811   5.889 -1.3092  1.9696 -1.5636
  800MOL0     H 7947   9.629   7.649   5.649  1.9682  0.8062 -3.5759
  800MOL0     H 7948   9.790   7.681   5.715 -0.2585  0.4839  0.3713
  800MOL0     H 7949   9.718   7.820   5.536 -1.1318 -0.6215  0.0172
  800MOL0     H 7950   9.586   7.878   5.629 -0.1383 -0.2225 -3.0741
  800MOL0     H 7951   9.975   7.918   5.581  0.2582  2.6459 -2.3944
  800MOL0     H 7952  10.100   8.219   5.803 -1.1889  0.2354  1.2177
  800MOL0     H 7953  10.171   8.082   5.727  1.0484  0.3427  2.3348
  800MOL0     H 7954  10.202   8.290   5.599  1.2818 -1.6632  2.7682
  800MOL0     H 7955  10.094   8.185   5.496 -2.1114 -0.5289  0.8169
  800MOL0     H 7956   9.902   8.325   5.595  0.5974 -1.3208 -0.0261
  800MOL0     H 7957  10.005   8.424   5.495 -1.6948  1.3269  0.5965
  800MOL0     H 7958  10.035   8.429   5.799  0.7111  1.3827  1.1021
  800MOL0     H 7959   9.929   8.527   5.701  0.3859  0.9228  1.0258
  800MOL0     H 7960  10.279   8.515   5.483 -0.5555 -1.8575 -0.2496
  800MOL0     H 7961  10.523   8.463   5.499 -1.7422  0.8241 -1.2471
  800MOL0     H 7962  10.955   8.572   5.768  2.7631  3.1027  2.2731
  800MOL0     H 7963  11.175   8.498   5.811 -1.7565 -1.4728 -2.4000
  800MOL0     H 7964  11.360   8.383   5.820  0.7745  1.8338  0.5317
  800MOL0     H 7965  11.400   8.393   5.988  1.7407 -1.8067 -0.1855
  800MOL0     H 7966  11.507   8.193   6.008  1.5363 -0.3340 -0.7332
  800MOL0     H 7967  11.457   8.137   5.848 -1.6282  0.2231  1.8763
  800MOL0     H 7968  11.658   8.373   5.905  1.9267 -2.0430  1.3042
  800MOL0     H 7969  11.704   8.214   5.863  0.0619 -0.7020 -2.4903
  800MOL0     H 7970  11.564   8.422   5.697  0.6897  0.1355 -0.9225
  800MOL0     H 7971  11.551   8.273   5.641  1.5091  0.0017 -1.7081
  800MOL0     H 7972  11.824   8.394   5.723  0.6813  1.3769 -2.0177
  800MOL0     H 7973  11.772   8.407   5.560 -0.7355  1.0391  1.2651
  800MOL0     H 7974  11.785   8.133   5.689 -0.1655  2.7510  3.4866
  800MOL0     H 7975  11.779   8.174   5.513  1.5030  1.8533 -1.7629
  800MOL0     H 7976  11.996   8.199   5.730 -1.8903 -1.8798  0.6863
  800MOL0     H 7977  12.013   8.293   5.578  2.0859 -0.0443  1.3677
  800MOL0     H 7978  12.136   8.075   5.580  0.6476 -1.7902 -1.4837
  800MOL0     H 7979  11.981   7.991   5.608  0.2809  0.5619  1.8830
  800MOL0     H 7980  11.027   8.173   6.053 -1.0714  0.5761  0.9648
  800MOL0     H 7981  10.809   8.256   6.026 -0.7140  1.6663  1.4601
  800MOL0     H 7982  10.467   8.474   5.938  0.7380  0.0846 -0.2865
  800MOL0     H 7983  10.238   8.551   5.897 -2.4138 -1.8885 -0.2872
  800MOL0     H 7984   9.190   7.265   6.134  0.8021  1.0178  0.1423
  800MOL0     H 7985   9.085   7.048   6.197 -2.9602  1.9181  2.6913
  800MOL0     H 7986   9.258   6.657   6.389  0.4529 -0.0689 -1.1748
  800MOL0     H 7987   9.210   6.427   6.364  1.7260  1.0383  0.0265
  800MOL0     H 7988   8.857   6.254   6.581  0.1062 -1.5806  0.2549
  800MOL0     H 7989   9.007   6.249   6.677  0.4126 -1.8179  0.4542
  800MOL0     H 7990   8.951   6.058   6.454  2.4220  0.6538 -0.3930
  800MOL0     H 7991   8.921   6.020   6.623  2.5724 -0.4784  1.7653
  800MOL0     H 7992   9.159   5.983   6.673  1.2568 -1.3997 -1.1161
  800MOL0     H 7993   9.202   6.100   6.549 -1.1482  0.9773 -1.8379
  800MOL0     H 7994   9.179   5.949   6.382 -1.2817  1.7658  0.4431
  800MOL0     H 7995   9.270   5.875   6.522 -1.0872 -0.0788  2.6465
  800MOL0     H 7996   8.917   5.638   6.433 -0.2948  0.8063  0.9942
  800MOL0     H 7997   8.880   6.454   6.636  0.4392 -1.5268  0.1800
  800MOL0     H 7998   8.959   6.726   6.790  0.2368 -2.0603 -0.3076
  800MOL0     H 7999   8.868   6.813   6.661  1.8629 -1.3602 -1.6008
  800MOL0     H 8000   8.807   6.663   6.707 -1.8109  0.0081 -1.3505
  801MOL0     O 8001   1.445   5.119  10.925  0.1758 -0.0950  0.6576
  801MOL0     C 8002   1.379   5.155  11.030  1.0351  0.9557 -0.0728
  801MOL0     O 8003   1.433   5.197  11.145 -0.4066 -1.1004  0.0139
  801MOL0     C 8004   1.566   5.170  11.164  0.0047  0.4169  0.4840
  801MOL0     C 8005   1.651   5.273  11.208 -1.1810  0.5118 -0.1848
  801MOL0     C 8006   1.783   5.248  11.241 -0.1186  0.1594 -0.1039
  801MOL0     C 8007   1.834   5.109  11.220  1.0166 -0.3694  0.0795
  801MOL0     O 8008   1.963   5.086  11.265 -0.7183  0.4406  0.4809
  801MOL0     C 8009   2.002   4.953  11.305 -0.8225 -0.9318 -0.0436
  801MOL0     C 8010   2.142   4.970  11.370 -0.1375  0.5235  0.3434
  801MOL0     C 8011   2.236   5.013  11.259 -0.6892 -0.0735  0.4882
  801MOL0     C 8012   2.374   5.038  11.332 -0.4174  0.1947  0.0754
  801MOL0     C 8013   2.488   5.059  11.224 -0.0699 -0.2747 -0.3020
  801MOL0     C 8014   2.608   5.126  11.258  0.4069  0.6751  0.5135
  801MOL0     C 8015   2.690   5.154  11.132  1.0915 -0.2664 -0.2713
  801MOL0     C 8016   2.820   5.225  11.176  0.9171  1.1070  0.3893
  801MOL0     N 8017   2.802   5.339  11.255  0.8305  0.2125 -0.8384
  801MOL0     C 8018   2.817   5.347  11.395 -0.1688 -0.3089  0.7740
  801MOL0     C 8019   2.857   5.474  11.423 -0.2265  0.4972  0.2629
  801MOL0     C 8020   2.888   5.534  11.557 -0.0518  0.2431 -0.0278
  801MOL0     C 8021   3.034   5.586  11.564 -0.6591 -0.1768  0.2730
  801MOL0     C 8022   3.120   5.517  11.670 -0.4746  0.4823  0.4510
  801MOL0     C 8023   3.275   5.542  11.649 -0.6920  0.9912 -0.0387
  801MOL0     O 8024   3.341   5.492  11.772 -0.3549 -0.5456 -0.3570
  801MOL0     C 8025   3.482   5.494  11.774  0.2591 -0.1261  0.2209
  801MOL0     C 8026   3.538   5.455  11.894 -0.0440  0.2406  0.4330
  801MOL0     C 8027   3.676   5.435  11.907 -0.4969  0.1213  0.0941
  801MOL0     C 8028   3.764   5.463  11.800  0.3176 -0.2970  0.0490
  801MOL0     C 8029   3.919   5.474  11.805  0.3304 -0.1381  0.1106
  801MOL0     O 8030   3.974   5.408  11.909  0.5160  0.7043  0.2669
  801MOL0     C 8031   4.093   5.447  11.951 -0.1131  0.7406 -0.6458
  801MOL0     C 8032   4.183   5.347  11.978 -0.2547  0.1057  0.4441
  801MOL0     C 8033   4.317   5.373  12.007 -0.5379 -0.2663  0.1448
  801MOL0     C 8034   4.362   5.505  12.024  0.0110  0.2474  0.4993
  801MOL0     O 8035   4.490   5.520  12.049  0.2053  0.1333 -0.2619
  801MOL0     C 8036   4.535   5.646  12.094  0.1849  0.9156 -1.1269
  801MOL0     C 8037   4.686   5.637  12.099 -0.1307 -0.5766 -0.1947
  801MOL0     C 8038   4.731   5.541  12.207  0.5088  0.6903 -0.4193
  801MOL0     C 8039   4.742   5.602  12.345  0.3221  0.4581 -0.2458
  801MOL0     C 8040   4.765   5.486  12.446  0.2185  0.2624  0.1627
  801MOL0     C 8041   4.774   5.528  12.593  0.1320 -0.9267 -0.7151
  801MOL0     C 8042   4.644   5.512  12.670  0.4531  0.5729  0.4546
  801MOL0     C 8043   4.640   5.560  12.815 -0.0015  0.0117 -0.1648
  801MOL0    Cl 8044   4.474   5.557  12.873  0.3496 -0.2290  0.5596
  801MOL0     C 8045   4.266   5.612  12.009 -1.4175  0.0427 -0.0033
  801MOL0     C 8046   4.131   5.587  11.965  0.1360  0.0613 -0.3983
  801MOL0     O 8047   3.977   5.551  11.734  0.5866  0.4961 -0.1605
  801MOL0     C 8048   3.707   5.509  11.679 -0.5426  0.1802  0.0137
  801MOL0     C 8049   3.572   5.516  11.667 -0.7005 -0.7555  0.7978
  801MOL0     N 8050   2.863   5.547  11.305  0.1899  0.5152  1.0795
  801MOL0     N 8051   2.833   5.462  11.211 -0.2485 -0.1922  0.0019
  801MOL0     C 8052   1.744   5.010  11.174 -0.0997  0.6196 -0.2227
  801MOL0     C 8053   1.614   5.042  11.159  0.2780 -1.7599 -0.1212
  801MOL0     C 8054   1.224   5.162  11.011  0.2005 -0.3718 -0.0417
  801MOL0     C 8055   1.149   5.231  11.111 -0.8467  0.3868  0.8932
  801MOL0     C 8056   1.013   5.213  11.121 -0.0017 -1.8682  0.5838
  801MOL0     C 8057   0.945   5.148  11.021 -0.5743  0.2376  0.3957
  801MOL0     O 8058   0.806   5.143  11.011  0.1168 -0.1494 -0.2601
  801MOL0     C 8059   0.724   5.193  11.123 -0.9426  0.7279  0.1255
  801MOL0     C 8060   0.581   5.167  11.091  0.6963  0.1174  0.4598
  801MOL0     C 8061   0.509   5.177  11.222  1.1329  0.0887 -0.2529
  801MOL0     C 8062   0.370   5.110  11.206 -0.1392  0.1048  0.2528
  801MOL0     C 8063   0.376   4.961  11.218  0.6935  0.1756  0.2614
  801MOL0     C 8064   0.421   4.845  11.226  1.4062 -0.5407 -0.2773
  801MOL0     C 8065   1.011   5.100  10.913 -0.6199  0.3071  0.3434
  801MOL0     C 8066   1.152   5.094  10.911  0.4007  0.0596 -0.6116
  801MOL0     C 8067   1.203   4.972  10.826  0.0669  0.0855  0.6402
  801MOL0     H 8068   1.608   5.372  11.215  0.3000  1.2784 -1.3262
  801MOL0     H 8069   1.841   5.328  11.287 -1.3655  1.9146 -1.4260
  801MOL0     H 8070   1.939   4.917  11.387  1.9791 -0.7904  2.3410
  801MOL0     H 8071   2.003   4.880  11.224  1.9020 -1.0475 -0.0011
  801MOL0     H 8072   2.174   4.874  11.411 -3.0140 -0.0741  1.3990
  801MOL0     H 8073   2.131   5.044  11.450 -0.3975  0.3687  0.4496
  801MOL0     H 8074   2.207   5.109  11.215  0.6029  0.6838  1.2255
  801MOL0     H 8075   2.252   4.938  11.181  2.9000  0.3610  0.6400
  801MOL0     H 8076   2.371   5.132  11.389 -1.0923 -0.2548  0.7921
  801MOL0     H 8077   2.399   4.954  11.397  1.9376  0.9229  0.2208
  801MOL0     H 8078   2.507   4.968  11.166 -0.3238 -0.3628 -0.2504
  801MOL0     H 8079   2.438   5.122  11.150 -2.0644 -0.2641  0.9724
  801MOL0     H 8080   2.576   5.214  11.316 -2.2957  0.7079 -0.8593
  801MOL0     H 8081   2.664   5.063  11.327 -2.6370 -1.6057  1.0944
  801MOL0     H 8082   2.639   5.210  11.053 -0.2191  0.1467  0.8398
  801MOL0     H 8083   2.719   5.059  11.087 -1.1616 -0.8091 -0.6980
  801MOL0     H 8084   2.890   5.158  11.226  2.9082  3.6375  1.1981
  801MOL0     H 8085   2.871   5.257  11.085  0.3659  1.2183  0.1157
  801MOL0     H 8086   2.816   5.277  11.478 -1.2139  1.0955  2.0035
  801MOL0     H 8087   2.822   5.620  11.570  0.7802  1.0575 -1.0692
  801MOL0     H 8088   2.867   5.468  11.642  0.1929  3.0182  2.3276
  801MOL0     H 8089   3.095   5.582  11.474  0.9379  0.5881  1.2502
  801MOL0     H 8090   3.028   5.688  11.606 -0.4044  0.4678 -1.2118
  801MOL0     H 8091   3.121   5.408  11.675 -0.6721  0.4515 -0.1508
  801MOL0     H 8092   3.080   5.553  11.766 -0.5469  3.0575 -0.4605
  801MOL0     H 8093   3.300   5.648  11.639 -1.5992  1.1249 -1.0329
  801MOL0     H 8094   3.313   5.493  11.558  0.7717  1.6018  0.2047
  801MOL0     H 8095   3.474   5.424  11.977 -0.9186  0.6389 -0.0809
  801MOL0     H 8096   3.718   5.403  12.002  2.6281  1.2929 -0.7519
  801MOL0     H 8097   4.153   5.243  11.979  0.5576 -0.1638 -0.7644
  801MOL0     H 8098   4.385   5.289  12.000  3.6281  2.7573  0.2501
  801MOL0     H 8099   4.503   5.722  12.022 -2.7258 -1.0078 -2.0247
  801MOL0     H 8100   4.500   5.690  12.188  1.8210  4.6666 -2.0948
  801MOL0     H 8101   4.730   5.614  12.002 -0.0694  1.7282 -0.7925
  801MOL0     H 8102   4.734   5.729  12.134 -0.5129 -0.8175  1.0321
  801MOL0     H 8103   4.672   5.448  12.207  0.4961  0.6834 -1.5927
  801MOL0     H 8104   4.823   5.521  12.152 -0.8824  1.7000 -3.3623
  801MOL0     H 8105   4.643   5.643  12.370 -2.0949 -4.9042  0.3422
  801MOL0     H 8106   4.824   5.674  12.349 -0.0384  0.8232  2.5288
  801MOL0     H 8107   4.855   5.431  12.418 -1.0105 -3.1340  2.1928
  801MOL0     H 8108   4.688   5.408  12.446  0.3594  0.1091 -0.8794
  801MOL0     H 8109   4.852   5.466  12.637  0.7098 -0.0004 -0.3932
  801MOL0     H 8110   4.806   5.633  12.597 -1.3578 -0.3529  4.7940
  801MOL0     H 8111   4.633   5.403  12.674  0.5747  0.4864 -1.0446
  801MOL0     H 8112   4.560   5.548  12.610 -0.9355 -2.6253  0.2984
  801MOL0     H 8113   4.705   5.489  12.866  1.9655  0.6332 -1.6707
  801MOL0     H 8114   4.678   5.662  12.823  1.1716 -0.4908  1.0017
  801MOL0     H 8115   4.290   5.717  12.019  1.9543 -0.2979 -2.5398
  801MOL0     H 8116   4.057   5.667  11.960  0.7372  0.6115 -0.6190
  801MOL0     H 8117   3.776   5.526  11.597  0.4960 -1.5543  0.4746
  801MOL0     H 8118   3.537   5.552  11.571  2.3813 -0.2723 -0.2683
  801MOL0     H 8119   1.761   4.903  11.168  0.0334  0.5827  0.7001
  801MOL0     H 8120   1.547   4.958  11.146  0.0439 -1.7024  0.6424
  801MOL0     H 8121   1.204   5.290  11.183  2.1804 -1.1414  0.0049
  801MOL0     H 8122   0.961   5.265  11.200 -0.6714 -0.1507 -0.9089
  801MOL0     H 8123   0.742   5.293  11.164  0.4741 -0.6823  3.2074
  801MOL0     H 8124   0.755   5.131  11.207 -2.1970  1.3089  1.0326
  801MOL0     H 8125   0.557   5.074  11.038  1.5699 -0.5061  1.1202
  801MOL0     H 8126   0.547   5.253  11.033  2.8101  3.6948  4.0081
  801MOL0     H 8127   0.492   5.281  11.251  1.8347 -0.0225  0.5992
  801MOL0     H 8128   0.569   5.150  11.309 -0.8012 -0.3056  1.0429
  801MOL0     H 8129   0.305   5.140  11.289  1.8909  1.1864  1.5164
  801MOL0     H 8130   0.322   5.163  11.122  0.9733  2.1544  0.8438
  801MOL0     H 8131   0.453   4.744  11.241 -2.3556 -1.7316  0.7772
  801MOL0     H 8132   0.942   5.056  10.841 -0.2340 -1.3384  0.9400
  801MOL0     H 8133   1.307   4.942  10.839  0.0954 -1.5385 -2.3475
  801MOL0     H 8134   1.130   4.891  10.829  0.9231 -0.8783 -1.7091
  801MOL0     H 8135   1.215   5.012  10.725  0.2982  3.9395  2.0284
  802MOL0     O 8136   0.975  10.021   8.772  0.3643  0.6672 -0.0456
  802MOL0     C 8137   0.953   9.969   8.666 -0.4359  0.6512  0.1115
  802MOL0     O 8138   0.842   9.967   8.587  0.1372 -0.4211  0.0506
  802MOL0     C 8139   0.722  10.025   8.640 -0.1749  0.0151 -0.2117
  802MOL0     C 8140   0.605   9.941   8.647 -0.2260 -0.1484 -0.6225
  802MOL0     C 8141   0.477   9.997   8.670 -1.5421  1.0523  0.1177
  802MOL0     C 8142   0.471  10.131   8.709  0.0683 -0.2278  0.0879
  802MOL0     O 8143   0.350  10.187   8.732  0.3132 -0.5969  0.5906
  802MOL0     C 8144   0.302  10.303   8.655  0.2173 -0.6978  0.3040
  802MOL0     C 8145   0.198  10.386   8.727  0.0647 -0.4314  0.1682
  802MOL0     C 8146   0.265  10.493   8.821  0.1521 -0.0381  0.9031
  802MOL0     C 8147   0.296  10.447   8.964  1.0118  0.4067  0.5122
  802MOL0     C 8148   0.379  10.563   9.045  0.6980 -0.4735 -0.0585
  802MOL0     C 8149   0.399  10.539   9.194 -0.4443 -0.8375  0.5556
  802MOL0     C 8150   0.533  10.469   9.214 -0.0607  1.3612 -0.2504
  802MOL0     C 8151   0.537  10.326   9.163  0.4771  0.6395  0.1860
  802MOL0     N 8152   0.619  10.237   9.243 -0.0465  0.4368 -0.7234
  802MOL0     C 8153   0.760  10.238   9.231  0.0323 -0.2941 -0.1432
  802MOL0     C 8154   0.802  10.140   9.305  0.8888  0.5009  0.5203
  802MOL0     C 8155   0.946  10.112   9.336  0.1993 -0.1336  0.8766
  802MOL0     C 8156   1.029  10.044   9.228  0.4999 -0.0081 -0.3408
  802MOL0     C 8157   0.961   9.920   9.169 -0.1032  0.0245  0.4218
  802MOL0     C 8158   1.054   9.828   9.082 -0.4254 -0.7397  0.0560
  802MOL0     O 8159   1.175   9.790   9.157  0.8968 -0.5189  0.8460
  802MOL0     C 8160   1.300   9.824   9.114 -0.8743 -0.4672 -0.1708
  802MOL0     C 8161   1.319   9.932   9.021 -0.0003  1.1203 -0.0709
  802MOL0     C 8162   1.439   9.988   8.993 -0.7272  0.3695  0.7105
  802MOL0     C 8163   1.561   9.930   9.052  0.2346  0.1799  0.2111
  802MOL0     C 8164   1.699   9.987   9.018 -0.4055  0.5910 -1.4888
  802MOL0     O 8165   1.705  10.087   8.935  0.1689  0.0724  0.4136
  802MOL0     C 8166   1.831  10.138   8.915  0.5677  0.5094  0.2326
  802MOL0     C 8167   1.931  10.057   8.866 -0.5024  0.7017 -0.4655
  802MOL0     C 8168   2.057  10.108   8.848 -0.4970 -0.0887  0.5149
  802MOL0     C 8169   2.084  10.250   8.858  0.9126 -0.1710 -0.1194
  802MOL0     O 8170   2.208  10.297   8.841  0.3501 -0.0749  0.5403
  802MOL0     C 8171   2.214  10.405   8.747 -0.0789 -0.6421 -0.2146
  802MOL0     C 8172   2.364  10.429   8.687  0.4998 -0.4425  0.0744
  802MOL0     C 8173   2.470  10.440   8.791  0.2263  0.3495  0.4525
  802MOL0     C 8174   2.613  10.447   8.732 -0.5882  0.1379 -0.6741
  802MOL0     C 8175   2.644  10.583   8.663  0.8014  0.0720  0.4404
  802MOL0     C 8176   2.789  10.620   8.617 -0.5682 -0.4889  0.3654
  802MOL0     C 8177   2.824  10.588   8.475  0.3524 -0.2131 -0.1313
  802MOL0     C 8178   2.834  10.439   8.458 -0.7835  0.0885  0.9252
  802MOL0    Cl 8179   2.885  10.389   8.300  0.0944  0.3008 -0.3100
  802MOL0     C 8180   1.972  10.330   8.895 -0.0213 -0.3124  0.2614
  802MOL0     C 8181   1.853  10.276   8.933  0.5890 -0.8367  0.2392
  802MOL0     O 8182   1.792   9.929   9.083  0.0003 -0.5661 -0.1825
  802MOL0     C 8183   1.542   9.824   9.141 -0.8072  0.4324  0.8992
  802MOL0     C 8184   1.418   9.767   9.171  0.6826 -0.8821 -0.3167
  802MOL0     N 8185   0.695  10.095   9.374  0.8749  0.7643 -0.1775
  802MOL0     N 8186   0.580  10.152   9.340  0.2841  0.0779  0.0108
  802MOL0     C 8187   0.580  10.211   8.681 -0.2911  0.8155  0.0093
  802MOL0     C 8188   0.703  10.161   8.640 -0.5724  0.4933 -0.1979
  802MOL0     C 8189   1.045   9.867   8.621 -0.4386 -1.0437 -0.0185
  802MOL0     C 8190   1.005   9.737   8.614 -0.9134 -0.2208  0.6836
  802MOL0     C 8191   1.092   9.645   8.556 -1.1377 -0.0972  0.8819
  802MOL0     C 8192   1.222   9.667   8.512 -0.0903  0.0175 -0.6995
  802MOL0     O 8193   1.292   9.557   8.464  0.3376  0.1316 -0.4485
  802MOL0     C 8194   1.424   9.580   8.395 -0.2099  1.5904  0.5763
  802MOL0     C 8195   1.389   9.628   8.251  0.1319  0.6174 -0.7171
  802MOL0     C 8196   1.511   9.650   8.163  0.8015 -0.6950  0.3311
  802MOL0     C 8197   1.463   9.696   8.029 -0.1054 -0.0822  0.9251
  802MOL0     C 8198   1.405   9.580   7.953  0.7122 -0.7226  0.1091
  802MOL0     C 8199   1.368   9.477   7.891  0.6203 -0.3517 -0.3532
  802MOL0     C 8200   1.271   9.792   8.539 -0.3033 -0.1972 -0.7973
  802MOL0     C 8201   1.189   9.894   8.589 -0.6277  0.2962 -1.3970
  802MOL0     C 8202   1.246  10.037   8.606  0.1615  0.1551 -0.5853
  802MOL0     H 8203   0.613   9.843   8.600 -1.7420  1.2466 -4.1619
  802MOL0     H 8204   0.390   9.935   8.651  0.0850 -0.7460 -1.9512
  802MOL0     H 8205   0.379  10.376   8.630  1.1262 -1.5343  0.5960
  802MOL0     H 8206   0.250  10.273   8.563 -0.4608  1.1496  0.0458
  802MOL0     H 8207   0.140  10.315   8.786  0.3450 -0.2809  0.6279
  802MOL0     H 8208   0.131  10.432   8.653 -0.5293  1.0684  1.5666
  802MOL0     H 8209   0.208  10.586   8.815 -0.7373 -0.6051  0.3973
  802MOL0     H 8210   0.365  10.510   8.779  0.9407 -0.0426  2.6660
  802MOL0     H 8211   0.205  10.424   9.021  1.9002 -2.0127  1.0648
  802MOL0     H 8212   0.341  10.348   8.962 -2.3410 -1.3083  1.2776
  802MOL0     H 8213   0.481  10.561   9.006  0.3119  0.5090 -1.1880
  802MOL0     H 8214   0.326  10.657   9.024 -1.3251 -0.9208  2.5398
  802MOL0     H 8215   0.396  10.636   9.243 -1.0806 -0.2311 -0.6535
  802MOL0     H 8216   0.313  10.481   9.231 -0.0534 -2.4906 -0.9552
  802MOL0     H 8217   0.559  10.473   9.320  2.7894 -3.0162 -0.4895
  802MOL0     H 8218   0.616  10.523   9.167  0.4724  1.1613  0.4469
  802MOL0     H 8219   0.439  10.281   9.146 -0.7484  4.3187 -4.4596
  802MOL0     H 8220   0.574  10.341   9.061 -0.2406 -1.1303 -0.3689
  802MOL0     H 8221   0.814  10.298   9.159 -1.7577  1.3950 -0.1653
  802MOL0     H 8222   0.996  10.208   9.355  2.7404 -0.5697 -2.5130
  802MOL0     H 8223   0.952  10.056   9.430 -0.5938 -2.1939 -0.2410
  802MOL0     H 8224   1.071  10.096   9.141  4.2921 -1.3959  0.4682
  802MOL0     H 8225   1.112  10.016   9.293 -0.1485 -0.9871  0.0856
  802MOL0     H 8226   0.870   9.939   9.111  0.9433  1.8730 -0.7154
  802MOL0     H 8227   0.935   9.854   9.252 -1.2098 -1.0147 -0.7076
  802MOL0     H 8228   1.072   9.869   8.981  1.4834  3.6644  1.9098
  802MOL0     H 8229   1.001   9.733   9.074 -2.4373  0.3949 -0.7280
  802MOL0     H 8230   1.233   9.981   8.977  1.0056  0.4672 -2.9590
  802MOL0     H 8231   1.432  10.075   8.928  0.8167 -1.4062 -2.0113
  802MOL0     H 8232   1.918   9.949   8.861  2.6464  0.1213  1.2304
  802MOL0     H 8233   2.141  10.040   8.844 -0.9760 -0.7310 -3.4740
  802MOL0     H 8234   2.141  10.390   8.667 -1.3514  1.4356  0.4903
  802MOL0     H 8235   2.187  10.493   8.805 -2.2050 -0.5721 -1.2168
  802MOL0     H 8236   2.383  10.345   8.620  0.0332 -0.9706  0.5888
  802MOL0     H 8237   2.372  10.520   8.628  1.0451  0.2320  1.1647
  802MOL0     H 8238   2.448  10.524   8.858 -1.5083 -0.6660  1.2252
  802MOL0     H 8239   2.457  10.354   8.858 -1.4476 -0.1453 -0.4562
  802MOL0     H 8240   2.625  10.362   8.664 -2.7608  0.1708 -1.1566
  802MOL0     H 8241   2.687  10.447   8.813  1.1574  1.5140 -2.1741
  802MOL0     H 8242   2.631  10.659   8.740 -2.3752  0.0172  0.0692
  802MOL0     H 8243   2.571  10.612   8.587 -0.9226 -0.3800  1.8626
  802MOL0     H 8244   2.802  10.726   8.640  2.7211 -0.6498 -0.1771
  802MOL0     H 8245   2.867  10.567   8.673  1.5586  0.1522 -1.8000
  802MOL0     H 8246   2.923  10.625   8.446  0.4635 -0.8173 -0.5507
  802MOL0     H 8247   2.744  10.630   8.414  0.5185 -0.7414 -0.7223
  802MOL0     H 8248   2.916  10.415   8.526  0.8706  1.3277 -0.5209
  802MOL0     H 8249   2.743  10.382   8.477 -0.1243 -0.3878  2.8236
  802MOL0     H 8250   1.989  10.437   8.902 -0.3575 -0.1880 -0.6794
  802MOL0     H 8251   1.762  10.330   8.958  1.6677  1.5434 -0.7195
  802MOL0     H 8252   1.635   9.786   9.182  0.9506  3.7553  0.3826
  802MOL0     H 8253   1.398   9.672   9.220  0.8518 -1.4332 -1.2945
  802MOL0     H 8254   0.576  10.319   8.671  0.2474  0.8855  0.4749
  802MOL0     H 8255   0.794  10.214   8.613 -2.2719  2.1259 -3.2843
  802MOL0     H 8256   0.909   9.706   8.654 -0.5960 -0.0705  1.5863
  802MOL0     H 8257   1.055   9.547   8.525  0.2950 -0.0323 -1.2263
  802MOL0     H 8258   1.487   9.491   8.390 -0.7060  1.3100 -1.2542
  802MOL0     H 8259   1.493   9.654   8.438  1.0500  0.6654  0.2111
  802MOL0     H 8260   1.325   9.716   8.259  0.0588  0.4305  1.1752
  802MOL0     H 8261   1.328   9.548   8.209 -0.7029  1.3360 -0.8949
  802MOL0     H 8262   1.584   9.569   8.161  0.7854 -0.8018 -3.4917
  802MOL0     H 8263   1.570   9.732   8.204 -1.9610  0.9653  1.2904
  802MOL0     H 8264   1.401   9.785   8.038 -0.0354  0.3230 -1.7245
  802MOL0     H 8265   1.556   9.724   7.979 -0.3269 -0.4137  0.3154
  802MOL0     H 8266   1.336   9.395   7.830 -0.0918  1.1548 -2.1101
  802MOL0     H 8267   1.373   9.813   8.509  0.1571 -1.2565 -0.0075
  802MOL0     H 8268   1.178  10.122   8.615  1.5702  1.3753 -1.0065
  802MOL0     H 8269   1.301  10.041   8.700 -0.4144  3.2149 -0.2962
  802MOL0     H 8270   1.317  10.057   8.525 -0.2478 -0.8755 -1.2223
  803MOL0     O 8271   1.947   3.136   3.965 -0.1429 -0.0807 -0.0536
  803MOL0     C 8272   1.957   3.246   3.907  0.1330 -0.8614 -0.6040
  803MOL0     O 8273   1.953   3.258   3.776 -0.0617 -0.0049  0.1908
  803MOL0     C 8274   1.884   3.165   3.713 -0.0075 -0.3804 -0.1347
  803MOL0     C 8275   1.945   3.061   3.656  0.0321  1.5827 -0.4606
  803MOL0     C 8276   1.875   2.957   3.589 -0.0053  0.0943  0.6989
  803MOL0     C 8277   1.736   2.984   3.572 -0.6451  0.4741  0.0621
  803MOL0     O 8278   1.672   2.901   3.480  0.2312  0.3416  0.0258
  803MOL0     C 8279   1.614   2.956   3.364  0.0015 -0.1707 -1.3684
  803MOL0     C 8280   1.587   2.850   3.254  0.5570  0.2262  0.3439
  803MOL0     C 8281   1.470   2.762   3.301  0.3151 -0.4286  0.3483
  803MOL0     C 8282   1.403   2.689   3.188 -0.1006 -0.6796  0.0894
  803MOL0     C 8283   1.264   2.633   3.224 -0.0958  0.2132  0.4464
  803MOL0     C 8284   1.206   2.544   3.104  0.2251  0.4993 -0.2857
  803MOL0     C 8285   1.054   2.535   3.113 -0.2593 -0.1862 -0.5067
  803MOL0     C 8286   0.994   2.447   3.005  0.1210  0.3397  0.3190
  803MOL0     N 8287   0.873   2.396   3.063  0.0466  0.1777  0.3451
  803MOL0     C 8288   0.753   2.463   3.101 -0.1599 -0.0775  1.4722
  803MOL0     C 8289   0.665   2.370   3.138 -0.6394  0.2059  0.4890
  803MOL0     C 8290   0.520   2.393   3.186  0.4659 -0.6266  0.2655
  803MOL0     C 8291   0.427   2.443   3.074 -0.3042  0.0455 -0.7542
  803MOL0     C 8292   0.416   2.349   2.955 -0.3935  0.3183  0.3558
  803MOL0     C 8293   0.300   2.350   2.849  0.3761  0.2793 -0.0524
  803MOL0     O 8294   0.309   2.237   2.768 -0.0610  0.3186 -0.2414
  803MOL0     C 8295   0.253   2.220   2.642 -0.5787 -0.8084 -0.0107
  803MOL0     C 8296   0.320   2.142   2.553  0.2672  0.6343  0.3556
  803MOL0     C 8297   0.287   2.160   2.417  0.5581 -0.7116 -0.3368
  803MOL0     C 8298   0.185   2.248   2.372  0.9177 -0.7649  0.1357
  803MOL0     C 8299   0.145   2.258   2.230  0.3897  0.8486 -0.7022
  803MOL0     O 8300   0.176   2.155   2.152 -0.3573 -0.5920 -0.3952
  803MOL0     C 8301   0.168   2.171   2.016 -0.0698  0.7680 -0.1596
  803MOL0     C 8302   0.243   2.253   1.941 -1.2288  0.2275  0.2977
  803MOL0     C 8303   0.222   2.269   1.803  0.2183 -0.3700  0.6238
  803MOL0     C 8304   0.129   2.197   1.724  0.8854 -0.8375 -0.5824
  803MOL0     O 8305   0.120   2.222   1.584 -0.3701 -0.4509  0.2935
  803MOL0     C 8306   0.066   2.124   1.495  0.3484 -0.0349  0.4465
  803MOL0     C 8307  -0.084   2.119   1.480  0.6565 -0.6378  0.2529
  803MOL0     C 8308  -0.167   2.249   1.527 -0.5271 -0.3486  0.1151
  803MOL0     C 8309  -0.319   2.226   1.516 -0.1348 -0.8249 -0.3731
  803MOL0     C 8310  -0.388   2.348   1.584 -0.4865  0.1735  0.8632
  803MOL0     C 8311  -0.528   2.375   1.544 -0.5414  1.0106 -0.1319
  803MOL0     C 8312  -0.577   2.505   1.622 -0.2561 -0.5384  0.6854
  803MOL0     C 8313  -0.720   2.543   1.576 -0.2788  0.4417  0.0327
  803MOL0    Cl 8314  -0.729   2.610   1.405 -0.1263  0.2934  0.3904
  803MOL0     C 8315   0.062   2.098   1.801 -0.7706  0.1360 -0.9046
  803MOL0     C 8316   0.075   2.086   1.942 -0.0016 -0.2040 -0.5453
  803MOL0     O 8317   0.103   2.364   2.188  0.0070  0.3906 -0.0400
  803MOL0     C 8318   0.113   2.317   2.468 -0.1555  0.8509  0.5797
  803MOL0     C 8319   0.148   2.302   2.602  0.8700 -0.2068 -0.3044
  803MOL0     N 8320   0.727   2.250   3.140  0.2803 -0.1329  0.0238
  803MOL0     N 8321   0.844   2.265   3.087 -0.4341  0.6135  0.4258
  803MOL0     C 8322   1.671   3.095   3.631 -0.2356 -1.1455  1.3440
  803MOL0     C 8323   1.750   3.176   3.694 -0.3914  0.1694 -0.3676
  803MOL0     C 8324   1.979   3.366   4.000 -0.2985 -0.6360 -0.6125
  803MOL0     C 8325   2.012   3.341   4.133 -0.4781  0.5482  0.4053
  803MOL0     C 8326   2.027   3.434   4.230  0.8653 -0.0660  0.1603
  803MOL0     C 8327   2.003   3.570   4.196  0.0981 -0.3328  0.3034
  803MOL0     O 8328   2.009   3.681   4.277 -0.0256  0.2827  0.7443
  803MOL0     C 8329   2.095   3.664   4.394  0.5641 -0.2524 -0.3389
  803MOL0     C 8330   2.250   3.674   4.354  0.5302  0.3324  0.5292
  803MOL0     C 8331   2.278   3.804   4.291 -0.3933 -0.1499 -0.5000
  803MOL0     C 8332   2.425   3.800   4.229  0.5390 -0.7717  0.2407
  803MOL0     C 8333   2.504   3.927   4.262 -0.2078  0.3419  0.9298
  803MOL0     C 8334   2.592   4.010   4.290  0.8665 -0.5236  1.1366
  803MOL0     C 8335   1.966   3.598   4.068  0.0047 -0.0555 -0.0188
  803MOL0     C 8336   1.951   3.502   3.970  0.1345 -0.3878 -0.5788
  803MOL0     C 8337   1.882   3.542   3.842  0.0933  0.2348  0.4152
  803MOL0     H 8338   2.047   3.044   3.690  0.8693  0.6281 -3.1330
  803MOL0     H 8339   1.928   2.881   3.532 -0.6436 -1.3893  2.0194
  803MOL0     H 8340   1.525   3.015   3.388 -0.2674  0.1537 -3.0476
  803MOL0     H 8341   1.687   3.025   3.320  0.5138 -1.3913 -2.5098
  803MOL0     H 8342   1.677   2.792   3.231 -0.9726 -1.9541 -0.5680
  803MOL0     H 8343   1.551   2.906   3.168 -0.7717 -0.7261  0.2440
  803MOL0     H 8344   1.394   2.817   3.358 -2.3353 -1.6273 -1.7926
  803MOL0     H 8345   1.501   2.682   3.369  0.3368 -0.2637  0.5358
  803MOL0     H 8346   1.386   2.762   3.108 -0.6795  0.7809  1.4845
  803MOL0     H 8347   1.468   2.612   3.146 -2.0209 -0.6865 -3.2340
  803MOL0     H 8348   1.270   2.568   3.312 -4.0907 -2.4902 -0.9590
  803MOL0     H 8349   1.190   2.711   3.245  0.9288  1.1868  0.5119
  803MOL0     H 8350   1.230   2.596   3.011 -0.4081 -0.5117 -1.0265
  803MOL0     H 8351   1.259   2.449   3.094 -0.6406  0.2807 -3.8067
  803MOL0     H 8352   1.008   2.634   3.113  2.2983  1.1440  1.7352
  803MOL0     H 8353   1.016   2.504   3.211 -1.8393  0.7548 -0.7787
  803MOL0     H 8354   0.980   2.502   2.911  0.7763  2.0387  1.1562
  803MOL0     H 8355   1.059   2.360   2.991  0.8466  0.5069  2.2950
  803MOL0     H 8356   0.741   2.571   3.108  1.6098  0.0484  4.1979
  803MOL0     H 8357   0.483   2.302   3.234  0.4792 -1.2294 -0.8337
  803MOL0     H 8358   0.522   2.467   3.266 -1.0064 -0.2288 -0.0354
  803MOL0     H 8359   0.329   2.447   3.124  0.3456  0.0032  0.5824
  803MOL0     H 8360   0.457   2.541   3.037 -0.9204  0.2063 -0.8418
  803MOL0     H 8361   0.414   2.245   2.990 -1.2522  0.3398  0.3900
  803MOL0     H 8362   0.514   2.355   2.908  1.2213  1.3418  3.5439
  803MOL0     H 8363   0.300   2.445   2.795 -2.4458 -0.1606 -1.0057
  803MOL0     H 8364   0.213   2.355   2.915  0.1529 -0.2813 -0.2986
  803MOL0     H 8365   0.401   2.076   2.581  1.1637  2.5565  2.6136
  803MOL0     H 8366   0.354   2.120   2.341  0.0660  1.7918 -2.2240
  803MOL0     H 8367   0.307   2.324   1.993 -2.6271  2.2610 -0.6386
  803MOL0     H 8368   0.280   2.345   1.750 -0.2033 -0.4927 -0.0188
  803MOL0     H 8369   0.117   2.123   1.399  0.2788 -1.5152  0.3974
  803MOL0     H 8370   0.103   2.029   1.533  1.8515 -0.1353 -1.1881
  803MOL0     H 8371  -0.104   2.098   1.375 -0.6641  1.2943  0.0733
  803MOL0     H 8372  -0.131   2.031   1.524  1.0257 -1.5502 -1.1158
  803MOL0     H 8373  -0.137   2.267   1.630 -4.5427  0.1410  1.3467
  803MOL0     H 8374  -0.148   2.329   1.455 -2.6431  0.6155  0.5803
  803MOL0     H 8375  -0.351   2.132   1.562 -1.5620 -1.1523 -1.9336
  803MOL0     H 8376  -0.341   2.218   1.410  2.2461 -2.8225 -0.8097
  803MOL0     H 8377  -0.333   2.432   1.541 -0.0585  0.4707  1.9575
  803MOL0     H 8378  -0.381   2.345   1.693  0.1539  1.8309  0.8895
  803MOL0     H 8379  -0.537   2.389   1.435  3.4249 -0.1109 -0.7956
  803MOL0     H 8380  -0.587   2.289   1.574  0.5532  0.8282  1.6194
  803MOL0     H 8381  -0.515   2.589   1.590 -0.5316 -1.4858 -2.7168
  803MOL0     H 8382  -0.580   2.494   1.731 -2.0303 -2.1514  0.5404
  803MOL0     H 8383  -0.799   2.468   1.584  0.3282 -0.2005  0.1166
  803MOL0     H 8384  -0.743   2.628   1.641  0.8896  1.0049 -0.2702
  803MOL0     H 8385  -0.013   2.029   1.763 -1.6863 -0.3738  1.6216
  803MOL0     H 8386   0.015   2.009   1.989  1.5931 -2.0946 -1.4658
  803MOL0     H 8387   0.030   2.383   2.445  1.1062  2.7179  1.1651
  803MOL0     H 8388   0.108   2.378   2.668  0.7647  0.3423 -0.9789
  803MOL0     H 8389   1.568   3.113   3.602  0.8626 -0.7399 -2.8779
  803MOL0     H 8390   1.710   3.267   3.737  1.3856  0.0380  1.7425
  803MOL0     H 8391   2.042   3.246   4.177 -0.3017  0.4284  0.0293
  803MOL0     H 8392   2.065   3.394   4.323  0.4334 -1.3663 -0.1931
  803MOL0     H 8393   2.091   3.566   4.442  0.7770  0.8387  2.0438
  803MOL0     H 8394   2.066   3.739   4.468  0.9911  0.8278 -1.2431
  803MOL0     H 8395   2.281   3.601   4.278 -0.6322  1.3207 -0.9409
  803MOL0     H 8396   2.306   3.667   4.448  0.7874  1.2241  0.4491
  803MOL0     H 8397   2.274   3.892   4.356  3.2615  1.3286 -1.9901
  803MOL0     H 8398   2.211   3.826   4.207 -2.2809  1.8985  1.3807
  803MOL0     H 8399   2.485   3.721   4.275 -1.6367 -1.7672  1.5542
  803MOL0     H 8400   2.417   3.786   4.121 -0.4764 -0.1255  0.2178
  803MOL0     H 8401   2.658   4.088   4.322  0.6008  0.3114 -0.2651
  803MOL0     H 8402   1.932   3.697   4.040 -4.1013 -2.1880 -3.8733
  803MOL0     H 8403   1.870   3.651   3.839 -1.3674  0.1041  0.6787
  803MOL0     H 8404   1.947   3.506   3.761 -1.0638  2.0462 -1.4172
  803MOL0     H 8405   1.781   3.501   3.828  1.1556 -1.3269 -4.7567
  804MOL0     O 8406   9.843   5.166   7.147  0.3839 -0.7404  0.7432
  804MOL0     C 8407   9.774   5.121   7.053 -0.1785  0.0469 -1.5680
  804MOL0     O 8408   9.794   5.007   6.987 -0.0015 -0.2273  0.7312
  804MOL0     C 8409   9.908   4.936   7.008  0.1928  0.2175 -0.1275
  804MOL0     C 8410  10.040   4.982   7.024 -0.3694  0.4431  0.7403
  804MOL0     C 8411  10.154   4.904   7.046 -0.4618 -0.1906  0.5345
  804MOL0     C 8412  10.127   4.768   7.073  0.2974  0.6867  0.4451
  804MOL0     O 8413  10.216   4.658   7.093  0.0344  0.3191 -0.6938
  804MOL0     C 8414  10.342   4.655   7.015  0.6400 -0.2618 -0.1544
  804MOL0     C 8415  10.448   4.751   7.080  0.1844  1.2624 -0.3867
  804MOL0     C 8416  10.558   4.662   7.130  0.6265  0.3766 -0.1988
  804MOL0     C 8417  10.679   4.717   7.199  0.0315 -0.0361 -0.6508
  804MOL0     C 8418  10.767   4.597   7.231  0.5585 -0.1528  0.4974
  804MOL0     C 8419  10.897   4.649   7.278 -0.8550  0.6452 -0.8265
  804MOL0     C 8420  10.991   4.533   7.330  0.5355 -0.0299 -0.5236
  804MOL0     C 8421  11.129   4.578   7.357 -0.5090 -0.0394  0.6369
  804MOL0     N 8422  11.204   4.495   7.452  0.1557  0.7769 -0.4861
  804MOL0     C 8423  11.310   4.541   7.520 -0.1096 -1.0585  0.2343
  804MOL0     C 8424  11.381   4.437   7.567 -0.4993 -0.7109 -0.4578
  804MOL0     C 8425  11.513   4.459   7.635 -0.3764  0.0287  0.4139
  804MOL0     C 8426  11.625   4.424   7.537  0.4785  0.1643  0.7857
  804MOL0     C 8427  11.764   4.450   7.608  0.0399  0.2930 -0.0184
  804MOL0     C 8428  11.872   4.402   7.514  0.3445  0.3231  0.3990
  804MOL0     O 8429  12.004   4.419   7.566 -0.6671 -0.1525  0.0799
  804MOL0     C 8430  12.119   4.393   7.484  0.3932  0.6983 -0.7710
  804MOL0     C 8431  12.120   4.332   7.360 -0.1850 -1.2686  0.1548
  804MOL0     C 8432  12.240   4.295   7.293 -0.7594  0.7496 -0.0925
  804MOL0     C 8433  12.364   4.319   7.362 -0.9468 -0.2883  0.3930
  804MOL0     C 8434  12.491   4.254   7.318  0.7066  0.9534  0.1070
  804MOL0     O 8435  12.602   4.279   7.390 -0.4153  0.5538  0.0236
  804MOL0     C 8436  12.718   4.220   7.346  1.0241  0.1143  0.5429
  804MOL0     C 8437  12.770   4.235   7.220 -0.3440  1.0824 -0.0905
  804MOL0     C 8438  12.891   4.173   7.173 -0.4562 -0.3539 -0.7422
  804MOL0     C 8439  12.967   4.105   7.271 -0.4224 -0.7693 -0.2014
  804MOL0     O 8440  13.091   4.059   7.247  0.1470 -0.3256  1.3399
  804MOL0     C 8441  13.153   4.084   7.118 -0.9840  0.0102 -0.6470
  804MOL0     C 8442  13.298   4.022   7.122  0.4863 -0.1052 -0.6644
  804MOL0     C 8443  13.343   4.005   6.982  0.3496 -0.1884  0.3574
  804MOL0     C 8444  13.431   4.109   6.929 -0.4974  0.0761 -0.5062
  804MOL0     C 8445  13.444   4.124   6.781 -0.7027  0.6588  1.0909
  804MOL0     C 8446  13.558   4.224   6.729 -0.3532 -0.6355  0.7301
  804MOL0     C 8447  13.574   4.185   6.580 -0.4193 -0.5433 -0.0347
  804MOL0     C 8448  13.683   4.248   6.506 -0.4444 -0.3096 -0.1486
  804MOL0    Cl 8449  13.692   4.167   6.345 -0.2317 -0.0498  0.4015
  804MOL0     C 8450  12.916   4.097   7.405  0.0748 -0.0163  0.6968
  804MOL0     C 8451  12.792   4.150   7.443  0.3524  0.5968  1.0923
  804MOL0     O 8452  12.486   4.172   7.229 -0.3479  0.2680  0.9557
  804MOL0     C 8453  12.373   4.390   7.485 -0.5302  0.5200 -0.8194
  804MOL0     C 8454  12.245   4.431   7.542  0.7818  0.3757 -0.0163
  804MOL0     N 8455  11.325   4.327   7.502 -0.1615  0.5534 -0.1775
  804MOL0     N 8456  11.214   4.358   7.446  0.1226 -0.2483  0.5192
  804MOL0     C 8457   9.990   4.716   7.054  0.3515 -0.6091  0.8115
  804MOL0     C 8458   9.886   4.803   7.025  0.2213 -0.0569 -0.5606
  804MOL0     C 8459   9.648   5.196   7.019  0.3525 -1.2911 -0.5942
  804MOL0     C 8460   9.557   5.138   6.920 -0.6620 -0.7217  0.1621
  804MOL0     C 8461   9.446   5.198   6.866 -0.7958  0.5696 -0.3687
  804MOL0     C 8462   9.421   5.324   6.908 -0.3868  0.2011 -0.3715
  804MOL0     O 8463   9.307   5.394   6.883 -0.6053  1.1341  0.0375
  804MOL0     C 8464   9.329   5.482   6.769  0.4984  0.2186  0.1933
  804MOL0     C 8465   9.345   5.414   6.632 -0.6975 -0.1186 -0.7239
  804MOL0     C 8466   9.344   5.520   6.523  0.4552  0.1296  0.3641
  804MOL0     C 8467   9.476   5.592   6.496 -0.1927  0.7168  1.1889
  804MOL0     C 8468   9.459   5.682   6.381  0.6959  0.2122  0.3532
  804MOL0     C 8469   9.444   5.758   6.283  0.8119  0.6934  0.1295
  804MOL0     C 8470   9.498   5.382   7.008 -0.7337 -0.7081  0.2974
  804MOL0     C 8471   9.617   5.327   7.056  1.0615 -0.3342  0.2202
  804MOL0     C 8472   9.713   5.422   7.118  0.0406 -0.1156 -0.1435
  804MOL0     H 8473  10.064   5.087   7.026 -0.9003  0.5988 -0.4807
  804MOL0     H 8474  10.256   4.940   7.055  0.1409 -1.9439  1.1589
  804MOL0     H 8475  10.380   4.554   7.033  0.5898 -0.4618 -1.1149
  804MOL0     H 8476  10.329   4.680   6.909  2.3119  2.1027  0.1263
  804MOL0     H 8477  10.420   4.819   7.160  2.5257 -0.3009  1.9363
  804MOL0     H 8478  10.483   4.822   7.005 -0.4032  2.1380  0.1561
  804MOL0     H 8479  10.606   4.601   7.052  0.7029 -2.1886  1.7087
  804MOL0     H 8480  10.501   4.596   7.196 -1.0684  1.4041 -0.5744
  804MOL0     H 8481  10.734   4.789   7.138 -0.3205 -1.0273 -2.1713
  804MOL0     H 8482  10.642   4.773   7.286  0.5895 -0.4145 -0.1548
  804MOL0     H 8483  10.720   4.538   7.310  1.4735  0.8526  1.8307
  804MOL0     H 8484  10.793   4.548   7.137  2.4343  2.2661 -0.3613
  804MOL0     H 8485  10.954   4.703   7.203  3.9334  1.5511  2.9264
  804MOL0     H 8486  10.878   4.715   7.363  0.5694  1.9426 -1.4813
  804MOL0     H 8487  10.988   4.451   7.257  1.3798  1.3975 -2.2254
  804MOL0     H 8488  10.957   4.486   7.423 -1.7868  1.0890 -0.7581
  804MOL0     H 8489  11.179   4.575   7.260  1.3901 -1.6962  1.5926
  804MOL0     H 8490  11.131   4.684   7.382 -0.3044 -0.2563  1.5654
  804MOL0     H 8491  11.335   4.644   7.545 -1.3852  0.2348 -3.2122
  804MOL0     H 8492  11.536   4.557   7.677 -0.3660  1.2597 -2.2389
  804MOL0     H 8493  11.519   4.396   7.724 -0.7467  0.4365  0.7277
  804MOL0     H 8494  11.606   4.320   7.508 -2.1917  0.9034 -0.4087
  804MOL0     H 8495  11.618   4.487   7.448 -1.2633 -1.0803 -0.0137
  804MOL0     H 8496  11.757   4.394   7.701  1.3337 -1.2948 -0.8413
  804MOL0     H 8497  11.778   4.557   7.628  3.5505 -0.1836  0.7127
  804MOL0     H 8498  11.872   4.462   7.423  0.0712 -3.0796 -2.0055
  804MOL0     H 8499  11.875   4.295   7.491  2.0923  0.1351  1.3043
  804MOL0     H 8500  12.023   4.322   7.311 -0.0562 -0.3914 -0.2992
  804MOL0     H 8501  12.238   4.238   7.201 -0.5242  0.8044 -0.1330
  804MOL0     H 8502  12.705   4.282   7.146 -0.8998  1.4733  0.6367
  804MOL0     H 8503  12.926   4.176   7.070 -1.7918  0.0191 -1.2095
  804MOL0     H 8504  13.091   4.031   7.046  1.6425 -1.8014 -1.7016
  804MOL0     H 8505  13.152   4.189   7.088  0.7971  0.7815  1.6976
  804MOL0     H 8506  13.365   4.081   7.184  1.7621 -0.6085 -1.5008
  804MOL0     H 8507  13.279   3.924   7.167  2.8220 -0.3193  0.0170
  804MOL0     H 8508  13.398   3.911   6.973 -0.2287 -0.7195  1.9738
  804MOL0     H 8509  13.253   3.999   6.919  0.3780 -1.6422  0.4261
  804MOL0     H 8510  13.522   4.082   6.983  0.8465  1.3688 -2.0124
  804MOL0     H 8511  13.411   4.210   6.966  2.2574  0.0758  1.2711
  804MOL0     H 8512  13.352   4.152   6.727  0.2754 -0.7942 -1.5211
  804MOL0     H 8513  13.458   4.024   6.739 -0.4687  2.0739 -2.5958
  804MOL0     H 8514  13.527   4.328   6.733 -2.1725 -1.0462 -1.0552
  804MOL0     H 8515  13.645   4.212   6.794  2.2274  1.1256 -2.1212
  804MOL0     H 8516  13.485   4.212   6.521  1.5251 -0.0329 -2.9213
  804MOL0     H 8517  13.587   4.077   6.579 -0.4777 -0.8015  4.4910
  804MOL0     H 8518  13.662   4.354   6.489  0.1229 -0.2971 -0.8407
  804MOL0     H 8519  13.775   4.232   6.564 -1.0094 -2.3150  0.2470
  804MOL0     H 8520  12.982   4.039   7.468  1.8339  1.0582 -0.0774
  804MOL0     H 8521  12.752   4.139   7.543 -1.2054 -1.7020  0.2976
  804MOL0     H 8522  12.462   4.417   7.541 -0.9190 -1.5476  0.9436
  804MOL0     H 8523  12.247   4.481   7.638  1.1880 -0.2918  0.3306
  804MOL0     H 8524   9.956   4.613   7.063 -2.4691  0.1912  0.1789
  804MOL0     H 8525   9.785   4.766   7.007  0.3100  0.3482 -2.0654
  804MOL0     H 8526   9.567   5.036   6.885  0.6750 -1.0328  1.3373
  804MOL0     H 8527   9.395   5.144   6.788  0.0183 -0.5127 -0.1749
  804MOL0     H 8528   9.408   5.555   6.788 -0.9247  1.9354 -0.1873
  804MOL0     H 8529   9.241   5.547   6.766  0.6864  0.4471 -0.8677
  804MOL0     H 8530   9.263   5.344   6.617  0.4952 -2.0008  0.9752
  804MOL0     H 8531   9.440   5.360   6.628  0.9001  1.8982  3.6884
  804MOL0     H 8532   9.264   5.592   6.542 -0.2060 -0.5173  0.1225
  804MOL0     H 8533   9.328   5.485   6.420 -1.3876  0.6077  0.4534
  804MOL0     H 8534   9.505   5.645   6.587 -1.6765  1.0143  1.5094
  804MOL0     H 8535   9.543   5.508   6.474 -2.8800 -1.0595 -0.8766
  804MOL0     H 8536   9.430   5.832   6.207  1.3989 -1.7046 -2.4755
  804MOL0     H 8537   9.475   5.481   7.045  1.6700 -0.1664  0.4818
  804MOL0     H 8538   9.735   5.382   7.217  2.2870 -0.3895 -0.6984
  804MOL0     H 8539   9.804   5.430   7.058 -0.4535 -0.4859 -0.9550
  804MOL0     H 8540   9.673   5.524   7.113  1.4173  0.4870  0.4333
  805MOL0     O 8541   7.982   3.715   2.166 -0.5058  0.4562  0.4954
  805MOL0     C 8542   7.985   3.690   2.289 -0.6192 -0.2363  0.5409
  805MOL0     O 8543   8.015   3.786   2.382  0.4646  0.0840  0.1191
  805MOL0     C 8544   8.108   3.872   2.340 -0.5214  0.8638 -0.3982
  805MOL0     C 8545   8.073   3.993   2.276 -0.1025  0.0263  0.0109
  805MOL0     C 8546   8.158   4.078   2.213 -0.6675 -0.6219 -0.4131
  805MOL0     C 8547   8.294   4.056   2.229  0.2086 -0.0526  0.1338
  805MOL0     O 8548   8.391   4.134   2.163  0.2216 -0.1266  0.3736
  805MOL0     C 8549   8.385   4.276   2.147  0.5036 -0.2508 -0.7408
  805MOL0     C 8550   8.469   4.350   2.245  1.3346 -0.0094 -0.1024
  805MOL0     C 8551   8.609   4.293   2.263  0.2423  0.6926 -0.3749
  805MOL0     C 8552   8.688   4.314   2.136  0.4741  0.1040 -0.0875
  805MOL0     C 8553   8.836   4.283   2.154 -0.3578  0.1459 -0.1587
  805MOL0     C 8554   8.915   4.325   2.034 -0.9805  0.0840 -0.1183
  805MOL0     C 8555   9.077   4.335   2.064  0.8866  0.7875 -0.0362
  805MOL0     C 8556   9.149   4.380   1.935  0.1731 -0.8466 -0.1269
  805MOL0     N 8557   9.135   4.277   1.835  0.6653  0.1867  1.4409
  805MOL0     C 8558   9.139   4.136   1.848 -0.1133 -0.0541 -0.7023
  805MOL0     C 8559   9.102   4.081   1.733 -0.1707 -0.7484 -0.3566
  805MOL0     C 8560   9.072   3.925   1.697  0.0048 -0.4188  0.5426
  805MOL0     C 8561   8.975   3.932   1.581 -0.0932  0.2208  0.2099
  805MOL0     C 8562   9.073   3.949   1.461  0.3759  0.1963  0.0391
  805MOL0     C 8563   9.007   3.967   1.326 -0.1020  0.1440  0.7816
  805MOL0     O 8564   8.861   3.945   1.330  0.6899  0.0754 -0.1364
  805MOL0     C 8565   8.791   3.919   1.213 -0.1133 -0.2209 -0.5551
  805MOL0     C 8566   8.823   3.972   1.089  0.5894 -0.7805  0.7918
  805MOL0     C 8567   8.743   3.941   0.976 -0.6739 -0.4380 -0.4265
  805MOL0     C 8568   8.632   3.856   0.984 -0.2853 -0.4779  1.3699
  805MOL0     C 8569   8.563   3.807   0.866 -0.5063 -0.2699  0.9311
  805MOL0     O 8570   8.434   3.752   0.890  0.4131 -0.3974  0.6097
  805MOL0     C 8571   8.354   3.696   0.789 -0.4228 -0.0533  0.2181
  805MOL0     C 8572   8.381   3.588   0.707 -0.8956 -0.4477  1.2316
  805MOL0     C 8573   8.284   3.537   0.620 -1.1234 -0.4922  0.5159
  805MOL0     C 8574   8.154   3.589   0.611 -0.4983 -0.4545 -0.3282
  805MOL0     O 8575   8.060   3.553   0.519  0.5318  0.0578 -0.6886
  805MOL0     C 8576   8.079   3.426   0.461 -0.2963  0.5562 -0.6377
  805MOL0     C 8577   7.971   3.396   0.348  0.9203  0.2775 -0.4581
  805MOL0     C 8578   7.845   3.337   0.403 -0.9514 -0.1236 -0.3921
  805MOL0     C 8579   7.744   3.316   0.287  0.0836 -0.4291 -1.0029
  805MOL0     C 8580   7.686   3.172   0.292 -0.1313 -0.4700 -0.3153
  805MOL0     C 8581   7.573   3.150   0.182 -0.4213  0.2989  0.0212
  805MOL0     C 8582   7.518   3.008   0.178  0.1028  0.5034 -0.0821
  805MOL0     C 8583   7.404   2.985   0.281  0.2890  0.3494 -0.6570
  805MOL0    Cl 8584   7.318   2.833   0.275  0.2919 -0.1963 -0.3023
  805MOL0     C 8585   8.125   3.698   0.683 -1.6509 -0.7115  0.3560
  805MOL0     C 8586   8.220   3.750   0.777 -0.7577  0.7598 -0.5058
  805MOL0     O 8587   8.608   3.811   0.752  0.2301  0.4131  0.0001
  805MOL0     C 8588   8.595   3.805   1.109  0.6041  0.4808  1.1547
  805MOL0     C 8589   8.674   3.834   1.215 -0.4623 -0.6293  0.4102
  805MOL0     N 8590   9.092   4.188   1.647  0.1452 -0.1851  0.3298
  805MOL0     N 8591   9.113   4.297   1.701 -0.6534 -0.6539  0.5481
  805MOL0     C 8592   8.339   3.937   2.288 -0.2087 -0.2438 -0.8636
  805MOL0     C 8593   8.253   3.839   2.344  0.1181 -0.2018 -0.3021
  805MOL0     C 8594   7.982   3.546   2.336 -0.0444  0.3506  0.7504
  805MOL0     C 8595   7.980   3.523   2.473  0.2988  0.0270 -0.0565
  805MOL0     C 8596   7.975   3.397   2.524 -0.3419 -0.0389  0.8359
  805MOL0     C 8597   7.992   3.288   2.438 -0.4215  0.9887  0.4351
  805MOL0     O 8598   8.003   3.166   2.497  0.1279 -0.1028 -0.3504
  805MOL0     C 8599   8.036   3.044   2.420 -0.1559 -0.6275 -0.5118
  805MOL0     C 8600   8.036   2.913   2.508 -0.8026  0.0523 -0.2593
  805MOL0     C 8601   7.896   2.851   2.536  0.4582  0.3559  0.9240
  805MOL0     C 8602   7.901   2.742   2.643  0.3217  0.2413  0.4716
  805MOL0     C 8603   8.015   2.648   2.621 -0.1387  0.3695  0.1468
  805MOL0     C 8604   8.112   2.572   2.598  0.5291 -0.5187 -0.2267
  805MOL0     C 8605   7.998   3.307   2.305  0.2469 -0.1944 -0.1115
  805MOL0     C 8606   7.988   3.437   2.246 -0.3425  0.2313 -1.0984
  805MOL0     C 8607   7.995   3.433   2.094  0.3352  1.2350 -0.5491
  805MOL0     H 8608   7.966   4.012   2.280 -0.1545  0.2478 -1.6681
  805MOL0     H 8609   8.115   4.166   2.166 -3.5313 -0.9122  1.3841
  805MOL0     H 8610   8.419   4.308   2.048 -2.9669  4.4249 -0.7612
  805MOL0     H 8611   8.279   4.300   2.150  0.6503  0.4981 -1.3129
  805MOL0     H 8612   8.421   4.322   2.339  0.5108  1.9619  0.1012
  805MOL0     H 8613   8.467   4.458   2.229  3.4430 -0.1255 -1.5932
  805MOL0     H 8614   8.609   4.189   2.297  0.2221  1.4734  2.2710
  805MOL0     H 8615   8.658   4.336   2.350  1.4428  0.8326 -1.1006
  805MOL0     H 8616   8.650   4.250   2.056  0.0814 -0.5634  0.6274
  805MOL0     H 8617   8.686   4.423   2.123  0.8121  0.3035  1.3217
  805MOL0     H 8618   8.881   4.328   2.243  1.6762 -0.1221 -1.0002
  805MOL0     H 8619   8.848   4.176   2.172 -5.3286 -0.5225  0.5015
  805MOL0     H 8620   8.892   4.256   1.952  0.7798 -0.6899 -0.0023
  805MOL0     H 8621   8.865   4.411   1.988 -1.2644 -0.6070 -1.1396
  805MOL0     H 8622   9.117   4.238   2.095  3.1303  2.1634  1.7675
  805MOL0     H 8623   9.097   4.413   2.139 -2.5023  1.9910 -0.2172
  805MOL0     H 8624   9.093   4.467   1.900 -1.9145 -1.4214  1.5592
  805MOL0     H 8625   9.256   4.395   1.951 -0.0516  0.0475  0.6195
  805MOL0     H 8626   9.177   4.097   1.941  3.7845  1.9581 -1.2362
  805MOL0     H 8627   9.173   3.894   1.671  0.3781  1.1166  0.1020
  805MOL0     H 8628   9.033   3.874   1.785 -3.1212  2.2853  0.9204
  805MOL0     H 8629   8.917   3.839   1.582 -1.1886  0.8867  0.5778
  805MOL0     H 8630   8.901   4.012   1.582 -0.1429  0.1837 -0.2576
  805MOL0     H 8631   9.137   3.861   1.445 -0.6084 -0.7077  0.9135
  805MOL0     H 8632   9.138   4.035   1.473  1.4165 -0.6181  0.3766
  805MOL0     H 8633   9.045   3.896   1.251 -2.4276  0.9034 -1.2493
  805MOL0     H 8634   9.036   4.063   1.281 -0.8160 -0.2454 -0.5687
  805MOL0     H 8635   8.899   4.050   1.086 -2.2235  2.2308 -2.6910
  805MOL0     H 8636   8.768   3.982   0.879 -1.3474 -0.5014 -0.6323
  805MOL0     H 8637   8.484   3.552   0.705 -0.3827  0.8660 -1.8196
  805MOL0     H 8638   8.310   3.449   0.562 -2.7639 -0.7041  0.0437
  805MOL0     H 8639   8.172   3.441   0.405  0.4678  1.4000  0.7984
  805MOL0     H 8640   8.095   3.345   0.533 -0.7226  0.2110 -0.9276
  805MOL0     H 8641   7.948   3.482   0.285 -2.0626 -0.6414 -0.7674
  805MOL0     H 8642   8.020   3.314   0.296 -3.4365 -4.5498  2.0827
  805MOL0     H 8643   7.864   3.243   0.457 -2.0219 -0.5454 -0.7295
  805MOL0     H 8644   7.808   3.410   0.476 -3.6202 -1.2601 -0.5033
  805MOL0     H 8645   7.789   3.322   0.187  1.8781 -0.3304 -0.2150
  805MOL0     H 8646   7.670   3.396   0.278  1.5084  0.9468 -0.9164
  805MOL0     H 8647   7.641   3.158   0.391 -0.4069 -3.6813 -0.7697
  805MOL0     H 8648   7.766   3.097   0.287  2.1607  1.9358 -2.4896
  805MOL0     H 8649   7.494   3.223   0.201 -1.2718 -0.5024 -0.3709
  805MOL0     H 8650   7.615   3.176   0.084 -1.2865  0.7569 -0.2384
  805MOL0     H 8651   7.591   2.929   0.199  0.2511  1.0291  1.5284
  805MOL0     H 8652   7.475   2.991   0.079 -1.4920 -1.1627  0.8390
  805MOL0     H 8653   7.438   2.999   0.383 -1.3994  0.1479 -0.0327
  805MOL0     H 8654   7.327   3.063   0.269  0.5990  0.5919 -1.1252
  805MOL0     H 8655   8.034   3.758   0.679 -1.5365  0.0594  4.6700
  805MOL0     H 8656   8.196   3.841   0.830  2.0070  1.4886 -0.3551
  805MOL0     H 8657   8.504   3.749   1.130 -1.0852  2.9726  0.9680
  805MOL0     H 8658   8.647   3.813   1.318  2.3869  0.4008  1.4535
  805MOL0     H 8659   8.446   3.918   2.286  0.0154  1.0138 -1.5454
  805MOL0     H 8660   8.294   3.749   2.389 -0.6015 -0.2288  0.3271
  805MOL0     H 8661   7.968   3.597   2.551 -1.1311 -0.4043  0.1570
  805MOL0     H 8662   7.966   3.385   2.632 -0.4870 -0.2783  0.7969
  805MOL0     H 8663   8.132   3.056   2.369 -0.1525  1.4170 -0.1146
  805MOL0     H 8664   7.959   3.028   2.344 -0.6163 -2.2236  0.2421
  805MOL0     H 8665   8.070   2.939   2.609  1.1488 -0.0344 -0.8599
  805MOL0     H 8666   8.097   2.837   2.459 -0.8183 -1.3192  1.7262
  805MOL0     H 8667   7.870   2.811   2.437  1.3755  1.5888  0.1461
  805MOL0     H 8668   7.819   2.925   2.558 -0.5939 -0.5875  0.4796
  805MOL0     H 8669   7.917   2.776   2.745 -3.5279 -2.6563  2.3329
  805MOL0     H 8670   7.808   2.684   2.631  0.0647  0.3433  1.8659
  805MOL0     H 8671   8.200   2.512   2.593  0.9763  0.1810 -0.9196
  805MOL0     H 8672   7.994   3.217   2.244  1.3408 -1.5232  1.6993
  805MOL0     H 8673   8.100   3.452   2.066  1.7796 -2.3367  1.7748
  805MOL0     H 8674   7.959   3.335   2.060 -0.0090  0.3933  2.0304
  805MOL0     H 8675   7.933   3.507   2.043 -0.6255  0.0012 -1.2320
  806MOL0     O 8676   4.163   9.494   7.076  0.1902 -0.5384  0.6675
  806MOL0     C 8677   4.159   9.378   7.050 -0.2649 -0.1789 -0.7345
  806MOL0     O 8678   4.208   9.286   7.133 -0.1514  0.5211 -0.1833
  806MOL0     C 8679   4.268   9.318   7.249 -0.2196  0.0717  0.1373
  806MOL0     C 8680   4.405   9.343   7.277 -0.2070 -0.6655  0.0881
  806MOL0     C 8681   4.453   9.380   7.403  0.3201 -0.0574  0.1349
  806MOL0     C 8682   4.360   9.392   7.502 -0.0524 -0.0969  0.2330
  806MOL0     O 8683   4.397   9.436   7.633 -0.3156 -0.0207 -0.1646
  806MOL0     C 8684   4.301   9.499   7.723 -0.0441 -0.3527  0.9752
  806MOL0     C 8685   4.369   9.553   7.850 -0.9933 -0.3789 -0.4398
  806MOL0     C 8686   4.273   9.606   7.963 -0.0104  0.6179 -0.0272
  806MOL0     C 8687   4.151   9.687   7.902  0.3030 -0.2781  0.2191
  806MOL0     C 8688   4.068   9.737   8.031  0.0053 -0.0648  0.1804
  806MOL0     C 8689   3.921   9.791   8.001 -0.2725 -0.4750 -0.5165
  806MOL0     C 8690   3.884   9.909   8.076  0.0304  0.3797  0.3244
  806MOL0     C 8691   3.742   9.951   8.038  0.1341  0.6073  0.0056
  806MOL0     N 8692   3.712  10.076   8.115 -0.0893 -0.9589 -0.0869
  806MOL0     C 8693   3.583  10.132   8.127 -0.8230  0.0783 -0.0492
  806MOL0     C 8694   3.603  10.246   8.197 -0.3382 -1.2731  0.4256
  806MOL0     C 8695   3.494  10.336   8.248  0.3370 -0.2748 -0.5430
  806MOL0     C 8696   3.478  10.471   8.169  0.8267 -0.0614  0.6621
  806MOL0     C 8697   3.422  10.446   8.033 -1.0050  0.1568 -0.7247
  806MOL0     C 8698   3.440  10.560   7.938  0.7428  0.1565 -0.3390
  806MOL0     O 8699   3.574  10.606   7.919 -0.5615 -0.0993  0.2998
  806MOL0     C 8700   3.657  10.522   7.855  0.3262 -0.0694  0.7243
  806MOL0     C 8701   3.631  10.481   7.723  0.0368 -1.1849  0.2582
  806MOL0     C 8702   3.710  10.389   7.669  0.2504 -0.3794  0.3331
  806MOL0     C 8703   3.823  10.343   7.729 -0.2857 -1.0365 -0.6306
  806MOL0     C 8704   3.909  10.247   7.661  0.2036 -0.7090 -0.0971
  806MOL0     O 8705   4.030  10.239   7.704 -0.1790  0.8150  0.3750
  806MOL0     C 8706   4.108  10.144   7.651  0.2134 -0.1025  0.1664
  806MOL0     C 8707   4.078  10.004   7.671  0.8458  0.1722  0.9742
  806MOL0     C 8708   4.163   9.905   7.610 -0.2701 -0.6175 -0.9365
  806MOL0     C 8709   4.278   9.952   7.540 -0.6154  0.4692 -0.7618
  806MOL0     O 8710   4.368   9.854   7.491 -0.5734  0.6317  0.4313
  806MOL0     C 8711   4.337   9.806   7.359  0.2548  0.8942  0.0773
  806MOL0     C 8712   4.475   9.783   7.287  0.0793  0.2454 -0.1332
  806MOL0     C 8713   4.459   9.703   7.160 -0.3065  0.1208 -0.3215
  806MOL0     C 8714   4.588   9.699   7.075  0.2896 -0.6249 -0.3503
  806MOL0     C 8715   4.554   9.656   6.930  0.2851 -0.5285 -0.2373
  806MOL0     C 8716   4.494   9.772   6.857 -0.3003 -0.0316 -0.3422
  806MOL0     C 8717   4.468   9.734   6.714 -0.2708 -0.7955  0.0721
  806MOL0     C 8718   4.405   9.855   6.642  0.3451 -0.3556  0.0579
  806MOL0    Cl 8719   4.352   9.806   6.473 -0.2061 -0.4686 -0.2050
  806MOL0     C 8720   4.313  10.088   7.525  0.7084 -0.5672  0.5034
  806MOL0     C 8721   4.222  10.181   7.573  0.3501  0.6445  0.0343
  806MOL0     O 8722   3.867  10.194   7.565  0.0406 -0.1985 -0.3786
  806MOL0     C 8723   3.854  10.395   7.855  0.7801  1.1111  0.6535
  806MOL0     C 8724   3.779  10.487   7.922  0.1849 -0.4764 -0.2004
  806MOL0     N 8725   3.740  10.270   8.210 -0.3712 -0.0299  0.1560
  806MOL0     N 8726   3.798  10.174   8.146  0.1042  1.0549 -0.0989
  806MOL0     C 8727   4.226   9.355   7.475  0.4939 -0.0415 -0.3304
  806MOL0     C 8728   4.174   9.313   7.351  0.1467 -0.1349 -0.4860
  806MOL0     C 8729   4.089   9.339   6.925 -0.1077 -0.5046 -0.2163
  806MOL0     C 8730   4.035   9.208   6.914  0.0587  0.2631 -0.3964
  806MOL0     C 8731   3.941   9.177   6.815 -0.2196 -0.6237 -0.0773
  806MOL0     C 8732   3.923   9.268   6.707 -0.4914 -0.1060 -1.3822
  806MOL0     O 8733   3.843   9.232   6.604 -0.1800  0.2494 -0.4680
  806MOL0     C 8734   3.808   9.095   6.585  0.0522 -0.2657  0.0411
  806MOL0     C 8735   3.716   9.106   6.472  0.2352 -1.0412 -0.7632
  806MOL0     C 8736   3.581   9.133   6.533 -0.0605 -0.0419 -0.4094
  806MOL0     C 8737   3.508   9.013   6.598  0.1182  0.8884  0.8923
  806MOL0     C 8738   3.475   8.908   6.496  0.6630  0.4233  0.5527
  806MOL0     C 8739   3.457   8.824   6.409 -0.0365 -0.0021 -0.0480
  806MOL0     C 8740   3.992   9.389   6.709 -0.9426 -0.4919  0.4058
  806MOL0     C 8741   4.063   9.434   6.818 -0.6006 -0.0125 -0.7658
  806MOL0     C 8742   4.125   9.580   6.796 -0.0485 -0.7074 -0.2340
  806MOL0     H 8743   4.484   9.344   7.202 -0.5039 -3.0728 -0.3430
  806MOL0     H 8744   4.554   9.416   7.424 -0.4538  2.9144 -0.7014
  806MOL0     H 8745   4.248   9.576   7.667  0.6870  0.8522  1.8969
  806MOL0     H 8746   4.233   9.416   7.745  1.8332 -2.9787 -2.1055
  806MOL0     H 8747   4.434   9.635   7.819  0.0182 -1.6255 -1.7379
  806MOL0     H 8748   4.430   9.473   7.893  1.4162  0.9780 -1.1291
  806MOL0     H 8749   4.317   9.687   8.023  2.0401  0.7997 -1.6624
  806MOL0     H 8750   4.238   9.518   8.018  0.0042 -0.6898 -2.0096
  806MOL0     H 8751   4.190   9.778   7.855  2.3350 -0.5608  1.2136
  806MOL0     H 8752   4.084   9.628   7.840  0.8687 -1.4538  0.6898
  806MOL0     H 8753   4.053   9.644   8.086 -0.1623  0.9879  2.0038
  806MOL0     H 8754   4.125   9.815   8.083 -2.1967  1.3286  0.6654
  806MOL0     H 8755   3.915   9.804   7.893 -1.4519 -0.6004 -0.4746
  806MOL0     H 8756   3.850   9.716   8.036 -0.4084 -0.1770 -0.1417
  806MOL0     H 8757   3.960   9.985   8.056  0.2769 -0.0966 -0.5595
  806MOL0     H 8758   3.881   9.880   8.181  1.5727 -2.5439 -0.3410
  806MOL0     H 8759   3.754   9.975   7.931 -0.3623 -4.3203 -1.3801
  806MOL0     H 8760   3.667   9.873   8.052  0.6338 -0.2845 -1.9801
  806MOL0     H 8761   3.488  10.093   8.090 -1.5338  1.5370  0.1701
  806MOL0     H 8762   3.400  10.282   8.239 -0.2428  0.3333  1.4603
  806MOL0     H 8763   3.513  10.363   8.352 -1.6641 -1.0449  0.0667
  806MOL0     H 8764   3.406  10.544   8.206  0.6620 -0.3592  0.9387
  806MOL0     H 8765   3.578  10.514   8.175  2.0217 -2.7760  2.7219
  806MOL0     H 8766   3.318  10.411   8.038  0.1029 -3.3049  0.7277
  806MOL0     H 8767   3.472  10.360   7.989 -0.3719 -0.7957  1.7076
  806MOL0     H 8768   3.386  10.643   7.984  4.4385  1.2657  2.5646
  806MOL0     H 8769   3.397  10.522   7.845 -0.5584  0.8887 -0.0636
  806MOL0     H 8770   3.553  10.535   7.671  0.4241  0.4981  1.3187
  806MOL0     H 8771   3.690  10.350   7.570  2.3086  2.1320 -1.1805
  806MOL0     H 8772   3.998   9.955   7.726  0.1290 -1.7485 -1.6173
  806MOL0     H 8773   4.143   9.798   7.613 -2.3855 -0.2549  1.2721
  806MOL0     H 8774   4.283   9.712   7.371  1.6007  0.0355 -0.3796
  806MOL0     H 8775   4.285   9.878   7.295 -0.3488 -0.9038 -1.5634
  806MOL0     H 8776   4.512   9.885   7.278  0.0806  0.1462 -1.4397
  806MOL0     H 8777   4.549   9.728   7.347  0.7838  1.4886  0.1582
  806MOL0     H 8778   4.431   9.598   7.177  1.4737 -0.3109  0.1556
  806MOL0     H 8779   4.367   9.732   7.108 -0.9351 -1.2502 -0.0262
  806MOL0     H 8780   4.638   9.614   7.123  0.0607  0.0819  1.2100
  806MOL0     H 8781   4.632   9.799   7.075  3.5911 -1.9486  0.1927
  806MOL0     H 8782   4.481   9.575   6.940 -1.3828  1.0018  0.4675
  806MOL0     H 8783   4.639   9.613   6.875 -1.1233 -0.0984 -2.8642
  806MOL0     H 8784   4.394   9.802   6.893 -1.0599 -0.5194 -1.9564
  806MOL0     H 8785   4.548   9.867   6.861 -2.4623  1.2913 -0.5840
  806MOL0     H 8786   4.398   9.649   6.711 -0.1609 -0.8701 -0.3402
  806MOL0     H 8787   4.562   9.700   6.669  0.5233  0.4193  0.7754
  806MOL0     H 8788   4.316   9.892   6.693  0.3952 -0.5484  0.2810
  806MOL0     H 8789   4.473   9.941   6.633 -0.8376  0.7889  1.6996
  806MOL0     H 8790   4.406  10.126   7.483 -1.3741  1.9035 -2.2700
  806MOL0     H 8791   4.234  10.287   7.550  1.3063  0.3226 -0.9885
  806MOL0     H 8792   3.952  10.374   7.894  0.8596  1.3787  0.5990
  806MOL0     H 8793   3.804  10.535   8.016 -1.1758  0.6652 -0.3843
  806MOL0     H 8794   4.157   9.339   7.557  0.7523  0.8466  0.0749
  806MOL0     H 8795   4.071   9.294   7.320 -0.0551  0.5123 -0.2167
  806MOL0     H 8796   4.056   9.132   6.987  0.5637 -0.2805 -1.0932
  806MOL0     H 8797   3.892   9.082   6.833  3.9406 -2.7574  1.5540
  806MOL0     H 8798   3.771   9.045   6.675  3.9007  0.6195  2.3968
  806MOL0     H 8799   3.897   9.038   6.557 -0.8609 -2.1425  0.8028
  806MOL0     H 8800   3.717   9.012   6.416  3.8074 -1.4013 -0.3717
  806MOL0     H 8801   3.735   9.189   6.403 -6.0390  0.9965 -0.6161
  806MOL0     H 8802   3.521   9.176   6.452  0.2654 -1.5582 -1.5125
  806MOL0     H 8803   3.588   9.213   6.607  1.7393 -0.3850 -0.1624
  806MOL0     H 8804   3.571   8.965   6.674  2.3915  3.2212  0.6387
  806MOL0     H 8805   3.416   9.035   6.652 -0.8224 -0.0090 -0.2814
  806MOL0     H 8806   3.440   8.746   6.338 -2.1868 -2.3148  2.7618
  806MOL0     H 8807   3.983   9.457   6.625 -2.5830 -2.2820 -0.9849
  806MOL0     H 8808   4.043   9.647   6.826  0.5241  1.4684 -3.1219
  806MOL0     H 8809   4.212   9.612   6.854 -0.8697  0.3322  0.4543
  806MOL0     H 8810   4.150   9.597   6.691 -0.8669 -1.2072 -0.5248
  807MOL0     O 8811   5.390   9.666   7.387  0.3421 -0.4379  0.6513
  807MOL0     C 8812   5.437   9.779   7.386 -0.0727  0.4432  0.6528
  807MOL0     O 8813   5.552   9.811   7.318 -0.4038  0.5412 -0.8000
  807MOL0     C 8814   5.624   9.706   7.262 -0.4179 -0.1422  0.5897
  807MOL0     C 8815   5.590   9.626   7.146  0.4704  0.8555  0.2851
  807MOL0     C 8816   5.683   9.533   7.095  0.1576  0.3110  0.0187
  807MOL0     C 8817   5.796   9.501   7.167  0.1254 -0.8458 -0.7029
  807MOL0     O 8818   5.886   9.417   7.111  0.9015  0.0990  0.0896
  807MOL0     C 8819   6.028   9.427   7.142 -0.3753 -0.1082  0.1049
  807MOL0     C 8820   6.085   9.564   7.101 -0.0465 -1.1031 -0.8854
  807MOL0     C 8821   6.071   9.591   6.948  0.1485  0.6316 -0.1501
  807MOL0     C 8822   6.075   9.740   6.908  0.0799 -0.3100 -0.5915
  807MOL0     C 8823   6.111   9.739   6.749 -0.5532 -0.2167 -0.4342
  807MOL0     C 8824   6.014   9.669   6.659  0.5281  0.1929  0.6676
  807MOL0     C 8825   5.870   9.702   6.694 -0.2914 -0.1298  0.0179
  807MOL0     C 8826   5.783   9.612   6.613  0.0215  0.1755 -0.1109
  807MOL0     N 8827   5.641   9.651   6.639  0.4221  0.8125 -0.0893
  807MOL0     C 8828   5.567   9.743   6.578 -0.3238  0.0658 -0.0856
  807MOL0     C 8829   5.439   9.724   6.628  0.4104 -0.7016  0.0008
  807MOL0     C 8830   5.320   9.798   6.582  0.8957  0.4230 -0.1242
  807MOL0     C 8831   5.285   9.780   6.440  0.6511  0.4626 -0.4378
  807MOL0     C 8832   5.134   9.786   6.415 -0.0588 -0.4616 -0.1924
  807MOL0     C 8833   5.094   9.800   6.269 -0.2318  0.0313 -0.6700
  807MOL0     O 8834   5.131   9.935   6.231 -0.6525 -0.0649  0.5989
  807MOL0     C 8835   5.039  10.032   6.214 -1.1228  0.5018 -0.1482
  807MOL0     C 8836   4.905  10.017   6.248  0.6936 -0.2619 -0.1917
  807MOL0     C 8837   4.806  10.115   6.211 -0.4842 -0.6552 -0.5642
  807MOL0     C 8838   4.845  10.227   6.130  0.0289 -0.4384  0.5030
  807MOL0     C 8839   4.750  10.323   6.073  0.6988  0.1029  0.1305
  807MOL0     O 8840   4.616  10.313   6.117  0.3139  0.3000  0.0783
  807MOL0     C 8841   4.524  10.404   6.097  0.6607  0.5750 -0.6789
  807MOL0     C 8842   4.417  10.406   6.197  0.4437  0.3343  0.0778
  807MOL0     C 8843   4.304  10.485   6.182 -0.5251  0.1529 -0.4301
  807MOL0     C 8844   4.287  10.565   6.067 -0.1399  0.7550 -0.2803
  807MOL0     O 8845   4.177  10.647   6.059  0.2940  0.7056  0.5962
  807MOL0     C 8846   4.143  10.725   6.174  0.3677  0.6212  0.8807
  807MOL0     C 8847   3.995  10.726   6.181  1.0778  0.6591 -0.0386
  807MOL0     C 8848   3.946  10.606   6.254  0.0959 -0.5314 -0.0982
  807MOL0     C 8849   3.798  10.597   6.269 -0.6163  0.6138  0.3925
  807MOL0     C 8850   3.751  10.475   6.347 -0.5136  0.1864  0.2561
  807MOL0     C 8851   3.802  10.345   6.289  0.8633  0.6726  0.0577
  807MOL0     C 8852   3.726  10.230   6.355  0.7906  0.4493 -0.5675
  807MOL0     C 8853   3.732  10.105   6.263 -0.1635  0.8941 -0.7378
  807MOL0    Cl 8854   3.628   9.984   6.342  0.5015 -0.0799  0.6763
  807MOL0     C 8855   4.389  10.560   5.968 -0.9186 -0.0201  0.1858
  807MOL0     C 8856   4.509  10.491   5.985 -0.3802  0.5344  0.2062
  807MOL0     O 8857   4.790  10.430   6.023  0.2103  0.2187  0.0155
  807MOL0     C 8858   4.979  10.245   6.097 -0.3803  0.4262 -0.4868
  807MOL0     C 8859   5.074  10.144   6.138  0.0762 -0.3461  0.4337
  807MOL0     N 8860   5.436   9.636   6.730 -0.1633  0.3825 -0.5025
  807MOL0     N 8861   5.559   9.580   6.731  0.7288 -0.2099  0.2265
  807MOL0     C 8862   5.828   9.577   7.290 -0.1523  0.1443 -0.0128
  807MOL0     C 8863   5.743   9.669   7.332 -0.8697 -0.8019 -0.4971
  807MOL0     C 8864   5.376   9.883   7.473  0.6153 -0.2783  1.2530
  807MOL0     C 8865   5.429  10.014   7.460 -0.2298  0.8357 -0.8534
  807MOL0     C 8866   5.378  10.116   7.538  0.3457  0.3667 -0.6923
  807MOL0     C 8867   5.274  10.101   7.622  0.7335 -1.1487  0.4670
  807MOL0     O 8868   5.235  10.212   7.686 -0.1504 -0.5735 -0.1527
  807MOL0     C 8869   5.138  10.210   7.795 -0.3080 -0.1114  0.4473
  807MOL0     C 8870   5.205  10.255   7.923 -0.6299  0.5806 -0.2307
  807MOL0     C 8871   5.220  10.399   7.932  0.0809 -1.0070 -0.2510
  807MOL0     C 8872   5.260  10.441   8.069 -0.5051 -0.4794 -0.6354
  807MOL0     C 8873   5.394  10.403   8.125  0.5875  1.0338  0.6988
  807MOL0     C 8874   5.498  10.365   8.180  0.8370  0.5510 -1.1562
  807MOL0     C 8875   5.213   9.980   7.624  0.1399  0.1159  0.3378
  807MOL0     C 8876   5.264   9.868   7.552 -0.1064  0.1581 -0.5307
  807MOL0     C 8877   5.206   9.730   7.591 -0.2129 -0.0196  0.1254
  807MOL0     H 8878   5.501   9.653   7.090 -0.2857 -0.8788  0.5744
  807MOL0     H 8879   5.660   9.499   6.994 -0.4708 -0.1887  0.3220
  807MOL0     H 8880   6.053   9.393   7.243 -0.5554  1.4624  0.6947
  807MOL0     H 8881   6.087   9.353   7.086  0.4690  1.3994 -1.0822
  807MOL0     H 8882   6.193   9.559   7.120 -0.0203 -0.7402 -0.9279
  807MOL0     H 8883   6.040   9.651   7.149 -2.3018  0.4768 -5.2531
  807MOL0     H 8884   5.978   9.542   6.917  2.3482 -5.5930  1.6071
  807MOL0     H 8885   6.157   9.533   6.915 -1.8639 -3.9391  1.8119
  807MOL0     H 8886   5.980   9.790   6.927 -1.8494 -2.9721 -2.5483
  807MOL0     H 8887   6.148   9.793   6.971  0.8721 -2.6237  0.5587
  807MOL0     H 8888   6.106   9.846   6.728  0.1460 -0.1979 -0.5390
  807MOL0     H 8889   6.210   9.707   6.716 -1.1250  0.2522 -2.7822
  807MOL0     H 8890   6.034   9.717   6.564 -0.8185 -0.6187 -0.0653
  807MOL0     H 8891   6.033   9.561   6.660 -0.9573 -0.1108 -0.1138
  807MOL0     H 8892   5.845   9.807   6.675 -1.1474 -0.2813  0.2406
  807MOL0     H 8893   5.856   9.680   6.800  4.4665 -3.6664  0.2255
  807MOL0     H 8894   5.802   9.613   6.505  1.9387 -3.5181  0.0570
  807MOL0     H 8895   5.790   9.508   6.644 -1.5861 -0.0939 -0.5640
  807MOL0     H 8896   5.594   9.797   6.488 -0.8118 -2.6252 -1.9739
  807MOL0     H 8897   5.231   9.768   6.638  1.2137 -0.2759  0.0048
  807MOL0     H 8898   5.329   9.907   6.591 -0.2085  0.4780  0.6575
  807MOL0     H 8899   5.337   9.846   6.370  0.5892 -1.2432 -2.1843
  807MOL0     H 8900   5.322   9.680   6.415  1.0736  0.5158 -0.0401
  807MOL0     H 8901   5.099   9.878   6.462  4.1125 -0.5956  3.9737
  807MOL0     H 8902   5.085   9.704   6.469 -2.9547  2.2768  1.6368
  807MOL0     H 8903   4.988   9.773   6.277 -0.3196  0.8740  4.0711
  807MOL0     H 8904   5.142   9.729   6.201  0.2748 -0.0808 -0.2042
  807MOL0     H 8905   4.871   9.929   6.301  2.0105 -0.9120 -0.3957
  807MOL0     H 8906   4.703  10.111   6.243 -0.0872 -3.0619  0.6155
  807MOL0     H 8907   4.435  10.341   6.282 -0.4290  1.2278  0.9781
  807MOL0     H 8908   4.229  10.485   6.260 -0.0133  4.2269  0.2986
  807MOL0     H 8909   4.194  10.687   6.263  2.7669  0.3590 -0.5398
  807MOL0     H 8910   4.189  10.818   6.140 -0.6232  0.5065 -0.9113
  807MOL0     H 8911   3.958  10.819   6.224  0.5841  3.0627 -4.9423
  807MOL0     H 8912   3.962  10.737   6.077 -0.1971 -0.4932  0.2185
  807MOL0     H 8913   3.967  10.516   6.196 -1.1891 -0.8557 -0.0895
  807MOL0     H 8914   3.986  10.602   6.356  1.5838  0.6142 -0.5928
  807MOL0     H 8915   3.742  10.599   6.175  1.3526  0.6139 -0.8443
  807MOL0     H 8916   3.768  10.684   6.328  1.5239 -0.5487  3.4682
  807MOL0     H 8917   3.644  10.475   6.367 -0.6212  0.0808 -0.3204
  807MOL0     H 8918   3.796  10.478   6.447  1.2310 -1.2253 -0.4145
  807MOL0     H 8919   3.762  10.355   6.188  0.7818  2.6390  0.2467
  807MOL0     H 8920   3.911  10.334   6.285  0.6234 -2.0616 -1.6023
  807MOL0     H 8921   3.619  10.248   6.364  0.2399 -2.9699  1.4353
  807MOL0     H 8922   3.772  10.212   6.453  0.2748  2.1182  0.0011
  807MOL0     H 8923   3.691  10.138   6.167 -1.0073 -2.8827 -1.8392
  807MOL0     H 8924   3.833  10.062   6.262 -0.5335  0.0081 -0.8556
  807MOL0     H 8925   4.385  10.624   5.881  0.4953 -1.5263 -1.0526
  807MOL0     H 8926   4.585  10.497   5.908 -0.0823  0.1122  0.4642
  807MOL0     H 8927   5.008  10.332   6.040  3.4415 -0.6570 -0.4602
  807MOL0     H 8928   5.180  10.148   6.116  0.3775 -0.5099  1.7471
  807MOL0     H 8929   5.927   9.560   7.331 -0.6864 -3.1635  0.1510
  807MOL0     H 8930   5.773   9.725   7.420 -2.6896 -0.2225 -0.2016
  807MOL0     H 8931   5.528  10.033   7.419  2.2391 -0.7964  3.6595
  807MOL0     H 8932   5.437  10.206   7.548 -0.6104  1.4563 -3.8881
  807MOL0     H 8933   5.106  10.106   7.814  2.2813 -0.8757  0.9664
  807MOL0     H 8934   5.045  10.263   7.774 -1.9899 -2.7644  0.6621
  807MOL0     H 8935   5.295  10.194   7.932  0.6755  1.4823 -4.5938
  807MOL0     H 8936   5.136  10.218   7.999  0.2164  0.6928  0.6054
  807MOL0     H 8937   5.135  10.455   7.893 -0.3963 -0.9362  0.8597
  807MOL0     H 8938   5.298  10.420   7.858  1.1769  0.0600  1.1395
  807MOL0     H 8939   5.249  10.550   8.072 -0.5060 -0.4783 -0.6582
  807MOL0     H 8940   5.180  10.403   8.133 -0.1827 -4.4715 -2.3218
  807MOL0     H 8941   5.589  10.340   8.230  0.4598  1.5405  0.0888
  807MOL0     H 8942   5.123   9.964   7.683 -0.0989  0.4229  0.0610
  807MOL0     H 8943   5.124   9.739   7.663 -0.0369  2.0013  0.1345
  807MOL0     H 8944   5.166   9.693   7.496  0.1540  0.8582 -0.3888
  807MOL0     H 8945   5.285   9.660   7.618  2.0285  0.6548 -3.8926
  808MOL0     O 8946   7.117   3.875   3.536 -0.1697 -0.1660  0.2038
  808MOL0     C 8947   7.000   3.861   3.505 -0.5581  0.0607  0.2017
  808MOL0     O 8948   6.939   3.745   3.480 -0.3513 -0.6687  0.4247
  808MOL0     C 8949   6.989   3.624   3.496  0.2714  0.3373  1.0875
  808MOL0     C 8950   7.068   3.581   3.604 -0.2928 -0.3598  0.0035
  808MOL0     C 8951   7.102   3.455   3.640  0.0948 -0.7963 -0.4201
  808MOL0     C 8952   7.068   3.346   3.552  0.4209  0.0521 -0.0876
  808MOL0     O 8953   7.098   3.211   3.570  0.1163 -1.2948 -0.3608
  808MOL0     C 8954   7.228   3.184   3.626  0.4817  0.0880 -0.9891
  808MOL0     C 8955   7.348   3.244   3.560 -0.5784  0.0043  0.5165
  808MOL0     C 8956   7.345   3.211   3.407  0.0718  0.4108  0.0043
  808MOL0     C 8957   7.474   3.259   3.342  0.3426  0.3262  0.0797
  808MOL0     C 8958   7.485   3.223   3.199  0.0414  0.4945  0.7763
  808MOL0     C 8959   7.572   3.094   3.189  1.1014  0.2950 -0.1860
  808MOL0     C 8960   7.545   3.008   3.056  0.2780 -0.8499 -0.1833
  808MOL0     C 8961   7.672   2.932   3.003  0.2405  0.0453 -0.2288
  808MOL0     N 8962   7.700   2.836   3.107  0.2304 -0.0474 -0.6148
  808MOL0     C 8963   7.812   2.834   3.192  0.6405  0.7586 -0.4949
  808MOL0     C 8964   7.786   2.727   3.273  0.0187 -0.0099 -0.0390
  808MOL0     C 8965   7.887   2.674   3.380 -0.7924 -0.7268  0.6528
  808MOL0     C 8966   8.021   2.628   3.327  0.3229 -0.3767 -0.3046
  808MOL0     C 8967   8.141   2.650   3.429 -0.5495  0.4353 -0.4475
  808MOL0     C 8968   8.268   2.570   3.377 -0.5858  0.0797 -0.2948
  808MOL0     O 8969   8.247   2.439   3.426  0.0684 -0.1054 -0.1511
  808MOL0     C 8970   8.344   2.343   3.404  0.3950  0.2156 -0.5002
  808MOL0     C 8971   8.310   2.208   3.431 -0.2143  0.7685  1.1195
  808MOL0     C 8972   8.402   2.096   3.401  0.8276  0.2339  0.5579
  808MOL0     C 8973   8.532   2.124   3.359 -0.5101 -0.8981  0.3534
  808MOL0     C 8974   8.626   2.018   3.340 -1.0599  0.1049 -0.4883
  808MOL0     O 8975   8.762   2.047   3.333  0.0919 -0.0748  0.4473
  808MOL0     C 8976   8.846   1.949   3.339 -0.9596  0.5435 -0.5600
  808MOL0     C 8977   8.822   1.830   3.409  1.1278  0.1995  0.1060
  808MOL0     C 8978   8.911   1.728   3.387 -0.2733  0.4580 -0.0779
  808MOL0     C 8979   9.026   1.745   3.306  0.2101  0.2034 -0.7492
  808MOL0     O 8980   9.116   1.638   3.304 -0.2399 -0.2096  0.4769
  808MOL0     C 8981   9.200   1.626   3.189  0.6333  0.8355  0.0889
  808MOL0     C 8982   9.248   1.482   3.175  0.0514 -0.1064 -0.8588
  808MOL0     C 8983   9.146   1.375   3.189 -0.0722 -0.0704  0.0691
  808MOL0     C 8984   9.188   1.229   3.182  0.0625  0.8514 -0.1431
  808MOL0     C 8985   9.169   1.152   3.050 -0.1490 -0.2605  0.2481
  808MOL0     C 8986   9.189   1.004   3.085  0.2582 -0.3286  0.1580
  808MOL0     C 8987   9.144   0.915   2.975 -0.1183  0.7947  0.3029
  808MOL0     C 8988   9.223   0.925   2.830  0.6976 -0.1106 -1.1004
  808MOL0    Cl 8989   9.161   1.067   2.746  0.0177 -0.1397  0.3389
  808MOL0     C 8990   9.058   1.866   3.253 -0.1867 -0.1988 -0.2178
  808MOL0     C 8991   8.970   1.971   3.275  0.1234 -0.6842  0.6348
  808MOL0     O 8992   8.575   1.913   3.297 -0.0809 -0.6176 -0.0436
  808MOL0     C 8993   8.564   2.261   3.342 -0.6444 -0.2797  0.4614
  808MOL0     C 8994   8.479   2.369   3.363 -0.7672 -0.2209  0.9415
  808MOL0     N 8995   7.657   2.677   3.254 -0.1262 -0.6595 -0.2836
  808MOL0     N 8996   7.617   2.738   3.145  0.4178 -0.4609  0.0550
  808MOL0     C 8997   6.990   3.372   3.442 -0.0212 -0.0652  0.5586
  808MOL0     C 8998   6.948   3.513   3.416 -0.6643  0.9947 -0.3784
  808MOL0     C 8999   6.917   3.984   3.496  1.0165 -0.0122 -0.9555
  808MOL0     C 9000   6.781   3.976   3.533  0.2057 -1.3711 -0.1759
  808MOL0     C 9001   6.710   4.087   3.567  0.3386 -1.0890  0.2408
  808MOL0     C 9002   6.762   4.214   3.542  0.0632 -0.4894 -0.7176
  808MOL0     O 9003   6.674   4.320   3.564  0.1098 -0.1042 -1.0813
  808MOL0     C 9004   6.696   4.453   3.530 -0.4738 -0.9028 -0.2964
  808MOL0     C 9005   6.763   4.529   3.650 -0.3129 -0.2538  0.9434
  808MOL0     C 9006   6.928   4.533   3.648 -0.2602  0.6617  0.2412
  808MOL0     C 9007   6.986   4.609   3.768 -0.5381 -0.6881 -0.0675
  808MOL0     C 9008   6.948   4.535   3.889 -0.2075  0.0050 -0.3605
  808MOL0     C 9009   6.922   4.468   3.984  0.2446  0.5894 -0.2567
  808MOL0     C 9010   6.893   4.230   3.493  0.8306 -0.1592 -0.0998
  808MOL0     C 9011   6.969   4.116   3.463 -0.0492  0.6491  0.9013
  808MOL0     C 9012   7.107   4.133   3.409  0.2218  0.9271 -0.6874
  808MOL0     H 9013   7.112   3.665   3.657  0.7572 -2.0112  1.9000
  808MOL0     H 9014   7.162   3.446   3.729 -1.0143 -0.2689  0.4032
  808MOL0     H 9015   7.223   3.214   3.731 -0.2708  0.3600 -1.0988
  808MOL0     H 9016   7.248   3.076   3.629  0.7750  0.1532 -0.5555
  808MOL0     H 9017   7.443   3.205   3.598 -2.1461 -2.9157  1.7300
  808MOL0     H 9018   7.350   3.351   3.583  1.3063 -0.0583  0.7952
  808MOL0     H 9019   7.264   3.266   3.358  0.6137  0.8218 -0.4419
  808MOL0     H 9020   7.316   3.106   3.393 -1.1807  0.8285 -0.6569
  808MOL0     H 9021   7.465   3.368   3.344  0.1989  0.3081  0.4118
  808MOL0     H 9022   7.562   3.232   3.400 -0.5647  0.3371  1.4938
  808MOL0     H 9023   7.389   3.202   3.153  1.9626 -0.8318 -3.0256
  808MOL0     H 9024   7.524   3.303   3.136 -0.3019 -0.7264 -1.0360
  808MOL0     H 9025   7.676   3.129   3.189  0.5044  2.2156  0.6788
  808MOL0     H 9026   7.558   3.024   3.272 -0.5057  0.0438 -0.6337
  808MOL0     H 9027   7.526   3.085   2.980  5.3499 -0.2613 -1.2045
  808MOL0     H 9028   7.457   2.950   3.086 -0.0686  0.0339  0.6028
  808MOL0     H 9029   7.649   2.885   2.908 -1.0669  0.6859 -0.2472
  808MOL0     H 9030   7.761   2.994   2.991  0.5177 -0.4527 -0.7478
  808MOL0     H 9031   7.901   2.895   3.200  1.3859 -0.3238 -0.4423
  808MOL0     H 9032   7.901   2.761   3.446  1.8496 -0.0036 -0.7116
  808MOL0     H 9033   7.844   2.590   3.435  1.3713 -1.6085  1.1085
  808MOL0     H 9034   8.002   2.522   3.311  2.0307 -0.6680 -0.6083
  808MOL0     H 9035   8.045   2.674   3.230  0.2080 -1.1749 -0.7181
  808MOL0     H 9036   8.099   2.623   3.526  0.6797 -0.6624 -0.1867
  808MOL0     H 9037   8.179   2.752   3.432 -1.3482  0.8081 -1.8530
  808MOL0     H 9038   8.352   2.619   3.426 -2.1285  0.9615  1.6534
  808MOL0     H 9039   8.276   2.576   3.268 -0.7396  2.8239 -0.2382
  808MOL0     H 9040   8.208   2.187   3.464 -0.1177  0.0947  0.9998
  808MOL0     H 9041   8.362   1.996   3.413 -0.2771  0.1252 -2.9937
  808MOL0     H 9042   8.730   1.804   3.461  1.0913  0.6131  0.2461
  808MOL0     H 9043   8.893   1.642   3.450  0.5595 -0.5629 -1.1990
  808MOL0     H 9044   9.156   1.664   3.097  2.2632 -0.1643 -1.1697
  808MOL0     H 9045   9.285   1.687   3.219  1.8205 -0.2466 -0.9485
  808MOL0     H 9046   9.306   1.480   3.082  2.4001  2.2382  0.4434
  808MOL0     H 9047   9.323   1.465   3.252  0.8377 -0.0467 -1.6014
  808MOL0     H 9048   9.106   1.386   3.291 -0.7034  1.8049 -0.3405
  808MOL0     H 9049   9.054   1.393   3.132 -0.2675 -1.8379 -0.2350
  808MOL0     H 9050   9.117   1.189   3.256  1.7764  1.1077  1.7176
  808MOL0     H 9051   9.281   1.209   3.237 -0.3625  0.4148  0.4357
  808MOL0     H 9052   9.229   1.185   2.965  1.0725  0.4325  1.3453
  808MOL0     H 9053   9.063   1.161   3.024 -0.3652  0.6831  1.3886
  808MOL0     H 9054   9.290   0.966   3.105 -0.7661 -2.3488  1.8943
  808MOL0     H 9055   9.137   0.983   3.179 -0.6967  1.3467  0.0466
  808MOL0     H 9056   9.036   0.932   2.961 -0.5525  0.5139  2.7377
  808MOL0     H 9057   9.163   0.814   3.012 -1.5638  0.0819 -0.7704
  808MOL0     H 9058   9.331   0.927   2.849  0.4232  0.8838  0.6305
  808MOL0     H 9059   9.188   0.841   2.771  0.6317 -0.7261 -0.2074
  808MOL0     H 9060   9.146   1.880   3.192 -2.1590  0.6532 -3.1308
  808MOL0     H 9061   8.990   2.071   3.240  1.1251 -0.3979  1.9392
  808MOL0     H 9062   8.665   2.286   3.311 -1.6777  0.9367 -2.2191
  808MOL0     H 9063   8.518   2.469   3.353 -1.4914  0.0065  0.3106
  808MOL0     H 9064   6.962   3.290   3.377 -0.4370  1.8202 -1.7589
  808MOL0     H 9065   6.886   3.505   3.328 -0.0081  0.0055 -0.7657
  808MOL0     H 9066   6.728   3.882   3.543 -0.5491 -0.9044  0.3001
  808MOL0     H 9067   6.612   4.082   3.614 -0.6167  0.7136 -1.4178
  808MOL0     H 9068   6.597   4.494   3.507  0.9443  1.9964 -1.7532
  808MOL0     H 9069   6.763   4.455   3.444 -0.0498  0.5975  0.0494
  808MOL0     H 9070   6.718   4.474   3.734 -2.2905 -1.3980 -0.7874
  808MOL0     H 9071   6.728   4.632   3.645 -2.1832 -0.8009  1.8788
  808MOL0     H 9072   6.971   4.569   3.554  0.5650 -3.1296 -0.9735
  808MOL0     H 9073   6.959   4.430   3.665 -0.5628  0.3140 -1.2314
  808MOL0     H 9074   7.095   4.618   3.771 -0.5552 -0.5866  0.4068
  808MOL0     H 9075   6.939   4.708   3.771 -0.5643 -0.7104  0.2732
  808MOL0     H 9076   6.901   4.395   4.060 -0.6189  0.7344 -0.3489
  808MOL0     H 9077   6.935   4.326   3.464  0.6073  0.1055  0.4562
  808MOL0     H 9078   7.170   4.139   3.498 -0.5883 -1.7193  0.1576
  808MOL0     H 9079   7.139   4.059   3.335  1.6800  0.7108  0.1378
  808MOL0     H 9080   7.120   4.221   3.345  4.3419  0.3429 -0.9160
  809MOL0     O 9081   7.291  11.412   6.981  0.1016  0.1320 -0.2852
  809MOL0     C 9082   7.295  11.395   6.862 -0.2573  0.1562  0.9186
  809MOL0     O 9083   7.394  11.337   6.795 -0.6049  0.0829 -0.2702
  809MOL0     C 9084   7.522  11.340   6.848 -0.9001 -0.5057 -1.4614
  809MOL0     C 9085   7.615  11.253   6.789  0.0325 -0.5675 -0.3463
  809MOL0     C 9086   7.752  11.267   6.812  0.0724  0.7799 -0.4163
  809MOL0     C 9087   7.798  11.367   6.891  0.1646  0.5964  0.1713
  809MOL0     O 9088   7.934  11.382   6.891  0.6463  0.1195  0.5320
  809MOL0     C 9089   8.003  11.474   6.980  0.2466  0.2024 -1.2499
  809MOL0     C 9090   8.157  11.447   6.957  0.1566 -0.0492 -0.2490
  809MOL0     C 9091   8.209  11.446   6.809  0.5882  0.5238  0.1936
  809MOL0     C 9092   8.160  11.572   6.734 -0.0623  0.4557 -0.4775
  809MOL0     C 9093   8.207  11.583   6.595 -0.7548 -0.2810 -0.0898
  809MOL0     C 9094   8.351  11.611   6.576 -0.2617 -1.7877  0.3859
  809MOL0     C 9095   8.377  11.754   6.536 -0.2744 -0.9182 -1.0396
  809MOL0     C 9096   8.409  11.839   6.666 -1.1179  0.1816 -0.5408
  809MOL0     N 9097   8.526  11.802   6.739  0.0992  0.5623  0.1184
  809MOL0     C 9098   8.656  11.835   6.698 -0.0231 -0.1083 -1.1259
  809MOL0     C 9099   8.735  11.768   6.785  0.3087 -0.6008 -1.0871
  809MOL0     C 9100   8.889  11.767   6.778 -0.3194  0.3663  0.9501
  809MOL0     C 9101   8.928  11.677   6.653 -0.0218  0.0608 -0.8088
  809MOL0     C 9102   8.940  11.525   6.691  0.4595  0.2024  0.1855
  809MOL0     C 9103   8.803  11.444   6.714 -0.2318 -0.2545 -0.1809
  809MOL0     O 9104   8.817  11.343   6.809  0.7823  0.5098  0.0810
  809MOL0     C 9105   8.720  11.333   6.907  0.2378  0.3485 -0.8051
  809MOL0     C 9106   8.601  11.270   6.885 -0.9889 -0.5129 -0.3907
  809MOL0     C 9107   8.507  11.258   6.982  0.2823  0.1913 -0.0377
  809MOL0     C 9108   8.524  11.296   7.111 -0.7748  0.4266  0.3020
  809MOL0     C 9109   8.409  11.295   7.213 -0.1532 -0.2195 -0.2082
  809MOL0     O 9110   8.433  11.372   7.320  0.1988 -0.7733 -0.7667
  809MOL0     C 9111   8.327  11.408   7.396  0.0192 -0.0705  0.3942
  809MOL0     C 9112   8.355  11.417   7.534  0.7152 -0.1809 -0.8151
  809MOL0     C 9113   8.261  11.472   7.616 -0.0755 -0.4282 -0.3287
  809MOL0     C 9114   8.135  11.509   7.567  0.3355 -0.7534  0.2231
  809MOL0     O 9115   8.035  11.568   7.642 -0.2884 -0.4615 -0.2983
  809MOL0     C 9116   8.066  11.699   7.697  0.8827  0.7082 -0.1638
  809MOL0     C 9117   7.999  11.810   7.619  1.0133 -0.0861 -0.0630
  809MOL0     C 9118   8.087  11.851   7.504 -0.1623 -0.3616  0.1430
  809MOL0     C 9119   8.106  11.999   7.476  0.1413  0.4740 -0.0628
  809MOL0     C 9120   7.985  12.076   7.418  0.5567  0.1388 -0.4613
  809MOL0     C 9121   8.000  12.223   7.370 -0.3211  0.0548  0.0111
  809MOL0     C 9122   7.879  12.255   7.276 -0.9669 -0.3812  0.0975
  809MOL0     C 9123   7.912  12.394   7.228 -0.5440 -0.2745  0.3424
  809MOL0    Cl 9124   7.786  12.445   7.113 -0.0227  0.1740  0.0839
  809MOL0     C 9125   8.105  11.486   7.440  0.2101  0.6825 -0.1280
  809MOL0     C 9126   8.195  11.445   7.349 -0.7531  0.0640  0.3501
  809MOL0     O 9127   8.314  11.229   7.192 -0.1148  0.2871 -0.1108
  809MOL0     C 9128   8.642  11.377   7.131  0.5572 -0.0727 -0.2314
  809MOL0     C 9129   8.733  11.401   7.033  0.6623 -0.3525  0.4383
  809MOL0     N 9130   8.656  11.697   6.872  0.5657 -0.0133 -0.0349
  809MOL0     N 9131   8.528  11.704   6.839 -0.3404 -1.0906 -0.1076
  809MOL0     C 9132   7.713  11.445   6.964  0.4167  0.6604 -0.0550
  809MOL0     C 9133   7.574  11.434   6.945 -0.6618 -0.1907 -0.0891
  809MOL0     C 9134   7.170  11.436   6.790  0.3610  0.9799 -0.4279
  809MOL0     C 9135   7.129  11.354   6.680  0.1370 -0.4246 -0.0219
  809MOL0     C 9136   7.042  11.398   6.582  0.2218 -0.1081  0.2941
  809MOL0     C 9137   6.981  11.523   6.608 -0.8075  0.2201  0.5561
  809MOL0     O 9138   6.898  11.573   6.504  0.8573 -0.1365 -0.0788
  809MOL0     C 9139   6.855  11.716   6.499 -0.2338 -0.4476 -0.4474
  809MOL0     C 9140   6.719  11.735   6.570 -0.1578 -0.1383 -0.6923
  809MOL0     C 9141   6.658  11.870   6.554 -0.7149 -0.3051  0.1718
  809MOL0     C 9142   6.593  11.896   6.416 -0.8644 -1.3097  0.4715
  809MOL0     C 9143   6.551  12.040   6.412 -0.5319  0.8343  0.0554
  809MOL0     C 9144   6.504  12.151   6.416 -0.5084 -0.3435  0.3287
  809MOL0     C 9145   7.022  11.603   6.717 -0.0376  0.6858  0.5077
  809MOL0     C 9146   7.109  11.560   6.819  0.1491 -0.5248  0.1713
  809MOL0     C 9147   7.133  11.653   6.934  0.5565 -0.0123  0.0874
  809MOL0     H 9148   7.585  11.187   6.708  1.4911  0.3474 -1.6976
  809MOL0     H 9149   7.822  11.198   6.766 -2.1756 -0.3794 -2.3511
  809MOL0     H 9150   7.992  11.581   6.959  1.1005  0.5333 -0.0888
  809MOL0     H 9151   7.981  11.467   7.087 -0.4779  2.1760 -1.2382
  809MOL0     H 9152   8.181  11.349   6.999  1.3230  0.0146 -0.7234
  809MOL0     H 9153   8.219  11.514   7.019 -1.0950 -0.7801  1.9045
  809MOL0     H 9154   8.175  11.353   6.763 -0.8899 -1.9752  5.5670
  809MOL0     H 9155   8.318  11.437   6.806  0.7388  1.6372 -3.8470
  809MOL0     H 9156   8.051  11.579   6.734 -0.0486  0.6693 -0.4997
  809MOL0     H 9157   8.205  11.657   6.787 -1.1048  1.5267 -1.2546
  809MOL0     H 9158   8.182  11.484   6.555  0.9015 -0.1527 -1.5359
  809MOL0     H 9159   8.144  11.658   6.547 -1.3649 -0.2761  0.6935
  809MOL0     H 9160   8.402  11.572   6.665  0.4971 -2.3023 -0.2570
  809MOL0     H 9161   8.395  11.549   6.496 -0.9610 -1.7063 -0.0665
  809MOL0     H 9162   8.288  11.802   6.494 -0.9170 -1.1587  0.0138
  809MOL0     H 9163   8.462  11.765   6.467 -0.1745  0.5158 -0.7117
  809MOL0     H 9164   8.412  11.946   6.646  2.6210 -0.0107 -1.7674
  809MOL0     H 9165   8.326  11.828   6.737 -2.5929  0.7928 -2.1144
  809MOL0     H 9166   8.689  11.914   6.632  0.0172  1.7373  0.9882
  809MOL0     H 9167   8.927  11.867   6.758 -2.4580  0.7622 -1.7562
  809MOL0     H 9168   8.920  11.718   6.871 -1.1642  0.3365  1.2271
  809MOL0     H 9169   8.855  11.686   6.572  0.9271  0.1918 -1.6581
  809MOL0     H 9170   9.024  11.713   6.614  0.9970 -0.6848  0.8896
  809MOL0     H 9171   9.005  11.519   6.779 -1.6454  2.0004  1.9799
  809MOL0     H 9172   9.004  11.475   6.617  1.0203  0.9794  0.1427
  809MOL0     H 9173   8.772  11.405   6.617  0.0875 -1.8989  0.3353
  809MOL0     H 9174   8.723  11.515   6.738 -0.4689  0.0355 -1.7475
  809MOL0     H 9175   8.572  11.232   6.787 -2.2546 -0.4054 -0.0776
  809MOL0     H 9176   8.422  11.193   6.966 -0.2916  1.3042 -1.8160
  809MOL0     H 9177   8.451  11.396   7.580  1.6813 -1.2360 -3.1233
  809MOL0     H 9178   8.286  11.479   7.722  1.9761  2.1881 -0.8734
  809MOL0     H 9179   8.037  11.696   7.803  0.5621  0.0325 -0.2683
  809MOL0     H 9180   8.173  11.720   7.703  1.1737 -0.6168 -0.5130
  809MOL0     H 9181   7.904  11.772   7.580  0.9796 -2.1916  1.8932
  809MOL0     H 9182   7.978  11.892   7.688 -0.7250 -1.2907  0.9393
  809MOL0     H 9183   8.188  11.811   7.515 -0.4352 -1.7355 -1.8273
  809MOL0     H 9184   8.057  11.797   7.414  0.5644 -0.3549 -0.1021
  809MOL0     H 9185   8.201  11.999   7.421  1.7694 -0.9128  2.5380
  809MOL0     H 9186   8.123  12.046   7.574 -3.5080  3.7978 -0.7800
  809MOL0     H 9187   7.920  12.082   7.506  2.7394 -1.3180  1.3563
  809MOL0     H 9188   7.922  12.025   7.344 -2.6850  1.9682  0.8305
  809MOL0     H 9189   7.994  12.296   7.450 -0.3041 -1.3281  1.3266
  809MOL0     H 9190   8.100  12.249   7.334 -0.9555  0.8525 -1.2327
  809MOL0     H 9191   7.787  12.255   7.334 -1.1319 -1.3413 -0.1423
  809MOL0     H 9192   7.870  12.187   7.190 -1.3606  2.2964 -2.1170
  809MOL0     H 9193   7.912  12.462   7.313 -0.8880  1.0182 -0.6494
  809MOL0     H 9194   8.012  12.399   7.183 -1.4637 -1.6912 -2.0443
  809MOL0     H 9195   8.005  11.520   7.415  0.6267  2.6008  0.6228
  809MOL0     H 9196   8.159  11.444   7.247 -2.2403  0.2708  0.8492
  809MOL0     H 9197   8.663  11.406   7.233  1.0996  2.2839 -0.9469
  809MOL0     H 9198   8.819  11.461   7.062  0.6480 -0.4478  0.6766
  809MOL0     H 9199   7.757  11.523   7.026  0.6837  0.0148  0.5706
  809MOL0     H 9200   7.512  11.513   6.986  1.8472  1.5992  0.4627
  809MOL0     H 9201   7.181  11.259   6.681 -0.5689 -0.8370 -0.8843
  809MOL0     H 9202   7.019  11.341   6.492  1.2507  1.1408 -0.8140
  809MOL0     H 9203   6.852  11.745   6.393 -0.1698 -0.8471 -0.5600
  809MOL0     H 9204   6.927  11.783   6.547 -1.7478  1.8976 -1.2663
  809MOL0     H 9205   6.744  11.722   6.675  1.0178 -1.9479 -1.1516
  809MOL0     H 9206   6.641  11.664   6.541 -2.7354  2.0140  0.5773
  809MOL0     H 9207   6.735  11.945   6.572 -0.8052  0.7719 -3.2762
  809MOL0     H 9208   6.577  11.873   6.629 -2.5666 -0.8819 -1.7087
  809MOL0     H 9209   6.655  11.871   6.330  0.0285  1.0235  0.3514
  809MOL0     H 9210   6.500  11.840   6.402 -2.2160  0.7376  0.7636
  809MOL0     H 9211   6.461  12.249   6.411 -0.4373 -0.3371 -4.1282
  809MOL0     H 9212   6.974  11.699   6.733 -2.4576 -0.7146  2.4039
  809MOL0     H 9213   7.135  11.591   7.024  0.8578 -3.3316 -2.0335
  809MOL0     H 9214   7.231  11.698   6.916  0.6347 -0.6575 -1.2802
  809MOL0     H 9215   7.062  11.735   6.947  2.4493  1.8107 -0.4807
  810MOL0     O 9216   5.340   0.691   8.249 -0.3620 -0.0514 -0.5871
  810MOL0     C 9217   5.375   0.786   8.319  0.0096  0.3822 -0.0595
  810MOL0     O 9218   5.436   0.777   8.440  0.4125 -0.3131 -0.5353
  810MOL0     C 9219   5.426   0.664   8.517 -0.2244  0.4180 -0.1503
  810MOL0     C 9220   5.540   0.584   8.539  0.9555  0.3160 -1.7720
  810MOL0     C 9221   5.521   0.462   8.613 -0.3056 -0.2188 -0.0995
  810MOL0     C 9222   5.399   0.423   8.666  0.2221 -0.6332  0.1652
  810MOL0     O 9223   5.387   0.304   8.735  0.1724  0.0668 -0.1822
  810MOL0     C 9224   5.506   0.248   8.798 -0.0064  0.0084  0.0563
  810MOL0     C 9225   5.482   0.145   8.920  0.4173  0.8705  0.2528
  810MOL0     C 9226   5.601   0.080   8.997 -0.3524 -0.3458 -0.0290
  810MOL0     C 9227   5.720   0.178   9.007 -0.4024  0.9524  0.2657
  810MOL0     C 9228   5.843   0.099   9.043  0.4424  0.1883 -0.1082
  810MOL0     C 9229   5.967   0.193   9.062 -0.1712  0.5387  0.1672
  810MOL0     C 9230   6.091   0.121   9.123 -0.3299  0.6638  0.0975
  810MOL0     C 9231   6.200   0.232   9.147  0.4161 -0.5241  0.1771
  810MOL0     N 9232   6.291   0.252   9.032  0.9806  0.7427 -0.0256
  810MOL0     C 9233   6.420   0.205   9.039 -0.1958  0.3195 -0.4765
  810MOL0     C 9234   6.475   0.263   8.935  0.3188  0.3504  0.3584
  810MOL0     C 9235   6.626   0.253   8.905 -0.5394  0.0467  0.0230
  810MOL0     C 9236   6.688   0.118   8.934 -0.1063  0.2354  0.1044
  810MOL0     C 9237   6.821   0.083   8.855 -0.4336  0.6115 -0.3692
  810MOL0     C 9238   6.837  -0.068   8.860 -0.1003 -0.0657 -0.1126
  810MOL0     O 9239   6.846  -0.117   8.995 -0.6258  0.2847  0.3471
  810MOL0     C 9240   6.932  -0.225   9.013  0.3352  0.1430  0.3292
  810MOL0     C 9241   6.981  -0.320   8.919  1.4030  0.5542  0.2876
  810MOL0     C 9242   7.057  -0.433   8.965 -0.2850 -0.1308 -0.3793
  810MOL0     C 9243   7.097  -0.452   9.103 -0.1474 -1.1271  0.1503
  810MOL0     C 9244   7.163  -0.564   9.157  0.4987  0.7445  0.6577
  810MOL0     O 9245   7.231  -0.542   9.273  0.2659  0.7619 -0.3054
  810MOL0     C 9246   7.332  -0.627   9.310  0.0039  0.5331 -0.4312
  810MOL0     C 9247   7.455  -0.576   9.334 -0.0351 -0.3303  0.7569
  810MOL0     C 9248   7.576  -0.647   9.364 -0.6089 -0.7739  0.3595
  810MOL0     C 9249   7.569  -0.786   9.374  0.5437 -0.1275  0.6156
  810MOL0     O 9250   7.683  -0.859   9.406  0.2991  0.0319  0.0561
  810MOL0     C 9251   7.810  -0.821   9.342  0.8272 -0.8898  0.1320
  810MOL0     C 9252   7.893  -0.948   9.296 -0.4030  0.0034  0.0570
  810MOL0     C 9253   7.823  -1.045   9.209  0.3484  0.4943  0.1946
  810MOL0     C 9254   7.840  -1.198   9.246 -0.7954 -0.4460 -0.2043
  810MOL0     C 9255   7.774  -1.303   9.154 -0.2957 -0.7417 -0.2941
  810MOL0     C 9256   7.811  -1.443   9.194  0.6761  0.7573  0.9637
  810MOL0     C 9257   7.767  -1.557   9.099  0.1863 -0.1281 -0.3872
  810MOL0     C 9258   7.737  -1.687   9.176  0.7128 -1.3619  0.1541
  810MOL0    Cl 9259   7.729  -1.821   9.056 -0.1198  0.3565 -0.3116
  810MOL0     C 9260   7.443  -0.844   9.342 -0.0777  0.6902  0.1674
  810MOL0     C 9261   7.329  -0.772   9.310 -0.4316  0.5651  0.4263
  810MOL0     O 9262   7.146  -0.671   9.104 -0.6053  0.3118  0.1357
  810MOL0     C 9263   7.060  -0.348   9.189  0.6521  0.8918 -0.3464
  810MOL0     C 9264   6.974  -0.243   9.143  0.0688  0.0503  0.0932
  810MOL0     N 9265   6.388   0.353   8.880 -0.3318  0.7891 -0.3521
  810MOL0     N 9266   6.277   0.345   8.932  0.6562  1.1078 -0.5632
  810MOL0     C 9267   5.284   0.496   8.619 -0.1848  0.5651  0.2706
  810MOL0     C 9268   5.299   0.626   8.561  0.0077 -0.3524  1.2705
  810MOL0     C 9269   5.333   0.921   8.267 -0.0273  0.1766  0.9528
  810MOL0     C 9270   5.342   1.035   8.349  0.1165  0.4236 -0.0488
  810MOL0     C 9271   5.315   1.165   8.317  0.3444  0.7888  0.0871
  810MOL0     C 9272   5.265   1.179   8.178 -0.6562 -0.8155  0.0428
  810MOL0     O 9273   5.241   1.301   8.118  0.0844 -0.8156  0.3272
  810MOL0     C 9274   5.292   1.419   8.187  0.2613  0.5160  0.4802
  810MOL0     C 9275   5.196   1.535   8.166  0.9494 -0.3065  0.4364
  810MOL0     C 9276   5.046   1.500   8.173 -0.3482  0.2577  0.4950
  810MOL0     C 9277   4.961   1.626   8.166  0.8487 -1.1949 -0.1016
  810MOL0     C 9278   4.945   1.679   8.297  0.9346  0.2654  0.1121
  810MOL0     C 9279   4.944   1.711   8.417  0.7801 -0.7804  0.1259
  810MOL0     C 9280   5.257   1.069   8.093  0.5660 -0.0620  0.3195
  810MOL0     C 9281   5.300   0.940   8.134  0.3403  0.3713  0.8781
  810MOL0     C 9282   5.306   0.828   8.019 -0.1358  0.1344  0.0899
  810MOL0     H 9283   5.639   0.622   8.513  1.9040 -0.2944  0.6503
  810MOL0     H 9284   5.611   0.403   8.626 -0.3592 -0.0096  1.3212
  810MOL0     H 9285   5.559   0.187   8.724 -3.3369 -2.8822 -0.1664
  810MOL0     H 9286   5.570   0.332   8.828 -2.4708  2.3128 -0.7060
  810MOL0     H 9287   5.423   0.061   8.881  2.3994 -1.0253  1.1257
  810MOL0     H 9288   5.423   0.193   8.998 -0.4073  0.1136  0.1200
  810MOL0     H 9289   5.642  -0.003   8.939 -1.4213 -1.5672  0.8921
  810MOL0     H 9290   5.568   0.039   9.093 -0.4449  0.2435  0.1941
  810MOL0     H 9291   5.726   0.229   8.910  1.6501  3.1386  1.4136
  810MOL0     H 9292   5.703   0.253   9.085  0.2361  1.3185  0.0599
  810MOL0     H 9293   5.817   0.032   9.125  2.9879 -2.2302 -1.0981
  810MOL0     H 9294   5.858   0.019   8.970 -4.4220 -2.2432  1.1340
  810MOL0     H 9295   5.990   0.241   8.967  2.9934 -0.5833  0.2460
  810MOL0     H 9296   5.937   0.273   9.131 -3.1064 -0.3107 -0.0065
  810MOL0     H 9297   6.134   0.032   9.075 -0.7646  0.7431 -0.4527
  810MOL0     H 9298   6.048   0.092   9.219 -1.9140 -1.8542 -1.2724
  810MOL0     H 9299   6.151   0.324   9.180  0.8250  0.4660 -1.8060
  810MOL0     H 9300   6.255   0.193   9.234 -0.4540  0.0351  0.9966
  810MOL0     H 9301   6.479   0.136   9.099  1.8880 -0.9375 -3.7501
  810MOL0     H 9302   6.638   0.276   8.799  1.8585 -1.9179 -0.2244
  810MOL0     H 9303   6.677   0.332   8.961 -3.7366  0.1918  3.0353
  810MOL0     H 9304   6.728   0.118   9.036  1.1322 -1.3721 -0.3354
  810MOL0     H 9305   6.612   0.042   8.913 -1.4949  2.1398 -2.2196
  810MOL0     H 9306   6.910   0.130   8.898 -1.3675  1.2438  0.9390
  810MOL0     H 9307   6.813   0.114   8.751 -1.6087  0.7690 -0.2368
  810MOL0     H 9308   6.928  -0.082   8.801  2.5523  1.4325  3.2592
  810MOL0     H 9309   6.751  -0.114   8.809 -0.7365  2.1263 -1.1064
  810MOL0     H 9310   6.953  -0.308   8.815 -1.9549  1.0047  1.1346
  810MOL0     H 9311   7.093  -0.510   8.897 -0.6988 -0.4704 -0.2199
  810MOL0     H 9312   7.460  -0.468   9.325  0.1178 -0.3708  0.2993
  810MOL0     H 9313   7.676  -0.608   9.381 -0.9716  0.8504 -1.0216
  810MOL0     H 9314   7.797  -0.760   9.252  0.1645 -1.7494 -0.3784
  810MOL0     H 9315   7.870  -0.762   9.411 -0.2287  4.0278 -2.7082
  810MOL0     H 9316   7.989  -0.912   9.259 -0.2383 -1.3183 -0.8542
  810MOL0     H 9317   7.907  -1.000   9.391  0.7509 -1.0336 -0.6610
  810MOL0     H 9318   7.715  -1.023   9.207  0.1294 -0.5827 -1.0045
  810MOL0     H 9319   7.870  -1.035   9.111  0.2193  0.4808  0.1313
  810MOL0     H 9320   7.796  -1.228   9.341 -1.9457  2.9686  0.4699
  810MOL0     H 9321   7.944  -1.232   9.255 -0.5926  0.5072  1.5054
  810MOL0     H 9322   7.797  -1.273   9.052  1.0142  0.0125  0.1970
  810MOL0     H 9323   7.667  -1.296   9.178 -0.3229  0.7048 -0.7921
  810MOL0     H 9324   7.919  -1.444   9.214  0.4910 -0.2293  2.0272
  810MOL0     H 9325   7.762  -1.460   9.290  0.6401 -0.4678  0.7405
  810MOL0     H 9326   7.845  -1.574   9.025 -1.5337 -0.1861 -2.2598
  810MOL0     H 9327   7.686  -1.527   9.033 -1.0016  4.4532  2.6429
  810MOL0     H 9328   7.822  -1.708   9.241  2.3563 -0.7861 -1.7173
  810MOL0     H 9329   7.645  -1.666   9.232  1.5113  1.6363  0.5107
  810MOL0     H 9330   7.430  -0.952   9.336 -0.3470  0.4616  3.1565
  810MOL0     H 9331   7.240  -0.829   9.286  0.1996 -0.7813  1.1914
  810MOL0     H 9332   7.089  -0.358   9.293 -0.7710 -3.3774 -0.1676
  810MOL0     H 9333   6.933  -0.181   9.222 -0.2628 -0.0478 -0.0022
  810MOL0     H 9334   5.186   0.451   8.629 -0.0846 -0.6387 -3.0622
  810MOL0     H 9335   5.212   0.688   8.540  0.4860  0.4410  1.6186
  810MOL0     H 9336   5.366   1.019   8.454 -0.8825  0.7142  0.2348
  810MOL0     H 9337   5.322   1.242   8.394 -0.5271  1.7559 -0.7719
  810MOL0     H 9338   5.388   1.438   8.139 -0.2429  0.2652 -0.6551
  810MOL0     H 9339   5.304   1.415   8.296 -1.5599 -0.2292  0.6914
  810MOL0     H 9340   5.198   1.571   8.063 -0.2427  0.6137  0.7046
  810MOL0     H 9341   5.229   1.623   8.222 -0.7191 -0.9354  2.5938
  810MOL0     H 9342   5.021   1.443   8.263  0.8065  0.1671  0.7779
  810MOL0     H 9343   5.024   1.439   8.085  0.4885  1.8800 -0.9088
  810MOL0     H 9344   5.010   1.699   8.101 -1.0858 -1.2151 -1.6909
  810MOL0     H 9345   4.867   1.607   8.111  0.4756  3.7930 -1.6808
  810MOL0     H 9346   4.942   1.748   8.518 -0.7718 -0.7171  0.0973
  810MOL0     H 9347   5.221   1.082   7.991 -0.2856  1.0058  0.7298
  810MOL0     H 9348   5.385   0.752   8.028  0.8672  1.0253 -1.0034
  810MOL0     H 9349   5.208   0.782   7.999 -0.5489  0.1482  1.8833
  810MOL0     H 9350   5.342   0.875   7.928 -1.7118  2.8085  0.7400
  811MOL0     O 9351   2.208   9.600   8.610  0.1032 -0.3936  0.0903
  811MOL0     C 9352   2.308   9.641   8.669  0.2975  0.0877 -0.7038
  811MOL0     O 9353   2.308   9.665   8.810  0.3474  0.0547  0.2110
  811MOL0     C 9354   2.216   9.617   8.886 -0.0432 -0.0221 -0.3793
  811MOL0     C 9355   2.228   9.497   8.953 -0.2248  0.1266 -0.4735
  811MOL0     C 9356   2.122   9.434   9.024 -0.5288  0.1055 -1.0601
  811MOL0     C 9357   1.999   9.490   9.031  0.2894  0.0350  0.1720
  811MOL0     O 9358   1.892   9.428   9.096 -0.4031  0.3949 -0.5127
  811MOL0     C 9359   1.754   9.428   9.044  0.2849  1.0144 -0.1514
  811MOL0     C 9360   1.664   9.319   9.091  1.0559  0.7859  0.1985
  811MOL0     C 9361   1.529   9.305   9.006  0.3837 -0.0826  0.5372
  811MOL0     C 9362   1.431   9.416   9.010  0.2591  0.2723  0.5093
  811MOL0     C 9363   1.297   9.372   8.952  0.7074 -0.3080  0.3158
  811MOL0     C 9364   1.206   9.498   8.948  0.2546  0.7464  0.1862
  811MOL0     C 9365   1.081   9.474   8.866 -0.3424  0.6620 -0.7052
  811MOL0     C 9366   0.995   9.357   8.905 -0.7325 -0.2248 -0.5750
  811MOL0     N 9367   0.866   9.336   8.831 -0.5340 -0.4536  0.1309
  811MOL0     C 9368   0.742   9.314   8.881  0.1944  0.1720 -1.1643
  811MOL0     C 9369   0.655   9.325   8.768 -0.6098 -1.8971 -0.1257
  811MOL0     C 9370   0.510   9.324   8.753 -0.0268 -0.9920 -1.0104
  811MOL0     C 9371   0.459   9.191   8.712 -0.0529 -0.5397 -0.3333
  811MOL0     C 9372   0.486   9.090   8.825 -0.1483 -0.6650 -0.1084
  811MOL0     C 9373   0.413   8.958   8.785  0.5576  0.8779  0.5829
  811MOL0     O 9374   0.266   8.949   8.758 -0.6451  0.1809 -0.0950
  811MOL0     C 9375   0.177   8.956   8.865  1.1508 -0.6776 -0.1461
  811MOL0     C 9376   0.041   8.943   8.821 -0.2757  0.0987  0.0720
  811MOL0     C 9377  -0.068   8.961   8.914  0.0574 -0.1774 -0.5174
  811MOL0     C 9378  -0.036   8.976   9.051 -0.0730  0.3934 -0.9203
  811MOL0     C 9379  -0.149   8.997   9.155 -0.4613  0.4101 -0.0027
  811MOL0     O 9380  -0.128   9.071   9.270  0.0840  0.1767  0.8453
  811MOL0     C 9381  -0.230   9.105   9.353  0.6242 -0.0973 -0.0208
  811MOL0     C 9382  -0.198   9.121   9.490  0.5891  0.8110 -0.8345
  811MOL0     C 9383  -0.288   9.144   9.586 -0.2880  0.4021  0.6732
  811MOL0     C 9384  -0.413   9.189   9.549  1.3958  0.2408  0.5971
  811MOL0     O 9385  -0.509   9.240   9.629  0.0283  0.0825  0.1198
  811MOL0     C 9386  -0.504   9.196   9.767  0.8384  1.1967  0.7489
  811MOL0     C 9387  -0.614   9.283   9.832  0.0683 -0.5108 -0.0488
  811MOL0     C 9388  -0.645   9.224   9.969 -0.3304  0.1831 -0.0823
  811MOL0     C 9389  -0.770   9.288  10.024  0.3212 -0.8451  0.2998
  811MOL0     C 9390  -0.869   9.182  10.070 -1.3175  0.5912  0.5862
  811MOL0     C 9391  -1.016   9.234  10.087  0.5651  0.4481 -0.1000
  811MOL0     C 9392  -1.101   9.226   9.959  0.2431  0.4225  0.8081
  811MOL0     C 9393  -1.231   9.300   9.986  0.5437  0.7683  0.6692
  811MOL0    Cl 9394  -1.331   9.296   9.838  0.4847  0.1800  0.1573
  811MOL0     C 9395  -0.454   9.171   9.412  0.8335  0.7384  0.0178
  811MOL0     C 9396  -0.365   9.127   9.314 -0.0374 -0.3124  0.6779
  811MOL0     O 9397  -0.257   8.950   9.122  0.3176  0.5434  0.3058
  811MOL0     C 9398   0.102   8.981   9.093 -0.1880  0.1961  0.5930
  811MOL0     C 9399   0.202   8.979   9.000 -0.2648 -0.8968 -0.2705
  811MOL0     N 9400   0.731   9.364   8.666 -0.6879  0.7159 -0.9295
  811MOL0     N 9401   0.858   9.365   8.699 -0.0519 -0.3017  0.4290
  811MOL0     C 9402   1.979   9.611   8.961 -1.1167 -0.1115 -0.3663
  811MOL0     C 9403   2.090   9.679   8.895  1.3308 -0.4339  0.6988
  811MOL0     C 9404   2.423   9.674   8.594 -0.6147 -0.2777 -0.4624
  811MOL0     C 9405   2.546   9.641   8.662  0.3038  0.3325  0.8246
  811MOL0     C 9406   2.665   9.675   8.606 -0.3871  0.3772  0.8290
  811MOL0     C 9407   2.675   9.736   8.477  0.0841  1.0844  0.4508
  811MOL0     O 9408   2.794   9.762   8.418  0.3130  0.4478  0.4695
  811MOL0     C 9409   2.918   9.771   8.479 -0.9618  0.6817 -0.3707
  811MOL0     C 9410   3.001   9.649   8.438 -0.5417 -0.7816 -0.4934
  811MOL0     C 9411   3.147   9.679   8.445  0.5172  0.3054 -0.2923
  811MOL0     C 9412   3.198   9.695   8.593 -1.1974  0.3193 -0.4481
  811MOL0     C 9413   3.182   9.571   8.684  0.2467 -1.2690  0.5840
  811MOL0     C 9414   3.151   9.472   8.748 -0.5151 -0.0456 -0.4394
  811MOL0     C 9415   2.554   9.767   8.413  0.3506  0.3495  0.5123
  811MOL0     C 9416   2.430   9.741   8.472  0.0071  0.5680 -0.2580
  811MOL0     C 9417   2.309   9.794   8.397  0.1245  0.2199  0.1074
  811MOL0     H 9418   2.321   9.441   8.942  0.2929  1.1362 -1.3919
  811MOL0     H 9419   2.141   9.332   9.055 -0.8119 -1.4969 -5.4818
  811MOL0     H 9420   1.702   9.524   9.042 -0.1217  0.7850 -1.0565
  811MOL0     H 9421   1.773   9.411   8.938  0.7284 -0.5220  0.1582
  811MOL0     H 9422   1.635   9.348   9.192 -1.4282 -1.0634  0.1116
  811MOL0     H 9423   1.718   9.224   9.097 -0.1093  0.1257  0.5917
  811MOL0     H 9424   1.482   9.212   9.040 -1.1146  0.0657 -1.0573
  811MOL0     H 9425   1.557   9.293   8.901  1.6095  2.6376  0.4794
  811MOL0     H 9426   1.418   9.455   9.111  2.6301  2.1412  0.1821
  811MOL0     H 9427   1.460   9.497   8.942 -1.1700  0.0328 -0.4297
  811MOL0     H 9428   1.301   9.340   8.848  1.0706 -0.7725  0.4696
  811MOL0     H 9429   1.263   9.291   9.017 -0.3226  2.1506  3.0555
  811MOL0     H 9430   1.178   9.520   9.051 -0.5544 -1.2808  0.4400
  811MOL0     H 9431   1.263   9.578   8.898 -2.1558  0.8337 -2.7055
  811MOL0     H 9432   1.109   9.455   8.762  1.4872 -1.1357  0.0627
  811MOL0     H 9433   1.027   9.568   8.877 -3.2669 -0.9908  0.3129
  811MOL0     H 9434   1.064   9.272   8.899  0.2689  0.6303 -1.4609
  811MOL0     H 9435   0.969   9.366   9.011 -1.6648 -0.6302 -0.7590
  811MOL0     H 9436   0.707   9.295   8.982  0.2828  2.5826 -0.6115
  811MOL0     H 9437   0.455   9.353   8.844 -2.3738 -2.6831 -1.7919
  811MOL0     H 9438   0.476   9.401   8.683 -0.1993 -2.1058 -2.1931
  811MOL0     H 9439   0.354   9.211   8.687  0.8261  4.1597 -1.1569
  811MOL0     H 9440   0.511   9.158   8.622  2.4949  0.7438  0.5846
  811MOL0     H 9441   0.445   9.124   8.921  0.0704 -1.5273  0.3061
  811MOL0     H 9442   0.595   9.086   8.833  0.1681  3.6155 -0.0247
  811MOL0     H 9443   0.420   8.900   8.877 -0.8958 -2.4995 -1.2482
  811MOL0     H 9444   0.471   8.906   8.709 -2.1735 -1.6277  0.0517
  811MOL0     H 9445   0.027   8.929   8.714  0.6770  0.7442 -0.1503
  811MOL0     H 9446  -0.167   8.950   8.871  0.2829  0.7139 -1.2840
  811MOL0     H 9447  -0.103   9.079   9.520  0.1168 -1.3759 -2.1128
  811MOL0     H 9448  -0.260   9.151   9.691  1.4652  3.3941  0.1111
  811MOL0     H 9449  -0.522   9.088   9.773  2.6732  0.8053 -0.0598
  811MOL0     H 9450  -0.408   9.223   9.813  1.9171 -2.1523  0.7349
  811MOL0     H 9451  -0.590   9.389   9.839 -1.7885  0.1717 -2.5277
  811MOL0     H 9452  -0.703   9.278   9.769  0.0844 -0.0727 -0.1039
  811MOL0     H 9453  -0.653   9.115   9.960 -3.2422  0.3886 -0.6625
  811MOL0     H 9454  -0.560   9.241  10.035  1.3438 -3.0528 -1.1387
  811MOL0     H 9455  -0.824   9.343   9.946 -2.8824 -4.4416 -0.3783
  811MOL0     H 9456  -0.737   9.358  10.101 -0.2840 -0.7357  0.4661
  811MOL0     H 9457  -0.831   9.135  10.161 -0.2177  1.6050  0.6638
  811MOL0     H 9458  -0.873   9.104   9.993 -0.1677  1.3327 -0.2584
  811MOL0     H 9459  -1.068   9.167  10.156 -1.3144  0.5231 -1.3612
  811MOL0     H 9460  -1.009   9.336  10.124 -0.8113  0.2659  0.7243
  811MOL0     H 9461  -1.133   9.125   9.931  3.1202 -0.7032  1.1729
  811MOL0     H 9462  -1.045   9.266   9.874 -0.4500  1.6454  0.8998
  811MOL0     H 9463  -1.295   9.252  10.061 -0.0978 -2.0177 -1.5131
  811MOL0     H 9464  -1.216   9.404  10.016 -2.2050  1.1855  0.8369
  811MOL0     H 9465  -0.556   9.203   9.394  0.6289  1.8553  2.6288
  811MOL0     H 9466  -0.384   9.095   9.212  1.8589  1.3470 -0.2581
  811MOL0     H 9467   0.130   8.996   9.197  1.0172  4.3577 -0.1543
  811MOL0     H 9468   0.305   8.990   9.033 -1.1230  2.4494  1.7885
  811MOL0     H 9469   1.887   9.670   8.956 -0.1358  1.5465  0.2162
  811MOL0     H 9470   2.068   9.776   8.851 -0.1333 -1.2207 -0.4320
  811MOL0     H 9471   2.541   9.592   8.758 -2.9826  1.7646  1.5329
  811MOL0     H 9472   2.756   9.641   8.655  0.5611 -1.6297 -2.0578
  811MOL0     H 9473   2.916   9.783   8.587 -0.0450 -2.4027  0.1009
  811MOL0     H 9474   2.971   9.858   8.440  2.5601 -0.2771  1.8174
  811MOL0     H 9475   2.987   9.635   8.330  2.3786  2.8201 -1.5589
  811MOL0     H 9476   2.973   9.561   8.495 -0.4263 -0.2617  0.3768
  811MOL0     H 9477   3.174   9.763   8.380 -1.0295 -0.6741 -2.3037
  811MOL0     H 9478   3.190   9.596   8.389 -0.9678  0.2988 -1.5094
  811MOL0     H 9479   3.304   9.722   8.586 -0.8868 -0.1439  1.7090
  811MOL0     H 9480   3.157   9.783   8.643 -2.6189  0.1207 -1.2007
  811MOL0     H 9481   3.122   9.391   8.812 -0.5817  1.7215  1.9129
  811MOL0     H 9482   2.563   9.817   8.317 -0.4650 -1.8377 -0.7876
  811MOL0     H 9483   2.228   9.720   8.396 -1.4855  1.8668  1.7114
  811MOL0     H 9484   2.281   9.883   8.454  0.9614 -0.3434  1.4436
  811MOL0     H 9485   2.334   9.825   8.295  2.9747  2.1225  1.2602
  812MOL0     O 9486   9.217   5.043   4.695 -0.0315 -0.6947 -0.2130
  812MOL0     C 9487   9.229   5.166   4.674  1.2165  0.1344  0.3249
  812MOL0     O 9488   9.175   5.264   4.751 -0.4775 -1.1498 -0.9298
  812MOL0     C 9489   9.075   5.236   4.840  0.2161  0.0029  0.4628
  812MOL0     C 9490   9.072   5.304   4.959 -0.6757  0.4876  0.1991
  812MOL0     C 9491   8.970   5.287   5.051  0.4335  0.3816  0.1030
  812MOL0     C 9492   8.860   5.213   5.019 -0.1341  0.4844 -0.6241
  812MOL0     O 9493   8.756   5.216   5.108 -0.4649 -0.4576 -0.0034
  812MOL0     C 9494   8.646   5.129   5.100  0.1222  0.1998 -0.3101
  812MOL0     C 9495   8.599   5.120   5.257 -0.5771  0.8485 -0.3618
  812MOL0     C 9496   8.469   5.033   5.267 -0.9979  0.4052 -0.2026
  812MOL0     C 9497   8.443   4.971   5.408 -0.9649  0.5408  0.6919
  812MOL0     C 9498   8.337   4.876   5.397  0.3279  1.3192 -0.2307
  812MOL0     C 9499   8.229   4.889   5.514  0.2784 -0.3217 -0.1724
  812MOL0     C 9500   8.135   4.759   5.505  1.1013 -0.1524 -1.2662
  812MOL0     C 9501   8.043   4.728   5.384 -0.4306 -1.3206  0.4577
  812MOL0     N 9502   8.110   4.689   5.264 -0.0171 -0.6906 -0.3623
  812MOL0     C 9503   8.087   4.756   5.150  0.6373 -0.1876  0.5141
  812MOL0     C 9504   8.183   4.724   5.055 -0.3505  0.3585  0.3051
  812MOL0     C 9505   8.184   4.776   4.915  0.3001  0.1515 -0.7218
  812MOL0     C 9506   8.253   4.914   4.925  0.3347 -0.6652 -0.0428
  812MOL0     C 9507   8.241   4.994   4.786 -0.1165 -0.5980  0.4402
  812MOL0     C 9508   8.286   5.142   4.795 -0.3209 -0.7474  0.6364
  812MOL0     O 9509   8.422   5.152   4.826  0.3802  0.7091  0.0509
  812MOL0     C 9510   8.508   5.169   4.723 -0.1474 -0.3989 -0.4618
  812MOL0     C 9511   8.535   5.300   4.685  0.4383 -0.0243  0.1898
  812MOL0     C 9512   8.638   5.314   4.579  0.8412  0.0866 -0.6316
  812MOL0     C 9513   8.700   5.207   4.504  0.4528  1.3053  1.2583
  812MOL0     C 9514   8.791   5.230   4.390 -0.0617 -0.2064  0.4356
  812MOL0     O 9515   8.774   5.348   4.316  1.1176 -0.7064 -0.4248
  812MOL0     C 9516   8.875   5.402   4.239  0.5011  0.6151 -0.2215
  812MOL0     C 9517   9.016   5.399   4.264 -0.1910  0.2865  0.6253
  812MOL0     C 9518   9.114   5.446   4.168 -0.6787  0.0140 -0.3931
  812MOL0     C 9519   9.062   5.503   4.046 -0.7224  0.8538  0.6498
  812MOL0     O 9520   9.152   5.549   3.952 -0.5791  0.1250 -0.3790
  812MOL0     C 9521   9.202   5.472   3.842 -0.4087 -0.4660  0.4920
  812MOL0     C 9522   9.339   5.520   3.804 -1.4297 -0.5783 -0.2286
  812MOL0     C 9523   9.384   5.479   3.668  0.5352 -0.3496  0.0879
  812MOL0     C 9524   9.457   5.349   3.671  0.1282  0.2237  0.6759
  812MOL0     C 9525   9.490   5.315   3.534 -0.5326  0.0540  0.2940
  812MOL0     C 9526   9.576   5.192   3.523  0.1285 -0.3393 -0.6987
  812MOL0     C 9527   9.648   5.177   3.390 -0.4677 -0.5004 -0.5394
  812MOL0     C 9528   9.712   5.037   3.352 -0.7124 -0.5019  0.0968
  812MOL0    Cl 9529   9.577   4.935   3.283 -0.4464 -0.1473  0.5072
  812MOL0     C 9530   8.927   5.521   4.025  0.1802  0.2631 -0.2286
  812MOL0     C 9531   8.831   5.465   4.116 -0.1307  0.5463 -0.6218
  812MOL0     O 9532   8.880   5.149   4.371 -0.4879  0.7565 -0.1183
  812MOL0     C 9533   8.664   5.081   4.552  0.7381 -0.1884 -0.0088
  812MOL0     C 9534   8.569   5.066   4.665 -0.4600 -0.1000 -0.0147
  812MOL0     N 9535   8.281   4.647   5.118  0.4026 -0.6610  0.9379
  812MOL0     N 9536   8.234   4.630   5.238  0.3544  0.1322 -0.2130
  812MOL0     C 9537   8.863   5.139   4.899  0.8947  0.2488 -0.0675
  812MOL0     C 9538   8.973   5.155   4.813 -0.4148  0.3807 -0.3987
  812MOL0     C 9539   9.282   5.223   4.543 -1.6217  0.1643  0.4301
  812MOL0     C 9540   9.343   5.348   4.558 -0.3130  0.1258 -0.2923
  812MOL0     C 9541   9.416   5.422   4.468 -0.1418  1.0338  1.4517
  812MOL0     C 9542   9.433   5.353   4.343 -0.6157 -0.2680 -0.1948
  812MOL0     O 9543   9.503   5.437   4.254 -0.2381 -0.2284  0.3790
  812MOL0     C 9544   9.571   5.385   4.140 -0.4023 -0.2914 -0.7845
  812MOL0     C 9545   9.709   5.333   4.169 -1.2780 -0.0231 -0.7798
  812MOL0     C 9546   9.814   5.450   4.186 -0.4171 -1.0762  0.1637
  812MOL0     C 9547   9.963   5.409   4.218 -0.4594  0.5112 -1.0079
  812MOL0     C 9548   9.975   5.328   4.341 -0.1050  0.0008 -0.3669
  812MOL0     C 9549   9.972   5.273   4.452  0.1238  0.1721 -0.1856
  812MOL0     C 9550   9.393   5.218   4.323  0.6527  0.4369 -0.9697
  812MOL0     C 9551   9.310   5.158   4.421 -0.5792  0.6020  0.2011
  812MOL0     C 9552   9.253   5.020   4.396 -0.7206  0.1020 -0.1390
  812MOL0     H 9553   9.140   5.385   4.982 -1.3167  1.0009  0.3127
  812MOL0     H 9554   8.959   5.327   5.152 -2.2366 -0.9098  0.3945
  812MOL0     H 9555   8.569   5.168   5.033 -1.2242  1.3819  1.8138
  812MOL0     H 9556   8.675   5.030   5.063  1.1158  0.3966 -0.0910
  812MOL0     H 9557   8.597   5.221   5.299 -0.0106  1.6610 -2.1995
  812MOL0     H 9558   8.678   5.067   5.311 -0.6040 -0.7277 -1.7929
  812MOL0     H 9559   8.482   4.945   5.203  1.9142 -1.4500  2.5878
  812MOL0     H 9560   8.384   5.097   5.244  0.6890  2.1515 -1.9058
  812MOL0     H 9561   8.533   4.921   5.445 -0.5888  2.2533  2.2407
  812MOL0     H 9562   8.412   5.052   5.474 -0.1946  2.4031 -1.1038
  812MOL0     H 9563   8.283   4.885   5.302  0.8442 -1.9542 -0.9506
  812MOL0     H 9564   8.375   4.774   5.393  1.7828  1.8310 -3.8746
  812MOL0     H 9565   8.273   4.882   5.613 -1.0183 -0.2700  0.4273
  812MOL0     H 9566   8.167   4.978   5.503 -5.6609 -3.2020  4.3493
  812MOL0     H 9567   8.065   4.765   5.589  0.1428 -1.1831 -1.9585
  812MOL0     H 9568   8.205   4.678   5.527  1.5408 -0.1178 -2.4838
  812MOL0     H 9569   7.975   4.645   5.406 -0.1841 -1.6992 -0.1829
  812MOL0     H 9570   7.987   4.817   5.353  2.3461 -0.0210 -1.2494
  812MOL0     H 9571   8.003   4.820   5.124 -0.2013 -2.5777 -3.5995
  812MOL0     H 9572   8.245   4.713   4.850  1.3399 -3.7732  3.5010
  812MOL0     H 9573   8.082   4.787   4.878 -0.1861  0.7735  0.7308
  812MOL0     H 9574   8.210   4.973   5.006  0.1434 -1.5385  0.5029
  812MOL0     H 9575   8.359   4.899   4.949 -0.1476 -0.6184  2.3214
  812MOL0     H 9576   8.132   4.991   4.776 -0.0604 -1.1774 -0.0845
  812MOL0     H 9577   8.276   4.941   4.698 -0.0931  0.4657 -0.2014
  812MOL0     H 9578   8.223   5.199   4.863 -3.7964 -1.6656 -1.5700
  812MOL0     H 9579   8.271   5.182   4.694  3.0526 -3.6298 -1.2822
  812MOL0     H 9580   8.499   5.385   4.742  0.3417 -0.7145  1.1923
  812MOL0     H 9581   8.659   5.416   4.548  0.0215 -0.0729 -1.7748
  812MOL0     H 9582   9.048   5.353   4.358  1.7542  2.3865  1.1075
  812MOL0     H 9583   9.222   5.452   4.181 -0.8110 -0.6728  1.3786
  812MOL0     H 9584   9.216   5.365   3.864  1.9511 -0.1379  0.9061
  812MOL0     H 9585   9.140   5.483   3.753 -0.6467  0.7151  0.7878
  812MOL0     H 9586   9.329   5.629   3.801 -0.8880 -0.5348 -2.9232
  812MOL0     H 9587   9.407   5.499   3.887 -2.4748 -1.8446  0.3464
  812MOL0     H 9588   9.288   5.475   3.616 -0.5862  1.0493  1.9258
  812MOL0     H 9589   9.438   5.559   3.616  0.8734 -0.0285  0.9297
  812MOL0     H 9590   9.397   5.269   3.716  1.6230 -1.2494  0.1926
  812MOL0     H 9591   9.546   5.347   3.734 -0.0872  1.8176  1.0629
  812MOL0     H 9592   9.554   5.392   3.490  0.2548  0.2307  1.7039
  812MOL0     H 9593   9.398   5.306   3.474 -1.2460 -0.5213  1.4351
  812MOL0     H 9594   9.655   5.205   3.597 -0.6019  1.9962 -0.2288
  812MOL0     H 9595   9.511   5.106   3.543 -1.5633  0.7970 -1.0324
  812MOL0     H 9596   9.722   5.257   3.384 -2.0760  1.0165 -0.9399
  812MOL0     H 9597   9.572   5.191   3.313  1.6696  1.3776 -2.4765
  812MOL0     H 9598   9.790   5.062   3.279 -2.0138  2.3736 -0.4713
  812MOL0     H 9599   9.744   4.988   3.444 -2.3198 -1.4400  0.1801
  812MOL0     H 9600   8.899   5.567   3.931 -0.7426 -1.0164 -0.6208
  812MOL0     H 9601   8.729   5.484   4.086  0.1849  2.8933 -0.4671
  812MOL0     H 9602   8.699   4.987   4.512  0.8481 -1.5400  3.0134
  812MOL0     H 9603   8.538   4.966   4.695  0.9653 -0.0636  1.7701
  812MOL0     H 9604   8.766   5.096   4.874  0.6966  1.5319 -1.7485
  812MOL0     H 9605   8.970   5.103   4.718 -2.6631 -2.2048  0.9303
  812MOL0     H 9606   9.344   5.411   4.646 -2.3225  1.6270 -1.2539
  812MOL0     H 9607   9.462   5.519   4.486  2.6488 -0.4690  3.2326
  812MOL0     H 9608   9.589   5.461   4.063  3.3896 -0.3330 -0.1418
  812MOL0     H 9609   9.524   5.298   4.093 -0.5807 -1.4479  1.4050
  812MOL0     H 9610   9.728   5.271   4.080 -0.2198  2.7825 -2.6446
  812MOL0     H 9611   9.700   5.278   4.263  1.1633 -0.8283 -0.9190
  812MOL0     H 9612   9.780   5.529   4.254 -1.3005 -1.6869  0.4481
  812MOL0     H 9613   9.817   5.503   4.091  3.2929 -2.2206 -0.4896
  812MOL0     H 9614  10.007   5.348   4.139 -0.0145 -0.8889  0.2755
  812MOL0     H 9615  10.031   5.493   4.233 -0.2801  0.6443 -2.4486
  812MOL0     H 9616   9.952   5.265   4.557 -1.1744  0.9365 -0.3477
  812MOL0     H 9617   9.424   5.171   4.231  0.3118 -1.3561 -0.2044
  812MOL0     H 9618   9.146   5.034   4.417 -1.3683  0.2965 -3.0599
  812MOL0     H 9619   9.269   4.990   4.291  1.0124 -0.3667  0.2342
  812MOL0     H 9620   9.304   4.943   4.455 -0.8850  1.6343  2.0998
  813MOL0     O 9621   5.031   9.511  10.696 -0.0660  0.0979  0.1262
  813MOL0     C 9622   4.920   9.470  10.672 -0.5273  0.3089  0.2296
  813MOL0     O 9623   4.826   9.422  10.767 -0.4007  0.1967  0.3718
  813MOL0     C 9624   4.864   9.406  10.895 -1.6325 -0.0861  0.7446
  813MOL0     C 9625   4.970   9.331  10.946  0.5068 -0.3593  0.8870
  813MOL0     C 9626   4.991   9.328  11.083  1.0145  0.4686 -0.6711
  813MOL0     C 9627   4.914   9.410  11.177  0.8104 -0.0584  0.3020
  813MOL0     O 9628   4.954   9.413  11.306 -0.7054 -1.0034 -0.3386
  813MOL0     C 9629   4.904   9.526  11.389 -0.7250  0.0120  0.2585
  813MOL0     C 9630   4.953   9.510  11.532  0.5096 -0.8992 -0.0334
  813MOL0     C 9631   4.927   9.624  11.629 -0.3890 -0.1241 -0.5771
  813MOL0     C 9632   4.959   9.576  11.769 -0.1290  0.1439  0.0974
  813MOL0     C 9633   4.945   9.680  11.886  0.2283  0.4017  0.4264
  813MOL0     C 9634   4.977   9.623  12.026  0.5774 -0.0860 -0.4612
  813MOL0     C 9635   4.972   9.738  12.126  0.3258  0.7254 -0.1047
  813MOL0     C 9636   5.007   9.686  12.263  0.3619 -0.0658 -0.2404
  813MOL0     N 9637   5.150   9.644  12.281 -0.0964 -0.6037  0.0676
  813MOL0     C 9638   5.261   9.720  12.319  0.5158  0.5325 -0.1056
  813MOL0     C 9639   5.352   9.629  12.359  0.1235  0.5484  0.0279
  813MOL0     C 9640   5.483   9.648  12.421  0.0991 -0.2022 -0.3585
  813MOL0     C 9641   5.599   9.675  12.329  1.0588 -0.2747  0.3756
  813MOL0     C 9642   5.717   9.729  12.397  1.0799 -0.4925 -0.1800
  813MOL0     C 9643   5.805   9.626  12.452  0.9938 -0.0616 -0.5827
  813MOL0     O 9644   5.759   9.576  12.583 -0.4195 -0.7974 -0.2311
  813MOL0     C 9645   5.840   9.497  12.657  0.2724  0.2504  0.4305
  813MOL0     C 9646   5.858   9.369  12.622  0.1400 -0.1136  0.8252
  813MOL0     C 9647   5.946   9.294  12.706  0.1613 -0.2111 -0.2161
  813MOL0     C 9648   6.031   9.356  12.803  0.2124 -0.5067 -0.2340
  813MOL0     C 9649   6.136   9.273  12.879 -0.9205 -0.5821 -0.2964
  813MOL0     O 9650   6.237   9.340  12.932 -0.5529 -0.1826  0.0657
  813MOL0     C 9651   6.334   9.275  12.997 -1.3242 -0.1520  0.1963
  813MOL0     C 9652   6.431   9.193  12.924 -0.1938 -0.2700  0.2944
  813MOL0     C 9653   6.536   9.128  12.993 -0.2777 -0.2936 -0.0029
  813MOL0     C 9654   6.562   9.170  13.131  0.4701  0.1548  0.4243
  813MOL0     O 9655   6.669   9.126  13.207  0.1705 -0.8026 -0.1695
  813MOL0     C 9656   6.758   9.027  13.143  0.1623 -0.0278 -1.2944
  813MOL0     C 9657   6.882   9.001  13.229 -0.1070  0.2035  0.4595
  813MOL0     C 9658   6.958   9.134  13.270  0.2781  0.6833 -0.7002
  813MOL0     C 9659   7.060   9.179  13.162 -0.3676 -0.3603 -0.3332
  813MOL0     C 9660   7.121   9.314  13.201 -0.1870  0.1934  0.2961
  813MOL0     C 9661   7.235   9.368  13.109  0.0710  0.4919  0.1258
  813MOL0     C 9662   7.367   9.287  13.141  0.8000  0.5068 -0.6409
  813MOL0     C 9663   7.491   9.364  13.094 -0.5300  0.0223  0.1880
  813MOL0    Cl 9664   7.482   9.347  12.916 -0.5852 -0.3794  0.0040
  813MOL0     C 9665   6.462   9.240  13.205 -0.0596 -0.0672 -0.1378
  813MOL0     C 9666   6.353   9.288  13.134 -0.0771  0.3948 -1.1699
  813MOL0     O 9667   6.116   9.153  12.891  0.6326 -0.4492 -0.0672
  813MOL0     C 9668   5.997   9.481  12.845 -0.1658  0.5023 -0.1892
  813MOL0     C 9669   5.904   9.552  12.762 -0.4051  0.1978 -0.0532
  813MOL0     N 9670   5.302   9.498  12.331 -0.7193 -0.6421 -0.1466
  813MOL0     N 9671   5.186   9.515  12.274  0.6454  1.0593 -0.3898
  813MOL0     C 9672   4.806   9.482  11.124 -0.3635 -0.3910  0.3030
  813MOL0     C 9673   4.781   9.477  10.981 -0.4223 -1.0751 -0.3981
  813MOL0     C 9674   4.895   9.469  10.526 -0.2157  1.1119  0.4899
  813MOL0     C 9675   4.983   9.401  10.450 -0.3506  0.0463 -0.5021
  813MOL0     C 9676   4.965   9.381  10.312 -0.0711 -0.7955  0.3429
  813MOL0     C 9677   4.849   9.422  10.251 -0.0104 -0.2614  1.0412
  813MOL0     O 9678   4.831   9.418  10.109  0.1259  0.4916 -0.2052
  813MOL0     C 9679   4.895   9.321  10.021 -0.3863 -1.0081 -0.6488
  813MOL0     C 9680   4.801   9.299   9.904 -0.1964 -0.1802 -0.6014
  813MOL0     C 9681   4.667   9.243   9.946  0.3816 -0.4738  0.2233
  813MOL0     C 9682   4.591   9.204   9.816  0.1283  0.4683 -0.1210
  813MOL0     C 9683   4.551   9.327   9.751  0.0540  0.2384  0.3772
  813MOL0     C 9684   4.518   9.425   9.682  0.6960  0.5875  0.0235
  813MOL0     C 9685   4.755   9.485  10.332  0.2381 -0.0898 -0.2179
  813MOL0     C 9686   4.774   9.502  10.468  0.4170 -1.1195  1.1360
  813MOL0     C 9687   4.655   9.566  10.545  0.5032 -0.1680  1.0571
  813MOL0     H 9688   5.019   9.273  10.868  1.2405  1.3464  0.0249
  813MOL0     H 9689   5.064   9.260  11.127 -0.5717 -0.9305 -0.0674
  813MOL0     H 9690   4.936   9.621  11.346 -1.6774 -0.4844 -1.6547
  813MOL0     H 9691   4.795   9.527  11.380 -0.6331 -2.4664 -2.6288
  813MOL0     H 9692   5.060   9.485  11.527  0.1681 -2.1450 -2.2196
  813MOL0     H 9693   4.889   9.433  11.576  0.8817 -0.9568  0.4181
  813MOL0     H 9694   4.828   9.668  11.642 -0.8357 -1.4664  0.7558
  813MOL0     H 9695   4.999   9.703  11.603  1.4174 -1.3011  0.6015
  813MOL0     H 9696   4.882   9.502  11.791  1.6179 -1.0955  2.4394
  813MOL0     H 9697   5.060   9.534  11.779 -1.7155 -3.8419  1.5571
  813MOL0     H 9698   5.012   9.765  11.865  2.3201 -0.9578  1.2575
  813MOL0     H 9699   4.841   9.713  11.878 -0.2133 -0.9101  0.5555
  813MOL0     H 9700   4.913   9.545  12.068 -0.8078  1.6657  0.8791
  813MOL0     H 9701   5.077   9.580  12.033  0.5697  0.2025  2.4913
  813MOL0     H 9702   4.872   9.781  12.131  0.2516  0.4400  1.2475
  813MOL0     H 9703   5.053   9.808  12.103  0.0109  0.7189 -1.2996
  813MOL0     H 9704   4.983   9.763  12.337 -4.1060  0.4335 -1.8875
  813MOL0     H 9705   4.940   9.602  12.285  0.7919 -0.4378 -0.3567
  813MOL0     H 9706   5.275   9.827  12.326  0.0258  0.6901 -1.2940
  813MOL0     H 9707   5.461   9.720  12.499 -0.3134  0.2139 -0.8516
  813MOL0     H 9708   5.508   9.554  12.473  1.0600  0.8633  1.1869
  813MOL0     H 9709   5.630   9.599  12.257  2.0509  2.0775 -1.8083
  813MOL0     H 9710   5.568   9.765  12.275 -3.0247  0.4584  3.4376
  813MOL0     H 9711   5.701   9.809  12.470 -3.5323 -1.1100 -0.2503
  813MOL0     H 9712   5.778   9.779  12.322  3.9775  2.0554  3.5156
  813MOL0     H 9713   5.906   9.663  12.469  0.0229  2.2621  0.6636
  813MOL0     H 9714   5.803   9.537  12.388 -1.2662  0.1640 -0.9381
  813MOL0     H 9715   5.814   9.325  12.533  0.2745 -1.0151  1.1933
  813MOL0     H 9716   5.980   9.197  12.670  4.3410  0.6487  0.8073
  813MOL0     H 9717   6.413   9.172  12.819 -1.6752 -3.1850  1.0198
  813MOL0     H 9718   6.594   9.053  12.941  0.0214 -0.6189  0.7845
  813MOL0     H 9719   6.694   8.942  13.120 -2.5908  0.5528  3.0813
  813MOL0     H 9720   6.789   9.061  13.043  2.4509 -2.4431 -1.5231
  813MOL0     H 9721   6.854   8.963  13.328  0.2191  0.5889  0.7068
  813MOL0     H 9722   6.950   8.933  13.177  0.5278  3.1253 -2.9278
  813MOL0     H 9723   6.882   9.209  13.296 -1.2761 -1.1254  0.2702
  813MOL0     H 9724   7.016   9.125  13.362 -0.9973  1.3733  0.2120
  813MOL0     H 9725   7.009   9.197  13.066  2.0370  0.3502 -1.5648
  813MOL0     H 9726   7.141   9.107  13.149 -1.7448 -1.4947 -3.6989
  813MOL0     H 9727   7.154   9.305  13.305 -2.3422 -3.5085  0.8086
  813MOL0     H 9728   7.045   9.393  13.203  0.4672  0.8836 -0.8337
  813MOL0     H 9729   7.201   9.359  13.006 -0.1381  1.7797  0.0692
  813MOL0     H 9730   7.239   9.473  13.138  1.2107  0.7009 -0.7206
  813MOL0     H 9731   7.375   9.190  13.091  3.3601  0.3188  0.0156
  813MOL0     H 9732   7.382   9.277  13.249 -0.6695  0.3366 -0.4286
  813MOL0     H 9733   7.492   9.468  13.127  4.8014  1.4976 -3.3683
  813MOL0     H 9734   7.586   9.322  13.129 -0.6697  0.9692  1.7751
  813MOL0     H 9735   6.479   9.265  13.309 -1.6741  0.7739 -0.0543
  813MOL0     H 9736   6.285   9.351  13.189  0.4452  0.3930 -0.5166
  813MOL0     H 9737   6.044   9.519  12.935 -1.3891  0.4302  0.5008
  813MOL0     H 9738   5.893   9.652  12.803  0.7318 -1.3967  4.7635
  813MOL0     H 9739   4.738   9.544  11.181 -3.0801 -1.6214 -1.4261
  813MOL0     H 9740   4.696   9.530  10.939  1.8627  2.7442 -0.6558
  813MOL0     H 9741   5.081   9.383  10.493 -1.9548 -1.2236  2.9136
  813MOL0     H 9742   5.035   9.331  10.246 -1.2790  0.4397 -2.0418
  813MOL0     H 9743   4.924   9.232  10.077  0.2938 -2.3891 -3.0883
  813MOL0     H 9744   4.984   9.362   9.972 -2.4782  4.0664 -0.7881
  813MOL0     H 9745   4.848   9.219   9.846  1.8598 -1.7107  2.8397
  813MOL0     H 9746   4.788   9.387   9.840  0.4099  0.0863 -0.3620
  813MOL0     H 9747   4.608   9.315  10.003 -1.1538 -0.8598 -0.8062
  813MOL0     H 9748   4.680   9.166  10.022  1.8966  1.6746  2.3054
  813MOL0     H 9749   4.644   9.137   9.748  2.2770  4.2423 -2.4818
  813MOL0     H 9750   4.500   9.150   9.845  0.7765 -0.1714  0.7441
  813MOL0     H 9751   4.497   9.511   9.622  2.3426  1.9834  1.3676
  813MOL0     H 9752   4.664   9.518  10.285 -1.0629 -1.5270  1.1757
  813MOL0     H 9753   4.606   9.626  10.467  0.9159 -1.6052 -0.3714
  813MOL0     H 9754   4.592   9.497  10.600  2.0023 -2.2770  0.2863
  813MOL0     H 9755   4.691   9.644  10.613  1.0204  0.9587 -0.4400
  814MOL0     O 9756   9.831   6.246   3.959 -0.2069 -0.6121 -0.1192
  814MOL0     C 9757   9.781   6.365   3.965  0.3409  0.6104  1.0689
  814MOL0     O 9758   9.847   6.473   3.929 -0.1822 -0.5448 -0.4334
  814MOL0     C 9759   9.979   6.466   3.897 -0.7817 -0.6958  0.4199
  814MOL0     C 9760  10.018   6.446   3.761  0.7273 -0.0434 -0.1839
  814MOL0     C 9761  10.152   6.473   3.716  0.9913  0.7394 -0.5697
  814MOL0     C 9762  10.243   6.494   3.813 -0.4545 -1.3963 -0.1353
  814MOL0     O 9763  10.373   6.506   3.776  0.1589  0.4363 -0.0131
  814MOL0     C 9764  10.462   6.583   3.848 -0.1028 -0.5168  0.3483
  814MOL0     C 9765  10.594   6.614   3.774 -0.1883 -0.1416  0.6985
  814MOL0     C 9766  10.674   6.486   3.756  0.3410 -0.3276  0.3533
  814MOL0     C 9767  10.803   6.524   3.679  0.1364 -0.6092  0.2641
  814MOL0     C 9768  10.914   6.435   3.732  0.7429  0.6793 -0.6956
  814MOL0     C 9769  11.044   6.470   3.660  0.2831  0.1291  0.0140
  814MOL0     C 9770  11.163   6.460   3.754 -0.1010 -1.0601  0.0136
  814MOL0     C 9771  11.297   6.518   3.694 -0.0566 -0.7837  0.3246
  814MOL0     N 9772  11.415   6.494   3.778 -0.8779  0.2563 -0.0785
  814MOL0     C 9773  11.443   6.379   3.850 -0.5760 -0.5046  0.3671
  814MOL0     C 9774  11.547   6.412   3.933  0.6025 -1.0646  0.7846
  814MOL0     C 9775  11.620   6.320   4.022  1.1214  0.9312 -0.1677
  814MOL0     C 9776  11.552   6.293   4.154  0.1726  0.7454 -0.2077
  814MOL0     C 9777  11.639   6.215   4.255  0.3250  0.6429 -0.6356
  814MOL0     C 9778  11.587   6.195   4.394 -0.0913 -0.0737 -0.8028
  814MOL0     O 9779  11.577   6.320   4.465  0.5463  0.6881 -0.1239
  814MOL0     C 9780  11.690   6.375   4.517 -0.5261 -0.3464 -0.3099
  814MOL0     C 9781  11.672   6.498   4.583 -0.0368  0.7490  0.3656
  814MOL0     C 9782  11.788   6.558   4.647  0.8503  0.2749  0.3988
  814MOL0     C 9783  11.913   6.501   4.638 -0.4174 -0.3120  0.2697
  814MOL0     C 9784  12.035   6.571   4.682  0.2756  0.1968 -0.6729
  814MOL0     O 9785  12.148   6.512   4.656  0.2992  0.0556  0.2183
  814MOL0     C 9786  12.267   6.565   4.691  0.5552 -0.5399 -0.3259
  814MOL0     C 9787  12.341   6.484   4.777  0.3203  0.7761 -1.0844
  814MOL0     C 9788  12.467   6.537   4.822  1.0809  0.0159  0.1443
  814MOL0     C 9789  12.515   6.661   4.784  0.3370  0.6296 -0.4905
  814MOL0     O 9790  12.643   6.684   4.825 -0.5945 -0.8771  0.8374
  814MOL0     C 9791  12.729   6.757   4.735  0.1428 -0.3885 -0.3295
  814MOL0     C 9792  12.856   6.798   4.812  0.2791 -0.3360 -0.7148
  814MOL0     C 9793  12.965   6.864   4.728  0.3622 -0.1127  0.3976
  814MOL0     C 9794  12.911   6.999   4.661  0.6991 -1.0063  0.9962
  814MOL0     C 9795  13.010   7.072   4.569  0.1856  0.7185  0.6099
  814MOL0     C 9796  12.954   7.209   4.534 -0.2618  0.0993 -0.2437
  814MOL0     C 9797  13.053   7.288   4.448 -0.1772  0.1505 -0.9628
  814MOL0     C 9798  12.998   7.427   4.404 -0.1503  0.0141 -0.6797
  814MOL0    Cl 9799  12.912   7.380   4.256 -0.1594 -0.1972  0.0097
  814MOL0     C 9800  12.439   6.741   4.695 -0.4995  0.5145  0.1488
  814MOL0     C 9801  12.319   6.688   4.646 -0.1848 -0.4835  0.5078
  814MOL0     O 9802  12.025   6.681   4.735 -0.1003 -0.1844  0.0374
  814MOL0     C 9803  11.922   6.373   4.589  0.1993 -0.1308  0.0940
  814MOL0     C 9804  11.817   6.307   4.528 -0.2218 -0.3255 -0.0304
  814MOL0     N 9805  11.578   6.544   3.895 -0.1520  0.1287 -0.5902
  814MOL0     N 9806  11.498   6.596   3.810  0.6257  0.2482  0.2603
  814MOL0     C 9807  10.206   6.490   3.944 -1.0721 -0.4195 -0.7757
  814MOL0     C 9808  10.077   6.481   3.988  0.9602 -1.3162 -0.1403
  814MOL0     C 9809   9.644   6.385   4.018 -0.5145  0.8425 -0.4045
  814MOL0     C 9810   9.576   6.269   4.062  0.2360 -0.1545  0.9279
  814MOL0     C 9811   9.441   6.277   4.081 -0.1673 -0.0304  0.0967
  814MOL0     C 9812   9.368   6.393   4.075 -0.2093 -0.7258  0.3587
  814MOL0     O 9813   9.244   6.414   4.129 -0.6106  0.6914  0.4882
  814MOL0     C 9814   9.147   6.334   4.074 -0.7893  0.0174  0.6126
  814MOL0     C 9815   9.005   6.383   4.107 -0.1574  0.5164  0.5639
  814MOL0     C 9816   8.965   6.354   4.247  0.7590 -0.0902  0.3081
  814MOL0     C 9817   8.815   6.403   4.267  0.3214 -0.2050  0.0238
  814MOL0     C 9818   8.793   6.430   4.410  0.0020 -0.1275  0.5918
  814MOL0     C 9819   8.766   6.454   4.530 -0.3011  0.6603  0.9263
  814MOL0     C 9820   9.432   6.503   4.030  0.0099 -0.2096  0.2855
  814MOL0     C 9821   9.563   6.501   4.000 -0.9314  0.9392  0.6655
  814MOL0     C 9822   9.624   6.633   3.948 -0.1627  0.0537  0.0104
  814MOL0     H 9823   9.949   6.404   3.688 -0.3534  1.9074 -0.3572
  814MOL0     H 9824  10.163   6.453   3.610 -3.3416 -1.6578 -0.7786
  814MOL0     H 9825  10.407   6.677   3.861 -1.3952 -1.1453 -0.3394
  814MOL0     H 9826  10.477   6.534   3.944  1.6980 -2.9817 -1.0930
  814MOL0     H 9827  10.660   6.671   3.840  1.0628 -2.3051  1.4459
  814MOL0     H 9828  10.566   6.662   3.680  1.8277 -0.5856 -0.1874
  814MOL0     H 9829  10.615   6.408   3.707  0.4261 -0.8421  1.0529
  814MOL0     H 9830  10.705   6.449   3.855 -0.7080 -0.5056  0.6236
  814MOL0     H 9831  10.813   6.513   3.570  4.6381 -0.9146  0.4904
  814MOL0     H 9832  10.837   6.627   3.689  0.9567 -0.7951 -0.3900
  814MOL0     H 9833  10.913   6.461   3.838  0.4075  3.8351 -1.3790
  814MOL0     H 9834  10.892   6.328   3.718  2.4742  0.4944 -2.2550
  814MOL0     H 9835  11.049   6.406   3.572 -5.8701 -2.6685  1.1474
  814MOL0     H 9836  11.039   6.577   3.635 -0.8812  0.7509  2.5957
  814MOL0     H 9837  11.163   6.356   3.788 -0.4211 -0.8432  0.6902
  814MOL0     H 9838  11.143   6.518   3.845 -0.4850  0.6704 -1.1262
  814MOL0     H 9839  11.306   6.470   3.596 -0.8145 -3.6114  1.5366
  814MOL0     H 9840  11.288   6.626   3.677  1.9600 -0.9801 -2.6965
  814MOL0     H 9841  11.402   6.280   3.835 -0.8720 -0.2135 -0.9211
  814MOL0     H 9842  11.649   6.230   3.967 -1.2116  0.3319 -0.5530
  814MOL0     H 9843  11.712   6.375   4.044  0.6878  1.3188  0.7218
  814MOL0     H 9844  11.515   6.387   4.195 -0.8747 -0.3555  1.5017
  814MOL0     H 9845  11.461   6.234   4.142 -0.1094  0.9124  0.9994
  814MOL0     H 9846  11.736   6.264   4.265  1.1244 -0.7898 -0.9780
  814MOL0     H 9847  11.663   6.114   4.220 -0.2096 -1.2557  3.7746
  814MOL0     H 9848  11.652   6.129   4.452 -1.5131 -1.5373 -0.8251
  814MOL0     H 9849  11.487   6.154   4.380 -1.3434  2.0726  1.0401
  814MOL0     H 9850  11.571   6.537   4.587 -0.9353 -1.4802  0.5940
  814MOL0     H 9851  11.769   6.654   4.695 -0.1586  0.7082 -0.8113
  814MOL0     H 9852  12.288   6.397   4.814  0.7330  1.5346  1.4630
  814MOL0     H 9853  12.528   6.468   4.879  0.5145 -0.2659  0.4218
  814MOL0     H 9854  12.763   6.679   4.665  0.1522 -0.1401 -0.6059
  814MOL0     H 9855  12.689   6.848   4.690  2.4928  0.9416  0.0970
  814MOL0     H 9856  12.819   6.873   4.883  0.2865  1.6483 -2.7080
  814MOL0     H 9857  12.902   6.711   4.860  3.1815  2.6575  2.5302
  814MOL0     H 9858  13.048   6.899   4.790  0.1089  1.1168  0.0758
  814MOL0     H 9859  13.009   6.802   4.648  1.9775  2.5535 -0.9403
  814MOL0     H 9860  12.875   7.070   4.736 -0.4589 -0.1681 -0.2913
  814MOL0     H 9861  12.820   6.983   4.602 -1.6429  1.9980  3.4499
  814MOL0     H 9862  13.026   7.008   4.482  0.5065  2.3751 -0.6048
  814MOL0     H 9863  13.107   7.080   4.619  0.9202 -2.7571  0.0221
  814MOL0     H 9864  12.862   7.194   4.475 -0.8024 -1.7002  0.9900
  814MOL0     H 9865  12.936   7.257   4.630  2.3857 -4.8227  3.0911
  814MOL0     H 9866  13.073   7.228   4.359  1.4367  0.0937 -0.5888
  814MOL0     H 9867  13.147   7.297   4.504  0.5786 -1.6790 -1.8846
  814MOL0     H 9868  12.922   7.474   4.466  1.0550  1.7483 -0.4492
  814MOL0     H 9869  13.079   7.498   4.384  0.4305 -0.0824  1.1175
  814MOL0     H 9870  12.474   6.837   4.658 -0.0465  0.2833 -0.0243
  814MOL0     H 9871  12.269   6.741   4.565 -0.2343 -1.0138  0.1912
  814MOL0     H 9872  12.019   6.323   4.590 -0.9234 -2.4720  0.5125
  814MOL0     H 9873  11.829   6.210   4.482 -1.1213  0.8972 -3.1222
  814MOL0     H 9874  10.276   6.489   4.027  0.1175  2.6805 -1.5762
  814MOL0     H 9875  10.054   6.476   4.094 -2.1809 -2.8122 -0.7964
  814MOL0     H 9876   9.620   6.169   4.069 -0.7136 -0.9801 -2.5273
  814MOL0     H 9877   9.392   6.193   4.127 -0.5018 -0.4893 -1.0588
  814MOL0     H 9878   9.155   6.232   4.112 -0.1639  0.2924  1.2438
  814MOL0     H 9879   9.160   6.323   3.966 -1.9570 -2.1165  0.6389
  814MOL0     H 9880   8.938   6.327   4.042 -1.7298  2.8394  0.0400
  814MOL0     H 9881   8.998   6.492   4.095  4.4003  1.2019  2.1672
  814MOL0     H 9882   9.033   6.404   4.316  0.1729 -2.4947  2.7883
  814MOL0     H 9883   8.963   6.246   4.266  1.6009 -0.3407 -0.8954
  814MOL0     H 9884   8.798   6.499   4.217 -0.1092 -1.4910 -2.4602
  814MOL0     H 9885   8.740   6.346   4.212 -0.4366  1.6040 -0.9295
  814MOL0     H 9886   8.740   6.476   4.631  0.7769 -0.4732  1.4803
  814MOL0     H 9887   9.379   6.596   4.014 -0.6440 -0.7476 -0.7889
  814MOL0     H 9888   9.640   6.638   3.840  1.1733 -0.2131  0.1795
  814MOL0     H 9889   9.554   6.707   3.986 -1.1454 -0.4170 -0.8257
  814MOL0     H 9890   9.717   6.666   3.994 -0.1089 -0.0028 -0.0594
  815MOL0     O 9891   4.097   1.571   5.237  0.3312 -0.5044  0.3924
  815MOL0     C 9892   4.159   1.519   5.149  0.1366 -0.0749  1.0174
  815MOL0     O 9893   4.295   1.536   5.125 -0.2706 -0.0219 -0.3304
  815MOL0     C 9894   4.361   1.624   5.208  1.2243 -0.6013 -0.4610
  815MOL0     C 9895   4.334   1.761   5.192  1.1749  0.4185  1.6159
  815MOL0     C 9896   4.404   1.858   5.269  0.4840 -0.2565 -0.3638
  815MOL0     C 9897   4.503   1.817   5.355  0.2863  0.3550  0.2332
  815MOL0     O 9898   4.580   1.898   5.434  0.2015 -0.7755  0.7790
  815MOL0     C 9899   4.666   1.984   5.351  0.2842 -0.2553 -0.2513
  815MOL0     C 9900   4.797   1.919   5.350  0.2598  0.2129 -0.1444
  815MOL0     C 9901   4.848   1.897   5.204  0.7200 -0.0142 -0.1121
  815MOL0     C 9902   4.968   1.823   5.196 -0.1336 -0.2042 -0.0171
  815MOL0     C 9903   5.028   1.827   5.060  0.5803  0.5263  0.3198
  815MOL0     C 9904   5.163   1.757   5.024 -0.0502  0.4119  0.6148
  815MOL0     C 9905   5.172   1.615   5.063 -0.5216 -0.4242 -0.4993
  815MOL0     C 9906   5.091   1.514   4.971  0.1682  0.5701 -0.0699
  815MOL0     N 9907   5.121   1.382   5.034 -0.3040  0.0174 -0.7665
  815MOL0     C 9908   5.035   1.323   5.129 -0.6903 -0.2127  0.4114
  815MOL0     C 9909   5.097   1.207   5.162  0.1064  0.3256  0.6375
  815MOL0     C 9910   5.063   1.111   5.275 -1.4793  1.0127  0.1234
  815MOL0     C 9911   5.141   0.973   5.280  0.7390  0.1302  0.8765
  815MOL0     C 9912   5.092   0.894   5.393 -0.1758  0.0835 -0.2102
  815MOL0     C 9913   4.939   0.859   5.379 -0.3755  0.1680 -0.8203
  815MOL0     O 9914   4.889   0.789   5.486  0.0011 -0.0806 -0.5067
  815MOL0     C 9915   4.755   0.752   5.483 -0.0207 -0.4278 -0.0771
  815MOL0     C 9916   4.698   0.689   5.597  0.0412  0.8669  0.4464
  815MOL0     C 9917   4.563   0.672   5.609 -0.1274  0.3361 -0.0367
  815MOL0     C 9918   4.472   0.715   5.513 -0.6266 -0.6861  0.3363
  815MOL0     C 9919   4.332   0.695   5.536  1.0967 -0.2053 -0.2665
  815MOL0     O 9920   4.248   0.780   5.459 -0.0476 -0.5056 -0.8831
  815MOL0     C 9921   4.120   0.808   5.514 -0.2941 -0.3292 -0.0971
  815MOL0     C 9922   4.004   0.727   5.495 -0.3566 -0.0575  0.1152
  815MOL0     C 9923   3.870   0.773   5.526  1.1602  0.4366  0.3423
  815MOL0     C 9924   3.848   0.903   5.566 -0.0669 -0.4506  0.1089
  815MOL0     O 9925   3.719   0.943   5.592  0.6821 -0.4565  0.6248
  815MOL0     C 9926   3.696   1.084   5.584  0.1665  0.5314  0.0469
  815MOL0     C 9927   3.544   1.108   5.588  1.0669  1.0635 -0.1912
  815MOL0     C 9928   3.488   1.081   5.733  0.3192  0.5632  0.1644
  815MOL0     C 9929   3.324   1.104   5.735 -0.5317 -0.1447 -0.5906
  815MOL0     C 9930   3.272   1.087   5.874  0.1116  0.4283 -1.2333
  815MOL0     C 9931   3.119   1.092   5.893  0.4787  0.5062 -0.3127
  815MOL0     C 9932   3.066   1.013   6.018 -0.0753 -0.4361  0.7743
  815MOL0     C 9933   3.107   1.064   6.158 -0.2836 -0.9781 -0.2948
  815MOL0    Cl 9934   2.979   1.189   6.202 -0.1538  0.2297  0.4702
  815MOL0     C 9935   3.969   0.982   5.583 -0.2460 -0.6657  0.4517
  815MOL0     C 9936   4.104   0.940   5.569 -0.5617 -0.6023  0.1554
  815MOL0     O 9937   4.290   0.634   5.637  0.3700 -1.0847 -0.8179
  815MOL0     C 9938   4.526   0.775   5.398  1.3061 -0.0013  0.2440
  815MOL0     C 9939   4.659   0.780   5.380  0.1288  0.0507 -0.3453
  815MOL0     N 9940   5.214   1.201   5.093 -1.4996  0.3837 -1.2318
  815MOL0     N 9941   5.227   1.299   5.006 -0.1618 -0.6462  0.7958
  815MOL0     C 9942   4.529   1.683   5.373 -0.0349  0.4198 -0.0839
  815MOL0     C 9943   4.458   1.587   5.302 -0.2590 -0.6181  0.7252
  815MOL0     C 9944   4.066   1.449   5.041 -0.0628  0.7417  0.1435
  815MOL0     C 9945   3.927   1.471   5.047  0.5429 -0.6117  0.1800
  815MOL0     C 9946   3.831   1.411   4.959 -0.7571  0.1218  1.1668
  815MOL0     C 9947   3.885   1.309   4.866  0.3131 -0.1637  0.2652
  815MOL0     O 9948   3.792   1.244   4.783 -0.4871  0.2068 -0.1297
  815MOL0     C 9949   3.770   1.110   4.824  0.2738 -0.6517  0.3611
  815MOL0     C 9950   3.627   1.069   4.784 -0.0001  0.1004  0.2933
  815MOL0     C 9951   3.601   1.071   4.632  0.1036  0.6868  0.4810
  815MOL0     C 9952   3.465   1.015   4.594 -0.1463  1.3732 -0.1421
  815MOL0     C 9953   3.440   0.876   4.638 -1.1257 -0.9221  0.1204
  815MOL0     C 9954   3.419   0.764   4.665 -0.0625  0.4797  0.2311
  815MOL0     C 9955   4.024   1.293   4.855  0.6268  0.8859  0.5001
  815MOL0     C 9956   4.118   1.356   4.940 -0.7141 -0.6950 -0.1910
  815MOL0     C 9957   4.263   1.323   4.916  0.0508  0.1732 -0.1053
  815MOL0     H 9958   4.256   1.776   5.118  1.1512  0.2436  1.6045
  815MOL0     H 9959   4.394   1.963   5.247  2.0226 -0.0211 -0.0745
  815MOL0     H 9960   4.634   2.004   5.249 -0.5182 -1.6540 -0.2943
  815MOL0     H 9961   4.678   2.077   5.407  3.0215  1.0165 -2.6702
  815MOL0     H 9962   4.788   1.819   5.394  0.1933  0.4504  0.3884
  815MOL0     H 9963   4.851   1.988   5.415 -0.5070  0.8379 -0.1549
  815MOL0     H 9964   4.865   2.003   5.182  0.3918  0.7731  2.9053
  815MOL0     H 9965   4.782   1.849   5.131  1.5536 -1.5654  0.1237
  815MOL0     H 9966   5.040   1.863   5.269  0.6190  1.0724 -1.4103
  815MOL0     H 9967   4.949   1.719   5.224  0.7998 -0.2121  0.6642
  815MOL0     H 9968   4.965   1.775   4.987  1.1416  0.3164 -0.0248
  815MOL0     H 9969   5.054   1.930   5.038 -0.9842  0.7250 -0.7315
  815MOL0     H 9970   5.180   1.782   4.919 -2.2022 -0.2735  0.0421
  815MOL0     H 9971   5.243   1.805   5.081 -0.8424  1.4433  0.8972
  815MOL0     H 9972   5.136   1.603   5.166  1.3803 -0.1969  0.2271
  815MOL0     H 9973   5.278   1.591   5.057 -0.2747  0.2295  0.9046
  815MOL0     H 9974   4.982   1.522   4.972  0.0417 -0.9211 -0.5437
  815MOL0     H 9975   5.132   1.529   4.871  6.3648  2.0405  2.2270
  815MOL0     H 9976   4.948   1.372   5.171  0.2495 -0.2956  2.5666
  815MOL0     H 9977   5.097   1.169   5.362 -0.6437  0.3029  0.2818
  815MOL0     H 9978   4.954   1.097   5.279 -1.3038 -0.2657  1.1608
  815MOL0     H 9979   5.122   0.935   5.179 -0.0784  2.3459  0.1503
  815MOL0     H 9980   5.247   0.998   5.282  1.1432 -0.4507 -3.5758
  815MOL0     H 9981   5.110   0.946   5.487  2.1447  1.2687 -1.2371
  815MOL0     H 9982   5.136   0.796   5.414  0.9308  0.4931 -0.5635
  815MOL0     H 9983   4.948   0.788   5.296 -0.3407 -3.3743  1.9932
  815MOL0     H 9984   4.873   0.942   5.354 -2.0588 -1.0149 -0.4770
  815MOL0     H 9985   4.754   0.656   5.684  0.9764 -0.8355 -0.7329
  815MOL0     H 9986   4.537   0.616   5.699 -0.2654  2.3153  1.1966
  815MOL0     H 9987   4.025   0.624   5.469 -0.2610  0.1062 -0.4707
  815MOL0     H 9988   3.789   0.702   5.538  1.1827  0.6578  2.0413
  815MOL0     H 9989   3.744   1.140   5.664 -0.0384  1.3882 -0.4156
  815MOL0     H 9990   3.729   1.129   5.489 -2.2689  0.1376 -1.0768
  815MOL0     H 9991   3.522   1.213   5.568 -0.7357  0.7937  0.1123
  815MOL0     H 9992   3.493   1.041   5.518  0.7406  1.2821 -0.1652
  815MOL0     H 9993   3.510   0.982   5.773 -0.8692  0.4136  0.4802
  815MOL0     H 9994   3.547   1.147   5.797  2.6030 -1.0158 -0.2145
  815MOL0     H 9995   3.263   1.044   5.668  0.2340 -1.9217  0.2476
  815MOL0     H 9996   3.308   1.212   5.725  4.6524  0.7817 -1.4737
  815MOL0     H 9997   3.320   1.155   5.945 -0.1661 -1.1763  0.5867
  815MOL0     H 9998   3.302   0.988   5.910 -0.7925  1.5190  2.9895
  815MOL0     H 9999   3.093   1.196   5.915  1.8194  1.3175 -2.2972
  815MOL0     H10000   3.052   1.065   5.810 -0.7561 -1.0388  1.1107
  815MOL0     H10001   3.109   0.912   6.013  2.2663  0.5315 -0.1523
  815MOL0     H10002   2.958   1.000   6.014 -0.1124 -0.0821  0.6279
  815MOL0     H10003   3.119   0.984   6.231  3.3194 -0.1323  0.2641
  815MOL0     H10004   3.205   1.112   6.162 -1.1074  0.7106  2.2993
  815MOL0     H10005   3.963   1.085   5.615 -0.1061  0.0504 -1.7169
  815MOL0     H10006   4.190   1.004   5.589  1.1520 -1.3377 -3.8741
  815MOL0     H10007   4.450   0.803   5.326 -1.5552 -3.1719  1.7420
  815MOL0     H10008   4.693   0.821   5.286  0.1035  0.2860 -0.2526
  815MOL0     H10009   4.610   1.662   5.442  0.2146 -2.5355 -1.1379
  815MOL0     H10010   4.483   1.486   5.331  2.8294 -0.2783 -0.3888
  815MOL0     H10011   3.876   1.537   5.116  0.4146  0.4093 -0.8756
  815MOL0     H10012   3.728   1.446   4.953 -0.0499  2.3723  1.2493
  815MOL0     H10013   3.782   1.093   4.931 -0.5926  1.2227  0.7864
  815MOL0     H10014   3.841   1.051   4.765  0.5005  1.5568 -1.7473
  815MOL0     H10015   3.565   1.146   4.830  0.1990  2.7970 -3.4938
  815MOL0     H10016   3.597   0.973   4.827 -0.3987  0.4267  0.7609
  815MOL0     H10017   3.681   1.011   4.587 -1.2141  0.1502 -1.2799
  815MOL0     H10018   3.622   1.168   4.586 -1.7856  0.7977 -0.2659
  815MOL0     H10019   3.385   1.081   4.628 -0.8999  0.1610  0.4872
  815MOL0     H10020   3.464   1.003   4.485 -2.4953  2.7928 -0.3333
  815MOL0     H10021   3.375   0.667   4.678 -0.9740  0.6398 -1.4347
  815MOL0     H10022   4.053   1.229   4.772 -1.7149 -0.8835  0.9095
  815MOL0     H10023   4.289   1.277   4.820 -0.1264  0.9413 -0.5256
  815MOL0     H10024   4.334   1.406   4.916 -0.1246  0.3497  1.3350
  815MOL0     H10025   4.292   1.253   4.996 -0.4728  0.7810  0.6307
  816MOL0     O10026   3.353   2.125   0.908  0.5865  0.7602  0.1477
  816MOL0     C10027   3.375   2.200   0.813  0.1388 -0.3566 -0.2829
  816MOL0     O10028   3.298   2.198   0.695 -0.0309  0.1524 -0.6854
  816MOL0     C10029   3.170   2.142   0.697 -0.7964  0.0671  0.2530
  816MOL0     C10030   3.150   2.004   0.711  0.0499  0.2518  0.1274
  816MOL0     C10031   3.016   1.959   0.718 -0.9680 -0.2038  0.0142
  816MOL0     C10032   2.911   2.043   0.732  0.4844  0.4641  0.0275
  816MOL0     O10033   2.799   1.979   0.763  0.6084  0.6628 -1.0798
  816MOL0     C10034   2.674   2.054   0.768  0.3827 -0.2607  0.5160
  816MOL0     C10035   2.570   1.953   0.793 -0.0051  0.0877  0.4882
  816MOL0     C10036   2.573   1.876   0.930 -0.6165  0.9073  0.7042
  816MOL0     C10037   2.441   1.802   0.956  0.7431  0.1060 -0.4124
  816MOL0     C10038   2.447   1.734   1.089 -0.0559  0.1636  0.5049
  816MOL0     C10039   2.329   1.656   1.138 -0.7372 -0.3620  0.5617
  816MOL0     C10040   2.196   1.717   1.145  0.0077  0.3930  0.4826
  816MOL0     C10041   2.089   1.619   1.171 -0.5846  0.6972  0.2461
  816MOL0     N10042   2.058   1.538   1.054 -0.9337  0.3359  0.5855
  816MOL0     C10043   1.939   1.551   0.988 -0.5920 -1.0842 -0.5864
  816MOL0     C10044   1.942   1.450   0.900 -0.2894  0.3293  0.1911
  816MOL0     C10045   1.820   1.431   0.803 -0.1428 -0.4357  1.0883
  816MOL0     C10046   1.863   1.355   0.675 -0.4565  1.0683  0.1779
  816MOL0     C10047   1.756   1.342   0.563  0.4986 -0.4279 -0.2611
  816MOL0     C10048   1.640   1.257   0.606  1.0308 -0.5039 -0.0819
  816MOL0     O10049   1.531   1.281   0.513 -0.5087  0.4598  0.9617
  816MOL0     C10050   1.406   1.245   0.553 -0.1907  0.1731 -0.3073
  816MOL0     C10051   1.380   1.151   0.652  0.1332 -0.6952  0.6022
  816MOL0     C10052   1.256   1.146   0.707  0.0776 -0.5384 -0.2129
  816MOL0     C10053   1.143   1.221   0.657 -0.6573 -0.2596  0.7059
  816MOL0     C10054   1.010   1.204   0.719 -0.3314  0.9271 -0.6808
  816MOL0     O10055   1.013   1.166   0.854 -0.1162 -0.2933 -0.1970
  816MOL0     C10056   0.895   1.129   0.917  0.1545  0.0322 -0.6162
  816MOL0     C10057   0.755   1.128   0.875 -1.0136 -0.4419  0.0889
  816MOL0     C10058   0.651   1.067   0.952  0.8802 -0.1409 -0.0891
  816MOL0     C10059   0.679   1.005   1.072  0.3847 -0.5792  0.0732
  816MOL0     O10060   0.592   0.935   1.148 -0.3741  0.1888 -0.4935
  816MOL0     C10061   0.469   0.902   1.084  0.5004 -0.9869  1.1691
  816MOL0     C10062   0.388   0.831   1.197 -0.2667 -0.5339  0.3614
  816MOL0     C10063   0.239   0.825   1.158  0.0638  0.1783 -0.7220
  816MOL0     C10064   0.159   0.761   1.271  0.6655 -0.0043 -0.0576
  816MOL0     C10065   0.004   0.772   1.252  0.5534  0.0057 -0.6510
  816MOL0     C10066  -0.060   0.707   1.381 -0.6121  0.0423  0.6795
  816MOL0     C10067  -0.208   0.715   1.384  0.3413 -0.8281  1.0251
  816MOL0     C10068  -0.264   0.585   1.319  0.3246 -0.6187 -0.3457
  816MOL0    Cl10069  -0.220   0.558   1.157 -0.1042  0.6869  0.0749
  816MOL0     C10070   0.810   0.996   1.112 -0.1876  0.0572  0.1054
  816MOL0     C10071   0.917   1.048   1.030  0.6387  0.2187 -0.2473
  816MOL0     O10072   0.912   1.227   0.651  0.1614 -0.6281  0.1969
  816MOL0     C10073   1.163   1.291   0.533 -0.1049  0.0891 -0.6888
  816MOL0     C10074   1.297   1.313   0.490 -1.0450  0.0033 -0.4365
  816MOL0     N10075   2.064   1.384   0.910  0.1832  0.5711 -0.0711
  816MOL0     N10076   2.128   1.438   0.999 -0.1938 -0.2568 -0.3933
  816MOL0     C10077   2.929   2.183   0.715 -0.1524 -0.4934 -0.1608
  816MOL0     C10078   3.063   2.229   0.685  0.5976 -0.4030  0.7047
  816MOL0     C10079   3.507   2.264   0.803 -0.5472  0.6417  0.1702
  816MOL0     C10080   3.561   2.295   0.672 -0.1036  0.6262 -1.1301
  816MOL0     C10081   3.693   2.347   0.657 -0.7431  0.1128 -0.7815
  816MOL0     C10082   3.767   2.382   0.776  0.8216  1.1726  0.0238
  816MOL0     O10083   3.902   2.419   0.767  0.1479 -0.2866 -0.3611
  816MOL0     C10084   3.950   2.496   0.656  0.8056 -0.9598  0.9500
  816MOL0     C10085   4.058   2.589   0.698 -0.2913  0.5000 -0.1895
  816MOL0     C10086   4.182   2.525   0.765  0.8665  0.6012  0.0314
  816MOL0     C10087   4.291   2.639   0.802  0.0823  0.9158  0.5035
  816MOL0     C10088   4.419   2.579   0.829 -0.4441  0.0917  0.6666
  816MOL0     C10089   4.523   2.522   0.865 -1.0072  0.7073  1.3126
  816MOL0     C10090   3.711   2.341   0.902 -0.5886  0.3794 -0.7379
  816MOL0     C10091   3.586   2.289   0.918  0.2709  0.2025 -0.2666
  816MOL0     C10092   3.551   2.243   1.062  0.2834  0.4121 -0.1631
  816MOL0     H10093   3.241   1.945   0.711 -0.7192 -1.1265 -2.8105
  816MOL0     H10094   2.996   1.853   0.708 -1.2803  0.0749 -3.7366
  816MOL0     H10095   2.667   2.128   0.848  2.3993  0.3993  0.1556
  816MOL0     H10096   2.653   2.100   0.670  0.2173 -1.3559  0.0224
  816MOL0     H10097   2.577   1.876   0.715  0.2262 -1.6849  2.2007
  816MOL0     H10098   2.471   2.001   0.797 -0.0359  0.0645  0.0424
  816MOL0     H10099   2.597   1.946   1.011  1.2617  1.2635 -0.0995
  816MOL0     H10100   2.653   1.803   0.912 -1.5931  0.3421 -1.6004
  816MOL0     H10101   2.356   1.871   0.965 -0.0116 -1.0036  1.9138
  816MOL0     H10102   2.429   1.733   0.872  3.1657 -2.2161  1.0069
  816MOL0     H10103   2.531   1.665   1.089 -2.0113 -2.4194 -2.0080
  816MOL0     H10104   2.466   1.810   1.167  1.2404 -3.7649  4.4418
  816MOL0     H10105   2.325   1.579   1.061 -0.8783  0.4222 -0.2271
  816MOL0     H10106   2.340   1.612   1.238 -2.8548  1.4183  1.6920
  816MOL0     H10107   2.179   1.743   1.041 -2.7094 -2.5142  0.0344
  816MOL0     H10108   2.193   1.813   1.198  1.8218  1.6937 -1.6345
  816MOL0     H10109   2.125   1.557   1.255 -0.6677  1.5660  0.9323
  816MOL0     H10110   2.006   1.672   1.218 -2.4490 -0.5366 -1.5369
  816MOL0     H10111   1.865   1.630   1.001  0.8488  0.3821 -0.9957
  816MOL0     H10112   1.742   1.376   0.856 -1.4617  0.3016 -0.0173
  816MOL0     H10113   1.781   1.525   0.762 -0.3528 -2.2325 -3.4010
  816MOL0     H10114   1.946   1.414   0.637  0.4000 -0.1337  0.1142
  816MOL0     H10115   1.904   1.254   0.691 -0.1487  0.8916 -1.5213
  816MOL0     H10116   1.802   1.302   0.473 -0.8540  1.0938 -1.7144
  816MOL0     H10117   1.730   1.445   0.536  1.8391  0.1477  0.5916
  816MOL0     H10118   1.594   1.293   0.699 -0.7212 -0.7838 -0.8018
  816MOL0     H10119   1.669   1.152   0.618  1.2341 -0.5178 -0.6897
  816MOL0     H10120   1.471   1.103   0.686  0.9034 -0.7085 -1.3635
  816MOL0     H10121   1.247   1.072   0.786  1.9686  0.7717  1.3349
  816MOL0     H10122   0.731   1.198   0.795  0.1243 -0.4364 -0.2622
  816MOL0     H10123   0.548   1.094   0.928  0.5141  2.3415  3.3477
  816MOL0     H10124   0.415   0.988   1.045  3.9434  0.6595 -0.4134
  816MOL0     H10125   0.494   0.837   1.000 -0.3555  2.5504 -2.0578
  816MOL0     H10126   0.440   0.737   1.217  2.7103  0.9106  0.0487
  816MOL0     H10127   0.389   0.896   1.285 -1.6670 -1.2536  0.9405
  816MOL0     H10128   0.200   0.928   1.158 -0.3682  0.0230  0.3737
  816MOL0     H10129   0.227   0.774   1.062  3.4573 -0.1522 -1.0782
  816MOL0     H10130   0.195   0.802   1.365  1.7773  0.2773 -0.5918
  816MOL0     H10131   0.188   0.655   1.272  0.3923 -0.2850 -3.9196
  816MOL0     H10132  -0.029   0.724   1.160  0.4563  1.9050 -1.6676
  816MOL0     H10133  -0.029   0.875   1.233  0.3874 -0.2354 -1.7163
  816MOL0     H10134  -0.030   0.602   1.383  1.6781  0.6341  1.8582
  816MOL0     H10135  -0.014   0.754   1.469  4.0211 -0.0287 -1.4089
  816MOL0     H10136  -0.255   0.806   1.344  2.0277  0.4926  1.9570
  816MOL0     H10137  -0.233   0.733   1.489  0.2886  2.1847  0.5756
  816MOL0     H10138  -0.224   0.497   1.369 -2.7418 -1.1293  1.4992
  816MOL0     H10139  -0.372   0.592   1.337  0.8762  1.7201  3.3068
  816MOL0     H10140   0.829   0.928   1.194  0.9928  2.5469  2.0436
  816MOL0     H10141   1.018   1.032   1.064  1.4205  0.9735 -2.0356
  816MOL0     H10142   1.076   1.334   0.485 -1.4558  0.0629  1.6273
  816MOL0     H10143   1.325   1.374   0.405 -0.4032  1.3817  0.7176
  816MOL0     H10144   2.842   2.246   0.728  0.0725 -0.2340  0.1018
  816MOL0     H10145   3.066   2.336   0.667 -2.2824  0.1025  2.5173
  816MOL0     H10146   3.509   2.277   0.578 -1.2157 -1.9461 -0.1054
  816MOL0     H10147   3.755   2.358   0.569  3.5907  1.8391  2.1497
  816MOL0     H10148   3.874   2.556   0.607  1.6782 -1.1523 -0.7025
  816MOL0     H10149   3.981   2.421   0.583 -0.9534  0.4484 -1.3643
  816MOL0     H10150   4.012   2.658   0.769  0.4588 -1.4903  2.3526
  816MOL0     H10151   4.087   2.645   0.608 -0.2510  1.3412  0.3354
  816MOL0     H10152   4.221   2.454   0.691  0.8117 -1.4007  1.8482
  816MOL0     H10153   4.145   2.471   0.852  0.7495 -1.2051 -1.0953
  816MOL0     H10154   4.296   2.711   0.720 -0.6847  0.0099 -0.3727
  816MOL0     H10155   4.265   2.699   0.890  2.2352  1.5485  0.7749
  816MOL0     H10156   4.609   2.465   0.892  0.0694  1.6871  0.1193
  816MOL0     H10157   3.766   2.351   0.995 -2.5452 -2.8860  0.9665
  816MOL0     H10158   3.583   2.139   1.072  0.2248  0.4989  0.9784
  816MOL0     H10159   3.593   2.299   1.146 -1.9060  1.0108  0.5805
  816MOL0     H10160   3.445   2.252   1.086  0.0255 -0.7825 -0.7733
  817MOL0     O10161   6.177   4.816   5.004 -0.2680  0.1490 -0.8183
  817MOL0     C10162   6.198   4.923   5.052 -0.4100  0.4908 -0.5871
  817MOL0     O10163   6.127   4.974   5.155  0.4814 -0.3730 -0.0660
  817MOL0     C10164   6.026   4.891   5.198  0.8773  0.7918 -0.5644
  817MOL0     C10165   6.045   4.759   5.260 -0.3007 -0.3594  0.5714
  817MOL0     C10166   5.947   4.696   5.332  0.6387 -0.7772 -1.1564
  817MOL0     C10167   5.826   4.755   5.356  0.4908 -0.1163 -0.3779
  817MOL0     O10168   5.741   4.686   5.436 -0.6195  0.0217  0.1688
  817MOL0     C10169   5.600   4.694   5.431  0.6588  0.0985 -0.5351
  817MOL0     C10170   5.554   4.647   5.575 -1.0680  0.1307 -0.1115
  817MOL0     C10171   5.406   4.667   5.574 -0.4406 -0.7528  0.1405
  817MOL0     C10172   5.364   4.575   5.685  0.2855 -0.2274 -0.5705
  817MOL0     C10173   5.350   4.428   5.643  0.4694 -0.1304  0.1761
  817MOL0     C10174   5.275   4.351   5.756 -0.3117  0.2654 -0.1542
  817MOL0     C10175   5.254   4.209   5.711 -0.3030 -0.1374  0.7013
  817MOL0     C10176   5.186   4.136   5.821  0.5185  0.7725 -0.4486
  817MOL0     N10177   5.073   4.059   5.761  0.4218  0.7227  0.8055
  817MOL0     C10178   5.089   3.952   5.670  0.5131  0.2870 -0.5657
  817MOL0     C10179   4.961   3.908   5.661  1.3069  0.3565 -0.8670
  817MOL0     C10180   4.905   3.831   5.539  0.0595 -0.6619 -0.0722
  817MOL0     C10181   4.816   3.718   5.599  0.3550  0.1818  0.5132
  817MOL0     C10182   4.760   3.633   5.481 -1.0568  0.0811 -0.4176
  817MOL0     C10183   4.633   3.707   5.425 -0.5221 -0.3716  0.9903
  817MOL0     O10184   4.587   3.624   5.327  0.0589 -0.2446  0.7221
  817MOL0     C10185   4.465   3.653   5.267  0.3481  0.0779  0.0412
  817MOL0     C10186   4.390   3.765   5.286 -0.6238 -1.1517  0.0975
  817MOL0     C10187   4.266   3.777   5.240  0.0244 -0.6371 -0.0549
  817MOL0     C10188   4.218   3.676   5.158 -0.1417 -0.2574  0.0206
  817MOL0     C10189   4.076   3.694   5.114 -0.1504  0.3210  0.4333
  817MOL0     O10190   3.985   3.759   5.194  0.0509  0.1036  0.5754
  817MOL0     C10191   3.859   3.765   5.151  0.8022  0.3068 -0.3320
  817MOL0     C10192   3.786   3.646   5.122 -0.1275 -0.3050 -0.2349
  817MOL0     C10193   3.659   3.665   5.063 -0.1484 -0.2175 -0.2065
  817MOL0     C10194   3.596   3.789   5.048 -0.7186 -0.5348 -0.7129
  817MOL0     O10195   3.470   3.812   5.005  0.6388  0.7690 -0.7933
  817MOL0     C10196   3.398   3.688   4.981 -0.3991 -0.0069 -0.7144
  817MOL0     C10197   3.255   3.725   4.939  0.1478  0.3463 -0.2413
  817MOL0     C10198   3.176   3.600   4.901  0.5068  0.7528 -0.0704
  817MOL0     C10199   3.027   3.635   4.886  0.6789 -0.1069  0.5326
  817MOL0     C10200   2.949   3.509   4.854  0.4423 -0.2558 -0.1520
  817MOL0     C10201   2.807   3.532   4.811  0.0209 -0.3549 -0.1482
  817MOL0     C10202   2.813   3.584   4.664 -0.9359  0.1171  0.3959
  817MOL0     C10203   2.667   3.599   4.615 -0.0301 -0.6926  0.6267
  817MOL0    Cl10204   2.601   3.434   4.594  0.3260 -0.2878 -0.0082
  817MOL0     C10205   3.669   3.906   5.074 -0.5442 -0.0508 -0.3006
  817MOL0     C10206   3.798   3.889   5.122 -0.4679 -0.7312 -0.2241
  817MOL0     O10207   4.052   3.639   5.009  0.0584  0.2952 -1.0330
  817MOL0     C10208   4.300   3.573   5.120  0.5663  0.1533  0.1819
  817MOL0     C10209   4.422   3.560   5.183 -0.1789  0.3025  0.0253
  817MOL0     N10210   4.880   3.978   5.758 -0.2626 -0.2185 -0.4309
  817MOL0     N10211   4.948   4.074   5.798  0.6436  0.0967  0.7525
  817MOL0     C10212   5.796   4.883   5.295 -0.1828  0.6367  0.6588
  817MOL0     C10213   5.903   4.949   5.221  0.2360 -0.7051 -0.9408
  817MOL0     C10214   6.308   5.011   5.003  0.0677 -0.1939 -0.3512
  817MOL0     C10215   6.329   5.131   5.071  0.1972  0.5435  0.4438
  817MOL0     C10216   6.434   5.218   5.030 -0.5063  0.1729  0.3447
  817MOL0     C10217   6.512   5.199   4.919 -0.6145  0.0674 -0.2587
  817MOL0     O10218   6.590   5.297   4.859 -0.5890 -0.1662  0.2394
  817MOL0     C10219   6.578   5.315   4.718  0.2533 -0.1254 -0.0486
  817MOL0     C10220   6.590   5.458   4.675  0.4788 -0.8422  0.9960
  817MOL0     C10221   6.452   5.528   4.690  0.1671  0.0919  0.6291
  817MOL0     C10222   6.384   5.513   4.830  0.0048 -0.7863 -0.5128
  817MOL0     C10223   6.470   5.585   4.927  0.0112  0.5874  0.1853
  817MOL0     C10224   6.555   5.645   4.989 -0.2191  0.0378 -0.3135
  817MOL0     C10225   6.494   5.075   4.859 -0.6056 -0.1550  0.0407
  817MOL0     C10226   6.405   4.976   4.905 -0.7345 -0.2246  0.4733
  817MOL0     C10227   6.417   4.855   4.820  0.6477  0.3783  0.2703
  817MOL0     H10228   6.140   4.708   5.247  0.7285  1.5353  0.3289
  817MOL0     H10229   5.977   4.599   5.371  0.3555 -0.3322  0.2330
  817MOL0     H10230   5.563   4.793   5.406 -4.4358 -1.3007  0.3225
  817MOL0     H10231   5.557   4.628   5.356 -2.0724  0.1999  0.8124
  817MOL0     H10232   5.607   4.701   5.654 -1.3308 -1.6201  1.3281
  817MOL0     H10233   5.584   4.542   5.578 -2.1436 -0.2230 -1.1114
  817MOL0     H10234   5.374   4.637   5.473 -1.9396 -2.0812  0.9578
  817MOL0     H10235   5.378   4.769   5.601  3.2057  0.3752  0.1341
  817MOL0     H10236   5.429   4.579   5.773 -2.9556 -1.8748  2.1443
  817MOL0     H10237   5.271   4.614   5.728  0.7939  0.6548 -0.2278
  817MOL0     H10238   5.296   4.416   5.548 -0.8241 -0.7820  0.9665
  817MOL0     H10239   5.447   4.379   5.632  0.7693  0.5433 -0.2577
  817MOL0     H10240   5.340   4.351   5.844  1.2559  3.1237 -1.2071
  817MOL0     H10241   5.179   4.400   5.774  0.6068  2.2069 -0.2741
  817MOL0     H10242   5.344   4.155   5.678  2.2378  2.8866  2.0965
  817MOL0     H10243   5.183   4.217   5.629 -1.3343 -0.7766  1.5082
  817MOL0     H10244   5.260   4.070   5.867 -0.9588 -1.0194 -0.5272
  817MOL0     H10245   5.145   4.205   5.895 -1.7252 -1.8995  0.9747
  817MOL0     H10246   5.175   3.918   5.614  3.2638  1.7478  2.4368
  817MOL0     H10247   4.841   3.895   5.478  0.8144  0.3771  0.2020
  817MOL0     H10248   4.986   3.795   5.476 -0.3323  0.3115 -1.1655
  817MOL0     H10249   4.871   3.651   5.667 -1.6294  1.2764  3.3705
  817MOL0     H10250   4.740   3.767   5.660 -0.7504  0.8798 -1.3407
  817MOL0     H10251   4.737   3.533   5.517 -1.9934 -1.0277 -3.7057
  817MOL0     H10252   4.836   3.621   5.403  0.9585  0.7567  1.3553
  817MOL0     H10253   4.668   3.800   5.378 -0.3092 -0.9976 -0.1232
  817MOL0     H10254   4.557   3.716   5.503 -3.0666  1.0236 -1.4567
  817MOL0     H10255   4.418   3.852   5.344 -0.5763 -2.6649  2.5209
  817MOL0     H10256   4.207   3.865   5.265  1.5856  0.0787  1.2548
  817MOL0     H10257   3.840   3.553   5.106  0.9293  0.7119 -3.5379
  817MOL0     H10258   3.611   3.572   5.033 -1.4318 -0.5131  2.4875
  817MOL0     H10259   3.440   3.619   4.907 -0.5657 -0.5911 -0.2718
  817MOL0     H10260   3.405   3.641   5.080 -0.6485  2.0202  0.3128
  817MOL0     H10261   3.194   3.774   5.015 -1.6771 -0.7089 -0.9669
  817MOL0     H10262   3.258   3.788   4.849  3.0039  0.3955 -0.1941
  817MOL0     H10263   3.214   3.551   4.811 -3.5556 -0.8291 -1.1294
  817MOL0     H10264   3.180   3.531   4.986 -3.7140  2.1207  1.5360
  817MOL0     H10265   3.009   3.703   4.803 -3.2214 -0.8453  0.5848
  817MOL0     H10266   2.984   3.685   4.974 -1.2345  1.3413 -1.1474
  817MOL0     H10267   2.936   3.442   4.940 -1.2208  1.3994  0.9758
  817MOL0     H10268   2.994   3.453   4.771 -0.4800 -0.4731 -0.5254
  817MOL0     H10269   2.759   3.434   4.821  2.3059 -1.3988  1.1721
  817MOL0     H10270   2.764   3.605   4.880  0.2258 -0.5067  0.1412
  817MOL0     H10271   2.858   3.516   4.591 -5.4574 -0.2895 -2.4261
  817MOL0     H10272   2.857   3.684   4.653 -0.7517 -0.1057 -1.1195
  817MOL0     H10273   2.605   3.658   4.684 -0.2071  0.2155 -0.2854
  817MOL0     H10274   2.668   3.652   4.519  2.8407  1.8757  1.8911
  817MOL0     H10275   3.625   4.005   5.069 -0.3000  0.1182  0.8116
  817MOL0     H10276   3.844   3.983   5.149 -1.1542 -0.8411  1.4964
  817MOL0     H10277   4.268   3.493   5.054 -1.2442 -0.3897  1.6400
  817MOL0     H10278   4.481   3.475   5.151 -1.0637 -0.1405 -0.4933
  817MOL0     H10279   5.709   4.934   5.335 -2.0995 -0.7160 -1.4987
  817MOL0     H10280   5.879   5.050   5.191  0.5518 -0.0476  0.9000
  817MOL0     H10281   6.264   5.154   5.155 -0.6000 -1.2768  0.3711
  817MOL0     H10282   6.454   5.308   5.087  0.9217 -0.7540  1.3803
  817MOL0     H10283   6.489   5.260   4.685  0.6636 -1.7279  1.3501
  817MOL0     H10284   6.659   5.258   4.672  0.4270  1.1629 -1.4339
  817MOL0     H10285   6.623   5.458   4.571 -0.1613 -0.4768  0.7847
  817MOL0     H10286   6.664   5.518   4.729 -0.9977  0.7124  1.3927
  817MOL0     H10287   6.390   5.483   4.611  2.1314  0.9963 -1.5577
  817MOL0     H10288   6.464   5.634   4.669  3.3074  0.9288  5.0733
  817MOL0     H10289   6.289   5.568   4.828 -1.3253 -2.9768 -0.3830
  817MOL0     H10290   6.355   5.409   4.846 -0.7785 -0.5388 -0.2698
  817MOL0     H10291   6.618   5.703   5.054  0.2813 -1.2382  0.3716
  817MOL0     H10292   6.557   5.053   4.774 -1.6781 -4.3049  0.1057
  817MOL0     H10293   6.336   4.855   4.746  0.0952 -2.0037  0.7930
  817MOL0     H10294   6.507   4.842   4.760 -0.0010  0.4541 -0.7432
  817MOL0     H10295   6.420   4.765   4.882 -1.1852  0.6785  0.8672
  818MOL0     O10296   5.507   4.911   6.517  0.1349  0.3616  0.5837
  818MOL0     C10297   5.545   5.000   6.434  0.0394 -0.2896 -1.0353
  818MOL0     O10298   5.673   5.049   6.409 -0.0129 -0.3025  0.3359
  818MOL0     C10299   5.766   4.965   6.459 -0.5815  0.0527  0.2494
  818MOL0     C10300   5.849   4.884   6.372 -0.4167  0.1107 -0.2041
  818MOL0     C10301   5.951   4.811   6.436  0.0930  0.5853 -0.1982
  818MOL0     C10302   5.981   4.824   6.574 -0.7169  0.2708  0.0443
  818MOL0     O10303   6.096   4.759   6.632  0.5963  0.0202 -0.4205
  818MOL0     C10304   6.220   4.767   6.567 -0.1173 -0.5970 -0.0807
  818MOL0     C10305   6.271   4.624   6.533 -0.2847  0.3737 -0.2290
  818MOL0     C10306   6.418   4.624   6.470 -0.7916 -0.4780 -0.1840
  818MOL0     C10307   6.506   4.513   6.521  0.5915 -0.4694 -0.0217
  818MOL0     C10308   6.596   4.463   6.402 -0.4628  0.7720  0.4171
  818MOL0     C10309   6.730   4.541   6.387 -0.8690 -0.0096  0.3846
  818MOL0     C10310   6.792   4.566   6.250  0.0363  0.2119 -0.4147
  818MOL0     C10311   6.833   4.429   6.190  0.3389  0.0202  0.5792
  818MOL0     N10312   6.948   4.370   6.265 -0.2110 -0.9392 -0.8953
  818MOL0     C10313   7.081   4.403   6.248  0.6105 -1.1936  0.5357
  818MOL0     C10314   7.151   4.314   6.317 -1.1209 -1.1226  0.1974
  818MOL0     C10315   7.300   4.309   6.320 -0.1488  0.7323 -0.1557
  818MOL0     C10316   7.350   4.383   6.444 -0.4247 -0.3895 -0.3336
  818MOL0     C10317   7.503   4.359   6.461 -0.3820  0.2226  0.1179
  818MOL0     C10318   7.558   4.439   6.577 -0.9263  0.8455  0.0644
  818MOL0     O10319   7.689   4.380   6.572 -0.9006 -0.4397 -0.7031
  818MOL0     C10320   7.781   4.455   6.641  0.5334 -0.0541 -0.0954
  818MOL0     C10321   7.912   4.450   6.596  0.1574 -0.3394 -0.4067
  818MOL0     C10322   8.016   4.515   6.656 -0.1524  0.0693 -0.1241
  818MOL0     C10323   7.985   4.612   6.756 -0.8557  0.2956 -1.1230
  818MOL0     C10324   8.090   4.700   6.824 -0.2494 -0.5944 -0.2045
  818MOL0     O10325   8.218   4.704   6.777  0.1302  0.9040  0.1912
  818MOL0     C10326   8.314   4.762   6.864  0.2170  0.0714  0.3408
  818MOL0     C10327   8.372   4.882   6.835 -0.1443 -0.3350 -0.0726
  818MOL0     C10328   8.453   4.950   6.932 -0.5262  0.5028  0.2255
  818MOL0     C10329   8.490   4.892   7.052  0.0558  0.0223 -0.7441
  818MOL0     O10330   8.575   4.964   7.132  0.3923 -0.9777 -0.5934
  818MOL0     C10331   8.659   4.872   7.207 -0.1717  0.0139 -0.1836
  818MOL0     C10332   8.757   4.956   7.283 -0.0840 -0.1311  0.0762
  818MOL0     C10333   8.833   4.859   7.374 -0.0688 -0.2049  0.1112
  818MOL0     C10334   8.952   4.789   7.293 -0.5129  0.0158 -0.6534
  818MOL0     C10335   9.007   4.671   7.375  0.2398  0.0092  0.1281
  818MOL0     C10336   9.131   4.613   7.307 -0.0333  0.7430  0.7305
  818MOL0     C10337   9.168   4.467   7.355  0.2045 -0.7203 -0.0582
  818MOL0     C10338   9.306   4.441   7.332 -0.3196  1.0044  0.5498
  818MOL0    Cl10339   9.423   4.504   7.459  0.6203 -0.1311  0.0797
  818MOL0     C10340   8.449   4.758   7.067 -0.2350 -1.1320 -0.6953
  818MOL0     C10341   8.362   4.703   6.975 -0.2586  0.7827 -0.2132
  818MOL0     O10342   8.051   4.765   6.918  0.3126 -0.1950  0.4448
  818MOL0     C10343   7.843   4.633   6.792  0.0717  0.4385 -0.2032
  818MOL0     C10344   7.752   4.543   6.749 -0.1423 -0.3740  0.6920
  818MOL0     N10345   7.060   4.235   6.383 -0.4312  0.5918 -0.4350
  818MOL0     N10346   6.940   4.259   6.340 -0.2790 -0.6297  0.5036
  818MOL0     C10347   5.898   4.897   6.659  0.3841  0.0450 -0.2447
  818MOL0     C10348   5.786   4.964   6.601 -0.3945  0.8101 -0.2789
  818MOL0     C10349   5.423   5.069   6.383 -0.4625  0.7469 -0.0679
  818MOL0     C10350   5.422   5.206   6.372 -0.0190 -0.0405  0.9066
  818MOL0     C10351   5.324   5.282   6.319 -0.5189  0.2291  0.6084
  818MOL0     C10352   5.216   5.220   6.254 -0.2754  0.3890 -0.3259
  818MOL0     O10353   5.120   5.296   6.200  0.3773  0.2497  0.0625
  818MOL0     C10354   5.041   5.245   6.094 -0.0479  0.4652 -0.4521
  818MOL0     C10355   4.948   5.354   6.031  0.2919  0.2227  0.6464
  818MOL0     C10356   5.031   5.449   5.963 -0.5165 -1.8415  0.3553
  818MOL0     C10357   4.946   5.570   5.947 -0.1769  0.9058 -0.3382
  818MOL0     C10358   5.039   5.673   5.897 -0.0177  0.6068  1.6773
  818MOL0     C10359   5.111   5.765   5.859  0.3708 -0.0384  0.0600
  818MOL0     C10360   5.210   5.079   6.261 -0.4669  0.3666 -0.6112
  818MOL0     C10361   5.312   5.005   6.320  0.5924  0.3462  1.4170
  818MOL0     C10362   5.286   4.860   6.318 -0.4454 -0.2704  1.1695
  818MOL0     H10363   5.832   4.881   6.265 -2.8359  1.1465  0.0915
  818MOL0     H10364   6.015   4.740   6.384  2.8162  1.7308  1.3238
  818MOL0     H10365   6.209   4.819   6.471  0.2913  1.5113  0.9716
  818MOL0     H10366   6.296   4.821   6.623  0.4626  0.1246 -1.5016
  818MOL0     H10367   6.206   4.571   6.463  0.0741 -0.4174  0.0246
  818MOL0     H10368   6.272   4.566   6.626 -1.5130 -3.1034 -2.1758
  818MOL0     H10369   6.467   4.710   6.516 -0.3482 -2.5164  3.5467
  818MOL0     H10370   6.417   4.643   6.362  1.6181  2.5890  0.2026
  818MOL0     H10371   6.564   4.552   6.605  1.5660 -0.5263 -0.6531
  818MOL0     H10372   6.459   4.420   6.551  0.9131 -0.3575  0.8615
  818MOL0     H10373   6.624   4.358   6.416  0.9785  0.9404 -0.9233
  818MOL0     H10374   6.545   4.459   6.305  1.3922  0.3070 -0.5991
  818MOL0     H10375   6.713   4.631   6.447  0.2453 -0.4621  1.4107
  818MOL0     H10376   6.803   4.489   6.449 -2.6680  0.2936  2.9226
  818MOL0     H10377   6.876   4.636   6.251 -0.3802  0.7113 -0.1983
  818MOL0     H10378   6.716   4.615   6.188 -1.7563 -2.3480 -0.3763
  818MOL0     H10379   6.747   4.362   6.192 -2.0902  2.5752 -3.4465
  818MOL0     H10380   6.860   4.450   6.086 -0.5127  0.7475  0.4967
  818MOL0     H10381   7.128   4.483   6.191 -0.3963 -0.8144  0.2129
  818MOL0     H10382   7.324   4.202   6.320 -1.8901  0.2973 -0.4537
  818MOL0     H10383   7.349   4.355   6.234 -0.7283  1.7578  0.0464
  818MOL0     H10384   7.318   4.488   6.441 -2.4683 -0.9222  0.6699
  818MOL0     H10385   7.308   4.339   6.535 -0.1348 -1.0565 -0.5163
  818MOL0     H10386   7.559   4.401   6.377 -0.0654 -2.1979 -0.9484
  818MOL0     H10387   7.506   4.251   6.476 -0.1305  0.3523  1.0976
  818MOL0     H10388   7.505   4.416   6.670 -0.7785  2.6615  0.6456
  818MOL0     H10389   7.560   4.547   6.557  2.9360  1.1274  1.1754
  818MOL0     H10390   7.938   4.400   6.503 -0.0301  0.0014 -0.6483
  818MOL0     H10391   8.114   4.506   6.611 -1.2704  0.6223 -2.9198
  818MOL0     H10392   8.347   4.931   6.742 -3.7066 -1.7200  0.0055
  818MOL0     H10393   8.500   5.045   6.908  0.5796 -0.4523 -1.6487
  818MOL0     H10394   8.607   4.818   7.286 -0.7818 -1.1674 -1.3370
  818MOL0     H10395   8.717   4.804   7.144 -0.5830  1.3140 -2.0407
  818MOL0     H10396   8.820   5.016   7.217 -2.8656  3.6922  0.5386
  818MOL0     H10397   8.700   5.030   7.339 -0.2339  0.1492 -0.4446
  818MOL0     H10398   8.870   4.914   7.460 -1.2257 -0.0721  0.5410
  818MOL0     H10399   8.769   4.784   7.421  0.0054 -0.0592  0.4392
  818MOL0     H10400   9.035   4.855   7.266 -0.4461 -0.9559 -3.0513
  818MOL0     H10401   8.915   4.748   7.199  2.2597 -3.0417 -0.5910
  818MOL0     H10402   8.931   4.592   7.379 -2.2466  2.2430  3.8644
  818MOL0     H10403   9.035   4.690   7.479  2.3874 -2.3009  0.0464
  818MOL0     H10404   9.114   4.611   7.199  3.5476  2.6036 -0.0016
  818MOL0     H10405   9.218   4.677   7.324  0.9826 -0.0014 -1.3357
  818MOL0     H10406   9.104   4.401   7.296  2.3137 -4.3910  1.4167
  818MOL0     H10407   9.146   4.451   7.461  1.7321  0.8520  0.5310
  818MOL0     H10408   9.297   4.332   7.330 -3.0009  1.1538  1.1934
  818MOL0     H10409   9.339   4.485   7.238  0.0510  0.9745  0.6637
  818MOL0     H10410   8.470   4.690   7.149  1.7055 -0.4215 -0.5470
  818MOL0     H10411   8.325   4.603   6.995  1.7990  0.1816  0.7948
  818MOL0     H10412   7.813   4.707   6.865  1.5472  2.0649 -1.1717
  818MOL0     H10413   7.654   4.557   6.793 -1.2074  1.3230 -1.9721
  818MOL0     H10414   5.923   4.919   6.762 -1.8001 -0.6021  0.4862
  818MOL0     H10415   5.730   5.035   6.661  1.4060  2.5227 -0.5262
  818MOL0     H10416   5.513   5.253   6.409 -0.7365 -0.1454  2.9468
  818MOL0     H10417   5.329   5.391   6.316  2.8474  0.1812 -1.1735
  818MOL0     H10418   4.978   5.164   6.132  1.3941  0.2295  1.5608
  818MOL0     H10419   5.111   5.203   6.021  1.3610 -2.9417  2.5265
  818MOL0     H10420   4.901   5.393   6.122 -0.4133 -2.5820  1.5820
  818MOL0     H10421   4.865   5.310   5.975  0.7753  0.8927 -0.6497
  818MOL0     H10422   5.055   5.413   5.863  0.2011  0.4515 -0.3690
  818MOL0     H10423   5.123   5.474   6.016  0.0462  1.2682 -1.8091
  818MOL0     H10424   4.864   5.553   5.878  2.0936 -3.1510 -2.4115
  818MOL0     H10425   4.913   5.607   6.045  0.4880  0.0229  0.2379
  818MOL0     H10426   5.173   5.850   5.838  2.1638 -1.3911 -0.4025
  818MOL0     H10427   5.128   5.024   6.217 -0.1589  1.0981 -2.1610
  818MOL0     H10428   5.255   4.818   6.221 -0.7653 -0.3796  1.3166
  818MOL0     H10429   5.380   4.806   6.327  0.5293  0.6971 -1.9895
  818MOL0     H10430   5.217   4.829   6.397 -2.5793  0.2250 -0.3877
  819MOL0     O10431   7.500   3.304   1.839  0.7209 -0.2216  0.5736
  819MOL0     C10432   7.610   3.317   1.879  0.4280  0.0824  0.0470
  819MOL0     O10433   7.688   3.429   1.865 -0.4652  0.3832  0.3576
  819MOL0     C10434   7.638   3.537   1.797  0.1146  0.6451  0.7457
  819MOL0     C10435   7.653   3.553   1.660  0.4623  0.6683 -0.2136
  819MOL0     C10436   7.599   3.674   1.598 -0.4250 -0.0471  0.2203
  819MOL0     C10437   7.545   3.781   1.671 -0.9138  0.4601  0.0411
  819MOL0     O10438   7.492   3.895   1.622 -0.3956 -0.7291  0.3895
  819MOL0     C10439   7.584   3.961   1.535  0.6091 -0.5741  0.7837
  819MOL0     C10440   7.550   4.104   1.522 -0.3816 -0.1065 -0.5144
  819MOL0     C10441   7.405   4.133   1.467  0.3944  0.7263  0.1956
  819MOL0     C10442   7.386   4.277   1.420  0.1783  0.1476 -0.8553
  819MOL0     C10443   7.493   4.326   1.319 -0.3708 -0.0317 -0.6932
  819MOL0     C10444   7.439   4.451   1.252  0.3901 -1.2987 -0.3898
  819MOL0     C10445   7.537   4.485   1.141  0.4851  0.2828  0.2611
  819MOL0     C10446   7.480   4.587   1.044  0.0013  0.1386  0.0703
  819MOL0     N10447   7.428   4.712   1.112  0.8357 -0.4511  0.2144
  819MOL0     C10448   7.294   4.733   1.158 -0.0797 -0.1211 -0.8353
  819MOL0     C10449   7.301   4.858   1.214  0.6396  0.0693 -0.7721
  819MOL0     C10450   7.187   4.944   1.274 -1.0246  1.3433  0.0223
  819MOL0     C10451   7.239   5.076   1.330  0.1641  0.5821 -0.0952
  819MOL0     C10452   7.134   5.150   1.415 -0.6610 -0.4894  0.0466
  819MOL0     C10453   7.000   5.178   1.354  0.0657 -0.2565  0.5604
  819MOL0     O10454   7.002   5.260   1.234  0.3910 -0.3174  0.0730
  819MOL0     C10455   7.042   5.392   1.248  0.3792  0.8389 -0.1532
  819MOL0     C10456   6.993   5.478   1.341  0.5654 -0.1743 -0.4357
  819MOL0     C10457   7.071   5.594   1.369  0.1367 -0.3926  0.3800
  819MOL0     C10458   7.185   5.630   1.298  1.1599  0.3578  1.2046
  819MOL0     C10459   7.268   5.745   1.329  0.0941 -0.2685  0.5993
  819MOL0     O10460   7.252   5.805   1.449  0.5353 -0.5844 -0.2713
  819MOL0     C10461   7.350   5.872   1.518  0.2570  0.3627  0.1023
  819MOL0     C10462   7.434   5.977   1.467 -0.0767 -0.4669 -0.5434
  819MOL0     C10463   7.534   6.035   1.551 -0.3098 -0.3542 -0.8621
  819MOL0     C10464   7.553   5.994   1.682 -0.2567 -0.0802 -0.2621
  819MOL0     O10465   7.637   6.036   1.783 -0.7510 -0.0783  0.2054
  819MOL0     C10466   7.694   6.161   1.748 -0.9847 -0.4396  0.0921
  819MOL0     C10467   7.740   6.242   1.872  0.1990 -0.5656  0.1409
  819MOL0     C10468   7.826   6.157   1.963  0.1959  0.4305 -0.0650
  819MOL0     C10469   7.870   6.217   2.091  0.1057  0.5799 -0.1536
  819MOL0     C10470   7.951   6.109   2.155  0.3716 -0.2287 -0.3434
  819MOL0     C10471   8.015   6.159   2.286 -0.6161  0.0029  0.0435
  819MOL0     C10472   8.069   6.050   2.377 -0.3514 -0.6486 -0.6562
  819MOL0     C10473   7.958   5.975   2.454 -0.1093 -0.4800  0.2990
  819MOL0    Cl10474   8.015   5.906   2.614  0.0462  0.3265  0.4592
  819MOL0     C10475   7.469   5.894   1.724 -0.0625  0.5444  0.8904
  819MOL0     C10476   7.358   5.839   1.648 -0.0743 -0.3356 -0.4373
  819MOL0     O10477   7.371   5.760   1.262  0.0905  1.4481 -0.6531
  819MOL0     C10478   7.221   5.549   1.185  1.5736  1.3280  0.1031
  819MOL0     C10479   7.144   5.436   1.164  0.2864  0.3789 -0.0986
  819MOL0     N10480   7.425   4.912   1.189  0.1633 -0.3881  0.7657
  819MOL0     N10481   7.495   4.829   1.130 -0.5015  0.9870 -0.5492
  819MOL0     C10482   7.540   3.771   1.806 -0.0453  0.2708  0.4323
  819MOL0     C10483   7.578   3.645   1.869 -0.7053 -1.0063  0.0446
  819MOL0     C10484   7.679   3.216   1.948 -0.0081 -0.0574 -0.8548
  819MOL0     C10485   7.665   3.200   2.089  0.2182  0.1748  0.3506
  819MOL0     C10486   7.734   3.086   2.143  0.2157 -0.7288 -0.3283
  819MOL0     C10487   7.817   3.002   2.077  0.0934 -0.0330 -0.3292
  819MOL0     O10488   7.877   2.900   2.148  0.9875 -0.6037 -0.2751
  819MOL0     C10489   7.916   2.790   2.063  0.5538 -0.7462  0.4585
  819MOL0     C10490   7.890   2.656   2.139 -0.0598 -0.0787  0.1133
  819MOL0     C10491   7.874   2.530   2.053  0.0471  0.5159  0.9761
  819MOL0     C10492   7.847   2.404   2.126 -0.1170  0.1457 -0.3639
  819MOL0     C10493   7.907   2.289   2.050 -0.1844  0.5044  0.6331
  819MOL0     C10494   7.957   2.190   1.990 -0.0775 -0.5329  0.0927
  819MOL0     C10495   7.836   3.028   1.943  0.2905  0.2129 -0.4839
  819MOL0     C10496   7.771   3.140   1.877  0.6627  0.3575 -0.6216
  819MOL0     C10497   7.786   3.161   1.730  0.7121 -0.3997  0.1432
  819MOL0     H10498   7.693   3.469   1.604 -2.3472 -1.3735  0.6163
  819MOL0     H10499   7.601   3.682   1.490 -0.6640 -0.5812  0.1708
  819MOL0     H10500   7.681   3.962   1.585  2.0205 -2.1232 -1.7183
  819MOL0     H10501   7.592   3.915   1.436 -0.9932 -0.8202  0.7473
  819MOL0     H10502   7.627   4.141   1.453 -0.1667  0.1885 -0.1146
  819MOL0     H10503   7.553   4.151   1.620 -1.9117  0.3015 -0.6416
  819MOL0     H10504   7.334   4.094   1.540  3.1213 -2.7702  1.2554
  819MOL0     H10505   7.386   4.075   1.376  3.5360  2.6737 -1.9064
  819MOL0     H10506   7.282   4.291   1.389 -0.4958  1.9353  1.8546
  819MOL0     H10507   7.390   4.340   1.509  1.8781 -0.3582 -0.5356
  819MOL0     H10508   7.592   4.339   1.363 -1.0614 -1.1593  1.3186
  819MOL0     H10509   7.499   4.252   1.239  0.8978 -2.4150  1.4555
  819MOL0     H10510   7.342   4.426   1.208 -0.2036 -1.1052  0.7623
  819MOL0     H10511   7.428   4.536   1.321 -0.3262 -1.4428 -0.3231
  819MOL0     H10512   7.574   4.396   1.089 -0.2945 -0.2292  0.5615
  819MOL0     H10513   7.620   4.527   1.199  1.0852 -0.2671 -0.1806
  819MOL0     H10514   7.556   4.626   0.976 -1.6284  1.5010 -1.0429
  819MOL0     H10515   7.399   4.545   0.985 -1.8861  0.9087  1.9825
  819MOL0     H10516   7.210   4.666   1.167 -1.0580  1.2037  0.3229
  819MOL0     H10517   7.109   4.945   1.197 -0.5343 -2.5358 -0.7760
  819MOL0     H10518   7.130   4.893   1.352  0.9733 -0.2065  0.5600
  819MOL0     H10519   7.325   5.068   1.398  0.4834  2.1025 -0.2792
  819MOL0     H10520   7.269   5.138   1.244 -0.8879 -1.1932 -1.8192
  819MOL0     H10521   7.174   5.242   1.458  0.5813 -0.6919 -0.6332
  819MOL0     H10522   7.122   5.086   1.503 -0.3628  1.5859  1.6807
  819MOL0     H10523   6.938   5.242   1.418  0.2942  0.6513 -0.1057
  819MOL0     H10524   6.941   5.089   1.332 -0.5892 -0.1200  1.6927
  819MOL0     H10525   6.910   5.471   1.410 -0.2790  2.3989 -1.0535
  819MOL0     H10526   7.044   5.651   1.457 -2.5686  0.0805 -0.6511
  819MOL0     H10527   7.422   6.024   1.370 -1.0860  1.6523  0.5219
  819MOL0     H10528   7.593   6.118   1.514 -0.6089  0.9177  1.3080
  819MOL0     H10529   7.793   6.136   1.708  0.4553  0.2159  2.9765
  819MOL0     H10530   7.637   6.222   1.677  2.5905  1.8264 -1.1394
  819MOL0     H10531   7.798   6.327   1.834 -0.3063  1.4460  3.4887
  819MOL0     H10532   7.648   6.274   1.921  0.1991 -0.1180 -0.1368
  819MOL0     H10533   7.759   6.073   1.985 -1.6125  1.6252 -0.7475
  819MOL0     H10534   7.910   6.117   1.904 -0.2288 -0.8222  0.1442
  819MOL0     H10535   7.794   6.258   2.159 -3.9967 -0.9203 -3.4299
  819MOL0     H10536   7.935   6.299   2.062 -1.5591  2.0888  0.1661
  819MOL0     H10537   8.023   6.065   2.086  1.0701  0.9800 -0.4027
  819MOL0     H10538   7.880   6.029   2.180  0.0897  0.3411  0.7397
  819MOL0     H10539   8.101   6.220   2.257 -1.6093  1.0058 -0.8779
  819MOL0     H10540   7.949   6.231   2.336  0.4428  1.0146  0.0437
  819MOL0     H10541   8.134   6.092   2.453 -0.3951  0.8514 -1.4069
  819MOL0     H10542   8.121   5.973   2.319 -0.9718 -0.5252 -1.4091
  819MOL0     H10543   7.876   6.045   2.472 -0.1037 -0.4994  0.4067
  819MOL0     H10544   7.927   5.901   2.380 -1.0118 -0.8647  1.0420
  819MOL0     H10545   7.482   5.842   1.818 -2.0354 -0.0241  0.8771
  819MOL0     H10546   7.296   5.763   1.695 -0.4401 -0.0136 -0.3926
  819MOL0     H10547   7.289   5.593   1.112 -1.4184  0.0196 -3.8189
  819MOL0     H10548   7.165   5.361   1.088 -0.3376 -0.4267  0.4929
  819MOL0     H10549   7.499   3.837   1.882 -1.7040 -1.2892  0.9945
  819MOL0     H10550   7.587   3.642   1.977  2.5666  0.5199 -0.0863
  819MOL0     H10551   7.610   3.265   2.155  2.1778  0.2741  1.9898
  819MOL0     H10552   7.725   3.079   2.251  1.8276 -0.0292 -0.1257
  819MOL0     H10553   8.020   2.805   2.034  0.8883 -0.4712  1.7312
  819MOL0     H10554   7.845   2.785   1.981  0.1671  1.8434  0.5655
  819MOL0     H10555   7.798   2.661   2.199  1.1303 -2.2422  2.3284
  819MOL0     H10556   7.972   2.639   2.210  0.8939 -0.7783 -1.1199
  819MOL0     H10557   7.962   2.517   1.989  1.2342 -1.2943  2.8390
  819MOL0     H10558   7.794   2.553   1.981 -0.1129  2.3991  1.7211
  819MOL0     H10559   7.900   2.412   2.221  1.4872  0.8438 -1.2706
  819MOL0     H10560   7.739   2.388   2.135 -0.3477  0.2408 -2.5110
  819MOL0     H10561   7.999   2.113   1.928  2.2139 -0.9507  1.9954
  819MOL0     H10562   7.892   2.964   1.876 -1.4232 -2.0350  0.1425
  819MOL0     H10563   7.698   3.184   1.668  0.0228 -0.6026  1.0262
  819MOL0     H10564   7.855   3.244   1.714  0.7949 -0.4099  0.4498
  819MOL0     H10565   7.836   3.074   1.686 -1.2817 -0.0219 -3.2294
  820MOL0     O10566   8.829  10.000  10.896 -0.0281  0.4947  0.3591
  820MOL0     C10567   8.817  10.106  10.956  0.3553  0.0265  0.3977
  820MOL0     O10568   8.920  10.168  11.020  0.2012  0.4207 -1.6283
  820MOL0     C10569   9.043  10.104  11.032  0.4207 -0.3243  0.1351
  820MOL0     C10570   9.089  10.078  11.159  0.2119  0.2319 -0.2951
  820MOL0     C10571   9.211  10.020  11.192 -1.3157 -0.6015 -0.4847
  820MOL0     C10572   9.315  10.028  11.091  0.1816 -0.0322 -0.4951
  820MOL0     O10573   9.453   9.988  11.117 -0.7846 -0.1622 -0.4217
  820MOL0     C10574   9.469   9.912  11.243 -0.0389 -0.2225  0.6996
  820MOL0     C10575   9.607   9.849  11.260  0.4267  0.8087  0.5856
  820MOL0     C10576   9.623   9.712  11.188 -0.0589  0.4448  0.3999
  820MOL0     C10577   9.757   9.639  11.233 -0.0122  0.0846  0.2350
  820MOL0     C10578   9.778   9.496  11.170 -0.2608 -0.6590  0.0259
  820MOL0     C10579   9.699   9.391  11.245 -0.3078  0.3281 -0.0618
  820MOL0     C10580   9.700   9.245  11.187  0.4401 -0.0332  0.4579
  820MOL0     C10581   9.603   9.147  11.270  0.0769 -0.5048 -0.3165
  820MOL0     N10582   9.459   9.173  11.255  0.0088  0.9558 -0.0487
  820MOL0     C10583   9.394   9.276  11.186 -0.3208 -0.1527 -0.6543
  820MOL0     C10584   9.262   9.231  11.194 -0.3803  0.0651  0.3712
  820MOL0     C10585   9.146   9.310  11.133  0.3643 -0.1450  0.8247
  820MOL0     C10586   9.029   9.312  11.217  0.0828 -0.1839  0.6176
  820MOL0     C10587   8.910   9.356  11.141 -0.1421  0.0541 -0.1849
  820MOL0     C10588   8.791   9.306  11.225  0.5740 -0.0446  0.6686
  820MOL0     O10589   8.664   9.368  11.189 -0.4226 -0.2589  0.4913
  820MOL0     C10590   8.588   9.300  11.106 -0.1580 -1.0674  0.0577
  820MOL0     C10591   8.631   9.226  10.999  0.3230  0.4970  1.0390
  820MOL0     C10592   8.538   9.162  10.916  0.3157  0.0285 -0.7891
  820MOL0     C10593   8.402   9.193  10.925  0.5863  0.4176 -0.0305
  820MOL0     C10594   8.308   9.146  10.812 -0.3647  1.1172 -0.6454
  820MOL0     O10595   8.173   9.171  10.827  0.3585 -0.0169  0.1603
  820MOL0     C10596   8.090   9.154  10.715  0.3378 -0.6406  0.4950
  820MOL0     C10597   8.000   9.260  10.690 -0.2011 -0.5623 -0.1828
  820MOL0     C10598   7.906   9.244  10.595 -0.0976 -0.1445 -0.2401
  820MOL0     C10599   7.906   9.143  10.501 -0.3761  0.3415 -0.6324
  820MOL0     O10600   7.817   9.133  10.398  0.7831  0.2706 -0.4905
  820MOL0     C10601   7.688   9.194  10.421 -0.5605  0.5512  0.1491
  820MOL0     C10602   7.592   9.121  10.324 -0.7038 -0.2413 -0.2321
  820MOL0     C10603   7.448   9.177  10.331  0.0045 -0.3229 -0.4459
  820MOL0     C10604   7.363   9.095  10.234  0.7818  0.3664 -0.0405
  820MOL0     C10605   7.221   9.147  10.237 -0.7918  0.7755  0.3292
  820MOL0     C10606   7.115   9.064  10.167 -0.0129  0.1035  0.5423
  820MOL0     C10607   7.085   8.929  10.221  0.3279 -0.0248 -0.6452
  820MOL0     C10608   6.942   8.930  10.268  0.4141  0.5321  0.0077
  820MOL0    Cl10609   6.818   8.958  10.139 -0.1878 -0.2278  0.0013
  820MOL0     C10610   7.998   9.037  10.523  0.7095 -0.0463 -0.3997
  820MOL0     C10611   8.090   9.049  10.621  0.0034  0.1894 -0.2481
  820MOL0     O10612   8.363   9.095  10.716 -0.1121  0.3007 -0.0818
  820MOL0     C10613   8.351   9.268  11.030  0.1877  0.2363  1.1645
  820MOL0     C10614   8.450   9.329  11.114 -0.6430  0.2208 -0.1277
  820MOL0     N10615   9.254   9.115  11.266 -0.5023 -0.9697 -0.0675
  820MOL0     N10616   9.371   9.074  11.289 -0.5677  0.4434 -0.7676
  820MOL0     C10617   9.270  10.067  10.963  0.4539 -0.1625 -0.0814
  820MOL0     C10618   9.133  10.108  10.925 -0.5208  1.1827 -0.4989
  820MOL0     C10619   8.669  10.148  10.952 -0.6687 -0.5103 -0.6677
  820MOL0     C10620   8.577  10.094  10.871  0.1491  0.1702  0.9579
  820MOL0     C10621   8.437  10.113  10.878 -0.4267  0.5480 -0.0531
  820MOL0     C10622   8.386  10.204  10.971 -0.2618 -0.5565  0.7456
  820MOL0     O10623   8.251  10.221  11.002  0.0335 -0.5500 -0.1491
  820MOL0     C10624   8.140  10.140  10.948 -0.4232 -1.1745 -0.9325
  820MOL0     C10625   8.021  10.145  11.035 -0.1303 -0.2239 -0.3657
  820MOL0     C10626   7.904  10.059  10.983  0.1071  0.6058  0.7647
  820MOL0     C10627   7.777  10.038  11.064 -0.2112  0.0161 -0.0186
  820MOL0     C10628   7.814   9.944  11.171  0.3486  0.1264 -0.3808
  820MOL0     C10629   7.840   9.860  11.260 -0.6376  0.5293  0.2380
  820MOL0     C10630   8.486  10.275  11.041 -0.1260 -0.7145 -0.5644
  820MOL0     C10631   8.624  10.254  11.029  0.4486 -0.2983 -0.5147
  820MOL0     C10632   8.705  10.330  11.140  0.5447 -0.1000 -0.7825
  820MOL0     H10633   9.011  10.080  11.235  0.5492 -0.5726  0.0885
  820MOL0     H10634   9.241   9.978  11.288  1.8922 -4.3383 -2.8297
  820MOL0     H10635   9.453   9.983  11.325  1.7063 -1.2031  1.9337
  820MOL0     H10636   9.387   9.841  11.231 -0.5238  0.5235 -0.7227
  820MOL0     H10637   9.615   9.848  11.369 -1.3467 -1.3224  0.7860
  820MOL0     H10638   9.681   9.912  11.210 -0.3371  0.9874 -0.3369
  820MOL0     H10639   9.607   9.726  11.081  0.0692  0.6301  0.4047
  820MOL0     H10640   9.539   9.648  11.217 -1.3163  2.1625  0.6830
  820MOL0     H10641   9.842   9.696  11.194  0.8133 -0.0933  1.6921
  820MOL0     H10642   9.763   9.629  11.341 -0.9302 -0.0556  0.2753
  820MOL0     H10643   9.759   9.495  11.063 -2.2527  2.1094  0.2606
  820MOL0     H10644   9.882   9.460  11.174  0.4233  0.8377 -2.4575
  820MOL0     H10645   9.744   9.379  11.344 -0.2753  1.4743  0.0762
  820MOL0     H10646   9.593   9.421  11.246 -0.5979  0.1927 -4.6560
  820MOL0     H10647   9.806   9.220  11.193  1.2865  3.1470  0.5519
  820MOL0     H10648   9.678   9.236  11.080  0.8062 -1.1563  0.4698
  820MOL0     H10649   9.623   9.047  11.232  2.5694  0.1027 -0.8171
  820MOL0     H10650   9.628   9.157  11.376 -1.3351  4.1601 -0.1840
  820MOL0     H10651   9.433   9.369  11.144 -1.7787  1.0469  0.5109
  820MOL0     H10652   9.187   9.410  11.113  2.9710 -1.6515 -2.4696
  820MOL0     H10653   9.114   9.274  11.035 -1.2545 -0.7100  1.5315
  820MOL0     H10654   9.008   9.210  11.251  2.9404 -1.4818 -1.1638
  820MOL0     H10655   9.035   9.377  11.305 -0.7900 -0.5701  0.9756
  820MOL0     H10656   8.895   9.317  11.040  0.5381 -0.6539 -0.0142
  820MOL0     H10657   8.903   9.465  11.131  0.4120 -0.0645 -2.7500
  820MOL0     H10658   8.807   9.349  11.324  0.8721  1.0434  0.1600
  820MOL0     H10659   8.786   9.196  11.224  0.1271 -0.0447 -1.0965
  820MOL0     H10660   8.735   9.200  10.979 -0.4505  0.3648 -3.9630
  820MOL0     H10661   8.561   9.103  10.827 -0.9987 -1.2298 -0.3381
  820MOL0     H10662   8.000   9.346  10.757  1.2835 -0.4090 -0.3380
  820MOL0     H10663   7.833   9.320  10.570 -0.4930 -0.6593 -0.6681
  820MOL0     H10664   7.653   9.166  10.521 -2.1636 -0.2008 -0.5917
  820MOL0     H10665   7.690   9.303  10.412 -1.0198  0.5802  0.4149
  820MOL0     H10666   7.617   9.121  10.218  0.8544  1.9796  0.0630
  820MOL0     H10667   7.586   9.019  10.363 -1.0659  0.8189  2.8000
  820MOL0     H10668   7.398   9.170  10.429 -1.4664  0.9181 -1.0597
  820MOL0     H10669   7.448   9.277  10.286 -1.5927  0.6405  1.4842
  820MOL0     H10670   7.375   8.989  10.257  1.6595  0.0853 -1.6858
  820MOL0     H10671   7.402   9.104  10.132  4.3282 -1.5003  0.9839
  820MOL0     H10672   7.223   9.249  10.197  3.4842  1.0613  0.7829
  820MOL0     H10673   7.204   9.146  10.345  1.9096  1.9520  0.8428
  820MOL0     H10674   7.026   9.128  10.173  0.4684  0.8185  0.1631
  820MOL0     H10675   7.150   9.054  10.064  0.7342  3.3161  0.3861
  820MOL0     H10676   7.139   8.911  10.314 -1.1586  1.8921  0.6434
  820MOL0     H10677   7.101   8.856  10.141 -1.1277  3.6266 -4.6929
  820MOL0     H10678   6.916   8.830  10.304 -1.5318  0.7889 -0.5922
  820MOL0     H10679   6.935   9.004  10.349  1.3511  2.4265 -1.5622
  820MOL0     H10680   8.003   8.950  10.458  0.1178 -1.1478  0.9740
  820MOL0     H10681   8.151   8.962  10.642  0.2607  0.5383  0.4733
  820MOL0     H10682   8.245   9.289  11.024  0.0167 -0.9008 -0.4983
  820MOL0     H10683   8.402   9.387  11.193 -0.9814 -1.7626  1.1841
  820MOL0     H10684   9.357  10.069  10.899  1.6805  0.6067  1.5315
  820MOL0     H10685   9.097  10.142  10.828 -1.8863  2.3148  0.3755
  820MOL0     H10686   8.617  10.028  10.794  1.9352  1.2347  0.9154
  820MOL0     H10687   8.381  10.068  10.796 -0.0013  3.1805 -1.9208
  820MOL0     H10688   8.181  10.042  10.922 -0.9510 -1.1092 -2.0826
  820MOL0     H10689   8.116  10.182  10.850  1.4826 -1.6221 -1.6505
  820MOL0     H10690   8.003  10.250  11.059  1.1958  0.3847 -1.8052
  820MOL0     H10691   8.043  10.088  11.125 -3.0105 -4.4536 -2.0410
  820MOL0     H10692   7.945   9.963  10.950 -1.1052 -0.1356  1.3284
  820MOL0     H10693   7.868  10.098  10.887  2.0708  0.3643 -0.1268
  820MOL0     H10694   7.743  10.133  11.105  0.5558 -0.2910  1.3973
  820MOL0     H10695   7.697   9.992  11.005  0.8024  0.2548 -1.6539
  820MOL0     H10696   7.834   9.792  11.342  3.5929  2.1618  2.1676
  820MOL0     H10697   8.453  10.344  11.118  1.2713 -1.1211  0.4526
  820MOL0     H10698   8.790  10.384  11.097  2.4243 -1.4548  1.0509
  820MOL0     H10699   8.631  10.396  11.186 -0.9849  0.2297 -3.5557
  820MOL0     H10700   8.744  10.264  11.218  1.1463  1.0737 -0.0515
  821MOL0     O10701   6.674   8.843   6.519  0.7335  0.2823 -0.4978
  821MOL0     C10702   6.767   8.878   6.445  0.2437  0.6667 -0.2339
  821MOL0     O10703   6.767   8.969   6.352  0.2926 -0.4398  0.9551
  821MOL0     C10704   6.661   9.065   6.328 -0.3307 -0.2114  0.1621
  821MOL0     C10705   6.677   9.164   6.227  0.8301  0.2328 -0.0338
  821MOL0     C10706   6.582   9.260   6.193  0.0409  1.1226 -0.7388
  821MOL0     C10707   6.464   9.270   6.268  0.3419 -0.7448  0.1365
  821MOL0     O10708   6.374   9.366   6.242  0.6204 -0.1101 -0.0195
  821MOL0     C10709   6.259   9.311   6.170 -0.3954  0.3082  0.4256
  821MOL0     C10710   6.285   9.254   6.030 -0.1733  1.1363 -1.2504
  821MOL0     C10711   6.162   9.224   5.949 -0.0116  0.2135  0.2490
  821MOL0     C10712   6.197   9.147   5.830 -0.1426  0.5949 -0.3836
  821MOL0     C10713   6.085   9.149   5.722  0.4269 -0.8116  0.2228
  821MOL0     C10714   5.964   9.062   5.746  0.2723 -0.4618  0.0282
  821MOL0     C10715   5.833   9.082   5.671 -0.0691 -0.2722 -0.0975
  821MOL0     C10716   5.852   9.077   5.515  0.8028 -0.0265  0.2659
  821MOL0     N10717   5.725   9.100   5.462 -0.5546  0.1013  0.4160
  821MOL0     C10718   5.619   9.014   5.471 -0.2991  0.0139  0.2931
  821MOL0     C10719   5.526   9.073   5.401  0.2759 -0.2687  0.0396
  821MOL0     C10720   5.383   9.022   5.380  0.1835 -0.3180  0.2130
  821MOL0     C10721   5.297   9.019   5.506  0.7447 -0.1942  0.0779
  821MOL0     C10722   5.315   8.895   5.598 -0.1979 -0.6199 -0.3687
  821MOL0     C10723   5.252   8.933   5.740  0.5575  0.1581  0.0759
  821MOL0     O10724   5.339   9.021   5.815 -0.8837 -0.4227  0.1237
  821MOL0     C10725   5.275   9.084   5.922  0.1476  0.0594  0.6093
  821MOL0     C10726   5.337   9.209   5.961 -0.8621  0.1309  0.2695
  821MOL0     C10727   5.272   9.298   6.048 -0.5216 -0.0742 -0.3240
  821MOL0     C10728   5.150   9.262   6.106  0.1803  0.0717  0.9055
  821MOL0     C10729   5.092   9.356   6.209  0.0931 -0.0474 -0.2704
  821MOL0     O10730   4.981   9.323   6.282 -0.8786  0.8648  0.1355
  821MOL0     C10731   4.951   9.419   6.380  0.6496  0.1839 -0.1522
  821MOL0     C10732   4.847   9.509   6.354 -0.4752  0.0777  0.0269
  821MOL0     C10733   4.810   9.584   6.467  0.2864  0.1695  0.8277
  821MOL0     C10734   4.872   9.576   6.598 -0.1438  0.0261 -0.0691
  821MOL0     O10735   4.832   9.665   6.700  0.6877  0.1553  0.2252
  821MOL0     C10736   4.928   9.699   6.797  0.0632  0.0305 -0.6991
  821MOL0     C10737   4.905   9.846   6.844  0.7899  0.1345 -1.1169
  821MOL0     C10738   4.915   9.955   6.742 -1.1443  0.4524  0.0300
  821MOL0     C10739   4.806   9.967   6.633  0.9580  0.2016 -0.4168
  821MOL0     C10740   4.760  10.114   6.615 -0.5994 -0.5005  0.2240
  821MOL0     C10741   4.886  10.200   6.570  0.9839 -0.4272 -0.2105
  821MOL0     C10742   4.829  10.317   6.488 -0.3387  0.1007  1.0564
  821MOL0     C10743   4.756  10.417   6.565  0.4321 -0.0073 -0.1870
  821MOL0    Cl10744   4.717  10.552   6.443  0.2421  0.0769 -0.0385
  821MOL0     C10745   4.973   9.481   6.610 -0.5192  0.8317  0.2182
  821MOL0     C10746   5.015   9.403   6.503 -1.0757 -0.3935  0.4548
  821MOL0     O10747   5.148   9.461   6.220  0.0141 -0.1219 -0.5051
  821MOL0     C10748   5.090   9.139   6.079 -0.2329 -0.5460  0.2362
  821MOL0     C10749   5.151   9.051   5.987 -0.0500 -0.2968 -0.3150
  821MOL0     N10750   5.576   9.188   5.347 -0.2156 -0.1705 -0.7547
  821MOL0     N10751   5.695   9.204   5.387 -0.1707  0.6611 -0.2172
  821MOL0     C10752   6.456   9.182   6.377  0.2449 -0.4253 -0.7805
  821MOL0     C10753   6.549   9.087   6.409  0.3408  1.1844  0.2251
  821MOL0     C10754   6.889   8.790   6.451 -0.1631 -0.3377  0.7477
  821MOL0     C10755   6.895   8.676   6.525  0.6029 -0.8437 -0.2468
  821MOL0     C10756   7.009   8.602   6.539  0.3002  0.0127  0.2995
  821MOL0     C10757   7.128   8.629   6.478 -0.4321  0.1999 -0.8203
  821MOL0     O10758   7.238   8.537   6.480  0.0957 -0.3152  0.1295
  821MOL0     C10759   7.305   8.495   6.604 -0.3972  0.7004 -0.0309
  821MOL0     C10760   7.327   8.603   6.711 -0.2061 -0.3550  0.4975
  821MOL0     C10761   7.395   8.557   6.836  0.1080  0.8740  0.2422
  821MOL0     C10762   7.297   8.507   6.951  0.3571  0.9487 -0.5920
  821MOL0     C10763   7.364   8.476   7.079 -0.2210 -0.0122  0.5994
  821MOL0     C10764   7.414   8.448   7.185  0.0443  0.1983  0.0226
  821MOL0     C10765   7.133   8.738   6.401 -1.2731 -0.6397  0.2608
  821MOL0     C10766   7.016   8.828   6.385 -1.1712 -0.0358 -0.4124
  821MOL0     C10767   7.040   8.949   6.301  0.4512 -0.3431  0.8164
  821MOL0     H10768   6.757   9.136   6.159  3.5028  2.2714  2.0317
  821MOL0     H10769   6.580   9.309   6.096 -1.7230 -3.0755 -3.0888
  821MOL0     H10770   6.217   9.232   6.232 -0.1803  0.3103  0.5755
  821MOL0     H10771   6.181   9.386   6.159 -0.9978  0.1240  2.9458
  821MOL0     H10772   6.337   9.161   6.056 -2.8380 -0.4395 -1.1645
  821MOL0     H10773   6.347   9.320   5.969  1.7003  0.4337 -0.1863
  821MOL0     H10774   6.123   9.320   5.913  0.0005 -0.6771 -2.4117
  821MOL0     H10775   6.082   9.178   6.008  0.6977  0.2518  1.2624
  821MOL0     H10776   6.282   9.200   5.787 -1.2775  2.4749 -0.4051
  821MOL0     H10777   6.227   9.043   5.845 -0.6634  0.5526  0.4502
  821MOL0     H10778   6.045   9.251   5.718 -0.6310 -1.1140  1.9527
  821MOL0     H10779   6.126   9.122   5.625 -2.2639 -0.7870 -1.0188
  821MOL0     H10780   5.992   8.957   5.735 -1.6207 -0.8795 -1.3698
  821MOL0     H10781   5.935   9.072   5.850  1.9923  0.8027  0.4383
  821MOL0     H10782   5.783   9.176   5.696  1.6934  0.7252 -0.1460
  821MOL0     H10783   5.765   9.005   5.708  2.9634 -1.4129  3.8851
  821MOL0     H10784   5.928   9.149   5.483  2.6947 -1.4751  1.2887
  821MOL0     H10785   5.889   8.976   5.494 -0.2956 -0.5213  0.6101
  821MOL0     H10786   5.614   8.922   5.529  4.3963 -0.7020 -0.0715
  821MOL0     H10787   5.338   9.087   5.305  0.3586 -2.2741 -1.6908
  821MOL0     H10788   5.385   8.920   5.339 -0.2844 -0.1990 -0.1152
  821MOL0     H10789   5.312   9.109   5.566 -0.7240 -0.0897  0.3289
  821MOL0     H10790   5.199   9.031   5.459  0.0888  2.4160  1.8801
  821MOL0     H10791   5.419   8.870   5.618 -1.0537 -1.2821  4.4701
  821MOL0     H10792   5.246   8.820   5.560  0.2605 -0.2008 -2.1193
  821MOL0     H10793   5.243   8.837   5.793  2.8877 -0.4279 -0.4407
  821MOL0     H10794   5.155   8.982   5.729  0.1048  0.3033  3.5272
  821MOL0     H10795   5.422   9.229   5.897 -0.3836 -2.8302 -0.1808
  821MOL0     H10796   5.302   9.402   6.053  0.3840 -0.3757  1.0805
  821MOL0     H10797   4.798   9.502   6.257 -2.9581 -0.4971  1.2451
  821MOL0     H10798   4.744   9.670   6.451  1.2915  1.0803  1.4486
  821MOL0     H10799   4.937   9.630   6.881  0.3364 -0.6981 -1.3114
  821MOL0     H10800   5.031   9.704   6.759 -0.1552  2.5033 -1.1742
  821MOL0     H10801   4.812   9.856   6.901  2.4735 -1.1016  2.0743
  821MOL0     H10802   4.978   9.868   6.922 -0.9574 -0.0518  0.6570
  821MOL0     H10803   4.921  10.053   6.791 -2.5862  1.0571 -0.9277
  821MOL0     H10804   5.007   9.928   6.689  0.8346 -0.9488  3.8156
  821MOL0     H10805   4.723   9.902   6.665  2.0210 -1.9989 -1.8517
  821MOL0     H10806   4.841   9.937   6.533  3.7317  1.2067  0.1721
  821MOL0     H10807   4.722  10.150   6.711 -1.0769 -0.0074 -0.1376
  821MOL0     H10808   4.673  10.114   6.548 -1.2169 -1.7788  1.0092
  821MOL0     H10809   4.940  10.242   6.655 -0.2593  1.9820 -0.5243
  821MOL0     H10810   4.948  10.124   6.521  1.9458  0.5209 -0.4955
  821MOL0     H10811   4.776  10.285   6.398  0.8561 -1.3195  0.8272
  821MOL0     H10812   4.915  10.370   6.445  0.0055 -0.5273  0.9661
  821MOL0     H10813   4.668  10.376   6.615  0.2349  0.7316  0.0814
  821MOL0     H10814   4.819  10.463   6.642 -1.8958  1.3231  1.0140
  821MOL0     H10815   5.019   9.463   6.707  0.8095 -0.3895 -0.5894
  821MOL0     H10816   5.099   9.335   6.499 -0.2263  0.6896 -1.9497
  821MOL0     H10817   4.992   9.111   6.115  0.3380 -4.4019 -0.6871
  821MOL0     H10818   5.104   8.957   5.961  0.7436 -0.7751 -0.0629
  821MOL0     H10819   6.360   9.189   6.426  0.3414 -0.2946 -0.6078
  821MOL0     H10820   6.525   9.028   6.497 -0.3124  0.6338 -0.3079
  821MOL0     H10821   6.810   8.649   6.587  1.8575  0.0745  2.0025
  821MOL0     H10822   6.996   8.506   6.587 -0.0977 -0.0744  0.0200
  821MOL0     H10823   7.394   8.433   6.589  1.1621  2.7869  0.2207
  821MOL0     H10824   7.240   8.414   6.639  1.2990 -1.1844 -0.9887
  821MOL0     H10825   7.227   8.632   6.745 -1.5762 -2.6509 -1.2202
  821MOL0     H10826   7.382   8.686   6.666 -1.6210  0.1917 -0.3031
  821MOL0     H10827   7.447   8.638   6.887  1.6205 -0.6471  1.2508
  821MOL0     H10828   7.471   8.485   6.803 -1.8632 -0.2996 -2.0113
  821MOL0     H10829   7.230   8.591   6.971 -0.3409  0.4008 -0.5728
  821MOL0     H10830   7.230   8.423   6.931  0.8113  0.4925 -0.2158
  821MOL0     H10831   7.462   8.404   7.270 -2.0667 -3.4786 -0.4595
  821MOL0     H10832   7.234   8.748   6.362 -1.4600 -2.6075 -0.8313
  821MOL0     H10833   7.029   8.929   6.194 -2.5227  0.5318  0.8686
  821MOL0     H10834   6.975   9.031   6.334 -0.5112 -0.4431 -0.6951
  821MOL0     H10835   7.143   8.982   6.314  0.1644 -0.0006  2.3972
  822MOL0     O10836   0.150   5.089   2.199 -0.2010 -0.4602  0.3819
  822MOL0     C10837   0.091   5.142   2.100  0.2769 -0.3991 -0.4862
  822MOL0     O10838   0.107   5.273   2.055 -0.0031  0.6645  0.1239
  822MOL0     C10839   0.165   5.374   2.135 -0.0921  0.0940  0.7002
  822MOL0     C10840   0.156   5.386   2.272 -0.4801 -0.0948 -0.1687
  822MOL0     C10841   0.229   5.490   2.340 -0.7195  0.1776 -0.4381
  822MOL0     C10842   0.280   5.601   2.273  0.7184  0.1230  0.9299
  822MOL0     O10843   0.338   5.707   2.331  0.3820  0.1155  0.3536
  822MOL0     C10844   0.411   5.681   2.453  0.1438 -0.3860  0.9756
  822MOL0     C10845   0.342   5.745   2.576 -0.0631  0.7678 -0.3653
  822MOL0     C10846   0.277   5.880   2.543 -0.3526  1.2735  0.2744
  822MOL0     C10847   0.383   5.996   2.515  0.7721  1.6027  0.6697
  822MOL0     C10848   0.322   6.122   2.467 -0.4000  0.6983 -0.1273
  822MOL0     C10849   0.439   6.216   2.421 -0.7830  0.2263 -0.0056
  822MOL0     C10850   0.516   6.281   2.543  0.4360  0.6191 -0.4494
  822MOL0     C10851   0.540   6.423   2.518  0.2863  0.2313 -0.0656
  822MOL0     N10852   0.653   6.466   2.426  0.4363 -0.1362 -0.0848
  822MOL0     C10853   0.653   6.443   2.292  0.5884  0.4349  0.7277
  822MOL0     C10854   0.776   6.480   2.257 -0.4279 -0.6914  0.0193
  822MOL0     C10855   0.839   6.471   2.120 -0.4967 -0.3896  0.1165
  822MOL0     C10856   0.830   6.593   2.033 -0.1861  0.2182  0.2702
  822MOL0     C10857   0.942   6.698   2.045  1.0589 -0.0869  0.7149
  822MOL0     C10858   1.074   6.645   2.008 -0.3227 -1.0075 -0.1551
  822MOL0     O10859   1.080   6.603   1.871  0.8600  0.6488 -0.2640
  822MOL0     C10860   1.196   6.593   1.809 -0.2235 -0.1782  1.4030
  822MOL0     C10861   1.209   6.592   1.668  0.4546  0.8215 -0.3661
  822MOL0     C10862   1.330   6.582   1.598 -0.6186 -1.1284 -0.2528
  822MOL0     C10863   1.455   6.578   1.670 -0.0227  0.1322 -0.1222
  822MOL0     C10864   1.585   6.573   1.601 -0.0237 -0.5267 -0.1336
  822MOL0     O10865   1.687   6.631   1.675  0.1292 -0.5561 -0.3081
  822MOL0     C10866   1.811   6.628   1.616 -0.1181  0.1585  0.6614
  822MOL0     C10867   1.891   6.747   1.609 -0.2260 -0.1182  0.1133
  822MOL0     C10868   2.018   6.751   1.540  0.9036  0.6617 -0.1138
  822MOL0     C10869   2.063   6.617   1.501  0.0243 -0.5681 -0.6446
  822MOL0     O10870   2.187   6.593   1.441  0.4506 -0.1137 -0.3978
  822MOL0     C10871   2.284   6.703   1.454  0.5703 -0.5400 -0.0371
  822MOL0     C10872   2.421   6.677   1.395 -1.5261 -0.7690 -0.2283
  822MOL0     C10873   2.508   6.805   1.414 -0.2848  0.2206  0.3778
  822MOL0     C10874   2.585   6.796   1.547 -0.1738 -0.4479 -0.6381
  822MOL0     C10875   2.708   6.699   1.534 -0.1098 -0.1669  0.5934
  822MOL0     C10876   2.835   6.723   1.622  0.2310 -0.2760  0.1315
  822MOL0     C10877   2.792   6.716   1.772  0.5756  1.0982 -0.0066
  822MOL0     C10878   2.914   6.763   1.860 -0.1094  0.4349 -0.2143
  822MOL0    Cl10879   2.935   6.944   1.848  0.2451 -0.0633 -0.2086
  822MOL0     C10880   1.983   6.504   1.508  0.0096 -0.7969 -1.1824
  822MOL0     C10881   1.858   6.513   1.566  0.5319 -0.8959 -0.3387
  822MOL0     O10882   1.591   6.547   1.482 -0.1962  0.1499 -0.0674
  822MOL0     C10883   1.445   6.585   1.811  0.4696 -0.4517 -0.2773
  822MOL0     C10884   1.319   6.580   1.875  0.3430  0.0689 -0.0123
  822MOL0     N10885   0.849   6.526   2.364  0.6700 -0.3382  0.0840
  822MOL0     N10886   0.772   6.512   2.471 -0.9342  1.2052  0.4430
  822MOL0     C10887   0.284   5.591   2.135  0.0519 -0.2634 -0.3808
  822MOL0     C10888   0.229   5.480   2.069  0.4547  0.0855  0.0123
  822MOL0     C10889  -0.020   5.069   2.039 -0.4032  0.1230 -0.1630
  822MOL0     C10890  -0.139   5.139   1.992 -0.4258 -0.4564 -0.0844
  822MOL0     C10891  -0.246   5.064   1.948  0.4466 -0.5680  0.4723
  822MOL0     C10892  -0.244   4.932   1.941 -0.6907 -0.0515 -1.0109
  822MOL0     O10893  -0.352   4.856   1.900  0.0766  0.6621 -0.0249
  822MOL0     C10894  -0.418   4.768   1.999 -1.2637  0.0798 -0.4065
  822MOL0     C10895  -0.561   4.762   1.999 -0.3068  0.1325 -0.2940
  822MOL0     C10896  -0.612   4.727   1.855  0.3300 -0.0654  0.2954
  822MOL0     C10897  -0.756   4.683   1.869  0.1879 -0.3577  0.3043
  822MOL0     C10898  -0.802   4.634   1.736  0.8520 -0.3305 -0.4081
  822MOL0     C10899  -0.845   4.594   1.628 -0.1789  0.2874  0.4158
  822MOL0     C10900  -0.127   4.861   1.974  0.3951 -0.9232  1.1015
  822MOL0     C10901  -0.019   4.925   2.025  0.2136  0.5039 -0.0189
  822MOL0     C10902   0.110   4.833   2.046 -0.0661  0.8550  0.2319
  822MOL0     H10903   0.123   5.309   2.342 -2.3763  0.7761 -0.0511
  822MOL0     H10904   0.236   5.506   2.447 -0.4526  2.4400 -0.7377
  822MOL0     H10905   0.437   5.576   2.465  0.5218 -0.4744 -0.4808
  822MOL0     H10906   0.501   5.741   2.438  0.4883 -0.3143  2.9587
  822MOL0     H10907   0.423   5.774   2.644  1.4259 -0.7708 -1.4006
  822MOL0     H10908   0.266   5.677   2.614 -2.2175  2.3251 -1.6110
  822MOL0     H10909   0.218   5.922   2.625 -2.2192  0.1380 -0.4070
  822MOL0     H10910   0.212   5.871   2.455  2.0448 -0.5091 -1.4588
  822MOL0     H10911   0.417   6.010   2.618 -0.8971 -0.3515  1.5498
  822MOL0     H10912   0.475   5.982   2.456  0.9953  3.6038  0.4686
  822MOL0     H10913   0.247   6.103   2.390 -4.0813 -3.2809  3.8572
  822MOL0     H10914   0.264   6.164   2.549  0.0944 -0.2730  0.7403
  822MOL0     H10915   0.508   6.161   2.356 -0.4423  0.4990  0.1249
  822MOL0     H10916   0.400   6.298   2.359 -1.5750 -0.0346  0.1356
  822MOL0     H10917   0.609   6.234   2.575 -0.9428 -1.5275  0.6459
  822MOL0     H10918   0.446   6.262   2.625 -1.9731  0.0059 -2.4936
  822MOL0     H10919   0.447   6.464   2.478 -1.7520 -3.3185  0.5603
  822MOL0     H10920   0.565   6.462   2.617  0.8408 -0.6045  0.1382
  822MOL0     H10921   0.572   6.404   2.231  3.7182 -2.3030 -2.1232
  822MOL0     H10922   0.939   6.430   2.137  0.0968  0.7763 -0.4652
  822MOL0     H10923   0.781   6.392   2.070  1.2267 -0.6225 -1.6443
  822MOL0     H10924   0.833   6.556   1.930  0.8034  2.0909 -0.4176
  822MOL0     H10925   0.728   6.630   2.048 -1.0910 -1.7840 -0.5927
  822MOL0     H10926   0.947   6.727   2.150 -1.7593 -2.3015  1.5685
  822MOL0     H10927   0.904   6.782   1.986 -1.1688 -1.3999  0.1541
  822MOL0     H10928   1.107   6.561   2.071 -0.1690  0.2602  1.5278
  822MOL0     H10929   1.155   6.718   2.016  0.3184 -1.7461  0.3490
  822MOL0     H10930   1.124   6.622   1.608  1.3531  1.2422 -1.4526
  822MOL0     H10931   1.340   6.603   1.492  3.0122 -0.4355  0.1115
  822MOL0     H10932   1.851   6.837   1.653  1.2156  0.2787  0.6573
  822MOL0     H10933   2.055   6.850   1.517 -2.0135  1.8360 -0.1909
  822MOL0     H10934   2.240   6.786   1.397  4.3463  0.0768 -2.4225
  822MOL0     H10935   2.295   6.740   1.556 -0.2086 -0.7722  0.1345
  822MOL0     H10936   2.460   6.589   1.447 -2.0997 -0.8995 -0.0104
  822MOL0     H10937   2.408   6.647   1.291 -2.6799  0.9545 -0.6138
  822MOL0     H10938   2.573   6.819   1.328 -1.5904  2.8345 -0.2914
  822MOL0     H10939   2.437   6.888   1.413 -3.4478 -2.2545 -0.9167
  822MOL0     H10940   2.514   6.761   1.622 -0.2061 -0.3188 -0.6092
  822MOL0     H10941   2.619   6.899   1.560  2.1514 -1.3409  1.1938
  822MOL0     H10942   2.740   6.700   1.429  1.0058 -2.2753  0.8508
  822MOL0     H10943   2.694   6.594   1.563  1.2815 -0.2034  1.2071
  822MOL0     H10944   2.924   6.663   1.601  2.0159  2.3035 -0.1816
  822MOL0     H10945   2.868   6.825   1.598 -1.5987  0.7737  1.7676
  822MOL0     H10946   2.775   6.611   1.798  3.1545 -0.3601 -3.4192
  822MOL0     H10947   2.701   6.775   1.790 -0.5198  0.0933 -1.9321
  822MOL0     H10948   2.900   6.737   1.966  1.4901  0.5537  0.0541
  822MOL0     H10949   3.013   6.725   1.834 -0.3635  0.3001 -0.9868
  822MOL0     H10950   2.013   6.410   1.463  0.3063 -0.9779 -0.6170
  822MOL0     H10951   1.805   6.418   1.567  0.3827 -0.8165  1.4871
  822MOL0     H10952   1.535   6.594   1.871  1.2462 -0.1907 -1.4484
  822MOL0     H10953   1.327   6.573   1.983 -0.5688 -1.4649 -0.0148
  822MOL0     H10954   0.305   5.683   2.082  0.6915 -0.0663  0.2024
  822MOL0     H10955   0.244   5.488   1.961  1.3068  4.6067  0.2479
  822MOL0     H10956  -0.133   5.247   1.994  1.4403 -0.5473  1.1280
  822MOL0     H10957  -0.340   5.113   1.925 -0.5905 -1.5250  2.4522
  822MOL0     H10958  -0.389   4.796   2.101  3.5764  1.2742 -1.8418
  822MOL0     H10959  -0.369   4.671   1.997  0.9286  0.8910  3.4244
  822MOL0     H10960  -0.603   4.857   2.033 -1.8559  0.5020 -2.9576
  822MOL0     H10961  -0.593   4.675   2.058  2.1422 -1.4779 -1.1581
  822MOL0     H10962  -0.566   4.633   1.823 -1.2591 -0.8819  0.3507
  822MOL0     H10963  -0.605   4.807   1.781 -1.4418 -0.5604 -0.4516
  822MOL0     H10964  -0.773   4.600   1.939 -1.9982 -1.5630 -1.5232
  822MOL0     H10965  -0.797   4.776   1.910 -0.7979 -1.0162  0.8534
  822MOL0     H10966  -0.859   4.571   1.524  3.7799  0.7493 -0.3816
  822MOL0     H10967  -0.140   4.758   1.943 -5.5986 -0.5690  1.2754
  822MOL0     H10968   0.201   4.885   2.075  0.9883 -1.0654  0.5849
  822MOL0     H10969   0.092   4.762   2.127  0.9729  2.3624  1.8385
  822MOL0     H10970   0.135   4.783   1.951  1.1392  1.2044  0.3410
  823MOL0     O10971   6.813  10.673  11.036 -0.0927 -0.0627 -0.6397
  823MOL0     C10972   6.764  10.563  11.011  0.1367  0.5669 -0.9588
  823MOL0     O10973   6.638  10.543  10.979 -0.2054  0.2189  0.0945
  823MOL0     C10974   6.555  10.648  10.967 -1.5381 -0.3253 -0.3790
  823MOL0     C10975   6.530  10.728  10.854  0.1001  0.6173 -0.6209
  823MOL0     C10976   6.432  10.824  10.857  0.1216  0.5726 -0.3071
  823MOL0     C10977   6.348  10.849  10.964 -0.3776  0.7253  0.3656
  823MOL0     O10978   6.255  10.944  10.977  0.3489  0.3869 -0.3415
  823MOL0     C10979   6.221  11.031  10.871 -1.2874  0.7533 -0.0645
  823MOL0     C10980   6.112  10.969  10.786  0.0900 -0.7434 -0.7983
  823MOL0     C10981   6.053  11.082  10.704  0.3836 -0.2251  0.9544
  823MOL0     C10982   5.931  11.027  10.626 -0.6947  0.4703 -0.8598
  823MOL0     C10983   5.870  11.124  10.525  0.2105  0.5833  0.1672
  823MOL0     C10984   5.792  11.050  10.411  0.4154 -0.0059  0.5344
  823MOL0     C10985   5.892  11.003  10.299  0.2637 -0.5744 -0.3939
  823MOL0     C10986   5.829  10.911  10.199  1.4089 -0.1856  0.5430
  823MOL0     N10987   5.705  10.960  10.139  0.2589  1.4517  0.1496
  823MOL0     C10988   5.716  11.016  10.015  0.6548 -0.5135 -0.9361
  823MOL0     C10989   5.588  11.028   9.970  0.1819  0.2064  0.2746
  823MOL0     C10990   5.550  11.063   9.827 -0.4101  1.0596 -0.4325
  823MOL0     C10991   5.530  11.213   9.804 -0.5264 -0.0633  0.5095
  823MOL0     C10992   5.468  11.282   9.929  0.2351 -0.5336 -0.5772
  823MOL0     C10993   5.463  11.438   9.928 -0.3190  0.4388  0.0013
  823MOL0     O10994   5.592  11.480   9.906 -0.4490 -0.4727 -0.0210
  823MOL0     C10995   5.628  11.612   9.936 -0.3805  0.4271  0.3712
  823MOL0     C10996   5.542  11.715   9.974  0.5349  0.1582  0.8900
  823MOL0     C10997   5.588  11.840  10.008  0.5268  0.1688 -0.2694
  823MOL0     C10998   5.723  11.874   9.996  0.1195  0.1289  0.6672
  823MOL0     C10999   5.779  12.011  10.032  0.8300  0.7501 -0.8070
  823MOL0     O11000   5.913  12.027  10.013 -0.0520  0.5749  0.5807
  823MOL0     C11001   5.965  12.145  10.068  1.0102 -0.5096 -0.6768
  823MOL0     C11002   6.042  12.239   9.993  0.1471  0.3035 -0.9230
  823MOL0     C11003   6.117  12.343  10.052  0.1081 -0.8014 -0.7953
  823MOL0     C11004   6.109  12.371  10.189  0.1472 -0.2192  0.1155
  823MOL0     O11005   6.156  12.485  10.253  0.6737  0.0426  0.2036
  823MOL0     C11006   6.295  12.510  10.227  0.2796  0.4004  0.8712
  823MOL0     C11007   6.347  12.630  10.305 -0.3368 -0.8631 -0.9322
  823MOL0     C11008   6.270  12.761  10.260 -0.5081 -0.1308 -0.8044
  823MOL0     C11009   6.314  12.884  10.331  0.0272 -0.5906 -0.9316
  823MOL0     C11010   6.236  13.005  10.288  0.5752  0.3787  0.1871
  823MOL0     C11011   6.310  13.128  10.315  1.0798  0.0078  0.4426
  823MOL0     C11012   6.230  13.256  10.281 -0.1350  0.1744 -0.0079
  823MOL0     C11013   6.253  13.383  10.371 -0.3514  0.3552  0.3176
  823MOL0    Cl11014   6.134  13.508  10.317  0.2262  0.0031 -0.2063
  823MOL0     C11015   6.024  12.284  10.263 -0.2245  0.2188  0.4274
  823MOL0     C11016   5.960  12.175  10.209  0.1229 -0.1771  0.0442
  823MOL0     O11017   5.698  12.104  10.068 -0.0094 -0.3085  0.6431
  823MOL0     C11018   5.804  11.768   9.944 -0.1929 -0.5692 -0.1733
  823MOL0     C11019   5.757  11.644   9.909  0.2495 -0.2571 -0.7505
  823MOL0     N11020   5.506  10.983  10.067  0.6035 -0.1144  0.1187
  823MOL0     N11021   5.573  10.935  10.169 -0.1302 -0.3494 -0.3538
  823MOL0     C11022   6.385  10.777  11.084  0.1281 -0.0994  0.6369
  823MOL0     C11023   6.480  10.676  11.090  0.5002  0.1145 -0.0115
  823MOL0     C11024   6.851  10.442  11.038  0.6174 -0.0442 -1.3176
  823MOL0     C11025   6.832  10.372  11.158 -0.5928 -0.1951 -0.0058
  823MOL0     C11026   6.918  10.272  11.198  0.3678  0.9799  0.2040
  823MOL0     C11027   7.040  10.259  11.128 -0.7082  0.3335  0.6104
  823MOL0     O11028   7.130  10.167  11.175 -1.0892  0.9324  0.0727
  823MOL0     C11029   7.274  10.161  11.151  0.4532  0.4704 -0.6017
  823MOL0     C11030   7.339  10.084  11.269 -0.3197 -0.1880  0.9050
  823MOL0     C11031   7.276   9.940  11.288 -0.4571  0.4782  0.6923
  823MOL0     C11032   7.332   9.830  11.194  0.7303 -0.1154  0.0380
  823MOL0     C11033   7.445   9.769  11.251  0.1662  1.6503 -0.3536
  823MOL0     C11034   7.546   9.706  11.271  0.2287  0.3629  1.0323
  823MOL0     C11035   7.076  10.345  11.021 -0.4442 -0.0727  0.4036
  823MOL0     C11036   6.980  10.428  10.977 -1.0750 -0.0203  0.2956
  823MOL0     C11037   7.026  10.520  10.856 -0.2036  0.0618  0.9644
  823MOL0     H11038   6.589  10.715  10.763  0.0228 -2.1927 -0.3673
  823MOL0     H11039   6.417  10.888  10.770  1.0611  0.1189 -0.8194
  823MOL0     H11040   6.188  11.120  10.926 -1.2304  0.8107 -0.1220
  823MOL0     H11041   6.314  11.059  10.821 -1.2741  0.9900  0.0859
  823MOL0     H11042   6.036  10.928  10.853 -1.9345 -0.3512 -2.7296
  823MOL0     H11043   6.155  10.895  10.717 -0.1014 -2.3508  0.7471
  823MOL0     H11044   6.119  11.124  10.628  0.2830 -2.0925 -0.2387
  823MOL0     H11045   6.020  11.159  10.774  2.2341 -0.2610  1.9575
  823MOL0     H11046   5.974  10.943  10.571  4.2449  0.3610  2.4973
  823MOL0     H11047   5.851  10.987  10.689 -0.6471 -0.2539 -1.2429
  823MOL0     H11048   5.809  11.202  10.573  0.8276  1.3687 -0.3017
  823MOL0     H11049   5.953  11.169  10.471 -0.6011  2.3254  0.3036
  823MOL0     H11050   5.729  10.971  10.454 -0.2726  0.4098  0.3052
  823MOL0     H11051   5.720  11.121  10.368 -1.3596 -2.5927 -1.0716
  823MOL0     H11052   5.980  10.969  10.355  1.7001  3.2667  0.0169
  823MOL0     H11053   5.923  11.096  10.250 -0.9540  0.7291  1.2184
  823MOL0     H11054   5.896  10.894  10.114 -1.5789 -0.6087 -1.9076
  823MOL0     H11055   5.799  10.817  10.246  2.3540 -0.5252  0.4867
  823MOL0     H11056   5.801  11.038   9.952 -0.4150  1.3269 -1.8447
  823MOL0     H11057   5.634  11.024   9.770  1.5018  2.9734  0.9349
  823MOL0     H11058   5.449  11.022   9.811  0.9374 -2.7459 -0.1386
  823MOL0     H11059   5.623  11.261   9.773 -0.1234 -1.0772  0.1119
  823MOL0     H11060   5.448  11.216   9.731  1.6322 -0.2050 -2.0658
  823MOL0     H11061   5.542  11.260  10.007  1.3501  0.1160 -1.4164
  823MOL0     H11062   5.373  11.237   9.956 -2.0867  1.2545 -4.7750
  823MOL0     H11063   5.434  11.477  10.026  1.1011 -2.9830  1.9194
  823MOL0     H11064   5.400  11.479   9.848  1.0527 -0.4424 -1.5817
  823MOL0     H11065   5.437  11.693   9.985 -0.3479  2.1212 -2.1560
  823MOL0     H11066   5.502  11.902  10.033 -0.5315 -1.6268  0.6941
  823MOL0     H11067   6.053  12.229   9.886  3.4845  0.6747 -0.7030
  823MOL0     H11068   6.165  12.414   9.986 -2.7475  1.4856 -0.6007
  823MOL0     H11069   6.356  12.424  10.259 -0.9535  0.0564  2.4524
  823MOL0     H11070   6.305  12.515  10.119 -0.2212 -3.6143  0.4726
  823MOL0     H11071   6.327  12.616  10.412  0.4196  0.3047 -0.6174
  823MOL0     H11072   6.456  12.638  10.298 -0.2362 -1.6518 -0.4359
  823MOL0     H11073   6.291  12.774  10.154 -0.7087 -2.4889 -1.1936
  823MOL0     H11074   6.165  12.760  10.290 -0.0289 -0.0813  1.0196
  823MOL0     H11075   6.421  12.898  10.311 -0.0791  0.8652 -0.6105
  823MOL0     H11076   6.289  12.870  10.436 -1.1353 -0.3820 -1.1753
  823MOL0     H11077   6.139  13.008  10.338 -0.1501 -1.5457 -0.9659
  823MOL0     H11078   6.207  12.992  10.183 -2.3547 -1.3780  1.1108
  823MOL0     H11079   6.331  13.139  10.422 -1.9270  4.6233  0.8587
  823MOL0     H11080   6.400  13.135  10.254  0.6195  1.3349 -0.1157
  823MOL0     H11081   6.122  13.242  10.292 -0.1899  1.0579  0.7343
  823MOL0     H11082   6.261  13.290  10.182  4.9306 -0.7098  0.9899
  823MOL0     H11083   6.229  13.363  10.476  3.9757  1.4113  1.6895
  823MOL0     H11084   6.353  13.426  10.360 -0.2954  0.0698 -0.3411
  823MOL0     H11085   6.015  12.279  10.371 -0.5226 -1.5427  0.3598
  823MOL0     H11086   5.894  12.119  10.274 -0.9722  0.8486 -0.1408
  823MOL0     H11087   5.906  11.795   9.919 -0.4976 -1.5373 -2.7915
  823MOL0     H11088   5.819  11.573   9.855  0.0827  0.7376 -2.3413
  823MOL0     H11089   6.312  10.799  11.161 -0.1648  1.5009 -0.0725
  823MOL0     H11090   6.496  10.631  11.187 -1.1271  2.0460  1.2241
  823MOL0     H11091   6.741  10.399  11.210 -0.3885  1.0984 -0.2809
  823MOL0     H11092   6.901  10.195  11.273  2.4162 -1.9698 -2.1482
  823MOL0     H11093   7.314  10.263  11.154  0.0475  0.6481 -1.1595
  823MOL0     H11094   7.304  10.117  11.055 -0.3809 -1.2551 -0.1075
  823MOL0     H11095   7.326  10.145  11.358  1.9785 -0.3255  1.3906
  823MOL0     H11096   7.446  10.070  11.251 -0.4353  0.6810 -0.6813
  823MOL0     H11097   7.170   9.942  11.262 -0.4407 -3.1396 -0.0583
  823MOL0     H11098   7.274   9.907  11.393  2.8409  1.4416  1.1850
  823MOL0     H11099   7.256   9.760  11.160 -0.1741  0.3571  1.0185
  823MOL0     H11100   7.358   9.881  11.101  2.2797  0.3272  0.6674
  823MOL0     H11101   7.635   9.648  11.283  2.0104  2.7186  0.0860
  823MOL0     H11102   7.176  10.344  10.980 -0.6818 -1.6032 -0.1819
  823MOL0     H11103   7.107  10.485  10.791  0.2064 -1.7927  2.4023
  823MOL0     H11104   6.943  10.514  10.785 -0.2499 -3.2909  1.1392
  823MOL0     H11105   7.032  10.626  10.882 -0.8347  0.6202 -0.9978
  824MOL0     O11106   9.452   7.262   0.701 -0.6229 -0.3171  0.7324
  824MOL0     C11107   9.391   7.328   0.773  0.8567 -0.9478 -0.9703
  824MOL0     O11108   9.437   7.388   0.884  0.0671 -0.1160  0.0490
  824MOL0     C11109   9.573   7.396   0.920 -0.5321 -0.1546 -0.1830
  824MOL0     C11110   9.598   7.405   1.053  0.0769  0.7677 -0.3290
  824MOL0     C11111   9.730   7.396   1.094 -0.2835  0.1901  0.6596
  824MOL0     C11112   9.839   7.393   1.008  0.0526 -0.1146 -0.4041
  824MOL0     O11113   9.974   7.400   1.044  0.6839  0.1683 -0.0086
  824MOL0     C11114  10.011   7.362   1.178 -0.2695 -0.0235 -0.5082
  824MOL0     C11115  10.165   7.397   1.189  0.4609 -0.4467 -0.8517
  824MOL0     C11116  10.240   7.295   1.098 -0.1208 -0.0774  0.4780
  824MOL0     C11117  10.392   7.304   1.100 -0.3726 -0.4891  0.8438
  824MOL0     C11118  10.443   7.197   0.999  0.0605  1.0261  0.3766
  824MOL0     C11119  10.593   7.166   1.009 -0.6000  0.1216  0.0473
  824MOL0     C11120  10.628   7.084   1.131 -0.4581 -0.0802  0.2798
  824MOL0     C11121  10.776   7.046   1.156  0.0726 -0.5955 -0.6942
  824MOL0     N11122  10.839   7.170   1.195 -0.2174  0.1352 -0.3116
  824MOL0     C11123  10.900   7.267   1.111  1.2471 -0.3627 -0.2415
  824MOL0     C11124  10.944   7.360   1.194 -0.9388  0.2658 -0.0574
  824MOL0     C11125  11.016   7.481   1.134 -0.0851  0.9296  0.4073
  824MOL0     C11126  11.171   7.440   1.128  0.3640  0.6120  0.7374
  824MOL0     C11127  11.266   7.555   1.083  0.6251 -0.0637 -0.1352
  824MOL0     C11128  11.420   7.511   1.068  0.1573 -0.8857 -0.4417
  824MOL0     O11129  11.488   7.563   1.191 -0.3733 -0.1416 -0.7653
  824MOL0     C11130  11.625   7.580   1.191 -0.0302 -0.3904  0.5477
  824MOL0     C11131  11.709   7.529   1.087 -0.0322 -0.0537  0.1250
  824MOL0     C11132  11.848   7.554   1.109  0.8406  0.1602  0.1165
  824MOL0     C11133  11.897   7.617   1.221 -1.0922  0.3346 -0.4236
  824MOL0     C11134  12.042   7.622   1.241 -0.7819  0.6958 -0.0599
  824MOL0     O11135  12.078   7.675   1.356 -0.0419  0.2678  0.0196
  824MOL0     C11136  12.214   7.697   1.368  0.2697 -0.2755 -1.1846
  824MOL0     C11137  12.317   7.606   1.350  0.6049  0.2183 -0.1321
  824MOL0     C11138  12.452   7.659   1.347  0.7522  0.5399 -0.0401
  824MOL0     C11139  12.485   7.779   1.400 -0.8406 -0.5191  0.9935
  824MOL0     O11140  12.617   7.825   1.418  0.4306 -0.0143 -0.1934
  824MOL0     C11141  12.710   7.788   1.318 -0.5363  0.5861 -0.2512
  824MOL0     C11142  12.844   7.841   1.373 -0.1074  0.4302  0.2549
  824MOL0     C11143  12.957   7.802   1.270 -0.2219 -0.5701 -0.3613
  824MOL0     C11144  13.088   7.875   1.323 -0.4874  0.1798  1.8803
  824MOL0     C11145  13.213   7.844   1.242 -1.0605 -0.4708 -0.1438
  824MOL0     C11146  13.335   7.889   1.319  0.0144 -0.8158  0.3355
  824MOL0     C11147  13.461   7.848   1.247  0.4539  0.5113 -0.2749
  824MOL0     C11148  13.533   7.726   1.302  0.0532 -0.0397 -0.0811
  824MOL0    Cl11149  13.427   7.576   1.310 -0.2364 -0.0760 -0.1967
  824MOL0     C11150  12.378   7.869   1.437  0.8263  0.5740 -0.5573
  824MOL0     C11151  12.238   7.831   1.418  0.2438 -0.7318 -0.1739
  824MOL0     O11152  12.120   7.567   1.161  0.0693  0.1087  1.7016
  824MOL0     C11153  11.813   7.660   1.318 -0.7117 -0.8999  0.7213
  824MOL0     C11154  11.681   7.648   1.304 -0.5255 -0.1821 -0.7396
  824MOL0     N11155  10.919   7.326   1.326  0.4375  0.4837  0.0848
  824MOL0     N11156  10.858   7.209   1.330 -0.4966  0.5061 -0.0482
  824MOL0     C11157   9.807   7.386   0.882  0.0644 -0.2817  0.6389
  824MOL0     C11158   9.676   7.393   0.826 -0.5617 -0.0526  0.3101
  824MOL0     C11159   9.247   7.340   0.753 -0.2572  0.4308 -0.5906
  824MOL0     C11160   9.162   7.356   0.865 -0.7167 -0.0137  0.6836
  824MOL0     C11161   9.025   7.352   0.854  0.4150  0.0761  0.0016
  824MOL0     C11162   8.961   7.342   0.727 -0.1144  0.2015 -0.7870
  824MOL0     O11163   8.827   7.330   0.711  1.2891  0.4270 -0.5409
  824MOL0     C11164   8.761   7.215   0.777 -0.0571 -0.7881 -0.2350
  824MOL0     C11165   8.705   7.107   0.681 -0.5530  0.0559 -0.6722
  824MOL0     C11166   8.641   7.151   0.548 -0.7602  1.4855 -0.2396
  824MOL0     C11167   8.620   7.030   0.453  0.2171 -0.3645  0.1048
  824MOL0     C11168   8.499   6.961   0.508 -1.2380 -0.2811 -0.3828
  824MOL0     C11169   8.396   6.900   0.528  0.6661  0.5719 -0.3840
  824MOL0     C11170   9.045   7.361   0.616 -0.1718  1.0136 -0.0750
  824MOL0     C11171   9.184   7.350   0.629  0.2165 -0.2477 -1.0990
  824MOL0     C11172   9.260   7.355   0.495 -0.6862  0.2956  0.0860
  824MOL0     H11173   9.505   7.416   1.108 -1.1289 -0.6763 -1.9513
  824MOL0     H11174   9.765   7.398   1.196  2.0049  1.4654 -0.0799
  824MOL0     H11175   9.959   7.410   1.261  2.3807  0.8947  0.7660
  824MOL0     H11176   9.985   7.260   1.206  3.4018 -0.5528  1.6335
  824MOL0     H11177  10.198   7.393   1.293 -2.0716  2.6213  0.2284
  824MOL0     H11178  10.190   7.501   1.169  0.2008 -0.1714  0.1984
  824MOL0     H11179  10.205   7.290   0.994  0.5634 -4.1930  0.2454
  824MOL0     H11180  10.214   7.201   1.148  0.7239 -0.1223  0.8389
  824MOL0     H11181  10.438   7.402   1.087  2.1414 -1.5620  0.9529
  824MOL0     H11182  10.431   7.286   1.201  3.1831 -0.7495 -0.4258
  824MOL0     H11183  10.386   7.106   1.020  0.7961  0.3873 -0.3206
  824MOL0     H11184  10.411   7.221   0.897 -0.2658 -0.6021  0.0761
  824MOL0     H11185  10.620   7.116   0.916  0.9591 -1.5981  1.3405
  824MOL0     H11186  10.644   7.263   1.010  0.4447 -0.3419 -2.2578
  824MOL0     H11187  10.571   6.992   1.140  0.5140 -0.6578  0.6845
  824MOL0     H11188  10.589   7.147   1.212 -0.2716  3.2951 -2.0300
  824MOL0     H11189  10.782   6.967   1.231  0.0124 -0.6936 -0.7926
  824MOL0     H11190  10.830   7.024   1.063 -0.9798  0.1819 -1.5145
  824MOL0     H11191  10.903   7.277   1.003  1.1714 -1.0729 -0.3157
  824MOL0     H11192  10.987   7.510   1.032  0.0991  1.1195  0.4066
  824MOL0     H11193  11.002   7.563   1.206 -2.2350 -0.7436  2.0003
  824MOL0     H11194  11.207   7.433   1.231 -1.0174 -1.9276  1.1253
  824MOL0     H11195  11.187   7.347   1.073 -0.3844 -0.5648  2.4525
  824MOL0     H11196  11.265   7.637   1.155  1.5205  0.1010 -0.3094
  824MOL0     H11197  11.231   7.596   0.988 -0.8208 -0.9840 -0.0283
  824MOL0     H11198  11.468   7.552   0.979  2.5562  1.8094  1.8873
  824MOL0     H11199  11.436   7.403   1.065  0.7320 -0.9213  1.9393
  824MOL0     H11200  11.677   7.457   1.012  1.2985 -2.5273  1.7983
  824MOL0     H11201  11.920   7.522   1.034  0.0855  1.7129 -1.3315
  824MOL0     H11202  12.293   7.505   1.317  1.1378  0.3369 -0.9277
  824MOL0     H11203  12.528   7.585   1.322 -1.2208 -1.9718  0.9837
  824MOL0     H11204  12.711   7.679   1.308  1.8183  0.3085  1.9198
  824MOL0     H11205  12.676   7.837   1.227 -3.8866 -0.6348  0.1831
  824MOL0     H11206  12.853   7.949   1.391  1.9363  0.6151 -1.4578
  824MOL0     H11207  12.869   7.794   1.468  0.6402 -0.9353 -0.5751
  824MOL0     H11208  12.960   7.694   1.259  2.8901 -0.6673  0.3601
  824MOL0     H11209  12.939   7.854   1.175  1.0902  3.6319  1.4305
  824MOL0     H11210  13.100   7.850   1.429  1.3807  0.2855  1.7224
  824MOL0     H11211  13.064   7.980   1.308 -4.4186 -0.5326  1.9567
  824MOL0     H11212  13.203   7.891   1.144 -2.6881  0.4289  0.4187
  824MOL0     H11213  13.227   7.737   1.226  3.2387 -0.1994  0.5496
  824MOL0     H11214  13.331   7.995   1.345  2.4511  0.6647 -4.2020
  824MOL0     H11215  13.336   7.830   1.410 -0.5494 -0.3805  0.6253
  824MOL0     H11216  13.536   7.924   1.268  3.5672 -2.5689  0.8317
  824MOL0     H11217  13.445   7.836   1.139 -0.9467  3.0716 -0.4251
  824MOL0     H11218  13.619   7.709   1.236  0.5196  3.6776 -0.6458
  824MOL0     H11219  13.569   7.746   1.404  0.5471 -0.2181 -0.2182
  824MOL0     H11220  12.411   7.962   1.481  1.3026 -0.4089  1.2631
  824MOL0     H11221  12.155   7.900   1.427 -1.5524 -2.3193 -3.0605
  824MOL0     H11222  11.853   7.695   1.413 -2.6822  1.6925  0.7240
  824MOL0     H11223  11.605   7.674   1.376 -1.0252 -1.8075 -0.6450
  824MOL0     H11224   9.885   7.361   0.811 -1.0741  0.6737 -1.0246
  824MOL0     H11225   9.664   7.373   0.720  3.0074  1.2874 -0.5025
  824MOL0     H11226   9.207   7.363   0.964 -1.7908  0.4535  1.1541
  824MOL0     H11227   8.960   7.356   0.941 -0.6460 -1.7634 -0.6655
  824MOL0     H11228   8.673   7.255   0.829  0.7281  0.3919  0.2278
  824MOL0     H11229   8.823   7.171   0.856 -0.9413 -0.7500  0.4968
  824MOL0     H11230   8.629   7.044   0.729 -0.9660  0.9680 -0.1103
  824MOL0     H11231   8.793   7.049   0.654 -1.6444 -1.6690 -0.6688
  824MOL0     H11232   8.705   7.224   0.497 -0.6928  1.1028 -0.7129
  824MOL0     H11233   8.541   7.191   0.565 -2.8778 -2.5542 -1.7804
  824MOL0     H11234   8.598   7.080   0.359  3.9200  1.1985 -0.0909
  824MOL0     H11235   8.706   6.968   0.428  0.4827  0.5231 -1.2425
  824MOL0     H11236   8.300   6.860   0.552  1.9358 -1.5903  1.5795
  824MOL0     H11237   9.009   7.380   0.515 -0.3065  0.6391 -0.0971
  824MOL0     H11238   9.343   7.427   0.494  0.3506 -0.7778  2.0897
  824MOL0     H11239   9.300   7.256   0.473  0.3179  0.8868 -0.8791
  824MOL0     H11240   9.190   7.386   0.416 -3.5028 -1.8319  1.5893
  825MOL0     O11241   3.239   7.557   3.088 -0.2366  0.4389 -0.7899
  825MOL0     C11242   3.253   7.605   2.976 -0.2433  0.3698 -0.0798
  825MOL0     O11243   3.356   7.570   2.895  0.1981 -0.6011  0.0823
  825MOL0     C11244   3.433   7.464   2.938 -1.2573  0.7189  0.5486
  825MOL0     C11245   3.439   7.358   2.845  0.1567  0.1248  0.0653
  825MOL0     C11246   3.526   7.252   2.868  1.0578  0.0227  0.6867
  825MOL0     C11247   3.620   7.256   2.976 -0.7103  0.7026  0.5161
  825MOL0     O11248   3.714   7.160   2.999  0.0797 -0.5870  0.5170
  825MOL0     C11249   3.745   7.075   2.884  0.0912 -1.6487  0.4892
  825MOL0     C11250   3.864   6.991   2.937  0.7041 -0.1957  0.1853
  825MOL0     C11251   3.907   6.887   2.837  0.1592 -0.4439  0.0114
  825MOL0     C11252   3.859   6.749   2.893 -0.3969  0.2084 -0.5958
  825MOL0     C11253   3.919   6.641   2.805 -0.2456 -0.0274 -0.2878
  825MOL0     C11254   3.886   6.494   2.860 -0.3621  0.4723 -0.7118
  825MOL0     C11255   3.737   6.451   2.839  0.2519 -0.3232  0.1226
  825MOL0     C11256   3.707   6.380   2.715 -1.0445  0.2105 -0.0834
  825MOL0     N11257   3.703   6.464   2.600 -0.3872 -0.3945  0.0541
  825MOL0     C11258   3.641   6.592   2.570  0.4175 -0.3597  0.4738
  825MOL0     C11259   3.682   6.622   2.448 -0.0422  0.3504  0.4712
  825MOL0     C11260   3.639   6.749   2.378 -0.5328 -0.0210  0.4971
  825MOL0     C11261   3.726   6.868   2.411 -0.0903 -0.9292 -0.7101
  825MOL0     C11262   3.668   7.001   2.369 -0.6398  0.5904  0.1939
  825MOL0     C11263   3.745   7.115   2.445 -0.0843 -0.4079  0.2025
  825MOL0     O11264   3.717   7.239   2.381 -0.4061 -0.4609 -0.1236
  825MOL0     C11265   3.593   7.299   2.392 -0.3374  0.9050  0.2412
  825MOL0     C11266   3.574   7.394   2.290 -0.1612  0.2868 -0.1351
  825MOL0     C11267   3.442   7.453   2.275  0.1706 -0.9437 -0.7492
  825MOL0     C11268   3.345   7.440   2.383 -1.1454  0.2536 -0.2120
  825MOL0     C11269   3.226   7.524   2.390 -0.5701  0.8235  0.8595
  825MOL0     O11270   3.176   7.577   2.278  0.5586 -0.4416 -0.3429
  825MOL0     C11271   3.110   7.698   2.276 -0.1426  0.3249  0.4607
  825MOL0     C11272   3.039   7.733   2.156 -0.1484  0.4519 -1.0383
  825MOL0     C11273   2.985   7.857   2.141  1.0679  0.1555  0.4076
  825MOL0     C11274   2.992   7.960   2.238  0.5999  0.2041  0.3701
  825MOL0     O11275   2.943   8.084   2.214  0.4002 -0.0354 -0.1914
  825MOL0     C11276   3.011   8.203   2.256  0.3972  0.7513 -0.1815
  825MOL0     C11277   2.902   8.313   2.233  0.3341  0.5806 -0.6617
  825MOL0     C11278   2.819   8.317   2.354  0.0398 -0.8363 -0.0052
  825MOL0     C11279   2.708   8.417   2.341  0.1373  0.2323 -0.5592
  825MOL0     C11280   2.623   8.401   2.466 -1.2242  0.9639 -0.3863
  825MOL0     C11281   2.495   8.479   2.463 -0.3124 -0.0307 -0.4575
  825MOL0     C11282   2.449   8.542   2.594  0.4638 -1.5352  0.6988
  825MOL0     C11283   2.400   8.444   2.695  0.0320  0.1648  0.9135
  825MOL0    Cl11284   2.258   8.360   2.625  0.4729  0.3057  0.0277
  825MOL0     C11285   3.064   7.933   2.358  0.3316 -0.5602  0.8267
  825MOL0     C11286   3.120   7.805   2.371 -0.5730  1.0716 -1.0301
  825MOL0     O11287   3.193   7.555   2.502  0.8015 -0.0692 -0.6695
  825MOL0     C11288   3.373   7.348   2.490  0.3981 -0.0803 -0.7712
  825MOL0     C11289   3.491   7.265   2.488  0.3023 -0.0768 -0.0321
  825MOL0     N11290   3.751   6.520   2.390  0.2248  0.6398 -0.1642
  825MOL0     N11291   3.759   6.427   2.483  0.5827 -0.9712 -0.1653
  825MOL0     C11292   3.621   7.372   3.062 -0.4314 -0.1348 -0.8883
  825MOL0     C11293   3.537   7.475   3.040  1.3089  0.0605  0.8050
  825MOL0     C11294   3.147   7.687   2.912  0.1369 -0.0368  0.7828
  825MOL0     C11295   3.119   7.656   2.782  0.4516  0.1893  1.0023
  825MOL0     C11296   3.038   7.755   2.719 -0.6639 -0.7807  0.0996
  825MOL0     C11297   2.975   7.858   2.778  0.4629  0.2513 -0.9001
  825MOL0     O11298   2.903   7.934   2.694  0.1931 -0.3366 -1.0014
  825MOL0     C11299   2.838   8.053   2.750  0.5823 -0.5405 -0.1402
  825MOL0     C11300   2.700   8.016   2.790 -0.4265  0.7617  0.6651
  825MOL0     C11301   2.616   8.136   2.824  0.8270 -0.0339  0.2383
  825MOL0     C11302   2.472   8.104   2.869  0.5674  0.0721 -0.5137
  825MOL0     C11303   2.409   8.204   2.951  0.4256 -0.1074  1.0658
  825MOL0     C11304   2.356   8.294   3.005  0.1499  0.3139  0.4242
  825MOL0     C11305   2.988   7.868   2.920  0.1073  0.0201 -0.3266
  825MOL0     C11306   3.082   7.794   2.985  0.2621  1.1172  0.0727
  825MOL0     C11307   3.137   7.845   3.116  0.4849 -0.3988  0.0337
  825MOL0     H11308   3.350   7.355   2.783 -0.6456  1.6807  1.0870
  825MOL0     H11309   3.510   7.164   2.808 -1.0743  1.5768 -1.2052
  825MOL0     H11310   3.656   7.012   2.873  0.3166 -1.7048 -1.4779
  825MOL0     H11311   3.767   7.131   2.793  1.8344 -0.8722  1.3429
  825MOL0     H11312   3.819   6.948   3.027 -1.3222 -0.8558 -1.0986
  825MOL0     H11313   3.945   7.061   2.961 -0.4320  0.7710  1.3216
  825MOL0     H11314   4.016   6.895   2.828  0.0146 -0.4577 -2.2206
  825MOL0     H11315   3.870   6.901   2.735  0.9586 -1.2296 -0.4008
  825MOL0     H11316   3.887   6.735   2.998 -2.5968  0.4530  0.0790
  825MOL0     H11317   3.750   6.755   2.892 -0.7199 -3.4359 -0.4118
  825MOL0     H11318   3.872   6.646   2.706  0.6256 -2.0175 -0.8753
  825MOL0     H11319   4.028   6.653   2.801 -0.1596 -0.7978 -0.6052
  825MOL0     H11320   3.947   6.424   2.803 -0.4065  0.1005 -0.3035
  825MOL0     H11321   3.919   6.482   2.964  1.3063  0.0658 -1.2462
  825MOL0     H11322   3.666   6.531   2.863  0.9780  0.4782 -0.3238
  825MOL0     H11323   3.724   6.373   2.915 -0.3593 -0.3193  0.0283
  825MOL0     H11324   3.786   6.307   2.698 -2.6280 -2.5221  3.0169
  825MOL0     H11325   3.613   6.324   2.721 -1.0214  0.2949  1.5959
  825MOL0     H11326   3.575   6.646   2.636 -1.7244 -2.1418 -0.0851
  825MOL0     H11327   3.633   6.724   2.272  1.3288  1.5387 -0.0420
  825MOL0     H11328   3.541   6.764   2.423  0.1008  2.0795  1.2865
  825MOL0     H11329   3.747   6.874   2.519  1.0961  2.2178 -1.0042
  825MOL0     H11330   3.823   6.834   2.373  1.5404 -0.3902  2.5774
  825MOL0     H11331   3.563   7.020   2.394  0.0994  1.5074  2.9905
  825MOL0     H11332   3.684   7.017   2.262 -1.3429 -0.1546 -0.0365
  825MOL0     H11333   3.851   7.093   2.433 -0.2876 -0.8412 -0.9453
  825MOL0     H11334   3.719   7.116   2.551  0.3780 -1.1477  0.3261
  825MOL0     H11335   3.652   7.405   2.217 -2.7063  0.3631 -3.0402
  825MOL0     H11336   3.417   7.531   2.204 -0.1427  0.2189  0.6077
  825MOL0     H11337   3.024   7.656   2.081  0.9701 -0.5012 -0.3028
  825MOL0     H11338   2.943   7.902   2.052 -1.5778  3.2620  2.9528
  825MOL0     H11339   3.033   8.196   2.362 -0.7408 -2.0700 -0.0552
  825MOL0     H11340   3.097   8.227   2.193  1.3220  1.6563  1.3611
  825MOL0     H11341   2.959   8.406   2.222  1.5562  0.0082  0.5580
  825MOL0     H11342   2.837   8.292   2.147  1.4322 -1.5034 -1.0302
  825MOL0     H11343   2.775   8.217   2.367 -0.6141 -0.4845  0.5344
  825MOL0     H11344   2.878   8.334   2.444  0.0177 -0.1535 -0.1163
  825MOL0     H11345   2.649   8.397   2.251  2.4950 -3.0425 -1.5927
  825MOL0     H11346   2.749   8.518   2.335 -0.1908  0.3692 -0.5377
  825MOL0     H11347   2.686   8.435   2.549 -0.3801 -1.9851  0.3190
  825MOL0     H11348   2.590   8.298   2.483 -1.3808  0.7474 -1.8815
  825MOL0     H11349   2.526   8.566   2.404  3.8140 -2.9201 -3.1230
  825MOL0     H11350   2.411   8.424   2.421 -1.2610  0.6684  0.4736
  825MOL0     H11351   2.375   8.621   2.583  2.9409  0.6679 -1.5368
  825MOL0     H11352   2.536   8.595   2.635 -0.8020 -0.1242  1.6882
  825MOL0     H11353   2.481   8.371   2.705 -2.1486 -2.8283 -1.1720
  825MOL0     H11354   2.373   8.487   2.792  1.9431  0.9519  1.1374
  825MOL0     H11355   3.070   7.998   2.445  1.9976  2.4547 -1.3684
  825MOL0     H11356   3.181   7.781   2.458 -2.6336 -0.2920  0.1305
  825MOL0     H11357   3.309   7.348   2.577  1.5182 -1.1787  0.0770
  825MOL0     H11358   3.508   7.179   2.551 -1.0111 -1.3585 -1.3272
  825MOL0     H11359   3.702   7.381   3.133  1.2052  0.9426 -2.8187
  825MOL0     H11360   3.549   7.561   3.105 -0.6036 -0.3681  1.8004
  825MOL0     H11361   3.177   7.582   2.728 -2.5410 -2.4722  1.1544
  825MOL0     H11362   3.032   7.742   2.612 -0.4238 -4.9710  0.4205
  825MOL0     H11363   2.828   8.130   2.672  1.1140 -1.1427 -0.8090
  825MOL0     H11364   2.896   8.096   2.832 -0.3593 -0.1628  0.3513
  825MOL0     H11365   2.701   7.945   2.873  1.3218 -1.1739 -0.9082
  825MOL0     H11366   2.656   7.964   2.704 -3.0657  1.7100  1.3648
  825MOL0     H11367   2.612   8.209   2.742 -0.5795 -2.7065 -2.2767
  825MOL0     H11368   2.667   8.183   2.908 -0.4798 -1.0412  1.6322
  825MOL0     H11369   2.409   8.087   2.781  0.8815  3.0863 -1.4407
  825MOL0     H11370   2.473   8.017   2.935  1.0546 -0.0598 -0.6931
  825MOL0     H11371   2.322   8.381   3.058  1.8029  0.9988  0.4084
  825MOL0     H11372   2.928   7.939   2.976 -2.5727 -1.5679 -1.0025
  825MOL0     H11373   3.131   7.954   3.110  3.3199 -0.1439  0.5005
  825MOL0     H11374   3.092   7.804   3.207  0.6901 -5.5074 -1.8665
  825MOL0     H11375   3.243   7.825   3.137  0.2209 -0.0408  1.9044
  826MOL0     O11376   3.064   9.116   2.293  0.4795 -0.9416 -0.1410
  826MOL0     C11377   2.991   9.024   2.255  0.8514 -0.0267 -0.5816
  826MOL0     O11378   3.008   8.959   2.141  0.1308  0.4408  0.0015
  826MOL0     C11379   3.103   8.988   2.058  0.2891  0.1847 -0.0810
  826MOL0     C11380   3.070   9.057   1.937 -0.0982  0.0839 -0.1738
  826MOL0     C11381   3.174   9.089   1.848  1.1332  0.0207 -0.9951
  826MOL0     C11382   3.301   9.045   1.867  0.0019 -0.1440 -0.0032
  826MOL0     O11383   3.390   9.080   1.765 -0.0642 -0.4639  0.2884
  826MOL0     C11384   3.520   9.117   1.803  0.5578  0.0396  0.0044
  826MOL0     C11385   3.595   9.163   1.679 -0.6479 -0.0479 -0.2026
  826MOL0     C11386   3.745   9.163   1.707  0.3185 -0.3579  0.0078
  826MOL0     C11387   3.812   9.227   1.590  0.3419  0.9174 -0.5070
  826MOL0     C11388   3.970   9.196   1.603  0.0290  1.2365 -1.1812
  826MOL0     C11389   4.051   9.282   1.509 -0.4369  0.0679 -0.2727
  826MOL0     C11390   4.199   9.235   1.523 -0.0494  0.2535 -0.2976
  826MOL0     C11391   4.274   9.259   1.656  0.4360  0.2955  0.1025
  826MOL0     N11392   4.419   9.238   1.635 -0.6142 -0.3117 -0.3405
  826MOL0     C11393   4.488   9.117   1.642  0.2628 -0.1465  0.4219
  826MOL0     C11394   4.619   9.133   1.611 -0.6654  0.7263 -0.0330
  826MOL0     C11395   4.719   9.033   1.568  0.0879 -0.0631  0.1775
  826MOL0     C11396   4.659   8.933   1.480 -0.3376 -0.1749  0.7876
  826MOL0     C11397   4.613   8.987   1.346  0.6593  1.1737 -0.0360
  826MOL0     C11398   4.730   9.008   1.238  0.2358 -0.9233 -0.4496
  826MOL0     O11399   4.821   8.897   1.244  0.2873  0.5480 -0.0679
  826MOL0     C11400   4.943   8.897   1.181 -1.0483 -0.0490  1.1807
  826MOL0     C11401   5.017   9.010   1.131 -0.3289 -0.7173  0.7233
  826MOL0     C11402   5.149   8.999   1.087  0.5876 -0.1068 -1.1371
  826MOL0     C11403   5.218   8.871   1.083 -0.2478 -1.0806 -0.1792
  826MOL0     C11404   5.349   8.864   1.016 -0.5553 -0.3534 -0.4991
  826MOL0     O11405   5.420   8.741   1.010 -0.1200  0.0511 -0.4658
  826MOL0     C11406   5.462   8.682   1.131 -0.2693 -0.1678  1.5542
  826MOL0     C11407   5.435   8.546   1.148  0.6079  0.1285  0.0560
  826MOL0     C11408   5.467   8.486   1.269  0.8378  0.0398 -0.7743
  826MOL0     C11409   5.541   8.548   1.368 -0.4215  0.0437  0.3138
  826MOL0     O11410   5.586   8.478   1.477  0.4721 -0.3788 -0.2139
  826MOL0     C11411   5.575   8.544   1.607  1.2896 -0.2082  0.3866
  826MOL0     C11412   5.497   8.468   1.720  0.9410  1.2008  0.1288
  826MOL0     C11413   5.505   8.516   1.861 -0.3984 -1.0108 -0.3887
  826MOL0     C11414   5.537   8.669   1.875 -0.9943 -0.0692  0.3810
  826MOL0     C11415   5.534   8.705   2.026  0.8353  0.0042  0.3763
  826MOL0     C11416   5.553   8.854   2.042 -0.3221  0.5182 -0.3673
  826MOL0     C11417   5.608   8.890   2.183  0.4306  0.7508  0.2253
  826MOL0     C11418   5.612   9.040   2.220 -0.1518 -0.2675  0.0389
  826MOL0    Cl11419   5.768   9.105   2.144 -0.1434  0.3107  0.0331
  826MOL0     C11420   5.576   8.688   1.346 -0.2486  0.1615  0.5861
  826MOL0     C11421   5.520   8.748   1.234  0.3576 -0.0135  0.2064
  826MOL0     O11422   5.387   8.967   0.957 -0.2152  0.3435  0.6801
  826MOL0     C11423   5.148   8.762   1.105  0.0609  0.4069 -0.0024
  826MOL0     C11424   5.017   8.774   1.162 -0.0848 -0.0084  0.4895
  826MOL0     N11425   4.627   9.273   1.583 -0.2404  0.7211  0.3842
  826MOL0     N11426   4.509   9.330   1.596 -1.1850  0.2279 -0.6371
  826MOL0     C11427   3.334   8.989   1.988  0.6116  0.2306 -0.5832
  826MOL0     C11428   3.235   8.953   2.084  0.5402 -0.2105  0.5231
  826MOL0     C11429   2.872   8.992   2.345 -0.4687  0.5297  1.1406
  826MOL0     C11430   2.798   9.093   2.408  0.6819  0.2255 -1.0158
  826MOL0     C11431   2.679   9.069   2.482 -0.5108  0.4916  0.9375
  826MOL0     C11432   2.640   8.931   2.491  0.0564 -0.0135  0.5488
  826MOL0     O11433   2.525   8.889   2.559 -0.3123  0.3888  0.6299
  826MOL0     C11434   2.442   8.988   2.626 -0.5351 -0.3843 -0.2770
  826MOL0     C11435   2.336   8.908   2.711 -0.0712 -1.0774  0.3148
  826MOL0     C11436   2.392   8.816   2.824  0.4202  0.6718  0.9934
  826MOL0     C11437   2.433   8.894   2.951  0.8202  1.1188 -0.0969
  826MOL0     C11438   2.393   8.822   3.077  0.2100 -0.4546 -0.3745
  826MOL0     C11439   2.366   8.747   3.165 -0.0982 -0.7580 -0.2477
  826MOL0     C11440   2.717   8.831   2.432 -1.2471  0.2372  0.4010
  826MOL0     C11441   2.833   8.855   2.360  0.7132 -0.0272 -0.5903
  826MOL0     C11442   2.905   8.741   2.306 -0.5453  0.2566  0.2805
  826MOL0     H11443   2.968   9.085   1.915 -0.0381 -1.5536 -2.9224
  826MOL0     H11444   3.145   9.146   1.760 -0.8756  1.0466  0.2672
  826MOL0     H11445   3.522   9.194   1.881  0.7232 -0.9916  1.0610
  826MOL0     H11446   3.573   9.030   1.843  0.2302 -0.4794 -0.6680
  826MOL0     H11447   3.568   9.264   1.647  0.0029  0.1450 -0.1659
  826MOL0     H11448   3.573   9.094   1.597  0.1205  2.7689 -2.9985
  826MOL0     H11449   3.776   9.060   1.724 -0.8623 -0.6080  0.7369
  826MOL0     H11450   3.780   9.214   1.797 -0.3718 -0.1968  0.1911
  826MOL0     H11451   3.783   9.177   1.497 -1.4611  1.3016 -0.1882
  826MOL0     H11452   3.810   9.336   1.592  0.2449  0.9168  1.9585
  826MOL0     H11453   3.995   9.232   1.703 -1.6505 -1.0452  0.1678
  826MOL0     H11454   3.993   9.089   1.599  2.5633  1.3153  3.5415
  826MOL0     H11455   4.008   9.264   1.410  0.4603 -0.3940 -0.5874
  826MOL0     H11456   4.050   9.390   1.524 -1.3305  0.1004 -0.4729
  826MOL0     H11457   4.241   9.303   1.448 -0.5667 -2.0193 -2.8291
  826MOL0     H11458   4.207   9.128   1.502 -1.4975 -0.5267  2.5732
  826MOL0     H11459   4.258   9.358   1.700 -2.0422  1.0469 -2.1606
  826MOL0     H11460   4.237   9.181   1.722  1.0781 -1.0583 -1.0719
  826MOL0     H11461   4.415   9.040   1.664  0.5755 -0.5404  0.0950
  826MOL0     H11462   4.799   9.093   1.523  1.4830 -1.6907  0.3969
  826MOL0     H11463   4.743   8.979   1.660 -1.8142 -0.2882  0.5898
  826MOL0     H11464   4.734   8.854   1.470 -1.9482 -2.1202  2.7794
  826MOL0     H11465   4.576   8.877   1.526 -0.3882  0.3358  1.3325
  826MOL0     H11466   4.548   9.075   1.344 -2.5894 -1.0469 -0.5104
  826MOL0     H11467   4.556   8.912   1.290  1.0626  1.0324 -0.2613
  826MOL0     H11468   4.781   9.104   1.251 -0.1195 -0.9650  1.6615
  826MOL0     H11469   4.699   9.012   1.133  4.8967  1.4062 -2.0471
  826MOL0     H11470   4.982   9.112   1.131  2.6324  0.3971  1.2210
  826MOL0     H11471   5.198   9.094   1.070  0.0606  0.2343 -0.8000
  826MOL0     H11472   5.400   8.498   1.057  0.4303  0.1567  0.1097
  826MOL0     H11473   5.443   8.381   1.280 -0.1717  0.4702  2.0748
  826MOL0     H11474   5.677   8.560   1.643  0.7227 -0.6688  2.3198
  826MOL0     H11475   5.527   8.641   1.588  0.9665 -0.6285 -1.0636
  826MOL0     H11476   5.389   8.455   1.703  0.4431  0.3049  3.3378
  826MOL0     H11477   5.526   8.363   1.716 -1.5865  0.3887  0.8678
  826MOL0     H11478   5.413   8.510   1.921  1.9096 -0.4175  3.5728
  826MOL0     H11479   5.578   8.455   1.914  0.0702  1.3015  1.8560
  826MOL0     H11480   5.468   8.728   1.815 -0.3043  0.2947 -0.0718
  826MOL0     H11481   5.639   8.694   1.844 -0.9538  3.0043  2.5336
  826MOL0     H11482   5.610   8.642   2.074  0.7880 -1.8526 -1.7780
  826MOL0     H11483   5.434   8.691   2.069  1.3863 -0.3709  1.5850
  826MOL0     H11484   5.621   8.882   1.961 -2.1443  3.1623 -1.1048
  826MOL0     H11485   5.457   8.899   2.016  1.0926  1.4773 -4.7844
  826MOL0     H11486   5.702   8.834   2.188  0.7991  1.3140 -0.3348
  826MOL0     H11487   5.546   8.842   2.260  0.7167  1.7554  1.1092
  826MOL0     H11488   5.526   9.095   2.181 -0.3473 -0.5035  0.1315
  826MOL0     H11489   5.615   9.052   2.329 -1.1344 -2.8167  0.4136
  826MOL0     H11490   5.647   8.739   1.410  1.4864 -2.3570  0.8122
  826MOL0     H11491   5.534   8.852   1.205 -1.9304 -0.6950 -4.2044
  826MOL0     H11492   5.206   8.671   1.096  2.4284  1.8319  0.1682
  826MOL0     H11493   4.984   8.673   1.181  1.7090 -0.9103 -0.9162
  826MOL0     H11494   3.435   8.962   2.013  1.2226  2.8160  0.1030
  826MOL0     H11495   3.248   8.904   2.180 -0.5966 -1.6305 -0.0089
  826MOL0     H11496   2.832   9.196   2.397 -2.5849  1.4215 -1.2530
  826MOL0     H11497   2.636   9.156   2.530  2.1882  1.4623  1.7854
  826MOL0     H11498   2.381   9.046   2.556  0.8808 -0.5449 -1.7001
  826MOL0     H11499   2.508   9.049   2.689  2.6708 -0.9704 -2.8255
  826MOL0     H11500   2.282   8.842   2.642  0.7493  0.2669 -1.7197
  826MOL0     H11501   2.267   8.983   2.752  3.4117  2.4342  0.2732
  826MOL0     H11502   2.476   8.754   2.794  0.1052  0.6751  0.0806
  826MOL0     H11503   2.308   8.753   2.856 -0.1661  0.3096 -1.1048
  826MOL0     H11504   2.542   8.897   2.945  0.9883 -2.0072 -0.0276
  826MOL0     H11505   2.384   8.992   2.949 -1.3169  0.1454 -2.9892
  826MOL0     H11506   2.361   8.661   3.229  2.9065 -4.0934 -3.9296
  826MOL0     H11507   2.683   8.730   2.453  1.1626 -0.8596 -0.5531
  826MOL0     H11508   2.851   8.700   2.221  3.1233 -2.4828 -0.9735
  826MOL0     H11509   3.003   8.764   2.265  1.0564 -0.7398  3.2854
  826MOL0     H11510   2.921   8.654   2.370 -1.4810 -0.8691 -0.9704
  827MOL0     O11511   9.697   6.331   9.712 -0.1071 -0.2913  0.0156
  827MOL0     C11512   9.632   6.250   9.777  0.1461  0.1404 -0.4050
  827MOL0     O11513   9.530   6.279   9.865 -0.2773  0.5051  0.6637
  827MOL0     C11514   9.511   6.413   9.895 -0.0914  0.2852  0.3764
  827MOL0     C11515   9.583   6.463  10.005 -0.0544  0.2452 -0.1499
  827MOL0     C11516   9.557   6.593  10.043 -0.4032  0.6537  0.2300
  827MOL0     C11517   9.474   6.679   9.968 -0.5194 -0.2186  0.2507
  827MOL0     O11518   9.502   6.812  10.000 -0.0164  0.2944 -0.2887
  827MOL0     C11519   9.431   6.915   9.937  0.5923 -0.3363 -0.9317
  827MOL0     C11520   9.493   6.942   9.797 -0.1067 -0.2032 -0.7948
  827MOL0     C11521   9.517   7.089   9.768  0.8886 -0.0981  0.9075
  827MOL0     C11522   9.405   7.184   9.826 -0.2781 -0.1077  0.0315
  827MOL0     C11523   9.391   7.316   9.746  0.3202 -0.2137 -0.6129
  827MOL0     C11524   9.495   7.428   9.753  0.0232  1.7797  0.1833
  827MOL0     C11525   9.545   7.461   9.898 -0.0783 -0.5494 -0.3034
  827MOL0     C11526   9.661   7.387   9.964 -0.5706 -0.5821 -0.1746
  827MOL0     N11527   9.792   7.447   9.913  0.4541  0.1242 -0.8343
  827MOL0     C11528   9.878   7.398   9.821  0.8037 -0.9657 -0.3320
  827MOL0     C11529   9.985   7.480   9.834 -0.3161 -0.5212  0.2439
  827MOL0     C11530  10.120   7.437   9.781 -0.1786 -0.5580  1.0921
  827MOL0     C11531  10.173   7.533   9.684 -0.0114  0.3822  0.0107
  827MOL0     C11532  10.319   7.495   9.636 -1.5394 -0.2571 -0.3545
  827MOL0     C11533  10.398   7.589   9.551  0.1150 -0.5154  0.5413
  827MOL0     O11534  10.348   7.618   9.418  0.2636  0.0938 -0.6218
  827MOL0     C11535  10.401   7.724   9.352  0.4274  0.5625 -0.1428
  827MOL0     C11536  10.506   7.815   9.401 -0.8329  0.4279 -1.3045
  827MOL0     C11537  10.539   7.922   9.319  0.4416  0.6785 -0.8695
  827MOL0     C11538  10.472   7.945   9.196 -0.0137  0.4897 -0.3032
  827MOL0     C11539  10.495   8.069   9.116 -0.0413 -0.1708 -0.7190
  827MOL0     O11540  10.578   8.158   9.169  0.1440 -0.3608  0.3294
  827MOL0     C11541  10.560   8.287   9.121  0.3644 -1.1037  0.0052
  827MOL0     C11542  10.625   8.321   9.003 -0.9666 -0.9641 -0.2372
  827MOL0     C11543  10.616   8.449   8.955  0.0341 -0.8179  0.2358
  827MOL0     C11544  10.550   8.550   9.025 -0.1076  0.8801 -0.9360
  827MOL0     O11545  10.540   8.682   8.985 -0.0220 -0.4092 -0.6736
  827MOL0     C11546  10.575   8.732   8.855  0.2805  0.3319 -0.2243
  827MOL0     C11547  10.705   8.814   8.866 -0.1329  0.3335 -0.1724
  827MOL0     C11548  10.698   8.934   8.972  0.4217 -0.9976 -0.1165
  827MOL0     C11549  10.821   9.022   8.962 -1.1165 -0.2526 -0.1446
  827MOL0     C11550  10.815   9.163   9.038 -0.6436  0.8792 -0.0987
  827MOL0     C11551  10.904   9.269   8.970 -0.1996 -1.2065  0.0073
  827MOL0     C11552  10.896   9.403   9.047 -0.0400  0.4403  0.4957
  827MOL0     C11553  10.982   9.507   8.972 -0.1880 -0.5537  0.2028
  827MOL0    Cl11554  10.963   9.667   9.047 -0.4115  0.3234  0.2232
  827MOL0     C11555  10.492   8.522   9.152 -0.2770  0.3887  0.2287
  827MOL0     C11556  10.500   8.391   9.198  0.1687  1.0435 -0.0339
  827MOL0     O11557  10.431   8.081   9.014  0.2456 -0.1099  0.1028
  827MOL0     C11558  10.388   7.849   9.149  1.2923  0.2233 -0.9420
  827MOL0     C11559  10.345   7.746   9.225 -0.4073  0.4376 -0.1449
  827MOL0     N11560   9.958   7.573   9.935 -0.4277  0.2132 -0.8525
  827MOL0     N11561   9.844   7.560   9.983 -0.3546  0.6133  0.7141
  827MOL0     C11562   9.407   6.634   9.856 -0.7889 -0.1679 -0.0733
  827MOL0     C11563   9.422   6.497   9.820  1.0161  0.1709  0.6824
  827MOL0     C11564   9.665   6.107   9.747  1.0169  0.4082 -0.7189
  827MOL0     C11565   9.702   6.079   9.615 -0.0079  0.2367 -0.2991
  827MOL0     C11566   9.731   5.953   9.577  0.1171  0.1004 -1.0857
  827MOL0     C11567   9.735   5.840   9.664  0.0874  0.4967 -0.3110
  827MOL0     O11568   9.775   5.724   9.600 -0.4389 -0.6470  0.2426
  827MOL0     C11569   9.812   5.615   9.683 -0.5735  0.1481 -0.5530
  827MOL0     C11570   9.786   5.480   9.609 -0.0623 -0.1552 -0.8052
  827MOL0     C11571   9.888   5.461   9.498 -0.5933  0.7702 -0.4290
  827MOL0     C11572   9.899   5.305   9.465 -0.3841  0.2663  0.2158
  827MOL0     C11573   9.947   5.280   9.321  0.7678 -0.6939  0.0874
  827MOL0     C11574   9.968   5.247   9.205  0.3672 -0.0082  0.2838
  827MOL0     C11575   9.692   5.859   9.797  0.6037  0.3522  0.3934
  827MOL0     C11576   9.649   5.994   9.833 -0.1193 -0.3083  0.5346
  827MOL0     C11577   9.598   6.024   9.975 -0.1847 -0.0350 -1.0881
  827MOL0     H11578   9.642   6.386  10.054  3.0915  0.0811 -3.7002
  827MOL0     H11579   9.611   6.622  10.132  0.9864 -0.8129 -0.0638
  827MOL0     H11580   9.322   6.902   9.938  0.5388 -0.4238  2.4434
  827MOL0     H11581   9.451   6.999  10.004 -0.7809 -0.3538 -0.4669
  827MOL0     H11582   9.417   6.913   9.724 -1.7157  1.4138  0.1484
  827MOL0     H11583   9.582   6.878   9.789 -0.4432 -0.9021  0.7104
  827MOL0     H11584   9.522   7.084   9.659 -0.5697  1.3364  0.7344
  827MOL0     H11585   9.614   7.122   9.806  0.6695 -0.5417  1.8878
  827MOL0     H11586   9.304   7.142   9.832 -1.5436  2.5653 -1.0073
  827MOL0     H11587   9.436   7.193   9.930  1.3449 -1.1630 -0.3300
  827MOL0     H11588   9.366   7.290   9.643 -1.0619  0.9312 -0.5940
  827MOL0     H11589   9.296   7.356   9.782 -0.0004  0.9028 -2.5464
  827MOL0     H11590   9.581   7.398   9.692 -0.2811 -0.8909  0.9377
  827MOL0     H11591   9.452   7.517   9.706  0.4752  2.2130  0.5804
  827MOL0     H11592   9.468   7.451   9.975 -0.0393  0.0312 -0.1874
  827MOL0     H11593   9.571   7.567   9.897 -0.6368 -0.2711  3.2218
  827MOL0     H11594   9.649   7.409  10.071  2.2426 -1.5316  0.4112
  827MOL0     H11595   9.647   7.280   9.949 -1.7119 -0.4685  0.0079
  827MOL0     H11596   9.875   7.301   9.774  2.1143 -2.7068  2.8026
  827MOL0     H11597  10.195   7.424   9.860  1.3551 -1.8446 -0.4716
  827MOL0     H11598  10.112   7.344   9.723 -2.1058  1.1866 -1.6667
  827MOL0     H11599  10.099   7.548   9.605 -0.8219  0.7867  0.8305
  827MOL0     H11600  10.184   7.630   9.733 -0.3471  0.8831 -0.8907
  827MOL0     H11601  10.309   7.408   9.569  1.7231  0.1478 -1.5949
  827MOL0     H11602  10.376   7.470   9.726  0.0812  0.2004 -1.2053
  827MOL0     H11603  10.494   7.540   9.532 -1.4693 -3.4862 -0.3915
  827MOL0     H11604  10.409   7.686   9.601 -0.5060 -0.5058  0.6680
  827MOL0     H11605  10.573   7.796   9.484  2.0899  0.6400 -3.4746
  827MOL0     H11606  10.614   7.992   9.354  0.2903 -0.1570  1.3614
  827MOL0     H11607  10.678   8.239   8.955  1.5442  1.1558 -1.3727
  827MOL0     H11608  10.672   8.462   8.862 -1.0358  0.2757 -0.2858
  827MOL0     H11609  10.590   8.645   8.789 -1.2484 -0.4128  0.3630
  827MOL0     H11610  10.486   8.789   8.828 -1.0237 -1.8835 -0.9302
  827MOL0     H11611  10.792   8.750   8.884 -0.0091  0.6710  0.4615
  827MOL0     H11612  10.723   8.859   8.768  1.3058  0.8439  0.2905
  827MOL0     H11613  10.610   8.995   8.952  0.5713  0.0797  2.1795
  827MOL0     H11614  10.693   8.896   9.075  0.0498  3.5649  1.7913
  827MOL0     H11615  10.829   9.053   8.857  2.1132  2.7118  0.7939
  827MOL0     H11616  10.920   8.980   8.983 -0.2199  1.2267 -1.2341
  827MOL0     H11617  10.836   9.143   9.144 -0.3452  0.0926 -0.2995
  827MOL0     H11618  10.712   9.200   9.041 -0.5958  1.1159  3.2307
  827MOL0     H11619  11.010   9.243   8.967  0.7420  2.1565  0.1433
  827MOL0     H11620  10.888   9.292   8.864 -0.1955 -1.8372 -0.1351
  827MOL0     H11621  10.914   9.389   9.154 -4.4675  0.9650  1.4974
  827MOL0     H11622  10.793   9.439   9.046  0.8953  3.4040 -1.4422
  827MOL0     H11623  11.085   9.471   8.974 -0.7028 -2.3426 -2.0399
  827MOL0     H11624  10.951   9.522   8.868 -3.0700 -0.2325  1.0201
  827MOL0     H11625  10.445   8.604   9.205 -2.2108  0.2617 -1.1969
  827MOL0     H11626  10.448   8.369   9.290 -2.2384  1.1679 -1.2752
  827MOL0     H11627  10.348   7.861   9.049 -1.1690  1.0635  0.0641
  827MOL0     H11628  10.260   7.689   9.188 -2.0479  0.0611  3.7334
  827MOL0     H11629   9.352   6.692   9.782  2.0275  1.0420 -1.3854
  827MOL0     H11630   9.367   6.449   9.740  2.7429 -1.8493  0.6234
  827MOL0     H11631   9.721   6.163   9.550 -0.7128 -0.1008 -0.9585
  827MOL0     H11632   9.751   5.943   9.471 -0.1790 -0.6155 -1.0827
  827MOL0     H11633   9.745   5.602   9.768 -1.2032 -0.7739 -1.1676
  827MOL0     H11634   9.915   5.628   9.719 -0.9302 -1.6364  1.2947
  827MOL0     H11635   9.686   5.495   9.567 -0.8872  0.8343  1.3690
  827MOL0     H11636   9.783   5.402   9.685 -1.3272  0.5755 -0.0816
  827MOL0     H11637   9.988   5.485   9.535  0.5970 -2.7488 -0.9474
  827MOL0     H11638   9.848   5.524   9.418 -1.8008  1.5612  0.7649
  827MOL0     H11639   9.962   5.250   9.537 -2.3584 -1.3471  0.8037
  827MOL0     H11640   9.797   5.266   9.466  0.3350 -2.0062 -2.0379
  827MOL0     H11641   9.981   5.219   9.102 -1.4188 -0.0467  0.0277
  827MOL0     H11642   9.680   5.785   9.875 -0.1176  0.7884  0.7046
  827MOL0     H11643   9.600   5.939  10.044 -1.4205  0.8950  0.1357
  827MOL0     H11644   9.654   6.110  10.012 -1.1900  1.3122 -2.5856
  827MOL0     H11645   9.491   6.046   9.976 -0.5132 -1.1463  2.3121
  828MOL0     O11646   7.488   8.209   8.498 -0.1509  0.4049 -0.3121
  828MOL0     C11647   7.497   8.182   8.383  0.3072  0.2647 -0.4726
  828MOL0     O11648   7.609   8.171   8.311  0.3441  0.2596 -0.1513
  828MOL0     C11649   7.722   8.135   8.377  0.2476 -0.1561  0.6513
  828MOL0     C11650   7.831   8.219   8.372  0.4035  0.2903  0.1355
  828MOL0     C11651   7.953   8.177   8.427 -0.5378  1.1939  0.2042
  828MOL0     C11652   7.957   8.047   8.495 -1.2725 -0.6473  1.3466
  828MOL0     O11653   8.067   8.004   8.566  0.7495  0.4129 -0.6849
  828MOL0     C11654   8.195   8.048   8.532  0.1946  0.1269 -0.6246
  828MOL0     C11655   8.294   7.940   8.562 -0.8678  0.1739 -0.4084
  828MOL0     C11656   8.307   7.909   8.713  0.7443 -0.1143  0.4898
  828MOL0     C11657   8.443   7.841   8.741 -0.0169  0.4514  0.2899
  828MOL0     C11658   8.463   7.810   8.894 -0.5204  0.1868 -0.5358
  828MOL0     C11659   8.612   7.784   8.928  0.6403 -0.1320  0.5193
  828MOL0     C11660   8.671   7.660   8.850  0.5625 -0.0396 -0.5040
  828MOL0     C11661   8.792   7.715   8.764 -1.0999 -0.2305  0.0960
  828MOL0     N11662   8.836   7.608   8.667  0.2008 -0.6116 -0.1747
  828MOL0     C11663   8.963   7.571   8.637  0.2234  0.8528  0.3034
  828MOL0     C11664   8.956   7.476   8.539 -1.0307 -0.2454  0.5023
  828MOL0     C11665   9.066   7.417   8.463  0.0100  0.5915  0.1454
  828MOL0     C11666   9.144   7.516   8.373  0.2821  0.3012 -0.2562
  828MOL0     C11667   9.076   7.557   8.242  0.2656  0.7479 -0.2523
  828MOL0     C11668   9.182   7.595   8.126  0.5463  0.0582 -0.5069
  828MOL0     O11669   9.234   7.471   8.066 -0.2070  0.0979  1.0171
  828MOL0     C11670   9.359   7.479   7.997 -0.7708 -0.0246  0.2414
  828MOL0     C11671   9.400   7.364   7.927  0.7635  1.0221 -0.1928
  828MOL0     C11672   9.527   7.353   7.868 -0.3139 -0.9145 -1.5083
  828MOL0     C11673   9.611   7.459   7.864  0.4317 -0.0667  0.2477
  828MOL0     C11674   9.742   7.445   7.812 -0.1711  0.1118 -0.1441
  828MOL0     O11675   9.837   7.545   7.842  0.5011 -0.8849 -0.2235
  828MOL0     C11676   9.954   7.527   7.784 -1.4199  1.0473  0.2833
  828MOL0     C11677  10.043   7.438   7.850 -0.0913  0.8356  0.5844
  828MOL0     C11678  10.162   7.405   7.790  0.9980  0.1987 -0.6594
  828MOL0     C11679  10.208   7.469   7.677 -0.2534 -0.6587  0.2984
  828MOL0     O11680  10.339   7.449   7.627  0.6086  0.2192 -0.0130
  828MOL0     C11681  10.327   7.384   7.503 -0.1045 -1.1532  1.0000
  828MOL0     C11682  10.365   7.475   7.390  0.3684 -0.2909  0.2366
  828MOL0     C11683  10.376   7.410   7.254  0.5803  0.4515  0.2385
  828MOL0     C11684  10.384   7.514   7.137  0.3480  0.2928 -0.1452
  828MOL0     C11685  10.427   7.473   6.996  0.2813 -0.1125 -0.1605
  828MOL0     C11686  10.334   7.388   6.911  0.3036 -0.8935 -0.2023
  828MOL0     C11687  10.412   7.339   6.788  0.2146 -0.2157 -0.1453
  828MOL0     C11688  10.511   7.232   6.830  0.6691  0.1911 -0.9543
  828MOL0    Cl11689  10.405   7.102   6.869 -0.3769  0.1313 -0.1722
  828MOL0     C11690  10.121   7.570   7.620  0.9340 -0.5909 -0.6838
  828MOL0     C11691   9.993   7.601   7.673 -0.8216 -0.1435 -0.3295
  828MOL0     O11692   9.766   7.348   7.743  0.5027  0.4446  0.1422
  828MOL0     C11693   9.563   7.582   7.915  0.5595 -0.4415 -0.3012
  828MOL0     C11694   9.437   7.595   7.978 -0.3112 -0.2199 -0.5491
  828MOL0     N11695   8.823   7.448   8.525  0.4275 -0.0079  0.6538
  828MOL0     N11696   8.752   7.528   8.598  0.1751 -0.5041 -0.5986
  828MOL0     C11697   7.849   7.967   8.490  0.4874  1.0366 -0.5068
  828MOL0     C11698   7.725   8.010   8.437 -0.4895 -1.0418 -0.2126
  828MOL0     C11699   7.363   8.171   8.310 -0.0270 -0.1293  0.4679
  828MOL0     C11700   7.368   8.168   8.169  0.4775 -1.3183 -0.5129
  828MOL0     C11701   7.255   8.153   8.086 -0.8485  0.3398 -0.1150
  828MOL0     C11702   7.130   8.155   8.141 -0.0646 -0.2467 -0.3949
  828MOL0     O11703   7.028   8.114   8.061 -0.1084 -0.6039  0.1519
  828MOL0     C11704   6.906   8.084   8.126 -0.0870  0.1991  0.8088
  828MOL0     C11705   6.805   8.046   8.022  0.7490  0.1801  0.7305
  828MOL0     C11706   6.745   8.167   7.949 -0.8477 -0.3451  0.9017
  828MOL0     C11707   6.658   8.111   7.838  0.1737 -0.3200 -0.0455
  828MOL0     C11708   6.536   8.058   7.892 -0.9801  0.5408 -0.6782
  828MOL0     C11709   6.425   8.022   7.933 -0.0994 -0.3661  0.2722
  828MOL0     C11710   7.122   8.172   8.282  0.4022 -0.2038  0.4719
  828MOL0     C11711   7.233   8.175   8.360 -0.4944  0.7044 -0.3638
  828MOL0     C11712   7.203   8.171   8.500 -0.0392 -0.3242  0.5900
  828MOL0     H11713   7.831   8.321   8.334  1.0161 -0.2944 -1.5451
  828MOL0     H11714   8.027   8.249   8.459  0.6600 -0.5941  1.7306
  828MOL0     H11715   8.185   8.083   8.429 -3.8796  0.5256 -0.2528
  828MOL0     H11716   8.219   8.130   8.601 -0.5008 -0.3872  0.2509
  828MOL0     H11717   8.389   7.975   8.521 -1.0063  1.7691  0.5084
  828MOL0     H11718   8.271   7.849   8.506  2.7765  0.2093 -2.2958
  828MOL0     H11719   8.217   7.853   8.740  1.0319 -0.0869  1.5455
  828MOL0     H11720   8.309   8.003   8.769  1.1520  0.7337 -0.8987
  828MOL0     H11721   8.448   7.750   8.681  0.6311 -1.2087  2.7198
  828MOL0     H11722   8.529   7.900   8.708  1.8544 -3.4096 -2.3691
  828MOL0     H11723   8.419   7.884   8.961 -0.1363 -1.4728  1.6616
  828MOL0     H11724   8.415   7.713   8.911  1.8414 -0.8929  0.3799
  828MOL0     H11725   8.657   7.878   8.896  0.0563  0.9422  2.6423
  828MOL0     H11726   8.625   7.766   9.035 -3.9237  1.5802  1.5840
  828MOL0     H11727   8.599   7.637   8.771 -0.1046  2.1481 -0.5975
  828MOL0     H11728   8.695   7.574   8.914 -1.0668  0.1393  0.3927
  828MOL0     H11729   8.762   7.794   8.694 -0.0435 -0.3283 -0.4948
  828MOL0     H11730   8.865   7.759   8.832 -0.9842  1.3013 -0.9571
  828MOL0     H11731   9.050   7.616   8.684  1.5962 -0.8559 -0.4902
  828MOL0     H11732   9.142   7.367   8.524  0.5434 -0.7251 -1.5427
  828MOL0     H11733   9.032   7.343   8.391 -2.8687  1.4889  0.4588
  828MOL0     H11734   9.170   7.613   8.416  0.5343 -0.2686  0.9293
  828MOL0     H11735   9.236   7.468   8.338  0.0114 -0.6831  0.3395
  828MOL0     H11736   8.998   7.633   8.257  0.8654  1.3359 -0.0410
  828MOL0     H11737   9.013   7.473   8.213  0.2715 -0.1244  1.9884
  828MOL0     H11738   9.258   7.657   8.175  0.8618 -0.6365 -0.0904
  828MOL0     H11739   9.142   7.666   8.054  1.3488  1.7880  0.6915
  828MOL0     H11740   9.341   7.276   7.902  4.1551 -1.0361 -1.7062
  828MOL0     H11741   9.544   7.259   7.817 -0.5164 -1.5895 -0.3661
  828MOL0     H11742  10.014   7.377   7.935  0.0331 -1.5722 -0.9989
  828MOL0     H11743  10.239   7.338   7.828 -0.3497 -1.2954 -0.4667
  828MOL0     H11744  10.383   7.291   7.494  1.8478  0.0294  0.3185
  828MOL0     H11745  10.223   7.355   7.485 -1.1098  0.7962  3.1776
  828MOL0     H11746  10.295   7.559   7.383  0.5557  0.2036  3.0765
  828MOL0     H11747  10.456   7.534   7.409  0.3207 -0.2839  0.4420
  828MOL0     H11748  10.456   7.337   7.245 -1.8741 -2.1737 -2.0631
  828MOL0     H11749  10.290   7.342   7.251 -1.0306  2.1399  3.1841
  828MOL0     H11750  10.462   7.583   7.171 -0.0590  0.6761  0.0301
  828MOL0     H11751  10.289   7.566   7.149  0.4244  0.2039  0.9539
  828MOL0     H11752  10.529   7.433   6.999  0.3023 -0.1771 -1.3127
  828MOL0     H11753  10.432   7.565   6.938 -2.7293  0.7610  0.7832
  828MOL0     H11754  10.294   7.306   6.972  1.6486  0.9518  3.4832
  828MOL0     H11755  10.255   7.458   6.886  0.5687  0.1217  1.6501
  828MOL0     H11756  10.455   7.432   6.749  0.6105  0.2257  1.2780
  828MOL0     H11757  10.344   7.302   6.711  0.7411  1.6363 -1.5977
  828MOL0     H11758  10.569   7.198   6.743 -0.4785 -0.9147 -1.3222
  828MOL0     H11759  10.576   7.260   6.913 -0.1872  2.4494 -0.9512
  828MOL0     H11760  10.160   7.613   7.528  0.8241  1.5375  0.2017
  828MOL0     H11761   9.918   7.662   7.624 -0.6271  1.1975  0.9616
  828MOL0     H11762   9.635   7.661   7.900 -2.2055  2.6810  1.5644
  828MOL0     H11763   9.398   7.694   8.004 -2.5842 -0.6317 -2.0642
  828MOL0     H11764   7.860   7.870   8.538 -1.1924 -0.0306 -2.1214
  828MOL0     H11765   7.637   7.947   8.433 -2.7521  1.9312 -1.7452
  828MOL0     H11766   7.459   8.183   8.111 -1.0489  4.1373 -2.1120
  828MOL0     H11767   7.269   8.127   7.982 -1.0963  0.1315 -0.0958
  828MOL0     H11768   6.865   8.166   8.186  0.0750  1.4861 -0.7845
  828MOL0     H11769   6.927   8.000   8.193 -2.5398  0.2958  1.8377
  828MOL0     H11770   6.724   7.995   8.075 -0.4455  0.4093 -0.7951
  828MOL0     H11771   6.838   7.973   7.948 -1.3416  0.0602 -0.1313
  828MOL0     H11772   6.826   8.228   7.906  0.2588 -2.2241  0.1785
  828MOL0     H11773   6.679   8.224   8.014 -3.1209 -0.5097 -1.0948
  828MOL0     H11774   6.628   8.197   7.777  2.6751 -1.7012 -3.4951
  828MOL0     H11775   6.708   8.048   7.765 -0.5693 -1.3858  0.3306
  828MOL0     H11776   6.331   7.985   7.968  1.2736 -0.9271  3.7786
  828MOL0     H11777   7.026   8.192   8.329  0.7529  2.7377  0.1351
  828MOL0     H11778   7.201   8.269   8.549 -0.2783 -0.1187  0.1722
  828MOL0     H11779   7.110   8.124   8.533  0.7768  0.4497  4.5202
  828MOL0     H11780   7.276   8.110   8.555 -1.8481 -1.1980  2.1758
  829MOL0     O11781  10.424   6.588   2.709  0.7478 -0.4764  0.1633
  829MOL0     C11782  10.326   6.600   2.778  0.5355 -0.4620 -0.2913
  829MOL0     O11783  10.313   6.677   2.891  1.0254  0.1090  0.0104
  829MOL0     C11784  10.426   6.704   2.962  0.2424  1.2918  0.1736
  829MOL0     C11785  10.458   6.619   3.070  0.3386  0.4720  0.1291
  829MOL0     C11786  10.567   6.638   3.149 -0.3042 -0.6062  0.1833
  829MOL0     C11787  10.646   6.750   3.119 -0.2805  0.1947  0.5423
  829MOL0     O11788  10.747   6.769   3.211  0.8549  0.0913  0.1207
  829MOL0     C11789  10.854   6.679   3.193  0.3103  0.2856 -0.7722
  829MOL0     C11790  10.968   6.773   3.164 -0.9723 -0.1143 -0.3904
  829MOL0     C11791  11.105   6.729   3.114 -0.2216 -0.4471 -0.1837
  829MOL0     C11792  11.158   6.618   3.199 -0.2596 -0.1827  0.3446
  829MOL0     C11793  11.284   6.658   3.281  0.1512  0.7425 -1.0924
  829MOL0     C11794  11.413   6.593   3.225 -0.6975 -0.5916 -0.1299
  829MOL0     C11795  11.540   6.608   3.311  0.5133 -0.8688 -0.4432
  829MOL0     C11796  11.651   6.546   3.226  0.4156 -0.3806  0.1070
  829MOL0     N11797  11.780   6.595   3.287  0.2755  0.1303  0.0074
  829MOL0     C11798  11.815   6.730   3.309 -0.5246  0.2787  0.2383
  829MOL0     C11799  11.945   6.720   3.332 -0.7304  0.5137  1.2376
  829MOL0     C11800  12.024   6.846   3.348  0.7719 -0.6439  0.4338
  829MOL0     C11801  12.118   6.838   3.470  0.5620  0.1773 -0.5270
  829MOL0     C11802  12.250   6.909   3.428 -0.1638 -0.4668  0.0488
  829MOL0     C11803  12.351   6.914   3.543 -0.0825 -0.0066 -0.0938
  829MOL0     O11804  12.381   6.782   3.590  0.2692 -0.2551  0.4618
  829MOL0     C11805  12.455   6.696   3.516 -0.9825 -0.6138 -0.3216
  829MOL0     C11806  12.439   6.571   3.563 -0.2493  0.1325 -0.3758
  829MOL0     C11807  12.516   6.472   3.504  1.0519  0.4208  0.6771
  829MOL0     C11808  12.608   6.490   3.399  0.6460 -0.6414  0.3423
  829MOL0     C11809  12.694   6.384   3.344 -0.4415 -0.1241  0.0927
  829MOL0     O11810  12.700   6.272   3.418 -0.0621 -0.3118 -1.1210
  829MOL0     C11811  12.793   6.170   3.408  0.4466 -0.5757 -0.0225
  829MOL0     C11812  12.926   6.198   3.387 -0.4077 -0.2049 -0.0755
  829MOL0     C11813  13.019   6.098   3.392 -0.1898  0.4377 -0.2480
  829MOL0     C11814  12.985   5.973   3.436 -0.5684 -0.4906 -1.2167
  829MOL0     O11815  13.090   5.889   3.464  0.4823  0.1581  0.3268
  829MOL0     C11816  13.048   5.751   3.496  0.2792 -1.2977 -0.2025
  829MOL0     C11817  13.167   5.653   3.491  0.2887 -0.1305  0.0073
  829MOL0     C11818  13.146   5.522   3.567 -0.7249 -1.1025  0.7167
  829MOL0     C11819  13.028   5.434   3.526 -0.6826  0.0118  0.0586
  829MOL0     C11820  13.028   5.302   3.595  0.8108  0.3342 -0.5432
  829MOL0     C11821  12.921   5.207   3.528  0.2233  0.7369  0.6178
  829MOL0     C11822  12.934   5.060   3.593  0.3493  0.3133  0.1107
  829MOL0     C11823  12.793   5.009   3.611  0.0930  1.2745 -0.0404
  829MOL0    Cl11824  12.702   5.116   3.740 -0.1091 -0.0329  0.3194
  829MOL0     C11825  12.843   5.941   3.460 -0.6667 -0.1059 -0.3467
  829MOL0     C11826  12.749   6.042   3.437 -0.4946  0.7351 -0.2514
  829MOL0     O11827  12.776   6.412   3.257 -0.5479 -0.3943 -0.5762
  829MOL0     C11828  12.611   6.624   3.357 -1.0731  1.0056  0.0161
  829MOL0     C11829  12.536   6.721   3.407  0.5735 -0.5909 -0.0981
  829MOL0     N11830  11.990   6.589   3.324  0.2592  0.0790 -0.0846
  829MOL0     N11831  11.891   6.513   3.300  0.4548 -0.2316  0.1285
  829MOL0     C11832  10.630   6.824   3.008 -0.2771  0.4033  0.0083
  829MOL0     C11833  10.518   6.803   2.937 -0.7517  0.6600 -0.3051
  829MOL0     C11834  10.207   6.537   2.725  0.7140 -0.2651 -0.5671
  829MOL0     C11835  10.213   6.469   2.603  0.0975 -0.0083  0.3942
  829MOL0     C11836  10.108   6.396   2.543  0.0145  0.3402 -0.5453
  829MOL0     C11837   9.993   6.375   2.620  0.6094 -0.7689  0.2212
  829MOL0     O11838   9.895   6.292   2.568  1.2678  0.2277 -0.2328
  829MOL0     C11839   9.785   6.234   2.653  0.6678  0.0244 -0.7007
  829MOL0     C11840   9.697   6.125   2.585  0.1921  1.0230  0.0264
  829MOL0     C11841   9.606   6.058   2.687  0.3109  0.4382 -0.1938
  829MOL0     C11842   9.558   5.922   2.643  0.7297 -0.0292 -0.4936
  829MOL0     C11843   9.664   5.826   2.670 -0.0423  0.4238  0.9234
  829MOL0     C11844   9.757   5.751   2.678 -0.1693 -1.2007  0.0220
  829MOL0     C11845   9.985   6.445   2.743  0.2991 -0.2857  0.6705
  829MOL0     C11846  10.082   6.528   2.794  0.2576 -0.5219  0.4891
  829MOL0     C11847  10.040   6.595   2.924 -0.6317 -0.5488 -0.5167
  829MOL0     H11848  10.390   6.537   3.092  1.3012 -1.2652 -2.7672
  829MOL0     H11849  10.582   6.573   3.234  2.4279  0.4960  0.6432
  829MOL0     H11850  10.878   6.626   3.286 -0.8923  2.8043  1.1199
  829MOL0     H11851  10.844   6.602   3.117 -0.3207 -1.9050  1.3910
  829MOL0     H11852  10.998   6.826   3.255  0.2889 -1.9435  0.3187
  829MOL0     H11853  10.938   6.853   3.095  1.8223  0.6118 -0.8933
  829MOL0     H11854  11.181   6.807   3.112 -1.0449  0.4259  0.9237
  829MOL0     H11855  11.083   6.692   3.013 -0.3693 -0.2758 -0.2148
  829MOL0     H11856  11.078   6.573   3.259  0.7651 -1.6467  0.6315
  829MOL0     H11857  11.178   6.539   3.126 -0.1851  1.3363 -1.3730
  829MOL0     H11858  11.283   6.765   3.303 -0.8839  0.9567 -2.0888
  829MOL0     H11859  11.281   6.603   3.375 -0.9484 -1.4742 -2.3374
  829MOL0     H11860  11.398   6.488   3.201 -2.9479  0.0640 -1.9445
  829MOL0     H11861  11.436   6.643   3.130 -0.6193  2.1359  1.2096
  829MOL0     H11862  11.526   6.549   3.402  3.7851  0.5511  1.1416
  829MOL0     H11863  11.571   6.711   3.329  1.0376 -0.8501 -1.3576
  829MOL0     H11864  11.638   6.438   3.225 -2.7955 -0.2965  4.2707
  829MOL0     H11865  11.633   6.586   3.126 -6.0502 -1.8729  0.2647
  829MOL0     H11866  11.767   6.825   3.287  3.3296  1.7859 -2.9749
  829MOL0     H11867  12.090   6.862   3.263  0.1569  1.5523  0.3073
  829MOL0     H11868  11.958   6.933   3.360 -2.3523 -2.0425 -4.0655
  829MOL0     H11869  12.071   6.881   3.559  1.7478 -1.9768  1.2563
  829MOL0     H11870  12.149   6.736   3.496  0.1905  0.0507 -0.5767
  829MOL0     H11871  12.228   7.012   3.397  0.0535 -0.6461 -0.7206
  829MOL0     H11872  12.287   6.855   3.340  1.8040 -0.3931  0.7863
  829MOL0     H11873  12.307   6.982   3.617  1.7352 -0.5552  1.5616
  829MOL0     H11874  12.438   6.964   3.499 -0.5483  0.5660 -0.3755
  829MOL0     H11875  12.375   6.543   3.646 -0.7582 -1.1500 -1.1691
  829MOL0     H11876  12.500   6.373   3.545 -0.5421  1.2779  2.2569
  829MOL0     H11877  12.952   6.303   3.380 -0.9461  0.1302  2.1727
  829MOL0     H11878  13.125   6.111   3.375 -0.0022 -1.3659 -0.5838
  829MOL0     H11879  12.993   5.756   3.591 -1.8502  4.2515 -1.3391
  829MOL0     H11880  12.978   5.717   3.420  0.9550  1.1300 -2.0184
  829MOL0     H11881  13.197   5.626   3.390  0.0955 -1.9292  0.3992
  829MOL0     H11882  13.249   5.708   3.538 -1.7152  2.9137  0.2612
  829MOL0     H11883  13.242   5.469   3.562 -0.9968 -1.5485 -3.0710
  829MOL0     H11884  13.133   5.541   3.674  1.0039 -1.7580  1.0849
  829MOL0     H11885  13.049   5.419   3.420 -0.0071 -0.5927  0.2760
  829MOL0     H11886  12.931   5.483   3.540 -1.1053 -0.1929 -1.7845
  829MOL0     H11887  13.025   5.312   3.704  2.2083 -0.8380 -0.3666
  829MOL0     H11888  13.130   5.264   3.591  0.6803 -0.1214  0.1868
  829MOL0     H11889  12.823   5.255   3.540 -0.2749  0.1604 -0.8967
  829MOL0     H11890  12.927   5.201   3.419  1.3301 -0.2088  0.7180
  829MOL0     H11891  12.994   5.068   3.684  0.2085  0.2997  0.2051
  829MOL0     H11892  12.995   5.002   3.523 -0.9812 -0.2045 -0.6506
  829MOL0     H11893  12.736   4.997   3.519  1.1954  1.7005 -0.8070
  829MOL0     H11894  12.796   4.908   3.654 -0.6677  0.7545 -1.1643
  829MOL0     H11895  12.813   5.840   3.487  0.2431  0.4040  2.9787
  829MOL0     H11896  12.645   6.020   3.457 -1.1267  3.5330 -0.1268
  829MOL0     H11897  12.687   6.657   3.286 -1.0918  1.4778  0.2069
  829MOL0     H11898  12.535   6.824   3.373 -2.0154 -0.7366 -0.6684
  829MOL0     H11899  10.698   6.902   2.975 -1.1625  0.8391 -0.8336
  829MOL0     H11900  10.503   6.861   2.847  2.7040 -0.9067 -2.0545
  829MOL0     H11901  10.303   6.467   2.542 -1.0702  2.6133 -1.6284
  829MOL0     H11902  10.121   6.355   2.443 -0.5043  0.8596 -0.8316
  829MOL0     H11903   9.717   6.315   2.682  0.7613  0.8070 -2.4984
  829MOL0     H11904   9.835   6.187   2.738 -1.3679  1.4072  1.3769
  829MOL0     H11905   9.774   6.052   2.556  1.6153  2.1989  0.7297
  829MOL0     H11906   9.646   6.170   2.499 -2.4853 -1.9944 -0.1646
  829MOL0     H11907   9.509   6.106   2.705 -0.5940 -1.2091 -0.4442
  829MOL0     H11908   9.663   6.048   2.780  2.7118  2.8556 -1.2979
  829MOL0     H11909   9.467   5.892   2.696  2.0026 -0.1268  1.7683
  829MOL0     H11910   9.540   5.921   2.535 -3.7399 -0.3798  0.0781
  829MOL0     H11911   9.847   5.694   2.688  0.1523 -0.5388  1.0252
  829MOL0     H11912   9.894   6.427   2.799  0.5481 -0.8294  0.8997
  829MOL0     H11913   9.931   6.597   2.932 -0.4866  0.5440  3.6551
  829MOL0     H11914  10.082   6.535   3.005  0.5647 -0.9939 -1.4344
  829MOL0     H11915  10.068   6.701   2.927  1.3314 -1.0303 -0.3822
  830MOL0     O11916   5.411   6.659   8.189  0.5866 -0.2265 -0.6131
  830MOL0     C11917   5.468   6.748   8.252  0.5013  0.3476  0.4690
  830MOL0     O11918   5.420   6.826   8.352 -0.1248 -0.4632 -0.2181
  830MOL0     C11919   5.291   6.802   8.402 -0.2086 -0.8222 -0.0973
  830MOL0     C11920   5.200   6.879   8.338 -0.1518 -0.0300 -0.0459
  830MOL0     C11921   5.062   6.863   8.372 -0.2517  0.4045 -0.0394
  830MOL0     C11922   5.018   6.774   8.477 -1.1944 -0.8443 -0.2900
  830MOL0     O11923   4.880   6.756   8.511  0.0820 -0.3566  1.0098
  830MOL0     C11924   4.860   6.774   8.648  0.4405  1.0169 -0.6359
  830MOL0     C11925   4.709   6.741   8.679 -0.1971  0.5901 -0.1111
  830MOL0     C11926   4.610   6.828   8.592 -0.4263  0.1882 -0.6220
  830MOL0     C11927   4.472   6.775   8.618 -0.0120  0.4245 -0.3534
  830MOL0     C11928   4.378   6.859   8.529  0.6963 -0.4875  0.2965
  830MOL0     C11929   4.228   6.834   8.547 -1.3971 -0.0391 -0.4265
  830MOL0     C11930   4.157   6.909   8.436  0.1984  0.3584  0.1430
  830MOL0     C11931   4.134   7.063   8.442 -0.2008 -0.4519  0.3289
  830MOL0     N11932   4.043   7.086   8.554  0.3282 -0.3070  0.2474
  830MOL0     C11933   3.909   7.047   8.560 -0.1868  0.2128  0.0984
  830MOL0     C11934   3.861   7.126   8.665  0.7600  0.6679  1.2175
  830MOL0     C11935   3.721   7.078   8.723  0.7481 -0.1930  0.5215
  830MOL0     C11936   3.744   6.958   8.820  0.3059 -0.3233  0.9509
  830MOL0     C11937   3.627   6.886   8.872  0.4428 -0.4542  0.5561
  830MOL0     C11938   3.508   6.974   8.876 -0.0565  0.1541  0.1656
  830MOL0     O11939   3.523   7.071   8.976  0.8690 -0.9341  0.3252
  830MOL0     C11940   3.409   7.151   9.008 -0.0999  0.2875 -0.4642
  830MOL0     C11941   3.404   7.223   9.133  0.2866  0.3218  0.0439
  830MOL0     C11942   3.288   7.278   9.184 -1.2809  0.4678 -0.0846
  830MOL0     C11943   3.168   7.272   9.110 -0.6389 -0.3452 -0.4641
  830MOL0     C11944   3.042   7.319   9.166 -0.6056 -0.1664  0.1034
  830MOL0     O11945   2.926   7.300   9.107  0.3826 -0.8672  0.2730
  830MOL0     C11946   2.801   7.320   9.164  0.5422 -0.1911 -0.1978
  830MOL0     C11947   2.767   7.393   9.278 -0.1877 -0.5870 -0.6974
  830MOL0     C11948   2.634   7.414   9.318  0.5327 -0.7195  0.8325
  830MOL0     C11949   2.530   7.375   9.227  0.1597  0.9306 -0.1107
  830MOL0     O11950   2.395   7.389   9.257 -0.1698 -0.7115  0.5095
  830MOL0     C11951   2.368   7.370   9.399  0.1151  0.5463 -0.3017
  830MOL0     C11952   2.215   7.351   9.424  0.3684  0.8100 -0.6073
  830MOL0     C11953   2.168   7.231   9.345  0.4668  0.2127 -0.4080
  830MOL0     C11954   2.019   7.203   9.375 -0.4990 -0.2108  0.1719
  830MOL0     C11955   1.942   7.118   9.263  0.0007 -0.4473  0.2024
  830MOL0     C11956   2.031   6.999   9.207 -0.4855 -0.1315  0.2870
  830MOL0     C11957   1.968   6.918   9.089 -0.5260  0.5094  0.1920
  830MOL0     C11958   1.856   6.826   9.122  0.1647 -0.9838  0.4472
  830MOL0    Cl11959   1.790   6.738   8.969 -0.2149 -0.0430  0.0445
  830MOL0     C11960   2.564   7.314   9.102  0.4523  0.2101 -0.1780
  830MOL0     C11961   2.699   7.270   9.077 -0.5477 -0.4907 -0.1941
  830MOL0     O11962   3.060   7.371   9.275  0.0808  0.1575  0.8124
  830MOL0     C11963   3.173   7.216   8.978  0.7550 -0.1105  0.4631
  830MOL0     C11964   3.288   7.150   8.934 -0.3130  0.7299 -0.5149
  830MOL0     N11965   3.956   7.202   8.721 -0.5429  0.4584 -0.4727
  830MOL0     N11966   4.071   7.171   8.659  0.1962 -0.3784  0.2431
  830MOL0     C11967   5.122   6.695   8.536 -0.6907  0.6586 -0.1240
  830MOL0     C11968   5.257   6.707   8.493 -1.2830  1.0798 -0.2276
  830MOL0     C11969   5.601   6.774   8.202 -0.4038 -0.2377  0.5843
  830MOL0     C11970   5.684   6.667   8.176 -0.0518 -0.2506  0.4695
  830MOL0     C11971   5.811   6.686   8.118  0.0908 -0.3185 -0.6965
  830MOL0     C11972   5.859   6.811   8.082  0.6199  0.6026 -0.7080
  830MOL0     O11973   5.974   6.808   8.007  0.2736  0.0579 -0.1279
  830MOL0     C11974   6.013   6.928   7.939 -0.1190  0.0613  0.3706
  830MOL0     C11975   6.160   6.914   7.916 -0.5149 -0.0354 -0.5347
  830MOL0     C11976   6.247   7.039   7.869 -0.6560  0.3227 -0.4792
  830MOL0     C11977   6.213   7.076   7.717  0.3990  0.3190 -0.6010
  830MOL0     C11978   6.276   6.982   7.627  0.3588  0.4596  0.3346
  830MOL0     C11979   6.344   6.910   7.555 -0.2335 -0.2997  0.1530
  830MOL0     C11980   5.784   6.925   8.127 -0.5256 -0.0769  0.5003
  830MOL0     C11981   5.651   6.909   8.176 -0.7127  0.8476 -0.3942
  830MOL0     C11982   5.568   7.030   8.194 -0.6355 -1.1916 -0.0577
  830MOL0     H11983   5.231   6.945   8.258  1.5988  0.4562  0.9727
  830MOL0     H11984   4.984   6.907   8.312  0.4808  2.5830  0.5215
  830MOL0     H11985   4.918   6.705   8.710 -1.6547  1.3138  1.8443
  830MOL0     H11986   4.882   6.879   8.669  0.2241  0.6592  1.5631
  830MOL0     H11987   4.703   6.756   8.787 -2.3286  0.2666 -0.1562
  830MOL0     H11988   4.694   6.634   8.657  3.2159  0.4107 -2.6025
  830MOL0     H11989   4.616   6.829   8.482 -1.1650  2.8454 -0.7132
  830MOL0     H11990   4.606   6.936   8.612 -0.4474 -0.0457  0.7246
  830MOL0     H11991   4.458   6.670   8.588 -0.5790  0.8807 -1.7542
  830MOL0     H11992   4.448   6.776   8.725 -0.8509 -2.0687 -0.4469
  830MOL0     H11993   4.395   6.965   8.547 -2.0096  0.2256 -0.7810
  830MOL0     H11994   4.413   6.857   8.425  0.6940  0.5107  0.2688
  830MOL0     H11995   4.210   6.726   8.545 -2.2756  0.0237  1.8345
  830MOL0     H11996   4.194   6.874   8.643 -1.0445  2.1447 -1.1667
  830MOL0     H11997   4.059   6.862   8.437  0.0116  0.6691 -1.4253
  830MOL0     H11998   4.204   6.881   8.342  1.9249  2.9626  0.1048
  830MOL0     H11999   4.230   7.115   8.454 -0.5353  0.2405  0.0501
  830MOL0     H12000   4.083   7.088   8.348  0.9104  1.7551  0.2522
  830MOL0     H12001   3.853   6.972   8.505 -4.3042  1.8929  1.6181
  830MOL0     H12002   3.666   7.156   8.776 -0.2025  0.3733 -1.2229
  830MOL0     H12003   3.652   7.048   8.644 -0.4690 -1.6603  2.0919
  830MOL0     H12004   3.811   6.887   8.770 -0.8665  0.1874 -1.4953
  830MOL0     H12005   3.802   7.004   8.901 -0.7627 -1.1072  2.1924
  830MOL0     H12006   3.647   6.852   8.974 -1.4504 -1.4237  0.6538
  830MOL0     H12007   3.613   6.802   8.804 -0.6261 -2.2971  2.9098
  830MOL0     H12008   3.423   6.912   8.909  0.6910  0.1664  2.2619
  830MOL0     H12009   3.485   7.016   8.778 -3.3987  3.0814  1.9766
  830MOL0     H12010   3.489   7.224   9.200 -0.5865  1.1144  1.1903
  830MOL0     H12011   3.289   7.323   9.282 -0.2682  1.0409 -0.3417
  830MOL0     H12012   2.844   7.445   9.333 -0.0337  0.1498 -1.5867
  830MOL0     H12013   2.611   7.485   9.396 -1.0701 -0.9355  0.5966
  830MOL0     H12014   2.414   7.278   9.437 -1.4905 -0.8382 -1.5556
  830MOL0     H12015   2.397   7.460   9.455 -0.7541 -0.2053  1.4356
  830MOL0     H12016   2.188   7.332   9.529 -0.1011 -1.4515 -1.1065
  830MOL0     H12017   2.160   7.439   9.388 -0.8775  1.4630  2.4835
  830MOL0     H12018   2.170   7.253   9.238  4.6302  0.1104 -0.4947
  830MOL0     H12019   2.228   7.145   9.377  2.4388 -0.2836 -4.7885
  830MOL0     H12020   1.969   7.300   9.381 -0.8324 -0.2963 -0.9769
  830MOL0     H12021   2.013   7.143   9.466 -0.4166  2.2193  1.8808
  830MOL0     H12022   1.919   7.174   9.172  2.3106 -3.3028 -2.3834
  830MOL0     H12023   1.845   7.081   9.298 -2.7378  5.0520 -0.4535
  830MOL0     H12024   2.116   7.048   9.160 -0.8455  0.7043  0.4994
  830MOL0     H12025   2.061   6.927   9.284 -4.9118 -2.8211 -0.1059
  830MOL0     H12026   2.046   6.853   9.049 -3.0795 -1.3004 -2.2632
  830MOL0     H12027   1.935   6.985   9.009  0.2348  0.1245 -0.4564
  830MOL0     H12028   1.891   6.759   9.201  0.2494  1.4486  2.5892
  830MOL0     H12029   1.784   6.881   9.182  3.8544 -1.8700  6.4992
  830MOL0     H12030   2.481   7.294   9.035 -1.0286  2.5475  0.8121
  830MOL0     H12031   2.713   7.202   8.993  0.9370 -2.4463  1.5594
  830MOL0     H12032   3.083   7.208   8.917  0.2256 -0.2303  1.2326
  830MOL0     H12033   3.273   7.091   8.844  0.9289  0.7856 -0.7724
  830MOL0     H12034   5.090   6.618   8.606  2.2646 -0.1795  0.4413
  830MOL0     H12035   5.324   6.635   8.538 -2.7062  0.4362  0.9771
  830MOL0     H12036   5.632   6.572   8.169  1.3307 -0.9248 -1.4310
  830MOL0     H12037   5.853   6.587   8.107 -2.3014 -1.8390  2.4350
  830MOL0     H12038   5.990   7.015   8.001 -1.0697  0.9988 -1.2468
  830MOL0     H12039   5.964   6.939   7.842 -0.1649 -0.9056  0.2779
  830MOL0     H12040   6.179   6.835   7.843 -1.9322 -1.5813  0.7109
  830MOL0     H12041   6.191   6.889   8.018  0.2485 -0.1306 -0.7826
  830MOL0     H12042   6.353   7.015   7.882 -0.7124  0.1006 -0.4281
  830MOL0     H12043   6.220   7.124   7.934  2.1273  1.7732 -1.0773
  830MOL0     H12044   6.106   7.067   7.693  0.5799 -0.4749 -1.1615
  830MOL0     H12045   6.247   7.179   7.704 -0.2219  0.7229  0.7987
  830MOL0     H12046   6.430   6.869   7.505  0.1851  0.1192  0.5189
  830MOL0     H12047   5.820   7.027   8.122  0.6142 -0.4731  0.3011
  830MOL0     H12048   5.619   7.120   8.158 -1.1289 -0.3848  1.1911
  830MOL0     H12049   5.468   7.019   8.151 -0.9016 -0.0138  0.2091
  830MOL0     H12050   5.553   7.056   8.299  0.6262  0.5905 -0.2593
  831MOL0     O12051   8.835   4.507  11.076 -0.1506 -0.7301  0.0642
  831MOL0     C12052   8.946   4.548  11.046 -0.6382 -0.6667  0.2843
  831MOL0     O12053   9.010   4.528  10.925  0.3526 -0.0859 -0.0481
  831MOL0     C12054   8.975   4.435  10.836  0.1754  0.0260  1.1240
  831MOL0     C12055   8.911   4.309  10.866  0.3819  0.2380  0.0908
  831MOL0     C12056   8.874   4.225  10.755 -0.2609  0.3528 -0.2591
  831MOL0     C12057   8.911   4.250  10.626 -0.4530 -0.3470  0.1860
  831MOL0     O12058   8.888   4.146  10.531 -0.0927 -0.8537  0.7358
  831MOL0     C12059   8.792   4.191  10.438 -0.4423 -0.0666 -0.0802
  831MOL0     C12060   8.794   4.099  10.314 -0.1683  0.7677  0.0133
  831MOL0     C12061   8.734   4.151  10.181 -0.3983  1.1401 -0.2187
  831MOL0     C12062   8.671   4.040  10.101  0.4503  0.8759  0.1849
  831MOL0     C12063   8.594   4.096   9.972 -0.3504  0.1553 -0.9128
  831MOL0     C12064   8.552   3.983   9.880 -0.0661 -0.6326 -0.1893
  831MOL0     C12065   8.499   4.036   9.750 -0.1369 -0.3864  1.1553
  831MOL0     C12066   8.350   4.076   9.763 -0.0637 -0.7487 -0.1686
  831MOL0     N12067   8.286   4.111   9.638  0.2801 -0.4052 -0.2441
  831MOL0     C12068   8.195   4.212   9.624  0.4108 -0.1968 -0.5661
  831MOL0     C12069   8.174   4.217   9.491  0.4674  0.7123  1.0365
  831MOL0     C12070   8.068   4.293   9.418 -0.2321  0.0173 -0.1205
  831MOL0     C12071   7.929   4.229   9.401  0.4457 -0.5525 -0.6119
  831MOL0     C12072   7.902   4.151   9.274  0.1054  0.1066  1.0026
  831MOL0     C12073   8.002   4.040   9.265  0.8299 -0.7529  0.5877
  831MOL0     O12074   7.960   3.962   9.153 -0.3161  0.8462  0.8159
  831MOL0     C12075   8.026   3.847   9.119  0.0373  0.3242  0.1448
  831MOL0     C12076   7.970   3.757   9.024  0.3003 -0.7067 -0.5605
  831MOL0     C12077   8.034   3.647   8.986  0.2586  0.9366  0.6308
  831MOL0     C12078   8.170   3.626   9.022 -0.4943 -0.4382 -0.0713
  831MOL0     C12079   8.248   3.515   8.967 -0.4732 -0.2483  0.0027
  831MOL0     O12080   8.378   3.494   9.006 -0.2941  0.0634 -0.0150
  831MOL0     C12081   8.472   3.425   8.932 -0.5030 -0.2125  0.4168
  831MOL0     C12082   8.489   3.457   8.793  0.1426 -0.2988 -0.3578
  831MOL0     C12083   8.585   3.378   8.719  0.7208 -0.5263  0.1438
  831MOL0     C12084   8.659   3.266   8.773 -0.8175  0.4704  0.2418
  831MOL0     O12085   8.751   3.200   8.691  0.2206 -0.3665 -0.3947
  831MOL0     C12086   8.815   3.084   8.738  0.9118 -0.1256  0.3264
  831MOL0     C12087   8.938   3.108   8.828 -0.5349 -0.1473  0.8062
  831MOL0     C12088   8.998   2.974   8.868 -0.6827 -0.8745  0.3893
  831MOL0     C12089   9.018   2.980   9.022 -0.1475  0.6153  0.1757
  831MOL0     C12090   9.128   3.080   9.061 -0.0912 -0.2832  0.5852
  831MOL0     C12091   9.206   3.055   9.185  0.4846  0.3718 -0.2272
  831MOL0     C12092   9.300   3.183   9.212  0.3368  0.5176 -0.4896
  831MOL0     C12093   9.387   3.162   9.326  0.0232 -0.1377  0.3408
  831MOL0    Cl12094   9.524   3.285   9.330  0.4786 -0.0755 -0.0658
  831MOL0     C12095   8.637   3.247   8.908 -0.1342 -0.9369 -0.4202
  831MOL0     C12096   8.554   3.324   8.990  0.2472  0.0263 -0.6412
  831MOL0     O12097   8.183   3.447   8.887 -0.0897 -0.1252  0.3171
  831MOL0     C12098   8.231   3.715   9.110 -0.9382  0.2787  0.2067
  831MOL0     C12099   8.163   3.826   9.165 -0.7224 -0.0060  1.1797
  831MOL0     N12100   8.254   4.116   9.427  0.7510  1.5823  0.2725
  831MOL0     N12101   8.322   4.059   9.519 -0.4216 -0.4085 -0.6145
  831MOL0     C12102   8.981   4.366  10.595  0.6538  1.1981 -0.6682
  831MOL0     C12103   8.996   4.464  10.691  0.0017  0.2644  0.1301
  831MOL0     C12104   9.020   4.633  11.144 -0.4083  0.4612  0.0670
  831MOL0     C12105   9.116   4.723  11.102 -0.0916  0.3743  0.7835
  831MOL0     C12106   9.182   4.809  11.187  0.2768 -0.3603  0.4549
  831MOL0     C12107   9.175   4.794  11.326 -0.7266  0.5447 -0.1044
  831MOL0     O12108   9.260   4.856  11.412  0.0933 -0.1297  0.0001
  831MOL0     C12109   9.253   5.004  11.408 -0.2415 -0.7458  0.2139
  831MOL0     C12110   9.350   5.043  11.524  0.5538  0.8402 -0.5153
  831MOL0     C12111   9.306   5.174  11.613  0.7060 -0.4180  1.2779
  831MOL0     C12112   9.426   5.264  11.644  0.6197  0.3671  0.1818
  831MOL0     C12113   9.379   5.358  11.742 -0.8117  0.3773  0.3233
  831MOL0     C12114   9.319   5.439  11.813 -0.2200 -0.9764 -0.0416
  831MOL0     C12115   9.081   4.700  11.377 -0.1921  0.4447  0.6468
  831MOL0     C12116   8.997   4.623  11.283 -0.1899 -0.7770 -0.9261
  831MOL0     C12117   8.904   4.522  11.353 -0.3511  0.3439  1.0489
  831MOL0     H12118   8.889   4.294  10.971  0.6813 -0.0280  0.1144
  831MOL0     H12119   8.828   4.128  10.773  3.0550 -1.5091 -0.8575
  831MOL0     H12120   8.696   4.177  10.489  0.5049 -0.2945  1.7550
  831MOL0     H12121   8.815   4.293  10.406 -0.5476 -0.3593 -1.1015
  831MOL0     H12122   8.743   4.005  10.339 -0.7309  0.1917 -2.9150
  831MOL0     H12123   8.893   4.072  10.276 -1.5498 -2.4286 -1.7260
  831MOL0     H12124   8.807   4.209  10.123  0.2476  1.0654  0.4959
  831MOL0     H12125   8.647   4.215  10.196 -1.3727 -0.7799  3.1268
  831MOL0     H12126   8.753   3.976  10.067  0.0532 -0.2866  1.3020
  831MOL0     H12127   8.611   3.970  10.161  0.8002 -0.1571 -0.6454
  831MOL0     H12128   8.505   4.147  10.009  0.0826  1.1066 -1.1738
  831MOL0     H12129   8.645   4.183   9.930 -4.0733  1.4991 -3.0889
  831MOL0     H12130   8.640   3.928   9.846 -2.0496 -2.4313 -2.8602
  831MOL0     H12131   8.485   3.911   9.927  1.5271 -1.9336  0.1921
  831MOL0     H12132   8.510   3.962   9.670  0.1853  1.2422 -0.3655
  831MOL0     H12133   8.563   4.121   9.725  0.2745  1.3663  6.6886
  831MOL0     H12134   8.307   3.990   9.814 -3.2381  0.1104 -1.2162
  831MOL0     H12135   8.350   4.159   9.835  1.3496 -0.3956 -0.5333
  831MOL0     H12136   8.135   4.257   9.703 -2.0564 -0.9455 -1.9118
  831MOL0     H12137   8.065   4.391   9.467  0.7876  0.2789 -0.5530
  831MOL0     H12138   8.109   4.319   9.320  0.6714  0.8658  0.4652
  831MOL0     H12139   7.910   4.172   9.492 -0.8285 -0.5329 -0.8512
  831MOL0     H12140   7.864   4.316   9.408  1.5357  0.1760  1.1657
  831MOL0     H12141   7.911   4.207   9.180 -0.4143 -0.4699  0.6027
  831MOL0     H12142   7.801   4.109   9.272 -0.5305  1.6275  0.4980
  831MOL0     H12143   8.005   3.981   9.357 -1.2738 -2.5734 -0.4015
  831MOL0     H12144   8.094   4.088   9.231  1.8629 -2.4261  0.9204
  831MOL0     H12145   7.875   3.777   8.977  0.7615 -1.2880 -1.7841
  831MOL0     H12146   7.990   3.578   8.914 -0.5788  0.6606  1.3870
  831MOL0     H12147   8.434   3.535   8.742 -2.2660 -2.9239 -2.0677
  831MOL0     H12148   8.604   3.409   8.617 -3.6933  1.0008 -0.4481
  831MOL0     H12149   8.747   3.028   8.801  2.5810 -0.5159  1.8624
  831MOL0     H12150   8.840   3.023   8.650 -0.4479 -0.1419 -0.0767
  831MOL0     H12151   9.014   3.138   8.756 -1.4904 -0.3570 -0.3150
  831MOL0     H12152   8.929   3.184   8.906  0.4143 -0.8652  1.6599
  831MOL0     H12153   8.935   2.888   8.841 -1.4673  0.1800 -1.3100
  831MOL0     H12154   9.090   2.959   8.811 -0.8178 -1.4994  0.3237
  831MOL0     H12155   9.042   2.877   9.052  2.4640  0.5723 -1.6815
  831MOL0     H12156   8.931   3.013   9.078 -1.0408  0.0418 -0.8430
  831MOL0     H12157   9.096   3.182   9.084  3.0286  0.6356  1.3776
  831MOL0     H12158   9.197   3.087   8.976 -3.3027 -0.3502 -2.2097
  831MOL0     H12159   9.120   3.052   9.253 -0.0334  0.8155 -0.8518
  831MOL0     H12160   9.259   2.960   9.175  1.0360  0.7785 -1.3600
  831MOL0     H12161   9.239   3.274   9.220 -2.0644 -0.9682 -0.9470
  831MOL0     H12162   9.365   3.208   9.128  0.9602  2.9059  0.6230
  831MOL0     H12163   9.331   3.152   9.419  0.1804 -5.6308  0.1508
  831MOL0     H12164   9.422   3.059   9.317  0.6293  0.1297 -0.4398
  831MOL0     H12165   8.699   3.176   8.961 -1.0515 -1.4069  0.0400
  831MOL0     H12166   8.542   3.295   9.093 -1.0446  2.1147 -0.1363
  831MOL0     H12167   8.334   3.709   9.144 -0.6465  0.9297 -0.5388
  831MOL0     H12168   8.222   3.892   9.228  3.1811  1.2843 -3.2321
  831MOL0     H12169   9.031   4.381  10.500  2.6544  4.3460  0.7272
  831MOL0     H12170   9.034   4.563  10.667 -0.3206  0.3007 -0.2372
  831MOL0     H12171   9.144   4.717  10.998 -3.3588 -2.3565 -0.1181
  831MOL0     H12172   9.252   4.878  11.140  1.7976 -0.5358  2.3411
  831MOL0     H12173   9.149   5.034  11.417 -0.9032 -2.4496 -1.3222
  831MOL0     H12174   9.290   5.049  11.315  2.5078 -1.9539  0.6228
  831MOL0     H12175   9.440   5.087  11.481 -1.0631  2.5006 -2.4705
  831MOL0     H12176   9.373   4.959  11.589 -2.5179 -0.8592 -1.4147
  831MOL0     H12177   9.272   5.122  11.703  1.8718 -3.0317  0.2958
  831MOL0     H12178   9.222   5.228  11.569 -1.0913 -5.4600 -2.4458
  831MOL0     H12179   9.509   5.205  11.684  0.4716 -0.4568 -0.6775
  831MOL0     H12180   9.453   5.328  11.559 -0.3880 -1.0289 -1.2671
  831MOL0     H12181   9.264   5.499  11.882  0.7355 -0.2103  0.0644
  831MOL0     H12182   9.071   4.678  11.483 -1.8046  0.2330  0.4773
  831MOL0     H12183   8.912   4.529  11.462 -2.6432  1.4397  1.2071
  831MOL0     H12184   8.798   4.524  11.328  0.5723 -1.9403 -4.4229
  831MOL0     H12185   8.935   4.421  11.325 -4.0884 -0.2884 -1.6201
  832MOL0     O12186   2.806   4.176   2.023 -0.0010 -0.4864  0.1242
  832MOL0     C12187   2.853   4.166   1.909 -0.5702 -0.1087  1.0983
  832MOL0     O12188   2.786   4.110   1.798 -0.2479 -0.4132  0.0195
  832MOL0     C12189   2.670   4.059   1.824  0.9320  0.5320  0.5641
  832MOL0     C12190   2.553   4.131   1.847 -0.5261  1.5352 -0.0840
  832MOL0     C12191   2.430   4.073   1.887 -0.3554  0.4904  0.2918
  832MOL0     C12192   2.418   3.938   1.881 -0.4960  0.0271 -0.4276
  832MOL0     O12193   2.306   3.864   1.897  0.6535  0.1813 -0.1819
  832MOL0     C12194   2.179   3.906   1.850 -0.8378  0.5966 -0.1678
  832MOL0     C12195   2.157   3.937   1.707  0.4180 -0.0185  0.4320
  832MOL0     C12196   2.011   3.975   1.672 -0.3689 -0.2646 -0.7658
  832MOL0     C12197   1.973   4.114   1.709  0.0414  0.3702 -0.3920
  832MOL0     C12198   1.824   4.144   1.666 -0.2497  0.1875  0.5876
  832MOL0     C12199   1.723   4.069   1.765 -0.3869 -1.2195  0.9810
  832MOL0     C12200   1.578   4.126   1.745  0.4228  0.8294  0.0523
  832MOL0     C12201   1.530   4.102   1.612 -0.1403  1.1715 -0.3143
  832MOL0     N12202   1.387   4.111   1.599  0.0548 -0.2414  0.6598
  832MOL0     C12203   1.300   4.014   1.638  0.2053  0.6186  1.0703
  832MOL0     C12204   1.182   4.040   1.579  0.5048  0.8989 -0.1200
  832MOL0     C12205   1.068   3.935   1.588  0.4133  0.0759 -0.7624
  832MOL0     C12206   1.026   3.908   1.444 -0.1570 -0.7523 -0.1451
  832MOL0     C12207   0.905   3.998   1.414  0.6518 -0.7564  0.8050
  832MOL0     C12208   0.810   3.935   1.300 -0.7568  0.8064 -0.9635
  832MOL0     O12209   0.767   4.028   1.202 -0.0935 -0.4816  1.1678
  832MOL0     C12210   0.637   4.032   1.164 -0.6479 -0.4535 -0.3161
  832MOL0     C12211   0.611   4.108   1.054  0.5984 -1.0770  0.9417
  832MOL0     C12212   0.485   4.118   0.993 -0.5331 -0.0241  0.3706
  832MOL0     C12213   0.373   4.057   1.054  0.0959 -0.1181 -1.0803
  832MOL0     C12214   0.240   4.054   0.982  0.2808  0.9408 -0.6171
  832MOL0     O12215   0.208   4.156   0.893  0.3028  0.1746 -0.2367
  832MOL0     C12216   0.084   4.135   0.834  0.5091 -0.5333  0.6561
  832MOL0     C12217   0.048   4.020   0.769  0.5445  0.2710  0.6533
  832MOL0     C12218  -0.093   3.995   0.715 -1.7919  0.9794 -0.1808
  832MOL0     C12219  -0.192   4.090   0.737 -1.2974 -0.6023 -0.1076
  832MOL0     O12220  -0.311   4.079   0.679  0.5764  0.2911 -0.0635
  832MOL0     C12221  -0.425   4.155   0.720 -1.1254 -0.3235 -0.0820
  832MOL0     C12222  -0.536   4.094   0.634 -0.1482 -0.0018  0.7400
  832MOL0     C12223  -0.681   4.141   0.667 -0.5029  0.5821 -0.1592
  832MOL0     C12224  -0.748   4.073   0.786  0.3230 -0.0372  0.5257
  832MOL0     C12225  -0.905   4.092   0.760 -0.7117  0.3432 -0.5006
  832MOL0     C12226  -0.975   4.010   0.858  0.5607  0.4521 -0.0234
  832MOL0     C12227  -1.111   4.080   0.900 -0.5899  0.7434 -0.4068
  832MOL0     C12228  -1.192   3.994   0.997  0.5236 -1.0044 -0.3654
  832MOL0    Cl12229  -1.248   3.845   0.916 -0.1580  0.1594 -0.0371
  832MOL0     C12230  -0.149   4.222   0.792 -0.7772  1.0806  0.6974
  832MOL0     C12231  -0.019   4.241   0.829  0.3250  0.3780 -0.5652
  832MOL0     O12232   0.154   3.982   1.036  0.6663 -0.2767 -0.3250
  832MOL0     C12233   0.402   3.978   1.167 -0.0310 -1.0190 -0.2801
  832MOL0     C12234   0.533   3.964   1.228  0.5365 -0.3307  0.1986
  832MOL0     N12235   1.197   4.167   1.516  0.2749 -0.4645 -0.2222
  832MOL0     N12236   1.321   4.212   1.532 -0.3819  0.4979 -0.2616
  832MOL0     C12237   2.529   3.864   1.829  0.2733  0.1476  0.0044
  832MOL0     C12238   2.657   3.922   1.805  0.9845  0.5066  0.0287
  832MOL0     C12239   2.997   4.209   1.885  0.1690 -0.2554 -0.3390
  832MOL0     C12240   3.060   4.202   1.764 -0.5163 -0.2635  0.7011
  832MOL0     C12241   3.192   4.241   1.746  0.9025  0.3689  0.8610
  832MOL0     C12242   3.269   4.303   1.841 -0.7575 -0.5395  0.1392
  832MOL0     O12243   3.397   4.351   1.812  0.2172 -0.2263 -0.2219
  832MOL0     C12244   3.435   4.466   1.872 -0.4020 -0.4336 -0.2429
  832MOL0     C12245   3.579   4.514   1.838 -0.2582 -0.1927 -0.3866
  832MOL0     C12246   3.588   4.670   1.859  0.9791 -0.6419  0.5579
  832MOL0     C12247   3.605   4.696   2.006  0.4915 -0.8247  0.4025
  832MOL0     C12248   3.614   4.839   2.037  0.3619  0.1451 -0.7360
  832MOL0     C12249   3.608   4.952   2.081 -0.2750  0.4537  0.7946
  832MOL0     C12250   3.208   4.305   1.970  0.6459 -0.1757  0.5588
  832MOL0     C12251   3.077   4.265   1.993  0.0838 -0.1858  0.3762
  832MOL0     C12252   3.037   4.290   2.131  0.0949 -1.3061 -0.2393
  832MOL0     H12253   2.557   4.238   1.860  0.4400  1.7318 -1.6364
  832MOL0     H12254   2.334   4.122   1.901  0.3868  3.7340 -3.8845
  832MOL0     H12255   2.115   3.818   1.863 -0.4962  0.1778 -1.2138
  832MOL0     H12256   2.152   3.993   1.910 -0.8668  0.3181  0.2251
  832MOL0     H12257   2.185   3.848   1.649 -0.1417  0.6474 -0.9264
  832MOL0     H12258   2.226   4.018   1.682  3.1874 -2.2448  0.3313
  832MOL0     H12259   1.941   3.909   1.724  0.1363 -0.9897 -0.9948
  832MOL0     H12260   1.994   3.971   1.564  2.4601 -1.3235 -1.2370
  832MOL0     H12261   1.970   4.138   1.816  0.5724  0.3104 -0.3610
  832MOL0     H12262   2.041   4.191   1.672 -0.8878  1.6995  0.5732
  832MOL0     H12263   1.801   4.251   1.670 -3.7336 -0.2025 -2.6401
  832MOL0     H12264   1.813   4.109   1.563  0.7438 -2.2704  1.2452
  832MOL0     H12265   1.730   3.961   1.747  0.1993 -1.2278  1.2439
  832MOL0     H12266   1.754   4.080   1.869 -0.9748  2.7840  0.9057
  832MOL0     H12267   1.569   4.231   1.773  1.8110  0.6752  1.1989
  832MOL0     H12268   1.528   4.056   1.813  0.3626 -0.5101 -1.3022
  832MOL0     H12269   1.576   4.174   1.544  2.3572 -0.5163 -0.5536
  832MOL0     H12270   1.553   3.997   1.591 -1.3549  1.0938 -1.3920
  832MOL0     H12271   1.335   3.919   1.678 -1.1980 -0.7312 -0.7481
  832MOL0     H12272   1.114   3.848   1.637 -0.0239  0.5336  0.4750
  832MOL0     H12273   0.985   3.967   1.651 -0.2519  1.0412 -2.0970
  832MOL0     H12274   1.107   3.929   1.373  1.1966 -4.1516  0.2052
  832MOL0     H12275   0.994   3.804   1.436  1.0801 -1.0804 -1.2199
  832MOL0     H12276   0.947   4.098   1.401 -2.6935  0.5567 -1.0808
  832MOL0     H12277   0.831   4.006   1.494 -0.4608  0.6176 -0.3222
  832MOL0     H12278   0.734   3.876   1.353  0.1147  0.0093 -0.5755
  832MOL0     H12279   0.878   3.875   1.239 -0.7524  0.1439 -0.3221
  832MOL0     H12280   0.697   4.142   0.996  0.9416 -2.3912  0.6475
  832MOL0     H12281   0.472   4.170   0.898  3.0564  1.5015  0.5366
  832MOL0     H12282   0.120   3.939   0.764  0.3886  0.1821 -0.2415
  832MOL0     H12283  -0.130   3.903   0.670 -1.3769 -0.0927  1.5516
  832MOL0     H12284  -0.448   4.135   0.826  2.6034  1.8401  1.3259
  832MOL0     H12285  -0.418   4.263   0.705  0.9789 -0.0348  2.2751
  832MOL0     H12286  -0.520   4.120   0.529 -3.3926 -0.2287  0.1047
  832MOL0     H12287  -0.538   3.985   0.634 -1.0940 -0.0363  2.8806
  832MOL0     H12288  -0.671   4.249   0.680 -3.4627  0.9878 -0.6008
  832MOL0     H12289  -0.735   4.127   0.573 -1.4518  1.4951  0.2369
  832MOL0     H12290  -0.712   4.119   0.878 -3.5718  0.6532  1.8642
  832MOL0     H12291  -0.722   3.966   0.791 -0.3991 -0.3646 -1.6017
  832MOL0     H12292  -0.914   4.063   0.655  1.4844  0.9490 -0.8925
  832MOL0     H12293  -0.925   4.199   0.772 -0.1102  0.3539  0.5759
  832MOL0     H12294  -1.007   3.915   0.816 -4.6351  1.3581  1.1026
  832MOL0     H12295  -0.907   4.001   0.943 -0.0199  3.8478  0.9489
  832MOL0     H12296  -1.165   4.089   0.805  1.2959 -0.7959 -1.7129
  832MOL0     H12297  -1.090   4.179   0.941 -0.3300 -0.2641  2.0311
  832MOL0     H12298  -1.141   3.962   1.089 -1.4547 -1.4010  0.6433
  832MOL0     H12299  -1.274   4.052   1.039  2.7058  2.7985 -0.8502
  832MOL0     H12300  -0.216   4.308   0.794 -3.5583 -0.9088  4.0246
  832MOL0     H12301   0.010   4.343   0.856 -0.7083  0.2456  1.1731
  832MOL0     H12302   0.333   3.910   1.215 -1.2289 -1.5445 -2.6166
  832MOL0     H12303   0.545   3.903   1.317  2.3639  1.5248  1.3049
  832MOL0     H12304   2.508   3.757   1.829 -0.9160  0.2120 -3.9472
  832MOL0     H12305   2.747   3.863   1.789  1.4940  1.4675 -0.7754
  832MOL0     H12306   3.000   4.154   1.688 -0.1389  0.0900  0.1694
  832MOL0     H12307   3.241   4.218   1.652 -0.0491 -1.4501  0.7615
  832MOL0     H12308   3.442   4.451   1.980  1.4333  0.0891 -0.2574
  832MOL0     H12309   3.364   4.541   1.838  0.5831 -0.9174 -3.7902
  832MOL0     H12310   3.604   4.487   1.734  1.9159 -0.4165  0.1348
  832MOL0     H12311   3.654   4.462   1.897  0.3488  0.1027 -0.8756
  832MOL0     H12312   3.501   4.724   1.821  2.9918  1.6863 -1.1129
  832MOL0     H12313   3.677   4.706   1.805 -0.5164  1.8255 -0.4232
  832MOL0     H12314   3.529   4.646   2.067 -0.7975  0.0116 -0.4616
  832MOL0     H12315   3.699   4.650   2.037  1.8594  1.8419  0.4918
  832MOL0     H12316   3.603   5.043   2.138 -4.8190  1.7998 -1.2756
  832MOL0     H12317   3.270   4.345   2.050  0.1876  2.3039 -0.2274
  832MOL0     H12318   2.977   4.214   2.183  1.8533 -1.1388  2.2257
  832MOL0     H12319   3.130   4.292   2.189 -0.3699 -1.4294  0.5314
  832MOL0     H12320   2.992   4.389   2.138  0.0665 -1.2141 -1.6317
  833MOL0     O12321   8.776   0.759   7.782  0.7361 -0.1138  1.0967
  833MOL0     C12322   8.784   0.881   7.801 -0.3989 -0.5837 -0.4328
  833MOL0     O12323   8.893   0.952   7.773 -0.4470  0.1026 -0.5341
  833MOL0     C12324   9.006   0.904   7.709 -0.4723  0.3410 -0.4110
  833MOL0     C12325   9.063   0.779   7.713  0.0627  0.3706 -0.2933
  833MOL0     C12326   9.183   0.751   7.640  0.2402  0.9713 -0.0183
  833MOL0     C12327   9.241   0.836   7.545  0.2268 -0.0421 -0.1564
  833MOL0     O12328   9.366   0.811   7.492  0.0501 -0.5215 -0.2405
  833MOL0     C12329   9.388   0.854   7.361  0.0287 -0.0735  0.7615
  833MOL0     C12330   9.523   0.784   7.316 -0.0230  0.5863 -0.7953
  833MOL0     C12331   9.505   0.633   7.316 -0.5035 -0.1415 -0.2187
  833MOL0     C12332   9.538   0.574   7.458  0.4717 -0.1551  0.9532
  833MOL0     C12333   9.580   0.421   7.435 -0.0340 -0.5262 -1.1746
  833MOL0     C12334   9.466   0.342   7.369 -0.8352  0.1338  0.1402
  833MOL0     C12335   9.341   0.352   7.473  0.2980  0.0901  0.7718
  833MOL0     C12336   9.222   0.275   7.416 -0.9390 -0.0496  0.0439
  833MOL0     N12337   9.127   0.269   7.521 -0.8586 -0.3529  0.0623
  833MOL0     C12338   9.050   0.364   7.579 -0.6547  0.3860 -0.1782
  833MOL0     C12339   8.967   0.302   7.658  0.8105  0.1310 -0.0005
  833MOL0     C12340   8.881   0.352   7.767  0.2221  0.3369  0.0031
  833MOL0     C12341   8.964   0.386   7.893 -0.1757  0.4760  1.3533
  833MOL0     C12342   8.883   0.385   8.026 -0.1408  0.0158  0.0101
  833MOL0     C12343   8.973   0.420   8.143 -0.6539 -0.4814  0.1303
  833MOL0     O12344   8.890   0.458   8.250 -0.1530  0.7084 -0.3131
  833MOL0     C12345   8.949   0.499   8.368  0.6713 -0.7852  0.2540
  833MOL0     C12346   9.086   0.502   8.395  1.0377  0.3087  0.6969
  833MOL0     C12347   9.127   0.553   8.514 -0.0047 -0.3845 -0.7559
  833MOL0     C12348   9.038   0.620   8.602 -0.0618 -1.2567 -0.1972
  833MOL0     C12349   9.086   0.705   8.720  0.6422  0.8080  0.0819
  833MOL0     O12350   8.992   0.785   8.785  0.3303 -0.6689  0.3330
  833MOL0     C12351   9.041   0.866   8.885  0.2118 -0.6153  0.3325
  833MOL0     C12352   9.079   0.995   8.855  0.5404  0.1419 -0.2760
  833MOL0     C12353   9.107   1.083   8.956 -0.7390  0.0984 -0.0709
  833MOL0     C12354   9.112   1.033   9.087  0.3280  0.1979  0.1583
  833MOL0     O12355   9.148   1.111   9.187  0.6489  0.1277 -1.0435
  833MOL0     C12356   9.055   1.167   9.289 -0.9327  0.6994  0.3619
  833MOL0     C12357   8.958   1.276   9.230 -0.3040  0.2997  0.2924
  833MOL0     C12358   9.038   1.393   9.157  0.1230 -0.1732 -0.3751
  833MOL0     C12359   8.947   1.491   9.076  0.5152 -0.3644 -0.0497
  833MOL0     C12360   9.015   1.627   9.083 -0.7403 -0.9719  0.3906
  833MOL0     C12361   8.982   1.700   9.221 -0.7966 -0.0369  1.0024
  833MOL0     C12362   9.053   1.832   9.235 -0.5505  0.0698 -0.5218
  833MOL0     C12363   9.003   1.916   9.365 -0.9874  0.1427  0.4391
  833MOL0    Cl12364   9.096   2.060   9.386  0.3432  0.0271  0.2617
  833MOL0     C12365   9.060   0.904   9.118  0.4241 -0.1609 -1.0087
  833MOL0     C12366   9.027   0.819   9.021 -0.8360  0.1436  1.0423
  833MOL0     O12367   9.203   0.699   8.753 -0.1386  0.7331 -0.0774
  833MOL0     C12368   8.899   0.615   8.570  0.1430 -0.1168 -0.1283
  833MOL0     C12369   8.853   0.555   8.451 -0.1036  0.4625 -0.0105
  833MOL0     N12370   8.985   0.161   7.641 -0.7862  0.2209  0.3523
  833MOL0     N12371   9.091   0.147   7.569 -0.0604  0.4264 -0.0683
  833MOL0     C12372   9.179   0.968   7.545 -0.3195  0.5522  0.0589
  833MOL0     C12373   9.074   0.998   7.627 -1.0102 -0.3389  0.0605
  833MOL0     C12374   8.676   0.947   7.870 -0.6857  0.1197 -0.0575
  833MOL0     C12375   8.699   1.086   7.892 -0.0841 -0.2523  0.0018
  833MOL0     C12376   8.605   1.161   7.961  0.2412 -0.6723 -0.1485
  833MOL0     C12377   8.483   1.102   8.009  0.0267 -0.4612  0.2420
  833MOL0     O12378   8.414   1.189   8.093  0.7910  0.0093  0.0741
  833MOL0     C12379   8.359   1.127   8.209  0.2607 -0.3150 -0.3093
  833MOL0     C12380   8.337   1.241   8.299  0.0458 -0.5253 -1.1809
  833MOL0     C12381   8.225   1.205   8.407 -1.3759  0.6402 -0.5215
  833MOL0     C12382   8.168   1.333   8.462  0.3673 -0.0402 -1.1454
  833MOL0     C12383   8.094   1.314   8.585 -0.3503 -1.0364 -0.4513
  833MOL0     C12384   8.029   1.307   8.687  1.0509  0.6175  0.6598
  833MOL0     C12385   8.455   0.967   7.979 -0.6270 -0.0117 -0.9699
  833MOL0     C12386   8.558   0.891   7.915  0.9556  0.1626  0.6972
  833MOL0     C12387   8.532   0.742   7.898  0.3801 -0.4008  0.0863
  833MOL0     H12388   9.026   0.706   7.785  0.6764  0.1049 -0.2423
  833MOL0     H12389   9.224   0.652   7.658 -0.3437  0.3845 -1.6926
  833MOL0     H12390   9.303   0.832   7.297  0.5841 -0.5185  0.1721
  833MOL0     H12391   9.409   0.962   7.358  2.4136 -0.4443  1.8203
  833MOL0     H12392   9.607   0.807   7.382 -0.0842 -2.7395  0.6576
  833MOL0     H12393   9.551   0.817   7.216 -1.4507 -1.1894 -1.8461
  833MOL0     H12394   9.584   0.595   7.250  2.4480  0.4753  2.7055
  833MOL0     H12395   9.404   0.606   7.281  0.2983 -4.2326  0.1118
  833MOL0     H12396   9.625   0.626   7.500  2.0075 -0.4584 -1.6422
  833MOL0     H12397   9.453   0.586   7.526  0.7967 -0.5523  1.4376
  833MOL0     H12398   9.667   0.414   7.369  0.3727 -1.6051 -0.5429
  833MOL0     H12399   9.603   0.379   7.533 -0.0072 -0.5405 -1.1871
  833MOL0     H12400   9.447   0.383   7.270 -0.1604 -2.0441 -0.9525
  833MOL0     H12401   9.500   0.240   7.350  0.9507  0.9223 -1.1393
  833MOL0     H12402   9.311   0.454   7.500  0.5672 -0.2019  2.3190
  833MOL0     H12403   9.369   0.316   7.573  0.2568  1.0921  1.1528
  833MOL0     H12404   9.191   0.338   7.332  0.4541  1.2375  0.4679
  833MOL0     H12405   9.252   0.180   7.370 -0.0851  0.9594 -1.6064
  833MOL0     H12406   9.061   0.472   7.574 -0.5843  0.4424  0.8774
  833MOL0     H12407   8.825   0.443   7.744  0.8321  0.5901 -0.5254
  833MOL0     H12408   8.812   0.270   7.788  2.9232 -1.5965  2.0753
  833MOL0     H12409   9.045   0.312   7.898 -2.1668 -2.3139 -2.2736
  833MOL0     H12410   9.007   0.487   7.886  0.9904  0.0823  2.4800
  833MOL0     H12411   8.852   0.281   8.041 -1.1646 -0.4908 -4.3180
  833MOL0     H12412   8.795   0.450   8.022 -1.4077 -1.5409  1.2306
  833MOL0     H12413   9.041   0.500   8.112 -0.2514 -0.3752  1.2301
  833MOL0     H12414   9.041   0.339   8.173  0.6132  0.5614  0.1540
  833MOL0     H12415   9.160   0.473   8.321  0.1783  1.3422 -0.6075
  833MOL0     H12416   9.233   0.555   8.539 -0.1563  2.1807  0.0967
  833MOL0     H12417   9.091   1.018   8.750 -1.5344 -0.9407 -0.7900
  833MOL0     H12418   9.147   1.181   8.929  3.2056 -0.9855  1.1718
  833MOL0     H12419   9.011   1.080   9.339 -0.8793  1.1904  1.2730
  833MOL0     H12420   9.117   1.212   9.367 -1.0433  1.0320  0.2580
  833MOL0     H12421   8.895   1.224   9.158  2.4115 -1.1952 -1.1998
  833MOL0     H12422   8.897   1.317   9.311 -1.4883 -0.1332 -0.3560
  833MOL0     H12423   9.078   1.448   9.243  0.7507 -1.7881  0.4127
  833MOL0     H12424   9.125   1.352   9.105  0.5153  1.2061 -0.8308
  833MOL0     H12425   8.850   1.475   9.124  1.3374 -1.7274  1.2434
  833MOL0     H12426   8.945   1.459   8.971 -1.4606  0.2259 -0.2341
  833MOL0     H12427   8.988   1.688   8.996 -3.1126 -2.0026  0.3457
  833MOL0     H12428   9.124   1.620   9.071 -0.1471  3.2178  1.5963
  833MOL0     H12429   8.873   1.705   9.227 -0.9045  0.2753 -0.6430
  833MOL0     H12430   9.005   1.635   9.305 -3.7764 -1.7014  0.6896
  833MOL0     H12431   9.029   1.893   9.148  0.4666  0.6603 -0.4022
  833MOL0     H12432   9.162   1.829   9.235 -0.4320  2.2990 -1.2283
  833MOL0     H12433   8.899   1.936   9.337 -1.4913 -2.3034  0.3194
  833MOL0     H12434   9.019   1.854   9.454  2.1227 -0.6222 -0.5199
  833MOL0     H12435   9.032   0.878   9.220 -0.7086  0.8854 -1.0236
  833MOL0     H12436   8.989   0.719   9.037  2.1402 -1.3604 -0.6080
  833MOL0     H12437   8.830   0.671   8.632 -0.3453 -1.2383  0.3780
  833MOL0     H12438   8.749   0.551   8.420 -0.0084  1.3054 -0.4743
  833MOL0     H12439   9.235   1.049   7.499  1.1053  0.3388  1.3561
  833MOL0     H12440   9.048   1.102   7.644 -1.7168 -0.8757  2.6604
  833MOL0     H12441   8.779   1.142   7.846  0.9932  0.1693  2.2583
  833MOL0     H12442   8.621   1.268   7.965  2.6213 -0.8122 -2.7111
  833MOL0     H12443   8.420   1.048   8.254 -2.9477 -3.0851 -0.4632
  833MOL0     H12444   8.266   1.076   8.183  0.0254  0.5762 -1.3302
  833MOL0     H12445   8.305   1.323   8.235 -0.0214  1.1491  0.8712
  833MOL0     H12446   8.427   1.274   8.353 -2.3318  2.2684  1.5026
  833MOL0     H12447   8.283   1.152   8.484 -2.1856  2.0906  1.1496
  833MOL0     H12448   8.145   1.150   8.358 -1.5558  0.8098 -0.4170
  833MOL0     H12449   8.245   1.408   8.479 -1.9709  2.2180  0.3143
  833MOL0     H12450   8.099   1.375   8.388 -2.9652 -0.9173  1.2150
  833MOL0     H12451   7.972   1.287   8.775  1.9316 -0.3243  1.0342
  833MOL0     H12452   8.365   0.926   8.024 -0.3087  0.2419 -0.0822
  833MOL0     H12453   8.551   0.690   7.804 -1.5334  0.2453 -0.6894
  833MOL0     H12454   8.592   0.692   7.975 -1.7008 -2.1174  0.6868
  833MOL0     H12455   8.429   0.729   7.931  0.3463  0.9371  0.5600
  834MOL0     O12456   7.546   0.101   2.319  1.1750 -0.2147  0.7105
  834MOL0     C12457   7.589   0.107   2.430  0.0939 -0.6756 -0.6898
  834MOL0     O12458   7.571   0.208   2.518  0.0196  0.4529  0.2373
  834MOL0     C12459   7.496   0.318   2.488 -0.5582 -0.4095 -0.2839
  834MOL0     C12460   7.543   0.416   2.391  0.0274  0.7080  0.2808
  834MOL0     C12461   7.459   0.525   2.356 -0.1377  1.2366 -0.0852
  834MOL0     C12462   7.322   0.522   2.398  0.5657  0.0858  0.2663
  834MOL0     O12463   7.242   0.622   2.350  0.1971  0.1396  0.2241
  834MOL0     C12464   7.098   0.619   2.379 -0.4746  0.1204  0.6350
  834MOL0     C12465   7.006   0.733   2.318  0.3435  0.2819  0.7103
  834MOL0     C12466   7.011   0.725   2.166  0.1378 -0.9111  0.4318
  834MOL0     C12467   6.916   0.832   2.111  0.5201  0.7870  0.3515
  834MOL0     C12468   6.907   0.838   1.958  0.2296  0.0113 -1.2949
  834MOL0     C12469   6.770   0.895   1.907 -0.4843  0.1013 -0.3192
  834MOL0     C12470   6.707   1.017   1.963 -0.4526  0.8037  0.4456
  834MOL0     C12471   6.614   1.073   1.867  0.5243 -0.0935  0.3674
  834MOL0     N12472   6.554   1.199   1.933  0.2617  0.7689 -0.0175
  834MOL0     C12473   6.457   1.280   1.887  0.0465 -0.2028 -0.0989
  834MOL0     C12474   6.420   1.374   1.976 -0.0221  0.1663 -0.4789
  834MOL0     C12475   6.318   1.481   1.966 -0.4356 -0.2370  0.3190
  834MOL0     C12476   6.231   1.486   2.104  0.1068 -0.5782 -0.8616
  834MOL0     C12477   6.111   1.581   2.091  0.3222 -0.4093  0.1135
  834MOL0     C12478   5.987   1.521   2.014 -0.7050  1.1351  0.8646
  834MOL0     O12479   5.884   1.614   2.043  0.1540 -0.1387 -0.1070
  834MOL0     C12480   5.755   1.610   1.972  0.3796  0.0672  0.2791
  834MOL0     C12481   5.736   1.527   1.860  0.4170  0.5244 -0.8539
  834MOL0     C12482   5.608   1.529   1.801  0.9402  0.6467  0.5007
  834MOL0     C12483   5.502   1.619   1.841 -0.3311  0.0337 -0.4336
  834MOL0     C12484   5.376   1.632   1.772 -1.0115  0.0741  1.0858
  834MOL0     O12485   5.276   1.703   1.836 -0.4188 -0.0819 -0.8497
  834MOL0     C12486   5.144   1.706   1.801  0.3411  0.0335  1.3642
  834MOL0     C12487   5.090   1.827   1.760 -0.6072  0.7606 -0.5652
  834MOL0     C12488   4.965   1.840   1.713  0.1235 -0.6203  0.0526
  834MOL0     C12489   4.880   1.738   1.709 -0.2634 -0.1144  0.4724
  834MOL0     O12490   4.751   1.761   1.660 -0.0710 -0.1693 -1.1918
  834MOL0     C12491   4.643   1.709   1.737  0.7683  0.4276  0.5247
  834MOL0     C12492   4.625   1.793   1.873  0.5398 -0.2287 -0.2210
  834MOL0     C12493   4.476   1.773   1.922 -0.1842 -0.1096 -0.4184
  834MOL0     C12494   4.440   1.862   2.037 -0.1753 -0.1825  0.6346
  834MOL0     C12495   4.469   2.005   2.013  0.1139 -0.1306  0.2064
  834MOL0     C12496   4.404   2.100   2.108  0.2411 -0.3351 -0.5984
  834MOL0     C12497   4.384   2.246   2.050  0.0125  0.4411  0.1770
  834MOL0     C12498   4.321   2.338   2.158  0.5252  0.5012 -0.2916
  834MOL0    Cl12499   4.341   2.505   2.118  0.0845  0.1989 -0.5115
  834MOL0     C12500   4.935   1.610   1.748 -0.1621 -0.3903 -0.0306
  834MOL0     C12501   5.072   1.593   1.790  0.1763 -0.7304  0.1495
  834MOL0     O12502   5.351   1.558   1.664  0.1071 -0.9877 -0.5073
  834MOL0     C12503   5.536   1.710   1.942 -0.7795  0.6744 -0.0480
  834MOL0     C12504   5.660   1.705   2.011 -0.5762  0.5072 -0.7261
  834MOL0     N12505   6.502   1.345   2.083  0.3747  0.6329 -0.7494
  834MOL0     N12506   6.582   1.249   2.056  0.4083  0.0273 -0.6856
  834MOL0     C12507   7.277   0.424   2.497 -0.9065  0.1516  1.0423
  834MOL0     C12508   7.366   0.319   2.544 -0.1682  0.9384  0.6697
  834MOL0     C12509   7.672  -0.009   2.473 -1.9275 -0.2971 -0.3315
  834MOL0     C12510   7.672  -0.123   2.394 -0.2609  0.0084 -0.2717
  834MOL0     C12511   7.749  -0.235   2.421 -0.5193  0.3963  0.7447
  834MOL0     C12512   7.823  -0.241   2.529  0.7442  0.6434 -0.6672
  834MOL0     O12513   7.887  -0.356   2.545 -0.9196  0.4248  0.2750
  834MOL0     C12514   8.006  -0.358   2.629  0.0857 -0.4473 -0.2667
  834MOL0     C12515   8.104  -0.463   2.603 -0.0458 -0.8185  0.4891
  834MOL0     C12516   8.182  -0.511   2.721 -0.1685  0.4986  0.3270
  834MOL0     C12517   8.242  -0.402   2.807 -0.4489 -0.3910 -0.2713
  834MOL0     C12518   8.323  -0.476   2.909  0.4477 -0.7441 -0.1845
  834MOL0     C12519   8.382  -0.542   2.996  0.7755 -0.0550  0.6160
  834MOL0     C12520   7.831  -0.132   2.622  0.4011 -0.5173 -0.3106
  834MOL0     C12521   7.765  -0.006   2.592  0.3081  0.0238  0.2827
  834MOL0     C12522   7.777   0.113   2.689  0.5361  0.1448 -0.9789
  834MOL0     H12523   7.644   0.413   2.350  1.1639  2.7507  2.6223
  834MOL0     H12524   7.497   0.603   2.289 -0.0993  1.8759  0.6710
  834MOL0     H12525   7.070   0.524   2.332  1.5920 -1.0661  1.6664
  834MOL0     H12526   7.084   0.594   2.484  3.4344  1.3816  1.6370
  834MOL0     H12527   7.050   0.825   2.357  2.7423 -0.4975  0.0231
  834MOL0     H12528   6.902   0.722   2.349 -0.5707 -1.5407 -2.5020
  834MOL0     H12529   6.971   0.631   2.129 -0.6820 -0.6431  0.6058
  834MOL0     H12530   7.111   0.744   2.127 -0.8924 -0.3261 -2.1061
  834MOL0     H12531   6.811   0.809   2.132  0.0363  1.8717 -0.7664
  834MOL0     H12532   6.949   0.932   2.142  0.0131  0.8434  0.7148
  834MOL0     H12533   6.986   0.900   1.914  0.8581 -0.0872 -0.3340
  834MOL0     H12534   6.921   0.735   1.924  0.3995  0.0559 -1.3589
  834MOL0     H12535   6.786   0.915   1.801 -1.9632 -4.9273 -1.7954
  834MOL0     H12536   6.694   0.816   1.906  1.0768 -1.4757 -0.5818
  834MOL0     H12537   6.790   1.082   1.992 -0.5932  0.6540  1.1906
  834MOL0     H12538   6.651   0.982   2.050  2.1211 -2.5981  0.9604
  834MOL0     H12539   6.671   1.112   1.782  2.1161  1.2921  1.9745
  834MOL0     H12540   6.534   1.003   1.841  0.0880  0.3097  0.6151
  834MOL0     H12541   6.409   1.284   1.790 -2.0260  0.1141  0.8787
  834MOL0     H12542   6.366   1.578   1.949 -0.4882 -0.6092 -2.3467
  834MOL0     H12543   6.247   1.469   1.884 -2.5907  2.5927  1.5862
  834MOL0     H12544   6.187   1.387   2.117  3.1483 -2.2474 -2.1640
  834MOL0     H12545   6.299   1.519   2.183 -0.2774  3.4438 -1.9441
  834MOL0     H12546   6.125   1.676   2.038  0.8129  0.1549  1.2126
  834MOL0     H12547   6.072   1.613   2.189 -0.0900 -0.3549 -0.0644
  834MOL0     H12548   5.965   1.419   2.047  0.1330  0.6158 -0.1055
  834MOL0     H12549   6.008   1.525   1.907  3.8175  0.1476  1.4676
  834MOL0     H12550   5.816   1.466   1.818 -1.1806 -0.7587 -2.1543
  834MOL0     H12551   5.589   1.468   1.713 -0.4975  3.5321 -1.3409
  834MOL0     H12552   5.155   1.914   1.762 -0.1751  0.4256  1.1671
  834MOL0     H12553   4.933   1.939   1.680  1.1121  0.5192  2.3249
  834MOL0     H12554   4.559   1.730   1.671  1.8913  4.0987  0.0276
  834MOL0     H12555   4.659   1.602   1.755 -2.3746 -0.6905 -2.2910
  834MOL0     H12556   4.700   1.758   1.945 -0.4713 -0.4553  0.7494
  834MOL0     H12557   4.655   1.897   1.854  6.0502 -1.8417 -2.1333
  834MOL0     H12558   4.409   1.797   1.839  0.7679  0.9888 -0.9029
  834MOL0     H12559   4.464   1.670   1.954  1.1751 -0.2721 -0.3393
  834MOL0     H12560   4.490   1.831   2.129  1.3111  0.3692  0.0382
  834MOL0     H12561   4.333   1.846   2.054 -0.0236  0.3999  2.2373
  834MOL0     H12562   4.440   2.038   1.912  2.4496 -0.9803 -0.8161
  834MOL0     H12563   4.575   2.029   2.024 -0.0058  1.1353 -1.0384
  834MOL0     H12564   4.308   2.067   2.149 -0.3884  1.7668 -0.2568
  834MOL0     H12565   4.471   2.096   2.195  1.1029 -2.8575 -1.2894
  834MOL0     H12566   4.325   2.247   1.958  1.2492 -0.2914 -0.6417
  834MOL0     H12567   4.483   2.281   2.021  0.1756 -2.4849 -3.5662
  834MOL0     H12568   4.214   2.319   2.168  0.7166 -0.2357  0.4670
  834MOL0     H12569   4.371   2.316   2.253  0.2134 -0.7464 -0.4002
  834MOL0     H12570   4.875   1.520   1.746  0.0908 -0.5681 -2.2592
  834MOL0     H12571   5.120   1.496   1.804  0.8920 -0.1560  1.9793
  834MOL0     H12572   5.460   1.779   1.977 -1.3933 -0.8638  1.8445
  834MOL0     H12573   5.692   1.774   2.089  0.1717 -0.0201 -0.5521
  834MOL0     H12574   7.174   0.418   2.529 -1.3277 -2.6355 -0.5059
  834MOL0     H12575   7.327   0.244   2.612 -1.0516  0.9688  0.2092
  834MOL0     H12576   7.621  -0.118   2.298 -0.3665  2.4615 -0.1634
  834MOL0     H12577   7.754  -0.324   2.359  3.9087 -0.3223  1.8011
  834MOL0     H12578   7.984  -0.362   2.736 -0.0219  0.2233 -0.2603
  834MOL0     H12579   8.045  -0.256   2.621  3.1604 -1.1711  2.8605
  834MOL0     H12580   8.181  -0.422   2.538  1.6636 -0.0818  2.8370
  834MOL0     H12581   8.058  -0.552   2.561 -1.7236 -0.1193  0.7644
  834MOL0     H12582   8.266  -0.558   2.668  0.9946  0.9403  1.7291
  834MOL0     H12583   8.137  -0.598   2.769  1.8521 -0.8689 -0.1198
  834MOL0     H12584   8.291  -0.328   2.743 -1.3063 -1.7330 -2.5948
  834MOL0     H12585   8.167  -0.344   2.862  1.1957  1.1781  0.4164
  834MOL0     H12586   8.408  -0.602   3.080  0.7885 -0.1023  0.5784
  834MOL0     H12587   7.882  -0.134   2.718 -1.0669  1.1991  0.5503
  834MOL0     H12588   7.685   0.133   2.745  1.2865  1.7207 -0.2594
  834MOL0     H12589   7.851   0.091   2.766 -0.6155 -0.3357  0.0133
  834MOL0     H12590   7.814   0.204   2.640 -0.5956  0.8999 -0.4816
  835MOL0     O12591   5.319   0.092  11.389 -0.0704 -0.4189 -0.5118
  835MOL0     C12592   5.413   0.043  11.453 -0.0269  0.3405  0.1954
  835MOL0     O12593   5.404  -0.075  11.520 -0.0610 -0.2365  0.3493
  835MOL0     C12594   5.283  -0.143  11.504  0.0961  0.4286 -0.5976
  835MOL0     C12595   5.158  -0.093  11.566 -0.8547  0.7264 -0.0987
  835MOL0     C12596   5.039  -0.164  11.539  0.0546 -0.0800  0.4722
  835MOL0     C12597   5.027  -0.268  11.442 -0.3567 -1.5642 -0.2618
  835MOL0     O12598   4.911  -0.329  11.392 -0.0454  0.8142 -0.2238
  835MOL0     C12599   4.797  -0.334  11.481 -0.7919  0.6596  1.2528
  835MOL0     C12600   4.684  -0.383  11.403 -0.2082 -0.0821  0.0987
  835MOL0     C12601   4.544  -0.374  11.475 -0.1306 -0.1943  0.1229
  835MOL0     C12602   4.425  -0.332  11.394 -1.1533 -0.0331  0.8857
  835MOL0     C12603   4.385  -0.437  11.289 -0.4544 -0.3471 -0.0990
  835MOL0     C12604   4.320  -0.568  11.338 -0.3584 -0.2031  0.3151
  835MOL0     C12605   4.185  -0.547  11.410  0.2870  0.5141 -0.6840
  835MOL0     C12606   4.129  -0.670  11.478  0.4401 -0.0246  0.8365
  835MOL0     N12607   4.220  -0.700  11.589 -0.6896  0.5332  0.2937
  835MOL0     C12608   4.230  -0.622  11.701  0.8521  0.2465 -0.5703
  835MOL0     C12609   4.341  -0.672  11.759  0.0924 -0.0472  0.2285
  835MOL0     C12610   4.372  -0.616  11.896 -0.6461  0.1353 -0.8076
  835MOL0     C12611   4.454  -0.486  11.904  0.4099 -0.5869 -0.5274
  835MOL0     C12612   4.379  -0.363  11.849 -0.5715 -0.3201  0.3582
  835MOL0     C12613   4.437  -0.225  11.891 -0.6354  0.5968  0.1250
  835MOL0     O12614   4.581  -0.223  11.858  0.4668 -0.8342  0.6697
  835MOL0     C12615   4.634  -0.094  11.849 -0.5020  0.1274 -0.0565
  835MOL0     C12616   4.574   0.027  11.876  0.0688 -0.5189 -0.1422
  835MOL0     C12617   4.649   0.148  11.875  0.9278 -0.4226  0.9256
  835MOL0     C12618   4.781   0.154  11.837  0.2674 -0.9428 -1.0232
  835MOL0     C12619   4.866   0.278  11.837  0.1018 -0.3514  0.1692
  835MOL0     O12620   4.994   0.277  11.784 -0.0443  0.2836  0.5195
  835MOL0     C12621   5.067   0.378  11.737  0.0285 -0.1457  0.3687
  835MOL0     C12622   5.041   0.514  11.757  0.0633  0.1677  0.9470
  835MOL0     C12623   5.125   0.615  11.704  0.0370  0.0450  0.0882
  835MOL0     C12624   5.234   0.585  11.625  0.1292 -0.9404 -0.6231
  835MOL0     O12625   5.324   0.677  11.578  0.3113 -0.0848  0.6929
  835MOL0     C12626   5.415   0.635  11.470 -0.6765 -1.0852  0.2729
  835MOL0     C12627   5.492   0.764  11.443  0.0478 -0.4756  0.5817
  835MOL0     C12628   5.593   0.813  11.552 -0.4393 -0.9063  0.0816
  835MOL0     C12629   5.599   0.974  11.545 -0.4893  0.5724  0.1026
  835MOL0     C12630   5.681   1.019  11.663  0.5945  0.6166 -0.2697
  835MOL0     C12631   5.747   1.148  11.629 -0.2423 -0.1321  0.2202
  835MOL0     C12632   5.677   1.274  11.678 -0.4845 -0.6135  0.5647
  835MOL0     C12633   5.757   1.397  11.635 -0.4304 -0.6676  0.3999
  835MOL0    Cl12634   5.916   1.400  11.715  0.3994 -0.2870 -0.2920
  835MOL0     C12635   5.257   0.449  11.608  0.4883 -0.2352 -0.0097
  835MOL0     C12636   5.175   0.347  11.662  0.5016  0.6567  0.3042
  835MOL0     O12637   4.810   0.372  11.892 -0.3941 -0.1973  0.2575
  835MOL0     C12638   4.846   0.033  11.809  0.2331 -0.1009  0.1632
  835MOL0     C12639   4.771  -0.090  11.821 -0.7399 -0.0506 -0.1078
  835MOL0     N12640   4.391  -0.782  11.706  0.1577  0.0084  0.4230
  835MOL0     N12641   4.311  -0.810  11.604 -0.3616  0.8795 -0.2058
  835MOL0     C12642   5.146  -0.309  11.392 -0.0217 -0.1588 -1.2499
  835MOL0     C12643   5.275  -0.257  11.425 -0.3737  0.6594  0.5386
  835MOL0     C12644   5.542   0.117  11.443  1.0306 -0.1540 -0.5893
  835MOL0     C12645   5.642   0.076  11.536 -0.1151  0.9334 -0.5840
  835MOL0     C12646   5.767   0.145  11.552  0.5147 -0.2771  0.1940
  835MOL0     C12647   5.788   0.257  11.474  0.2683  0.5786 -0.3395
  835MOL0     O12648   5.899   0.326  11.500  0.0952 -0.3311  0.0101
  835MOL0     C12649   5.938   0.434  11.410 -0.3301 -0.3071  0.2925
  835MOL0     C12650   6.067   0.502  11.477  0.5117  0.6621 -1.0626
  835MOL0     C12651   6.016   0.599  11.580  0.4845  1.5889  0.1331
  835MOL0     C12652   6.014   0.747  11.532  0.1710  0.2654  1.0579
  835MOL0     C12653   6.142   0.827  11.547 -0.4537  1.1901 -0.4597
  835MOL0     C12654   6.244   0.887  11.561 -0.0150  0.3713 -0.9174
  835MOL0     C12655   5.687   0.294  11.386  0.2058  0.7554 -0.0862
  835MOL0     C12656   5.570   0.231  11.362  0.4165 -0.5747  0.7315
  835MOL0     C12657   5.477   0.281  11.259  0.1007 -0.1963  0.0925
  835MOL0     H12658   5.151  -0.013  11.639 -4.6552 -1.8103  2.6968
  835MOL0     H12659   4.954  -0.118  11.590  0.0239 -1.0158  1.2871
  835MOL0     H12660   4.824  -0.395  11.569  1.5157  0.7514  0.6911
  835MOL0     H12661   4.782  -0.230  11.512  0.4420  1.4756 -0.6975
  835MOL0     H12662   4.690  -0.488  11.375 -3.3005  0.4242 -3.1084
  835MOL0     H12663   4.682  -0.326  11.310  2.3524 -1.0111 -0.6134
  835MOL0     H12664   4.555  -0.300  11.555  1.1606 -2.1349  1.8230
  835MOL0     H12665   4.523  -0.468  11.526 -2.9090  0.7232  0.8310
  835MOL0     H12666   4.346  -0.308  11.465 -1.9107  1.3047 -0.3479
  835MOL0     H12667   4.468  -0.248  11.339  4.7611 -2.6736  0.7150
  835MOL0     H12668   4.311  -0.400  11.217 -0.2714  0.1552 -0.0312
  835MOL0     H12669   4.476  -0.460  11.233 -0.5327 -0.9459  0.0083
  835MOL0     H12670   4.300  -0.630  11.250  0.2515 -1.8424  1.2929
  835MOL0     H12671   4.387  -0.619  11.408  0.2101  1.5385  1.1037
  835MOL0     H12672   4.104  -0.512  11.345 -0.7214 -0.0727  0.2260
  835MOL0     H12673   4.194  -0.473  11.490 -1.6605 -0.9584  1.0115
  835MOL0     H12674   4.030  -0.655  11.522 -0.3895 -0.5334 -0.7785
  835MOL0     H12675   4.107  -0.747  11.404  1.6348 -1.2079  1.6679
  835MOL0     H12676   4.163  -0.546  11.740 -1.1340 -0.3344 -2.6699
  835MOL0     H12677   4.280  -0.617  11.955 -0.1390  2.5142  0.1385
  835MOL0     H12678   4.436  -0.693  11.940 -1.2100 -0.8893 -1.7435
  835MOL0     H12679   4.480  -0.477  12.010 -0.1514 -2.0964 -0.2502
  835MOL0     H12680   4.548  -0.497  11.849 -0.3282  2.4706 -2.6988
  835MOL0     H12681   4.272  -0.366  11.871 -1.2125  2.6222 -1.6740
  835MOL0     H12682   4.398  -0.373  11.742 -0.2188  3.3449 -0.0508
  835MOL0     H12683   4.425  -0.218  12.000  1.8506  1.0321  0.4427
  835MOL0     H12684   4.386  -0.148  11.833 -0.1030  0.2201 -0.8758
  835MOL0     H12685   4.467   0.034  11.894  0.1454 -1.7789  0.9405
  835MOL0     H12686   4.613   0.247  11.901  0.2705 -0.4597  0.2029
  835MOL0     H12687   4.959   0.539  11.825 -1.5978 -4.2829  0.9279
  835MOL0     H12688   5.101   0.718  11.728  0.0338  0.2467 -0.7371
  835MOL0     H12689   5.477   0.553  11.509 -0.0165 -1.1463 -0.8507
  835MOL0     H12690   5.356   0.617  11.380 -1.4810 -0.1251  0.5987
  835MOL0     H12691   5.550   0.753  11.352  1.2036  0.5663  1.1656
  835MOL0     H12692   5.420   0.845  11.428 -0.0012 -0.2765  1.7391
  835MOL0     H12693   5.560   0.774  11.649  0.0647 -1.8719 -0.1240
  835MOL0     H12694   5.691   0.775  11.521 -1.4930 -0.9074 -3.8166
  835MOL0     H12695   5.500   1.020  11.548 -1.0552 -0.6629  1.4698
  835MOL0     H12696   5.639   1.001  11.447 -1.9654  3.1282  0.1373
  835MOL0     H12697   5.766   0.957  11.692  0.9541  1.5774  0.8217
  835MOL0     H12698   5.618   1.025  11.752 -1.8748 -3.6350 -1.4776
  835MOL0     H12699   5.851   1.154  11.663 -0.4520  0.9743  0.7320
  835MOL0     H12700   5.743   1.162  11.521 -0.3109  0.5960  0.3141
  835MOL0     H12701   5.659   1.271  11.786  1.9347  1.0173  1.0804
  835MOL0     H12702   5.575   1.289  11.640  0.1217  1.3146 -0.4054
  835MOL0     H12703   5.779   1.388  11.528  1.5479 -1.2007  0.7987
  835MOL0     H12704   5.705   1.489  11.662  1.2687  1.2019 -2.2109
  835MOL0     H12705   5.344   0.406  11.559  0.8977  0.7119 -0.1450
  835MOL0     H12706   5.194   0.240  11.651 -1.8787 -0.0216  2.0926
  835MOL0     H12707   4.953   0.037  11.794  0.2783 -0.6345  0.2970
  835MOL0     H12708   4.823  -0.183  11.800  0.6506  1.2324 -2.9902
  835MOL0     H12709   5.140  -0.384  11.314 -3.5665 -2.3407  0.8816
  835MOL0     H12710   5.360  -0.311  11.386 -0.0297  0.5003  1.4713
  835MOL0     H12711   5.618  -0.014  11.590 -0.0340  2.1189  1.5198
  835MOL0     H12712   5.838   0.104  11.622  1.2743 -1.2984 -1.1176
  835MOL0     H12713   5.863   0.513  11.400  0.4102  0.5950  1.5976
  835MOL0     H12714   5.954   0.380  11.316 -1.5383 -1.3762  0.6806
  835MOL0     H12715   6.112   0.566  11.400  1.9457 -0.9874 -1.6633
  835MOL0     H12716   6.143   0.432  11.513 -1.5667 -1.2487 -0.1511
  835MOL0     H12717   6.078   0.598  11.670 -3.0431  0.4590  2.7871
  835MOL0     H12718   5.913   0.583  11.612  1.0716 -1.2373  0.9220
  835MOL0     H12719   5.982   0.746  11.427  1.9380  2.4871  0.4096
  835MOL0     H12720   5.942   0.796  11.598 -1.9331 -5.0598  3.2358
  835MOL0     H12721   6.324   0.958  11.569  0.5134 -0.3850  1.0750
  835MOL0     H12722   5.698   0.381  11.323  0.5929 -0.5797 -1.9669
  835MOL0     H12723   5.433   0.206  11.191 -0.4847  0.3289 -0.1177
  835MOL0     H12724   5.397   0.329  11.316  1.0992  3.0064 -1.0118
  835MOL0     H12725   5.525   0.359  11.200  0.5397 -1.2184 -0.9442
  836MOL0     O12726   2.603  10.573   2.430  0.1530 -0.3407 -0.1839
  836MOL0     C12727   2.647  10.484   2.504  0.4133  0.5803 -0.4768
  836MOL0     O12728   2.780  10.462   2.541  0.3294  0.2890  0.2135
  836MOL0     C12729   2.877  10.532   2.483  0.7290  0.5303  0.3602
  836MOL0     C12730   2.957  10.627   2.546 -0.1737  0.5735 -0.1264
  836MOL0     C12731   3.067  10.684   2.477 -0.6927  0.1763  0.8878
  836MOL0     C12732   3.100  10.647   2.346  0.2218 -1.2926 -0.0688
  836MOL0     O12733   3.206  10.705   2.289  0.1747 -0.0591  0.2171
  836MOL0     C12734   3.322  10.624   2.308  0.9264  0.2383 -0.2608
  836MOL0     C12735   3.446  10.698   2.241 -0.2194  0.7797 -0.7658
  836MOL0     C12736   3.439  10.745   2.103 -0.2181 -0.4963  0.8104
  836MOL0     C12737   3.570  10.793   2.039 -0.9251 -0.0229 -0.0736
  836MOL0     C12738   3.650  10.676   1.986 -0.3881  0.3850 -0.3726
  836MOL0     C12739   3.790  10.724   1.921  0.0017  0.2110 -0.3262
  836MOL0     C12740   3.888  10.606   1.883 -0.1089 -0.2471  0.2956
  836MOL0     C12741   3.824  10.518   1.779  0.0058  0.3505  0.5099
  836MOL0     N12742   3.913  10.401   1.751  0.4097 -0.0247 -0.0984
  836MOL0     C12743   3.928  10.291   1.835 -0.5471  0.2318  0.0483
  836MOL0     C12744   4.013  10.204   1.767  0.3851 -0.3746 -0.4140
  836MOL0     C12745   4.067  10.066   1.803 -0.3246 -0.3419 -0.1695
  836MOL0     C12746   4.024  10.022   1.947  0.0566  0.4133 -0.8434
  836MOL0     C12747   4.104  10.103   2.043 -1.2323  0.7903 -0.3755
  836MOL0     C12748   4.029  10.110   2.181 -0.2817 -0.5117  0.0050
  836MOL0     O12749   3.897  10.154   2.152  0.0986 -0.0413  0.1314
  836MOL0     C12750   3.820  10.201   2.259 -0.5671 -0.7208  0.1965
  836MOL0     C12751   3.851  10.185   2.396 -0.4616 -0.5228  0.3774
  836MOL0     C12752   3.769  10.233   2.498 -0.7750 -0.0175 -0.3838
  836MOL0     C12753   3.644  10.288   2.470  0.5151  0.0562 -0.2053
  836MOL0     C12754   3.544  10.336   2.577 -0.7676  0.3956 -0.2732
  836MOL0     O12755   3.438  10.410   2.538  0.2726  0.3024 -0.0768
  836MOL0     C12756   3.363  10.451   2.645 -0.1408 -0.4490 -0.4004
  836MOL0     C12757   3.246  10.382   2.688 -0.9590 -0.1384  0.7633
  836MOL0     C12758   3.181  10.429   2.806 -0.0652  0.7304  0.3229
  836MOL0     C12759   3.215  10.543   2.869 -0.4924  0.3016 -1.2790
  836MOL0     O12760   3.147  10.593   2.976  0.7016  0.0500 -0.3476
  836MOL0     C12761   3.111  10.506   3.086  0.0518 -0.3719  0.1580
  836MOL0     C12762   3.082  10.585   3.211 -0.2577  0.2086 -0.7423
  836MOL0     C12763   3.206  10.623   3.298 -1.2513  0.4058  0.0724
  836MOL0     C12764   3.308  10.731   3.246  0.9132 -0.7633 -0.2773
  836MOL0     C12765   3.267  10.884   3.279  0.7455  0.1562  0.8226
  836MOL0     C12766   3.335  10.980   3.179 -0.1716  0.4713 -0.0853
  836MOL0     C12767   3.314  10.955   3.029  0.4168  0.4701 -0.9639
  836MOL0     C12768   3.169  10.922   2.989  0.0100  0.4737  0.5227
  836MOL0    Cl12769   3.040  11.047   3.025  0.2064  0.0239 -0.1658
  836MOL0     C12770   3.327  10.614   2.830  0.2303 -0.1854  0.5560
  836MOL0     C12771   3.406  10.566   2.721 -1.0087  0.0681  0.2838
  836MOL0     O12772   3.569  10.299   2.695  0.5134 -0.3468  0.6649
  836MOL0     C12773   3.616  10.320   2.335 -0.4605  0.3917 -0.0917
  836MOL0     C12774   3.703  10.275   2.228  0.7966 -0.4725 -0.7289
  836MOL0     N12775   4.034  10.264   1.650 -0.2913  0.0397  0.3875
  836MOL0     N12776   3.976  10.381   1.637  0.4334 -0.2428  0.9370
  836MOL0     C12777   3.014  10.565   2.280 -0.6029 -0.1970 -0.1368
  836MOL0     C12778   2.906  10.515   2.345  0.6339  0.1812  0.6461
  836MOL0     C12779   2.555  10.387   2.567  0.3432  0.4444 -1.1162
  836MOL0     C12780   2.450  10.328   2.492  0.4172  0.4626  0.8712
  836MOL0     C12781   2.357  10.233   2.554  0.1753  0.0728 -0.0375
  836MOL0     C12782   2.384  10.191   2.680  0.5444 -0.1921 -0.7488
  836MOL0     O12783   2.284  10.121   2.740 -0.2807 -0.2475  0.8288
  836MOL0     C12784   2.268   9.984   2.703 -0.2227 -0.7075 -0.7916
  836MOL0     C12785   2.132   9.927   2.760  0.1091 -0.6737 -0.5402
  836MOL0     C12786   2.019   9.956   2.655  0.1553 -0.0560 -0.7641
  836MOL0     C12787   1.881   9.932   2.721  0.7823  0.7254  0.0022
  836MOL0     C12788   1.835  10.034   2.812 -0.1029 -0.3826 -0.1392
  836MOL0     C12789   1.796  10.127   2.883  1.2354  0.4046  0.1469
  836MOL0     C12790   2.500  10.238   2.748  0.4352  0.4013 -0.1281
  836MOL0     C12791   2.577  10.345   2.697 -0.1605  0.2479  0.0620
  836MOL0     C12792   2.664  10.409   2.803 -0.2442 -0.2618 -0.0252
  836MOL0     H12793   2.914  10.647   2.644 -0.5341  1.3051 -0.4259
  836MOL0     H12794   3.127  10.759   2.527 -0.7735 -0.2329  1.6026
  836MOL0     H12795   3.353  10.598   2.409  2.2762  0.7394 -0.5263
  836MOL0     H12796   3.306  10.529   2.256  0.4640 -1.9137  3.4661
  836MOL0     H12797   3.519  10.616   2.250  1.2947  2.3120  2.5439
  836MOL0     H12798   3.481  10.779   2.305  1.3805 -1.4325  1.3604
  836MOL0     H12799   3.376  10.835   2.104 -0.6923 -0.7717 -0.9477
  836MOL0     H12800   3.391  10.679   2.030 -2.4442  2.9857 -1.1458
  836MOL0     H12801   3.543  10.855   1.952 -1.3852 -0.8333 -0.5204
  836MOL0     H12802   3.620  10.856   2.113 -0.9580 -1.4457  1.1937
  836MOL0     H12803   3.667  10.613   2.074 -2.8873 -0.9141 -0.7204
  836MOL0     H12804   3.602  10.622   1.904  1.4463  0.0049 -1.2492
  836MOL0     H12805   3.771  10.791   1.837  1.8303 -0.6448 -1.5137
  836MOL0     H12806   3.853  10.774   1.996  2.4121 -1.5447 -1.0323
  836MOL0     H12807   3.904  10.556   1.979 -3.2231  2.0563  2.1759
  836MOL0     H12808   3.985  10.643   1.849  0.5319 -0.0487  2.1893
  836MOL0     H12809   3.729  10.477   1.813  0.7603 -0.2479  1.9910
  836MOL0     H12810   3.797  10.575   1.690  0.9262 -0.7954 -0.5398
  836MOL0     H12811   3.876  10.288   1.931 -0.7495 -0.3512 -0.0756
  836MOL0     H12812   4.036   9.995   1.726 -2.1345  0.4491 -0.2200
  836MOL0     H12813   4.176  10.058   1.802 -0.3239 -3.3186  3.5352
  836MOL0     H12814   3.918  10.045   1.961  0.3959  1.1656  0.7766
  836MOL0     H12815   4.042   9.917   1.972  1.2582  0.3411 -1.9048
  836MOL0     H12816   4.129  10.196   1.991 -1.8203  0.2367 -1.6705
  836MOL0     H12817   4.199  10.049   2.058 -0.7463  1.7866  0.2475
  836MOL0     H12818   4.080  10.189   2.237 -0.1522  0.5253 -1.5042
  836MOL0     H12819   4.018  10.014   2.232 -3.6340 -0.3494 -0.1874
  836MOL0     H12820   3.951  10.146   2.413  0.6094  1.0516 -1.6841
  836MOL0     H12821   3.806  10.229   2.600  2.0131 -3.9103 -1.3300
  836MOL0     H12822   3.213  10.290   2.642 -0.6257 -0.0562  0.3511
  836MOL0     H12823   3.095  10.373   2.842  0.9300 -1.1686 -0.0992
  836MOL0     H12824   3.024  10.448   3.055  0.4436 -1.0079  0.2245
  836MOL0     H12825   3.191  10.437   3.114  2.9584  1.3570 -3.0370
  836MOL0     H12826   3.030  10.680   3.192 -1.1327 -0.6963 -3.3453
  836MOL0     H12827   3.012  10.527   3.270 -1.3094  2.8366  0.7694
  836MOL0     H12828   3.173  10.645   3.400  0.2965  0.8582  0.5051
  836MOL0     H12829   3.268  10.534   3.314 -3.0260 -0.4513  3.0037
  836MOL0     H12830   3.320  10.713   3.139  2.0261 -1.4079 -0.0585
  836MOL0     H12831   3.409  10.708   3.281  1.2115  0.3451 -0.3772
  836MOL0     H12832   3.270  10.927   3.380 -1.2507  3.5476 -0.4015
  836MOL0     H12833   3.158  10.891   3.271  0.8331  1.6739  0.7523
  836MOL0     H12834   3.297  11.079   3.205 -0.9012  0.3451 -0.6516
  836MOL0     H12835   3.444  10.980   3.189 -0.1046  1.0664 -0.7318
  836MOL0     H12836   3.387  10.881   2.996 -0.0626 -0.3452 -0.2341
  836MOL0     H12837   3.348  11.043   2.973  0.3668  0.0001 -1.7587
  836MOL0     H12838   3.168  10.913   2.880 -3.1170  0.8672  0.4457
  836MOL0     H12839   3.136  10.829   3.035 -2.2778  1.0357  0.1309
  836MOL0     H12840   3.333  10.715   2.870  3.5568  0.4592 -1.2494
  836MOL0     H12841   3.488  10.618   2.673 -0.0474 -0.8352  0.8995
  836MOL0     H12842   3.519  10.364   2.314 -1.7826 -1.5161  1.6232
  836MOL0     H12843   3.668  10.291   2.126 -2.3450 -1.3147  0.0834
  836MOL0     H12844   3.034  10.541   2.176  1.4127  1.6498 -0.2243
  836MOL0     H12845   2.848  10.437   2.297  2.0890 -1.4674  1.4291
  836MOL0     H12846   2.452  10.345   2.385  0.5656  0.4717  0.8749
  836MOL0     H12847   2.266  10.199   2.505 -0.9192  1.2995  1.0470
  836MOL0     H12848   2.349   9.917   2.734  3.0567  3.2048  0.1233
  836MOL0     H12849   2.270   9.985   2.593 -1.8700  2.7339 -0.9419
  836MOL0     H12850   2.103   9.970   2.855 -1.4931 -1.2150 -0.7660
  836MOL0     H12851   2.144   9.820   2.777 -2.1434 -0.7783  0.6385
  836MOL0     H12852   2.037   9.884   2.575  1.1586  0.6999 -1.2331
  836MOL0     H12853   2.030  10.055   2.611  0.1153  0.3711  0.1505
  836MOL0     H12854   1.809   9.931   2.638 -0.1531 -0.1909  0.7995
  836MOL0     H12855   1.872   9.835   2.771  0.4872 -0.0239 -1.4548
  836MOL0     H12856   1.770  10.213   2.940  0.8548  0.9701 -0.8527
  836MOL0     H12857   2.503  10.200   2.850  1.6122 -0.5412 -0.4823
  836MOL0     H12858   2.732  10.487   2.767 -1.4213  0.9474  0.3195
  836MOL0     H12859   2.608  10.470   2.873 -1.8418  0.6692 -1.9988
  836MOL0     H12860   2.723  10.337   2.861  0.0411 -1.4884 -1.7533
  837MOL0     O12861   0.153   6.177   0.006 -0.4472  0.0402  0.4819
  837MOL0     C12862   0.253   6.144   0.069  0.4145 -0.7381  0.0221
  837MOL0     O12863   0.251   6.092   0.197  0.3301  0.3135  0.2177
  837MOL0     C12864   0.130   6.048   0.252 -0.0232 -0.2698  0.2944
  837MOL0     C12865   0.050   5.953   0.187 -0.7439 -0.3714  0.4057
  837MOL0     C12866  -0.079   5.922   0.222 -0.4902 -0.6637 -0.4074
  837MOL0     C12867  -0.132   5.979   0.346 -0.3473  0.1762  0.6715
  837MOL0     O12868  -0.247   5.925   0.395  0.1489  0.1517  0.0181
  837MOL0     C12869  -0.324   6.000   0.487 -0.7668 -0.6707 -0.8139
  837MOL0     C12870  -0.454   5.924   0.505  0.0970 -1.2349 -0.0903
  837MOL0     C12871  -0.548   6.009   0.590  0.7438  0.3284 -0.5588
  837MOL0     C12872  -0.665   6.080   0.522 -0.3675  0.0306  0.0840
  837MOL0     C12873  -0.770   6.117   0.623  0.9084 -0.2375  0.1377
  837MOL0     C12874  -0.862   6.000   0.675  0.7726 -0.1862 -0.4351
  837MOL0     C12875  -0.987   6.065   0.738  0.5846 -0.0043 -0.4603
  837MOL0     C12876  -1.056   5.969   0.837  0.7784  0.2040  0.5654
  837MOL0     N12877  -1.147   6.042   0.936  0.0402 -0.0992  0.9723
  837MOL0     C12878  -1.257   6.114   0.901  0.0614 -1.0258  0.1627
  837MOL0     C12879  -1.319   6.132   1.018  0.1170  0.5330  0.2021
  837MOL0     C12880  -1.444   6.213   1.038 -0.7514 -0.4907  0.3208
  837MOL0     C12881  -1.556   6.158   0.955  0.2289  1.1453 -1.1798
  837MOL0     C12882  -1.677   6.246   0.972  0.6952 -0.0729 -1.0348
  837MOL0     C12883  -1.803   6.176   0.925  0.2201 -0.4977 -0.2060
  837MOL0     O12884  -1.912   6.251   0.973 -0.1306 -0.8861  0.0274
  837MOL0     C12885  -2.036   6.188   0.954 -0.0621  0.1597  0.3142
  837MOL0     C12886  -2.146   6.275   0.973  0.5618  1.0389 -0.3717
  837MOL0     C12887  -2.285   6.238   0.952 -0.5355 -0.1441 -0.6531
  837MOL0     C12888  -2.307   6.103   0.923  0.4523  0.1386 -0.3298
  837MOL0     C12889  -2.447   6.049   0.933  2.1831 -0.0252  0.3411
  837MOL0     O12890  -2.545   6.144   0.963 -0.5699 -0.2012 -0.4026
  837MOL0     C12891  -2.679   6.114   0.951 -0.4638  0.7489 -0.3259
  837MOL0     C12892  -2.726   5.992   1.005 -0.1621  0.1507  0.2242
  837MOL0     C12893  -2.868   5.979   1.017 -1.6119  0.3202 -0.1735
  837MOL0     C12894  -2.955   6.080   0.971 -0.1916 -0.2616 -0.6024
  837MOL0     O12895  -3.092   6.060   0.980  0.5146  0.0611 -0.2466
  837MOL0     C12896  -3.142   5.995   1.091 -1.2218  0.0074 -0.6403
  837MOL0     C12897  -3.293   6.014   1.100 -0.9532 -0.6916  0.4857
  837MOL0     C12898  -3.332   6.085   1.221  1.0704 -0.2473 -0.1056
  837MOL0     C12899  -3.469   6.021   1.276 -0.0230  0.2801 -0.1569
  837MOL0     C12900  -3.458   5.882   1.336  0.1886 -0.1398 -0.7339
  837MOL0     C12901  -3.582   5.790   1.322 -0.1698 -1.0678  0.0862
  837MOL0     C12902  -3.596   5.743   1.171 -0.3121 -0.4483  0.0052
  837MOL0     C12903  -3.738   5.709   1.166  0.3790 -0.6290 -0.0002
  837MOL0    Cl12904  -3.767   5.647   0.996  0.1122  0.2475  0.4532
  837MOL0     C12905  -2.905   6.189   0.904 -0.4337 -0.0040  0.5961
  837MOL0     C12906  -2.767   6.206   0.893 -0.4802  0.0456 -0.5807
  837MOL0     O12907  -2.472   5.929   0.897  0.8228 -0.4188  0.3550
  837MOL0     C12908  -2.200   6.013   0.903 -0.4725 -0.2322  0.6683
  837MOL0     C12909  -2.069   6.054   0.916  0.5217  0.0190  0.8459
  837MOL0     N12910  -1.244   6.076   1.119  0.1176 -0.2008 -0.5536
  837MOL0     N12911  -1.139   6.022   1.070  1.2423  0.9850 -0.5461
  837MOL0     C12912  -0.055   6.066   0.419  0.9301 -0.5483 -0.1476
  837MOL0     C12913   0.079   6.103   0.379 -0.1807  0.6743  0.1677
  837MOL0     C12914   0.383   6.191   0.021  0.4971 -0.3191 -0.6052
  837MOL0     C12915   0.490   6.190   0.111  1.2349  0.4961  0.2771
  837MOL0     C12916   0.612   6.245   0.070 -0.5844 -0.1798  0.2853
  837MOL0     C12917   0.636   6.293  -0.055  0.7229  0.3303  0.5026
  837MOL0     O12918   0.764   6.340  -0.069  0.2812 -0.1492 -0.3111
  837MOL0     C12919   0.815   6.371  -0.200  0.7853  0.3073  0.3788
  837MOL0     C12920   0.962   6.420  -0.189 -0.4927 -0.0669 -0.0730
  837MOL0     C12921   0.964   6.523  -0.079  0.1140 -0.2103 -0.5411
  837MOL0     C12922   1.098   6.609  -0.070  0.5497 -0.0501 -0.6740
  837MOL0     C12923   1.218   6.523  -0.051 -0.4436  0.2490 -0.3521
  837MOL0     C12924   1.315   6.447  -0.056  0.6185  0.1852  0.1746
  837MOL0     C12925   0.535   6.286  -0.148 -0.8338 -0.1200 -0.5975
  837MOL0     C12926   0.404   6.236  -0.113 -0.7364  0.2238  0.2641
  837MOL0     C12927   0.293   6.226  -0.221  0.3832 -0.1516  0.5903
  837MOL0     H12928   0.085   5.906   0.096 -0.4976  0.9325 -0.2065
  837MOL0     H12929  -0.127   5.844   0.165  1.0001 -0.0297 -2.6259
  837MOL0     H12930  -0.277   6.012   0.585 -0.6441 -0.1013 -0.9367
  837MOL0     H12931  -0.339   6.097   0.437 -3.0867 -0.7098 -0.3023
  837MOL0     H12932  -0.433   5.835   0.566 -2.9635 -1.6166  0.5495
  837MOL0     H12933  -0.491   5.885   0.410  2.6326 -1.5461 -1.0162
  837MOL0     H12934  -0.491   6.077   0.653  0.6481  0.0381 -0.1551
  837MOL0     H12935  -0.597   5.933   0.653 -0.8039  1.2545 -0.5860
  837MOL0     H12936  -0.629   6.177   0.487  3.5339 -0.2996  2.6134
  837MOL0     H12937  -0.709   6.031   0.434 -1.7097  0.0027  0.7418
  837MOL0     H12938  -0.719   6.168   0.705  4.5739 -0.4521 -1.7789
  837MOL0     H12939  -0.831   6.189   0.569  2.3933  2.1290  1.4385
  837MOL0     H12940  -0.879   5.938   0.587  0.6293  0.7886 -1.1108
  837MOL0     H12941  -0.821   5.934   0.752 -1.4784 -0.6416  0.4246
  837MOL0     H12942  -1.057   6.103   0.664 -0.5559  1.1819  1.1497
  837MOL0     H12943  -0.952   6.152   0.795  0.3931  3.1740 -4.7356
  837MOL0     H12944  -1.112   5.896   0.779 -2.9164  2.9753  0.2649
  837MOL0     H12945  -0.977   5.923   0.897 -1.2793  0.6679  3.8777
  837MOL0     H12946  -1.274   6.159   0.804 -0.9891  0.6131  1.0457
  837MOL0     H12947  -1.484   6.213   1.140  0.2014  2.4713  0.8101
  837MOL0     H12948  -1.425   6.316   1.006  0.0392 -1.0325 -1.0140
  837MOL0     H12949  -1.535   6.155   0.847 -1.8350 -3.7713 -1.6795
  837MOL0     H12950  -1.582   6.055   0.980 -0.6869  1.2869 -1.5179
  837MOL0     H12951  -1.658   6.331   0.906  0.5638  0.1105 -0.8380
  837MOL0     H12952  -1.684   6.284   1.074  1.0974 -3.3240  0.3500
  837MOL0     H12953  -1.815   6.073   0.961  0.8831 -0.6381 -0.3698
  837MOL0     H12954  -1.816   6.180   0.817 -1.9141 -4.1395 -0.2391
  837MOL0     H12955  -2.114   6.372   1.008 -0.9222  1.3365  0.2415
  837MOL0     H12956  -2.369   6.305   0.962  0.3234  1.1870 -1.9049
  837MOL0     H12957  -2.653   5.919   1.036 -0.1048  0.3710  0.6102
  837MOL0     H12958  -2.905   5.886   1.059  0.0888 -0.2537  0.1222
  837MOL0     H12959  -3.120   5.890   1.112  0.3621  1.0864  4.8264
  837MOL0     H12960  -3.097   6.048   1.176 -0.9587 -5.2134  2.9813
  837MOL0     H12961  -3.331   6.057   1.007 -0.2222 -0.1875  0.4148
  837MOL0     H12962  -3.325   5.909   1.103 -0.8456 -0.7093  1.4719
  837MOL0     H12963  -3.254   6.081   1.297  3.4279 -1.3942 -2.3867
  837MOL0     H12964  -3.348   6.190   1.196 -0.2830 -0.7254 -1.3971
  837MOL0     H12965  -3.539   6.024   1.193  0.5893 -2.0245 -0.7982
  837MOL0     H12966  -3.506   6.092   1.352  0.2104 -0.2072  0.4163
  837MOL0     H12967  -3.446   5.903   1.443 -2.0336  0.5263 -0.5643
  837MOL0     H12968  -3.370   5.828   1.301  1.3072 -1.3045  3.3216
  837MOL0     H12969  -3.569   5.703   1.388 -1.1943 -3.2994 -2.4924
  837MOL0     H12970  -3.665   5.852   1.356 -0.6981 -2.1923  0.8889
  837MOL0     H12971  -3.530   5.662   1.141 -0.1788 -1.8968  3.6528
  837MOL0     H12972  -3.565   5.828   1.110  2.8924 -2.1378 -0.9544
  837MOL0     H12973  -3.768   5.631   1.237  2.1940 -1.5219 -0.1532
  837MOL0     H12974  -3.804   5.795   1.181  0.5969 -0.2742 -0.9953
  837MOL0     H12975  -2.970   6.258   0.851 -0.1762 -1.3390 -1.5500
  837MOL0     H12976  -2.718   6.296   0.858 -0.6769  0.6814  0.7002
  837MOL0     H12977  -2.228   5.913   0.873  3.6860 -0.7558 -2.3338
  837MOL0     H12978  -2.004   5.970   0.894  0.7611  0.1992  0.8583
  837MOL0     H12979  -0.087   6.114   0.511  1.0142  0.3359 -0.5633
  837MOL0     H12980   0.134   6.171   0.443  1.6335 -1.0861  0.6029
  837MOL0     H12981   0.481   6.156   0.213 -0.6685  2.6408  0.8991
  837MOL0     H12982   0.692   6.238   0.144 -2.3974 -4.5808  2.1489
  837MOL0     H12983   0.767   6.462  -0.237 -0.6806 -0.6765 -0.2110
  837MOL0     H12984   0.797   6.291  -0.273 -3.1062  3.0709 -2.0494
  837MOL0     H12985   0.986   6.460  -0.288  1.5127 -1.2393 -0.1199
  837MOL0     H12986   1.026   6.333  -0.175  1.7690  1.1758 -1.9760
  837MOL0     H12987   0.977   6.482   0.021  0.3238  4.2330  1.4832
  837MOL0     H12988   0.878   6.590  -0.074 -0.6592 -0.9046 -2.9856
  837MOL0     H12989   1.109   6.671  -0.159 -1.1210  0.6965 -0.3970
  837MOL0     H12990   1.083   6.676   0.016 -1.9226  0.2617 -1.2717
  837MOL0     H12991   1.402   6.386  -0.071  2.8505  2.8346  1.4516
  837MOL0     H12992   0.540   6.334  -0.244 -0.6760  1.3415  0.1206
  837MOL0     H12993   0.235   6.133  -0.224 -1.1053  0.7470 -2.1577
  837MOL0     H12994   0.226   6.311  -0.205  0.4617  0.1561 -0.6109
  837MOL0     H12995   0.348   6.236  -0.315  2.0871 -0.8829  1.4624
  838MOL0     O12996   6.243   0.052   3.378 -0.5094 -0.9038 -0.3510
  838MOL0     C12997   6.282  -0.036   3.464 -0.7080 -0.3223  0.8582
  838MOL0     O12998   6.397  -0.102   3.460  0.2433 -0.0236 -0.1918
  838MOL0     C12999   6.504  -0.037   3.400  0.1914 -0.1851  0.0273
  838MOL0     C13000   6.511  -0.030   3.260  0.2630 -0.5452  0.3350
  838MOL0     C13001   6.630   0.019   3.193  1.1526  1.2727  0.2221
  838MOL0     C13002   6.731   0.066   3.279  0.7039 -0.5293  0.8612
  838MOL0     O13003   6.852   0.116   3.232  0.1087 -0.9419 -0.5038
  838MOL0     C13004   6.908   0.054   3.118 -0.2943 -0.4784  0.5473
  838MOL0     C13005   6.961  -0.092   3.129  0.0807 -0.3931  0.7052
  838MOL0     C13006   7.093  -0.107   3.196  0.4447 -0.6631  0.0637
  838MOL0     C13007   7.123  -0.248   3.190 -0.7595  0.4379  0.0598
  838MOL0     C13008   7.241  -0.288   3.271  0.0619 -0.0162  0.2397
  838MOL0     C13009   7.298  -0.427   3.237 -0.1373  0.2903 -0.1270
  838MOL0     C13010   7.423  -0.440   3.322  0.0664  0.1016  0.2306
  838MOL0     C13011   7.470  -0.586   3.333  0.4781 -0.3411 -0.0733
  838MOL0     N13012   7.559  -0.608   3.443 -0.2260 -0.8421 -0.1385
  838MOL0     C13013   7.511  -0.601   3.570 -0.0458  0.4454 -0.3401
  838MOL0     C13014   7.624  -0.567   3.645  0.6395 -0.3071 -0.1451
  838MOL0     C13015   7.628  -0.515   3.794  0.0821  0.2064  0.4686
  838MOL0     C13016   7.678  -0.630   3.877 -0.2919  0.0418 -0.5279
  838MOL0     C13017   7.694  -0.598   4.017 -0.0074 -0.8260  0.6219
  838MOL0     C13018   7.828  -0.526   4.041 -0.2288  0.0257 -0.1386
  838MOL0     O13019   7.941  -0.617   4.042 -0.0908 -0.0478 -0.0688
  838MOL0     C13020   8.063  -0.573   4.076  0.2536 -0.7797  0.8018
  838MOL0     C13021   8.173  -0.637   4.019 -1.3795  0.0654 -0.5191
  838MOL0     C13022   8.305  -0.600   4.051 -0.0133  0.0318  0.4859
  838MOL0     C13023   8.329  -0.512   4.162 -0.2330  0.6062 -0.0739
  838MOL0     C13024   8.472  -0.495   4.204  0.4661 -0.0968 -0.1370
  838MOL0     O13025   8.568  -0.557   4.124  1.0153 -0.1092  0.5462
  838MOL0     C13026   8.701  -0.534   4.142  0.3166  0.0833  0.1264
  838MOL0     C13027   8.788  -0.582   4.044  0.2619  0.3741 -0.3720
  838MOL0     C13028   8.926  -0.573   4.052  0.1001 -0.2427  0.1886
  838MOL0     C13029   8.994  -0.506   4.153 -0.0398  0.8608 -0.0875
  838MOL0     O13030   9.128  -0.489   4.154  0.3627 -0.0263 -0.1965
  838MOL0     C13031   9.186  -0.432   4.271 -0.2968 -0.4143  0.1109
  838MOL0     C13032   9.341  -0.466   4.268  0.5106 -0.2233 -0.1303
  838MOL0     C13033   9.424  -0.381   4.371  0.0645 -0.8351 -0.3598
  838MOL0     C13034   9.530  -0.283   4.301  0.0065  0.2671  0.4353
  838MOL0     C13035   9.666  -0.349   4.281 -0.3969 -0.7564 -0.0537
  838MOL0     C13036   9.780  -0.246   4.246  0.1401  0.1538 -0.8708
  838MOL0     C13037   9.903  -0.325   4.206 -0.4939 -0.2078  0.4704
  838MOL0     C13038  10.036  -0.246   4.225  0.3184  0.5805  0.1113
  838MOL0    Cl13039  10.029  -0.097   4.121  0.0231  0.1422 -0.0691
  838MOL0     C13040   8.911  -0.448   4.251 -0.6295 -0.5556 -0.6365
  838MOL0     C13041   8.769  -0.466   4.248 -0.9408  0.8909 -0.4557
  838MOL0     O13042   8.483  -0.427   4.304 -0.4076  0.2347 -0.1677
  838MOL0     C13043   8.221  -0.438   4.219 -0.6264  0.2522  0.5502
  838MOL0     C13044   8.091  -0.466   4.168 -0.1439  0.3089 -0.6701
  838MOL0     N13045   7.733  -0.584   3.557  0.4577 -0.1136 -0.2120
  838MOL0     N13046   7.693  -0.598   3.441  0.0526 -0.1484 -0.5192
  838MOL0     C13047   6.720   0.070   3.415 -0.2172  0.1941 -0.7606
  838MOL0     C13048   6.608   0.026   3.479  0.7750  0.0303 -0.0561
  838MOL0     C13049   6.173  -0.089   3.541  0.4461 -0.2640 -0.4647
  838MOL0     C13050   6.047  -0.117   3.485 -0.4290  0.0328  0.4591
  838MOL0     C13051   5.945  -0.164   3.571 -0.6845 -0.6648  0.6218
  838MOL0     C13052   5.967  -0.194   3.706  0.1285 -0.1060 -0.6326
  838MOL0     O13053   5.860  -0.251   3.778  0.0354 -0.3909 -0.8825
  838MOL0     C13054   5.863  -0.389   3.740  0.6880 -0.2103 -0.3766
  838MOL0     C13055   5.717  -0.448   3.765  0.5296  0.9870 -0.4220
  838MOL0     C13056   5.706  -0.460   3.923 -0.0194  0.5213 -0.4579
  838MOL0     C13057   5.558  -0.479   3.966  0.1938 -0.0153 -0.1884
  838MOL0     C13058   5.532  -0.501   4.103 -0.3700 -0.4503  0.0245
  838MOL0     C13059   5.515  -0.516   4.222 -1.2884 -0.5729 -0.2952
  838MOL0     C13060   6.087  -0.156   3.765 -0.3983 -1.3078  0.1488
  838MOL0     C13061   6.194  -0.106   3.683 -0.2992 -0.3143 -0.1588
  838MOL0     C13062   6.333  -0.083   3.757  1.4381  0.1366  0.4826
  838MOL0     H13063   6.427  -0.067   3.203  1.0406 -1.8509  0.0169
  838MOL0     H13064   6.624   0.013   3.084 -0.6043 -1.0983  0.3551
  838MOL0     H13065   6.840   0.057   3.032  0.7287 -1.8569 -0.3460
  838MOL0     H13066   6.997   0.108   3.084 -0.6170  0.2184  0.7920
  838MOL0     H13067   6.970  -0.136   3.029  1.0893 -0.4039  0.7905
  838MOL0     H13068   6.883  -0.144   3.185  0.6248  0.3900  2.2294
  838MOL0     H13069   7.083  -0.079   3.302  3.0531  0.1624  0.1545
  838MOL0     H13070   7.175  -0.052   3.150 -0.5297 -0.0331 -0.9566
  838MOL0     H13071   7.041  -0.314   3.218  0.5422 -0.3089  2.3652
  838MOL0     H13072   7.149  -0.278   3.088  1.3424 -2.4776  1.3101
  838MOL0     H13073   7.318  -0.211   3.261  0.1148 -0.1123 -0.1212
  838MOL0     H13074   7.214  -0.284   3.377 -1.9819  0.4679 -0.2685
  838MOL0     H13075   7.243  -0.514   3.272  2.4080 -0.1989  3.0533
  838MOL0     H13076   7.337  -0.426   3.134  1.4987  1.7513  0.4397
  838MOL0     H13077   7.400  -0.404   3.423 -3.5474 -1.7188  0.2485
  838MOL0     H13078   7.502  -0.382   3.273 -0.8685  1.4440  0.2457
  838MOL0     H13079   7.385  -0.653   3.349 -2.1284  2.4212 -1.5202
  838MOL0     H13080   7.519  -0.613   3.238  0.1004  0.9478 -0.6603
  838MOL0     H13081   7.405  -0.581   3.588 -0.1060  0.3774 -0.6233
  838MOL0     H13082   7.694  -0.430   3.812 -1.5249  0.9676  3.3482
  838MOL0     H13083   7.531  -0.479   3.828 -0.9100 -1.8388  0.0056
  838MOL0     H13084   7.599  -0.705   3.884 -1.0737  0.9978  3.1468
  838MOL0     H13085   7.764  -0.685   3.840 -1.2252 -2.4919  0.8013
  838MOL0     H13086   7.703  -0.675   4.093  5.6876 -1.2681 -0.0616
  838MOL0     H13087   7.623  -0.524   4.055  0.9083  0.1071  0.5778
  838MOL0     H13088   7.817  -0.489   4.143 -0.4380  0.4962 -0.3268
  838MOL0     H13089   7.844  -0.444   3.970 -2.1135  0.9634  0.4459
  838MOL0     H13090   8.156  -0.708   3.939 -2.8381  2.4055 -2.4315
  838MOL0     H13091   8.385  -0.650   3.998  2.1964  2.8344  0.9363
  838MOL0     H13092   8.744  -0.634   3.959 -0.0421 -0.2582  0.1624
  838MOL0     H13093   8.974  -0.613   3.964 -2.2382  2.2381 -2.4151
  838MOL0     H13094   9.167  -0.324   4.276  0.3145 -0.3398  1.1263
  838MOL0     H13095   9.156  -0.482   4.363 -2.6697  0.7110  0.0161
  838MOL0     H13096   9.353  -0.570   4.299  0.6994  0.2563  1.4657
  838MOL0     H13097   9.378  -0.469   4.165 -3.9142 -1.2617 -1.9515
  838MOL0     H13098   9.350  -0.323   4.428 -0.7930 -0.4665 -1.7974
  838MOL0     H13099   9.490  -0.449   4.425  3.0417 -0.5883 -3.3327
  838MOL0     H13100   9.551  -0.199   4.368  1.7179 -1.1222  1.7508
  838MOL0     H13101   9.491  -0.235   4.211  0.3649 -1.8959 -0.9480
  838MOL0     H13102   9.656  -0.428   4.206 -1.3848 -0.2167 -0.5035
  838MOL0     H13103   9.696  -0.403   4.371 -2.6768  0.5825  1.6072
  838MOL0     H13104   9.745  -0.174   4.171  1.3512  2.6559  0.8294
  838MOL0     H13105   9.800  -0.191   4.338 -2.5903 -0.4750  0.1900
  838MOL0     H13106   9.893  -0.352   4.100 -1.6433 -0.5755  0.6615
  838MOL0     H13107   9.919  -0.415   4.266  0.2422 -1.0251 -0.8998
  838MOL0     H13108  10.038  -0.211   4.329 -3.0508 -0.2238  0.5484
  838MOL0     H13109  10.131  -0.294   4.201  0.5319  1.4194 -0.8082
  838MOL0     H13110   8.951  -0.384   4.329 -2.8908 -2.4945  2.2843
  838MOL0     H13111   8.710  -0.420   4.327 -1.3422  0.5239 -0.5336
  838MOL0     H13112   8.234  -0.357   4.291  1.9709  1.8414 -1.5227
  838MOL0     H13113   8.011  -0.422   4.226  2.6617  1.0100  2.9878
  838MOL0     H13114   6.799   0.118   3.471  0.7154 -0.0751 -1.8246
  838MOL0     H13115   6.598   0.017   3.586  1.3706 -1.2145 -0.0855
  838MOL0     H13116   6.034  -0.088   3.381  0.4086 -0.1326  0.3015
  838MOL0     H13117   5.845  -0.180   3.533  0.2042 -1.3309 -1.5580
  838MOL0     H13118   5.939  -0.439   3.801 -0.2020 -0.2473  0.7393
  838MOL0     H13119   5.890  -0.414   3.638  2.2024  0.7677 -0.2441
  838MOL0     H13120   5.711  -0.551   3.728 -0.8914  0.4103  1.2571
  838MOL0     H13121   5.642  -0.385   3.716  1.7945  1.2332 -2.1372
  838MOL0     H13122   5.735  -0.377   3.988  0.2926 -1.3994  2.0137
  838MOL0     H13123   5.765  -0.545   3.957 -0.6485 -0.3143 -1.4080
  838MOL0     H13124   5.498  -0.400   3.922 -0.0162 -0.2351 -0.3019
  838MOL0     H13125   5.539  -0.574   3.915 -4.2668  0.9170 -0.6461
  838MOL0     H13126   5.504  -0.524   4.329 -0.0739 -0.5491 -0.1501
  838MOL0     H13127   6.103  -0.159   3.872 -1.1139 -1.8414  0.2445
  838MOL0     H13128   6.396  -0.005   3.714  1.6674  0.8489  2.0279
  838MOL0     H13129   6.323  -0.058   3.864 -2.3883  3.3307 -0.3445
  838MOL0     H13130   6.390  -0.175   3.748  0.4127 -0.4135 -0.6532
  839MOL0     O13131   5.063   3.517   7.180  0.1867 -0.2859 -0.1575
  839MOL0     C13132   5.072   3.431   7.093  0.5333 -0.1479 -0.0341
  839MOL0     O13133   5.190   3.396   7.035 -0.3160 -0.3191  0.3377
  839MOL0     C13134   5.283   3.491   6.994  0.1690 -0.0652 -1.1416
  839MOL0     C13135   5.406   3.434   6.969  0.2659 -0.7817  0.8659
  839MOL0     C13136   5.515   3.509   6.931 -0.5299 -0.2360 -0.0252
  839MOL0     C13137   5.507   3.645   6.919 -0.4550  0.5893 -0.5724
  839MOL0     O13138   5.605   3.730   6.882  0.1396  0.2088 -0.2427
  839MOL0     C13139   5.737   3.679   6.838 -0.9198 -0.4084 -0.2772
  839MOL0     C13140   5.829   3.801   6.836 -0.0682 -0.7046 -0.6075
  839MOL0     C13141   5.832   3.902   6.955 -0.2383  0.0389 -0.3706
  839MOL0     C13142   5.883   3.840   7.094 -0.0445 -0.1864 -0.3933
  839MOL0     C13143   5.888   3.934   7.216  0.1899  0.2748 -0.6295
  839MOL0     C13144   5.988   4.045   7.204  0.0692  0.0077 -0.8952
  839MOL0     C13145   6.006   4.133   7.323  0.2192 -0.1351 -0.8517
  839MOL0     C13146   6.133   4.221   7.325 -0.9055 -0.1120  0.1268
  839MOL0     N13147   6.143   4.295   7.455 -0.1082  0.1211 -0.8704
  839MOL0     C13148   6.137   4.249   7.586  1.3450  0.3668  0.0703
  839MOL0     C13149   6.149   4.358   7.665  0.1859 -0.3041 -0.6907
  839MOL0     C13150   6.153   4.349   7.818 -0.4083 -0.3238  0.3161
  839MOL0     C13151   6.250   4.429   7.890 -0.0554  0.2087 -0.0070
  839MOL0     C13152   6.397   4.405   7.847 -0.3400 -0.3454 -0.1700
  839MOL0     C13153   6.480   4.519   7.902  0.1797 -0.5933  0.6191
  839MOL0     O13154   6.447   4.545   8.036 -0.1455 -0.6195  0.2588
  839MOL0     C13155   6.495   4.448   8.123  0.3096  0.4254  0.0209
  839MOL0     C13156   6.431   4.444   8.241 -0.2550 -0.5530 -0.0488
  839MOL0     C13157   6.469   4.354   8.340 -0.6986  0.6409  0.3491
  839MOL0     C13158   6.580   4.273   8.323 -0.3259 -0.5540 -0.1510
  839MOL0     C13159   6.618   4.169   8.425  0.1617 -0.1192  0.4663
  839MOL0     O13160   6.752   4.120   8.434 -1.2611 -0.2434  0.0083
  839MOL0     C13161   6.794   4.012   8.507  1.0842 -0.4392  0.2613
  839MOL0     C13162   6.927   4.003   8.531  0.0074 -0.0835 -0.7170
  839MOL0     C13163   6.975   3.871   8.575 -0.0614  0.2385  0.3058
  839MOL0     C13164   6.894   3.771   8.608 -0.4057  0.3507 -0.8425
  839MOL0     O13165   6.949   3.648   8.629  0.0233  0.0896 -1.2185
  839MOL0     C13166   7.019   3.647   8.754  0.2103 -0.2826 -0.3641
  839MOL0     C13167   7.142   3.574   8.721  0.4267 -0.4642 -0.0665
  839MOL0     C13168   7.208   3.508   8.853  0.6498 -0.9900  0.4868
  839MOL0     C13169   7.366   3.478   8.831  0.1299  1.1552 -0.1461
  839MOL0     C13170   7.426   3.460   8.980  0.4318  0.5014  0.0025
  839MOL0     C13171   7.583   3.446   8.967 -0.0082 -0.0710  0.3282
  839MOL0     C13172   7.660   3.416   9.100 -0.5620 -0.4105 -0.6157
  839MOL0     C13173   7.667   3.538   9.197 -0.1447  0.2762 -0.2233
  839MOL0    Cl13174   7.530   3.568   9.323 -0.3828  0.0016 -0.2083
  839MOL0     C13175   6.757   3.783   8.577  0.6636  0.4802  0.6199
  839MOL0     C13176   6.705   3.899   8.523 -0.6085  0.5813  0.0783
  839MOL0     O13177   6.521   4.130   8.497  0.8189 -0.2125 -0.9132
  839MOL0     C13178   6.658   4.292   8.211 -0.5884 -0.2156 -0.0649
  839MOL0     C13179   6.619   4.380   8.113 -0.7717 -0.7969  0.9012
  839MOL0     N13180   6.139   4.470   7.590 -0.3985 -0.7637 -0.2097
  839MOL0     N13181   6.135   4.435   7.464  0.3737 -0.1787 -0.0017
  839MOL0     C13182   5.386   3.702   6.947  0.1393  0.8175 -0.2857
  839MOL0     C13183   5.266   3.631   6.977  0.2348 -0.4488  0.3474
  839MOL0     C13184   4.950   3.346   7.064 -1.1006 -0.4425  0.5025
  839MOL0     C13185   4.965   3.208   7.047 -0.1726 -0.2118 -0.1865
  839MOL0     C13186   4.855   3.124   7.037 -0.0947 -0.3577 -0.3078
  839MOL0     C13187   4.724   3.174   7.031  0.4405 -0.9866 -0.4422
  839MOL0     O13188   4.612   3.097   7.022  0.3641  0.2762  0.4662
  839MOL0     C13189   4.614   2.961   7.078 -0.5091 -0.2897 -0.8751
  839MOL0     C13190   4.475   2.951   7.139  0.4409  0.3529 -0.1896
  839MOL0     C13191   4.448   2.805   7.185  0.1994 -0.3178  1.0632
  839MOL0     C13192   4.318   2.773   7.261  0.7091 -0.5471  0.4626
  839MOL0     C13193   4.216   2.760   7.158 -0.3195 -0.7835 -0.3703
  839MOL0     C13194   4.139   2.738   7.070  1.1208  0.2632  0.1297
  839MOL0     C13195   4.714   3.312   7.046 -0.3086 -0.0559 -0.1719
  839MOL0     C13196   4.820   3.397   7.055  0.0047 -0.0838  0.1853
  839MOL0     C13197   4.778   3.549   7.063 -0.0613  0.0967  0.3256
  839MOL0     H13198   5.409   3.325   6.977  1.3176 -0.7710  0.7154
  839MOL0     H13199   5.607   3.458   6.905  0.0910  2.0323 -2.6419
  839MOL0     H13200   5.773   3.611   6.916 -0.5827  1.6200  1.4282
  839MOL0     H13201   5.724   3.632   6.740  0.4739 -2.5204  0.4886
  839MOL0     H13202   5.788   3.859   6.752 -0.7761 -0.7344 -0.2916
  839MOL0     H13203   5.934   3.778   6.819 -0.2922 -3.1740  0.9424
  839MOL0     H13204   5.738   3.955   6.969 -0.2522 -0.4034  1.5135
  839MOL0     H13205   5.904   3.979   6.924 -1.0957  0.6381 -0.9024
  839MOL0     H13206   5.807   3.763   7.109 -1.3354  0.7185 -1.9641
  839MOL0     H13207   5.976   3.787   7.071 -0.1590  0.3557 -2.2364
  839MOL0     H13208   5.785   3.971   7.217  0.5958  1.4840  1.1125
  839MOL0     H13209   5.908   3.878   7.308 -1.0782  1.7059  0.5802
  839MOL0     H13210   6.084   4.003   7.171  1.6350  1.6655  1.2538
  839MOL0     H13211   5.952   4.108   7.122 -3.0289  0.7913  0.9176
  839MOL0     H13212   6.025   4.071   7.411  1.2214  1.5455  0.1730
  839MOL0     H13213   5.920   4.200   7.336 -0.2176 -0.7818 -0.3748
  839MOL0     H13214   6.213   4.149   7.305 -1.4214 -0.3440 -1.1704
  839MOL0     H13215   6.132   4.299   7.248 -0.0472 -0.4771 -0.2710
  839MOL0     H13216   6.126   4.145   7.615 -1.6873  0.8457  0.9713
  839MOL0     H13217   6.052   4.368   7.857  0.0864  3.5098  0.1661
  839MOL0     H13218   6.174   4.246   7.846 -2.8704 -0.8621  0.4129
  839MOL0     H13219   6.217   4.533   7.884 -4.4352 -0.8962  1.0575
  839MOL0     H13220   6.241   4.401   7.996  0.9908 -2.1852 -0.4938
  839MOL0     H13221   6.397   4.398   7.738 -2.1237 -0.4422 -0.1999
  839MOL0     H13222   6.434   4.311   7.889  2.1271  0.7420  0.2811
  839MOL0     H13223   6.460   4.613   7.849  0.9534  0.9974  2.9850
  839MOL0     H13224   6.587   4.498   7.889  0.9512  3.0495 -0.2299
  839MOL0     H13225   6.336   4.495   8.258 -1.7336 -2.3906 -2.2140
  839MOL0     H13226   6.410   4.342   8.430 -0.6238 -0.2152  0.2890
  839MOL0     H13227   7.007   4.065   8.491  0.0341  0.3314 -0.0434
  839MOL0     H13228   7.080   3.847   8.586 -0.0462 -0.6928 -1.4833
  839MOL0     H13229   7.039   3.746   8.796 -1.7888 -0.2830  0.6577
  839MOL0     H13230   6.968   3.591   8.832 -2.1857  1.9328 -0.2078
  839MOL0     H13231   7.121   3.492   8.652  1.8508 -1.4746  0.6513
  839MOL0     H13232   7.214   3.637   8.668 -0.0069  1.6479  1.7330
  839MOL0     H13233   7.195   3.577   8.936 -0.9129 -0.5274 -0.1087
  839MOL0     H13234   7.152   3.418   8.880  0.5318 -1.0732 -0.0109
  839MOL0     H13235   7.412   3.560   8.775  2.2808  0.0830 -0.0509
  839MOL0     H13236   7.372   3.395   8.760 -2.3423  1.9064 -1.3941
  839MOL0     H13237   7.377   3.374   9.026 -1.6335  0.0580 -2.7732
  839MOL0     H13238   7.411   3.553   9.035 -0.1411 -0.5093  1.6226
  839MOL0     H13239   7.603   3.365   8.896  0.4612  2.1432 -2.2269
  839MOL0     H13240   7.626   3.537   8.924  3.2642 -1.1714  0.9183
  839MOL0     H13241   7.760   3.378   9.076  0.7008 -0.7755  4.1391
  839MOL0     H13242   7.621   3.333   9.161 -0.9815  1.4276  1.7989
  839MOL0     H13243   7.761   3.520   9.250  0.6156  1.1172 -1.2315
  839MOL0     H13244   7.680   3.630   9.139  2.1977  0.5250  0.6119
  839MOL0     H13245   6.702   3.689   8.583 -0.3681  0.6060 -3.4597
  839MOL0     H13246   6.607   3.894   8.477 -0.2753 -0.4990 -0.5427
  839MOL0     H13247   6.744   4.226   8.198 -1.8127 -1.9105  0.0156
  839MOL0     H13248   6.677   4.388   8.022 -0.9702  0.3094  0.8544
  839MOL0     H13249   5.378   3.808   6.925 -4.9650  0.4964 -1.1968
  839MOL0     H13250   5.175   3.690   6.980  1.3953  1.4737 -0.3657
  839MOL0     H13251   5.059   3.154   7.050 -0.2832 -0.5085 -1.7004
  839MOL0     H13252   4.875   3.018   7.026 -3.0617 -0.9166 -0.9810
  839MOL0     H13253   4.690   2.950   7.155  1.9333  1.1376 -2.9438
  839MOL0     H13254   4.627   2.882   7.004  0.2338 -0.7726 -0.2388
  839MOL0     H13255   4.404   2.992   7.067  1.7645 -0.0878 -1.8001
  839MOL0     H13256   4.465   3.009   7.231  1.1716  1.1884 -0.6176
  839MOL0     H13257   4.528   2.762   7.246  0.0265  0.2269  1.6903
  839MOL0     H13258   4.430   2.744   7.096 -2.6075  3.9710 -1.6630
  839MOL0     H13259   4.327   2.680   7.317  0.5470 -1.8411 -1.5431
  839MOL0     H13260   4.286   2.859   7.320  1.8406 -0.5615  1.1236
  839MOL0     H13261   4.068   2.708   6.995  3.0108 -0.3999 -1.4972
  839MOL0     H13262   4.615   3.357   7.048  0.3420  1.7873 -3.4295
  839MOL0     H13263   4.866   3.607   7.033  0.6694 -0.4485  1.3280
  839MOL0     H13264   4.699   3.576   6.993  0.2684 -0.3231 -0.2134
  839MOL0     H13265   4.744   3.555   7.167  1.6134 -2.3659  1.1219
  840MOL0     O13266   0.952   2.854   2.918  0.1270  1.0775 -0.3948
  840MOL0     C13267   0.985   2.851   2.796 -0.7693  0.0659  0.1221
  840MOL0     O13268   1.108   2.890   2.744 -0.1893 -0.6506  0.0580
  840MOL0     C13269   1.203   2.965   2.816 -0.5005 -0.4232  0.0042
  840MOL0     C13270   1.174   3.049   2.925 -0.4363  1.0736  0.1420
  840MOL0     C13271   1.278   3.122   2.988  0.5675  0.3569 -0.5333
  840MOL0     C13272   1.409   3.108   2.960 -0.4586 -1.0325 -0.1286
  840MOL0     O13273   1.516   3.164   3.030  0.2554  0.0468  0.2149
  840MOL0     C13274   1.483   3.264   3.122 -0.2553  0.6897  1.0410
  840MOL0     C13275   1.625   3.332   3.160 -0.2472 -0.2599 -0.8104
  840MOL0     C13276   1.613   3.431   3.276 -0.2190 -0.5242 -1.4303
  840MOL0     C13277   1.749   3.496   3.293  0.5293  0.6347 -0.9123
  840MOL0     C13278   1.766   3.544   3.441 -0.6822  0.9685 -0.5285
  840MOL0     C13279   1.906   3.603   3.471  0.0962  0.4066 -0.0989
  840MOL0     C13280   2.022   3.500   3.458  0.8017 -0.2395 -1.2216
  840MOL0     C13281   2.168   3.537   3.487 -0.5176  0.4833 -1.2911
  840MOL0     N13282   2.200   3.552   3.628  1.1210 -0.7801  0.2865
  840MOL0     C13283   2.240   3.453   3.704 -1.0087  0.1814  0.2168
  840MOL0     C13284   2.255   3.504   3.834 -0.0761  0.1536 -0.3877
  840MOL0     C13285   2.303   3.427   3.958 -0.1536 -0.6581  0.7854
  840MOL0     C13286   2.447   3.477   3.980 -0.7315 -0.3292 -0.3754
  840MOL0     C13287   2.512   3.411   4.102  0.5317  0.7052  0.8062
  840MOL0     C13288   2.647   3.467   4.146 -0.4389  0.2155  0.0785
  840MOL0     O13289   2.695   3.395   4.262 -0.1177  0.6434 -0.4170
  840MOL0     C13290   2.797   3.304   4.264  0.2787  0.5643 -0.0908
  840MOL0     C13291   2.845   3.263   4.387  0.3074 -0.0673  0.7132
  840MOL0     C13292   2.954   3.176   4.404  0.6446  0.1339 -0.1338
  840MOL0     C13293   3.019   3.129   4.297 -1.5563  0.0326  0.8204
  840MOL0     C13294   3.134   3.039   4.308 -0.2148  0.6189 -1.1478
  840MOL0     O13295   3.201   3.046   4.430 -0.0494  0.0834  0.1489
  840MOL0     C13296   3.343   3.032   4.433 -0.7347 -0.4182  0.0668
  840MOL0     C13297   3.441   3.024   4.328 -0.0206 -0.5502  0.0877
  840MOL0     C13298   3.584   3.032   4.355  0.3046  0.0613 -0.2461
  840MOL0     C13299   3.634   3.050   4.489 -0.3818 -0.7892  0.1251
  840MOL0     O13300   3.760   3.081   4.522  0.1522  0.3542  0.0196
  840MOL0     C13301   3.867   2.999   4.464  0.3625 -0.5744  0.7840
  840MOL0     C13302   4.010   3.025   4.533 -0.6135 -0.6144  0.1792
  840MOL0     C13303   4.118   2.962   4.434 -0.8324  0.0300  0.0701
  840MOL0     C13304   4.249   2.949   4.515  0.4114 -0.1355 -0.1054
  840MOL0     C13305   4.358   2.883   4.434  0.5114  0.5826 -0.2250
  840MOL0     C13306   4.481   2.860   4.510 -0.2409  0.2705  0.4930
  840MOL0     C13307   4.526   2.981   4.581 -0.7513 -0.2452 -0.0182
  840MOL0     C13308   4.665   2.942   4.648  0.5388 -0.6635  0.2050
  840MOL0    Cl13309   4.785   2.916   4.521  0.0526  0.2823 -0.3744
  840MOL0     C13310   3.535   3.053   4.588 -0.0073  0.6439  0.0326
  840MOL0     C13311   3.396   3.034   4.561 -0.2149  0.0996  1.2166
  840MOL0     O13312   3.165   2.967   4.212  0.6167 -0.7820  0.2391
  840MOL0     C13313   2.982   3.181   4.165  0.4101 -0.5333 -1.4265
  840MOL0     C13314   2.867   3.261   4.148  0.4035 -0.1644  0.3805
  840MOL0     N13315   2.214   3.636   3.825 -0.0624 -0.3561  0.9740
  840MOL0     N13316   2.178   3.663   3.706  0.6401  0.0019  0.5448
  840MOL0     C13317   1.437   3.007   2.867 -0.5794 -0.4059 -0.1157
  840MOL0     C13318   1.338   2.943   2.788 -0.1649  0.1527 -0.8546
  840MOL0     C13319   0.885   2.809   2.693 -0.4121 -0.2061 -0.8091
  840MOL0     C13320   0.930   2.780   2.557 -0.0915  0.9221  0.4623
  840MOL0     C13321   0.847   2.722   2.461  0.5395 -0.4022 -0.0915
  840MOL0     C13322   0.714   2.685   2.493 -0.7625 -0.2270  0.0217
  840MOL0     O13323   0.657   2.604   2.403  0.4174 -0.3358  0.4433
  840MOL0     C13324   0.611   2.480   2.446 -0.7792 -0.5031 -0.3142
  840MOL0     C13325   0.589   2.409   2.322  0.1667  0.4834  1.1016
  840MOL0     C13326   0.712   2.365   2.241 -0.2636  0.6718 -0.1191
  840MOL0     C13327   0.721   2.211   2.247 -0.6855 -0.2406  0.3054
  840MOL0     C13328   0.608   2.142   2.179 -0.2407  0.1131 -0.2759
  840MOL0     C13329   0.522   2.079   2.130 -1.1288  0.6959 -0.1808
  840MOL0     C13330   0.677   2.704   2.622  0.3559 -0.5815 -0.6236
  840MOL0     C13331   0.752   2.768   2.728  0.2531  0.2008 -1.0543
  840MOL0     C13332   0.688   2.759   2.870 -0.4202  0.1075 -1.0469
  840MOL0     H13333   1.071   3.069   2.953 -1.9794 -4.2792 -0.4426
  840MOL0     H13334   1.243   3.193   3.063 -4.7745  0.1479 -2.4102
  840MOL0     H13335   1.416   3.338   3.076 -1.3094  0.0730  1.5335
  840MOL0     H13336   1.420   3.230   3.205 -2.3366 -0.1308 -0.7573
  840MOL0     H13337   1.671   3.377   3.072  0.6377  1.1809  0.3452
  840MOL0     H13338   1.694   3.250   3.182 -2.2829 -2.4979 -2.3020
  840MOL0     H13339   1.584   3.364   3.357  0.6449 -1.2951 -1.7409
  840MOL0     H13340   1.536   3.509   3.271 -0.8798 -0.9152  1.0841
  840MOL0     H13341   1.828   3.425   3.267  0.1219 -1.1250  2.1804
  840MOL0     H13342   1.759   3.583   3.228  6.3226  0.8796 -0.1560
  840MOL0     H13343   1.684   3.608   3.475 -1.4617 -0.6733  0.8020
  840MOL0     H13344   1.764   3.461   3.512  1.0608 -0.9395 -2.5482
  840MOL0     H13345   1.916   3.684   3.399 -1.0470 -0.6499 -1.4937
  840MOL0     H13346   1.906   3.635   3.576  2.2803  0.2764 -0.0100
  840MOL0     H13347   2.016   3.451   3.361 -0.9403 -0.6820 -0.9240
  840MOL0     H13348   1.994   3.426   3.533  0.1159  0.1676 -1.0692
  840MOL0     H13349   2.236   3.459   3.454  2.3045  3.1425 -2.2388
  840MOL0     H13350   2.200   3.628   3.434  4.0025  0.0765  0.3495
  840MOL0     H13351   2.241   3.346   3.684 -2.1598 -0.4729  3.1481
  840MOL0     H13352   2.247   3.443   4.051 -0.0134  0.9871  0.6113
  840MOL0     H13353   2.289   3.321   3.934  0.5656 -0.3999 -0.8905
  840MOL0     H13354   2.513   3.472   3.894  1.8534  0.9303  1.4061
  840MOL0     H13355   2.437   3.581   4.013 -1.7662 -0.4776 -0.1633
  840MOL0     H13356   2.520   3.302   4.092 -0.3911  0.5204  1.7884
  840MOL0     H13357   2.436   3.423   4.180 -0.6517 -2.8238  0.3644
  840MOL0     H13358   2.640   3.572   4.174 -1.6432  0.3117 -0.5346
  840MOL0     H13359   2.723   3.462   4.068 -1.0456  1.8254 -0.6445
  840MOL0     H13360   2.786   3.293   4.473  2.4233 -0.9302  2.5644
  840MOL0     H13361   2.997   3.143   4.497  1.1590  1.0175 -0.0442
  840MOL0     H13362   3.407   3.022   4.225 -1.0666  1.0803  0.3572
  840MOL0     H13363   3.651   3.026   4.270 -1.5683 -2.8929 -1.6780
  840MOL0     H13364   3.828   2.897   4.473 -1.3651  0.1369  1.8863
  840MOL0     H13365   3.883   3.017   4.358 -2.2955  1.0993  0.5734
  840MOL0     H13366   4.020   3.134   4.542 -1.9271 -0.3193 -1.3293
  840MOL0     H13367   4.017   2.974   4.629  2.0287  1.7424  1.4048
  840MOL0     H13368   4.082   2.862   4.409 -1.6450 -0.1329  1.7323
  840MOL0     H13369   4.134   3.031   4.351 -0.8057  0.9493  0.8111
  840MOL0     H13370   4.222   2.887   4.601 -0.7390 -1.7172 -1.5465
  840MOL0     H13371   4.271   3.055   4.533 -1.5980  0.6733 -1.9197
  840MOL0     H13372   4.382   2.950   4.351  3.0657 -0.2679 -0.2539
  840MOL0     H13373   4.317   2.784   4.412  0.1483  0.1242  2.2288
  840MOL0     H13374   4.468   2.785   4.589  3.1365  1.1910  2.1258
  840MOL0     H13375   4.557   2.815   4.447 -1.1847 -0.9139  0.1648
  840MOL0     H13376   4.456   3.009   4.660 -0.6335  1.2759 -0.4053
  840MOL0     H13377   4.523   3.069   4.515 -2.3605 -0.7656 -0.6718
  840MOL0     H13378   4.686   3.032   4.707 -0.4321 -3.2526  5.0888
  840MOL0     H13379   4.666   2.859   4.720  0.2390 -0.2675  0.6717
  840MOL0     H13380   3.574   3.075   4.687  0.9612  1.0394 -0.4316
  840MOL0     H13381   3.325   3.022   4.642 -0.6141 -0.3807  0.8002
  840MOL0     H13382   3.046   3.147   4.084  1.3208 -0.6103 -0.6863
  840MOL0     H13383   2.820   3.286   4.054 -1.4473 -0.1469  1.2645
  840MOL0     H13384   1.540   2.981   2.843 -0.7204  2.0206 -4.2192
  840MOL0     H13385   1.369   2.867   2.718  0.1626 -0.6385  0.1170
  840MOL0     H13386   1.032   2.802   2.525  0.2806 -1.3001 -0.0446
  840MOL0     H13387   0.880   2.693   2.362  3.1909  1.4761  0.1223
  840MOL0     H13388   0.516   2.473   2.500 -1.2922  2.0796 -0.7797
  840MOL0     H13389   0.682   2.423   2.507 -2.0814 -0.5648  1.2020
  840MOL0     H13390   0.529   2.463   2.248  0.4654 -2.8454 -1.8207
  840MOL0     H13391   0.536   2.321   2.360  0.7037 -0.0022  0.7355
  840MOL0     H13392   0.808   2.415   2.260  0.6113  0.7258 -3.9667
  840MOL0     H13393   0.690   2.404   2.142 -1.3504  0.2054 -0.0699
  840MOL0     H13394   0.806   2.184   2.183  0.5340 -1.0196  2.1670
  840MOL0     H13395   0.726   2.172   2.348 -1.4427  1.0330  0.8583
  840MOL0     H13396   0.443   2.023   2.084 -0.8687  0.5267 -0.4270
  840MOL0     H13397   0.575   2.676   2.648  0.3547  0.4688  0.5853
  840MOL0     H13398   0.683   2.854   2.924 -0.5714 -2.5660  4.3574
  840MOL0     H13399   0.588   2.717   2.856  0.7321 -2.2370 -2.9104
  840MOL0     H13400   0.752   2.698   2.934  1.7197  2.3878 -0.8645
  841MOL0     O13401   8.870   8.311   3.123 -0.4622 -0.0463 -0.0344
  841MOL0     C13402   8.951   8.218   3.131 -0.0826 -0.0369 -0.0044
  841MOL0     O13403   9.085   8.224   3.101 -0.0541  0.4161 -0.3715
  841MOL0     C13404   9.130   8.339   3.053 -0.4088 -0.2762 -0.3535
  841MOL0     C13405   9.104   8.376   2.921  0.1757 -0.0457 -0.8738
  841MOL0     C13406   9.145   8.494   2.873  0.0926  0.6370 -0.3226
  841MOL0     C13407   9.209   8.590   2.948 -0.1424 -0.0147 -0.2490
  841MOL0     O13408   9.246   8.710   2.896 -0.2009 -0.2436  0.3761
  841MOL0     C13409   9.367   8.773   2.945  0.3867 -0.1645 -0.8777
  841MOL0     C13410   9.491   8.689   2.925 -1.4864  0.6973 -0.1121
  841MOL0     C13411   9.506   8.639   2.780  0.1112 -1.4085 -0.2658
  841MOL0     C13412   9.659   8.596   2.755  0.5529  0.3425  0.4650
  841MOL0     C13413   9.705   8.574   2.606  0.0168  1.2464 -0.6881
  841MOL0     C13414   9.733   8.707   2.540 -0.3828 -0.2342  0.5854
  841MOL0     C13415   9.791   8.697   2.404 -0.1598  0.2217  1.1163
  841MOL0     C13416   9.784   8.835   2.337 -1.2012 -0.3118  0.3309
  841MOL0     N13417   9.824   8.840   2.193  0.5254 -0.3862  0.4387
  841MOL0     C13418   9.952   8.835   2.140 -0.0974  0.1214 -0.2511
  841MOL0     C13419   9.941   8.853   2.008 -0.1534 -0.6689 -0.3739
  841MOL0     C13420  10.053   8.867   1.913  0.7525  0.3569  0.1265
  841MOL0     C13421  10.115   8.724   1.888  0.1864 -0.0676  0.2879
  841MOL0     C13422  10.168   8.730   1.742 -0.7898  0.8147  0.4638
  841MOL0     C13423  10.287   8.820   1.736  0.0224 -0.2876 -0.3375
  841MOL0     O13424  10.399   8.792   1.834  0.6698  0.0737  0.3294
  841MOL0     C13425  10.508   8.878   1.845 -0.4660  0.0098 -0.1214
  841MOL0     C13426  10.523   8.983   1.761  0.3075 -0.6493  0.9017
  841MOL0     C13427  10.638   9.076   1.771  0.3219  0.6314  0.4637
  841MOL0     C13428  10.742   9.032   1.858  0.0400  0.5074 -0.8252
  841MOL0     C13429  10.857   9.121   1.876  0.6694 -0.8601 -0.4377
  841MOL0     O13430  10.968   9.053   1.882 -0.7006 -0.1954  0.1236
  841MOL0     C13431  11.088   9.114   1.860  0.5724  0.8485  0.1037
  841MOL0     C13432  11.195   9.062   1.932 -0.6965 -0.0844 -0.7620
  841MOL0     C13433  11.327   9.117   1.913  0.1941  0.4735 -0.4415
  841MOL0     C13434  11.342   9.225   1.825  0.1699  0.9048  0.2338
  841MOL0     O13435  11.460   9.297   1.809 -0.3322 -0.4975  0.0207
  841MOL0     C13436  11.515   9.332   1.676 -0.0777 -0.5682  0.1621
  841MOL0     C13437  11.535   9.213   1.577 -0.6330 -0.1142 -0.2177
  841MOL0     C13438  11.659   9.138   1.625 -0.1528  0.0456  0.0759
  841MOL0     C13439  11.709   9.044   1.523 -0.3020  0.2810 -0.2050
  841MOL0     C13440  11.815   8.938   1.577  0.2653 -0.6292  0.8231
  841MOL0     C13441  11.898   8.863   1.465 -0.0779 -0.7045 -0.4976
  841MOL0     C13442  11.820   8.763   1.376 -0.1691 -0.2249 -0.1827
  841MOL0     C13443  11.917   8.715   1.271  0.1443 -0.3301 -1.1615
  841MOL0    Cl13444  11.818   8.638   1.143 -0.0342 -0.0453  0.2021
  841MOL0     C13445  11.237   9.280   1.751 -0.9242  0.2310 -0.4163
  841MOL0     C13446  11.113   9.222   1.775 -0.0027  0.3939 -0.9949
  841MOL0     O13447  10.843   9.240   1.850  0.2910 -0.2412  0.6426
  841MOL0     C13448  10.725   8.917   1.942 -0.1149 -0.8448  0.5786
  841MOL0     C13449  10.599   8.853   1.942 -0.1388 -0.0116 -0.3195
  841MOL0     N13450   9.802   8.860   1.978  0.2216  0.6745  1.2748
  841MOL0     N13451   9.736   8.848   2.090  0.0821 -0.7360 -0.6719
  841MOL0     C13452   9.248   8.553   3.082  0.8071  0.9113  0.1878
  841MOL0     C13453   9.203   8.429   3.130  1.5482 -0.4167  0.2641
  841MOL0     C13454   8.900   8.086   3.190  0.9144  0.0968 -0.6092
  841MOL0     C13455   8.962   7.974   3.128 -0.4094 -0.5321 -1.2098
  841MOL0     C13456   8.929   7.850   3.164  1.1659 -0.3648  0.0133
  841MOL0     C13457   8.828   7.837   3.251  0.6784  0.1511  0.2126
  841MOL0     O13458   8.801   7.705   3.286 -0.2302 -0.6240  0.8343
  841MOL0     C13459   8.674   7.666   3.245 -0.2056  1.2104  0.7686
  841MOL0     C13460   8.691   7.579   3.124 -0.1187  0.4364  0.5164
  841MOL0     C13461   8.570   7.496   3.085  0.2171  0.3801 -0.3266
  841MOL0     C13462   8.448   7.589   3.058 -0.4378  0.3794  0.6025
  841MOL0     C13463   8.347   7.520   2.975  0.4128 -0.1596 -0.8851
  841MOL0     C13464   8.283   7.437   2.913  0.4984 -0.7916 -0.9579
  841MOL0     C13465   8.761   7.935   3.323 -0.1984 -0.8711 -0.4618
  841MOL0     C13466   8.801   8.063   3.297 -0.3174 -0.6208  0.9980
  841MOL0     C13467   8.735   8.180   3.358 -0.0168 -0.3126 -0.6422
  841MOL0     H13468   9.046   8.311   2.856 -2.4988  0.7833  0.5598
  841MOL0     H13469   9.111   8.515   2.772  0.3640  0.5131 -0.4415
  841MOL0     H13470   9.378   8.875   2.905 -2.1306  0.5086 -0.0663
  841MOL0     H13471   9.356   8.788   3.052  2.4785  2.0589 -0.8860
  841MOL0     H13472   9.490   8.604   2.993 -3.9438 -0.1909 -1.1486
  841MOL0     H13473   9.577   8.753   2.948 -0.0492 -1.2886  0.2922
  841MOL0     H13474   9.487   8.715   2.704  2.8691 -0.8405 -0.4816
  841MOL0     H13475   9.433   8.558   2.768 -0.0601 -1.5299  1.3992
  841MOL0     H13476   9.730   8.666   2.799 -0.2801  1.7122 -0.2749
  841MOL0     H13477   9.650   8.503   2.812 -1.8885  0.7904  0.9577
  841MOL0     H13478   9.782   8.497   2.597 -0.6377  0.2324  1.5451
  841MOL0     H13479   9.614   8.538   2.558 -0.5338  0.5654  0.7810
  841MOL0     H13480   9.637   8.756   2.525  1.3528  3.1945 -0.3144
  841MOL0     H13481   9.786   8.775   2.607 -0.3643  0.5430 -0.2060
  841MOL0     H13482   9.716   8.643   2.345 -2.4082  0.0918  3.8907
  841MOL0     H13483   9.889   8.649   2.413  0.1150  0.7192  0.8486
  841MOL0     H13484   9.679   8.865   2.339 -1.0245  0.4640 -0.9750
  841MOL0     H13485   9.833   8.910   2.400  1.1822  0.1736 -1.9574
  841MOL0     H13486  10.040   8.820   2.202 -0.7469 -0.6753  0.4953
  841MOL0     H13487  10.017   8.900   1.815 -0.0648 -1.4216 -0.2220
  841MOL0     H13488  10.133   8.935   1.944  3.8916 -2.0990 -1.8262
  841MOL0     H13489  10.201   8.714   1.954  0.2510  0.9755  0.3802
  841MOL0     H13490  10.033   8.653   1.897 -0.8997  1.2264  1.0145
  841MOL0     H13491  10.086   8.764   1.679 -1.7667  0.7727  1.6846
  841MOL0     H13492  10.193   8.631   1.702  2.0208  2.7696 -3.2887
  841MOL0     H13493  10.254   8.923   1.752  0.4307  0.1474 -2.0346
  841MOL0     H13494  10.326   8.811   1.634  1.0610 -1.0656  0.1197
  841MOL0     H13495  10.455   9.012   1.682  2.0022  2.7116  0.4684
  841MOL0     H13496  10.641   9.161   1.704 -0.8398  0.0790 -0.3344
  841MOL0     H13497  11.172   8.989   2.008 -1.3285  0.8402 -0.0346
  841MOL0     H13498  11.411   9.068   1.962  0.4722  0.3854 -1.0070
  841MOL0     H13499  11.445   9.406   1.636  1.0097  0.7136  0.5201
  841MOL0     H13500  11.606   9.388   1.701 -2.9801  3.0798  4.0437
  841MOL0     H13501  11.450   9.144   1.581 -2.0634  1.6196  0.4620
  841MOL0     H13502  11.552   9.245   1.474  1.1936 -2.6219 -0.8045
  841MOL0     H13503  11.738   9.213   1.633  0.6311 -0.5920 -1.2547
  841MOL0     H13504  11.640   9.086   1.719  0.5997  2.2313  1.4877
  841MOL0     H13505  11.757   9.093   1.438  2.0217 -3.2143 -1.1072
  841MOL0     H13506  11.624   8.983   1.490 -1.2191  0.9858  0.7632
  841MOL0     H13507  11.759   8.858   1.627  1.3764 -1.9230  0.0758
  841MOL0     H13508  11.877   8.999   1.643  0.8697  1.8653 -1.8467
  841MOL0     H13509  11.941   8.945   1.407 -1.8386  1.3978  0.9954
  841MOL0     H13510  11.981   8.812   1.515 -0.5572  1.2508  2.5780
  841MOL0     H13511  11.728   8.804   1.333 -0.1940  3.1040  2.5586
  841MOL0     H13512  11.784   8.687   1.445 -0.9897 -0.2492 -0.6214
  841MOL0     H13513  11.973   8.800   1.230  0.1696  0.1709 -0.1284
  841MOL0     H13514  11.985   8.638   1.309 -0.6614  0.5917  2.5286
  841MOL0     H13515  11.243   9.360   1.678  0.0117 -1.5941 -2.4342
  841MOL0     H13516  11.036   9.267   1.713 -1.0249  0.9416  0.6122
  841MOL0     H13517  10.807   8.884   2.005  2.4475  2.3173 -0.7675
  841MOL0     H13518  10.573   8.777   2.016  1.9348 -0.1824  0.3112
  841MOL0     H13519   9.308   8.612   3.151  1.0981  0.3342  0.4364
  841MOL0     H13520   9.232   8.402   3.231 -1.6121 -1.2908  1.0369
  841MOL0     H13521   9.049   7.984   3.064  0.1662 -1.1042 -0.5346
  841MOL0     H13522   8.983   7.764   3.126 -0.1408 -1.0278 -0.4043
  841MOL0     H13523   8.611   7.750   3.219  0.9206  2.8847  3.0645
  841MOL0     H13524   8.619   7.600   3.313 -1.5055  2.0082  0.5182
  841MOL0     H13525   8.776   7.511   3.137  0.6709  0.9678 -1.5784
  841MOL0     H13526   8.715   7.637   3.035  1.1633 -0.7878  0.0233
  841MOL0     H13527   8.555   7.413   3.155  1.8864 -1.3698 -1.8742
  841MOL0     H13528   8.588   7.447   2.988  0.1325 -1.0379  0.3531
  841MOL0     H13529   8.406   7.601   3.158  1.1694  0.3732  1.3075
  841MOL0     H13530   8.473   7.684   3.008 -2.0843 -0.0470 -1.1704
  841MOL0     H13531   8.226   7.360   2.865 -1.8420 -0.5548  1.2223
  841MOL0     H13532   8.688   7.912   3.399  0.2325 -2.1241 -0.3985
  841MOL0     H13533   8.654   8.211   3.292 -1.8169 -0.6334  1.3073
  841MOL0     H13534   8.680   8.151   3.448 -1.0302 -3.1125 -2.0202
  841MOL0     H13535   8.807   8.262   3.369 -2.0979  1.7659 -1.7044
  842MOL0     O13536   4.667   6.669   2.895  0.2651  0.5133 -0.3727
  842MOL0     C13537   4.611   6.603   2.812 -0.3568  0.4182  0.1067
  842MOL0     O13538   4.671   6.563   2.691  0.7668  0.8891 -0.4651
  842MOL0     C13539   4.781   6.631   2.645  0.2321  0.9197  0.4916
  842MOL0     C13540   4.905   6.575   2.637  0.0132  0.2940 -0.2681
  842MOL0     C13541   5.024   6.656   2.612  1.0887  0.5692 -0.7497
  842MOL0     C13542   5.007   6.794   2.574  0.2412  0.2246  0.0759
  842MOL0     O13543   5.100   6.878   2.525 -0.1189 -1.2797  0.9325
  842MOL0     C13544   5.237   6.830   2.519  0.3374  0.9636 -0.3493
  842MOL0     C13545   5.347   6.924   2.476  0.1396 -0.6729 -0.2100
  842MOL0     C13546   5.491   6.870   2.483  0.6683  0.6938  0.9677
  842MOL0     C13547   5.528   6.811   2.356 -0.2860  0.5405  0.3286
  842MOL0     C13548   5.659   6.730   2.369 -0.3612  0.3925 -0.2258
  842MOL0     C13549   5.720   6.670   2.240 -0.1682 -0.7334  0.1292
  842MOL0     C13550   5.638   6.575   2.157  0.5545  0.2004 -1.1313
  842MOL0     C13551   5.645   6.431   2.218  0.5487  0.3808 -0.4473
  842MOL0     N13552   5.572   6.334   2.135  0.3076  0.1581  1.1642
  842MOL0     C13553   5.438   6.317   2.129 -0.1402  0.1786 -0.0507
  842MOL0     C13554   5.416   6.257   2.013  0.7547  0.6449 -0.1107
  842MOL0     C13555   5.278   6.232   1.948 -0.2017 -0.7754 -0.6251
  842MOL0     C13556   5.206   6.125   2.031 -0.1818  1.0877 -0.2447
  842MOL0     C13557   5.081   6.062   1.959  0.1908  0.1356 -1.0013
  842MOL0     C13558   4.985   5.981   2.045  0.3070  0.2958 -0.9388
  842MOL0     O13559   5.038   5.855   2.090 -0.2099  0.1298  0.0877
  842MOL0     C13560   4.960   5.761   2.142  0.6308 -0.1925 -0.3135
  842MOL0     C13561   4.831   5.803   2.193 -0.1184  0.5268 -0.1930
  842MOL0     C13562   4.729   5.714   2.242  0.4990  0.3285  0.2067
  842MOL0     C13563   4.763   5.575   2.228 -0.1410 -0.5164  0.0138
  842MOL0     C13564   4.663   5.476   2.268 -0.6565  0.4941  0.0500
  842MOL0     O13565   4.534   5.509   2.232 -0.9256  0.2284 -0.0868
  842MOL0     C13566   4.441   5.413   2.215  0.1560 -0.2860 -0.1030
  842MOL0     C13567   4.418   5.314   2.311  0.2864 -0.2923 -0.0820
  842MOL0     C13568   4.324   5.214   2.284  0.1773 -0.1452 -0.2183
  842MOL0     C13569   4.260   5.207   2.166  0.6769  0.5047  0.8750
  842MOL0     O13570   4.153   5.121   2.140 -0.6211  0.3971 -0.4541
  842MOL0     C13571   4.146   5.004   2.221 -0.5402 -0.6147  0.1767
  842MOL0     C13572   4.022   4.923   2.206  0.2256 -0.2049 -0.0275
  842MOL0     C13573   4.031   4.855   2.067 -0.6646  0.0893 -0.5057
  842MOL0     C13574   4.170   4.819   2.001 -0.0741 -0.1395 -0.0652
  842MOL0     C13575   4.151   4.715   1.896  0.1760 -0.3403 -0.4282
  842MOL0     C13576   4.246   4.717   1.769 -0.0197 -0.1832 -0.5499
  842MOL0     C13577   4.397   4.728   1.816 -0.9753  0.1535  0.3937
  842MOL0     C13578   4.491   4.760   1.702  0.0295 -0.0653 -0.3298
  842MOL0    Cl13579   4.449   4.931   1.632 -0.3583 -0.1908  0.3064
  842MOL0     C13580   4.284   5.307   2.067 -0.5712 -0.0018 -0.4967
  842MOL0     C13581   4.377   5.403   2.095  0.5195  0.7250  0.2869
  842MOL0     O13582   4.707   5.366   2.302  0.0328  0.4146  0.5478
  842MOL0     C13583   4.897   5.535   2.192  0.1031  0.3338  0.8225
  842MOL0     C13584   4.992   5.629   2.144 -0.7502  1.5520 -0.0228
  842MOL0     N13585   5.533   6.234   1.940 -0.1737 -0.6816 -0.8069
  842MOL0     N13586   5.628   6.277   2.018 -0.9994 -0.4465  0.4017
  842MOL0     C13587   4.880   6.843   2.576  0.2240  0.2498  0.3007
  842MOL0     C13588   4.774   6.768   2.621 -0.1800  0.2037 -0.5402
  842MOL0     C13589   4.484   6.517   2.849 -0.3061 -0.0266 -0.6042
  842MOL0     C13590   4.404   6.473   2.744 -0.6227 -0.2677 -0.1716
  842MOL0     C13591   4.300   6.390   2.770  0.1469  0.3059  0.7758
  842MOL0     C13592   4.261   6.360   2.897  0.3853  0.2552 -0.7418
  842MOL0     O13593   4.160   6.262   2.908 -0.2270 -0.9446 -0.3119
  842MOL0     C13594   4.128   6.222   3.038  0.9503  0.6405 -0.2586
  842MOL0     C13595   4.002   6.141   3.023 -0.5419  0.1793 -0.5327
  842MOL0     C13596   4.022   6.006   2.948  0.3485  0.1790 -0.2303
  842MOL0     C13597   3.882   5.943   2.918  0.4237  0.6513 -0.1045
  842MOL0     C13598   3.863   5.799   2.902 -0.1360  0.5703 -0.8347
  842MOL0     C13599   3.834   5.682   2.884  0.7617  0.2473 -0.8560
  842MOL0     C13600   4.334   6.406   3.005 -0.8708  0.1397 -0.2926
  842MOL0     C13601   4.443   6.499   2.984  0.0105  0.9933  0.1165
  842MOL0     C13602   4.509   6.553   3.101 -0.0344 -0.7084  0.2344
  842MOL0     H13603   4.897   6.467   2.647 -2.1710  0.3296 -1.1191
  842MOL0     H13604   5.122   6.612   2.623  0.4306 -0.6361  0.6574
  842MOL0     H13605   5.258   6.818   2.626  1.8044  1.4231 -0.5701
  842MOL0     H13606   5.242   6.736   2.463 -0.8754  1.0350 -0.5950
  842MOL0     H13607   5.337   7.014   2.538 -0.0635 -3.2113  3.7977
  842MOL0     H13608   5.321   6.959   2.376  3.7682  0.9881 -0.7142
  842MOL0     H13609   5.496   6.798   2.566  1.6322 -0.0648  0.2736
  842MOL0     H13610   5.566   6.944   2.509  2.4690 -0.5993 -0.3147
  842MOL0     H13611   5.446   6.743   2.329  0.1386  0.2860 -0.3433
  842MOL0     H13612   5.546   6.888   2.281  1.9426  2.3184  2.5315
  842MOL0     H13613   5.744   6.786   2.408  2.5433 -1.6203 -3.0966
  842MOL0     H13614   5.635   6.647   2.435 -2.7202 -0.5156 -2.0643
  842MOL0     H13615   5.766   6.741   2.172 -0.7615 -0.3734  0.0928
  842MOL0     H13616   5.804   6.609   2.274  0.7870 -0.7809 -2.1535
  842MOL0     H13617   5.681   6.563   2.057  1.0272 -0.7364 -0.8267
  842MOL0     H13618   5.535   6.612   2.149 -0.0823 -1.5838 -1.6948
  842MOL0     H13619   5.751   6.406   2.227 -0.1268 -2.2640  1.7626
  842MOL0     H13620   5.601   6.422   2.318 -0.4104 -0.1354 -0.8927
  842MOL0     H13621   5.364   6.360   2.195 -0.8638  1.7803 -1.8165
  842MOL0     H13622   5.221   6.326   1.947 -2.9390 -2.3106  0.4651
  842MOL0     H13623   5.296   6.202   1.845  4.0142  2.3981 -1.0580
  842MOL0     H13624   5.277   6.046   2.057 -0.4773  1.5621  2.2233
  842MOL0     H13625   5.177   6.178   2.122  1.3382  3.0759 -0.8368
  842MOL0     H13626   5.129   6.001   1.882 -0.6117 -1.2999 -0.4090
  842MOL0     H13627   5.010   6.133   1.916 -3.9999 -3.5835 -0.8656
  842MOL0     H13628   4.895   5.958   1.987  1.5167 -0.3495 -2.6486
  842MOL0     H13629   4.960   6.031   2.139 -2.6223  2.4873 -2.6969
  842MOL0     H13630   4.788   5.903   2.184 -1.2839  0.2482  1.7322
  842MOL0     H13631   4.630   5.750   2.268 -1.5591 -1.8585 -3.6455
  842MOL0     H13632   4.466   5.319   2.408 -0.0164  1.6734  0.0221
  842MOL0     H13633   4.288   5.162   2.372 -0.2432  1.0952  0.3656
  842MOL0     H13634   4.233   4.939   2.208  0.6645  0.2671  2.9766
  842MOL0     H13635   4.137   5.035   2.326 -1.8540  2.6111 -0.7600
  842MOL0     H13636   4.017   4.848   2.285  1.5242  0.8170  1.0864
  842MOL0     H13637   3.937   4.989   2.223  0.5272  0.1610  0.0677
  842MOL0     H13638   3.968   4.766   2.081 -1.1547  0.6607  1.1594
  842MOL0     H13639   3.968   4.915   2.002 -1.5017 -1.1467 -0.8761
  842MOL0     H13640   4.246   4.768   2.061  2.9131  1.6439 -2.1300
  842MOL0     H13641   4.214   4.912   1.964 -2.2358  1.0736  0.2084
  842MOL0     H13642   4.054   4.738   1.850 -1.0682 -0.6898  1.8683
  842MOL0     H13643   4.163   4.622   1.952 -0.4193 -1.2238 -1.7149
  842MOL0     H13644   4.234   4.630   1.704  1.6058  1.6913 -3.6313
  842MOL0     H13645   4.218   4.814   1.727 -1.3956  0.7143  2.2097
  842MOL0     H13646   4.438   4.629   1.837 -1.6080  0.2921  2.6093
  842MOL0     H13647   4.419   4.790   1.904  5.4433 -0.4636 -0.2643
  842MOL0     H13648   4.598   4.751   1.725  0.2783  2.6181 -0.1280
  842MOL0     H13649   4.462   4.685   1.627  0.0316  1.1164 -1.5576
  842MOL0     H13650   4.224   5.316   1.977  0.0780 -1.8329 -1.1544
  842MOL0     H13651   4.380   5.492   2.032  0.5434  0.1106 -0.6042
  842MOL0     H13652   4.920   5.429   2.184 -1.5752  0.1096 -2.2005
  842MOL0     H13653   5.089   5.605   2.101 -1.1771 -0.9303  0.2504
  842MOL0     H13654   4.859   6.944   2.542 -4.1851 -1.0245 -1.5500
  842MOL0     H13655   4.682   6.822   2.640  0.3993  0.0713  3.7678
  842MOL0     H13656   4.429   6.518   2.649  0.2338  0.5463  0.4212
  842MOL0     H13657   4.251   6.340   2.687  3.2159  2.1454 -2.4085
  842MOL0     H13658   4.093   6.313   3.087 -1.6856  0.1039 -0.9968
  842MOL0     H13659   4.208   6.185   3.104  0.6039 -4.1016 -2.0739
  842MOL0     H13660   3.924   6.202   2.976 -1.6001 -1.1738 -0.5692
  842MOL0     H13661   3.959   6.119   3.121 -0.4134 -0.3205 -0.5878
  842MOL0     H13662   4.076   5.929   3.005 -0.8160 -1.8019 -1.6996
  842MOL0     H13663   4.073   6.038   2.857  2.0089  1.1454  0.9702
  842MOL0     H13664   3.814   5.978   2.995  2.2178 -1.8775  2.8593
  842MOL0     H13665   3.863   5.966   2.812  3.3255 -0.8398 -1.0744
  842MOL0     H13666   3.802   5.581   2.865 -2.2244  0.9725 -0.1924
  842MOL0     H13667   4.332   6.372   3.108  4.5730 -2.7335 -0.8096
  842MOL0     H13668   4.456   6.542   3.196 -0.7961 -1.4260 -0.2629
  842MOL0     H13669   4.608   6.507   3.104  1.1473  1.6065 -0.6654
  842MOL0     H13670   4.520   6.662   3.091 -0.6504 -0.5991  0.6380
  843MOL0     O13671   8.479   5.316   5.638 -0.0068  0.5271 -0.0343
  843MOL0     C13672   8.490   5.440   5.632  0.1371  0.4922 -0.0500
  843MOL0     O13673   8.606   5.504   5.649  0.8611  0.0610 -0.8401
  843MOL0     C13674   8.717   5.433   5.611  0.5173 -0.0019 -0.7800
  843MOL0     C13675   8.802   5.409   5.714 -0.9761 -0.0416 -0.1732
  843MOL0     C13676   8.926   5.340   5.681 -0.9927  0.2009  0.0642
  843MOL0     C13677   8.957   5.298   5.549  0.3071  0.2855  0.0348
  843MOL0     O13678   9.065   5.235   5.492  0.3711 -0.1552 -0.9224
  843MOL0     C13679   9.175   5.193   5.581 -0.8532  0.3748  0.5660
  843MOL0     C13680   9.296   5.155   5.502  0.3512  0.0809 -0.3739
  843MOL0     C13681   9.381   5.278   5.454 -0.2849  0.7389 -0.1900
  843MOL0     C13682   9.519   5.243   5.399  0.0444  0.5774  0.3591
  843MOL0     C13683   9.606   5.369   5.380  0.3127 -0.1990 -0.0434
  843MOL0     C13684   9.554   5.443   5.254 -0.9845 -0.0655 -0.4858
  843MOL0     C13685   9.632   5.573   5.244 -0.8170 -0.6975 -0.5905
  843MOL0     C13686   9.598   5.652   5.117  0.9334 -0.8550 -0.2475
  843MOL0     N13687   9.590   5.565   4.994  0.6251  0.1756  0.1831
  843MOL0     C13688   9.699   5.544   4.921  1.1926  0.0926 -1.1073
  843MOL0     C13689   9.660   5.476   4.819  0.9041 -0.4053  0.3098
  843MOL0     C13690   9.741   5.435   4.699  0.4855 -0.0306  0.7438
  843MOL0     C13691   9.753   5.546   4.590  0.2233 -0.1344 -0.1185
  843MOL0     C13692   9.830   5.679   4.626  0.5908 -0.2537  0.1910
  843MOL0     C13693   9.965   5.648   4.687 -0.2105 -0.1533  0.1862
  843MOL0     O13694  10.042   5.553   4.604 -0.2396 -0.2341  0.1801
  843MOL0     C13695  10.180   5.551   4.619  0.6927  0.0840 -0.4909
  843MOL0     C13696  10.254   5.476   4.531 -0.0723 -0.8259  0.1903
  843MOL0     C13697  10.388   5.452   4.532 -0.7261 -0.7421 -0.6273
  843MOL0     C13698  10.455   5.503   4.653  0.1258 -0.3406  1.4785
  843MOL0     C13699  10.603   5.488   4.659 -0.0829 -0.4119  0.4848
  843MOL0     O13700  10.665   5.398   4.589 -0.3678  0.2969  0.6394
  843MOL0     C13701  10.803   5.392   4.584  1.5185  0.1460  0.6072
  843MOL0     C13702  10.869   5.456   4.476  0.2336  0.0229 -0.0281
  843MOL0     C13703  11.006   5.464   4.471  0.1032 -0.5463 -0.1315
  843MOL0     C13704  11.081   5.412   4.585 -0.0034 -0.1030 -0.3018
  843MOL0     O13705  11.215   5.434   4.590 -0.6833  0.3957  0.4962
  843MOL0     C13706  11.284   5.444   4.719 -0.5039  0.9701 -0.6929
  843MOL0     C13707  11.440   5.479   4.687 -0.0051 -0.0798 -0.9713
  843MOL0     C13708  11.519   5.534   4.805  0.1437  0.3199  0.6318
  843MOL0     C13709  11.658   5.575   4.756 -0.4263  0.4618 -0.1172
  843MOL0     C13710  11.760   5.579   4.872 -0.3284 -0.9364  0.6198
  843MOL0     C13711  11.730   5.661   5.002 -0.3537  0.3338  0.3584
  843MOL0     C13712  11.857   5.667   5.089  0.4810  0.1274 -0.3216
  843MOL0     C13713  11.945   5.782   5.041 -0.1665 -0.3151 -0.3332
  843MOL0    Cl13714  11.844   5.932   5.073  0.2705  0.2128  0.2930
  843MOL0     C13715  11.014   5.356   4.696  0.9837 -0.3206  0.2182
  843MOL0     C13716  10.871   5.349   4.698 -0.3470 -0.4073  0.8573
  843MOL0     O13717  10.655   5.567   4.738  0.2845  0.0335  0.2248
  843MOL0     C13718  10.384   5.569   4.754  0.3206  0.2559 -0.1143
  843MOL0     C13719  10.246   5.591   4.729  0.1445 -0.0391 -0.6709
  843MOL0     N13720   9.526   5.457   4.818  0.1770 -0.4864  0.5550
  843MOL0     N13721   9.480   5.515   4.926  0.4408 -0.3380 -0.0705
  843MOL0     C13722   8.857   5.313   5.451 -1.2140 -0.4573 -0.7612
  843MOL0     C13723   8.742   5.386   5.487 -0.4940 -0.1156  0.2237
  843MOL0     C13724   8.370   5.519   5.587  0.0306 -1.3092 -0.2147
  843MOL0     C13725   8.386   5.651   5.553 -0.5444  0.1671  0.5018
  843MOL0     C13726   8.285   5.734   5.509  0.3391  0.5044 -0.2218
  843MOL0     C13727   8.147   5.688   5.514 -0.8469  0.3654 -0.2869
  843MOL0     O13728   8.035   5.759   5.475 -0.1965 -0.0076 -0.8138
  843MOL0     C13729   8.056   5.869   5.385  0.3036  0.0160  0.7090
  843MOL0     C13730   8.082   5.814   5.248 -0.8857  0.7978 -0.2434
  843MOL0     C13731   8.136   5.925   5.152  0.2534 -1.2137 -0.3700
  843MOL0     C13732   8.014   6.019   5.104 -0.3074 -0.3971 -0.8105
  843MOL0     C13733   7.937   5.946   5.006  0.6142 -0.3902  0.1896
  843MOL0     C13734   7.857   5.884   4.940  0.8754  0.4589  0.2848
  843MOL0     C13735   8.129   5.559   5.570 -0.6180  0.5287  0.8251
  843MOL0     C13736   8.238   5.472   5.593  0.0251  0.4810 -0.1293
  843MOL0     C13737   8.194   5.331   5.615  0.0050  0.0570  1.3435
  843MOL0     H13738   8.790   5.458   5.810 -0.9549 -0.3828  0.0056
  843MOL0     H13739   8.992   5.325   5.766  1.4100  1.5271 -1.4466
  843MOL0     H13740   9.192   5.276   5.649 -1.0437  1.8017 -1.0500
  843MOL0     H13741   9.142   5.108   5.642 -0.2771  1.3290  2.2534
  843MOL0     H13742   9.258   5.103   5.414 -0.3696 -0.4900  0.2617
  843MOL0     H13743   9.350   5.083   5.564 -5.5823 -2.7830  2.2586
  843MOL0     H13744   9.406   5.345   5.537  1.7630 -2.1223  1.7091
  843MOL0     H13745   9.333   5.338   5.376  2.2616  0.6759 -1.9514
  843MOL0     H13746   9.567   5.158   5.448 -3.4451 -1.3993  0.6783
  843MOL0     H13747   9.508   5.202   5.298 -1.0313  0.2972  0.5778
  843MOL0     H13748   9.607   5.441   5.463 -0.2555  1.7361 -1.6310
  843MOL0     H13749   9.704   5.334   5.347 -0.3027  0.5407 -2.9452
  843MOL0     H13750   9.598   5.395   5.166 -0.2444  0.3777 -0.3743
  843MOL0     H13751   9.447   5.460   5.239 -1.3491  0.5173  2.2187
  843MOL0     H13752   9.736   5.541   5.239  0.0246  0.6385  3.8179
  843MOL0     H13753   9.613   5.633   5.334  1.0344  0.7591 -1.1201
  843MOL0     H13754   9.500   5.699   5.130  1.1821 -0.1047 -0.9714
  843MOL0     H13755   9.680   5.724   5.111  0.5747 -0.0060  3.0454
  843MOL0     H13756   9.799   5.581   4.941  2.0470 -1.5624 -2.0971
  843MOL0     H13757   9.839   5.403   4.736  1.4046  0.7314 -0.9179
  843MOL0     H13758   9.687   5.353   4.651 -2.4388  2.3428 -0.3115
  843MOL0     H13759   9.793   5.490   4.505  4.3330 -1.6123  2.4847
  843MOL0     H13760   9.653   5.582   4.564  0.6979  0.3626 -1.3160
  843MOL0     H13761   9.760   5.723   4.697  1.7192 -0.8691  1.7663
  843MOL0     H13762   9.840   5.739   4.535 -2.5920  1.8620  1.1030
  843MOL0     H13763   9.959   5.630   4.795 -0.0902  2.3818  0.6741
  843MOL0     H13764  10.024   5.740   4.692  0.0826 -0.3378  0.1496
  843MOL0     H13765  10.199   5.423   4.453 -0.7103 -1.5069  1.0871
  843MOL0     H13766  10.432   5.405   4.444  0.3935  0.1364 -0.5662
  843MOL0     H13767  10.811   5.493   4.392  1.2645  1.9020  0.0254
  843MOL0     H13768  11.055   5.512   4.387 -1.8617  2.1684  0.1095
  843MOL0     H13769  11.238   5.515   4.789  0.7694 -0.2589  1.4880
  843MOL0     H13770  11.271   5.355   4.780 -0.1733  2.3214  1.4938
  843MOL0     H13771  11.489   5.392   4.642 -0.1024  0.4128 -2.0498
  843MOL0     H13772  11.435   5.547   4.602 -1.0104 -0.0904 -0.9306
  843MOL0     H13773  11.469   5.623   4.844  0.3322  1.5503 -1.7754
  843MOL0     H13774  11.528   5.455   4.881  0.6557 -0.2195  0.0215
  843MOL0     H13775  11.651   5.673   4.706  0.0291  1.1197  1.0751
  843MOL0     H13776  11.694   5.501   4.684  0.7189  1.3510 -0.4819
  843MOL0     H13777  11.845   5.624   4.820 -1.8647 -1.1303 -2.2347
  843MOL0     H13778  11.783   5.479   4.911 -0.5273 -1.6950 -1.1269
  843MOL0     H13779  11.701   5.762   4.972  2.0996  0.7542 -0.8538
  843MOL0     H13780  11.645   5.626   5.060 -1.0641  0.4395 -0.6020
  843MOL0     H13781  11.907   5.570   5.085 -1.5639 -0.9901 -0.5690
  843MOL0     H13782  11.838   5.673   5.197  0.0899  0.1130 -0.3877
  843MOL0     H13783  12.045   5.789   5.085  0.9130  0.8062 -2.7893
  843MOL0     H13784  11.969   5.768   4.935  2.0258 -0.1517  0.0875
  843MOL0     H13785  11.060   5.314   4.785 -0.4860 -1.6113  0.4092
  843MOL0     H13786  10.813   5.293   4.771 -0.6504 -4.4716 -2.1535
  843MOL0     H13787  10.432   5.608   4.843  0.6338 -0.8645  0.2216
  843MOL0     H13788  10.194   5.638   4.812  0.2677  2.5358 -1.9502
  843MOL0     H13789   8.883   5.279   5.351 -0.0846  0.9728 -0.9787
  843MOL0     H13790   8.658   5.393   5.419 -0.5111  4.3165  0.4044
  843MOL0     H13791   8.487   5.690   5.547 -0.4177  0.5763  3.5640
  843MOL0     H13792   8.305   5.836   5.480  1.7502  0.2221 -0.3062
  843MOL0     H13793   8.136   5.939   5.412  0.7713 -0.8421  1.6232
  843MOL0     H13794   7.972   5.939   5.385  0.0952 -0.1579 -1.9658
  843MOL0     H13795   7.990   5.777   5.200 -1.8987  0.9801  1.4672
  843MOL0     H13796   8.149   5.727   5.251  0.6290  1.6618 -3.7383
  843MOL0     H13797   8.195   5.876   5.074  1.3816 -4.8627  2.4637
  843MOL0     H13798   8.195   6.001   5.203 -2.9999  0.2625  1.5679
  843MOL0     H13799   7.948   6.049   5.186 -2.6744 -0.6848 -2.5109
  843MOL0     H13800   8.061   6.109   5.065  0.9913 -0.6966 -0.0189
  843MOL0     H13801   7.788   5.821   4.889 -1.5938  2.8796  0.4248
  843MOL0     H13802   8.034   5.508   5.577  0.8524 -2.4773  0.3980
  843MOL0     H13803   8.085   5.320   5.620 -0.0625 -1.3176 -1.5183
  843MOL0     H13804   8.224   5.269   5.530 -0.9063  0.0942  0.9760
  843MOL0     H13805   8.229   5.287   5.709 -3.3287 -3.3957  1.2309
  844MOL0     O13806   2.132   2.691   8.507  0.1443 -0.2366  0.7749
  844MOL0     C13807   2.113   2.725   8.622  0.2718  0.3006  0.5729
  844MOL0     O13808   2.185   2.808   8.689 -0.2330 -0.2067  0.0601
  844MOL0     C13809   2.278   2.881   8.631 -0.5733  0.2834  0.5172
  844MOL0     C13810   2.245   2.966   8.524 -0.6014  0.4009 -0.0974
  844MOL0     C13811   2.350   3.041   8.458 -0.2365 -0.6675 -0.1201
  844MOL0     C13812   2.479   3.038   8.511  0.5091 -0.1717  0.2752
  844MOL0     O13813   2.559   3.119   8.444 -0.3698  0.6321  0.4189
  844MOL0     C13814   2.698   3.079   8.454  0.7907  0.2070 -0.1886
  844MOL0     C13815   2.727   2.936   8.401 -0.8027 -0.6675 -0.4987
  844MOL0     C13816   2.681   2.933   8.256 -0.1162  0.5076  0.1568
  844MOL0     C13817   2.699   2.792   8.206 -0.3977 -0.8156  0.7937
  844MOL0     C13818   2.639   2.781   8.065 -0.3212  0.1374  0.1374
  844MOL0     C13819   2.637   2.634   8.018  1.0107  0.7458 -0.4091
  844MOL0     C13820   2.569   2.617   7.882 -0.5704  0.0857  0.5646
  844MOL0     C13821   2.412   2.633   7.877  0.3835  0.2952 -0.5665
  844MOL0     N13822   2.365   2.587   7.741  0.4191  0.1726 -0.0574
  844MOL0     C13823   2.276   2.479   7.716  1.3541  0.1038  0.4261
  844MOL0     C13824   2.245   2.483   7.587 -1.1712  0.4636 -0.2518
  844MOL0     C13825   2.132   2.404   7.503 -0.2489 -0.3582 -0.4254
  844MOL0     C13826   2.081   2.288   7.593  0.0121  0.9288  0.3183
  844MOL0     C13827   1.965   2.206   7.526 -0.3733  0.5788  0.8109
  844MOL0     C13828   1.823   2.264   7.539 -0.6519  0.4885 -0.4092
  844MOL0     O13829   1.816   2.401   7.491 -0.3564 -0.0359 -0.3372
  844MOL0     C13830   1.706   2.480   7.490 -0.0391 -0.1731 -0.7193
  844MOL0     C13831   1.589   2.428   7.556 -0.1893 -0.2751  0.1077
  844MOL0     C13832   1.478   2.513   7.561 -0.1148 -0.4333  0.0595
  844MOL0     C13833   1.471   2.638   7.496 -0.8951 -0.0090 -0.4187
  844MOL0     C13834   1.346   2.703   7.509 -0.0758  0.7501  0.8691
  844MOL0     O13835   1.236   2.631   7.540  0.4586  0.2073 -0.2470
  844MOL0     C13836   1.116   2.697   7.544  0.0648  0.7116 -1.4117
  844MOL0     C13837   1.039   2.732   7.436  0.8420 -0.3679 -0.0582
  844MOL0     C13838   0.922   2.793   7.448  0.1584 -0.0384 -0.0063
  844MOL0     C13839   0.877   2.820   7.576  0.0130  1.0736  0.0112
  844MOL0     O13840   0.761   2.891   7.593  0.3194  0.1427 -1.1908
  844MOL0     C13841   0.757   2.997   7.501  0.1741 -0.3981 -0.9836
  844MOL0     C13842   0.643   3.086   7.546  0.3527  0.2403  0.2945
  844MOL0     C13843   0.690   3.182   7.655 -0.2812  0.2950 -0.1063
  844MOL0     C13844   0.697   3.115   7.790 -0.2855 -0.0508 -0.1676
  844MOL0     C13845   0.702   3.229   7.900 -0.8997 -0.2762  0.4649
  844MOL0     C13846   0.767   3.174   8.035 -0.1454 -0.7616  0.4838
  844MOL0     C13847   0.675   3.077   8.109 -0.6405  0.6084 -0.0012
  844MOL0     C13848   0.764   2.986   8.194 -0.1458 -0.1875 -0.5578
  844MOL0    Cl13849   0.849   2.861   8.081  0.2703 -0.1682 -0.2568
  844MOL0     C13850   0.949   2.777   7.692  0.4126  0.2669  0.4790
  844MOL0     C13851   1.074   2.721   7.678  0.1981  0.8643 -0.4475
  844MOL0     O13852   1.347   2.824   7.483 -0.2064 -0.2925 -0.0731
  844MOL0     C13853   1.585   2.685   7.431  0.2278 -0.3261  0.6777
  844MOL0     C13854   1.700   2.606   7.429 -0.0327 -0.5669  0.0421
  844MOL0     N13855   2.324   2.581   7.531  0.0540 -0.3747  0.8448
  844MOL0     N13856   2.393   2.649   7.624 -0.4935  0.5664  0.6842
  844MOL0     C13857   2.505   2.961   8.630  0.2260 -1.3634  0.4132
  844MOL0     C13858   2.394   2.893   8.687  0.1539  0.8820 -0.2877
  844MOL0     C13859   2.014   2.659   8.691  0.4675  0.4364  0.3136
  844MOL0     C13860   1.891   2.721   8.716 -0.1232  0.4074  0.1882
  844MOL0     C13861   1.792   2.649   8.780  0.3807 -0.1868  0.4213
  844MOL0     C13862   1.814   2.524   8.828  0.1613  0.2315  0.1097
  844MOL0     O13863   1.707   2.441   8.876 -0.0436  0.1690  0.1709
  844MOL0     C13864   1.579   2.503   8.910  0.4185  0.5679 -0.5252
  844MOL0     C13865   1.476   2.521   8.794  0.6856  0.6531  0.4769
  844MOL0     C13866   1.337   2.532   8.866 -0.5132 -0.0644  0.4812
  844MOL0     C13867   1.239   2.538   8.746 -1.1774  0.5772 -0.1949
  844MOL0     C13868   1.110   2.534   8.797  0.5896  0.2570  0.5392
  844MOL0     C13869   1.002   2.544   8.843  1.1533  0.2035 -0.4375
  844MOL0     C13870   1.932   2.464   8.799  0.0304  1.3288  1.1424
  844MOL0     C13871   2.037   2.524   8.729 -0.1812  0.1651 -0.5294
  844MOL0     C13872   2.157   2.446   8.689 -0.5075 -0.0113 -0.3477
  844MOL0     H13873   2.141   2.984   8.502 -1.4575 -0.2115  2.9880
  844MOL0     H13874   2.336   3.122   8.387  1.5512  0.4926  0.7891
  844MOL0     H13875   2.757   3.141   8.385 -0.7190 -0.3773 -2.1153
  844MOL0     H13876   2.743   3.110   8.549 -0.4597 -0.2352  0.5677
  844MOL0     H13877   2.677   2.868   8.471  2.1601  0.4739  3.0184
  844MOL0     H13878   2.834   2.917   8.406 -0.3945  1.3715 -0.6405
  844MOL0     H13879   2.744   2.999   8.196 -1.3900  0.2248 -1.5638
  844MOL0     H13880   2.579   2.968   8.236  0.4160  1.8846 -0.3318
  844MOL0     H13881   2.804   2.762   8.216 -0.0001 -0.0317 -0.6972
  844MOL0     H13882   2.648   2.721   8.271  0.5784 -0.1150  2.3798
  844MOL0     H13883   2.533   2.806   8.064 -0.7615 -1.5854 -0.8098
  844MOL0     H13884   2.693   2.849   7.999  0.6680  0.1938  0.9557
  844MOL0     H13885   2.739   2.595   8.010  0.9698  0.4655  0.3781
  844MOL0     H13886   2.579   2.569   8.083  0.2616  0.7647 -1.0382
  844MOL0     H13887   2.587   2.514   7.851  0.9985  0.3453  0.5242
  844MOL0     H13888   2.630   2.672   7.810 -0.8241 -0.9035 -0.4296
  844MOL0     H13889   2.368   2.570   7.954  2.5385  0.6458  1.0515
  844MOL0     H13890   2.379   2.735   7.897 -2.4407 -0.9100  1.6089
  844MOL0     H13891   2.232   2.412   7.789 -2.4437  2.8518  1.0241
  844MOL0     H13892   2.055   2.475   7.472 -0.2532 -0.2515 -0.1723
  844MOL0     H13893   2.170   2.367   7.407 -2.1377  0.7271 -1.6469
  844MOL0     H13894   2.154   2.211   7.621 -0.1441  0.2248 -1.1099
  844MOL0     H13895   2.041   2.324   7.688 -1.3594 -1.4706  0.7186
  844MOL0     H13896   1.956   2.116   7.588  0.7214 -3.4156 -4.1708
  844MOL0     H13897   1.992   2.174   7.425  1.3709  1.0696  1.0957
  844MOL0     H13898   1.781   2.264   7.640  0.1007 -0.7193 -0.0779
  844MOL0     H13899   1.763   2.195   7.480 -2.4383 -0.7072  2.6310
  844MOL0     H13900   1.583   2.338   7.615 -3.5185  0.9010  1.8438
  844MOL0     H13901   1.392   2.462   7.604  1.5603 -2.6684  0.9514
  844MOL0     H13902   1.073   2.700   7.338 -2.5022 -1.9111 -0.8708
  844MOL0     H13903   0.878   2.819   7.352 -1.6887 -1.1478  0.5028
  844MOL0     H13904   0.856   3.044   7.501 -0.1557  0.7165  3.4423
  844MOL0     H13905   0.734   2.941   7.410 -1.0887 -3.3484  1.0074
  844MOL0     H13906   0.603   3.140   7.460  2.4601  0.0158 -0.9151
  844MOL0     H13907   0.557   3.028   7.579 -0.8418  1.5326 -0.4536
  844MOL0     H13908   0.793   3.213   7.638  0.2037  0.2666  2.4424
  844MOL0     H13909   0.635   3.276   7.652  0.6169  0.9451  2.1342
  844MOL0     H13910   0.793   3.061   7.782 -0.3722 -0.1548 -0.5263
  844MOL0     H13911   0.610   3.053   7.814  0.2897 -0.3580  1.2177
  844MOL0     H13912   0.611   3.285   7.925  0.3210  1.0622  2.2008
  844MOL0     H13913   0.768   3.301   7.852  1.4131 -0.5501  2.9770
  844MOL0     H13914   0.863   3.132   8.004  0.9946  2.2009 -0.3584
  844MOL0     H13915   0.790   3.256   8.104  3.5314 -1.0944 -0.1427
  844MOL0     H13916   0.604   3.017   8.052  0.0439 -0.4648  0.2557
  844MOL0     H13917   0.611   3.141   8.171 -1.2943  2.1807 -2.1522
  844MOL0     H13918   0.842   3.039   8.249 -1.3981  0.0587  1.0609
  844MOL0     H13919   0.696   2.939   8.266  0.4003 -1.0050 -0.5633
  844MOL0     H13920   0.919   2.805   7.793  1.2410  0.0873  0.7851
  844MOL0     H13921   1.126   2.692   7.769 -2.4618 -2.8915  0.1027
  844MOL0     H13922   1.581   2.787   7.394  6.2444  0.2257  0.4642
  844MOL0     H13923   1.798   2.647   7.406 -0.6802  1.3248  0.4975
  844MOL0     H13924   2.602   2.958   8.678  0.8143  1.4400 -0.3985
  844MOL0     H13925   2.413   2.844   8.781  0.8461  2.5423  0.4773
  844MOL0     H13926   1.887   2.828   8.699  0.9857  0.0587 -2.6840
  844MOL0     H13927   1.701   2.697   8.813  1.7808  1.2793  2.3573
  844MOL0     H13928   1.586   2.596   8.968  0.2264  0.8151 -0.8997
  844MOL0     H13929   1.539   2.425   8.975  2.1828  0.3337  0.3426
  844MOL0     H13930   1.473   2.436   8.726 -2.6244  1.4717 -0.5941
  844MOL0     H13931   1.499   2.614   8.740 -1.9106  1.6144  0.9114
  844MOL0     H13932   1.325   2.627   8.918  0.0908  0.8743 -1.0222
  844MOL0     H13933   1.327   2.453   8.941  1.0693  0.9598  1.8242
  844MOL0     H13934   1.241   2.633   8.691 -2.2317  0.4743 -0.4422
  844MOL0     H13935   1.257   2.454   8.678 -1.0083 -2.3904  3.2401
  844MOL0     H13936   0.901   2.562   8.872  1.5258 -0.4506  1.4842
  844MOL0     H13937   1.949   2.361   8.829  0.7955  0.2574 -2.4874
  844MOL0     H13938   2.243   2.469   8.753 -0.0390  1.9972 -1.6181
  844MOL0     H13939   2.141   2.338   8.695  0.6236 -0.1085  2.7021
  844MOL0     H13940   2.193   2.462   8.587 -0.9343 -0.4318 -0.5725
  845MOL0     O13941   3.915   4.676   0.532  0.6587  0.4181  0.1567
  845MOL0     C13942   3.886   4.781   0.590  0.2159 -0.4062  0.7639
  845MOL0     O13943   3.791   4.870   0.545 -0.5694 -0.6298  0.2433
  845MOL0     C13944   3.695   4.824   0.458  0.2291 -0.1207 -0.0862
  845MOL0     C13945   3.689   4.880   0.330  0.6445  1.2323  0.5511
  845MOL0     C13946   3.611   4.817   0.233 -0.7906  0.2251  0.3837
  845MOL0     C13947   3.519   4.722   0.265  0.2462  0.2915 -1.1676
  845MOL0     O13948   3.450   4.664   0.163 -0.5594 -0.3331 -0.2654
  845MOL0     C13949   3.392   4.543   0.189  0.9115 -1.0687 -0.5802
  845MOL0     C13950   3.348   4.464   0.069 -0.1818  0.3327 -0.2172
  845MOL0     C13951   3.298   4.549  -0.044 -0.3767 -0.5870  0.7936
  845MOL0     C13952   3.265   4.480  -0.177  0.0552 -0.4749  0.6619
  845MOL0     C13953   3.163   4.365  -0.170 -0.1630  0.3817  0.5550
  845MOL0     C13954   3.021   4.407  -0.133  0.2998 -0.5345 -0.9168
  845MOL0     C13955   2.948   4.269  -0.111 -0.4906 -0.4966 -0.5101
  845MOL0     C13956   2.798   4.295  -0.101 -1.0013  0.3958  0.5249
  845MOL0     N13957   2.731   4.176  -0.058  0.5138 -0.8568  0.6669
  845MOL0     C13958   2.750   4.048  -0.107 -0.6430  0.3599  0.0516
  845MOL0     C13959   2.682   3.972  -0.014 -0.1375 -0.1441  0.1237
  845MOL0     C13960   2.677   3.826  -0.017 -0.4432  0.7451  0.3031
  845MOL0     C13961   2.555   3.769   0.058 -0.3024  0.4769  0.4100
  845MOL0     C13962   2.429   3.810  -0.028 -0.2525 -0.2326  0.4053
  845MOL0     C13963   2.300   3.734   0.026  0.1131 -0.8149  0.2173
  845MOL0     O13964   2.323   3.597   0.038 -0.2429 -0.2453 -0.0770
  845MOL0     C13965   2.213   3.521   0.068 -0.0727 -0.2403  0.1712
  845MOL0     C13966   2.229   3.381   0.050  0.6318 -1.3063 -0.4081
  845MOL0     C13967   2.111   3.304   0.053 -0.2973  0.6299 -0.8333
  845MOL0     C13968   1.982   3.352   0.067 -0.3334  0.4839 -0.0376
  845MOL0     C13969   1.857   3.268   0.044  0.3838  0.2091  0.5689
  845MOL0     O13970   1.730   3.338   0.051  0.3005  0.2672  0.1808
  845MOL0     C13971   1.610   3.264   0.047  0.6407 -0.3847  0.4938
  845MOL0     C13972   1.513   3.299   0.142 -0.1193  0.6557 -0.6547
  845MOL0     C13973   1.390   3.223   0.149 -0.2257  0.3148  0.3436
  845MOL0     C13974   1.378   3.110   0.064 -0.5318  0.9756 -0.7959
  845MOL0     O13975   1.254   3.042   0.074  0.0614  0.2829 -0.0783
  845MOL0     C13976   1.237   2.920   0.013 -0.2389  0.3820 -0.3128
  845MOL0     C13977   1.105   2.852   0.059  0.4352  0.3677 -0.9437
  845MOL0     C13978   0.982   2.925  -0.004 -0.3990  0.1394  0.5216
  845MOL0     C13979   0.864   2.848   0.046  0.7214  0.4400 -0.3315
  845MOL0     C13980   0.732   2.885  -0.026 -0.0172 -0.8556 -0.8236
  845MOL0     C13981   0.616   2.795   0.016  0.0768 -0.4209  0.3704
  845MOL0     C13982   0.546   2.822   0.150  0.7874 -0.4731  0.3185
  845MOL0     C13983   0.417   2.738   0.160 -0.6007 -1.0977 -0.6209
  845MOL0    Cl13984   0.342   2.787   0.318  0.0479 -0.6702  0.6302
  845MOL0     C13985   1.479   3.080  -0.033  0.1524 -0.0452 -0.8236
  845MOL0     C13986   1.598   3.157  -0.043  0.4109  0.4343  1.1947
  845MOL0     O13987   1.875   3.148   0.027  0.1140 -0.7800 -0.0272
  845MOL0     C13988   1.972   3.489   0.073 -0.7473  1.0823 -0.9757
  845MOL0     C13989   2.082   3.576   0.064 -0.1235 -0.1688 -0.3317
  845MOL0     N13990   2.643   4.063   0.090  0.4061  1.1818 -0.1086
  845MOL0     N13991   2.658   4.185   0.059 -0.1358 -0.1271  0.0832
  845MOL0     C13992   3.502   4.686   0.404  0.4821  0.3264  0.3564
  845MOL0     C13993   3.591   4.742   0.495 -0.1611 -0.1349  0.1128
  845MOL0     C13994   3.954   4.813   0.719  0.0582 -0.5787  0.0683
  845MOL0     C13995   4.010   4.701   0.791 -0.1471 -0.0502  0.4309
  845MOL0     C13996   4.074   4.715   0.921  0.4931 -0.1684  0.8673
  845MOL0     C13997   4.077   4.845   0.975  0.3316 -0.1720 -0.6037
  845MOL0     O13998   4.142   4.860   1.095 -0.2590 -0.1667 -0.7866
  845MOL0     C13999   4.145   4.992   1.155  0.0401  0.4014  0.4224
  845MOL0     C14000   4.262   5.071   1.104 -0.0049  0.3178  0.4663
  845MOL0     C14001   4.241   5.232   1.114 -0.0486  0.1446  0.8234
  845MOL0     C14002   4.344   5.308   1.198  0.5020 -0.3132  1.4592
  845MOL0     C14003   4.325   5.286   1.340 -0.6626  0.1072 -0.7006
  845MOL0     C14004   4.316   5.271   1.459 -0.3524 -0.7460  0.4162
  845MOL0     C14005   4.028   4.957   0.903  0.8965  0.1990 -0.1057
  845MOL0     C14006   3.968   4.941   0.781  0.2625 -0.1868 -0.4147
  845MOL0     C14007   3.916   5.073   0.721  0.7721 -0.9472  0.4749
  845MOL0     H14008   3.756   4.958   0.295  0.1484  1.3588 -0.1308
  845MOL0     H14009   3.617   4.843   0.128  0.0141  1.1074  0.6283
  845MOL0     H14010   3.452   4.480   0.255  1.9282  0.0879 -0.3648
  845MOL0     H14011   3.302   4.569   0.246  1.0203 -3.5681  0.8283
  845MOL0     H14012   3.275   4.391   0.106  1.6851 -2.0724 -1.0167
  845MOL0     H14013   3.439   4.411   0.039 -1.0883 -1.5492  0.2605
  845MOL0     H14014   3.374   4.625  -0.061  0.1791 -1.3752 -0.4373
  845MOL0     H14015   3.206   4.597  -0.009 -0.3425 -0.9362  1.3904
  845MOL0     H14016   3.241   4.561  -0.247  4.8800  0.8268  0.1572
  845MOL0     H14017   3.359   4.444  -0.218 -1.2495 -0.0215 -3.1215
  845MOL0     H14018   3.155   4.313  -0.266 -3.0585 -0.5230  1.1692
  845MOL0     H14019   3.200   4.295  -0.095  0.6382  4.1881  4.0711
  845MOL0     H14020   3.030   4.464  -0.041 -1.9394 -3.1823  1.1437
  845MOL0     H14021   2.983   4.468  -0.215  2.2377  1.1646 -0.6367
  845MOL0     H14022   2.984   4.217  -0.022  1.8347  2.4402  0.4359
  845MOL0     H14023   2.972   4.200  -0.193 -0.2858 -0.0765 -0.8095
  845MOL0     H14024   2.796   4.369  -0.020 -0.5504 -0.4500  1.3255
  845MOL0     H14025   2.753   4.334  -0.193 -1.9047 -0.9473  0.3709
  845MOL0     H14026   2.798   4.015  -0.198 -0.4879 -5.6082  1.8799
  845MOL0     H14027   2.675   3.784  -0.118  1.3457 -0.8055  0.8418
  845MOL0     H14028   2.771   3.789   0.025 -0.6149 -0.0701  0.0031
  845MOL0     H14029   2.567   3.661   0.069 -0.7381  0.5283  1.4637
  845MOL0     H14030   2.564   3.808   0.159  2.1636  3.2589 -0.7119
  845MOL0     H14031   2.446   3.783  -0.133 -2.2279  0.5512 -0.1645
  845MOL0     H14032   2.412   3.918  -0.024  1.0750  0.1838 -2.4960
  845MOL0     H14033   2.226   3.761  -0.051  2.7851 -0.7255 -2.5094
  845MOL0     H14034   2.254   3.769   0.119 -4.3270 -1.5694 -1.4512
  845MOL0     H14035   2.323   3.331   0.028 -0.3711 -2.8392 -1.4097
  845MOL0     H14036   2.131   3.199   0.039  0.2187  0.7747 -1.2245
  845MOL0     H14037   1.529   3.375   0.218 -1.1742 -0.4519  0.7238
  845MOL0     H14038   1.305   3.260   0.207  0.8500  2.4999  0.6260
  845MOL0     H14039   1.248   2.929  -0.096  1.3312 -0.2968 -0.2346
  845MOL0     H14040   1.314   2.854   0.053 -0.3024  0.9443  0.7756
  845MOL0     H14041   1.113   2.749   0.023  1.6925 -0.2895  1.0242
  845MOL0     H14042   1.110   2.849   0.168  0.5924 -0.4103 -0.9676
  845MOL0     H14043   0.974   3.030   0.025 -0.6093 -0.3829  2.5233
  845MOL0     H14044   0.989   2.914  -0.112  1.0041 -1.5364  0.7337
  845MOL0     H14045   0.856   2.867   0.154  3.6530 -0.7263  0.2022
  845MOL0     H14046   0.881   2.741   0.034 -0.3803  0.2440 -0.2594
  845MOL0     H14047   0.750   2.871  -0.133 -2.0140 -0.1054 -1.3007
  845MOL0     H14048   0.712   2.990  -0.004  0.9040 -0.8155 -0.0968
  845MOL0     H14049   0.542   2.787  -0.064  1.6478 -0.1654 -1.1653
  845MOL0     H14050   0.656   2.694   0.027  0.0666 -0.8990 -2.9410
  845MOL0     H14051   0.520   2.928   0.159  1.8576 -0.2478  0.8600
  845MOL0     H14052   0.613   2.800   0.233  2.2468  0.7548 -0.4766
  845MOL0     H14053   0.342   2.753   0.082  3.0952  0.2918 -4.2235
  845MOL0     H14054   0.452   2.634   0.157  0.9454 -0.6282  0.2105
  845MOL0     H14055   1.474   2.990  -0.092  0.5521  0.7632 -2.1431
  845MOL0     H14056   1.674   3.137  -0.118 -1.1637 -1.1558 -0.0581
  845MOL0     H14057   1.879   3.545   0.074 -1.6129 -0.3216 -0.8387
  845MOL0     H14058   2.067   3.684   0.055  1.0383  0.1916  1.4038
  845MOL0     H14059   3.436   4.609   0.443  1.0743 -2.1923 -3.1473
  845MOL0     H14060   3.574   4.718   0.600 -0.5144  0.2973  0.1534
  845MOL0     H14061   3.996   4.600   0.755 -1.4180  0.6410 -1.1522
  845MOL0     H14062   4.121   4.623   0.955  1.4913 -0.3870 -0.9771
  845MOL0     H14063   4.135   4.988   1.264 -2.2577  0.2055  0.2499
  845MOL0     H14064   4.051   5.045   1.135 -0.5739  0.4558  3.0320
  845MOL0     H14065   4.267   5.043   0.998  0.6605 -2.1602  1.0756
  845MOL0     H14066   4.350   5.028   1.152  1.0017  1.1489 -0.5712
  845MOL0     H14067   4.141   5.262   1.145 -0.0181  2.1791 -0.8469
  845MOL0     H14068   4.252   5.277   1.015  0.8389 -0.1977  0.7584
  845MOL0     H14069   4.445   5.285   1.163  0.6059  4.7121 -2.8577
  845MOL0     H14070   4.339   5.415   1.173  0.2536  0.1486  3.3059
  845MOL0     H14071   4.309   5.266   1.566 -0.4554 -0.0384  0.4456
  845MOL0     H14072   4.033   5.062   0.929  1.6182 -0.0961  1.0032
  845MOL0     H14073   3.819   5.106   0.758  1.2858  1.4592 -0.1643
  845MOL0     H14074   3.981   5.158   0.745  1.4248 -1.3026  0.0127
  845MOL0     H14075   3.930   5.060   0.614  1.7843 -1.4152  0.6480
  846MOL0     O14076  10.883   9.120   7.871  0.5823  1.2879 -0.3103
  846MOL0     C14077  10.800   9.114   7.964  0.4764 -0.0123 -0.7602
  846MOL0     O14078  10.821   9.046   8.087 -0.1472 -0.0077 -0.1885
  846MOL0     C14079  10.925   8.951   8.097 -0.1908 -0.9047 -0.0496
  846MOL0     C14080  11.007   8.959   8.214 -0.8735 -0.5687  0.1563
  846MOL0     C14081  11.101   8.862   8.252  0.3537 -0.5200  0.9567
  846MOL0     C14082  11.112   8.755   8.162 -0.9285 -0.4792  0.4710
  846MOL0     O14083  11.215   8.658   8.171  0.3888 -0.4421 -0.2599
  846MOL0     C14084  11.296   8.641   8.284 -0.7626 -0.7717  0.4074
  846MOL0     C14085  11.227   8.538   8.377  0.0916 -0.7803  0.4044
  846MOL0     C14086  11.332   8.466   8.465  0.8394 -0.2841  0.0992
  846MOL0     C14087  11.340   8.317   8.455 -0.5557 -0.1668 -1.2336
  846MOL0     C14088  11.482   8.272   8.451  0.4101  0.2411 -0.8747
  846MOL0     C14089  11.501   8.122   8.470  0.5137 -1.1172  0.9213
  846MOL0     C14090  11.452   8.054   8.345 -0.2470 -0.1115  0.9751
  846MOL0     C14091  11.525   8.062   8.208 -0.1367  0.6864  0.0978
  846MOL0     N14092  11.668   8.015   8.205  0.4340  0.1545 -0.4341
  846MOL0     C14093  11.696   7.894   8.267  0.9082  0.6707  0.2480
  846MOL0     C14094  11.813   7.864   8.210 -0.4657  0.4079 -0.3633
  846MOL0     C14095  11.896   7.743   8.222  0.8239 -0.4870 -0.1513
  846MOL0     C14096  11.912   7.673   8.089 -0.5618 -0.3211 -0.2894
  846MOL0     C14097  11.959   7.530   8.099 -0.4038 -0.3835 -0.6332
  846MOL0     C14098  11.935   7.458   7.972 -0.1428  0.1978 -0.0913
  846MOL0     O14099  12.006   7.516   7.862  0.3121 -0.0769  0.7548
  846MOL0     C14100  12.058   7.443   7.763 -0.7607  0.0421  1.0915
  846MOL0     C14101  12.151   7.506   7.680 -0.5923  0.5591  0.1887
  846MOL0     C14102  12.211   7.436   7.580 -0.1069 -0.1627 -0.0929
  846MOL0     C14103  12.169   7.307   7.547 -0.5729  0.3606 -0.3211
  846MOL0     C14104  12.242   7.222   7.460 -0.3999 -0.3687  0.8251
  846MOL0     O14105  12.207   7.099   7.425  0.5972  0.0188 -0.6783
  846MOL0     C14106  12.282   7.040   7.335 -0.5591  0.3669  0.4403
  846MOL0     C14107  12.239   7.022   7.206  0.3706 -0.4749 -0.1575
  846MOL0     C14108  12.306   6.930   7.120  0.1265  0.4104  0.3880
  846MOL0     C14109  12.425   6.884   7.151 -0.0995 -0.1455  0.0460
  846MOL0     O14110  12.503   6.835   7.049  0.0539 -0.4583 -0.5830
  846MOL0     C14111  12.595   6.731   7.084 -0.8796  0.7936 -0.7675
  846MOL0     C14112  12.700   6.713   6.972  1.1637  0.2905  0.4391
  846MOL0     C14113  12.635   6.693   6.838  0.3799 -0.4378  0.2117
  846MOL0     C14114  12.732   6.708   6.731 -0.4927  0.5521 -0.6259
  846MOL0     C14115  12.665   6.742   6.595 -0.9583 -0.3241 -0.4264
  846MOL0     C14116  12.573   6.630   6.548  0.0417  0.0759  0.0141
  846MOL0     C14117  12.535   6.659   6.405 -0.0780  0.2945 -0.1216
  846MOL0     C14118  12.457   6.540   6.335  0.2626  0.2203 -0.3752
  846MOL0    Cl14119  12.404   6.571   6.176  0.5323 -0.6575  0.4082
  846MOL0     C14120  12.471   6.911   7.279 -0.0386 -0.1308  0.3334
  846MOL0     C14121  12.400   6.980   7.374  0.6422 -0.1863  0.8648
  846MOL0     O14122  12.340   7.281   7.406  0.6091  0.0351 -0.5574
  846MOL0     C14123  12.064   7.255   7.621 -0.6208  0.2874 -0.6165
  846MOL0     C14124  12.013   7.315   7.735  0.4462  1.3864 -0.2527
  846MOL0     N14125  11.860   7.962   8.122  0.3019 -0.5974  0.1055
  846MOL0     N14126  11.769   8.062   8.125  0.4371  0.2714  0.7802
  846MOL0     C14127  11.032   8.744   8.049 -0.7792 -0.1237 -0.0409
  846MOL0     C14128  10.940   8.837   8.024 -0.1086 -0.0471 -0.0333
  846MOL0     C14129  10.679   9.202   7.950 -0.5201  0.4189  0.2215
  846MOL0     C14130  10.629   9.228   7.817 -0.9604 -0.4327 -0.1538
  846MOL0     C14131  10.520   9.306   7.789  0.4217  0.2812 -0.4223
  846MOL0     C14132  10.439   9.362   7.889 -0.2430 -0.0507  0.2273
  846MOL0     O14133  10.336   9.437   7.852  0.2345  0.4051  0.0868
  846MOL0     C14134  10.300   9.542   7.951 -0.2352  0.2960 -0.6079
  846MOL0     C14135  10.189   9.631   7.902 -0.4670 -0.6399  0.0623
  846MOL0     C14136  10.156   9.760   7.971  0.3398  0.3490 -0.6749
  846MOL0     C14137  10.106   9.869   7.877 -0.2266 -0.0772 -0.5620
  846MOL0     C14138  10.090  10.002   7.943  1.1124 -0.3405  0.6238
  846MOL0     C14139  10.060  10.104   8.009 -0.0351 -0.3042  0.0963
  846MOL0     C14140  10.478   9.324   8.020  1.0338  0.1955 -0.3174
  846MOL0     C14141  10.600   9.262   8.048 -0.1187 -0.1834 -1.8933
  846MOL0     C14142  10.624   9.247   8.198 -0.3213  0.4025 -0.1640
  846MOL0     H14143  10.978   9.033   8.288  3.0433  2.0252 -0.6301
  846MOL0     H14144  11.158   8.874   8.344 -0.0807  0.5011  1.1057
  846MOL0     H14145  11.396   8.610   8.252 -0.3828  1.0119 -0.2327
  846MOL0     H14146  11.331   8.728   8.340  2.2264 -2.8920  2.1444
  846MOL0     H14147  11.159   8.476   8.319 -0.6467  0.9587 -0.6555
  846MOL0     H14148  11.161   8.597   8.442  1.1116  1.0335 -0.1392
  846MOL0     H14149  11.304   8.490   8.568  1.0625 -0.9986  0.3367
  846MOL0     H14150  11.427   8.509   8.435  0.0338  2.2335  0.9502
  846MOL0     H14151  11.296   8.267   8.542  0.6537 -0.8821 -1.0142
  846MOL0     H14152  11.285   8.278   8.369 -0.7351 -1.5032 -0.5395
  846MOL0     H14153  11.521   8.298   8.352  0.0511  3.3128 -0.3304
  846MOL0     H14154  11.544   8.315   8.531 -1.4128 -2.1721  2.0428
  846MOL0     H14155  11.608   8.109   8.490  1.3474 -0.3377 -2.4168
  846MOL0     H14156  11.436   8.078   8.546 -0.4882 -1.5637 -0.1691
  846MOL0     H14157  11.344   8.062   8.332 -0.1638 -1.7730 -1.4778
  846MOL0     H14158  11.452   7.948   8.374  0.8392 -1.0254 -1.9839
  846MOL0     H14159  11.486   7.993   8.132  4.4773 -3.1913  0.7680
  846MOL0     H14160  11.513   8.161   8.163 -2.0521  0.0967 -0.8230
  846MOL0     H14161  11.637   7.833   8.334  0.2076  0.1973 -0.7793
  846MOL0     H14162  11.987   7.786   8.265 -0.4894  0.8100  1.4774
  846MOL0     H14163  11.864   7.671   8.299 -0.1104 -1.1285 -1.1235
  846MOL0     H14164  11.811   7.679   8.050 -1.8241  0.6204  2.7893
  846MOL0     H14165  11.983   7.729   8.027  0.2576  0.1856  1.0516
  846MOL0     H14166  11.906   7.476   8.179 -0.3052  0.5937  0.1106
  846MOL0     H14167  12.066   7.514   8.110 -0.6440 -1.6842  0.0093
  846MOL0     H14168  11.828   7.442   7.961 -0.3898  1.3368  0.4277
  846MOL0     H14169  11.979   7.358   7.981  2.8261  1.5985  4.4697
  846MOL0     H14170  12.187   7.607   7.701  1.9531  1.0926 -4.9868
  846MOL0     H14171  12.301   7.482   7.540 -0.3206 -1.6152 -2.4565
  846MOL0     H14172  12.144   7.071   7.187 -0.2223 -1.3109  0.5342
  846MOL0     H14173  12.255   6.906   7.028 -1.5343 -2.6367  1.9554
  846MOL0     H14174  12.646   6.740   7.180  1.8076 -2.4653 -1.7018
  846MOL0     H14175  12.531   6.643   7.088  0.6671 -0.3520 -0.2829
  846MOL0     H14176  12.762   6.803   6.970  1.1060  0.3645 -2.3820
  846MOL0     H14177  12.758   6.623   6.995 -0.5436 -1.3622 -1.3257
  846MOL0     H14178  12.585   6.597   6.854 -0.2940  0.4680  5.4686
  846MOL0     H14179  12.545   6.754   6.821 -1.6997 -3.0442  1.1080
  846MOL0     H14180  12.791   6.617   6.713  1.6661  1.4770  1.3103
  846MOL0     H14181  12.803   6.785   6.762  1.8800 -2.2909  1.7091
  846MOL0     H14182  12.749   6.747   6.525 -2.0019  2.3610 -1.6209
  846MOL0     H14183  12.612   6.838   6.591  1.4517  1.0293 -2.3624
  846MOL0     H14184  12.630   6.537   6.557  1.4300  0.9785  0.9901
  846MOL0     H14185  12.495   6.610   6.621  0.0198  0.1478  0.0108
  846MOL0     H14186  12.629   6.681   6.353 -0.2488  1.0291 -0.1204
  846MOL0     H14187  12.462   6.738   6.390 -2.4208 -2.0652 -2.1222
  846MOL0     H14188  12.529   6.458   6.331 -1.7176 -1.8702  2.8392
  846MOL0     H14189  12.375   6.504   6.398 -1.3862 -0.6057 -2.8079
  846MOL0     H14190  12.565   6.871   7.317 -0.5097 -0.1116  1.5442
  846MOL0     H14191  12.423   6.987   7.480 -3.0371 -1.1238  1.8363
  846MOL0     H14192  12.022   7.155   7.609 -1.0083  0.4382 -0.5253
  846MOL0     H14193  11.948   7.263   7.806 -3.4233 -0.6633 -4.7395
  846MOL0     H14194  11.053   8.667   7.975 -1.3400 -0.1878 -0.1321
  846MOL0     H14195  10.866   8.828   7.945 -1.1570 -0.1106  0.9137
  846MOL0     H14196  10.674   9.198   7.723 -3.4578 -2.0254 -0.9435
  846MOL0     H14197  10.502   9.325   7.683 -0.0529 -0.3043 -0.4504
  846MOL0     H14198  10.383   9.607   7.980  1.0947 -1.2092 -0.8858
  846MOL0     H14199  10.271   9.496   8.046  0.4407  0.8926 -0.1076
  846MOL0     H14200  10.097   9.572   7.894  0.4582 -1.8824 -2.1483
  846MOL0     H14201  10.209   9.662   7.799 -1.2958 -0.5308 -0.0743
  846MOL0     H14202  10.245   9.796   8.022 -0.1002 -1.5845  1.6609
  846MOL0     H14203  10.078   9.747   8.047  0.3503  1.6266 -0.4348
  846MOL0     H14204  10.184   9.887   7.802  1.5885 -1.6462  0.8428
  846MOL0     H14205  10.010   9.844   7.832 -3.4975  3.7149  3.4619
  846MOL0     H14206  10.031  10.197   8.054 -0.2126  0.8483 -2.2430
  846MOL0     H14207  10.410   9.340   8.104  0.5887 -2.8695  0.0193
  846MOL0     H14208  10.731   9.248   8.216 -0.3062 -0.1596 -0.2139
  846MOL0     H14209  10.583   9.333   8.252 -2.9841  1.1298 -3.0318
  846MOL0     H14210  10.578   9.155   8.235  0.7594 -0.2178 -0.3226
  847MOL0     O14211   1.258   1.032   0.214  0.4212  0.1352  0.6602
  847MOL0     C14212   1.144   1.064   0.256 -0.2172 -0.0079  0.4998
  847MOL0     O14213   1.077   1.180   0.213  0.0824 -0.1191 -0.1416
  847MOL0     C14214   1.145   1.256   0.129 -1.0243 -0.1931  0.4261
  847MOL0     C14215   1.170   1.217  -0.008  0.3581 -0.5860 -0.0041
  847MOL0     C14216   1.237   1.311  -0.089  0.2962 -0.2632  0.5135
  847MOL0     C14217   1.292   1.437  -0.041  0.5068  0.2137 -1.2265
  847MOL0     O14218   1.354   1.531  -0.120 -0.2593 -0.0894 -0.3852
  847MOL0     C14219   1.380   1.506  -0.258  0.5150  0.6284 -0.4607
  847MOL0     C14220   1.504   1.419  -0.272  0.7509 -0.1172 -0.0101
  847MOL0     C14221   1.628   1.487  -0.224  0.4205  0.0511  0.4989
  847MOL0     C14222   1.682   1.588  -0.326  0.1602  0.8678 -0.5707
  847MOL0     C14223   1.816   1.626  -0.282  0.1406  0.0249 -0.0532
  847MOL0     C14224   1.883   1.731  -0.372 -0.0297  0.6111 -0.2289
  847MOL0     C14225   1.891   1.695  -0.522 -0.5729  0.2620 -0.0777
  847MOL0     C14226   1.931   1.819  -0.592  0.0389 -1.4608  0.3956
  847MOL0     N14227   2.063   1.862  -0.552  1.0908  0.9830  0.7235
  847MOL0     C14228   2.178   1.790  -0.591  0.9631  0.2741  0.2880
  847MOL0     C14229   2.281   1.860  -0.536 -0.0339  0.2678 -0.0335
  847MOL0     C14230   2.427   1.835  -0.550 -0.0566 -1.1436  0.0112
  847MOL0     C14231   2.490   1.887  -0.679  0.0530 -0.9560  0.3687
  847MOL0     C14232   2.429   1.831  -0.813  0.0408 -0.3792  0.2707
  847MOL0     C14233   2.442   1.681  -0.821 -0.2150  1.0224  0.8877
  847MOL0     O14234   2.360   1.631  -0.931  0.4784  0.1946  0.2376
  847MOL0     C14235   2.332   1.501  -0.932 -0.4387  0.2837  0.0457
  847MOL0     C14236   2.408   1.401  -0.872  0.6571 -0.5564 -0.2727
  847MOL0     C14237   2.382   1.267  -0.891  0.5468 -0.4823  0.0222
  847MOL0     C14238   2.278   1.232  -0.978  0.6358 -0.3722 -1.0573
  847MOL0     C14239   2.247   1.095  -0.990  0.5722  1.8011 -0.2695
  847MOL0     O14240   2.199   1.057  -1.112  0.2883  0.9711 -0.2515
  847MOL0     C14241   2.172   0.923  -1.135 -1.0428 -0.7186 -0.6943
  847MOL0     C14242   2.041   0.887  -1.162  0.0666 -0.7227  0.3316
  847MOL0     C14243   2.011   0.753  -1.187  0.0048  0.3160  0.6480
  847MOL0     C14244   2.121   0.661  -1.184  0.3978  0.3267 -0.0559
  847MOL0     O14245   2.115   0.527  -1.231 -0.1626 -0.7592 -0.1719
  847MOL0     C14246   1.996   0.449  -1.253 -0.7584  0.6232  0.6654
  847MOL0     C14247   1.903   0.433  -1.138 -0.1992  0.3196 -0.2760
  847MOL0     C14248   1.772   0.368  -1.196 -0.9283 -1.0115  0.7419
  847MOL0     C14249   1.673   0.340  -1.086  0.2810 -0.3329 -1.0452
  847MOL0     C14250   1.555   0.274  -1.161 -0.6739  0.7504 -1.6068
  847MOL0     C14251   1.450   0.222  -1.066 -0.2906  0.2580 -0.4005
  847MOL0     C14252   1.320   0.181  -1.135 -0.7691  0.7690 -0.5882
  847MOL0     C14253   1.182   0.237  -1.081  0.7567  0.2989 -1.0144
  847MOL0    Cl14254   1.133   0.154  -0.928 -0.2471  0.4226  0.4245
  847MOL0     C14255   2.251   0.701  -1.154 -0.6922  0.3270  0.2859
  847MOL0     C14256   2.282   0.836  -1.131 -0.3370 -0.2682 -0.0522
  847MOL0     O14257   2.251   1.028  -0.897  0.2193 -0.5671 -0.6409
  847MOL0     C14258   2.212   1.333  -1.050 -0.6223  0.5173  0.3138
  847MOL0     C14259   2.237   1.464  -1.024 -0.1132 -0.4276  0.4000
  847MOL0     N14260   2.229   1.963  -0.464 -0.3084  0.2878  0.3866
  847MOL0     N14261   2.101   1.968  -0.473 -0.1200  0.5203 -0.4850
  847MOL0     C14262   1.257   1.477   0.092 -0.3522 -1.1414  0.0649
  847MOL0     C14263   1.193   1.386   0.175  1.0364  0.4313  0.6347
  847MOL0     C14264   1.083   0.980   0.360  0.2430  0.5750 -0.3428
  847MOL0     C14265   0.948   0.994   0.394  0.7745  0.8188  0.3118
  847MOL0     C14266   0.880   0.921   0.499 -0.0236 -0.1250  0.1812
  847MOL0     C14267   0.943   0.814   0.569 -0.1233 -0.2747  1.4204
  847MOL0     O14268   0.890   0.727   0.660  0.1452 -0.6048 -0.3091
  847MOL0     C14269   0.763   0.762   0.708 -0.9960  0.6715 -0.5005
  847MOL0     C14270   0.698   0.662   0.794 -0.8520 -0.3940  0.5430
  847MOL0     C14271   0.760   0.655   0.934 -0.0655  0.1776  0.1953
  847MOL0     C14272   0.669   0.561   1.024 -0.5604 -0.2785 -0.2819
  847MOL0     C14273   0.725   0.574   1.160  0.5767  0.1243  0.0042
  847MOL0     C14274   0.792   0.581   1.259 -0.1749 -1.0476 -0.1271
  847MOL0     C14275   1.073   0.786   0.530 -0.7251  0.6224 -0.1919
  847MOL0     C14276   1.147   0.867   0.433  0.4405 -0.4368 -0.1623
  847MOL0     C14277   1.287   0.825   0.397 -0.1829 -0.5705 -0.2879
  847MOL0     H14278   1.135   1.122  -0.049 -1.1061  0.0686 -0.3570
  847MOL0     H14279   1.232   1.283  -0.193 -0.6052  0.3605  0.3826
  847MOL0     H14280   1.297   1.462  -0.315  1.2434  1.0496 -1.8761
  847MOL0     H14281   1.400   1.599  -0.312  2.2518  0.9449  0.6466
  847MOL0     H14282   1.501   1.395  -0.378 -1.8713  0.1667 -0.0661
  847MOL0     H14283   1.490   1.333  -0.205 -0.8739  0.2839  0.2060
  847MOL0     H14284   1.695   1.407  -0.193 -0.3973  0.5786  4.0125
  847MOL0     H14285   1.616   1.545  -0.132  2.6213  1.0428  0.2165
  847MOL0     H14286   1.696   1.546  -0.426  2.9932 -2.2431  0.9488
  847MOL0     H14287   1.623   1.679  -0.344  1.6845  1.8639 -0.7101
  847MOL0     H14288   1.797   1.670  -0.183  0.6607  2.5922 -1.0164
  847MOL0     H14289   1.875   1.535  -0.273  1.1982  0.7570  0.6786
  847MOL0     H14290   1.824   1.824  -0.368 -1.3382 -0.1572 -0.8585
  847MOL0     H14291   1.985   1.747  -0.338  0.1082 -0.0973 -0.2995
  847MOL0     H14292   1.789   1.676  -0.557 -0.0064  0.3891 -1.9304
  847MOL0     H14293   1.953   1.610  -0.551 -1.8972 -1.1292  1.0454
  847MOL0     H14294   1.933   1.808  -0.701  3.9371  0.7884  0.0795
  847MOL0     H14295   1.858   1.896  -0.568 -0.0343 -1.1031 -0.8994
  847MOL0     H14296   2.200   1.705  -0.654  0.0530  0.6708 -0.5988
  847MOL0     H14297   2.456   1.900  -0.467 -4.3637  0.3888  0.6098
  847MOL0     H14298   2.453   1.733  -0.521  0.2563 -0.6048  1.7254
  847MOL0     H14299   2.488   1.996  -0.687  2.8535 -0.9748 -2.0281
  847MOL0     H14300   2.597   1.865  -0.678  0.1690 -0.4772  2.2173
  847MOL0     H14301   2.471   1.870  -0.906 -1.9765 -2.0363 -1.4511
  847MOL0     H14302   2.323   1.853  -0.832  0.8094  1.1976 -3.0644
  847MOL0     H14303   2.408   1.635  -0.728 -0.8260  0.3395  0.3438
  847MOL0     H14304   2.547   1.654  -0.840 -0.3006  0.7826  0.7554
  847MOL0     H14305   2.495   1.419  -0.809 -0.9245  3.1350  1.1679
  847MOL0     H14306   2.431   1.192  -0.830 -2.3298 -0.9350  1.9361
  847MOL0     H14307   1.971   0.969  -1.173 -2.5933 -2.8694  0.4074
  847MOL0     H14308   1.916   0.724  -1.230  0.4679 -1.5571  0.7679
  847MOL0     H14309   1.945   0.488  -1.342  0.0348  0.0165 -0.0777
  847MOL0     H14310   2.039   0.351  -1.276 -0.5456  0.8778 -0.0551
  847MOL0     H14311   1.957   0.376  -1.062 -1.1172  1.3052  1.1733
  847MOL0     H14312   1.877   0.531  -1.096 -0.1793  1.8023 -3.4290
  847MOL0     H14313   1.723   0.441  -1.260 -1.4030  0.8391  3.0558
  847MOL0     H14314   1.806   0.275  -1.242  1.1924  0.0591  0.0173
  847MOL0     H14315   1.624   0.422  -1.033  1.9306 -0.8060  1.3759
  847MOL0     H14316   1.726   0.276  -1.015 -1.4789  0.3042  0.9612
  847MOL0     H14317   1.595   0.187  -1.213 -0.8547 -0.1964 -0.2193
  847MOL0     H14318   1.510   0.340  -1.236  2.2909  0.9877 -3.3553
  847MOL0     H14319   1.486   0.135  -1.010 -1.1872 -0.3135 -0.6882
  847MOL0     H14320   1.419   0.307  -1.004  1.0826  1.4938 -1.3451
  847MOL0     H14321   1.310   0.072  -1.145  0.8273  0.5357  0.1753
  847MOL0     H14322   1.328   0.228  -1.234  1.3406 -2.2876 -2.0422
  847MOL0     H14323   1.177   0.345  -1.070 -1.5705  0.1750 -0.3595
  847MOL0     H14324   1.107   0.212  -1.157  0.3138  1.0937 -0.8440
  847MOL0     H14325   2.330   0.627  -1.147 -2.3531 -1.4678  1.0991
  847MOL0     H14326   2.381   0.873  -1.109 -0.6074  1.7191 -1.8045
  847MOL0     H14327   2.138   1.291  -1.118  1.0458 -4.4983  1.1947
  847MOL0     H14328   2.177   1.533  -1.082 -4.2191 -2.6659  1.5433
  847MOL0     H14329   1.292   1.574   0.124 -0.0539 -1.1407 -0.2600
  847MOL0     H14330   1.173   1.420   0.276 -1.1045 -0.6964  0.6528
  847MOL0     H14331   0.891   1.070   0.342 -1.4542 -1.8122 -1.3309
  847MOL0     H14332   0.777   0.944   0.521  0.5418  3.2059 -0.0786
  847MOL0     H14333   0.696   0.772   0.621 -0.8570  0.8106 -0.5920
  847MOL0     H14334   0.773   0.857   0.762 -0.1406  1.2049 -1.5444
  847MOL0     H14335   0.706   0.567   0.739 -3.3344 -0.4040  0.0682
  847MOL0     H14336   0.593   0.689   0.813 -0.8194 -0.7179  1.1798
  847MOL0     H14337   0.772   0.759   0.966 -2.9157  1.4068 -2.2223
  847MOL0     H14338   0.860   0.611   0.927  0.3362  1.2961 -4.1945
  847MOL0     H14339   0.561   0.569   1.017 -0.7004 -2.8726 -3.1054
  847MOL0     H14340   0.685   0.461   0.984 -1.3298  0.0763 -1.5319
  847MOL0     H14341   0.871   0.572   1.331 -1.0897  0.8988  1.2184
  847MOL0     H14342   1.114   0.692   0.565 -0.5562  0.1128 -1.6906
  847MOL0     H14343   1.287   0.807   0.289 -0.6721  0.4935 -0.4749
  847MOL0     H14344   1.350   0.913   0.415  1.5461 -0.9742 -3.5398
  847MOL0     H14345   1.318   0.736   0.452 -1.9381 -0.5014  0.9014
  848MOL0     O14346   9.190   8.823   7.254  0.8258  0.8926  0.0261
  848MOL0     C14347   9.219   8.806   7.376  0.7535  0.3862 -1.0824
  848MOL0     O14348   9.132   8.757   7.464  0.3229  0.0951  0.5698
  848MOL0     C14349   8.999   8.739   7.424  0.0935  0.6887  0.6943
  848MOL0     C14350   8.907   8.829   7.463  0.1191  0.0618 -0.2728
  848MOL0     C14351   8.769   8.809   7.438  0.0052 -0.4632 -0.7733
  848MOL0     C14352   8.728   8.695   7.368  0.2715  0.1661  0.2328
  848MOL0     O14353   8.598   8.657   7.356  0.3551  0.1202 -0.0089
  848MOL0     C14354   8.489   8.755   7.385 -0.3642  0.5322 -0.1428
  848MOL0     C14355   8.361   8.687   7.354 -0.0762 -0.6032 -0.6458
  848MOL0     C14356   8.344   8.675   7.201  0.4971  0.3901 -0.9173
  848MOL0     C14357   8.420   8.546   7.150  0.8929 -0.1443  0.1895
  848MOL0     C14358   8.351   8.512   7.012 -0.3769 -0.6947  1.0434
  848MOL0     C14359   8.430   8.408   6.920 -0.3525 -0.7959  0.8350
  848MOL0     C14360   8.468   8.284   6.999 -0.1126 -0.9434  0.1496
  848MOL0     C14361   8.556   8.187   6.912  0.6250  0.5150 -0.0277
  848MOL0     N14362   8.689   8.241   6.920  0.9404  0.1493 -0.2479
  848MOL0     C14363   8.755   8.274   6.808  0.7420  0.5224 -1.1859
  848MOL0     C14364   8.878   8.298   6.855  0.4217 -1.0273 -0.0472
  848MOL0     C14365   8.989   8.358   6.773 -0.0618 -0.1518  0.0823
  848MOL0     C14366   9.089   8.432   6.862  0.2657  0.3502 -0.2767
  848MOL0     C14367   9.023   8.556   6.927 -0.2114 -0.0376 -0.4241
  848MOL0     C14368   9.124   8.667   6.959  0.6514 -0.2193 -0.1192
  848MOL0     O14369   9.177   8.720   6.839  0.4381 -0.2831  0.3717
  848MOL0     C14370   9.143   8.845   6.795  0.0503  0.4007  1.4935
  848MOL0     C14371   9.183   8.956   6.861  0.0057  1.0633  0.6814
  848MOL0     C14372   9.165   9.080   6.813 -0.6981  0.3619  0.4003
  848MOL0     C14373   9.107   9.112   6.694  1.3901 -0.2872 -0.2061
  848MOL0     C14374   9.099   9.254   6.640  0.9164 -0.0567 -0.8426
  848MOL0     O14375   9.047   9.264   6.514 -0.2070  0.0738 -0.3203
  848MOL0     C14376   8.995   9.378   6.467 -0.4110 -0.8658  0.1950
  848MOL0     C14377   8.973   9.391   6.333 -0.3849 -0.2304  0.6500
  848MOL0     C14378   8.905   9.491   6.268  0.0949  0.3085 -0.4251
  848MOL0     C14379   8.858   9.602   6.339  0.5670 -0.3670  0.0838
  848MOL0     O14380   8.799   9.704   6.271 -0.2168  0.4419  0.3312
  848MOL0     C14381   8.657   9.692   6.276 -0.1606  0.6493 -0.0002
  848MOL0     C14382   8.597   9.700   6.136 -0.2468 -1.1269  0.8986
  848MOL0     C14383   8.448   9.723   6.147  0.0194 -0.7681 -0.0177
  848MOL0     C14384   8.410   9.768   6.007 -0.2904  0.8609  0.4536
  848MOL0     C14385   8.264   9.746   5.980  0.3760  0.4253  1.0035
  848MOL0     C14386   8.224   9.728   5.830  0.6197 -0.0101  0.5072
  848MOL0     C14387   8.193   9.866   5.781  0.0553  0.7332  0.4984
  848MOL0     C14388   8.206   9.855   5.635  0.6431  0.0335  1.2085
  848MOL0    Cl14389   8.052   9.779   5.570 -0.1666  0.4661  0.0142
  848MOL0     C14390   8.885   9.601   6.481 -0.3236  0.5157 -0.9610
  848MOL0     C14391   8.957   9.493   6.545  0.3276  0.0694  0.6550
  848MOL0     O14392   9.145   9.343   6.707 -0.0608  0.0175 -0.1233
  848MOL0     C14393   9.064   8.996   6.624 -0.0176 -0.2489  1.4479
  848MOL0     C14394   9.085   8.863   6.669  1.0363  0.0915  0.7458
  848MOL0     N14395   8.887   8.283   6.995  0.2649 -0.5347 -0.2205
  848MOL0     N14396   8.773   8.236   7.027 -0.4444 -0.1485 -0.1550
  848MOL0     C14397   8.825   8.610   7.327  0.5842  1.0290  0.3210
  848MOL0     C14398   8.960   8.636   7.342 -0.2342 -0.6901 -0.1899
  848MOL0     C14399   9.352   8.820   7.439  0.8093  1.0109  0.0114
  848MOL0     C14400   9.377   8.794   7.572  0.2969 -0.0536 -0.4359
  848MOL0     C14401   9.506   8.808   7.625  0.3852  1.0662 -0.7945
  848MOL0     C14402   9.617   8.840   7.547 -0.1063  0.4034 -0.5553
  848MOL0     O14403   9.748   8.872   7.592 -0.2593  0.2429  0.2487
  848MOL0     C14404   9.784   8.857   7.722 -0.0767  1.1799  0.6899
  848MOL0     C14405   9.942   8.876   7.740  0.3905  0.5586  0.2959
  848MOL0     C14406   9.976   9.025   7.734  0.6672  0.4452  0.1105
  848MOL0     C14407  10.126   9.064   7.733 -0.4411 -0.2698 -0.2478
  848MOL0     C14408  10.176   9.045   7.867 -0.5615 -0.8552 -0.3871
  848MOL0     C14409  10.224   9.030   7.975  0.6066  0.6640  0.2985
  848MOL0     C14410   9.592   8.853   7.413  0.0178  0.2285  0.4011
  848MOL0     C14411   9.462   8.844   7.355  0.6431 -0.2688 -0.1070
  848MOL0     C14412   9.449   8.863   7.203  0.5523  0.4681  0.3398
  848MOL0     H14413   8.935   8.915   7.524  0.6467  0.1255 -0.5969
  848MOL0     H14414   8.699   8.887   7.469  0.1425  0.3516 -2.4339
  848MOL0     H14415   8.486   8.775   7.492  2.7946 -3.1528  0.8294
  848MOL0     H14416   8.490   8.851   7.331 -0.2751  0.5977 -0.0272
  848MOL0     H14417   8.279   8.744   7.398  0.2782 -1.0838  0.6836
  848MOL0     H14418   8.355   8.584   7.388  2.0051 -0.4419  0.3957
  848MOL0     H14419   8.383   8.768   7.158  1.4982 -0.6559 -2.3773
  848MOL0     H14420   8.238   8.673   7.173  0.9806 -0.7447 -2.8510
  848MOL0     H14421   8.525   8.574   7.148  1.4634 -1.5712  3.8519
  848MOL0     H14422   8.404   8.459   7.214  0.5351 -1.0705 -1.1146
  848MOL0     H14423   8.254   8.471   7.041 -0.6165  1.6391  4.1348
  848MOL0     H14424   8.337   8.601   6.950 -3.5776 -2.3394 -0.8447
  848MOL0     H14425   8.365   8.364   6.843 -3.4118 -0.5989  3.1307
  848MOL0     H14426   8.513   8.456   6.868 -1.4244 -0.1039 -0.2947
  848MOL0     H14427   8.377   8.227   7.020 -0.4659 -0.3809  0.1581
  848MOL0     H14428   8.520   8.309   7.092 -2.1751  2.2800  0.6005
  848MOL0     H14429   8.556   8.086   6.955  2.0844 -0.8773 -2.9995
  848MOL0     H14430   8.536   8.177   6.805  2.6549  3.8515 -0.8690
  848MOL0     H14431   8.716   8.285   6.707  0.6242 -0.9278 -1.3111
  848MOL0     H14432   9.042   8.276   6.722 -0.3667  1.1478 -2.4925
  848MOL0     H14433   8.951   8.421   6.691  1.1531  3.7428  2.2515
  848MOL0     H14434   9.134   8.361   6.932 -0.8153 -1.4255 -1.3046
  848MOL0     H14435   9.175   8.469   6.805  0.3266 -0.4416 -0.7151
  848MOL0     H14436   8.975   8.533   7.023 -1.7244 -1.3694 -1.4328
  848MOL0     H14437   8.944   8.588   6.858  0.5717 -3.0578 -2.9728
  848MOL0     H14438   9.206   8.623   7.017  0.2788 -0.4378  0.2522
  848MOL0     H14439   9.078   8.748   7.016 -1.2756 -0.2728 -1.5223
  848MOL0     H14440   9.235   8.950   6.956 -0.5988  2.0633  1.1002
  848MOL0     H14441   9.215   9.156   6.871  0.5580  1.0962 -1.5298
  848MOL0     H14442   9.016   9.311   6.273 -2.0803  0.6608 -1.8938
  848MOL0     H14443   8.884   9.489   6.162 -1.3030 -0.4349 -0.1555
  848MOL0     H14444   8.626   9.602   6.331 -2.5613 -1.0114 -3.6522
  848MOL0     H14445   8.612   9.779   6.323 -2.8191 -2.2932  3.4841
  848MOL0     H14446   8.634   9.792   6.090 -3.2417 -1.2421 -2.0316
  848MOL0     H14447   8.622   9.621   6.065  1.5733 -1.1180  1.4532
  848MOL0     H14448   8.398   9.627   6.165 -1.9262  0.3746  0.9228
  848MOL0     H14449   8.431   9.796   6.227 -1.2732 -1.1511  0.0755
  848MOL0     H14450   8.466   9.708   5.934  0.9694 -0.7175  2.5866
  848MOL0     H14451   8.437   9.872   5.991 -1.2379  1.5183  2.7480
  848MOL0     H14452   8.206   9.828   6.023 -1.3277 -0.5466  0.6601
  848MOL0     H14453   8.241   9.654   6.036  0.3461  1.1206  2.1720
  848MOL0     H14454   8.305   9.674   5.779 -1.3077 -0.0835 -2.7253
  848MOL0     H14455   8.130   9.672   5.820 -0.2697  1.4613  0.4363
  848MOL0     H14456   8.261   9.948   5.806 -2.5826  3.8366 -1.6570
  848MOL0     H14457   8.093   9.899   5.813 -0.9242 -2.4229  1.0507
  848MOL0     H14458   8.206   9.952   5.586 -2.4161 -0.3360  0.2702
  848MOL0     H14459   8.295   9.798   5.605  0.3807 -0.1394  0.7469
  848MOL0     H14460   8.848   9.683   6.542 -1.6209 -0.4335 -0.4223
  848MOL0     H14461   8.973   9.502   6.652  3.3212 -0.1518  0.3031
  848MOL0     H14462   9.029   9.006   6.521 -2.0971  0.0177  2.1236
  848MOL0     H14463   9.054   8.776   6.612  2.1201 -2.4988  3.8068
  848MOL0     H14464   8.807   8.519   7.269  3.7280 -0.3783  1.3524
  848MOL0     H14465   9.036   8.568   7.305 -0.9375  0.1693 -3.4879
  848MOL0     H14466   9.294   8.763   7.635  0.2020  0.1005 -0.4837
  848MOL0     H14467   9.511   8.794   7.732 -1.8569  2.2142 -0.4752
  848MOL0     H14468   9.759   8.763   7.772 -2.1990  1.9057  1.0829
  848MOL0     H14469   9.729   8.930   7.783 -0.2934  1.8040 -0.2422
  848MOL0     H14470   9.994   8.839   7.651 -0.5120 -0.7177  0.2771
  848MOL0     H14471   9.975   8.820   7.829 -0.7100 -1.7417 -0.6650
  848MOL0     H14472   9.924   9.072   7.819 -2.8402  0.8809 -2.0840
  848MOL0     H14473   9.932   9.053   7.638 -2.3106  0.0235  1.2579
  848MOL0     H14474  10.184   9.010   7.658 -0.9571 -0.8853 -0.2057
  848MOL0     H14475  10.141   9.168   7.702  1.9227 -1.8260 -5.3227
  848MOL0     H14476  10.271   8.994   8.065 -2.0284  0.0794  1.5512
  848MOL0     H14477   9.671   8.893   7.350 -0.9553 -0.1193 -1.0822
  848MOL0     H14478   9.399   8.781   7.151 -0.2348  0.3928  1.2022
  848MOL0     H14479   9.399   8.957   7.180  2.3278  2.4232  3.6848
  848MOL0     H14480   9.551   8.873   7.164  2.0862 -0.9030  3.6786
  849MOL0     O14481   9.751   3.117   7.868  0.3551  0.3881  0.0964
  849MOL0     C14482   9.704   3.065   7.767 -0.2647 -0.4731 -0.3156
  849MOL0     O14483   9.772   2.986   7.684  0.4006 -0.0516  0.1391
  849MOL0     C14484   9.895   2.945   7.716  0.0821 -0.2461 -1.0360
  849MOL0     C14485  10.012   3.000   7.662 -0.7032 -1.0820  0.0827
  849MOL0     C14486  10.142   2.951   7.713  0.2302 -0.1638  0.7416
  849MOL0     C14487  10.166   2.855   7.811  0.2880  0.4230  0.9702
  849MOL0     O14488  10.291   2.817   7.848 -0.2945  0.2287  0.4379
  849MOL0     C14489  10.390   2.827   7.755  0.1113 -0.0096 -0.9659
  849MOL0     C14490  10.516   2.768   7.827 -0.4605  0.0457  0.1775
  849MOL0     C14491  10.524   2.609   7.811 -0.2372  0.3352 -0.5510
  849MOL0     C14492  10.667   2.581   7.843 -0.8962 -0.1358 -0.9922
  849MOL0     C14493  10.687   2.433   7.882  0.2911 -0.1011 -0.5569
  849MOL0     C14494  10.821   2.429   7.953 -0.7398 -0.3284 -0.3929
  849MOL0     C14495  10.868   2.291   7.984  0.7281  0.6629  0.2481
  849MOL0     C14496  10.908   2.219   7.857  0.0452 -0.2152 -0.4014
  849MOL0     N14497  10.933   2.080   7.882  0.1653  0.0982 -0.0334
  849MOL0     C14498  10.942   2.021   8.004 -1.3772  0.0613 -0.6412
  849MOL0     C14499  10.976   1.892   7.981 -0.4736 -0.0003  0.3717
  849MOL0     C14500  11.021   1.793   8.087  0.3024 -0.0032  0.6684
  849MOL0     C14501  11.150   1.853   8.144  0.6851  0.6024  0.0295
  849MOL0     C14502  11.217   1.738   8.223  0.2889  0.3492  0.6369
  849MOL0     C14503  11.291   1.638   8.127 -0.5882  0.3198 -0.1037
  849MOL0     O14504  11.388   1.564   8.207 -0.5757  0.4434 -0.7524
  849MOL0     C14505  11.516   1.588   8.175  0.3649  1.0136  0.3277
  849MOL0     C14506  11.570   1.710   8.153 -0.2899 -0.3442  0.1862
  849MOL0     C14507  11.707   1.728   8.124  0.6198  1.1071  0.2718
  849MOL0     C14508  11.793   1.618   8.115  0.1632 -0.2808 -0.5478
  849MOL0     C14509  11.938   1.610   8.079 -0.8675 -0.6131 -0.4769
  849MOL0     O14510  11.996   1.732   8.095  0.0920 -0.5539 -0.1952
  849MOL0     C14511  12.135   1.737   8.101  0.4462  0.1254  0.2596
  849MOL0     C14512  12.208   1.687   8.205 -0.3952 -0.1447 -0.1593
  849MOL0     C14513  12.348   1.703   8.215  0.5118 -0.4817  0.4894
  849MOL0     C14514  12.415   1.781   8.116 -0.3423 -0.9899  1.1522
  849MOL0     O14515  12.548   1.785   8.138 -0.4897 -0.4465  0.0806
  849MOL0     C14516  12.595   1.926   8.140 -0.1664 -0.1435 -0.5512
  849MOL0     C14517  12.681   1.957   8.263  0.1299  0.0295 -0.4055
  849MOL0     C14518  12.816   1.893   8.239 -0.6777 -0.5023 -0.8155
  849MOL0     C14519  12.882   1.888   8.364 -0.6304  0.5789 -0.0368
  849MOL0     C14520  13.012   1.821   8.331 -0.4357  0.2550  0.6716
  849MOL0     C14521  13.109   1.835   8.446 -0.6827  0.0802 -0.5179
  849MOL0     C14522  13.234   1.748   8.432  0.2258 -0.3709  0.0793
  849MOL0     C14523  13.315   1.755   8.559 -0.5301  1.0551 -0.5490
  849MOL0    Cl14524  13.219   1.722   8.697 -0.0088  0.0368  0.2152
  849MOL0     C14525  12.342   1.833   8.003  0.3101 -0.1535 -0.5073
  849MOL0     C14526  12.204   1.814   8.002 -0.4250 -0.4845  0.5986
  849MOL0     O14527  11.997   1.505   8.054 -0.6531  0.6927 -0.2161
  849MOL0     C14528  11.735   1.503   8.149  0.4456  1.1122  0.5028
  849MOL0     C14529  11.599   1.480   8.176 -0.6994  0.1406 -0.0246
  849MOL0     N14530  10.981   1.872   7.842  0.0496 -0.4643  0.2902
  849MOL0     N14531  10.958   1.989   7.785 -0.1527  0.5103  0.3225
  849MOL0     C14532  10.048   2.818   7.880  0.0973 -0.8177  0.0049
  849MOL0     C14533   9.913   2.857   7.828  0.1852  0.0095 -0.5202
  849MOL0     C14534   9.560   3.076   7.725  0.2615 -0.2246  0.0999
  849MOL0     C14535   9.499   3.197   7.759  0.4117 -0.2871  0.2456
  849MOL0     C14536   9.371   3.227   7.716 -0.0880  0.0708 -0.3868
  849MOL0     C14537   9.292   3.121   7.657 -1.0289  0.4611 -0.4866
  849MOL0     O14538   9.162   3.146   7.639  0.5175 -0.0418 -0.1140
  849MOL0     C14539   9.074   3.036   7.614 -0.4159  0.6092 -0.6196
  849MOL0     C14540   8.933   3.095   7.624  0.3792 -0.8707  0.5463
  849MOL0     C14541   8.888   3.167   7.750 -0.0035  0.0968 -0.2222
  849MOL0     C14542   8.744   3.207   7.734 -0.0043 -0.4634  0.0509
  849MOL0     C14543   8.693   3.303   7.824 -0.6674  0.5559  0.2615
  849MOL0     C14544   8.653   3.379   7.907  0.2316 -0.8070 -0.7108
  849MOL0     C14545   9.356   2.997   7.626  0.3861 -0.2904 -0.0511
  849MOL0     C14546   9.493   2.969   7.665  0.6636  0.0676  0.3516
  849MOL0     C14547   9.558   2.833   7.634  0.1065  0.4030 -0.2487
  849MOL0     H14548  10.011   3.074   7.582  0.9794  1.2223  2.0443
  849MOL0     H14549  10.222   3.009   7.667 -0.1943 -0.6859 -0.7010
  849MOL0     H14550  10.379   2.778   7.658  2.0000  2.7908 -2.7362
  849MOL0     H14551  10.406   2.934   7.740  2.4097 -0.3784 -1.4529
  849MOL0     H14552  10.519   2.799   7.932  0.8909  1.4970 -0.2538
  849MOL0     H14553  10.606   2.810   7.782  0.9090 -1.4896  1.3735
  849MOL0     H14554  10.508   2.571   7.710  0.1623 -3.3267  0.6244
  849MOL0     H14555  10.456   2.563   7.883 -1.0379 -1.2804 -2.2796
  849MOL0     H14556  10.729   2.605   7.757  0.9626 -0.9298  0.0694
  849MOL0     H14557  10.698   2.636   7.933  1.3491 -3.2864  0.3386
  849MOL0     H14558  10.617   2.402   7.960  1.3458 -2.1846 -0.3659
  849MOL0     H14559  10.692   2.375   7.789  4.6432  4.5481 -3.7641
  849MOL0     H14560  10.899   2.479   7.895 -1.1146  1.3057  0.4624
  849MOL0     H14561  10.807   2.476   8.050 -2.3733  0.4891 -0.9903
  849MOL0     H14562  10.784   2.235   8.026 -0.4041  2.0740 -0.0820
  849MOL0     H14563  10.952   2.289   8.054 -0.3843  1.1018  1.6375
  849MOL0     H14564  10.827   2.225   7.784  1.0026  4.4709 -1.3844
  849MOL0     H14565  10.994   2.271   7.813 -0.0072  2.4943  2.3742
  849MOL0     H14566  10.954   2.070   8.100 -2.6274 -0.3278 -0.2703
  849MOL0     H14567  10.938   1.774   8.157  1.0362 -0.3565  1.4622
  849MOL0     H14568  11.049   1.699   8.039  2.9159  0.3865  1.2787
  849MOL0     H14569  11.212   1.899   8.066  3.2589 -3.9664 -0.9550
  849MOL0     H14570  11.105   1.925   8.213 -3.6445 -1.4525 -0.3054
  849MOL0     H14571  11.148   1.684   8.289 -0.8150 -0.7045 -1.2986
  849MOL0     H14572  11.295   1.781   8.287  1.1792 -1.0553  0.5158
  849MOL0     H14573  11.339   1.689   8.044  0.2881  1.9306  1.3360
  849MOL0     H14574  11.213   1.574   8.085  0.3601  0.3008 -1.9076
  849MOL0     H14575  11.506   1.798   8.162 -3.8851 -2.9167  2.8918
  849MOL0     H14576  11.743   1.830   8.114  1.4555  0.9591  1.5264
  849MOL0     H14577  12.142   1.641   8.278  0.4789  3.0549  2.9106
  849MOL0     H14578  12.403   1.657   8.297 -2.3610 -0.9876  2.2678
  849MOL0     H14579  12.644   1.956   8.047  2.1445  1.4694  1.0626
  849MOL0     H14580  12.524   2.009   8.149  0.5342  0.4713 -0.5928
  849MOL0     H14581  12.700   2.062   8.286  2.9483 -0.3892 -0.5093
  849MOL0     H14582  12.635   1.920   8.355  0.5989  2.2954  0.8280
  849MOL0     H14583  12.798   1.793   8.197 -1.9467 -1.1787  1.1765
  849MOL0     H14584  12.874   1.947   8.164  0.1697 -1.7527 -1.0969
  849MOL0     H14585  12.829   1.815   8.426  0.2684  0.9110  1.1529
  849MOL0     H14586  12.897   1.980   8.421  0.8070  1.2578 -1.4504
  849MOL0     H14587  13.058   1.867   8.243  3.6769 -0.8624  1.9914
  849MOL0     H14588  12.995   1.716   8.305 -2.5093  0.6068  0.4299
  849MOL0     H14589  13.141   1.939   8.448  0.8473 -0.3222 -1.9017
  849MOL0     H14590  13.064   1.816   8.544  0.8903 -0.2664  0.1720
  849MOL0     H14591  13.297   1.772   8.345 -1.0112  0.7565 -0.5602
  849MOL0     H14592  13.201   1.649   8.400 -0.2197  0.3407 -1.8314
  849MOL0     H14593  13.393   1.679   8.553 -0.3745  1.3203 -2.6223
  849MOL0     H14594  13.362   1.853   8.572  4.2160 -1.1560  1.3558
  849MOL0     H14595  12.399   1.871   7.919 -1.4050 -1.9326 -2.6159
  849MOL0     H14596  12.142   1.853   7.921  0.9921  1.7048  0.4941
  849MOL0     H14597  11.789   1.409   8.141 -0.2102  0.8583 -1.6739
  849MOL0     H14598  11.559   1.385   8.210  1.3114 -0.2496  1.4325
  849MOL0     H14599  10.065   2.758   7.969  1.5713 -0.2486  0.1312
  849MOL0     H14600   9.829   2.814   7.881  1.2845 -1.0529  0.4211
  849MOL0     H14601   9.561   3.275   7.802 -0.2712  1.9820 -2.5959
  849MOL0     H14602   9.330   3.327   7.724  2.0865  1.1921 -2.2291
  849MOL0     H14603   9.084   2.963   7.694 -0.3365  1.2789 -0.0008
  849MOL0     H14604   9.090   2.997   7.513  0.0408  0.2136 -0.3973
  849MOL0     H14605   8.859   3.019   7.597  2.0734 -1.4947 -2.9856
  849MOL0     H14606   8.926   3.163   7.538 -0.4703 -1.1778  0.3631
  849MOL0     H14607   8.951   3.255   7.766 -1.4582  0.8324  1.9319
  849MOL0     H14608   8.889   3.097   7.833  2.2102  0.9741  0.5615
  849MOL0     H14609   8.735   3.261   7.639  0.9746 -0.1153  0.1461
  849MOL0     H14610   8.687   3.115   7.748  0.4555 -0.7211  0.2454
  849MOL0     H14611   8.609   3.439   7.984 -0.6570 -3.6275  1.1407
  849MOL0     H14612   9.300   2.913   7.585 -1.3206  1.2051 -0.9167
  849MOL0     H14613   9.480   2.756   7.630 -0.5796  1.0754  0.0029
  849MOL0     H14614   9.608   2.840   7.538  0.2718  3.7706 -0.0351
  849MOL0     H14615   9.627   2.809   7.716  0.6561  0.3986 -0.7096
  850MOL0     O14616   5.823   3.625   2.693  0.1682 -0.3325  0.2057
  850MOL0     C14617   5.792   3.570   2.583 -0.2595  0.4091 -0.5270
  850MOL0     O14618   5.679   3.591   2.516 -0.1698 -0.2150 -0.2525
  850MOL0     C14619   5.574   3.670   2.560 -0.1027 -0.5256 -0.0690
  850MOL0     C14620   5.444   3.634   2.517  0.8641 -0.0171  0.4457
  850MOL0     C14621   5.330   3.715   2.549  0.4149 -1.4425 -0.1384
  850MOL0     C14622   5.347   3.839   2.619  0.1799  1.1322  0.1108
  850MOL0     O14623   5.250   3.937   2.631  0.3480  0.2273 -0.6831
  850MOL0     C14624   5.117   3.901   2.592  1.0782  0.2724  0.4658
  850MOL0     C14625   5.019   4.017   2.629  0.5204 -0.0919  0.1383
  850MOL0     C14626   5.056   4.142   2.540 -0.5763  0.4155 -1.2568
  850MOL0     C14627   4.980   4.266   2.589  0.0725 -0.3142 -0.6758
  850MOL0     C14628   4.832   4.257   2.542 -0.4857  0.1576  0.4197
  850MOL0     C14629   4.828   4.313   2.395  0.4286  0.3969  0.1325
  850MOL0     C14630   4.692   4.306   2.334 -0.6999 -0.4989  0.2426
  850MOL0     C14631   4.604   4.423   2.385  0.0064 -0.1661 -0.7995
  850MOL0     N14632   4.460   4.406   2.349  0.1182  0.3182  0.5054
  850MOL0     C14633   4.379   4.483   2.263 -0.5091 -0.1686 -0.0840
  850MOL0     C14634   4.256   4.445   2.293  0.2054  0.2458 -0.3027
  850MOL0     C14635   4.131   4.522   2.237  0.4538 -0.9443  0.4558
  850MOL0     C14636   4.048   4.414   2.152 -0.1241 -0.4359  0.4805
  850MOL0     C14637   3.919   4.382   2.228  0.4228 -0.4499  0.2931
  850MOL0     C14638   3.829   4.279   2.155  0.0340  0.1798  0.3382
  850MOL0     O14639   3.714   4.257   2.233 -0.0082 -0.3966  0.2458
  850MOL0     C14640   3.623   4.158   2.218  0.1575 -0.7397  0.6883
  850MOL0     C14641   3.626   4.039   2.138 -0.1801 -0.4504  0.2064
  850MOL0     C14642   3.505   3.961   2.135 -0.4577  0.4236  0.1310
  850MOL0     C14643   3.382   4.000   2.190  0.6542 -0.0123 -1.4753
  850MOL0     C14644   3.250   3.935   2.164  0.4451 -0.5281 -0.7022
  850MOL0     O14645   3.257   3.835   2.067  0.0683 -0.2257  0.0282
  850MOL0     C14646   3.141   3.761   2.049 -0.6602 -0.1030  0.1316
  850MOL0     C14647   3.013   3.825   2.039 -0.0095 -0.2032 -0.0491
  850MOL0     C14648   2.905   3.749   2.014  0.0989  0.1492  0.7184
  850MOL0     C14649   2.920   3.606   1.998 -0.1939 -0.7847 -0.2874
  850MOL0     O14650   2.813   3.528   1.966 -0.0726 -0.1034 -0.0296
  850MOL0     C14651   2.694   3.524   2.051  0.3803 -0.5983 -0.5337
  850MOL0     C14652   2.605   3.393   2.030  0.2438 -0.2204  0.3599
  850MOL0     C14653   2.527   3.409   1.895  0.2920  1.1109 -0.6360
  850MOL0     C14654   2.612   3.420   1.756 -0.5562 -0.6413 -0.5973
  850MOL0     C14655   2.507   3.435   1.646  0.3257 -0.3187  0.1214
  850MOL0     C14656   2.544   3.389   1.508 -0.4947 -0.3129  0.0533
  850MOL0     C14657   2.426   3.367   1.416 -0.1909  1.2185 -0.8708
  850MOL0     C14658   2.378   3.487   1.343  0.6274  0.2543 -0.0543
  850MOL0    Cl14659   2.217   3.445   1.271  0.1442 -0.2230  0.3460
  850MOL0     C14660   3.041   3.542   2.012  0.8577 -0.2414  0.5860
  850MOL0     C14661   3.155   3.621   2.030  0.2437  0.4647  0.2108
  850MOL0     O14662   3.156   3.951   2.244  0.1491  0.0272  0.6038
  850MOL0     C14663   3.383   4.126   2.263 -0.0288  0.4073 -0.2770
  850MOL0     C14664   3.501   4.203   2.270  0.3009 -0.2320 -0.9107
  850MOL0     N14665   4.255   4.337   2.379  0.3497  1.1171  0.2320
  850MOL0     N14666   4.382   4.309   2.402  0.2748  0.1169  0.4503
  850MOL0     C14667   5.479   3.877   2.660  0.4394  0.0561 -0.6349
  850MOL0     C14668   5.588   3.796   2.627 -0.6504  0.3122 -1.7729
  850MOL0     C14669   5.883   3.469   2.527 -0.5031 -0.1682 -0.5249
  850MOL0     C14670   6.013   3.503   2.499  0.5407  0.0481 -0.0789
  850MOL0     C14671   6.109   3.417   2.455  0.3215  0.1956  0.7006
  850MOL0     C14672   6.074   3.285   2.428  0.0178  0.1162 -0.7593
  850MOL0     O14673   6.160   3.191   2.378  0.0800 -0.3666  0.3367
  850MOL0     C14674   6.204   3.217   2.240  0.4615  0.2791 -0.4348
  850MOL0     C14675   6.243   3.079   2.172 -0.7212 -0.2295 -0.3357
  850MOL0     C14676   6.360   3.001   2.244  0.3891  1.5588  0.0468
  850MOL0     C14677   6.403   2.878   2.161  0.4421 -0.3578  0.2020
  850MOL0     C14678   6.293   2.781   2.159 -0.9204  0.1001 -0.1436
  850MOL0     C14679   6.206   2.700   2.151  0.2686  0.5195 -0.5151
  850MOL0     C14680   5.951   3.239   2.468 -0.0453  1.2595 -0.0727
  850MOL0     C14681   5.855   3.333   2.519  0.0236  0.8986  0.3007
  850MOL0     C14682   5.728   3.267   2.558 -0.7499  0.2285  0.3264
  850MOL0     H14683   5.429   3.551   2.449 -2.4539  0.2292  0.7175
  850MOL0     H14684   5.229   3.693   2.515 -0.4770  1.5441  0.2996
  850MOL0     H14685   5.115   3.875   2.485  0.2776 -2.5855  1.0923
  850MOL0     H14686   5.084   3.815   2.650 -5.7956  3.2253  1.8095
  850MOL0     H14687   5.029   4.037   2.736  1.5720 -0.3913  0.1074
  850MOL0     H14688   4.915   3.985   2.618  0.3795  0.5198 -0.3742
  850MOL0     H14689   5.032   4.110   2.438 -2.7543  0.7201 -0.8972
  850MOL0     H14690   5.158   4.179   2.547 -0.7800  3.2694 -7.3968
  850MOL0     H14691   4.984   4.272   2.698  0.4699 -0.4534 -0.6795
  850MOL0     H14692   5.032   4.358   2.561  0.4831  0.5842  2.6632
  850MOL0     H14693   4.792   4.156   2.538 -1.0025  0.3683 -3.5393
  850MOL0     H14694   4.770   4.319   2.608 -0.6682 -0.7877  1.1442
  850MOL0     H14695   4.883   4.404   2.371  0.3293  0.1799 -0.9706
  850MOL0     H14696   4.888   4.244   2.334 -2.3404 -0.8514 -1.3806
  850MOL0     H14697   4.644   4.211   2.358 -1.1723  0.1926  2.2528
  850MOL0     H14698   4.703   4.315   2.225 -0.5868 -0.2079  0.2758
  850MOL0     H14699   4.605   4.425   2.494 -0.3704 -1.7268 -0.7435
  850MOL0     H14700   4.634   4.525   2.359  0.8318 -0.1252  0.2624
  850MOL0     H14701   4.411   4.572   2.209 -3.0793  0.4309 -0.7354
  850MOL0     H14702   4.069   4.564   2.317 -0.5692 -2.3049  0.4179
  850MOL0     H14703   4.165   4.615   2.192  1.6542  0.3790  3.7505
  850MOL0     H14704   4.023   4.444   2.050  2.3416 -0.1827 -0.1315
  850MOL0     H14705   4.117   4.332   2.131  1.2910  1.4955 -3.4097
  850MOL0     H14706   3.866   4.473   2.254 -0.2786 -0.8211  0.1824
  850MOL0     H14707   3.950   4.326   2.318  0.6100 -2.1297 -0.7649
  850MOL0     H14708   3.886   4.186   2.143  1.0302  0.8299 -0.0876
  850MOL0     H14709   3.809   4.311   2.053  2.9372 -2.9884 -1.4363
  850MOL0     H14710   3.710   4.015   2.074 -3.1281  1.9580 -5.2456
  850MOL0     H14711   3.507   3.875   2.069 -0.7960  0.2404  0.3564
  850MOL0     H14712   3.000   3.932   2.050 -0.2398 -0.4398  2.5864
  850MOL0     H14713   2.813   3.803   1.995  1.2494  2.3780  1.1218
  850MOL0     H14714   2.713   3.546   2.157 -1.5209  1.6328 -0.5884
  850MOL0     H14715   2.629   3.610   2.034 -0.9685 -1.7951 -1.6593
  850MOL0     H14716   2.670   3.305   2.031  0.7790  0.1036  3.6163
  850MOL0     H14717   2.525   3.383   2.103  0.6689 -0.2019  0.8309
  850MOL0     H14718   2.459   3.323   1.897 -1.6450  2.5809  1.8824
  850MOL0     H14719   2.457   3.493   1.902  0.3716  1.0396  2.0155
  850MOL0     H14720   2.691   3.344   1.756  0.0400 -0.0733  1.2055
  850MOL0     H14721   2.678   3.508   1.753 -0.9677 -0.2274  1.4586
  850MOL0     H14722   2.469   3.537   1.635  0.8469 -0.1200  0.1289
  850MOL0     H14723   2.419   3.375   1.672  0.8283 -1.4070 -0.5912
  850MOL0     H14724   2.605   3.472   1.471  0.0936  0.3730  2.4169
  850MOL0     H14725   2.602   3.297   1.516 -2.0457 -1.2451  1.2396
  850MOL0     H14726   2.343   3.325   1.474  0.7472  0.3943 -0.0877
  850MOL0     H14727   2.452   3.295   1.338 -0.9313 -1.6426  1.3819
  850MOL0     H14728   2.364   3.576   1.405 -3.3756 -0.2152  0.0072
  850MOL0     H14729   2.442   3.499   1.256  0.7584 -3.9554 -0.7649
  850MOL0     H14730   3.038   3.435   1.996  1.4106  0.1394 -2.8351
  850MOL0     H14731   3.250   3.570   2.029 -0.9559 -1.8986 -0.7795
  850MOL0     H14732   3.287   4.162   2.298  0.2439  0.5873  0.2867
  850MOL0     H14733   3.500   4.300   2.320  1.8602 -1.3340  1.4834
  850MOL0     H14734   5.483   3.973   2.709 -3.1251  1.1431 -2.1109
  850MOL0     H14735   5.687   3.828   2.660 -0.7490 -0.8848 -0.1641
  850MOL0     H14736   6.045   3.606   2.508 -2.0221  0.9854 -0.9232
  850MOL0     H14737   6.208   3.458   2.444  0.5460 -0.2627  0.9948
  850MOL0     H14738   6.285   3.290   2.239 -2.4010  3.7695  0.9007
  850MOL0     H14739   6.119   3.259   2.185  1.5464  1.5255 -1.1958
  850MOL0     H14740   6.273   3.089   2.067 -0.2731 -1.2371 -0.3133
  850MOL0     H14741   6.156   3.014   2.184 -0.4795 -0.3297  1.0113
  850MOL0     H14742   6.318   2.958   2.335 -0.7575  1.7028 -0.4083
  850MOL0     H14743   6.444   3.065   2.275  0.3778  0.3915  2.7630
  850MOL0     H14744   6.418   2.913   2.058 -3.7595  0.5840 -0.3112
  850MOL0     H14745   6.485   2.830   2.214 -0.4312  0.3514  2.3091
  850MOL0     H14746   6.123   2.632   2.148 -1.0823  2.1104 -2.0974
  850MOL0     H14747   5.935   3.132   2.462  3.5347  0.6438 -0.7523
  850MOL0     H14748   5.668   3.235   2.472  3.2708  2.1516 -3.6486
  850MOL0     H14749   5.737   3.175   2.617  2.4156 -0.0844 -0.4325
  850MOL0     H14750   5.672   3.339   2.618 -2.2011 -0.5290 -0.0832
  851MOL0     O14751   1.654   4.653   4.506 -0.4108  0.2905 -0.4456
  851MOL0     C14752   1.610   4.589   4.603 -0.1501 -0.3384 -0.5690
  851MOL0     O14753   1.665   4.464   4.643  0.1511 -0.4804  0.0639
  851MOL0     C14754   1.782   4.436   4.581 -0.2938  0.5980 -0.5074
  851MOL0     C14755   1.793   4.356   4.473  0.1521  0.1516  0.8252
  851MOL0     C14756   1.913   4.330   4.413 -0.0467 -0.7921  0.7423
  851MOL0     C14757   2.033   4.369   4.479 -1.0343 -0.1290 -0.6342
  851MOL0     O14758   2.159   4.343   4.450 -0.5727  0.2201 -0.1705
  851MOL0     C14759   2.179   4.314   4.308  0.6193 -0.1882 -0.3547
  851MOL0     C14760   2.328   4.276   4.289  0.2683  0.2548  0.1739
  851MOL0     C14761   2.418   4.402   4.285 -0.6040 -0.9039 -0.3173
  851MOL0     C14762   2.565   4.368   4.268 -0.3059 -0.1610  1.0683
  851MOL0     C14763   2.598   4.317   4.128 -0.8024 -0.9602 -0.2199
  851MOL0     C14764   2.754   4.326   4.106  0.2669 -0.3539  0.3058
  851MOL0     C14765   2.805   4.332   3.960  0.7257 -0.2059  0.5557
  851MOL0     C14766   2.965   4.343   3.941 -0.7369  0.7707 -0.5699
  851MOL0     N14767   2.998   4.335   3.800  0.2192 -0.5265  1.1205
  851MOL0     C14768   2.979   4.234   3.711 -1.0198  0.8402  0.4174
  851MOL0     C14769   2.999   4.294   3.587 -1.1943 -0.2102 -0.0587
  851MOL0     C14770   2.955   4.229   3.462  0.2033 -0.8628  0.4180
  851MOL0     C14771   3.072   4.188   3.375 -0.6479  0.3516 -0.6524
  851MOL0     C14772   3.154   4.070   3.428  0.8953  0.5971 -0.0996
  851MOL0     C14773   3.067   3.958   3.483 -0.8919  0.1761  0.0815
  851MOL0     O14774   3.140   3.840   3.450 -0.1226 -0.1989  0.8085
  851MOL0     C14775   3.259   3.797   3.504 -0.3560 -0.6393  1.0211
  851MOL0     C14776   3.308   3.680   3.462 -0.5226  0.4198 -0.2267
  851MOL0     C14777   3.436   3.626   3.504  0.8905  0.6305 -0.4284
  851MOL0     C14778   3.500   3.690   3.613 -0.1070 -0.4744 -1.2213
  851MOL0     C14779   3.634   3.640   3.657  0.2381 -0.1517 -0.1216
  851MOL0     O14780   3.705   3.732   3.731  0.5330 -0.0871 -0.0235
  851MOL0     C14781   3.830   3.704   3.775 -0.0211 -0.0514 -0.3831
  851MOL0     C14782   3.871   3.772   3.890  0.1012  0.2059  0.0950
  851MOL0     C14783   3.982   3.741   3.955  0.3621  0.0652  1.1582
  851MOL0     C14784   4.073   3.639   3.914  1.4428 -0.1805 -0.0123
  851MOL0     O14785   4.192   3.601   3.954 -0.0334 -0.2454 -0.2418
  851MOL0     C14786   4.209   3.605   4.099  0.4204 -0.6682 -0.4699
  851MOL0     C14787   4.295   3.730   4.126  0.3507 -0.8274 -1.0205
  851MOL0     C14788   4.349   3.749   4.267  0.1371 -1.1606 -0.3283
  851MOL0     C14789   4.484   3.685   4.288 -0.3429 -0.4720  0.3557
  851MOL0     C14790   4.602   3.750   4.216 -0.6296 -0.6086  0.8883
  851MOL0     C14791   4.734   3.696   4.263  0.6656 -0.1506 -0.3089
  851MOL0     C14792   4.855   3.781   4.201 -0.3355  0.3221  0.4703
  851MOL0     C14793   4.871   3.929   4.250 -0.7795  0.3695  0.4563
  851MOL0    Cl14794   4.830   3.947   4.427 -0.1987 -0.1967  0.3443
  851MOL0     C14795   4.033   3.578   3.798 -0.2097  0.3078  0.5133
  851MOL0     C14796   3.920   3.608   3.722 -0.1925  0.2072 -0.0962
  851MOL0     O14797   3.661   3.525   3.630 -0.5556 -0.5667  0.7797
  851MOL0     C14798   3.442   3.806   3.672 -0.5811  0.1925 -0.4070
  851MOL0     C14799   3.331   3.861   3.612  0.6390  0.6056  0.8589
  851MOL0     N14800   3.062   4.413   3.603 -0.0196  0.0128 -0.5658
  851MOL0     N14801   3.062   4.443   3.731  0.4146  0.5125 -0.7993
  851MOL0     C14802   2.022   4.438   4.600  0.0834 -0.2999 -0.3453
  851MOL0     C14803   1.893   4.476   4.648 -0.3465  0.0874  0.5733
  851MOL0     C14804   1.507   4.657   4.680 -0.1972  1.1069  1.0924
  851MOL0     C14805   1.430   4.573   4.760  0.3246 -0.7230 -0.1372
  851MOL0     C14806   1.322   4.622   4.832  0.5977 -0.0846 -0.3837
  851MOL0     C14807   1.278   4.751   4.821 -0.2826 -0.5371  1.2899
  851MOL0     O14808   1.172   4.795   4.892  0.0793 -0.7001  0.4813
  851MOL0     C14809   1.166   4.933   4.934  0.3437  0.0809 -0.4101
  851MOL0     C14810   1.074   4.939   5.052 -1.2161 -0.3564 -0.3302
  851MOL0     C14811   1.053   5.090   5.070 -0.0089  0.9036  0.6482
  851MOL0     C14812   0.968   5.136   5.191  0.1770  0.4516 -0.1971
  851MOL0     C14813   1.023   5.127   5.330  0.0349  0.7581 -0.1742
  851MOL0     C14814   1.076   5.130   5.438 -0.1240 -0.1359 -0.3498
  851MOL0     C14815   1.348   4.834   4.730 -0.8143  0.8136  1.0270
  851MOL0     C14816   1.462   4.789   4.660 -0.4360  0.3420 -0.4670
  851MOL0     C14817   1.526   4.903   4.587 -0.3339 -1.2372  0.4733
  851MOL0     H14818   1.706   4.300   4.439 -0.5451  0.8490  1.4433
  851MOL0     H14819   1.901   4.281   4.316 -0.9581 -1.7536  1.3213
  851MOL0     H14820   2.119   4.225   4.288  2.1067 -1.6425  1.3493
  851MOL0     H14821   2.154   4.390   4.233  0.0967 -2.8154 -3.0899
  851MOL0     H14822   2.337   4.212   4.201 -5.2673 -0.9750  0.1740
  851MOL0     H14823   2.356   4.204   4.366 -2.3211 -0.9136  0.1091
  851MOL0     H14824   2.394   4.460   4.375 -0.8818 -1.8156  0.2153
  851MOL0     H14825   2.400   4.473   4.204  0.4601  0.4105  0.5586
  851MOL0     H14826   2.628   4.455   4.290  1.1609 -0.3205 -1.9594
  851MOL0     H14827   2.598   4.297   4.344  2.5353 -0.9543 -0.7870
  851MOL0     H14828   2.570   4.211   4.117 -1.2238 -1.2296  2.6368
  851MOL0     H14829   2.548   4.383   4.056 -1.1016 -0.4672  0.4275
  851MOL0     H14830   2.783   4.418   4.158 -0.3865 -0.4055  0.7860
  851MOL0     H14831   2.795   4.235   4.150 -0.1525 -1.4903 -1.5854
  851MOL0     H14832   2.762   4.417   3.906  0.5445  0.9119  2.3921
  851MOL0     H14833   2.764   4.246   3.906 -0.0523  0.5364 -0.0671
  851MOL0     H14834   3.007   4.434   3.986 -0.8623  1.6315 -2.1283
  851MOL0     H14835   3.014   4.261   3.995 -1.3114  0.4220 -0.5659
  851MOL0     H14836   2.939   4.136   3.733  1.0944  0.1701  1.6056
  851MOL0     H14837   2.884   4.147   3.480 -1.5048  0.0326 -1.7301
  851MOL0     H14838   2.886   4.297   3.411  0.4728 -1.5998 -0.9946
  851MOL0     H14839   3.053   4.165   3.269  0.5778 -0.6698 -0.6813
  851MOL0     H14840   3.132   4.279   3.367  0.8724  0.0406  4.0776
  851MOL0     H14841   3.201   4.108   3.520  1.2410  1.5214 -0.6443
  851MOL0     H14842   3.239   4.042   3.365  0.9916  0.5257  0.0602
  851MOL0     H14843   2.972   3.961   3.429 -2.0359  1.0189  2.0357
  851MOL0     H14844   3.036   3.965   3.587 -0.4956 -2.2994  0.4272
  851MOL0     H14845   3.247   3.622   3.393  0.4873 -1.8965  0.7363
  851MOL0     H14846   3.463   3.529   3.464 -1.2708  0.2986 -1.2302
  851MOL0     H14847   3.803   3.830   3.952 -0.3563 -0.5368  0.2942
  851MOL0     H14848   4.010   3.805   4.039  0.2599  1.1514  0.3817
  851MOL0     H14849   4.111   3.612   4.145 -0.5653  0.2566 -2.5636
  851MOL0     H14850   4.273   3.518   4.121  3.5781  1.9146  1.4526
  851MOL0     H14851   4.381   3.717   4.060  0.7534 -2.1077 -0.2828
  851MOL0     H14852   4.241   3.821   4.099 -0.9469 -1.8122 -1.8284
  851MOL0     H14853   4.360   3.858   4.271 -1.0354 -0.9697 -1.8433
  851MOL0     H14854   4.279   3.706   4.339  0.9922  1.2522  2.1444
  851MOL0     H14855   4.478   3.580   4.257  3.1460 -0.6364 -0.1997
  851MOL0     H14856   4.502   3.689   4.396  0.5918 -0.6424  0.2126
  851MOL0     H14857   4.600   3.859   4.220  3.1004 -0.4342  1.7613
  851MOL0     H14858   4.603   3.742   4.107  1.5363  0.6208  0.7575
  851MOL0     H14859   4.733   3.702   4.372  1.4273 -0.8810 -0.2464
  851MOL0     H14860   4.755   3.590   4.240  0.2366 -0.2997 -0.0165
  851MOL0     H14861   4.837   3.768   4.094 -2.1025 -0.4027  0.8134
  851MOL0     H14862   4.950   3.727   4.204 -0.3582 -0.0094 -2.2248
  851MOL0     H14863   4.969   3.971   4.221  0.2423 -1.3767  1.2473
  851MOL0     H14864   4.796   3.996   4.206 -2.3420 -1.8695 -0.4593
  851MOL0     H14865   4.113   3.520   3.753 -0.2412  0.9419 -0.3953
  851MOL0     H14866   3.908   3.559   3.625  5.7082 -0.7638 -0.7263
  851MOL0     H14867   3.492   3.861   3.751 -0.3480  0.2012 -0.5620
  851MOL0     H14868   3.301   3.962   3.640  1.2830  1.5468 -1.6196
  851MOL0     H14869   2.119   4.458   4.646  0.7895  1.5178 -2.4295
  851MOL0     H14870   1.874   4.531   4.740  2.9264 -0.7155  1.8751
  851MOL0     H14871   1.447   4.466   4.768 -1.8555 -0.9993  1.7982
  851MOL0     H14872   1.261   4.561   4.898 -0.0728  0.4561 -0.4981
  851MOL0     H14873   1.126   4.989   4.849  0.3822  1.0602  0.1993
  851MOL0     H14874   1.265   4.972   4.961  0.8781 -1.6908  0.3939
  851MOL0     H14875   1.128   4.893   5.135  3.0023 -0.2488 -2.7314
  851MOL0     H14876   0.985   4.885   5.021 -0.5599  0.6075 -4.5753
  851MOL0     H14877   0.996   5.119   4.982  1.3280  0.7270 -0.3129
  851MOL0     H14878   1.150   5.140   5.062 -0.4172  1.4096 -2.5352
  851MOL0     H14879   0.952   5.243   5.176  1.5500  0.8599  1.0341
  851MOL0     H14880   0.867   5.094   5.185  0.5741 -0.6765  0.6864
  851MOL0     H14881   1.123   5.150   5.533  2.2796  1.3158 -1.7461
  851MOL0     H14882   1.300   4.929   4.712 -4.0253 -1.0197 -0.9353
  851MOL0     H14883   1.632   4.894   4.562  0.2289  4.8040 -0.9092
  851MOL0     H14884   1.470   4.935   4.499 -1.2814  3.0679  2.4013
  851MOL0     H14885   1.535   4.991   4.650 -2.3861 -1.4082  1.0570
  852MOL0     O14886   5.969   6.915   8.896 -0.1633  0.0390  0.0039
  852MOL0     C14887   6.044   6.920   8.998  0.3632  0.7797  0.1464
  852MOL0     O14888   6.009   6.875   9.118  0.4420  0.1196  0.0274
  852MOL0     C14889   5.877   6.885   9.167 -0.2674  0.1841  0.6637
  852MOL0     C14890   5.756   6.923   9.103  0.0532  0.3705  0.7346
  852MOL0     C14891   5.642   6.929   9.180  0.5647 -0.8590  0.4306
  852MOL0     C14892   5.648   6.907   9.317 -0.2943 -0.7726 -0.4958
  852MOL0     O14893   5.535   6.926   9.393 -0.1111 -0.4196  0.7338
  852MOL0     C14894   5.432   7.019   9.365  0.4466  0.0579  0.2897
  852MOL0     C14895   5.298   6.950   9.368  0.1343  1.2036  0.1182
  852MOL0     C14896   5.180   7.046   9.354  0.2616  0.6971  0.0449
  852MOL0     C14897   5.148   7.121   9.492  0.8748  0.3977  0.2111
  852MOL0     C14898   5.092   7.029   9.602  0.4474 -0.7651  0.0617
  852MOL0     C14899   4.936   7.032   9.592 -0.5159  0.8096 -0.1081
  852MOL0     C14900   4.860   6.999   9.726  0.7433  0.0169  0.4965
  852MOL0     C14901   4.718   7.042   9.698  0.8526  0.3545 -0.2134
  852MOL0     N14902   4.633   7.045   9.827 -0.1264  0.0483 -0.0155
  852MOL0     C14903   4.539   6.943   9.860  0.2773  0.3203  0.5817
  852MOL0     C14904   4.481   6.993   9.967  0.0086  0.4027 -0.0668
  852MOL0     C14905   4.377   6.916  10.049 -0.2277  0.3078  0.4870
  852MOL0     C14906   4.240   6.916   9.973  0.0630  0.8067 -0.5967
  852MOL0     C14907   4.121   6.983  10.045 -0.0995 -0.4734 -1.0612
  852MOL0     C14908   4.157   7.118  10.104 -0.2989 -0.4334  0.1600
  852MOL0     O14909   4.033   7.182  10.141 -0.3436  0.3784  0.1967
  852MOL0     C14910   4.038   7.301  10.207 -0.3469 -0.5180  0.3457
  852MOL0     C14911   4.152   7.390  10.214 -0.8472  1.0725  0.0452
  852MOL0     C14912   4.136   7.526  10.259 -0.4889  1.3498 -1.2979
  852MOL0     C14913   4.019   7.577  10.307 -0.0275  0.0534  0.8584
  852MOL0     C14914   4.010   7.719  10.332  0.4176  1.3479  0.4088
  852MOL0     O14915   3.889   7.769  10.361  0.8669  0.2238  0.9969
  852MOL0     C14916   3.875   7.898  10.394  0.0760 -0.0342  0.1599
  852MOL0     C14917   3.940   8.004  10.314  0.1246  0.0127  0.2793
  852MOL0     C14918   3.913   8.142  10.330  1.0994 -0.0719  0.2581
  852MOL0     C14919   3.818   8.178  10.432 -0.2303 -0.4788 -0.2075
  852MOL0     O14920   3.770   8.307  10.455  0.0195 -0.3654 -0.2174
  852MOL0     C14921   3.830   8.415  10.383  0.0993 -1.0083  0.3120
  852MOL0     C14922   3.751   8.538  10.396  0.4425 -0.1558 -1.5748
  852MOL0     C14923   3.798   8.629  10.513 -0.0890  0.3942 -0.2310
  852MOL0     C14924   3.720   8.758  10.500 -0.4629 -0.6974 -0.1085
  852MOL0     C14925   3.734   8.834  10.635  0.1733 -0.8210 -0.6160
  852MOL0     C14926   3.677   8.970  10.632 -0.3526  0.0542  0.2576
  852MOL0     C14927   3.535   8.983  10.572  0.2758  0.7768 -0.5926
  852MOL0     C14928   3.511   8.991  10.415 -0.1809 -0.2435  0.3855
  852MOL0    Cl14929   3.340   9.032  10.372 -0.2613  0.4297  0.7319
  852MOL0     C14930   3.756   8.077  10.502 -0.3201  0.4272 -0.4280
  852MOL0     C14931   3.777   7.932  10.484 -0.0769  0.4908 -0.8307
  852MOL0     O14932   4.111   7.783  10.327  0.8588  0.2971 -0.5001
  852MOL0     C14933   3.905   7.493  10.297  0.1865  0.3251  0.6850
  852MOL0     C14934   3.918   7.356  10.255 -0.0246  0.1100  0.6073
  852MOL0     N14935   4.522   7.124   9.991 -0.7530 -0.8195  0.6094
  852MOL0     N14936   4.610   7.158   9.894  0.4162 -0.2893 -0.0413
  852MOL0     C14937   5.768   6.874   9.386 -0.2761 -0.5002 -0.0725
  852MOL0     C14938   5.880   6.870   9.304 -0.0408 -0.5661 -0.1176
  852MOL0     C14939   6.187   6.958   8.997 -0.0048 -0.3042  0.6621
  852MOL0     C14940   6.282   6.873   9.061  1.0508 -0.4173 -0.1179
  852MOL0     C14941   6.414   6.914   9.087 -0.8927 -0.2505  0.4601
  852MOL0     C14942   6.465   7.038   9.034  0.1549 -0.7529 -0.9315
  852MOL0     O14943   6.598   7.061   9.048  0.3649  0.4068 -0.3481
  852MOL0     C14944   6.640   7.192   9.029 -0.0447  0.1363  0.4894
  852MOL0     C14945   6.780   7.221   9.083  0.1396 -0.7519 -0.9520
  852MOL0     C14946   6.798   7.372   9.099 -0.8300  0.4339  0.4477
  852MOL0     C14947   6.873   7.417   9.219 -0.3267  0.2742  0.0724
  852MOL0     C14948   7.013   7.371   9.221 -0.8751 -0.3506 -0.6212
  852MOL0     C14949   7.133   7.345   9.237 -0.2304  0.4085 -0.1288
  852MOL0     C14950   6.368   7.114   8.962 -0.2072 -0.4335  0.2652
  852MOL0     C14951   6.236   7.077   8.941 -0.4550  0.5815 -0.1972
  852MOL0     C14952   6.149   7.169   8.869 -0.1973  0.4635 -0.2973
  852MOL0     H14953   5.758   6.962   9.002 -0.2672  0.9969  0.9640
  852MOL0     H14954   5.551   6.966   9.132 -0.0295 -0.5652  1.7563
  852MOL0     H14955   5.438   7.094   9.444 -0.6915 -0.2873  0.7364
  852MOL0     H14956   5.450   7.079   9.276  0.0259  0.6937  0.6248
  852MOL0     H14957   5.297   6.892   9.461  1.4691  0.4242 -0.3285
  852MOL0     H14958   5.291   6.876   9.288  1.1143  0.6009  0.5760
  852MOL0     H14959   5.091   6.990   9.324  1.8310 -1.7895 -0.3232
  852MOL0     H14960   5.212   7.115   9.276 -0.1986 -0.5929 -1.3335
  852MOL0     H14961   5.244   7.156   9.530  2.0734  0.6649 -2.7902
  852MOL0     H14962   5.093   7.212   9.464 -0.4399 -0.0480  1.2709
  852MOL0     H14963   5.124   6.926   9.591  1.5482 -0.3812 -0.4019
  852MOL0     H14964   5.133   7.050   9.701  0.2292 -0.5733  0.1133
  852MOL0     H14965   4.908   7.128   9.547  0.0263  1.2911  0.5551
  852MOL0     H14966   4.911   6.953   9.522 -1.0185 -0.7306  1.7189
  852MOL0     H14967   4.895   7.041   9.821 -1.6739  0.5569  1.2049
  852MOL0     H14968   4.845   6.891   9.738 -0.1426  0.1391  0.5326
  852MOL0     H14969   4.717   7.130   9.633  1.6832 -1.4866 -2.9038
  852MOL0     H14970   4.670   6.965   9.636 -1.9116  4.4532 -3.6861
  852MOL0     H14971   4.523   6.848   9.809 -1.9223  1.2346 -0.5575
  852MOL0     H14972   4.398   6.809  10.059  1.5311  0.4902 -0.7771
  852MOL0     H14973   4.370   6.957  10.150 -3.5258  1.8067 -0.2126
  852MOL0     H14974   4.259   6.965   9.877  0.6732  0.2177 -0.7847
  852MOL0     H14975   4.220   6.812   9.948  1.4037  0.7198 -1.3892
  852MOL0     H14976   4.080   6.920  10.124 -4.0447  0.0113 -2.5108
  852MOL0     H14977   4.036   6.996   9.977 -1.5514  2.7607  1.1007
  852MOL0     H14978   4.205   7.179  10.027 -1.9460  1.6537  0.6909
  852MOL0     H14979   4.223   7.115  10.192 -0.8028 -0.0526  0.5580
  852MOL0     H14980   4.235   7.349  10.158 -2.9843  2.2713 -4.3928
  852MOL0     H14981   4.227   7.584  10.252  0.4567  0.0135 -0.6129
  852MOL0     H14982   4.009   7.968  10.239  0.4830 -1.4901  1.2997
  852MOL0     H14983   3.953   8.210  10.256 -1.1996  1.0732 -0.0048
  852MOL0     H14984   3.930   8.429  10.424  0.2346  2.3966 -0.8837
  852MOL0     H14985   3.842   8.382  10.279 -1.0628 -2.1721  0.5126
  852MOL0     H14986   3.744   8.598  10.305 -0.7697  2.2477 -0.0072
  852MOL0     H14987   3.650   8.508  10.427  0.9198 -0.8031 -0.6083
  852MOL0     H14988   3.782   8.577  10.608 -2.6030  0.2622 -0.6688
  852MOL0     H14989   3.905   8.638  10.494 -0.6991  2.2859 -3.6384
  852MOL0     H14990   3.615   8.737  10.476  0.2097  0.5996 -5.0768
  852MOL0     H14991   3.763   8.823  10.424  1.2685 -3.2027 -1.4079
  852MOL0     H14992   3.839   8.846  10.664 -0.4275  0.1731  1.2585
  852MOL0     H14993   3.688   8.784  10.720  0.8851 -1.8930 -0.8392
  852MOL0     H14994   3.682   9.014  10.732  1.3830  0.7258 -0.0998
  852MOL0     H14995   3.750   9.033  10.581  0.4594 -1.5652 -0.6700
  852MOL0     H14996   3.496   9.080  10.607 -0.1757  0.4492 -0.1719
  852MOL0     H14997   3.470   8.903  10.608  0.3213  1.1628  0.3977
  852MOL0     H14998   3.564   9.073  10.366  0.9935 -3.4146 -4.3451
  852MOL0     H14999   3.537   8.902  10.356 -4.1361 -1.6531  0.5282
  852MOL0     H15000   3.699   8.119  10.585  0.6530 -0.4278  0.7143
  852MOL0     H15001   3.714   7.859  10.534  1.7712 -1.0936 -0.6812
  852MOL0     H15002   3.808   7.538  10.312  1.1911  2.9714 -0.1861
  852MOL0     H15003   3.836   7.287  10.266  2.7892 -3.4124  1.4778
  852MOL0     H15004   5.763   6.867   9.494 -1.5918 -1.5458 -0.1684
  852MOL0     H15005   5.977   6.850   9.348 -1.3968 -2.4774  2.2243
  852MOL0     H15006   6.243   6.775   9.087 -1.4836  0.3843 -0.6391
  852MOL0     H15007   6.491   6.849   9.129  1.3598  1.7562 -0.3314
  852MOL0     H15008   6.572   7.256   9.086  1.7767 -0.0257  3.0586
  852MOL0     H15009   6.641   7.227   8.926  2.9914  1.2566  0.7873
  852MOL0     H15010   6.855   7.166   9.024 -1.6693 -4.3638 -0.2058
  852MOL0     H15011   6.795   7.177   9.182 -0.4766 -0.7565 -0.8561
  852MOL0     H15012   6.699   7.416   9.103 -1.3574 -0.7995  1.6268
  852MOL0     H15013   6.847   7.397   9.005 -1.7396  0.0526 -0.1393
  852MOL0     H15014   6.864   7.526   9.217 -1.8167  0.1675 -0.0940
  852MOL0     H15015   6.823   7.389   9.312  0.3804  0.0092  0.3859
  852MOL0     H15016   7.229   7.305   9.262 -1.0972 -1.6132  0.2069
  852MOL0     H15017   6.398   7.208   8.916 -0.8897  0.0742  0.8201
  852MOL0     H15018   6.218   7.220   8.801  0.4782 -2.1339 -1.6956
  852MOL0     H15019   6.075   7.112   8.811  1.0870 -2.4682  0.7854
  852MOL0     H15020   6.111   7.246   8.938  3.1724  1.3093  0.7995
  853MOL0     O15021  10.128   7.079   9.736 -0.5148 -0.1371 -0.7044
  853MOL0     C15022  10.221   7.046   9.817 -0.4626  0.3262  0.3864
  853MOL0     O15023  10.359   7.050   9.794  0.0754 -0.4366  0.2403
  853MOL0     C15024  10.398   7.096   9.670  0.2323 -1.1848  0.5525
  853MOL0     C15025  10.508   7.179   9.676  0.0368 -0.8493 -0.0726
  853MOL0     C15026  10.570   7.223   9.555 -0.0905 -0.4706  0.1029
  853MOL0     C15027  10.517   7.189   9.434 -0.2735 -0.2623  0.3205
  853MOL0     O15028  10.576   7.228   9.320 -0.2576 -0.6268  0.0354
  853MOL0     C15029  10.651   7.349   9.316 -0.0302  0.2855  0.0516
  853MOL0     C15030  10.634   7.411   9.174 -0.2890  0.0969  0.9283
  853MOL0     C15031  10.741   7.507   9.143  0.4518  0.2961 -0.1306
  853MOL0     C15032  10.698   7.633   9.071 -0.2096 -0.0347 -0.6705
  853MOL0     C15033  10.809   7.739   9.047 -0.1952  0.0775  0.3755
  853MOL0     C15034  10.877   7.790   9.172 -0.5374 -0.5835  0.0639
  853MOL0     C15035  11.002   7.873   9.124  0.3920 -0.2186  0.1185
  853MOL0     C15036  11.080   7.921   9.248  0.4238  0.0923  0.2151
  853MOL0     N15037  10.990   7.982   9.355 -0.7918  0.3576 -0.0437
  853MOL0     C15038  10.969   8.120   9.379 -0.3676  0.5153  1.1323
  853MOL0     C15039  10.916   8.127   9.499  0.1956  0.2632  0.4809
  853MOL0     C15040  10.864   8.242   9.573  0.2983 -0.0940  0.3982
  853MOL0     C15041  10.944   8.373   9.574  0.7725  0.8074 -0.1885
  853MOL0     C15042  11.081   8.367   9.646  0.7811  0.3939  0.8793
  853MOL0     C15043  11.192   8.347   9.541  0.4047  0.2242  0.4985
  853MOL0     O15044  11.319   8.348   9.603  0.4096  0.2058 -0.6845
  853MOL0     C15045  11.431   8.337   9.528 -0.5969 -0.4066 -0.9683
  853MOL0     C15046  11.549   8.301   9.590 -1.1419  0.4966 -0.2858
  853MOL0     C15047  11.675   8.283   9.525  0.5794 -0.4210  0.2130
  853MOL0     C15048  11.673   8.305   9.386 -0.1664  0.1652  0.3712
  853MOL0     C15049  11.800   8.295   9.311 -0.5550 -0.8473 -0.3634
  853MOL0     O15050  11.901   8.256   9.388  0.6196 -0.4913  0.6241
  853MOL0     C15051  12.025   8.226   9.336 -0.0121 -0.4535  0.6004
  853MOL0     C15052  12.089   8.302   9.231  0.0814  0.6101  0.0844
  853MOL0     C15053  12.211   8.270   9.178 -0.2534  0.0961 -0.0697
  853MOL0     C15054  12.285   8.169   9.231 -0.3317  0.3661 -0.0481
  853MOL0     O15055  12.408   8.158   9.179 -0.7318 -0.1661  0.1420
  853MOL0     C15056  12.494   8.050   9.216 -0.0131 -0.2462  0.6380
  853MOL0     C15057  12.603   8.092   9.310 -0.5350 -1.7708  0.4164
  853MOL0     C15058  12.558   8.159   9.435 -0.3322 -0.2837 -0.6297
  853MOL0     C15059  12.675   8.170   9.537  0.0045 -0.5088  0.5930
  853MOL0     C15060  12.625   8.263   9.637  0.4035  0.0730 -0.7946
  853MOL0     C15061  12.733   8.294   9.735  0.3115 -0.8072  0.0795
  853MOL0     C15062  12.695   8.416   9.819  0.7637  0.1649 -0.4034
  853MOL0     C15063  12.815   8.480   9.904  1.0638  0.1601  0.0722
  853MOL0    Cl15064  12.840   8.371  10.034 -0.1933  0.5125  0.2438
  853MOL0     C15065  12.233   8.103   9.340  0.2370 -0.1492 -0.3251
  853MOL0     C15066  12.100   8.126   9.386 -0.5697  0.4221  0.1690
  853MOL0     O15067  11.797   8.291   9.188  1.0119  0.3572  0.5764
  853MOL0     C15068  11.556   8.348   9.323 -0.6606 -0.1295 -0.4457
  853MOL0     C15069  11.430   8.357   9.390 -0.6927 -0.2525  0.7513
  853MOL0     N15070  10.891   7.995   9.540 -0.0333 -0.3576  0.8110
  853MOL0     N15071  10.943   7.909   9.453 -0.4180  0.1325 -1.1210
  853MOL0     C15072  10.398   7.110   9.427 -0.2663  0.4854 -0.0264
  853MOL0     C15073  10.336   7.067   9.549  0.4237 -0.4001  0.5731
  853MOL0     C15074  10.186   6.965   9.946 -0.0792  0.3661  0.0233
  853MOL0     C15075  10.280   6.891  10.009 -0.4407 -0.1221 -0.4730
  853MOL0     C15076  10.251   6.797  10.113 -0.1362  0.0439  0.9538
  853MOL0     C15077  10.127   6.793  10.167 -0.2695  0.2351  0.1806
  853MOL0     O15078  10.101   6.703  10.263  0.3538  0.0338 -0.3255
  853MOL0     C15079   9.978   6.706  10.338 -0.1608 -0.7769 -0.2763
  853MOL0     C15080   9.980   6.581  10.437  0.2660 -0.2259  0.4941
  853MOL0     C15081   9.854   6.503  10.450  0.6376 -0.9793  0.1620
  853MOL0     C15082   9.814   6.434  10.318 -0.2270  0.8243  0.4285
  853MOL0     C15083   9.707   6.340  10.320 -0.5402 -0.2194 -0.8888
  853MOL0     C15084   9.626   6.258  10.322  0.3631  0.4737  0.2090
  853MOL0     C15085  10.033   6.878  10.108 -0.0582  1.0229 -1.1871
  853MOL0     C15086  10.056   6.972  10.010  0.1940 -0.2647  0.1526
  853MOL0     C15087   9.945   7.061   9.965 -0.1644 -0.1219 -0.4650
  853MOL0     H15088  10.547   7.215   9.771  0.6916 -3.3637  0.6917
  853MOL0     H15089  10.652   7.290   9.576 -1.7800  1.5034  0.7575
  853MOL0     H15090  10.621   7.427   9.386 -1.2986 -1.3211  1.3627
  853MOL0     H15091  10.754   7.319   9.338 -0.6033 -0.4983  1.8588
  853MOL0     H15092  10.529   7.435   9.154 -0.3568 -1.8581 -1.8381
  853MOL0     H15093  10.652   7.330   9.102  0.3529  0.5396  0.5847
  853MOL0     H15094  10.811   7.452   9.080 -1.3554  0.4098 -2.3475
  853MOL0     H15095  10.797   7.537   9.232  1.1561 -3.3200  0.8272
  853MOL0     H15096  10.653   7.610   8.974 -0.5532  0.3271 -0.6024
  853MOL0     H15097  10.615   7.683   9.122 -1.7871 -1.4731 -1.7159
  853MOL0     H15098  10.880   7.689   8.982  0.4951  0.6602  0.6673
  853MOL0     H15099  10.760   7.827   9.004 -0.8004  0.6853  2.1808
  853MOL0     H15100  10.805   7.857   9.221  0.3420 -0.7651  1.6772
  853MOL0     H15101  10.913   7.715   9.242  3.4748 -1.0034 -2.1738
  853MOL0     H15102  10.965   7.960   9.070  0.5789 -0.4647 -0.4151
  853MOL0     H15103  11.072   7.817   9.061  0.8853  0.3887  0.1175
  853MOL0     H15104  11.133   7.831   9.280  0.9605 -0.5212 -2.1994
  853MOL0     H15105  11.159   7.991   9.222 -0.1366  0.6945  0.1054
  853MOL0     H15106  10.993   8.198   9.308  1.1260 -2.8286 -2.4567
  853MOL0     H15107  10.763   8.268   9.541  0.0192  2.0789  2.7402
  853MOL0     H15108  10.854   8.205   9.676 -0.7393 -0.3922  0.2032
  853MOL0     H15109  10.959   8.392   9.467  1.5871 -3.3257 -0.9808
  853MOL0     H15110  10.879   8.449   9.620 -0.3111  0.2255 -0.7235
  853MOL0     H15111  11.074   8.283   9.716  0.7792 -0.5928 -0.2682
  853MOL0     H15112  11.089   8.456   9.708  0.3515  0.5619  0.7010
  853MOL0     H15113  11.177   8.429   9.470  1.1130  1.3271  1.5773
  853MOL0     H15114  11.165   8.251   9.498  2.4854 -1.9678  3.6123
  853MOL0     H15115  11.556   8.277   9.696  0.8850 -0.8815 -0.6703
  853MOL0     H15116  11.773   8.257   9.564 -0.0936 -0.0742  2.2047
  853MOL0     H15117  12.038   8.389   9.191 -0.0075  1.2368  1.4808
  853MOL0     H15118  12.250   8.326   9.094 -0.4063 -1.5753 -1.3124
  853MOL0     H15119  12.435   7.970   9.261 -0.4081 -1.4601 -1.8281
  853MOL0     H15120  12.526   8.005   9.121  0.4238  0.5404  0.4091
  853MOL0     H15121  12.666   8.009   9.344  1.6521 -0.0306  0.8813
  853MOL0     H15122  12.670   8.158   9.253 -1.7273 -1.2539 -0.4195
  853MOL0     H15123  12.539   8.262   9.404  0.9143 -0.9576 -4.1176
  853MOL0     H15124  12.469   8.110   9.474 -0.9022  1.2261  0.0563
  853MOL0     H15125  12.762   8.201   9.479  0.8330 -2.9396  0.3929
  853MOL0     H15126  12.707   8.075   9.582 -1.8753 -1.3508  0.2633
  853MOL0     H15127  12.543   8.211   9.688  1.7982 -0.0496  1.4136
  853MOL0     H15128  12.585   8.356   9.595 -0.2150  2.3782  4.2635
  853MOL0     H15129  12.744   8.211   9.806  0.1975  0.3055  1.4392
  853MOL0     H15130  12.825   8.316   9.679 -1.1826  1.7503 -1.5632
  853MOL0     H15131  12.617   8.397   9.895  2.0923 -1.3914  0.6421
  853MOL0     H15132  12.661   8.495   9.750 -2.2968 -0.1164  0.6113
  853MOL0     H15133  12.907   8.489   9.846  0.3219  2.4550 -0.8391
  853MOL0     H15134  12.786   8.581   9.935 -2.0208 -0.2765 -1.0457
  853MOL0     H15135  12.282   8.022   9.392 -0.2267  0.2140  0.7057
  853MOL0     H15136  12.069   8.053   9.460 -4.9812 -1.9957 -3.5998
  853MOL0     H15137  11.554   8.374   9.218  1.4220 -0.3517 -0.5786
  853MOL0     H15138  11.345   8.380   9.328 -0.5619  0.2518  0.7586
  853MOL0     H15139  10.353   7.085   9.331  2.1514 -0.0681 -1.0848
  853MOL0     H15140  10.247   7.005   9.552 -1.0640  1.5907 -0.1406
  853MOL0     H15141  10.372   6.871   9.954 -1.3592 -1.2510 -1.6532
  853MOL0     H15142  10.325   6.726  10.148  1.5309  0.8964 -0.6328
  853MOL0     H15143   9.891   6.717  10.272  0.2775  0.5553 -0.6577
  853MOL0     H15144   9.988   6.792  10.405  2.7423 -2.1819  1.2387
  853MOL0     H15145  10.008   6.626  10.533 -0.1124 -0.5387  0.7557
  853MOL0     H15146  10.057   6.505  10.420  0.4845 -0.1574  1.1471
  853MOL0     H15147   9.770   6.566  10.482 -1.1840 -3.3471  0.3541
  853MOL0     H15148   9.850   6.427  10.528 -3.8971 -1.6178 -0.3888
  853MOL0     H15149   9.763   6.505  10.252 -0.8619  0.4127  0.4692
  853MOL0     H15150   9.900   6.386  10.272 -1.6401 -0.4402 -1.0087
  853MOL0     H15151   9.561   6.174  10.313 -0.4386  1.0819  0.1756
  853MOL0     H15152   9.929   6.869  10.136  0.4173  0.8099  0.6641
  853MOL0     H15153   9.868   7.071  10.042  1.5997  1.6740  1.2275
  853MOL0     H15154   9.985   7.163   9.961  1.3654 -0.7124 -0.8877
  853MOL0     H15155   9.903   7.021   9.873 -1.0504  0.7501 -0.4584
  854MOL0     O15156   7.805   1.902   1.434  0.0809 -0.7402  0.2168
  854MOL0     C15157   7.718   1.805   1.429 -0.3597 -0.3540 -0.4408
  854MOL0     O15158   7.736   1.683   1.470 -0.6666  0.2846  1.1322
  854MOL0     C15159   7.864   1.626   1.462  0.4119  1.1366 -0.8507
  854MOL0     C15160   7.938   1.598   1.578  0.3446 -0.1604 -0.9086
  854MOL0     C15161   8.063   1.537   1.571  0.2872  0.3218  0.0547
  854MOL0     C15162   8.123   1.493   1.452 -0.3165 -0.3793  0.8765
  854MOL0     O15163   8.249   1.439   1.453 -0.6462 -0.9617 -0.1664
  854MOL0     C15164   8.354   1.494   1.359 -0.1854 -0.3080 -0.3030
  854MOL0     C15165   8.467   1.536   1.444 -0.9344 -0.1299  0.3561
  854MOL0     C15166   8.583   1.619   1.373  0.4662 -0.1565 -0.6822
  854MOL0     C15167   8.533   1.764   1.352 -0.4124 -0.6816 -0.8818
  854MOL0     C15168   8.653   1.860   1.312 -0.9260 -0.8551 -0.6221
  854MOL0     C15169   8.584   2.002   1.288 -0.1436  0.6358  0.4326
  854MOL0     C15170   8.687   2.112   1.259 -0.5150  0.1511  0.1569
  854MOL0     C15171   8.634   2.245   1.307  0.1969  0.6678  1.0092
  854MOL0     N15172   8.659   2.254   1.455  0.4883  1.0215  0.2765
  854MOL0     C15173   8.785   2.277   1.511  0.3618 -0.4467  0.2299
  854MOL0     C15174   8.755   2.316   1.638  0.1526  1.0503  0.0899
  854MOL0     C15175   8.840   2.364   1.753 -0.4785 -0.2296 -0.4980
  854MOL0     C15176   8.876   2.517   1.762 -0.4315 -0.0500  0.3305
  854MOL0     C15177   8.753   2.608   1.767  0.0377 -0.5198  0.3965
  854MOL0     C15178   8.807   2.755   1.751  0.7579  1.3854 -0.3521
  854MOL0     O15179   8.734   2.852   1.832  0.5011  0.4279  0.5004
  854MOL0     C15180   8.775   2.872   1.958  0.0851 -0.3779  0.6264
  854MOL0     C15181   8.726   2.984   2.024  0.3531 -0.0533 -0.1915
  854MOL0     C15182   8.759   3.011   2.157  0.6060  0.3070  0.3541
  854MOL0     C15183   8.844   2.935   2.232  0.0473 -0.6549  0.3806
  854MOL0     C15184   8.854   2.968   2.382 -0.1732 -0.0765  0.1815
  854MOL0     O15185   8.947   2.886   2.445 -0.2254  1.1552  0.6169
  854MOL0     C15186   8.993   2.938   2.568  0.4015  0.4919 -0.0599
  854MOL0     C15187   9.111   3.015   2.563  0.4462  0.0934 -0.7992
  854MOL0     C15188   9.153   3.082   2.681 -0.1692  0.1202  0.2159
  854MOL0     C15189   9.084   3.061   2.804 -0.7062 -0.6667  1.0174
  854MOL0     O15190   9.135   3.102   2.925 -0.0443  0.0366  1.0067
  854MOL0     C15191   9.088   3.238   2.946 -0.6554  0.1285  0.2878
  854MOL0     C15192   9.156   3.294   3.066  0.8593  0.6860 -0.7785
  854MOL0     C15193   9.099   3.425   3.099  0.0830 -0.7451 -0.2337
  854MOL0     C15194   9.176   3.484   3.224 -0.1671 -0.1957  0.3633
  854MOL0     C15195   9.182   3.642   3.200  0.3947 -0.5159  0.8612
  854MOL0     C15196   9.261   3.708   3.316  0.0510  0.2698 -1.6016
  854MOL0     C15197   9.293   3.854   3.294  0.4471 -0.0809 -0.7880
  854MOL0     C15198   9.396   3.879   3.191  0.1180  0.0595 -0.8111
  854MOL0    Cl15199   9.546   3.786   3.232 -0.6139  0.2880 -0.3313
  854MOL0     C15200   8.971   2.987   2.803 -0.5398  0.0150  0.8078
  854MOL0     C15201   8.915   2.936   2.687 -0.2313  0.3145  0.2991
  854MOL0     O15202   8.803   3.065   2.438  0.1231 -0.3034 -0.1386
  854MOL0     C15203   8.908   2.829   2.166  1.4141 -0.0814  0.2465
  854MOL0     C15204   8.880   2.805   2.026 -0.1145 -0.7235 -0.0297
  854MOL0     N15205   8.616   2.311   1.657 -0.2657 -0.7861 -0.9593
  854MOL0     N15206   8.559   2.266   1.554  0.0200  0.5347  0.4675
  854MOL0     C15207   8.049   1.514   1.334  0.3374  0.3252 -0.2772
  854MOL0     C15208   7.919   1.569   1.343 -0.7458 -0.2871 -0.2306
  854MOL0     C15209   7.583   1.850   1.384 -0.6781  0.5188 -0.5546
  854MOL0     C15210   7.479   1.758   1.420  0.4038  0.8352 -0.1741
  854MOL0     C15211   7.348   1.778   1.371 -0.3529 -0.7229 -0.0874
  854MOL0     C15212   7.323   1.887   1.287 -0.4087  0.2694 -0.8780
  854MOL0     O15213   7.201   1.931   1.251  0.1163  0.1541 -0.7142
  854MOL0     C15214   7.153   1.862   1.136  0.0734 -0.5736 -0.8401
  854MOL0     C15215   7.179   1.945   1.016  0.2282  0.6283 -0.4148
  854MOL0     C15216   7.148   1.868   0.887  0.3917  0.2839  0.4698
  854MOL0     C15217   7.165   1.955   0.761 -0.1298  0.8086  0.7627
  854MOL0     C15218   7.311   1.942   0.716 -0.3896 -0.4352  0.2819
  854MOL0     C15219   7.429   1.926   0.690 -0.0563 -0.7507  0.2482
  854MOL0     C15220   7.428   1.972   1.260 -0.2958 -0.1150  0.0508
  854MOL0     C15221   7.555   1.961   1.309  0.3405  0.1464 -0.5522
  854MOL0     C15222   7.644   2.077   1.273 -0.0667  0.6888 -0.0436
  854MOL0     H15223   7.901   1.631   1.675 -0.3655  0.3673 -1.3417
  854MOL0     H15224   8.128   1.521   1.656  2.7488  0.5170 -1.6805
  854MOL0     H15225   8.381   1.412   1.292  4.4758  1.0429 -0.4723
  854MOL0     H15226   8.323   1.582   1.302  0.0190 -0.4418 -0.6267
  854MOL0     H15227   8.517   1.448   1.485  0.9571 -0.7008 -2.7923
  854MOL0     H15228   8.430   1.575   1.539  1.6010 -1.5263  2.0446
  854MOL0     H15229   8.610   1.575   1.277 -0.6061  0.6594 -1.3710
  854MOL0     H15230   8.678   1.617   1.428  1.7099  1.4306 -2.6272
  854MOL0     H15231   8.470   1.754   1.264  1.5135 -2.5948 -2.1287
  854MOL0     H15232   8.480   1.804   1.440 -1.2598  0.3482 -1.8311
  854MOL0     H15233   8.731   1.861   1.388  1.9580 -1.1806 -3.3870
  854MOL0     H15234   8.707   1.814   1.229 -0.5319 -2.6895  0.5847
  854MOL0     H15235   8.521   1.992   1.199  0.9960  0.6202 -0.3998
  854MOL0     H15236   8.527   2.031   1.377  0.2143 -1.3908  1.3971
  854MOL0     H15237   8.723   2.104   1.157  4.0147 -4.5586  1.6811
  854MOL0     H15238   8.773   2.092   1.324 -0.2789 -1.0352 -0.4886
  854MOL0     H15239   8.702   2.313   1.254  0.5695 -0.0078  0.6136
  854MOL0     H15240   8.529   2.268   1.284  0.3876 -0.0851 -0.8104
  854MOL0     H15241   8.867   2.278   1.441  0.1427  0.8471 -0.0316
  854MOL0     H15242   8.780   2.338   1.840  0.8545 -0.6097  0.3460
  854MOL0     H15243   8.932   2.303   1.756  1.2098  2.1963  1.5561
  854MOL0     H15244   8.922   2.538   1.859 -0.5788 -1.8097  0.8075
  854MOL0     H15245   8.948   2.556   1.690 -0.6106  0.8065  0.6028
  854MOL0     H15246   8.688   2.593   1.853 -2.0374 -0.1315 -1.0297
  854MOL0     H15247   8.694   2.581   1.679  4.0590  1.8600 -3.4464
  854MOL0     H15248   8.788   2.784   1.647 -0.0926 -0.3516 -0.7175
  854MOL0     H15249   8.916   2.766   1.756  0.8111  0.3521  2.6454
  854MOL0     H15250   8.653   3.053   1.983  2.4655  1.6384 -1.3075
  854MOL0     H15251   8.697   3.084   2.207  0.3955 -0.4346  1.2043
  854MOL0     H15252   9.157   3.045   2.470  1.8906  2.0486  0.4935
  854MOL0     H15253   9.244   3.141   2.674  0.3285 -0.6683 -0.0888
  854MOL0     H15254   9.116   3.295   2.858 -0.1228  0.2270  0.5187
  854MOL0     H15255   8.979   3.242   2.955 -0.5795  0.0507  1.3863
  854MOL0     H15256   9.137   3.233   3.155 -0.8441  1.3723 -0.6189
  854MOL0     H15257   9.265   3.294   3.054  0.8884 -2.2444 -1.2298
  854MOL0     H15258   9.135   3.480   3.012  2.1851 -1.7265 -0.0335
  854MOL0     H15259   8.991   3.426   3.119  0.2798  0.1917  0.9498
  854MOL0     H15260   9.280   3.450   3.234 -0.2339 -0.4944  0.0577
  854MOL0     H15261   9.130   3.465   3.322  2.0519 -1.6228  1.2273
  854MOL0     H15262   9.080   3.678   3.184  0.0954 -0.4923  2.6516
  854MOL0     H15263   9.223   3.663   3.101 -1.9708 -1.1719 -0.3314
  854MOL0     H15264   9.201   3.709   3.407  0.8596 -1.0826 -1.0330
  854MOL0     H15265   9.354   3.652   3.329 -0.7268 -1.0050 -1.4070
  854MOL0     H15266   9.325   3.897   3.389 -0.5887  1.9733 -1.2836
  854MOL0     H15267   9.206   3.913   3.263  0.1174 -0.2044 -0.1107
  854MOL0     H15268   9.365   3.852   3.089  0.0856 -0.1218 -0.7547
  854MOL0     H15269   9.413   3.986   3.198 -0.5618  0.1687 -0.7997
  854MOL0     H15270   8.925   2.951   2.894 -0.3993 -0.5449  0.6596
  854MOL0     H15271   8.830   2.869   2.679  0.5880 -0.7159 -0.0098
  854MOL0     H15272   8.976   2.764   2.220  1.7621  0.3117  0.2955
  854MOL0     H15273   8.935   2.718   1.993  2.6492  0.2289  1.7457
  854MOL0     H15274   8.092   1.483   1.240 -1.2174 -0.9315 -0.6197
  854MOL0     H15275   7.860   1.574   1.252  0.6881  3.5148 -1.1238
  854MOL0     H15276   7.508   1.667   1.473 -0.2561 -1.2801 -3.1691
  854MOL0     H15277   7.268   1.707   1.390  0.7061 -2.5935 -2.1862
  854MOL0     H15278   7.046   1.841   1.147 -0.5101  2.1151 -0.6326
  854MOL0     H15279   7.204   1.766   1.128  4.0102  1.1827  0.5268
  854MOL0     H15280   7.285   1.975   1.016 -0.0952  1.9113  1.2604
  854MOL0     H15281   7.112   2.030   1.031 -2.3719 -1.7229  2.9241
  854MOL0     H15282   7.043   1.837   0.888 -0.0649  1.6297 -1.3915
  854MOL0     H15283   7.209   1.777   0.876  2.3862  1.4940  1.0282
  854MOL0     H15284   7.104   1.918   0.679  1.3412 -0.2228  0.0823
  854MOL0     H15285   7.142   2.060   0.781  2.4080  2.1893 -2.6130
  854MOL0     H15286   7.520   1.878   0.660 -1.1533 -2.7380 -0.0909
  854MOL0     H15287   7.397   2.057   1.200  1.2082  0.3279 -0.1496
  854MOL0     H15288   7.605   2.173   1.308  0.2069  0.6379  0.4116
  854MOL0     H15289   7.750   2.074   1.297 -0.6153  0.9962  2.7128
  854MOL0     H15290   7.640   2.085   1.164 -0.3068 -1.7385 -0.2728
  855MOL0     O15291   5.279   8.219   5.883  0.1837  0.3493 -0.3686
  855MOL0     C15292   5.235   8.130   5.961  0.2177 -0.0954  0.4979
  855MOL0     O15293   5.298   8.094   6.079 -0.3736  0.2985  0.0908
  855MOL0     C15294   5.407   8.181   6.112 -0.6632  0.9878  0.1899
  855MOL0     C15295   5.403   8.290   6.208  0.0145 -0.0876 -0.5368
  855MOL0     C15296   5.510   8.380   6.214 -0.4061 -0.3004  0.4064
  855MOL0     C15297   5.627   8.357   6.133 -0.1384  0.0268 -0.4962
  855MOL0     O15298   5.723   8.452   6.129  0.3727  0.5923  0.3642
  855MOL0     C15299   5.778   8.497   6.258  0.4335  0.7218 -0.7930
  855MOL0     C15300   5.837   8.377   6.351  0.8801 -0.1066 -0.0319
  855MOL0     C15301   5.974   8.329   6.302 -0.0654  1.3783  0.0385
  855MOL0     C15302   6.084   8.434   6.327 -0.0526  1.0424 -0.8555
  855MOL0     C15303   6.214   8.364   6.357  0.6960 -0.9462 -0.4351
  855MOL0     C15304   6.320   8.444   6.433  0.2562 -1.2362  1.0976
  855MOL0     C15305   6.462   8.376   6.424  0.3197  0.3400  0.3455
  855MOL0     C15306   6.572   8.444   6.496 -0.0271  0.5163 -0.2662
  855MOL0     N15307   6.690   8.360   6.474  0.4820 -0.5987 -0.9406
  855MOL0     C15308   6.761   8.357   6.350  0.4899 -0.3176  0.2887
  855MOL0     C15309   6.880   8.308   6.384  0.1856  0.8149  0.7200
  855MOL0     C15310   7.009   8.294   6.310  0.6042  0.7016  0.8888
  855MOL0     C15311   7.007   8.368   6.173 -0.3653 -0.4791  0.6726
  855MOL0     C15312   6.980   8.283   6.041  0.9460  0.9465  0.3371
  855MOL0     C15313   6.839   8.219   6.026  0.2909  0.6729 -0.4535
  855MOL0     O15314   6.817   8.115   6.128 -0.1521 -0.2819  0.6463
  855MOL0     C15315   6.679   8.081   6.119 -0.2245  0.2910  0.6840
  855MOL0     C15316   6.611   8.086   6.232  0.0159  0.1686 -0.3318
  855MOL0     C15317   6.475   8.045   6.238  0.7246 -1.3571  0.0777
  855MOL0     C15318   6.408   8.015   6.117  0.0965  0.1585 -0.2139
  855MOL0     C15319   6.273   7.964   6.124 -0.5949 -0.8018  0.3296
  855MOL0     O15320   6.215   7.969   6.255 -0.3609  0.6996  0.1820
  855MOL0     C15321   6.079   7.937   6.275 -0.8493 -0.4573  0.8677
  855MOL0     C15322   6.043   7.827   6.352  0.9658 -0.5774 -0.3794
  855MOL0     C15323   5.910   7.805   6.381 -0.3179  0.1875 -0.6903
  855MOL0     C15324   5.819   7.888   6.326 -0.2592 -0.1744  0.5052
  855MOL0     O15325   5.691   7.861   6.366 -0.4635  0.3146 -0.0408
  855MOL0     C15326   5.585   7.954   6.325 -0.1916  0.6719 -0.6689
  855MOL0     C15327   5.441   7.928   6.383 -1.3010 -0.0870  0.5222
  855MOL0     C15328   5.376   7.802   6.327  0.0147 -0.4116  0.2918
  855MOL0     C15329   5.239   7.770   6.385 -0.1808  0.5566 -0.4036
  855MOL0     C15330   5.228   7.621   6.435 -0.3127 -0.6470 -0.5072
  855MOL0     C15331   5.229   7.524   6.321  0.3749 -0.7590  0.5819
  855MOL0     C15332   5.246   7.376   6.348  0.2995 -0.1536  0.3761
  855MOL0     C15333   5.121   7.318   6.435 -0.3810 -0.4727 -0.5589
  855MOL0    Cl15334   4.963   7.383   6.386 -0.2383 -0.3863  0.3050
  855MOL0     C15335   5.850   7.989   6.235 -1.0709  0.3056  0.4357
  855MOL0     C15336   5.977   8.022   6.216  0.2243  0.0462 -0.3165
  855MOL0     O15337   6.214   7.937   6.017 -0.1770 -0.6848 -0.0991
  855MOL0     C15338   6.478   8.025   5.998  0.2784  1.0689  0.5626
  855MOL0     C15339   6.618   8.051   5.999 -0.4728 -0.1341  0.3533
  855MOL0     N15340   6.879   8.284   6.520  0.5135 -0.3335 -0.8805
  855MOL0     N15341   6.765   8.311   6.571 -0.1933 -0.1348 -1.0913
  855MOL0     C15342   5.635   8.247   6.047  0.0854 -0.0025 -0.8204
  855MOL0     C15343   5.529   8.162   6.038 -0.6409  0.8761  0.5046
  855MOL0     C15344   5.105   8.072   5.934  0.0750 -0.3948 -0.5067
  855MOL0     C15345   5.005   8.070   6.033 -0.0719 -0.0388  1.3030
  855MOL0     C15346   4.875   8.031   6.007 -0.8121  0.5528 -0.7179
  855MOL0     C15347   4.839   7.998   5.879  1.5023 -0.2046 -0.3967
  855MOL0     O15348   4.710   7.972   5.850  0.5218  0.0705  0.3795
  855MOL0     C15349   4.634   7.880   5.927 -0.4424  0.7618  0.0667
  855MOL0     C15350   4.560   7.773   5.850  1.3037 -1.5382  0.6424
  855MOL0     C15351   4.421   7.816   5.789 -1.0509 -0.8847 -0.1098
  855MOL0     C15352   4.340   7.700   5.730  0.2040 -0.8030 -0.3285
  855MOL0     C15353   4.418   7.631   5.621 -0.1468 -0.5894  0.1373
  855MOL0     C15354   4.491   7.583   5.537 -0.3233 -0.0041  0.0518
  855MOL0     C15355   4.931   7.999   5.779  0.1450  0.5727 -0.4495
  855MOL0     C15356   5.070   8.030   5.808 -0.9852  0.9882  0.5152
  855MOL0     C15357   5.166   8.011   5.683 -0.1644 -0.6919  0.5559
  855MOL0     H15358   5.311   8.310   6.262  0.6854  2.5641 -0.2192
  855MOL0     H15359   5.507   8.467   6.280 -2.6537 -1.0642  1.4036
  855MOL0     H15360   5.862   8.566   6.247  2.0488 -1.2665 -1.6213
  855MOL0     H15361   5.705   8.553   6.317 -2.0922 -0.6955 -2.3643
  855MOL0     H15362   5.767   8.293   6.359  1.6409 -0.7151  0.4138
  855MOL0     H15363   5.840   8.414   6.454 -2.0386 -2.1733  0.9294
  855MOL0     H15364   5.975   8.303   6.196 -1.1869  1.0024  0.1095
  855MOL0     H15365   5.999   8.241   6.363 -0.7437  0.6759 -0.6800
  855MOL0     H15366   6.105   8.499   6.242 -2.3669  1.6216 -1.0618
  855MOL0     H15367   6.053   8.495   6.412 -1.2737  0.7982 -1.1000
  855MOL0     H15368   6.207   8.271   6.415 -0.2794 -0.3197  0.4913
  855MOL0     H15369   6.234   8.332   6.254  0.7021 -0.6450 -0.5260
  855MOL0     H15370   6.328   8.547   6.398  2.4980 -1.0700  1.9065
  855MOL0     H15371   6.291   8.451   6.538 -1.4590  0.6139  0.5552
  855MOL0     H15372   6.492   8.370   6.319  0.9681  3.8927  0.2254
  855MOL0     H15373   6.445   8.275   6.464  0.5217  0.8668  1.8110
  855MOL0     H15374   6.583   8.541   6.446 -0.8767  0.3150 -0.8510
  855MOL0     H15375   6.537   8.449   6.600 -1.2865 -0.0311 -0.6429
  855MOL0     H15376   6.725   8.395   6.255  0.4702  0.5350  0.6278
  855MOL0     H15377   7.073   8.340   6.385 -1.4329 -0.4688  3.5476
  855MOL0     H15378   7.036   8.193   6.277 -3.8323  0.7731 -4.6463
  855MOL0     H15379   6.934   8.449   6.169 -0.6130 -0.7586 -1.6113
  855MOL0     H15380   7.103   8.420   6.173  0.4148 -1.8001 -1.1287
  855MOL0     H15381   7.054   8.204   6.024 -1.8955 -1.4754 -1.9643
  855MOL0     H15382   6.995   8.352   5.958  3.0044 -1.5203 -1.5145
  855MOL0     H15383   6.833   8.180   5.925 -1.9413  0.9375 -0.4568
  855MOL0     H15384   6.772   8.305   6.033  0.3296  0.7237 -0.7012
  855MOL0     H15385   6.665   8.110   6.323  1.0264  1.6350 -1.2634
  855MOL0     H15386   6.446   8.046   6.343  2.8357 -1.1623  0.7154
  855MOL0     H15387   6.113   7.764   6.406 -1.4418 -1.3765  2.0247
  855MOL0     H15388   5.885   7.725   6.451  0.5346  0.4753 -0.0407
  855MOL0     H15389   5.622   8.051   6.358 -0.8958  0.5511  0.5355
  855MOL0     H15390   5.577   7.957   6.216  0.4947  0.9206 -0.7181
  855MOL0     H15391   5.465   7.916   6.489 -0.9784  1.9872  0.7367
  855MOL0     H15392   5.379   8.016   6.364  0.8923  1.2632 -0.8581
  855MOL0     H15393   5.381   7.803   6.217  0.2300 -2.1479  0.2592
  855MOL0     H15394   5.447   7.725   6.357  2.2478  1.7007  0.7473
  855MOL0     H15395   5.162   7.789   6.309 -1.3362  0.1542  0.6480
  855MOL0     H15396   5.218   7.830   6.474 -2.0586 -2.3173  1.2486
  855MOL0     H15397   5.136   7.611   6.494 -1.5883  0.6894 -2.1618
  855MOL0     H15398   5.306   7.587   6.504 -0.0785  0.8676  0.0257
  855MOL0     H15399   5.139   7.543   6.262  0.3143  1.4922  1.3238
  855MOL0     H15400   5.312   7.558   6.259  0.9051  0.6388  1.9978
  855MOL0     H15401   5.337   7.350   6.402  0.1362 -0.7666  0.3660
  855MOL0     H15402   5.245   7.326   6.251 -0.4319 -0.1360  0.3656
  855MOL0     H15403   5.126   7.209   6.440 -1.1229 -0.4632  0.7548
  855MOL0     H15404   5.135   7.349   6.539  2.1998 -1.7657 -0.4478
  855MOL0     H15405   5.771   8.047   6.189  0.0042  1.1358 -0.4229
  855MOL0     H15406   6.016   8.096   6.146  1.3010  0.8066  1.0157
  855MOL0     H15407   6.431   7.994   5.906  0.7952 -0.9668  0.9402
  855MOL0     H15408   6.674   8.036   5.908 -1.5895  0.7323 -0.5088
  855MOL0     H15409   5.711   8.250   5.969  0.0046  3.9641 -0.9494
  855MOL0     H15410   5.532   8.086   5.960 -2.1069  0.8267  0.4719
  855MOL0     H15411   5.026   8.107   6.133 -1.1691  1.7459  0.9170
  855MOL0     H15412   4.808   8.027   6.093  0.9564 -0.3478  0.6980
  855MOL0     H15413   4.567   7.943   5.986  0.9618  1.8469  0.5908
  855MOL0     H15414   4.703   7.821   5.988 -0.6022 -0.9317 -1.3334
  855MOL0     H15415   4.545   7.691   5.921  0.2609 -2.2645 -0.3692
  855MOL0     H15416   4.615   7.722   5.771 -0.3804 -2.2969 -0.0966
  855MOL0     H15417   4.438   7.900   5.721  1.0055 -0.4214  0.9018
  855MOL0     H15418   4.363   7.861   5.871  0.4157 -0.1263  0.5448
  855MOL0     H15419   4.308   7.643   5.818 -0.6295  0.2874  0.1061
  855MOL0     H15420   4.248   7.741   5.688  0.4422  1.1831  0.9453
  855MOL0     H15421   4.544   7.538   5.455 -0.9454 -0.1686 -0.2646
  855MOL0     H15422   4.899   7.967   5.680  0.7320 -2.5016  0.2543
  855MOL0     H15423   5.140   7.913   5.642 -2.9527  0.7762 -1.5150
  855MOL0     H15424   5.143   8.083   5.605  2.9636 -0.2756 -0.0968
  855MOL0     H15425   5.268   8.033   5.717 -2.1469  2.1843  5.9060
  856MOL0     O15426   9.337  11.422   2.496 -0.0021  0.5044  0.1860
  856MOL0     C15427   9.292  11.416   2.381  1.6390  0.7105 -0.8325
  856MOL0     O15428   9.307  11.512   2.287 -0.4824  0.3555 -0.2949
  856MOL0     C15429   9.420  11.600   2.293  0.9939  0.3330 -0.6608
  856MOL0     C15430   9.421  11.707   2.375 -0.3198  0.7749 -0.6057
  856MOL0     C15431   9.529  11.798   2.377  0.2885 -0.3945  0.1210
  856MOL0     C15432   9.644  11.769   2.305  0.5625  0.0029 -0.3906
  856MOL0     O15433   9.749  11.850   2.337  0.3494  0.4240 -0.8894
  856MOL0     C15434   9.878  11.783   2.345  0.2711 -0.5631  0.1427
  856MOL0     C15435   9.958  11.889   2.407 -0.9445 -1.2066 -0.9502
  856MOL0     C15436  10.101  11.836   2.414 -0.2999  0.3821  0.1202
  856MOL0     C15437  10.185  11.803   2.287 -0.8477  0.7812 -0.5077
  856MOL0     C15438  10.317  11.747   2.341 -0.7318 -0.0310  0.3151
  856MOL0     C15439  10.426  11.751   2.237  0.2744  0.2602 -0.0829
  856MOL0     C15440  10.545  11.678   2.300 -0.7485 -0.7740  0.0041
  856MOL0     C15441  10.668  11.681   2.205 -0.9829  0.6272 -0.3163
  856MOL0     N15442  10.791  11.674   2.289 -1.3443  0.4245  0.4921
  856MOL0     C15443  10.848  11.782   2.361  0.4119  0.1632  0.0970
  856MOL0     C15444  10.951  11.718   2.431 -0.4491 -0.0451 -0.4098
  856MOL0     C15445  11.049  11.769   2.533  0.1875 -0.4074 -0.3403
  856MOL0     C15446  11.124  11.887   2.482  0.3712 -0.4897 -0.2283
  856MOL0     C15447  11.227  11.951   2.581  0.2055 -0.0436  1.0404
  856MOL0     C15448  11.346  12.012   2.507 -0.0687 -0.8841  0.2677
  856MOL0     O15449  11.423  11.902   2.460 -0.0042 -0.1247 -0.2194
  856MOL0     C15450  11.553  11.945   2.435 -0.5174  0.3024  0.4780
  856MOL0     C15451  11.576  11.961   2.298 -0.9952  0.5768 -0.7610
  856MOL0     C15452  11.699  12.010   2.259 -0.5457 -0.5423  0.0864
  856MOL0     C15453  11.792  12.060   2.349 -0.0670 -0.7467 -1.0870
  856MOL0     C15454  11.923  12.114   2.299  0.2955  0.4672 -0.9862
  856MOL0     O15455  11.983  12.064   2.186  0.3348 -0.3556 -0.7659
  856MOL0     C15456  12.078  12.143   2.126  0.6367 -0.4682  0.2821
  856MOL0     C15457  12.203  12.156   2.180 -0.2268  0.3101 -0.0117
  856MOL0     C15458  12.295  12.255   2.137  0.1148 -0.4161 -0.3433
  856MOL0     C15459  12.255  12.336   2.028  0.3913  0.2467 -0.4519
  856MOL0     O15460  12.322  12.435   1.964 -0.1503 -0.4883 -0.1362
  856MOL0     C15461  12.461  12.411   1.939 -0.1415 -0.1914 -0.6260
  856MOL0     C15462  12.521  12.519   2.022  0.3610 -0.2875 -1.0925
  856MOL0     C15463  12.671  12.534   2.011  0.6493 -1.0346  0.3631
  856MOL0     C15464  12.714  12.674   2.059 -0.0766 -0.6993 -0.2209
  856MOL0     C15465  12.858  12.676   2.094 -0.0429  0.3706  0.4439
  856MOL0     C15466  12.950  12.676   1.971  0.4501  0.3694  0.4576
  856MOL0     C15467  12.927  12.799   1.883  0.4634  0.2655 -0.0371
  856MOL0     C15468  13.055  12.826   1.807  0.6150 -0.2794  0.3907
  856MOL0    Cl15469  13.202  12.895   1.902 -0.1989 -0.0198  0.5216
  856MOL0     C15470  12.142  12.301   1.954 -0.2398 -0.0240 -0.7669
  856MOL0     C15471  12.056  12.199   2.005  0.8730 -0.5817 -0.4693
  856MOL0     O15472  11.982  12.195   2.373  0.7216  0.1305 -0.0344
  856MOL0     C15473  11.766  12.058   2.494  0.5932  0.5133 -0.0950
  856MOL0     C15474  11.647  11.991   2.532  1.3463 -0.3050  0.6465
  856MOL0     N15475  10.938  11.589   2.411 -0.6811  0.3065  0.2459
  856MOL0     N15476  10.854  11.561   2.326  0.8684  0.3177 -0.6811
  856MOL0     C15477   9.649  11.650   2.222  0.0874 -0.6310  0.5606
  856MOL0     C15478   9.537  11.566   2.214  0.3121 -0.2317  0.8266
  856MOL0     C15479   9.203  11.307   2.347 -0.4612 -0.2753 -0.6344
  856MOL0     C15480   9.127  11.315   2.229  0.0762  0.1982 -0.5346
  856MOL0     C15481   9.043  11.209   2.197 -0.0145 -0.0246 -0.6314
  856MOL0     C15482   9.022  11.094   2.275  0.0376  0.5730  0.3387
  856MOL0     O15483   8.935  10.995   2.222  0.1824 -0.1524  0.9539
  856MOL0     C15484   8.938  10.866   2.291 -0.1344 -0.7704 -0.0981
  856MOL0     C15485   8.862  10.753   2.212  0.1404 -1.0666  0.4725
  856MOL0     C15486   8.897  10.764   2.060  0.0001  0.2612 -0.0359
  856MOL0     C15487   8.824  10.637   1.993  0.1110  0.4727 -0.0594
  856MOL0     C15488   8.706  10.693   1.917 -0.1810  0.5087  0.4352
  856MOL0     C15489   8.608  10.738   1.851 -0.4441 -0.0105  1.6524
  856MOL0     C15490   9.093  11.091   2.394  0.4989  0.6098  0.0205
  856MOL0     C15491   9.191  11.188   2.420 -0.0685 -0.0290 -0.4435
  856MOL0     C15492   9.272  11.154   2.544 -0.0263 -0.7211 -1.0149
  856MOL0     H15493   9.333  11.719   2.438  1.5705 -0.5403  2.5318
  856MOL0     H15494   9.526  11.887   2.438 -0.8014 -1.1217  1.1569
  856MOL0     H15495   9.877  11.688   2.401 -0.6202 -0.9281 -0.4680
  856MOL0     H15496   9.905  11.757   2.243 -0.7367 -0.7543 -0.0888
  856MOL0     H15497   9.924  11.900   2.510  1.5583 -3.9713  0.3196
  856MOL0     H15498   9.948  11.986   2.358  0.1164 -0.6227 -0.0512
  856MOL0     H15499  10.097  11.745   2.475  0.3428  0.9792  1.0789
  856MOL0     H15500  10.160  11.896   2.484  0.9872 -0.8768  0.1520
  856MOL0     H15501  10.130  11.730   2.227 -0.4131 -0.4353  0.5425
  856MOL0     H15502  10.200  11.891   2.224  1.8784  2.4426  2.2016
  856MOL0     H15503  10.364  11.805   2.421 -0.0470 -2.5417  1.8326
  856MOL0     H15504  10.293  11.649   2.383  3.1491 -0.3262  2.2350
  856MOL0     H15505  10.396  11.696   2.147 -2.9736  2.7337 -0.6977
  856MOL0     H15506  10.444  11.849   2.192  0.3809  0.0679 -0.4633
  856MOL0     H15507  10.528  11.574   2.328  1.5564 -1.2222 -0.1169
  856MOL0     H15508  10.572  11.734   2.391 -0.3460 -2.2316  0.8105
  856MOL0     H15509  10.651  11.595   2.140 -1.9806 -0.4992  1.3683
  856MOL0     H15510  10.675  11.776   2.150  2.5525  1.1786  0.8915
  856MOL0     H15511  10.801  11.880   2.367 -0.8648 -0.4828  4.2786
  856MOL0     H15512  10.990  11.799   2.620 -0.5835  0.2767 -1.0860
  856MOL0     H15513  11.113  11.686   2.567  1.8381  0.8994 -0.1289
  856MOL0     H15514  11.171  11.849   2.391 -0.7205 -2.0101 -0.2025
  856MOL0     H15515  11.060  11.974   2.465 -0.4579 -1.0535 -0.0650
  856MOL0     H15516  11.265  11.872   2.646 -0.8577 -2.5763 -1.2219
  856MOL0     H15517  11.170  12.028   2.634  1.4146  0.3631  1.7951
  856MOL0     H15518  11.402  12.077   2.575 -1.1094 -1.0627  1.3265
  856MOL0     H15519  11.314  12.072   2.422 -1.7613 -2.2549 -0.1228
  856MOL0     H15520  11.498  11.934   2.228  0.1142 -1.4205 -1.2987
  856MOL0     H15521  11.711  12.004   2.151 -0.7275  0.9015 -0.0405
  856MOL0     H15522  12.239  12.104   2.268 -0.8387 -1.1346 -0.5880
  856MOL0     H15523  12.393  12.279   2.177  0.1604  1.4454 -1.4817
  856MOL0     H15524  12.505  12.314   1.967  0.4089 -0.0774 -1.0786
  856MOL0     H15525  12.494  12.435   1.838  4.4651  3.9462  1.4296
  856MOL0     H15526  12.480  12.618   2.003 -1.5801 -0.3275  2.0332
  856MOL0     H15527  12.489  12.487   2.122 -2.2647  2.2062 -1.0042
  856MOL0     H15528  12.728  12.468   2.077  0.1491 -0.6268  1.2334
  856MOL0     H15529  12.710  12.523   1.910 -0.4775 -2.1069  0.0216
  856MOL0     H15530  12.655  12.695   2.149 -1.5944 -2.5365 -0.7104
  856MOL0     H15531  12.691  12.750   1.983  1.7072  2.5151  2.1947
  856MOL0     H15532  12.877  12.595   2.165  1.2551 -0.9038 -1.2524
  856MOL0     H15533  12.886  12.769   2.145 -1.2108 -0.0617  1.9157
  856MOL0     H15534  13.049  12.672   2.017  0.8196 -0.0926 -0.3573
  856MOL0     H15535  12.927  12.578   1.929  1.1963  0.1480  0.5509
  856MOL0     H15536  12.901  12.879   1.953 -0.3290 -2.0508  2.4782
  856MOL0     H15537  12.850  12.758   1.817  2.3339 -1.3108 -1.3826
  856MOL0     H15538  13.094  12.735   1.759  1.3823 -0.3981  1.2169
  856MOL0     H15539  13.039  12.898   1.726  1.2200 -0.3797  0.1696
  856MOL0     H15540  12.127  12.358   1.863  1.0367  1.0028 -0.3604
  856MOL0     H15541  11.972  12.179   1.940  2.0515 -0.6387 -2.0488
  856MOL0     H15542  11.828  12.105   2.570 -0.9474  1.8989  0.3734
  856MOL0     H15543  11.618  11.975   2.636  0.1613 -3.6022 -0.0785
  856MOL0     H15544   9.744  11.629   2.173  0.8007  2.5214  0.3685
  856MOL0     H15545   9.533  11.478   2.151 -0.2726  0.4832 -0.1622
  856MOL0     H15546   9.125  11.401   2.162 -0.2991  3.1880  3.0059
  856MOL0     H15547   8.985  11.208   2.106 -0.0703 -1.0899 -0.5996
  856MOL0     H15548   8.904  10.888   2.393 -0.7107  3.1025 -0.9474
  856MOL0     H15549   9.041  10.830   2.298 -0.3560 -1.1541  1.4901
  856MOL0     H15550   8.755  10.760   2.233  0.0934 -0.8953  0.1920
  856MOL0     H15551   8.892  10.653   2.245  2.2904 -0.8722 -0.6998
  856MOL0     H15552   9.006  10.761   2.053  0.2057 -1.9048  2.2459
  856MOL0     H15553   8.853  10.856   2.021  0.9875  0.2247 -1.3115
  856MOL0     H15554   8.890  10.587   1.923  0.6035 -0.8458  1.2968
  856MOL0     H15555   8.781  10.572   2.070 -2.3975  1.1540 -0.7592
  856MOL0     H15556   8.536  10.792   1.793 -0.2991 -0.5722  0.9315
  856MOL0     H15557   9.098  10.997   2.447  0.9748 -0.1404 -1.3022
  856MOL0     H15558   9.380  11.169   2.540 -0.3686  2.1516 -1.3385
  856MOL0     H15559   9.232  11.214   2.626  0.7558 -2.7457  0.9684
  856MOL0     H15560   9.271  11.051   2.581  2.2102  0.4091  2.7500
  857MOL0     O15561   6.164   2.510   9.483  0.2739 -0.5105  0.7880
  857MOL0     C15562   6.069   2.521   9.413 -0.5271  0.5960 -0.2485
  857MOL0     O15563   6.066   2.471   9.282 -0.0578 -0.4196  0.3138
  857MOL0     C15564   6.179   2.425   9.215  0.5385 -0.3091 -0.2686
  857MOL0     C15565   6.170   2.297   9.171  0.9535  0.6660  0.5055
  857MOL0     C15566   6.276   2.234   9.110  0.4455 -0.3433  0.6659
  857MOL0     C15567   6.402   2.305   9.079 -0.0701  0.2066  0.1043
  857MOL0     O15568   6.505   2.241   9.022  0.2016  0.1998  0.2300
  857MOL0     C15569   6.631   2.274   9.059  0.4627  0.9168 -0.8838
  857MOL0     C15570   6.707   2.157   9.031  0.3580 -1.0293  0.0792
  857MOL0     C15571   6.862   2.175   9.047  0.3816 -0.0000 -0.4922
  857MOL0     C15572   6.920   2.051   8.988 -0.0325 -0.1217  0.3974
  857MOL0     C15573   7.073   2.063   8.955  0.1157  1.0478 -0.2314
  857MOL0     C15574   7.113   2.166   8.847  0.3975 -0.0001 -1.2180
  857MOL0     C15575   7.254   2.142   8.791  0.7549 -0.0838 -0.2732
  857MOL0     C15576   7.316   2.271   8.726  0.0200 -0.5942 -0.3184
  857MOL0     N15577   7.454   2.258   8.676 -0.5211  0.2815 -0.2876
  857MOL0     C15578   7.496   2.297   8.554  0.3082  0.2491  0.3066
  857MOL0     C15579   7.630   2.276   8.561  1.2038  1.1743  0.4701
  857MOL0     C15580   7.736   2.302   8.458  0.5297  0.1048 -0.3517
  857MOL0     C15581   7.728   2.453   8.425 -0.2367  0.5045 -0.5171
  857MOL0     C15582   7.820   2.534   8.524 -0.0051  0.0820  0.0314
  857MOL0     C15583   7.804   2.685   8.486 -0.4477 -0.8434 -0.8648
  857MOL0     O15584   7.674   2.735   8.479  0.0498 -1.2877 -0.0253
  857MOL0     C15585   7.583   2.711   8.579  0.4035 -0.0719  0.4204
  857MOL0     C15586   7.612   2.724   8.716  0.3342  0.3625  0.2690
  857MOL0     C15587   7.516   2.691   8.809  0.2973  0.9205  0.3066
  857MOL0     C15588   7.390   2.656   8.776 -0.5036  0.1291  0.3297
  857MOL0     C15589   7.291   2.612   8.871 -0.9435  0.5104  0.2265
  857MOL0     O15590   7.330   2.611   9.003 -0.0936 -0.1963 -1.0173
  857MOL0     C15591   7.238   2.558   9.089 -0.2004  0.6300 -0.5713
  857MOL0     C15592   7.143   2.633   9.159 -0.3096  0.5937  0.3542
  857MOL0     C15593   7.057   2.564   9.256 -0.0555 -0.0318  0.5354
  857MOL0     C15594   7.048   2.427   9.255 -0.8305  0.9317 -1.0380
  857MOL0     O15595   6.974   2.352   9.342 -0.2985 -0.1458  0.2925
  857MOL0     C15596   6.843   2.409   9.373 -0.2975  0.1806 -0.0046
  857MOL0     C15597   6.762   2.308   9.436  0.4030  0.1613  0.4813
  857MOL0     C15598   6.808   2.265   9.569  0.7473  0.5281  0.8219
  857MOL0     C15599   6.691   2.207   9.644  0.9461  0.0106  0.0140
  857MOL0     C15600   6.712   2.190   9.796  0.2140  0.0650  0.1013
  857MOL0     C15601   6.806   2.083   9.845 -0.8216 -0.3270 -0.6586
  857MOL0     C15602   6.766   2.020   9.975  0.3438  0.0515 -0.1290
  857MOL0     C15603   6.808   2.106  10.103 -0.1348  0.2165  1.1134
  857MOL0    Cl15604   6.790   1.983  10.222 -0.3564  0.8837  0.1819
  857MOL0     C15605   7.145   2.362   9.187 -0.1675 -1.0421 -0.7319
  857MOL0     C15606   7.238   2.420   9.105 -0.3684 -0.1412 -0.0373
  857MOL0     O15607   7.185   2.567   8.826 -0.7615  0.1984  0.1380
  857MOL0     C15608   7.352   2.650   8.639  0.2570 -0.1554 -0.1394
  857MOL0     C15609   7.454   2.678   8.543  0.4302 -0.2587  0.1170
  857MOL0     N15610   7.664   2.218   8.687  0.4280  0.9878 -0.2049
  857MOL0     N15611   7.555   2.214   8.753  0.4056  0.2236 -0.5163
  857MOL0     C15612   6.404   2.442   9.121  0.5655  0.6089 -0.4816
  857MOL0     C15613   6.299   2.502   9.192 -0.3913  0.4632  0.2788
  857MOL0     C15614   5.939   2.557   9.475  0.9798 -0.5797 -0.9124
  857MOL0     C15615   5.816   2.507   9.427  0.0356 -0.5754  0.4848
  857MOL0     C15616   5.702   2.545   9.495 -0.5565 -0.5719 -0.6883
  857MOL0     C15617   5.701   2.629   9.617 -0.0574 -0.6030 -0.1006
  857MOL0     O15618   5.595   2.672   9.696 -0.3069  0.0909  0.4766
  857MOL0     C15619   5.468   2.610   9.661 -0.2369 -0.1954  0.1902
  857MOL0     C15620   5.398   2.676   9.541  0.0226 -1.1595 -0.0096
  857MOL0     C15621   5.274   2.596   9.496  0.0894  0.4524 -0.0087
  857MOL0     C15622   5.147   2.614   9.573  0.8936  0.4081  0.0560
  857MOL0     C15623   5.108   2.756   9.554  0.1872  0.0189  0.4005
  857MOL0     C15624   5.104   2.876   9.532  0.5430  0.0381  0.2822
  857MOL0     C15625   5.827   2.680   9.657 -0.1147  0.5452  0.8325
  857MOL0     C15626   5.942   2.646   9.590  0.5203  0.4367 -0.4810
  857MOL0     C15627   6.062   2.732   9.627 -0.1345 -0.1409  0.1860
  857MOL0     H15628   6.091   2.226   9.193  2.1583 -1.6951 -2.2399
  857MOL0     H15629   6.275   2.127   9.092 -0.9880 -0.4346  1.1278
  857MOL0     H15630   6.675   2.356   9.002 -1.5017  2.6696  0.0291
  857MOL0     H15631   6.626   2.298   9.166 -1.4629 -0.8850 -0.5114
  857MOL0     H15632   6.686   2.136   8.926 -1.9354  3.6979 -0.6587
  857MOL0     H15633   6.684   2.074   9.099  0.2481 -1.7840 -0.8548
  857MOL0     H15634   6.894   2.194   9.150 -1.1742  1.5033 -0.2272
  857MOL0     H15635   6.874   2.265   8.987  3.0170  0.0040 -0.0461
  857MOL0     H15636   6.901   1.965   9.053 -1.9907  0.0083  0.0578
  857MOL0     H15637   6.865   2.031   8.896 -1.5730  1.8418  0.8095
  857MOL0     H15638   7.120   2.095   9.049  0.1002  1.1099 -0.2448
  857MOL0     H15639   7.106   1.965   8.919  1.0275  1.8190 -1.5965
  857MOL0     H15640   7.048   2.148   8.761 -0.1151 -0.4702 -0.7453
  857MOL0     H15641   7.113   2.267   8.888 -1.0266 -0.4415 -0.0236
  857MOL0     H15642   7.239   2.067   8.713 -1.0374  0.4599 -0.4809
  857MOL0     H15643   7.323   2.103   8.867 -1.6592 -2.8516  0.6724
  857MOL0     H15644   7.243   2.320   8.661 -0.3503 -2.4288 -1.3727
  857MOL0     H15645   7.328   2.347   8.804 -0.5898 -1.8663  1.0790
  857MOL0     H15646   7.434   2.331   8.471 -0.0280  0.5549  0.6789
  857MOL0     H15647   7.838   2.272   8.484  0.7022  0.6530 -0.3999
  857MOL0     H15648   7.715   2.241   8.369 -1.6850  1.8178 -1.0948
  857MOL0     H15649   7.761   2.468   8.322 -0.7351 -0.8655 -0.9010
  857MOL0     H15650   7.622   2.478   8.433  0.3758  2.8960  1.1493
  857MOL0     H15651   7.926   2.506   8.519  0.8883  2.7198  1.7533
  857MOL0     H15652   7.785   2.506   8.624 -1.4003 -1.0669 -0.7484
  857MOL0     H15653   7.855   2.694   8.389  0.4702 -3.6565 -0.7359
  857MOL0     H15654   7.859   2.741   8.562  1.3679 -2.2315 -1.0841
  857MOL0     H15655   7.718   2.743   8.734  1.4508 -0.1113 -4.3879
  857MOL0     H15656   7.546   2.699   8.913 -0.0731 -1.2234  0.6381
  857MOL0     H15657   7.130   2.741   9.156 -1.9347  0.4646  1.4429
  857MOL0     H15658   6.992   2.618   9.324 -0.8387 -0.1164 -0.1224
  857MOL0     H15659   6.859   2.492   9.442  0.3438 -1.6600  2.1878
  857MOL0     H15660   6.809   2.444   9.275 -0.2638  0.9735  0.2558
  857MOL0     H15661   6.660   2.348   9.441 -0.0644 -0.5272 -2.0316
  857MOL0     H15662   6.749   2.216   9.379 -2.1994 -1.9704  4.1158
  857MOL0     H15663   6.893   2.197   9.557  0.5592  0.2561  1.0326
  857MOL0     H15664   6.848   2.354   9.620  1.4843 -0.4350  1.9791
  857MOL0     H15665   6.668   2.105   9.612  2.6947 -0.9872  1.6935
  857MOL0     H15666   6.598   2.261   9.627 -0.2283 -1.2047  2.1686
  857MOL0     H15667   6.614   2.181   9.844 -0.1857 -0.2144 -0.7472
  857MOL0     H15668   6.758   2.283   9.829  0.1166  1.0067 -2.2533
  857MOL0     H15669   6.820   2.010   9.765 -2.4813  0.3782 -1.6536
  857MOL0     H15670   6.910   2.118   9.848 -0.4715 -1.2747 -1.1458
  857MOL0     H15671   6.817   1.924   9.978 -1.6333 -1.0903 -1.3837
  857MOL0     H15672   6.659   1.997   9.982  0.4610 -1.0762 -1.6550
  857MOL0     H15673   6.913   2.136  10.095 -0.0862 -0.5394 -2.2686
  857MOL0     H15674   6.739   2.187  10.129 -0.6386 -1.1866  4.6963
  857MOL0     H15675   7.156   2.256   9.167  2.2297 -0.5354 -2.5854
  857MOL0     H15676   7.307   2.368   9.040  0.1931  0.1807  0.2990
  857MOL0     H15677   7.252   2.621   8.609  0.8996 -3.8954  0.7284
  857MOL0     H15678   7.442   2.653   8.438  0.8449 -0.3242  0.0840
  857MOL0     H15679   6.494   2.500   9.108 -0.0464  2.4974  2.5794
  857MOL0     H15680   6.305   2.605   9.225  1.0679  1.0638 -1.6816
  857MOL0     H15681   5.799   2.447   9.338 -1.1113  3.6826 -2.5272
  857MOL0     H15682   5.621   2.483   9.458 -1.6956  0.1999  0.4163
  857MOL0     H15683   5.411   2.626   9.752  0.8529 -0.2861  0.9190
  857MOL0     H15684   5.483   2.502   9.647  0.6794 -0.4791  2.7590
  857MOL0     H15685   5.471   2.672   9.460  0.2649 -0.8752  0.1890
  857MOL0     H15686   5.377   2.779   9.574  1.1557 -0.3354 -1.7377
  857MOL0     H15687   5.294   2.491   9.517  2.9732  1.0929  0.9221
  857MOL0     H15688   5.256   2.612   9.389 -0.0229 -1.2796 -0.2696
  857MOL0     H15689   5.063   2.564   9.523  0.3909  0.7685  0.5269
  857MOL0     H15690   5.151   2.584   9.678 -1.0336  0.4267  0.1697
  857MOL0     H15691   5.110   2.981   9.512 -2.3939  0.5708  1.7324
  857MOL0     H15692   5.829   2.728   9.754  1.2540 -1.2148  1.7213
  857MOL0     H15693   6.038   2.828   9.675 -2.1656 -0.2070 -0.6190
  857MOL0     H15694   6.116   2.669   9.699 -2.7996 -1.3048  1.3005
  857MOL0     H15695   6.109   2.757   9.532 -1.8981  1.6329 -0.2932
  858MOL0     O15696  10.514   5.541   4.224  0.3366 -0.2228 -0.8991
  858MOL0     C15697  10.486   5.645   4.168  0.1968  1.1721  0.4126
  858MOL0     O15698  10.552   5.762   4.170  0.7505  0.0885  0.3227
  858MOL0     C15699  10.662   5.771   4.251 -0.5575  0.1819 -0.6296
  858MOL0     C15700  10.658   5.805   4.388 -0.0072  0.4310 -0.1742
  858MOL0     C15701  10.773   5.821   4.467 -0.2173 -0.6981  0.2310
  858MOL0     C15702  10.902   5.799   4.406  1.1095  0.4053  0.9467
  858MOL0     O15703  11.018   5.808   4.461 -0.7396 -0.4367  0.0028
  858MOL0     C15704  11.037   5.804   4.600  0.3868  0.1175 -0.3845
  858MOL0     C15705  11.016   5.926   4.677  0.3196 -0.3745 -0.2466
  858MOL0     C15706  11.076   6.054   4.609  0.4941  0.0141 -0.1616
  858MOL0     C15707  11.225   6.053   4.619 -0.6955  0.3156 -0.4132
  858MOL0     C15708  11.283   6.073   4.762 -0.1826  0.5389  1.0905
  858MOL0     C15709  11.440   6.058   4.760  0.3802  0.0913 -1.1236
  858MOL0     C15710  11.513   6.098   4.895 -0.9748  0.0957 -0.7305
  858MOL0     C15711  11.488   6.245   4.920 -0.7298 -0.0901  0.9330
  858MOL0     N15712  11.603   6.307   4.990  0.0663 -0.5787 -0.6906
  858MOL0     C15713  11.727   6.355   4.929  0.6490 -0.3503  0.2132
  858MOL0     C15714  11.798   6.414   5.022  0.0079  0.4842 -0.2435
  858MOL0     C15715  11.926   6.491   5.007 -0.8933 -0.3191  0.6538
  858MOL0     C15716  12.023   6.481   5.124 -0.3628 -0.3526  1.1083
  858MOL0     C15717  12.140   6.590   5.103  1.0312 -0.0623 -0.3104
  858MOL0     C15718  12.224   6.604   5.235  0.4745  0.6455 -0.3377
  858MOL0     O15719  12.252   6.471   5.295 -0.0177 -0.2721  0.0806
  858MOL0     C15720  12.385   6.430   5.289 -0.2029 -0.1230 -0.2183
  858MOL0     C15721  12.481   6.480   5.193 -0.7423  0.4125  0.6539
  858MOL0     C15722  12.618   6.440   5.195  0.7031 -0.2400  0.2911
  858MOL0     C15723  12.665   6.347   5.291  0.7162 -0.3663  1.1264
  858MOL0     C15724  12.806   6.309   5.292 -0.5696 -0.2855  1.0990
  858MOL0     O15725  12.831   6.194   5.361  0.3465  0.1684  0.3680
  858MOL0     C15726  12.964   6.159   5.392 -0.2261 -0.7588  0.0153
  858MOL0     C15727  13.027   6.218   5.501  0.3119 -0.2028 -0.3903
  858MOL0     C15728  13.162   6.188   5.530  0.6976 -0.2361  0.5614
  858MOL0     C15729  13.224   6.106   5.439 -0.3894 -0.4407  0.2996
  858MOL0     O15730  13.364   6.085   5.453  0.4714 -0.5006  0.3261
  858MOL0     C15731  13.436   6.205   5.423 -0.3772  0.4730  0.1605
  858MOL0     C15732  13.583   6.188   5.467  0.4471  0.1082  0.1156
  858MOL0     C15733  13.650   6.072   5.383 -0.1304 -0.0922 -0.4291
  858MOL0     C15734  13.799   6.076   5.409 -0.7847 -0.1112  0.9948
  858MOL0     C15735  13.865   5.958   5.340  0.9952  0.6797 -0.3915
  858MOL0     C15736  14.017   5.968   5.367  0.2827  0.1145 -0.0937
  858MOL0     C15737  14.083   5.829   5.353  0.9092 -0.0083 -1.4624
  858MOL0     C15738  14.222   5.848   5.317  0.1447  0.0643  0.7274
  858MOL0    Cl15739  14.296   5.946   5.463  0.2033 -0.1395  0.2668
  858MOL0     C15740  13.164   6.059   5.326  0.0359 -0.6204 -0.3457
  858MOL0     C15741  13.031   6.076   5.304 -0.2977 -0.0785 -0.3293
  858MOL0     O15742  12.889   6.384   5.238 -0.6886  0.4883  0.2432
  858MOL0     C15743  12.572   6.282   5.362  0.0685  0.5835 -0.7612
  858MOL0     C15744  12.437   6.323   5.377  0.2398 -0.5600  0.7132
  858MOL0     N15745  11.729   6.405   5.138 -0.5958 -0.0422 -0.0810
  858MOL0     N15746  11.615   6.340   5.126 -0.7526 -0.2756  0.2197
  858MOL0     C15747  10.901   5.753   4.276  0.6407 -0.0403 -0.9440
  858MOL0     C15748  10.790   5.750   4.200 -0.4498 -0.5591 -0.3320
  858MOL0     C15749  10.356   5.653   4.087  0.5194  0.4442 -0.1445
  858MOL0     C15750  10.295   5.776   4.069  0.3261 -0.4994  0.3477
  858MOL0     C15751  10.168   5.799   4.010  0.2083 -0.2335 -0.3809
  858MOL0     C15752  10.099   5.689   3.961 -0.1114  0.7995  0.1172
  858MOL0     O15753   9.978   5.678   3.900  0.4220 -0.4173 -0.2448
  858MOL0     C15754   9.900   5.800   3.909 -0.0073  0.2877  0.9800
  858MOL0     C15755   9.748   5.769   3.866 -0.0054 -0.0928  0.3584
  858MOL0     C15756   9.658   5.893   3.873  1.0942 -0.1170  0.0507
  858MOL0     C15757   9.531   5.872   3.786 -0.4310 -0.3266  0.2640
  858MOL0     C15758   9.431   5.976   3.789 -0.0079 -0.6991  0.0728
  858MOL0     C15759   9.351   6.068   3.779 -0.2438 -0.0259 -0.3341
  858MOL0     C15760  10.166   5.573   3.966  0.5910 -0.4185  0.8190
  858MOL0     C15761  10.289   5.551   4.024  0.1980  0.3743  0.1570
  858MOL0     C15762  10.327   5.409   4.031  0.2207  0.5165 -0.5426
  858MOL0     H15763  10.562   5.789   4.436 -1.5810  0.1676 -3.1776
  858MOL0     H15764  10.766   5.844   4.573 -1.0088 -0.1776  0.0798
  858MOL0     H15765  10.970   5.727   4.639 -1.8413 -0.3680 -4.6235
  858MOL0     H15766  11.140   5.770   4.614  0.5960 -0.5381 -2.9969
  858MOL0     H15767  11.059   5.914   4.777 -0.4787  1.8244  0.4335
  858MOL0     H15768  10.909   5.940   4.695 -0.4400 -1.1834 -3.5093
  858MOL0     H15769  11.046   6.149   4.654 -2.4996 -0.3939 -1.0802
  858MOL0     H15770  11.043   6.051   4.505 -0.4269  2.4367 -0.0167
  858MOL0     H15771  11.255   5.951   4.597 -1.2305 -0.2663  1.3861
  858MOL0     H15772  11.276   6.114   4.544  1.3735 -3.3631 -2.2878
  858MOL0     H15773  11.252   6.168   4.806 -3.6412  0.4537 -0.8715
  858MOL0     H15774  11.249   5.989   4.824 -3.1468 -2.2817 -3.7269
  858MOL0     H15775  11.456   5.954   4.731  1.3167 -0.8133  2.2639
  858MOL0     H15776  11.470   6.122   4.677 -0.3235  0.0544 -1.4145
  858MOL0     H15777  11.620   6.078   4.895 -0.6315  1.1105  3.0436
  858MOL0     H15778  11.476   6.042   4.982  4.9664 -1.0410  1.5058
  858MOL0     H15779  11.487   6.296   4.823  1.4741 -1.7658 -0.0752
  858MOL0     H15780  11.387   6.256   4.960 -2.0422 -2.0766 -1.4871
  858MOL0     H15781  11.742   6.369   4.822 -1.5028  0.8024  0.0046
  858MOL0     H15782  11.982   6.453   4.921  2.8804  1.0352  2.2931
  858MOL0     H15783  11.910   6.594   4.975 -0.8936 -0.7306 -0.7363
  858MOL0     H15784  11.980   6.501   5.223  3.6056  0.5858  2.8516
  858MOL0     H15785  12.058   6.377   5.127 -3.2419 -1.6080 -2.2946
  858MOL0     H15786  12.091   6.680   5.067 -2.1409 -1.9886 -1.2249
  858MOL0     H15787  12.206   6.551   5.025 -1.1774  0.7265 -2.7274
  858MOL0     H15788  12.158   6.658   5.304 -1.2578 -2.0306  0.3090
  858MOL0     H15789  12.312   6.669   5.232 -0.8486  2.5131 -0.3747
  858MOL0     H15790  12.447   6.544   5.113  0.7616 -0.7486 -0.9761
  858MOL0     H15791  12.684   6.485   5.121  0.4627 -1.0137 -0.4052
  858MOL0     H15792  12.978   6.275   5.580  0.3809 -1.8369  0.8987
  858MOL0     H15793  13.213   6.238   5.611  4.3931 -1.8044 -0.5651
  858MOL0     H15794  13.425   6.222   5.316 -0.1771  1.4384  0.2901
  858MOL0     H15795  13.407   6.298   5.473 -1.1052  0.4680 -0.2391
  858MOL0     H15796  13.633   6.285   5.466 -0.9461  0.9012 -2.4657
  858MOL0     H15797  13.584   6.164   5.574  0.4697  1.4388  0.4279
  858MOL0     H15798  13.616   5.974   5.419 -1.9200  0.1548 -1.3136
  858MOL0     H15799  13.629   6.071   5.276  2.0962 -1.3890 -0.9160
  858MOL0     H15800  13.805   6.071   5.518  0.4337 -0.9722  0.9011
  858MOL0     H15801  13.829   6.172   5.365  0.9076 -1.0509 -0.0289
  858MOL0     H15802  13.846   5.955   5.232  1.5938  1.9706 -0.5588
  858MOL0     H15803  13.835   5.859   5.375 -0.4231  0.5664 -1.8213
  858MOL0     H15804  14.054   6.028   5.284  2.2700 -0.6809  0.1715
  858MOL0     H15805  14.033   6.020   5.463 -1.2069  0.6305 -0.0857
  858MOL0     H15806  14.040   5.764   5.276 -0.1932 -1.1315  0.0190
  858MOL0     H15807  14.075   5.771   5.445 -1.3443  0.0758 -1.5491
  858MOL0     H15808  14.270   5.751   5.302 -1.0188 -0.2306 -1.5479
  858MOL0     H15809  14.249   5.906   5.229  2.7725  0.0615  1.4478
  858MOL0     H15810  13.227   6.006   5.255  0.6947  0.5065 -0.6259
  858MOL0     H15811  12.994   6.038   5.210  3.0999  1.8716 -2.6966
  858MOL0     H15812  12.588   6.203   5.435 -1.2453  1.7913  0.9124
  858MOL0     H15813  12.355   6.289   5.440 -0.3041  3.0022  2.2012
  858MOL0     H15814  10.995   5.737   4.225  2.5601  0.9456  2.0103
  858MOL0     H15815  10.797   5.718   4.097  3.8605 -3.8232  0.6903
  858MOL0     H15816  10.345   5.868   4.099 -0.3169  0.7151 -2.1073
  858MOL0     H15817  10.132   5.900   3.996 -1.1112 -0.5739  0.3678
  858MOL0     H15818   9.942   5.875   3.841  1.0017  0.9101  2.2588
  858MOL0     H15819   9.898   5.834   4.013  0.6860  1.0896  0.7399
  858MOL0     H15820   9.713   5.684   3.925  4.8038 -1.1184  2.1895
  858MOL0     H15821   9.754   5.729   3.764 -1.0671  0.8057 -0.0699
  858MOL0     H15822   9.719   5.981   3.849  2.2366 -1.0513 -0.5864
  858MOL0     H15823   9.624   5.905   3.976  1.8226 -4.0534  0.9115
  858MOL0     H15824   9.573   5.866   3.685  1.0778 -4.2439  0.9403
  858MOL0     H15825   9.488   5.772   3.800 -2.6813  0.6799  0.8843
  858MOL0     H15826   9.283   6.151   3.782  0.3333  0.4732  3.7711
  858MOL0     H15827  10.103   5.493   3.930  0.2939 -0.5707  1.6537
  858MOL0     H15828  10.309   5.361   4.128  2.0605  0.5265 -0.1599
  858MOL0     H15829  10.276   5.345   3.959 -0.3947 -0.5549  0.8020
  858MOL0     H15830  10.435   5.400   4.020  0.2315 -1.1667  0.4688
  859MOL0     O15831   7.848   8.071   6.818  0.0390  0.2721 -0.0814
  859MOL0     C15832   7.831   8.115   6.707  0.0190  0.2327  0.0271
  859MOL0     O15833   7.714   8.101   6.643  0.1547  1.1059 -0.3363
  859MOL0     C15834   7.592   8.115   6.703 -0.4409  0.3583  0.2957
  859MOL0     C15835   7.484   8.100   6.620  1.2143  0.7576  0.5547
  859MOL0     C15836   7.350   8.125   6.662 -0.5838 -0.3925 -0.3428
  859MOL0     C15837   7.318   8.155   6.801  0.0861 -0.5122  0.5091
  859MOL0     O15838   7.194   8.188   6.849 -0.0905  0.3755 -0.3298
  859MOL0     C15839   7.076   8.157   6.770 -0.2329  0.0218 -0.4429
  859MOL0     C15840   6.947   8.186   6.841  0.3692  0.0604 -0.8740
  859MOL0     C15841   6.930   8.316   6.915 -0.3306  0.0993  0.6450
  859MOL0     C15842   6.791   8.359   6.950  0.8568  0.4657  1.0486
  859MOL0     C15843   6.732   8.273   7.064 -0.4025 -0.1293  0.4370
  859MOL0     C15844   6.579   8.262   7.066 -0.0424  0.4373  0.3952
  859MOL0     C15845   6.543   8.156   6.963  0.0816 -1.5680  1.0592
  859MOL0     C15846   6.467   8.212   6.845 -0.1814  0.3859  0.3634
  859MOL0     N15847   6.413   8.102   6.773 -0.2067  0.0330  1.2016
  859MOL0     C15848   6.484   7.995   6.723  1.0850  0.0536  0.2576
  859MOL0     C15849   6.389   7.932   6.646  0.0418  0.6940 -0.1186
  859MOL0     C15850   6.396   7.810   6.554  0.1355 -0.6561  0.3922
  859MOL0     C15851   6.396   7.677   6.626  0.2951 -0.5242  0.1448
  859MOL0     C15852   6.477   7.566   6.564  0.2071 -0.5642 -0.7201
  859MOL0     C15853   6.629   7.572   6.563  0.1354  0.2796 -0.2153
  859MOL0     O15854   6.680   7.687   6.496  0.5488 -0.3754 -0.0625
  859MOL0     C15855   6.812   7.708   6.475  0.1819  0.1002  0.6314
  859MOL0     C15856   6.901   7.602   6.440 -0.1258  0.1775  0.9071
  859MOL0     C15857   7.042   7.637   6.420  0.2827 -0.6882  0.2974
  859MOL0     C15858   7.090   7.768   6.425  0.3724  0.5393  0.2280
  859MOL0     C15859   7.227   7.798   6.384  0.1632 -0.1969  0.9295
  859MOL0     O15860   7.325   7.707   6.394  0.9809  0.7769 -0.7442
  859MOL0     C15861   7.461   7.740   6.377 -0.1577 -0.3981 -0.0547
  859MOL0     C15862   7.525   7.748   6.253 -0.5784  0.8840 -0.1869
  859MOL0     C15863   7.657   7.783   6.246  0.1119  0.2552 -0.5860
  859MOL0     C15864   7.732   7.812   6.358  0.0235 -0.1911  0.4813
  859MOL0     O15865   7.857   7.852   6.341 -0.3241 -0.2443 -0.5393
  859MOL0     C15866   7.947   7.794   6.246 -0.7069  0.4477  0.5704
  859MOL0     C15867   8.086   7.829   6.283 -0.6520  0.2411  0.9197
  859MOL0     C15868   8.120   7.795   6.422 -0.5908  0.0005 -0.8683
  859MOL0     C15869   8.273   7.777   6.435  0.4194  0.0092  0.1429
  859MOL0     C15870   8.321   7.765   6.589  1.1199 -0.3662  0.6699
  859MOL0     C15871   8.439   7.666   6.603 -0.6032  0.4074 -0.0778
  859MOL0     C15872   8.396   7.518   6.595 -0.3828 -0.3688  0.0853
  859MOL0     C15873   8.507   7.425   6.612 -0.6744  0.2717 -0.7728
  859MOL0    Cl15874   8.592   7.410   6.456  0.1887  0.0460  0.3074
  859MOL0     C15875   7.664   7.812   6.482 -0.6347  0.2104 -0.6188
  859MOL0     C15876   7.532   7.765   6.494  0.4082 -0.1643 -0.8965
  859MOL0     O15877   7.255   7.912   6.352  0.5209  0.3353 -0.0628
  859MOL0     C15878   7.003   7.874   6.457  0.1929 -1.3749  0.3850
  859MOL0     C15879   6.867   7.847   6.476 -0.1651  0.3312  0.5701
  859MOL0     N15880   6.267   7.987   6.673 -0.4135 -0.6737  0.3659
  859MOL0     N15881   6.281   8.087   6.745  0.3715 -0.9026  0.0742
  859MOL0     C15882   7.433   8.165   6.893 -0.6086  0.8378 -0.1316
  859MOL0     C15883   7.564   8.155   6.839  0.1208  0.8254 -1.0085
  859MOL0     C15884   7.958   8.162   6.633  0.3784  0.8954  0.1202
  859MOL0     C15885   7.962   8.139   6.490  0.2148 -0.1743 -0.4770
  859MOL0     C15886   8.059   8.202   6.408 -0.0426 -0.1796 -0.1081
  859MOL0     C15887   8.182   8.245   6.465 -0.1339 -0.5339 -0.7710
  859MOL0     O15888   8.279   8.277   6.375 -0.3605 -0.4341  0.2657
  859MOL0     C15889   8.409   8.330   6.415 -0.0975 -0.0927 -0.5388
  859MOL0     C15890   8.514   8.229   6.471  0.9321 -0.1713  0.1971
  859MOL0     C15891   8.561   8.138   6.364  0.3260  0.2601  0.6752
  859MOL0     C15892   8.660   8.040   6.434  0.0627  0.0837  0.3120
  859MOL0     C15893   8.789   8.097   6.468 -0.8577 -0.5954 -0.7797
  859MOL0     C15894   8.893   8.154   6.495 -0.0206 -0.4931  0.2220
  859MOL0     C15895   8.191   8.243   6.600  0.1437 -0.7901  0.2044
  859MOL0     C15896   8.081   8.224   6.684  0.0229  0.7436 -1.6105
  859MOL0     C15897   8.089   8.252   6.831  0.1748 -0.1751 -0.4206
  859MOL0     H15898   7.494   8.076   6.515 -0.6405 -1.6351  0.8415
  859MOL0     H15899   7.269   8.125   6.590 -0.3396 -1.5527 -0.6386
  859MOL0     H15900   7.066   8.226   6.686  0.1135 -1.5041 -1.7970
  859MOL0     H15901   7.078   8.052   6.737  0.8961 -0.0065 -0.3268
  859MOL0     H15902   6.927   8.107   6.914  2.4773  1.3046  1.1819
  859MOL0     H15903   6.864   8.185   6.770  0.2155  2.5915 -0.8043
  859MOL0     H15904   6.975   8.398   6.857  0.0260  0.3078  1.2101
  859MOL0     H15905   6.986   8.314   7.009 -0.1078 -2.3352  0.5143
  859MOL0     H15906   6.796   8.466   6.972  1.1617  0.6280  0.2206
  859MOL0     H15907   6.723   8.347   6.865 -0.8675  1.8689  2.1595
  859MOL0     H15908   6.777   8.174   7.072  0.9828  0.6389  3.0902
  859MOL0     H15909   6.777   8.317   7.153  1.4988 -0.1031 -0.4935
  859MOL0     H15910   6.558   8.225   7.167  0.2054  1.3876  0.8071
  859MOL0     H15911   6.523   8.355   7.057 -4.1214 -1.9353 -1.1899
  859MOL0     H15912   6.473   8.090   7.015 -0.5608 -0.8374  1.1423
  859MOL0     H15913   6.630   8.100   6.928  0.9989 -1.1772  2.5917
  859MOL0     H15914   6.388   8.272   6.892  0.5123  0.1415  1.8907
  859MOL0     H15915   6.526   8.287   6.792 -1.0513  1.5441  0.9856
  859MOL0     H15916   6.591   7.979   6.723  0.9288 -1.3483 -1.5325
  859MOL0     H15917   6.311   7.807   6.485  0.8593 -4.5582 -0.5909
  859MOL0     H15918   6.479   7.815   6.482 -3.8063  0.1739 -4.7013
  859MOL0     H15919   6.449   7.701   6.719  1.4278 -3.8764  0.5037
  859MOL0     H15920   6.295   7.642   6.648 -0.1246  0.4442 -0.2331
  859MOL0     H15921   6.452   7.553   6.458 -1.4561  1.3807 -0.6164
  859MOL0     H15922   6.453   7.476   6.622  2.4604 -0.5554  0.3345
  859MOL0     H15923   6.678   7.481   6.528  1.2594 -0.0695  2.0391
  859MOL0     H15924   6.665   7.586   6.666 -0.3550 -0.0129 -0.0016
  859MOL0     H15925   6.853   7.505   6.429  2.0914 -0.6953 -2.1037
  859MOL0     H15926   7.107   7.554   6.391  1.3831 -0.2020  1.2906
  859MOL0     H15927   7.474   7.717   6.163  0.2394 -3.4884  0.6179
  859MOL0     H15928   7.695   7.792   6.145 -3.5217  2.0510 -1.9594
  859MOL0     H15929   7.939   7.685   6.243  0.9731  0.2674  1.5557
  859MOL0     H15930   7.916   7.834   6.149  3.8282 -1.2464 -1.8830
  859MOL0     H15931   8.147   7.771   6.213  0.5638 -0.4632  2.4999
  859MOL0     H15932   8.103   7.937   6.273 -3.1257  0.6419  0.4567
  859MOL0     H15933   8.094   7.871   6.497  0.4522  0.5048 -0.9958
  859MOL0     H15934   8.062   7.708   6.453 -0.4394  0.3055  0.3393
  859MOL0     H15935   8.328   7.862   6.396  5.4283 -2.6014  0.7205
  859MOL0     H15936   8.305   7.690   6.377  1.0950  0.2086  0.2198
  859MOL0     H15937   8.237   7.726   6.647  0.1599  0.3577 -0.1903
  859MOL0     H15938   8.335   7.864   6.634 -3.0888  0.2040  1.1095
  859MOL0     H15939   8.514   7.703   6.532 -1.7859  0.1865 -1.4959
  859MOL0     H15940   8.479   7.667   6.704 -2.7621  0.3743  0.8219
  859MOL0     H15941   8.351   7.488   6.500  1.9241 -1.4286 -0.7486
  859MOL0     H15942   8.329   7.496   6.679  0.3648 -2.4036  0.2060
  859MOL0     H15943   8.576   7.470   6.684  1.9792 -1.0688 -2.3525
  859MOL0     H15944   8.469   7.328   6.647 -0.0187  0.9017  1.9561
  859MOL0     H15945   7.720   7.832   6.573 -1.6227 -0.2994  0.1102
  859MOL0     H15946   7.481   7.743   6.587 -1.0784  0.4648 -1.5286
  859MOL0     H15947   7.036   7.976   6.476 -2.3363 -0.1448 -1.2741
  859MOL0     H15948   6.795   7.926   6.493 -0.6460 -0.0295  0.2457
  859MOL0     H15949   7.424   8.197   6.996  0.3663  0.5653  0.0517
  859MOL0     H15950   7.641   8.178   6.913 -1.4605 -2.2277  1.8314
  859MOL0     H15951   7.873   8.091   6.452 -1.3238  0.9314  1.5213
  859MOL0     H15952   8.051   8.185   6.301 -0.5070  0.6135 -0.2102
  859MOL0     H15953   8.400   8.407   6.492  0.8550 -0.0008 -0.5136
  859MOL0     H15954   8.440   8.389   6.328 -1.8197 -1.6382 -2.2941
  859MOL0     H15955   8.459   8.171   6.546 -1.8645 -0.9183 -2.2319
  859MOL0     H15956   8.598   8.282   6.516  0.5835  0.3160  0.2750
  859MOL0     H15957   8.616   8.203   6.294  2.3668 -1.2718  0.7487
  859MOL0     H15958   8.479   8.078   6.324  2.7426 -1.9806 -1.3729
  859MOL0     H15959   8.612   7.996   6.522 -0.3588  0.5107  0.2999
  859MOL0     H15960   8.691   7.960   6.367 -0.9136  0.2811 -0.3764
  859MOL0     H15961   8.984   8.202   6.525 -0.5743  0.8481 -0.1673
  859MOL0     H15962   8.286   8.276   6.641  0.3643  2.6027 -2.6190
  859MOL0     H15963   8.138   8.174   6.890  0.5727 -0.7884 -1.5308
  859MOL0     H15964   8.144   8.345   6.845  0.3731 -0.2039 -0.9939
  859MOL0     H15965   7.985   8.266   6.863 -0.4392  0.9760 -2.7667
  860MOL0     O15966   8.231   5.419   9.315  0.9190 -0.7038 -0.1915
  860MOL0     C15967   8.121   5.373   9.326  0.6633 -0.0084 -0.1369
  860MOL0     O15968   8.092   5.254   9.364  0.8719 -0.3940  0.4254
  860MOL0     C15969   8.191   5.179   9.427 -0.4013 -0.8530  0.1550
  860MOL0     C15970   8.256   5.079   9.355  0.4277  0.2113  0.2247
  860MOL0     C15971   8.357   5.009   9.418  0.6830  0.1837  0.6990
  860MOL0     C15972   8.399   5.042   9.553 -0.3051 -0.1681  0.2909
  860MOL0     O15973   8.501   4.973   9.616 -0.0023 -0.3038  0.1263
  860MOL0     C15974   8.594   4.895   9.545 -0.8752 -0.6297 -0.4196
  860MOL0     C15975   8.710   4.840   9.637 -0.0875  0.1300  0.2873
  860MOL0     C15976   8.794   4.962   9.683 -0.6327  0.6244 -0.0529
  860MOL0     C15977   8.798   4.974   9.839 -0.1841  0.0980  0.5938
  860MOL0     C15978   8.907   5.077   9.878  0.2570  0.1668 -0.6827
  860MOL0     C15979   8.922   5.083  10.031  0.0097 -0.6938 -0.6336
  860MOL0     C15980   9.049   5.165  10.069  0.7348 -0.2432 -0.2375
  860MOL0     C15981   9.050   5.311  10.038  0.1326 -0.3530 -0.7463
  860MOL0     N15982   9.015   5.391  10.158 -0.0342 -0.3969  0.3849
  860MOL0     C15983   9.099   5.491  10.204  0.0186 -0.0791 -0.3948
  860MOL0     C15984   9.021   5.544  10.300 -0.5313 -0.3068 -0.2172
  860MOL0     C15985   9.046   5.669  10.387 -0.2562 -0.4215  0.1023
  860MOL0     C15986   9.199   5.670  10.438  0.8518  0.6338 -0.0844
  860MOL0     C15987   9.249   5.813  10.487 -0.0451  0.3844  0.4428
  860MOL0     C15988   9.395   5.820  10.503 -0.8465 -0.6252 -0.5879
  860MOL0     O15989   9.414   5.947  10.570  0.0231  0.3352 -0.5796
  860MOL0     C15990   9.548   5.977  10.598  1.0561 -0.8200  1.2856
  860MOL0     C15991   9.575   6.094  10.667  0.2020  0.7532  0.4321
  860MOL0     C15992   9.702   6.128  10.692 -0.1186 -0.1259  0.0614
  860MOL0     C15993   9.809   6.034  10.671 -0.4995  0.4062 -0.3395
  860MOL0     C15994   9.942   6.078  10.719  0.2427  0.1020  1.1407
  860MOL0     O15995  10.018   5.974  10.749  0.0421 -0.2776  0.8014
  860MOL0     C15996  10.154   5.980  10.777 -0.1255 -0.2041 -0.3847
  860MOL0     C15997  10.222   6.097  10.827 -0.2744  0.6116  0.5771
  860MOL0     C15998  10.358   6.080  10.839 -0.3144 -0.0418 -0.6327
  860MOL0     C15999  10.431   5.965  10.828  0.0557  0.5880 -0.1012
  860MOL0     O16000  10.567   5.965  10.850  0.5329 -0.0612 -0.7446
  860MOL0     C16001  10.629   5.998  10.722  0.5313 -0.2208  0.3189
  860MOL0     C16002  10.777   6.027  10.745  0.0051  0.4407 -0.1820
  860MOL0     C16003  10.803   6.175  10.782 -0.7924 -0.5645 -0.0105
  860MOL0     C16004  10.944   6.201  10.844  0.8738 -0.2202  1.1840
  860MOL0     C16005  10.960   6.349  10.884  0.1205 -0.0073  0.5239
  860MOL0     C16006  11.101   6.381  10.933 -1.3532 -0.5042  0.1632
  860MOL0     C16007  11.168   6.272  11.030  0.4003 -0.1994 -0.2970
  860MOL0     C16008  11.283   6.323  11.117 -0.1583  0.2239  0.8138
  860MOL0    Cl16009  11.395   6.400  11.007  0.2755 -0.1895  0.4757
  860MOL0     C16010  10.359   5.852  10.784  0.0435 -0.1164  0.4425
  860MOL0     C16011  10.221   5.865  10.741 -1.0644  0.5115 -0.3870
  860MOL0     O16012   9.972   6.195  10.722 -0.5428 -0.4114 -0.2601
  860MOL0     C16013   9.786   5.913  10.604  0.6367 -0.5552  0.1140
  860MOL0     C16014   9.656   5.889  10.563 -0.1528  0.2104  0.5334
  860MOL0     N16015   8.894   5.489  10.298  0.8810 -0.2465  0.5526
  860MOL0     N16016   8.902   5.385  10.232  0.2016  0.9182  0.4300
  860MOL0     C16017   8.344   5.157   9.610 -0.9022 -0.4618  0.4623
  860MOL0     C16018   8.231   5.212   9.552 -0.7110 -0.5781  0.0042
  860MOL0     C16019   8.001   5.457   9.286 -0.4894  0.2287 -0.9448
  860MOL0     C16020   8.033   5.573   9.219  0.3125 -0.6442 -0.2755
  860MOL0     C16021   7.936   5.666   9.181  0.9991 -0.1421  0.2023
  860MOL0     C16022   7.801   5.637   9.208  0.2175 -0.3214 -0.1827
  860MOL0     O16023   7.715   5.744   9.179  0.2736  1.2374 -0.5085
  860MOL0     C16024   7.575   5.725   9.190  0.8826 -0.4102 -0.5105
  860MOL0     C16025   7.515   5.861   9.182 -0.1058 -0.1531  0.3659
  860MOL0     C16026   7.535   5.967   9.299  0.1885 -0.2036 -1.2107
  860MOL0     C16027   7.447   6.093   9.302  0.0460  0.4566  0.3961
  860MOL0     C16028   7.436   6.140   9.168 -0.2952 -0.1959 -0.0134
  860MOL0     C16029   7.397   6.163   9.058 -0.1788 -0.2855  1.1214
  860MOL0     C16030   7.757   5.517   9.267 -0.5045  0.3355 -0.1219
  860MOL0     C16031   7.861   5.427   9.318  0.3650  0.8787  1.0156
  860MOL0     C16032   7.812   5.295   9.367  0.3737  0.5686 -0.0903
  860MOL0     H16033   8.238   5.075   9.248 -1.2925  1.6320  0.4069
  860MOL0     H16034   8.399   4.934   9.351  0.4950  1.9715 -1.5266
  860MOL0     H16035   8.550   4.809   9.493  3.1113 -2.9974 -0.2940
  860MOL0     H16036   8.637   4.954   9.463  0.7678 -2.6814 -1.1153
  860MOL0     H16037   8.775   4.770   9.584  2.5168  0.8459  2.3045
  860MOL0     H16038   8.652   4.786   9.713  0.3721 -0.3720  0.2855
  860MOL0     H16039   8.765   5.059   9.641  0.4005 -0.3711 -3.4433
  860MOL0     H16040   8.896   4.942   9.647 -0.7490  0.3241 -0.2187
  860MOL0     H16041   8.703   5.010   9.878  1.4573  1.0471  4.1038
  860MOL0     H16042   8.819   4.880   9.890  2.2975  0.1686 -0.1413
  860MOL0     H16043   9.002   5.059   9.827  0.6649  0.6764 -0.1232
  860MOL0     H16044   8.871   5.174   9.843 -1.2629 -1.1898 -3.1534
  860MOL0     H16045   8.835   5.135  10.073  0.4159  1.5650 -2.3948
  860MOL0     H16046   8.925   4.984  10.078  2.0528  0.7237  2.5273
  860MOL0     H16047   9.128   5.119  10.009  1.1240 -1.3684  1.0980
  860MOL0     H16048   9.060   5.144  10.175 -0.7006 -1.0524 -0.2206
  860MOL0     H16049   9.144   5.342   9.991  0.5209 -2.3408 -1.3822
  860MOL0     H16050   8.969   5.326   9.966 -1.4908  0.1165  1.1128
  860MOL0     H16051   9.201   5.514  10.178 -0.0351 -1.3783 -1.8852
  860MOL0     H16052   9.029   5.764  10.336 -3.3021 -0.5035  0.8165
  860MOL0     H16053   8.983   5.673  10.476 -0.2563 -0.8941  0.1301
  860MOL0     H16054   9.213   5.603  10.524  0.4321  3.1332  2.0786
  860MOL0     H16055   9.258   5.633  10.354 -0.5043 -1.0762 -0.3552
  860MOL0     H16056   9.193   5.831  10.580 -0.9609  0.0999 -0.0427
  860MOL0     H16057   9.209   5.878  10.408  0.5067  1.7476  1.2470
  860MOL0     H16058   9.445   5.813  10.406 -1.7373  0.5495 -1.1506
  860MOL0     H16059   9.421   5.736  10.568 -0.6891 -3.2418 -3.8043
  860MOL0     H16060   9.499   6.166  10.696  1.9284  2.0363  1.9793
  860MOL0     H16061   9.728   6.220  10.743 -1.6138 -0.0205  0.6802
  860MOL0     H16062  10.185   6.187  10.875  1.7198  1.0539  1.3829
  860MOL0     H16063  10.407   6.165  10.885 -0.4797  0.4792 -1.4027
  860MOL0     H16064  10.633   5.910  10.657  0.9526 -1.0887  1.4717
  860MOL0     H16065  10.594   6.085  10.666  0.8371 -0.1084  0.3011
  860MOL0     H16066  10.808   5.963  10.828 -4.0495 -0.7439  0.6122
  860MOL0     H16067  10.835   5.992  10.659  1.9095  1.9448  0.3963
  860MOL0     H16068  10.791   6.249  10.701 -2.1526 -0.6222  0.1128
  860MOL0     H16069  10.739   6.199  10.867 -0.0824  2.7316 -0.2674
  860MOL0     H16070  11.014   6.168  10.767 -0.7229 -1.9101  0.3915
  860MOL0     H16071  10.959   6.141  10.934  0.7479 -1.4497  0.3960
  860MOL0     H16072  10.880   6.371  10.955 -2.8256 -2.6100 -1.7675
  860MOL0     H16073  10.958   6.419  10.800 -1.3976  1.1291  1.4496
  860MOL0     H16074  11.161   6.412  10.847  1.6978  1.3370  2.7067
  860MOL0     H16075  11.095   6.476  10.987 -1.3299 -0.6510  0.4261
  860MOL0     H16076  11.209   6.185  10.978  1.0354 -2.9000  4.2019
  860MOL0     H16077  11.085   6.237  11.091  0.4277 -0.5211 -0.4420
  860MOL0     H16078  11.240   6.387  11.195 -2.9059  3.1073 -2.6823
  860MOL0     H16079  11.323   6.234  11.166 -3.0417 -0.4011  2.2693
  860MOL0     H16080  10.417   5.761  10.774  0.2236 -0.2135  2.0466
  860MOL0     H16081  10.181   5.778  10.690  0.6720 -1.7649  1.8641
  860MOL0     H16082   9.875   5.852  10.587  0.3456 -0.7602 -0.6851
  860MOL0     H16083   9.633   5.792  10.520  3.8037 -0.4547 -0.4883
  860MOL0     H16084   8.371   5.185   9.712  1.4535 -1.0299  0.0731
  860MOL0     H16085   8.194   5.304   9.597  0.9078  0.6397 -1.0653
  860MOL0     H16086   8.133   5.597   9.184 -0.5462  3.6388 -0.3011
  860MOL0     H16087   7.959   5.761   9.135 -1.3567 -0.9240 -2.8710
  860MOL0     H16088   7.545   5.682   9.286 -2.8064 -0.3387 -1.4976
  860MOL0     H16089   7.534   5.653   9.119  0.0212 -0.7509  0.3175
  860MOL0     H16090   7.407   5.847   9.183  0.0891 -2.3771 -1.7706
  860MOL0     H16091   7.553   5.901   9.087 -0.0978 -3.2553 -1.0494
  860MOL0     H16092   7.634   6.011   9.293 -0.2001  0.6522 -1.4417
  860MOL0     H16093   7.529   5.921   9.398  5.1059  1.3264  0.0776
  860MOL0     H16094   7.344   6.075   9.334  0.9045 -2.1335  1.9783
  860MOL0     H16095   7.484   6.173   9.368 -1.4032  0.2602  1.4980
  860MOL0     H16096   7.356   6.183   8.961  0.4265  0.4525  1.0047
  860MOL0     H16097   7.653   5.496   9.289 -1.7186  4.7930 -0.7457
  860MOL0     H16098   7.703   5.291   9.373  0.3465 -0.1007 -0.9049
  860MOL0     H16099   7.836   5.216   9.296 -2.6196 -1.2294  0.7499
  860MOL0     H16100   7.864   5.261   9.457  1.0545 -1.1220 -1.0770
  861MOL0     O16101   1.285   8.320   5.477  0.5311 -0.3455 -1.1010
  861MOL0     C16102   1.191   8.363   5.547 -0.5006  0.6966 -0.1452
  861MOL0     O16103   1.066   8.363   5.514 -0.8070 -0.1432 -0.2890
  861MOL0     C16104   1.036   8.307   5.384  0.2386 -0.2892  0.6997
  861MOL0     C16105   0.966   8.190   5.370  0.0419 -0.6552 -0.7032
  861MOL0     C16106   0.931   8.151   5.244 -0.1262  0.2506 -0.0415
  861MOL0     C16107   0.984   8.221   5.134 -0.1298  0.4734  0.4737
  861MOL0     O16108   0.989   8.177   5.008  0.0557 -0.2391 -0.0603
  861MOL0     C16109   1.094   8.081   4.981 -0.5836 -0.3392 -0.5753
  861MOL0     C16110   1.125   8.082   4.833 -0.4812 -0.1047  0.8866
  861MOL0     C16111   1.000   8.056   4.744  0.2148 -0.1763  0.9023
  861MOL0     C16112   0.953   7.908   4.744 -0.2970 -0.2682 -0.1414
  861MOL0     C16113   0.824   7.891   4.660 -0.5814 -0.0404  1.0468
  861MOL0     C16114   0.872   7.852   4.513  0.5921  0.0263  1.2267
  861MOL0     C16115   0.750   7.811   4.428 -0.8332 -0.0404 -0.6364
  861MOL0     C16116   0.642   7.911   4.423 -0.8228 -1.1873  0.0760
  861MOL0     N16117   0.536   7.862   4.330 -0.4889 -0.0939  0.4349
  861MOL0     C16118   0.476   7.736   4.337  0.2583 -0.6538 -0.4232
  861MOL0     C16119   0.421   7.720   4.216 -0.0529  1.3183  0.1578
  861MOL0     C16120   0.372   7.591   4.158 -0.3676  0.0300 -0.5481
  861MOL0     C16121   0.454   7.470   4.197  0.1855 -0.2158  0.7007
  861MOL0     C16122   0.592   7.472   4.136  0.2923 -0.2334 -0.4224
  861MOL0     C16123   0.690   7.372   4.206 -0.2483 -0.4077 -0.7009
  861MOL0     O16124   0.646   7.243   4.187  0.5315  0.3708 -0.1349
  861MOL0     C16125   0.715   7.134   4.236  0.0564 -0.0922  0.0652
  861MOL0     C16126   0.675   7.010   4.194 -1.1643  0.5438 -0.1691
  861MOL0     C16127   0.763   6.895   4.216  0.4317 -0.4673  0.0201
  861MOL0     C16128   0.883   6.916   4.288 -0.0500 -0.0722  0.0879
  861MOL0     C16129   0.982   6.809   4.309 -0.4442 -0.3637 -0.4217
  861MOL0     O16130   1.107   6.850   4.365  0.6672 -0.3407  0.2814
  861MOL0     C16131   1.221   6.782   4.370  0.4198  0.2514 -0.1483
  861MOL0     C16132   1.351   6.838   4.364  0.3899 -0.8110 -0.6371
  861MOL0     C16133   1.460   6.769   4.321 -0.1219 -0.2144 -0.0804
  861MOL0     C16134   1.456   6.633   4.313 -0.2033  0.0081 -0.5112
  861MOL0     O16135   1.570   6.560   4.283  0.2100  0.0269  0.8217
  861MOL0     C16136   1.570   6.422   4.301 -0.3919  0.2405  0.9170
  861MOL0     C16137   1.712   6.366   4.304 -0.6316  0.7896 -0.0788
  861MOL0     C16138   1.712   6.216   4.319  0.4716  0.5373  0.4969
  861MOL0     C16139   1.684   6.151   4.456  0.0696  0.1959  0.1074
  861MOL0     C16140   1.724   5.999   4.454 -0.2473 -0.3791  0.6381
  861MOL0     C16141   1.631   5.917   4.360  0.2432  0.1966 -0.1908
  861MOL0     C16142   1.627   5.770   4.382 -0.0488 -0.2259 -0.5853
  861MOL0     C16143   1.480   5.712   4.380 -0.0387  0.4486  1.1627
  861MOL0    Cl16144   1.402   5.743   4.539 -0.0396 -0.1086 -0.2408
  861MOL0     C16145   1.326   6.569   4.326  0.0663 -0.1391 -0.7971
  861MOL0     C16146   1.213   6.648   4.363 -0.6045  1.1255  0.4134
  861MOL0     O16147   0.951   6.697   4.263  0.1980 -0.8424  0.1797
  861MOL0     C16148   0.911   7.043   4.339  0.6579 -0.1784 -0.5815
  861MOL0     C16149   0.832   7.150   4.306  0.6010 -0.9003 -0.6274
  861MOL0     N16150   0.437   7.840   4.142 -0.1304  0.3766  0.9360
  861MOL0     N16151   0.511   7.920   4.208  0.6499  0.1274  0.1537
  861MOL0     C16152   1.070   8.329   5.149 -0.2691 -0.0071  0.9268
  861MOL0     C16153   1.072   8.378   5.270 -0.0382  0.1892  0.0858
  861MOL0     C16154   1.208   8.384   5.691 -1.2273 -0.4049  0.4285
  861MOL0     C16155   1.325   8.328   5.760  0.0145 -0.6552 -0.6044
  861MOL0     C16156   1.359   8.362   5.895 -0.1819  1.0047  1.1007
  861MOL0     C16157   1.274   8.451   5.970 -0.4918  0.6703 -0.0138
  861MOL0     O16158   1.306   8.500   6.102 -0.6563 -0.7209  0.7728
  861MOL0     C16159   1.431   8.454   6.159  0.9182  0.1009 -0.0418
  861MOL0     C16160   1.454   8.538   6.290  0.0980  0.0145 -0.5737
  861MOL0     C16161   1.471   8.687   6.269  0.7243  0.4795  0.6385
  861MOL0     C16162   1.552   8.728   6.152 -0.8442 -0.5202 -0.1845
  861MOL0     C16163   1.562   8.873   6.148  0.1221  0.5877  0.9710
  861MOL0     C16164   1.566   8.993   6.140 -0.0723  0.6636 -0.7568
  861MOL0     C16165   1.167   8.495   5.898  0.3454  0.3195 -0.3425
  861MOL0     C16166   1.127   8.473   5.768 -0.7377 -0.1244  0.2604
  861MOL0     C16167   0.994   8.546   5.716  0.2462 -0.0568 -1.0410
  861MOL0     H16168   0.954   8.118   5.450  1.3055 -4.4016 -3.5885
  861MOL0     H16169   0.888   8.052   5.232  2.7756 -1.0981 -0.1363
  861MOL0     H16170   1.184   8.097   5.041 -0.6106 -1.9694 -0.0394
  861MOL0     H16171   1.059   7.983   5.014 -0.3391  0.7394  3.4821
  861MOL0     H16172   1.204   8.015   4.800 -1.9430 -1.8641  0.7830
  861MOL0     H16173   1.174   8.178   4.812  0.5390 -0.7907  0.0380
  861MOL0     H16174   1.034   8.079   4.643  5.0443  0.2476  2.3863
  861MOL0     H16175   0.927   8.131   4.775  1.1435  1.1533 -0.0363
  861MOL0     H16176   1.030   7.839   4.709 -0.4035  0.2210 -1.3766
  861MOL0     H16177   0.910   7.889   4.843 -0.5604  0.4781 -0.1091
  861MOL0     H16178   0.776   7.803   4.703 -0.2236 -0.9996 -0.4006
  861MOL0     H16179   0.758   7.976   4.678 -2.0643 -1.1980  1.2593
  861MOL0     H16180   0.931   7.930   4.462  2.6219 -2.7965 -1.0909
  861MOL0     H16181   0.934   7.762   4.505 -1.9573 -2.0393  3.1782
  861MOL0     H16182   0.721   7.720   4.480  3.7476  0.5830  3.8168
  861MOL0     H16183   0.789   7.794   4.327 -0.7315  0.2107 -0.6395
  861MOL0     H16184   0.606   7.946   4.520  0.2475  2.3108 -0.6234
  861MOL0     H16185   0.680   8.006   4.384  3.0686 -1.9445  1.5978
  861MOL0     H16186   0.489   7.669   4.422  1.9838  2.0814  1.6489
  861MOL0     H16187   0.265   7.582   4.177 -0.5251  0.5785 -1.1165
  861MOL0     H16188   0.383   7.597   4.049  1.1595  1.2137 -0.3599
  861MOL0     H16189   0.457   7.478   4.307  2.0241 -0.0123  0.6635
  861MOL0     H16190   0.397   7.378   4.179  0.0759  0.2492 -1.6300
  861MOL0     H16191   0.641   7.569   4.145  1.6066 -0.8061 -1.1832
  861MOL0     H16192   0.576   7.450   4.030 -0.7738  2.4770 -0.9042
  861MOL0     H16193   0.685   7.387   4.314 -1.3072  0.3812 -0.8419
  861MOL0     H16194   0.795   7.385   4.179  1.0547 -0.4612  3.6863
  861MOL0     H16195   0.593   6.994   4.124  0.5455  0.3352 -2.2053
  861MOL0     H16196   0.745   6.799   4.168 -1.4440 -0.9694  1.6080
  861MOL0     H16197   1.354   6.947   4.361  2.1549 -0.7006  2.1601
  861MOL0     H16198   1.556   6.820   4.324  1.2292 -2.6386  1.1251
  861MOL0     H16199   1.542   6.401   4.405  1.5101  0.0193  1.4180
  861MOL0     H16200   1.507   6.383   4.221 -2.4804  3.4230  0.8164
  861MOL0     H16201   1.772   6.392   4.216  0.3679  4.3658  1.4494
  861MOL0     H16202   1.772   6.400   4.389  0.5473  2.1771 -1.4011
  861MOL0     H16203   1.637   6.179   4.250  0.9834 -2.1119  1.2422
  861MOL0     H16204   1.806   6.167   4.290  0.1451  0.9941 -1.4267
  861MOL0     H16205   1.579   6.154   4.484 -0.2736 -1.9605 -0.7759
  861MOL0     H16206   1.744   6.202   4.533 -0.9302  0.9778  0.3895
  861MOL0     H16207   1.691   5.950   4.546  1.0230 -4.1647 -0.7309
  861MOL0     H16208   1.832   5.990   4.440  0.0529  3.1677 -0.5552
  861MOL0     H16209   1.530   5.960   4.360  0.1882  0.0712 -0.0872
  861MOL0     H16210   1.676   5.928   4.261  0.4532 -0.5412 -0.1878
  861MOL0     H16211   1.681   5.739   4.472  1.8462 -0.1542 -1.6593
  861MOL0     H16212   1.676   5.724   4.296  0.6827  1.4789 -1.1321
  861MOL0     H16213   1.417   5.747   4.299  0.7118  0.3417  0.5170
  861MOL0     H16214   1.479   5.604   4.362 -2.2601  0.8711 -2.1309
  861MOL0     H16215   1.307   6.462   4.328 -1.6937  0.1488  0.0023
  861MOL0     H16216   1.118   6.600   4.382 -0.3541  1.1534  1.8062
  861MOL0     H16217   1.004   7.065   4.390  0.5006  2.1891 -1.1683
  861MOL0     H16218   0.868   7.250   4.327  1.0404 -0.5336 -2.9017
  861MOL0     H16219   1.111   8.370   5.058 -0.2093  0.4733  1.1670
  861MOL0     H16220   1.135   8.465   5.290 -0.5482  0.5179  0.2791
  861MOL0     H16221   1.397   8.268   5.704  0.2084 -0.4820 -0.5403
  861MOL0     H16222   1.439   8.303   5.938  1.4525  0.8794 -1.8657
  861MOL0     H16223   1.519   8.461   6.094  2.4624 -1.2124  1.7693
  861MOL0     H16224   1.423   8.348   6.182  0.4351  0.7585  3.4945
  861MOL0     H16225   1.541   8.504   6.347 -2.2397 -2.1165  2.0736
  861MOL0     H16226   1.363   8.536   6.351  0.9294 -1.1776  0.6811
  861MOL0     H16227   1.519   8.737   6.353  1.1070  1.8763 -0.3706
  861MOL0     H16228   1.371   8.729   6.257  0.5722 -0.2541 -0.9023
  861MOL0     H16229   1.649   8.679   6.165  0.1204  1.1283 -0.8079
  861MOL0     H16230   1.496   8.691   6.066 -1.1583  0.2116 -0.3022
  861MOL0     H16231   1.571   9.100   6.138  0.7073  0.7634  1.8768
  861MOL0     H16232   1.095   8.563   5.943  1.8888  0.7785  1.6009
  861MOL0     H16233   1.008   8.597   5.620 -2.4600  0.7056 -1.0919
  861MOL0     H16234   0.910   8.476   5.718 -1.2505  1.6019 -2.2000
  861MOL0     H16235   0.960   8.626   5.782  2.0127  0.8986 -1.2315
  862MOL0     O16236   3.543   0.746   2.307 -0.0838  0.2195  0.1096
  862MOL0     C16237   3.497   0.850   2.253 -0.3895 -0.1986 -1.0519
  862MOL0     O16238   3.577   0.950   2.216 -0.1150 -0.5377  0.6339
  862MOL0     C16239   3.702   0.977   2.270  0.3852  0.0585  0.0420
  862MOL0     C16240   3.723   1.082   2.373  0.0883 -0.8264  0.0289
  862MOL0     C16241   3.850   1.113   2.425  0.2232  0.1919  0.1254
  862MOL0     C16242   3.964   1.050   2.375  0.5213 -1.1037  0.5628
  862MOL0     O16243   4.095   1.074   2.411  0.5124 -0.6674 -0.4587
  862MOL0     C16244   4.142   1.052   2.544  0.1246 -0.2154  0.3557
  862MOL0     C16245   4.268   1.128   2.576  0.3764  0.0232  0.0119
  862MOL0     C16246   4.395   1.062   2.527 -0.5940  0.4328 -0.2205
  862MOL0     C16247   4.521   1.149   2.534  0.8210  0.3604 -0.2867
  862MOL0     C16248   4.648   1.084   2.481  0.5308 -0.0934 -0.5161
  862MOL0     C16249   4.694   0.970   2.569 -0.0609  0.4671 -0.2323
  862MOL0     C16250   4.806   0.894   2.510  0.0513  0.2508 -0.1412
  862MOL0     C16251   4.944   0.961   2.498  0.2961 -0.7288 -0.2170
  862MOL0     N16252   5.044   0.864   2.462  0.2909  0.5798 -0.8402
  862MOL0     C16253   5.107   0.791   2.559 -0.3459  0.0373  0.2263
  862MOL0     C16254   5.213   0.735   2.504 -0.4612  0.4349 -0.1230
  862MOL0     C16255   5.315   0.646   2.574  0.4675  0.0743 -0.2180
  862MOL0     C16256   5.284   0.642   2.722  0.5007  0.6745  0.4850
  862MOL0     C16257   5.396   0.572   2.804 -0.0977  0.2416  0.4990
  862MOL0     C16258   5.521   0.657   2.834  1.3780  0.2756  0.3196
  862MOL0     O16259   5.591   0.572   2.931 -0.6310 -0.0467  0.1014
  862MOL0     C16260   5.725   0.614   2.946  0.0862  0.5879 -0.5509
  862MOL0     C16261   5.755   0.740   2.996 -0.1267  0.2351  1.2865
  862MOL0     C16262   5.890   0.769   3.028  0.1732 -0.0449  0.6602
  862MOL0     C16263   5.995   0.672   3.000 -0.1802  0.5252 -0.6102
  862MOL0     C16264   6.142   0.713   3.037  1.0593 -0.9607  1.2694
  862MOL0     O16265   6.165   0.848   3.067  0.0136 -0.0750  0.1904
  862MOL0     C16266   6.291   0.884   3.103 -0.5571  0.6142  0.0906
  862MOL0     C16267   6.398   0.844   3.022 -0.2415 -0.5875  0.4777
  862MOL0     C16268   6.532   0.876   3.054  0.3124  0.0976  0.0845
  862MOL0     C16269   6.551   0.935   3.177 -0.7325 -0.5662 -0.4311
  862MOL0     O16270   6.677   0.926   3.224  0.2403  0.1321  0.0620
  862MOL0     C16271   6.729   1.024   3.316  0.2990 -0.0824 -0.0425
  862MOL0     C16272   6.876   0.975   3.342 -0.1691  0.0484  0.3707
  862MOL0     C16273   6.951   0.969   3.209  0.3737  0.5353  0.9833
  862MOL0     C16274   7.103   0.950   3.225  0.4170 -0.4677 -0.1712
  862MOL0     C16275   7.164   0.943   3.090  0.2239 -0.2137 -0.3317
  862MOL0     C16276   7.311   0.907   3.090  0.0928  0.0238  0.3104
  862MOL0     C16277   7.353   0.769   3.142  0.3868 -0.1561 -1.3008
  862MOL0     C16278   7.499   0.735   3.115 -0.0824 -1.1323  0.4774
  862MOL0    Cl16279   7.608   0.832   3.220  0.0092 -0.4328  0.7478
  862MOL0     C16280   6.444   0.980   3.256 -0.6425  0.9191 -0.6902
  862MOL0     C16281   6.309   0.960   3.224 -0.0971  0.2206 -0.2259
  862MOL0     O16282   6.226   0.628   3.037 -0.2401  0.6548 -0.7945
  862MOL0     C16283   5.968   0.552   2.943  0.2314 -0.4373 -0.0293
  862MOL0     C16284   5.828   0.523   2.922 -0.9445  0.0459 -0.1857
  862MOL0     N16285   5.225   0.771   2.375  0.1747  0.5180  0.3023
  862MOL0     N16286   5.112   0.842   2.344 -1.1998  0.5237  0.1128
  862MOL0     C16287   3.948   0.963   2.267  0.2545  0.7327 -0.6728
  862MOL0     C16288   3.821   0.922   2.220 -0.8749 -0.2749  0.2280
  862MOL0     C16289   3.365   0.858   2.183 -0.2610 -0.1197  0.0824
  862MOL0     C16290   3.352   0.955   2.082 -0.0170  0.2242  0.0893
  862MOL0     C16291   3.229   0.961   2.006 -0.3698 -0.0603 -0.1418
  862MOL0     C16292   3.139   0.864   2.011  0.0128 -0.1285 -1.2479
  862MOL0     O16293   3.034   0.899   1.933  0.6369 -0.0362  0.8721
  862MOL0     C16294   2.922   0.806   1.925  0.1766  0.0883  0.1551
  862MOL0     C16295   2.933   0.698   1.812  0.1679 -0.0504 -0.0096
  862MOL0     C16296   2.828   0.593   1.815 -0.0739 -0.5928  0.6736
  862MOL0     C16297   2.866   0.487   1.714  0.3498 -0.0933 -0.7130
  862MOL0     C16298   2.772   0.377   1.720 -0.2299  1.1514 -0.1851
  862MOL0     C16299   2.679   0.294   1.716  0.8312  0.4174 -0.4642
  862MOL0     C16300   3.160   0.752   2.094  0.1862 -0.2229 -0.4796
  862MOL0     C16301   3.265   0.756   2.184  0.0801  0.8072 -0.2504
  862MOL0     C16302   3.267   0.641   2.272  0.7035  0.5244  0.9600
  862MOL0     H16303   3.634   1.128   2.416  2.5632  1.9987  2.6128
  862MOL0     H16304   3.864   1.191   2.499  3.0700  0.1101 -0.1990
  862MOL0     H16305   4.067   1.069   2.622  2.0594 -0.1650  2.3339
  862MOL0     H16306   4.158   0.944   2.553  0.6305 -0.1214  0.6264
  862MOL0     H16307   4.284   1.131   2.684  0.8049 -1.0972 -0.0075
  862MOL0     H16308   4.259   1.233   2.545 -0.9888  0.2493  1.0561
  862MOL0     H16309   4.386   1.008   2.432 -0.3810  1.1082 -0.6277
  862MOL0     H16310   4.408   0.989   2.607  0.0251  1.3690  0.5457
  862MOL0     H16311   4.508   1.242   2.479 -1.6935 -0.0636 -0.5217
  862MOL0     H16312   4.537   1.167   2.641  4.2761 -2.8686 -0.0377
  862MOL0     H16313   4.616   1.049   2.382 -2.1744  2.3763 -0.6464
  862MOL0     H16314   4.727   1.154   2.454 -0.6051  0.1298 -3.6753
  862MOL0     H16315   4.733   0.999   2.667  0.2559  0.2448 -0.2902
  862MOL0     H16316   4.608   0.902   2.567  1.2286 -1.2027 -0.7393
  862MOL0     H16317   4.770   0.862   2.412  0.5860  2.9394 -1.2973
  862MOL0     H16318   4.822   0.805   2.572 -0.2656  0.6084  0.4576
  862MOL0     H16319   4.935   1.035   2.417 -1.6912 -0.1401  0.4787
  862MOL0     H16320   4.976   1.013   2.589 -0.0611 -1.6902  0.4672
  862MOL0     H16321   5.081   0.788   2.664  0.3101 -0.8068  0.3732
  862MOL0     H16322   5.297   0.542   2.546 -2.7718  0.5562 -0.2931
  862MOL0     H16323   5.416   0.684   2.559  1.3594  0.4508  4.8235
  862MOL0     H16324   5.260   0.738   2.767 -0.2409 -0.1502  1.9222
  862MOL0     H16325   5.196   0.578   2.734 -0.6906  2.2072  0.3026
  862MOL0     H16326   5.417   0.471   2.768  1.8937 -0.1314  2.4667
  862MOL0     H16327   5.357   0.548   2.903  2.9040 -0.6682  1.5896
  862MOL0     H16328   5.499   0.755   2.878 -0.6716  0.1757 -0.4084
  862MOL0     H16329   5.576   0.684   2.744  0.5373  0.4181 -0.1615
  862MOL0     H16330   5.682   0.820   2.992  1.1287  1.3522 -0.8121
  862MOL0     H16331   5.922   0.868   3.059  1.8981 -0.5504  0.5982
  862MOL0     H16332   6.379   0.792   2.929  0.6488 -0.3155  0.1356
  862MOL0     H16333   6.619   0.842   3.000  0.1738  0.6175 -0.4725
  862MOL0     H16334   6.729   1.129   3.283 -4.9105  0.1946  0.0798
  862MOL0     H16335   6.681   1.034   3.414  2.0552  0.8614  0.7733
  862MOL0     H16336   6.919   1.044   3.415 -2.5409  2.2389 -0.1595
  862MOL0     H16337   6.865   0.882   3.399  3.5301  0.2514  1.6686
  862MOL0     H16338   6.926   0.882   3.146  2.4397  1.3473 -1.1097
  862MOL0     H16339   6.929   1.060   3.153 -1.9406 -0.5823 -0.0579
  862MOL0     H16340   7.113   0.857   3.281  0.8765 -0.2738  0.0663
  862MOL0     H16341   7.143   1.036   3.279 -1.8576  0.9636 -0.5999
  862MOL0     H16342   7.167   1.047   3.057  2.7228 -0.1666 -0.1278
  862MOL0     H16343   7.100   0.880   3.027 -1.2263  1.7132 -0.8747
  862MOL0     H16344   7.347   0.907   2.986 -1.8103  2.3728 -0.4279
  862MOL0     H16345   7.368   0.983   3.145  0.5684  0.5944 -0.9304
  862MOL0     H16346   7.290   0.706   3.078  0.4241 -2.9824  1.1900
  862MOL0     H16347   7.330   0.773   3.249  0.4179  1.7121 -1.3391
  862MOL0     H16348   7.510   0.626   3.126 -0.4534 -1.2691 -0.4227
  862MOL0     H16349   7.525   0.744   3.009  1.9778 -0.4859  0.9936
  862MOL0     H16350   6.464   1.027   3.351 -0.2460 -2.1444  0.8638
  862MOL0     H16351   6.230   0.991   3.292 -0.2183  2.3426 -1.2710
  862MOL0     H16352   6.054   0.486   2.939  1.5253  1.1073  0.8353
  862MOL0     H16353   5.794   0.428   2.882  1.6382  0.0110 -2.5472
  862MOL0     H16354   4.034   0.914   2.223  1.3048  0.2573  1.7359
  862MOL0     H16355   3.824   0.849   2.139 -0.0631 -1.1952  1.0521
  862MOL0     H16356   3.435   1.021   2.062 -1.0637  2.7178  3.1466
  862MOL0     H16357   3.218   1.048   1.941 -1.5125  0.2596  0.4381
  862MOL0     H16358   2.832   0.862   1.898 -0.7278 -0.0024  2.7322
  862MOL0     H16359   2.896   0.778   2.027 -2.8906 -0.5737 -0.7051
  862MOL0     H16360   3.033   0.654   1.816  0.9381  1.6034  0.0269
  862MOL0     H16361   2.940   0.747   1.715  0.0655  0.9381  0.4666
  862MOL0     H16362   2.734   0.646   1.796  0.4624  0.0893 -0.1340
  862MOL0     H16363   2.824   0.547   1.915  2.4218 -1.8033  0.2932
  862MOL0     H16364   2.882   0.514   1.609  1.6862  0.5122 -0.3705
  862MOL0     H16365   2.961   0.448   1.751 -0.5409  0.2997  2.2976
  862MOL0     H16366   2.609   0.215   1.697  0.7753 -0.0739  1.6316
  862MOL0     H16367   3.078   0.682   2.103 -0.9345  0.9088 -1.3859
  862MOL0     H16368   3.165   0.618   2.303  0.1011  1.0255 -0.5580
  862MOL0     H16369   3.324   0.562   2.220 -1.5945 -0.2037 -0.5964
  862MOL0     H16370   3.308   0.669   2.369  1.0796 -1.1220  1.3138
  863MOL0     O16371   3.897   0.068   0.011 -0.3770 -0.5831 -0.3236
  863MOL0     C16372   3.846  -0.039  -0.029  0.4428  0.2887  0.7602
  863MOL0     O16373   3.722  -0.076   0.019 -0.3937  0.3781 -1.0833
  863MOL0     C16374   3.646   0.007   0.089  0.5655 -0.0390 -0.3098
  863MOL0     C16375   3.514   0.022   0.062 -1.1405  0.0767  0.3642
  863MOL0     C16376   3.429   0.075   0.153  0.1681 -0.1600  0.6432
  863MOL0     C16377   3.472   0.137   0.269  0.8846  0.0013  0.1236
  863MOL0     O16378   3.378   0.207   0.344 -0.9695 -0.9364  0.2220
  863MOL0     C16379   3.407   0.227   0.485 -0.4724  1.4429 -0.8294
  863MOL0     C16380   3.269   0.202   0.558 -0.6203  0.1733  0.6914
  863MOL0     C16381   3.201   0.070   0.518  0.1421  0.5773  0.3581
  863MOL0     C16382   3.159  -0.017   0.633  0.4743  0.0435 -0.5129
  863MOL0     C16383   3.075  -0.137   0.585  0.0629 -0.1922  0.2937
  863MOL0     C16384   3.076  -0.237   0.702  0.3865  0.1382 -0.2271
  863MOL0     C16385   3.002  -0.361   0.656  0.4292 -0.5835  0.7749
  863MOL0     C16386   2.973  -0.470   0.762  0.1952 -0.1284 -0.6214
  863MOL0     N16387   3.097  -0.517   0.829  0.6838 -0.0450 -0.1075
  863MOL0     C16388   3.153  -0.642   0.812  0.5568 -0.3979 -0.1478
  863MOL0     C16389   3.263  -0.630   0.884  0.2949 -0.0813  0.3560
  863MOL0     C16390   3.369  -0.732   0.891 -0.4891 -0.3914  0.2092
  863MOL0     C16391   3.503  -0.686   0.959 -0.3163 -0.3682 -0.8062
  863MOL0     C16392   3.603  -0.802   0.958  0.0815 -0.4607 -0.6656
  863MOL0     C16393   3.753  -0.748   0.932  0.3222  0.0740  0.4964
  863MOL0     O16394   3.790  -0.627   1.008  0.8574 -0.0011 -1.1542
  863MOL0     C16395   3.871  -0.531   0.951 -0.2030 -0.0060 -0.1239
  863MOL0     C16396   3.947  -0.550   0.839  0.5339 -0.7373  0.2946
  863MOL0     C16397   4.018  -0.438   0.791  0.5027 -0.0457  0.0442
  863MOL0     C16398   3.996  -0.309   0.844 -0.2653  0.6470 -0.4451
  863MOL0     C16399   4.067  -0.194   0.783  0.4779  0.1289 -0.4404
  863MOL0     O16400   4.048  -0.068   0.840  0.3163  0.4084 -0.3237
  863MOL0     C16401   4.123   0.033   0.783 -0.0854  0.1546  0.5267
  863MOL0     C16402   4.260   0.033   0.786 -0.3059 -0.2637  0.1708
  863MOL0     C16403   4.329   0.136   0.716  0.5636  0.1873  0.0524
  863MOL0     C16404   4.254   0.235   0.646 -0.4135  0.1547 -0.8749
  863MOL0     O16405   4.322   0.344   0.595 -0.7801  0.7455 -0.8349
  863MOL0     C16406   4.243   0.467   0.576  1.1306  0.1559  0.0949
  863MOL0     C16407   4.352   0.578   0.538 -0.0173  0.0215  0.2884
  863MOL0     C16408   4.293   0.707   0.478  0.4721 -0.9551  0.0268
  863MOL0     C16409   4.395   0.826   0.467 -0.1896  0.4673  0.2565
  863MOL0     C16410   4.335   0.930   0.369  0.3806 -0.2734 -0.1863
  863MOL0     C16411   4.422   1.051   0.352  0.4148  0.0968 -1.1743
  863MOL0     C16412   4.457   1.129   0.477  0.4677 -0.6232  0.3268
  863MOL0     C16413   4.603   1.188   0.484 -0.1346 -1.3460 -0.5587
  863MOL0    Cl16414   4.642   1.277   0.332 -0.0374  0.5860 -0.4908
  863MOL0     C16415   4.116   0.226   0.637  0.8030  0.3302 -0.2039
  863MOL0     C16416   4.053   0.127   0.715  0.4389 -0.2467  0.4026
  863MOL0     O16417   4.136  -0.213   0.683 -0.0924  0.5481 -0.0296
  863MOL0     C16418   3.938  -0.288   0.961  0.3321 -0.0339  0.5829
  863MOL0     C16419   3.862  -0.407   1.006 -0.5734 -0.0745 -0.4219
  863MOL0     N16420   3.263  -0.510   0.947 -0.2464  0.0628 -0.4783
  863MOL0     N16421   3.165  -0.439   0.910 -0.5008 -0.5859 -0.2930
  863MOL0     C16422   3.606   0.132   0.306 -0.4631 -0.0307  0.3271
  863MOL0     C16423   3.695   0.059   0.214  0.1123  0.6178 -0.4668
  863MOL0     C16424   3.937  -0.107  -0.129 -1.1417  0.9288 -0.3581
  863MOL0     C16425   4.070  -0.056  -0.144 -0.1015  0.2078  0.7528
  863MOL0     C16426   4.158  -0.100  -0.242 -1.5354 -0.2161  0.0947
  863MOL0     C16427   4.123  -0.208  -0.329  0.1745 -0.0622 -0.5325
  863MOL0     O16428   4.224  -0.254  -0.413  1.4795  0.1006  0.7073
  863MOL0     C16429   4.176  -0.355  -0.508 -0.8139 -0.1271 -0.2426
  863MOL0     C16430   4.304  -0.385  -0.586  0.4468 -0.0867  0.3468
  863MOL0     C16431   4.413  -0.449  -0.499 -0.7493 -0.2383 -0.7030
  863MOL0     C16432   4.528  -0.494  -0.586  0.1955  0.3109  1.6953
  863MOL0     C16433   4.648  -0.516  -0.510 -0.3196  0.2488  0.0653
  863MOL0     C16434   4.752  -0.557  -0.462 -0.2951  0.0631  0.5975
  863MOL0     C16435   3.991  -0.263  -0.304  0.2498  0.5893  0.2279
  863MOL0     C16436   3.896  -0.210  -0.216 -0.3384 -0.0887  0.6191
  863MOL0     C16437   3.763  -0.281  -0.198  0.1314 -0.1807  0.3384
  863MOL0     H16438   3.472  -0.003  -0.035 -1.0855 -2.5250  0.9198
  863MOL0     H16439   3.323   0.084   0.132  0.1685  1.4261  1.2357
  863MOL0     H16440   3.468   0.146   0.524 -0.8114  2.1199  1.2225
  863MOL0     H16441   3.446   0.328   0.500 -0.7486  1.2930  1.1794
  863MOL0     H16442   3.194   0.276   0.529 -0.7605 -0.0493  0.4744
  863MOL0     H16443   3.264   0.225   0.665  0.9970 -0.8083  1.0106
  863MOL0     H16444   3.273   0.008   0.465  0.3795 -1.2870  2.7001
  863MOL0     H16445   3.116   0.099   0.455  1.7649  1.2071 -1.6621
  863MOL0     H16446   3.250  -0.056   0.679 -0.7715 -0.4700  1.6599
  863MOL0     H16447   3.115   0.040   0.715  2.3281  0.2063  0.3945
  863MOL0     H16448   2.973  -0.109   0.558  0.4096 -0.4344 -1.3372
  863MOL0     H16449   3.123  -0.182   0.498  0.1180  1.0186 -0.3286
  863MOL0     H16450   3.182  -0.242   0.727  0.7812  0.2451 -1.7736
  863MOL0     H16451   3.031  -0.195   0.792  4.6284  0.5993  1.9130
  863MOL0     H16452   3.039  -0.409   0.565 -1.7530  0.1914 -0.6100
  863MOL0     H16453   2.903  -0.326   0.624  2.0202  0.5338 -3.5703
  863MOL0     H16454   2.914  -0.425   0.843  0.3899 -1.4690  0.3013
  863MOL0     H16455   2.911  -0.552   0.724  0.3260 -0.7878  0.5281
  863MOL0     H16456   3.123  -0.717   0.740  2.6959 -1.5657  0.0797
  863MOL0     H16457   3.325  -0.824   0.929 -0.0423 -1.1058 -0.9431
  863MOL0     H16458   3.402  -0.757   0.789  1.4600  0.0117  0.6918
  863MOL0     H16459   3.532  -0.592   0.913 -3.2582  1.6705  1.1858
  863MOL0     H16460   3.471  -0.647   1.056 -0.4158  2.0486 -1.7438
  863MOL0     H16461   3.580  -0.873   0.878 -0.2573  0.6455 -1.5751
  863MOL0     H16462   3.593  -0.848   1.057  2.8068  1.2558  0.5157
  863MOL0     H16463   3.763  -0.728   0.825 -2.1983  2.2153  0.5585
  863MOL0     H16464   3.817  -0.829   0.968  0.1854  0.5296  1.8001
  863MOL0     H16465   3.951  -0.642   0.783  0.9542 -1.8891  2.1224
  863MOL0     H16466   4.081  -0.439   0.703  2.0484 -2.1080  1.0832
  863MOL0     H16467   4.316  -0.045   0.836 -3.6118 -1.6865  1.9758
  863MOL0     H16468   4.436   0.155   0.724  0.1455  2.1401  1.8742
  863MOL0     H16469   4.181   0.449   0.488  0.6762  0.0193  0.4421
  863MOL0     H16470   4.190   0.495   0.667  1.7706 -0.3129  0.6277
  863MOL0     H16471   4.409   0.593   0.630 -0.4125 -0.8535  0.6840
  863MOL0     H16472   4.427   0.544   0.466 -0.7317 -0.5900 -0.1817
  863MOL0     H16473   4.256   0.677   0.380 -0.7475 -2.4369  0.9031
  863MOL0     H16474   4.206   0.741   0.534  0.4566 -0.2935 -0.3863
  863MOL0     H16475   4.490   0.784   0.432  0.2551  0.1874  1.7184
  863MOL0     H16476   4.415   0.859   0.570 -0.8133 -4.9932  2.4506
  863MOL0     H16477   4.240   0.961   0.413  1.4423  0.8695  1.4082
  863MOL0     H16478   4.306   0.887   0.272 -4.5048 -0.1583  0.9500
  863MOL0     H16479   4.512   1.012   0.303  3.0400  0.0143  3.1278
  863MOL0     H16480   4.361   1.118   0.292 -1.9413  0.4071  1.3650
  863MOL0     H16481   4.427   1.068   0.562 -2.8354  0.4529  0.1234
  863MOL0     H16482   4.397   1.220   0.493 -0.4780 -0.9848 -0.9378
  863MOL0     H16483   4.597   1.253   0.571 -2.2744 -2.5730  0.2805
  863MOL0     H16484   4.672   1.104   0.494 -0.3275 -1.5015 -0.5309
  863MOL0     H16485   4.056   0.297   0.581  1.7889 -1.2007 -3.4806
  863MOL0     H16486   3.947   0.107   0.725  0.3833 -0.0379  0.2393
  863MOL0     H16487   3.945  -0.193   1.013  3.0484 -0.1298  0.5005
  863MOL0     H16488   3.785  -0.397   1.082 -0.5852 -0.0572 -0.4361
  863MOL0     H16489   3.639   0.180   0.397  4.8587 -3.0784  0.3915
  863MOL0     H16490   3.800   0.055   0.239  0.1555  4.0635  0.3990
  863MOL0     H16491   4.115   0.027  -0.090  1.5393 -0.7354  0.8899
  863MOL0     H16492   4.257  -0.054  -0.247 -1.7667  0.1358 -2.9032
  863MOL0     H16493   4.095  -0.314  -0.570 -0.6948  1.4695  0.5926
  863MOL0     H16494   4.142  -0.445  -0.457  0.2647 -0.9559 -0.9384
  863MOL0     H16495   4.344  -0.290  -0.623 -0.0549 -0.4592 -1.2026
  863MOL0     H16496   4.285  -0.455  -0.668 -0.7425 -0.1778  0.6795
  863MOL0     H16497   4.375  -0.529  -0.434 -3.3649  0.7120 -0.9127
  863MOL0     H16498   4.455  -0.381  -0.425  0.0425 -0.4846 -0.9229
  863MOL0     H16499   4.504  -0.590  -0.632 -2.6272  0.7146  2.1132
  863MOL0     H16500   4.542  -0.422  -0.667 -3.2588 -1.1315 -0.4333
  863MOL0     H16501   4.846  -0.604  -0.445 -0.3122 -0.7697 -1.3565
  863MOL0     H16502   3.969  -0.355  -0.357  2.7688 -0.6767  1.1537
  863MOL0     H16503   3.685  -0.211  -0.229  2.3853  1.7317 -1.4194
  863MOL0     H16504   3.746  -0.360  -0.272  1.0647  3.7295 -4.6966
  863MOL0     H16505   3.739  -0.307  -0.095  0.3867 -0.9084  0.2174
  864MOL0     O16506   2.559   7.906  11.131  0.8310 -0.1676 -0.2749
  864MOL0     C16507   2.524   8.019  11.163 -0.4689 -1.0090  0.1854
  864MOL0     O16508   2.603   8.125  11.173 -0.5071 -0.9242  0.4710
  864MOL0     C16509   2.742   8.106  11.168 -0.0405 -0.1558  0.3277
  864MOL0     C16510   2.815   8.118  11.048 -0.6551 -0.1949 -0.0128
  864MOL0     C16511   2.955   8.116  11.054  0.3619 -0.3038 -0.1957
  864MOL0     C16512   3.022   8.098  11.171 -0.5972 -0.1644  0.8104
  864MOL0     O16513   3.155   8.097  11.163  0.1373  0.3338 -0.5026
  864MOL0     C16514   3.225   8.107  11.286 -0.9774 -0.2456  0.5174
  864MOL0     C16515   3.376   8.109  11.251  0.9575 -0.6732 -0.8582
  864MOL0     C16516   3.436   8.242  11.195 -0.2857  0.2297 -0.1075
  864MOL0     C16517   3.460   8.343  11.306  0.3514  0.5429 -0.3656
  864MOL0     C16518   3.555   8.455  11.263  0.4765  0.3869  0.5204
  864MOL0     C16519   3.541   8.567  11.361  0.6663 -0.5376 -0.4326
  864MOL0     C16520   3.671   8.650  11.366  0.0666  0.3234  0.6336
  864MOL0     C16521   3.650   8.793  11.428  0.0320 -0.1848 -0.7320
  864MOL0     N16522   3.760   8.872  11.409 -0.5895 -0.3231  0.5453
  864MOL0     C16523   3.761   8.997  11.335 -0.9190 -0.3434  0.1052
  864MOL0     C16524   3.885   9.034  11.358 -0.2434 -0.1382 -0.1215
  864MOL0     C16525   3.970   9.148  11.302  0.0776 -0.3858  0.2235
  864MOL0     C16526   3.889   9.272  11.267 -0.0022 -0.7807  0.8711
  864MOL0     C16527   3.969   9.390  11.207  0.3664 -0.3149 -0.6442
  864MOL0     C16528   4.063   9.450  11.305  0.3654  0.1817 -0.4868
  864MOL0     O16529   3.998   9.479  11.428  0.1953 -0.5387  0.2964
  864MOL0     C16530   4.072   9.522  11.533 -1.0219 -0.3828 -0.3104
  864MOL0     C16531   4.213   9.516  11.546  0.3864  0.4102  0.1880
  864MOL0     C16532   4.263   9.547  11.664 -0.4335 -0.1401 -0.1268
  864MOL0     C16533   4.197   9.613  11.768 -0.4735 -0.0113  0.3319
  864MOL0     C16534   4.264   9.647  11.894  0.8214 -0.6029 -0.1514
  864MOL0     O16535   4.393   9.617  11.894  0.1457  0.4368 -0.3780
  864MOL0     C16536   4.471   9.648  12.002  0.3138 -0.7651 -0.3015
  864MOL0     C16537   4.547   9.546  12.069 -0.0638  0.7091 -0.0761
  864MOL0     C16538   4.617   9.574  12.192 -0.4794 -0.1472 -0.0127
  864MOL0     C16539   4.630   9.704  12.238 -0.2766 -1.4126 -0.5089
  864MOL0     O16540   4.694   9.749  12.355 -0.1249  0.0520 -0.2101
  864MOL0     C16541   4.623   9.736  12.477 -0.8563 -0.3466  0.6001
  864MOL0     C16542   4.652   9.849  12.588 -0.4066  0.3303  0.1109
  864MOL0     C16543   4.798   9.871  12.617 -0.2909  0.3310  0.1158
  864MOL0     C16544   4.840   9.746  12.697 -0.9644 -0.5366 -0.0968
  864MOL0     C16545   4.974   9.786  12.765 -0.4699 -0.5439  0.5475
  864MOL0     C16546   5.103   9.814  12.677  0.9841 -0.0128 -0.5733
  864MOL0     C16547   5.222   9.866  12.754  0.2163 -1.0654 -0.7976
  864MOL0     C16548   5.219  10.022  12.780 -0.7409  0.3328  0.0521
  864MOL0    Cl16549   5.380  10.087  12.841 -0.4601 -0.3794  0.1992
  864MOL0     C16550   4.560   9.802  12.176  0.5343  0.3290 -0.0703
  864MOL0     C16551   4.467   9.771  12.073 -0.1750 -0.7624  0.3161
  864MOL0     O16552   4.196   9.685  11.986 -0.0587 -0.4239 -0.3820
  864MOL0     C16553   4.062   9.618  11.761  0.1787  0.7526 -0.1306
  864MOL0     C16554   4.000   9.568  11.642 -1.0070 -0.1169  0.0064
  864MOL0     N16555   3.953   8.947  11.449 -0.2420  0.7080  0.3274
  864MOL0     N16556   3.871   8.860  11.485 -0.5695 -0.2832 -0.6058
  864MOL0     C16557   2.951   8.079  11.286 -0.7959  0.0482 -0.5545
  864MOL0     C16558   2.813   8.092  11.286  0.4841 -0.5211  0.3019
  864MOL0     C16559   2.372   8.038  11.158  0.7235 -0.1503 -1.1569
  864MOL0     C16560   2.331   8.162  11.198  0.4144 -0.7007  0.6203
  864MOL0     C16561   2.191   8.187  11.208  0.3234 -0.1836 -0.2030
  864MOL0     C16562   2.099   8.089  11.188  0.6858  0.0577  0.3038
  864MOL0     O16563   1.965   8.125  11.206  0.2685 -0.4120 -0.6658
  864MOL0     C16564   1.880   8.044  11.293 -0.1101 -1.2705  0.2260
  864MOL0     C16565   1.911   8.073  11.439  0.5441 -0.8165  0.3329
  864MOL0     C16566   1.852   8.206  11.477  0.4634  0.2541 -0.9208
  864MOL0     C16567   1.951   8.317  11.463  1.0101  1.3561 -0.3415
  864MOL0     C16568   2.063   8.314  11.558 -0.7339 -0.3025  0.1499
  864MOL0     C16569   2.143   8.313  11.652 -0.0104  0.3248 -1.2903
  864MOL0     C16570   2.133   7.964  11.140 -0.2052  0.6312 -0.1285
  864MOL0     C16571   2.271   7.935  11.137 -0.8888 -0.0357  0.7159
  864MOL0     C16572   2.304   7.790  11.101  0.8616  0.8243 -0.5265
  864MOL0     H16573   2.754   8.137  10.960 -3.2316 -2.5558  1.1190
  864MOL0     H16574   3.021   8.137  10.971  0.3604 -0.8221 -0.3320
  864MOL0     H16575   3.211   8.207  11.329  2.5965  0.0104  1.3696
  864MOL0     H16576   3.214   8.019  11.351  1.2975 -1.0351 -0.0893
  864MOL0     H16577   3.408   8.027  11.186  0.9849 -1.0900 -0.3274
  864MOL0     H16578   3.428   8.085  11.344 -1.2746 -2.0796  0.1203
  864MOL0     H16579   3.371   8.286  11.119  0.7883 -2.0698 -2.5074
  864MOL0     H16580   3.532   8.214  11.151 -0.4823  1.4732 -1.4074
  864MOL0     H16581   3.357   8.379  11.319 -0.9420 -1.6417 -3.4311
  864MOL0     H16582   3.494   8.289  11.395  0.4708  2.3896  0.7682
  864MOL0     H16583   3.660   8.424  11.257  0.4869  0.7460 -2.5195
  864MOL0     H16584   3.531   8.493  11.164  0.7931 -1.4464 -0.3046
  864MOL0     H16585   3.464   8.639  11.332  0.2654 -1.4475 -1.7281
  864MOL0     H16586   3.520   8.518  11.456 -0.0881 -0.7156 -0.6882
  864MOL0     H16587   3.706   8.665  11.263 -2.3644  0.2254 -0.2749
  864MOL0     H16588   3.750   8.592  11.416 -0.9926 -1.1380  0.6726
  864MOL0     H16589   3.559   8.833  11.381 -1.0347 -0.4303  1.0311
  864MOL0     H16590   3.626   8.791  11.535 -0.5233 -2.0394 -0.8530
  864MOL0     H16591   3.684   9.037  11.269 -0.9437  0.8202  0.7933
  864MOL0     H16592   4.051   9.176  11.370 -1.3235  1.6999  1.1694
  864MOL0     H16593   4.013   9.098  11.215 -0.6311 -3.0635  1.3169
  864MOL0     H16594   3.817   9.249  11.188  0.8575  2.2125 -0.9463
  864MOL0     H16595   3.829   9.308  11.351 -0.2956  1.0760 -0.0686
  864MOL0     H16596   3.883   9.455  11.187 -1.2557 -1.2105  2.6338
  864MOL0     H16597   4.020   9.368  11.114 -1.0550 -0.5447 -1.3953
  864MOL0     H16598   4.111   9.539  11.263  0.3713  0.0785 -0.7000
  864MOL0     H16599   4.147   9.381  11.319  1.6074  0.9016 -3.4680
  864MOL0     H16600   4.272   9.475  11.466  0.3512 -0.3188  0.5286
  864MOL0     H16601   4.368   9.521  11.659  0.5773  3.5505 -0.9368
  864MOL0     H16602   4.544   9.445  12.028  0.5581  1.0145 -0.9045
  864MOL0     H16603   4.660   9.487  12.239  1.3596  0.7200  0.0182
  864MOL0     H16604   4.515   9.731  12.460 -0.7451  1.2734 -0.8279
  864MOL0     H16605   4.647   9.635  12.510  1.9106 -0.6433 -1.9087
  864MOL0     H16606   4.606   9.943  12.554  1.9395  1.1837 -0.9180
  864MOL0     H16607   4.598   9.805  12.672 -4.9304 -2.6859 -3.8626
  864MOL0     H16608   4.853   9.873  12.522 -2.9609  1.1048 -1.5213
  864MOL0     H16609   4.814   9.964  12.671  2.3583  0.1169 -0.1479
  864MOL0     H16610   4.864   9.659  12.635  1.3224 -0.6381  0.8029
  864MOL0     H16611   4.766   9.700  12.763 -1.3578 -1.2605 -1.0274
  864MOL0     H16612   4.982   9.703  12.836 -0.8012  0.4359  1.7537
  864MOL0     H16613   4.958   9.876  12.825  1.7355  0.5000 -0.3363
  864MOL0     H16614   5.138   9.720  12.633  1.5985  0.1854 -0.5202
  864MOL0     H16615   5.067   9.886  12.603  0.1856 -0.4058 -0.5778
  864MOL0     H16616   5.317   9.848  12.703  0.5962 -2.7822  0.4144
  864MOL0     H16617   5.234   9.830  12.857 -0.2692  0.6259 -0.1261
  864MOL0     H16618   5.203  10.066  12.681 -1.9218 -1.0705 -0.4234
  864MOL0     H16619   5.141  10.049  12.851 -0.2857 -0.9478  1.0918
  864MOL0     H16620   4.570   9.899  12.223  0.9355  0.7870 -1.0508
  864MOL0     H16621   4.400   9.845  12.031  0.8053  0.4818  0.8608
  864MOL0     H16622   3.999   9.644  11.846 -1.5299 -0.1178 -1.0648
  864MOL0     H16623   3.894   9.572  11.622 -1.1704 -3.4527 -0.2222
  864MOL0     H16624   3.002   8.055  11.379 -1.8810  1.4616  0.4456
  864MOL0     H16625   2.761   8.081  11.381  1.3610  2.5479  1.2565
  864MOL0     H16626   2.400   8.246  11.213  0.3441 -0.1179 -1.8791
  864MOL0     H16627   2.152   8.287  11.224 -2.7593 -1.4931  1.3675
  864MOL0     H16628   1.904   7.940  11.266 -0.9798 -1.0962 -1.3251
  864MOL0     H16629   1.777   8.061  11.262  0.6677  0.3256 -1.6771
  864MOL0     H16630   2.020   8.078  11.453  0.6356 -1.0491 -0.2366
  864MOL0     H16631   1.862   7.991  11.492 -2.6617 -0.4531 -1.8180
  864MOL0     H16632   1.836   8.211  11.585  2.5779 -0.3153 -0.5361
  864MOL0     H16633   1.768   8.237  11.415  0.7252 -2.2127 -2.6515
  864MOL0     H16634   2.006   8.308  11.369 -0.3691  3.3897 -1.4403
  864MOL0     H16635   1.894   8.410  11.457 -0.4550  0.4038 -2.3145
  864MOL0     H16636   2.218   8.318  11.728 -1.3569 -2.6691  0.3923
  864MOL0     H16637   2.056   7.893  11.110 -0.0118 -1.2599  3.4464
  864MOL0     H16638   2.214   7.729  11.117  1.5629 -0.0648  0.1362
  864MOL0     H16639   2.328   7.794  10.995 -0.0992 -0.7651 -0.8349
  864MOL0     H16640   2.380   7.744  11.165  0.5728 -1.6575 -1.8543
  865MOL0     O16641  10.782   2.243  10.308 -0.0132 -0.2545 -0.0017
  865MOL0     C16642  10.701   2.338  10.317 -0.1842 -0.3011  0.2414
  865MOL0     O16643  10.704   2.455  10.238  0.7149 -0.5956  0.1938
  865MOL0     C16644  10.811   2.483  10.155 -0.8132 -0.0350 -0.3726
  865MOL0     C16645  10.841   2.413  10.043 -0.2816 -0.3984  0.2108
  865MOL0     C16646  10.951   2.434   9.960 -0.3451  0.0751 -0.3875
  865MOL0     C16647  11.028   2.552   9.991 -0.2567 -0.0503  0.0441
  865MOL0     O16648  11.150   2.583   9.929 -0.5970 -0.6049 -0.8660
  865MOL0     C16649  11.206   2.480   9.842 -0.3547  0.1162  0.5586
  865MOL0     C16650  11.354   2.518   9.805  0.4301 -0.6812  0.4684
  865MOL0     C16651  11.436   2.572   9.928  0.5967  0.4740  0.2837
  865MOL0     C16652  11.572   2.609   9.881 -0.9042  0.2589  0.3520
  865MOL0     C16653  11.659   2.691   9.982 -0.2901 -0.3966 -0.3958
  865MOL0     C16654  11.793   2.719   9.894 -0.3298 -0.0431 -0.2735
  865MOL0     C16655  11.896   2.801   9.971  0.2015 -0.1403 -0.4731
  865MOL0     C16656  11.986   2.856   9.866  0.7604  0.6656 -0.3467
  865MOL0     N16657  11.943   2.957   9.770  0.1908 -0.2868 -0.3407
  865MOL0     C16658  11.934   3.091   9.792  0.9294  0.1727 -0.2369
  865MOL0     C16659  11.890   3.142   9.671  0.1733  0.2397 -0.3764
  865MOL0     C16660  11.862   3.283   9.624 -0.5568  0.3385  0.7663
  865MOL0     C16661  11.807   3.373   9.743  0.5323  0.6152 -0.4932
  865MOL0     C16662  11.781   3.510   9.685 -0.7669  0.1703  0.0367
  865MOL0     C16663  11.675   3.602   9.751  0.0634 -0.4924 -0.3796
  865MOL0     O16664  11.745   3.655   9.863 -0.2542 -0.1854 -0.0241
  865MOL0     C16665  11.818   3.768   9.845 -1.0597 -0.6721  0.2813
  865MOL0     C16666  11.878   3.797   9.962  0.1892 -0.2829  0.3476
  865MOL0     C16667  11.950   3.917   9.969 -0.4680  0.0779  0.1380
  865MOL0     C16668  11.980   3.996   9.861  0.8841 -0.5580  0.4024
  865MOL0     C16669  12.044   4.128   9.872  0.4973 -0.1119 -0.4685
  865MOL0     O16670  12.040   4.207   9.768  0.2300  0.2669  0.6266
  865MOL0     C16671  12.063   4.342   9.772 -0.5682 -0.0645  0.0909
  865MOL0     C16672  11.961   4.437   9.776  0.0714 -0.0123 -0.4136
  865MOL0     C16673  11.969   4.575   9.752 -0.1345 -0.7697 -0.6026
  865MOL0     C16674  12.100   4.627   9.743 -0.6658  0.1379 -0.4625
  865MOL0     O16675  12.119   4.764   9.735 -0.0519 -0.1515  0.5336
  865MOL0     C16676  12.055   4.860   9.821  0.5286  0.2183 -0.9599
  865MOL0     C16677  12.137   4.977   9.857 -0.6729 -0.0508  0.0457
  865MOL0     C16678  12.072   5.062   9.964 -0.2085 -0.1205  0.7291
  865MOL0     C16679  12.055   4.997  10.104 -0.4533  0.2076  0.3091
  865MOL0     C16680  12.091   5.093  10.224  0.3057  0.7369 -0.3497
  865MOL0     C16681  12.234   5.090  10.271 -0.0635 -0.7896  1.3212
  865MOL0     C16682  12.249   5.232  10.338 -0.0921  0.8156  0.9013
  865MOL0     C16683  12.393   5.251  10.392  0.3693 -0.4684 -0.1038
  865MOL0    Cl16684  12.525   5.245  10.272  0.3201  0.4980  0.2633
  865MOL0     C16685  12.214   4.538   9.756 -0.0286 -0.4261  0.6055
  865MOL0     C16686  12.191   4.401   9.768  0.7728  0.3417  0.5577
  865MOL0     O16687  12.089   4.159   9.982 -0.3414 -0.9294 -0.3615
  865MOL0     C16688  11.934   3.949   9.735 -0.6736  0.1460  0.1846
  865MOL0     C16689  11.838   3.850   9.726 -0.7315  0.0393 -0.0335
  865MOL0     N16690  11.882   3.036   9.583 -0.3878 -0.0979  0.3488
  865MOL0     N16691  11.924   2.927   9.638  0.4397  0.3824  0.6129
  865MOL0     C16692  10.986   2.644  10.094 -0.2883  0.3333  0.0861
  865MOL0     C16693  10.881   2.600  10.180 -0.6350  0.1810  0.5064
  865MOL0     C16694  10.603   2.309  10.416  0.5572  1.0707 -0.1863
  865MOL0     C16695  10.568   2.179  10.435  0.2971  0.5500  0.5251
  865MOL0     C16696  10.459   2.147  10.514  0.2314 -0.7951  0.2076
  865MOL0     C16697  10.378   2.240  10.578  0.3160  0.3421 -0.3940
  865MOL0     O16698  10.295   2.183  10.675  0.2136 -0.5872 -0.5035
  865MOL0     C16699  10.163   2.235  10.674 -0.7229  0.0035 -0.1712
  865MOL0     C16700  10.060   2.153  10.750 -0.2058  0.1418  0.8087
  865MOL0     C16701  10.080   2.178  10.895 -0.2850 -0.6745 -0.4392
  865MOL0     C16702  10.027   2.318  10.938 -1.1301 -1.0313 -0.1579
  865MOL0     C16703   9.995   2.309  11.083  0.5334  0.7937 -0.3111
  865MOL0     C16704   9.964   2.308  11.202  0.5104 -0.0715 -0.6599
  865MOL0     C16705  10.414   2.376  10.578 -0.3055  0.3633  0.0486
  865MOL0     C16706  10.527   2.405  10.489 -0.6398  0.6007  0.1589
  865MOL0     C16707  10.575   2.546  10.484 -0.2543  0.0831 -0.0487
  865MOL0     H16708  10.770   2.334  10.024 -2.2844  1.0862  1.1334
  865MOL0     H16709  10.961   2.351   9.891 -2.0386  0.0327 -0.6248
  865MOL0     H16710  11.200   2.383   9.892 -0.5651  1.3448  3.1301
  865MOL0     H16711  11.148   2.474   9.750 -1.1089  0.3647  1.0096
  865MOL0     H16712  11.342   2.585   9.719  0.0435 -0.6761  0.5251
  865MOL0     H16713  11.414   2.434   9.770  1.0514  0.1837 -0.6226
  865MOL0     H16714  11.438   2.503  10.012  1.0243 -0.5681 -0.5624
  865MOL0     H16715  11.394   2.665   9.967 -0.9162 -0.6441  1.4475
  865MOL0     H16716  11.621   2.513   9.860 -1.9706 -0.1081 -0.5214
  865MOL0     H16717  11.566   2.666   9.788  3.3140 -0.9307 -0.8496
  865MOL0     H16718  11.619   2.787  10.015  1.7580  0.0041  1.0876
  865MOL0     H16719  11.673   2.615  10.059 -0.3812 -1.1353 -1.0932
  865MOL0     H16720  11.832   2.625   9.854  3.5947  1.2127  0.2446
  865MOL0     H16721  11.766   2.785   9.810  1.7814  0.6648 -0.4439
  865MOL0     H16722  11.955   2.740  10.039 -1.7054 -3.0109 -1.1998
  865MOL0     H16723  11.836   2.875  10.024 -3.0437 -0.5483 -3.1790
  865MOL0     H16724  12.085   2.883   9.904  0.7326  2.3900 -1.4007
  865MOL0     H16725  12.016   2.767   9.811  0.4429 -0.9372  1.9275
  865MOL0     H16726  11.949   3.141   9.887  0.2807  2.0093 -1.0424
  865MOL0     H16727  11.957   3.330   9.598 -1.0628  2.1214  1.9489
  865MOL0     H16728  11.792   3.285   9.540 -2.9203 -0.8132  2.6010
  865MOL0     H16729  11.715   3.321   9.772  2.1897 -2.5662 -0.5421
  865MOL0     H16730  11.875   3.359   9.827  1.4843 -2.2381 -1.6142
  865MOL0     H16731  11.733   3.496   9.587 -3.8216  1.5668  1.2144
  865MOL0     H16732  11.873   3.569   9.676 -0.5539  0.0169  1.1392
  865MOL0     H16733  11.586   3.549   9.786  0.3042 -0.9763 -0.4943
  865MOL0     H16734  11.638   3.684   9.689 -0.3639  0.6606  1.3141
  865MOL0     H16735  11.871   3.739  10.054 -1.3335 -2.0207 -0.8005
  865MOL0     H16736  11.983   3.948  10.067  2.0127 -1.4375 -0.1651
  865MOL0     H16737  11.864   4.395   9.804  1.2806 -1.9693  1.1290
  865MOL0     H16738  11.883   4.640   9.764  0.2922 -0.4809  1.1466
  865MOL0     H16739  11.962   4.892   9.772 -0.8544 -0.7685  0.9072
  865MOL0     H16740  12.033   4.804   9.912  0.2782  2.0418  0.1413
  865MOL0     H16741  12.230   4.929   9.889 -1.2146 -1.8308 -0.8967
  865MOL0     H16742  12.156   5.041   9.771  2.1502  1.4636  1.6574
  865MOL0     H16743  12.144   5.144   9.972  0.7237 -0.8634  0.2767
  865MOL0     H16744  11.976   5.101   9.930  1.5928  3.8587 -0.4041
  865MOL0     H16745  12.107   4.901  10.116 -1.4131 -0.1565  1.9055
  865MOL0     H16746  11.950   4.968  10.111 -0.1932 -0.7622  0.4578
  865MOL0     H16747  12.020   5.084  10.306 -3.2406  0.6214 -3.1588
  865MOL0     H16748  12.076   5.193  10.182 -1.3318  0.9839  0.7379
  865MOL0     H16749  12.255   5.011  10.344  1.4977  1.0437  2.9870
  865MOL0     H16750  12.312   5.083  10.194 -0.9717 -1.9938  0.4785
  865MOL0     H16751  12.180   5.248  10.421  3.3528  3.1121  3.6116
  865MOL0     H16752  12.235   5.308  10.261 -0.1551  0.2572  0.3561
  865MOL0     H16753  12.391   5.353  10.433 -1.6328  0.0556 -1.3777
  865MOL0     H16754  12.423   5.186  10.475 -0.3694  0.4620  0.9148
  865MOL0     H16755  12.313   4.583   9.755 -0.7567  1.2376  0.4494
  865MOL0     H16756  12.272   4.330   9.783  1.8493  1.1428 -1.1096
  865MOL0     H16757  11.955   4.006   9.644 -2.3402 -1.5216 -1.3326
  865MOL0     H16758  11.792   3.836   9.628  0.7504 -0.2575 -0.7216
  865MOL0     H16759  11.045   2.734  10.104 -0.4019  0.1701  3.0160
  865MOL0     H16760  10.855   2.662  10.265 -0.3018 -0.9556  1.4532
  865MOL0     H16761  10.617   2.091  10.394  2.9277  1.7852  0.8611
  865MOL0     H16762  10.429   2.050  10.554  0.2901 -0.5628  0.8299
  865MOL0     H16763  10.125   2.230  10.571 -0.1840 -1.0036 -0.3350
  865MOL0     H16764  10.182   2.335  10.714  2.7053 -0.4996 -0.2513
  865MOL0     H16765  10.067   2.055  10.702  1.5042  1.3031 -1.5009
  865MOL0     H16766   9.956   2.171  10.724  0.1908  0.9893 -0.2367
  865MOL0     H16767  10.186   2.187  10.920 -1.2908  0.5326  4.3994
  865MOL0     H16768  10.040   2.100  10.960  1.1187 -0.0286  1.2915
  865MOL0     H16769  10.107   2.393  10.933 -2.4931  0.3801 -2.4417
  865MOL0     H16770   9.952   2.362  10.872  2.5772  0.8831 -3.5904
  865MOL0     H16771   9.946   2.306  11.308  0.8563  0.9147 -0.5775
  865MOL0     H16772  10.379   2.447  10.653  0.6668 -0.7495  1.6059
  865MOL0     H16773  10.541   2.590  10.578  1.4538 -2.1342  1.7258
  865MOL0     H16774  10.684   2.558  10.479 -0.4358  2.2200  0.2912
  865MOL0     H16775  10.535   2.593  10.394  0.5363 -0.4341 -0.6953
  866MOL0     O16776   6.797  11.262   6.410  0.1681 -0.1505  0.6099
  866MOL0     C16777   6.677  11.233   6.399  0.2768 -0.0191  0.1727
  866MOL0     O16778   6.613  11.116   6.432 -0.8778 -0.6154  0.2057
  866MOL0     C16779   6.695  11.005   6.433  0.3246  0.1127 -0.6124
  866MOL0     C16780   6.734  10.938   6.551  0.2110 -0.5748 -0.1954
  866MOL0     C16781   6.825  10.825   6.539 -0.2203  0.4285  0.4232
  866MOL0     C16782   6.864  10.772   6.412  0.0958 -0.6744  0.1565
  866MOL0     O16783   6.952  10.667   6.412  0.2555 -0.5305  0.4797
  866MOL0     C16784   7.039  10.642   6.299 -0.4487  0.3531  0.1518
  866MOL0     C16785   7.176  10.711   6.302 -0.0241  0.2963  0.5583
  866MOL0     C16786   7.263  10.667   6.180  0.0043  0.0824  0.3614
  866MOL0     C16787   7.362  10.773   6.139 -0.1059  0.7911  0.9301
  866MOL0     C16788   7.396  10.752   5.998  0.0387 -0.4786  1.0559
  866MOL0     C16789   7.471  10.873   5.935 -0.9556 -0.6661  0.4305
  866MOL0     C16790   7.609  10.887   6.010 -0.2958  0.0447 -0.3643
  866MOL0     C16791   7.692  10.992   5.957 -0.8826  0.1487  0.0414
  866MOL0     N16792   7.814  11.009   6.035 -0.4075 -0.8929 -0.5705
  866MOL0     C16793   7.859  11.140   6.067 -0.2452  0.1368  0.5413
  866MOL0     C16794   7.975  11.122   6.133  0.0262  1.1435  0.8155
  866MOL0     C16795   8.072  11.219   6.188  0.2905  0.3231  0.3972
  866MOL0     C16796   8.053  11.359   6.127 -0.4380  0.9350 -0.7255
  866MOL0     C16797   8.143  11.455   6.204  0.2918  0.2593  0.2231
  866MOL0     C16798   8.114  11.602   6.175  0.7435  0.4536  0.5276
  866MOL0     O16799   8.065  11.607   6.041  0.1427  0.3989  1.0613
  866MOL0     C16800   8.040  11.738   5.993 -0.1129  0.0392  0.2193
  866MOL0     C16801   7.994  11.749   5.871 -0.1380 -0.7988  0.1778
  866MOL0     C16802   7.975  11.872   5.813  0.3933 -0.9546  0.7175
  866MOL0     C16803   7.991  11.991   5.891 -0.2800 -0.0362 -0.3083
  866MOL0     C16804   7.978  12.114   5.817  0.1142 -0.3682 -0.4836
  866MOL0     O16805   7.988  12.220   5.901  0.8989 -0.3291  0.6252
  866MOL0     C16806   7.992  12.350   5.863 -0.1576 -0.4659  1.1130
  866MOL0     C16807   8.057  12.403   5.747  0.6385  0.5756  0.0237
  866MOL0     C16808   8.073  12.540   5.718  0.2228  0.0366 -0.0975
  866MOL0     C16809   8.018  12.626   5.811  0.2927  0.0576  0.2436
  866MOL0     O16810   8.051  12.760   5.793  0.1523 -0.4786 -0.1778
  866MOL0     C16811   8.097  12.828   5.909 -0.3972  0.4856 -0.9882
  866MOL0     C16812   8.144  12.975   5.880 -0.3545  0.5092  0.1537
  866MOL0     C16813   8.239  12.983   5.762 -0.3503  0.1134 -1.3537
  866MOL0     C16814   8.352  13.077   5.790 -0.6412  0.5241  0.0562
  866MOL0     C16815   8.349  13.208   5.712  0.1908 -0.5427  0.2409
  866MOL0     C16816   8.460  13.297   5.765 -0.2847 -0.1498 -0.1662
  866MOL0     C16817   8.446  13.434   5.681  0.2558 -0.3339 -0.5216
  866MOL0     C16818   8.559  13.535   5.724 -0.0508 -0.2306  0.1158
  866MOL0    Cl16819   8.536  13.587   5.901 -0.0149 -0.0148 -0.6730
  866MOL0     C16820   7.949  12.583   5.922 -0.5122 -0.2986  0.1147
  866MOL0     C16821   7.934  12.444   5.949 -0.4744  0.4019 -0.2356
  866MOL0     O16822   7.964  12.121   5.698 -0.3162  1.1611  0.4268
  866MOL0     C16823   8.033  11.980   6.023  0.1343 -0.2137  0.0180
  866MOL0     C16824   8.067  11.852   6.073 -0.2136 -0.3885  0.0038
  866MOL0     N16825   8.004  10.986   6.137 -0.3160 -0.3074  0.2276
  866MOL0     N16826   7.912  10.926   6.063  1.1066 -0.6564  0.0181
  866MOL0     C16827   6.816  10.841   6.298 -0.5596  0.0176 -0.7781
  866MOL0     C16828   6.729  10.954   6.306 -0.2211  0.1187 -1.0206
  866MOL0     C16829   6.595  11.346   6.348 -0.4124  0.4052  1.1186
  866MOL0     C16830   6.616  11.401   6.223  0.1214 -0.9292  0.4597
  866MOL0     C16831   6.544  11.509   6.173 -0.1899  1.0679  0.2187
  866MOL0     C16832   6.442  11.564   6.254 -1.4841 -0.9180 -0.5226
  866MOL0     O16833   6.369  11.673   6.225  0.3376 -0.2595  0.1453
  866MOL0     C16834   6.409  11.773   6.122  0.3601  0.9158  0.2851
  866MOL0     C16835   6.344  11.907   6.166 -0.6874 -0.3062  0.3162
  866MOL0     C16836   6.201  11.922   6.120 -0.0800  0.2396 -0.0735
  866MOL0     C16837   6.138  12.035   6.201 -0.7492  0.1540  0.2244
  866MOL0     C16838   6.169  12.162   6.134 -0.1772  0.3014 -1.7907
  866MOL0     C16839   6.199  12.270   6.083 -0.9411  0.2039  0.2039
  866MOL0     C16840   6.420  11.512   6.378 -0.6574 -0.5082  0.2280
  866MOL0     C16841   6.493  11.399   6.422  0.2010 -0.6912 -0.4829
  866MOL0     C16842   6.444  11.339   6.555 -0.4684 -0.0748 -0.1652
  866MOL0     H16843   6.702  10.990   6.641  1.1165  2.5042 -1.5211
  866MOL0     H16844   6.870  10.769   6.621  4.6032  2.1712 -0.7027
  866MOL0     H16845   7.062  10.536   6.293 -1.3864  0.0762  1.1106
  866MOL0     H16846   6.988  10.655   6.203 -1.8806  2.7083  1.1276
  866MOL0     H16847   7.233  10.688   6.392  1.0793 -0.5588 -0.3246
  866MOL0     H16848   7.159  10.819   6.301  2.0792  0.6693 -0.3852
  866MOL0     H16849   7.192  10.646   6.099  2.0652 -0.3146 -1.4174
  866MOL0     H16850   7.310  10.570   6.196 -1.5229 -0.8650 -0.6030
  866MOL0     H16851   7.306  10.867   6.141  4.2796  3.6730  0.9592
  866MOL0     H16852   7.453  10.766   6.198  0.4502  0.1277  0.0145
  866MOL0     H16853   7.463  10.667   5.985  2.2983  1.5557 -2.2392
  866MOL0     H16854   7.300  10.740   5.945  0.4361 -1.0441  0.4431
  866MOL0     H16855   7.496  10.855   5.830 -1.7256 -0.5834  0.2295
  866MOL0     H16856   7.396  10.953   5.932 -0.7111 -0.2635  2.8615
  866MOL0     H16857   7.660  10.791   6.023  0.1134  0.1512 -1.1342
  866MOL0     H16858   7.582  10.926   6.109 -0.2392 -1.8037  0.4301
  866MOL0     H16859   7.715  10.965   5.854 -0.0306 -0.5551  0.4078
  866MOL0     H16860   7.626  11.080   5.960 -5.1298 -2.5725 -2.7653
  866MOL0     H16861   7.809  11.233   6.042  0.1250  0.0460 -0.5831
  866MOL0     H16862   8.052  11.222   6.296 -1.2378 -2.8349  0.3189
  866MOL0     H16863   8.171  11.174   6.177 -1.1197 -2.3203 -3.8097
  866MOL0     H16864   8.092  11.365   6.025 -1.6884  1.5996 -1.1773
  866MOL0     H16865   7.950  11.393   6.121 -0.4034  0.7239 -4.9062
  866MOL0     H16866   8.245  11.427   6.172  0.3210  0.5364  0.0674
  866MOL0     H16867   8.136  11.440   6.312  1.3119  1.1331  0.4375
  866MOL0     H16868   8.214  11.643   6.189  1.6604 -0.8206 -1.7179
  866MOL0     H16869   8.048  11.646   6.250  1.3106 -1.8066  2.4602
  866MOL0     H16870   7.973  11.658   5.815  1.2159 -0.9916 -0.0291
  866MOL0     H16871   7.948  11.868   5.708 -0.0092  2.6198  0.5637
  866MOL0     H16872   8.093  12.325   5.680  0.9928  0.3731  0.4445
  866MOL0     H16873   8.116  12.581   5.628 -0.1295 -0.3510 -0.4495
  866MOL0     H16874   8.029  12.834   5.994  1.0517 -0.2818  0.2620
  866MOL0     H16875   8.185  12.779   5.951 -0.4477  2.9775  2.4351
  866MOL0     H16876   8.069  13.054   5.873  0.5003  1.2017 -2.2948
  866MOL0     H16877   8.199  13.009   5.968  2.0436  0.5157 -1.2616
  866MOL0     H16878   8.284  12.885   5.742 -2.5606 -1.2132 -0.2365
  866MOL0     H16879   8.180  13.005   5.673 -0.6502  0.0891 -1.1617
  866MOL0     H16880   8.443  13.037   5.744  0.0587  2.9278 -0.8315
  866MOL0     H16881   8.364  13.098   5.897 -2.1546 -0.2239  0.3988
  866MOL0     H16882   8.252  13.257   5.728  1.7665  3.8508 -2.1398
  866MOL0     H16883   8.361  13.194   5.604  0.7679 -0.3331  0.2744
  866MOL0     H16884   8.444  13.308   5.873 -1.0236  0.2280 -0.3100
  866MOL0     H16885   8.560  13.253   5.755 -0.5942 -0.4447 -2.7700
  866MOL0     H16886   8.348  13.482   5.690 -0.8914 -2.8035  1.5394
  866MOL0     H16887   8.459  13.404   5.577  0.6005 -1.8422 -0.0666
  866MOL0     H16888   8.656  13.485   5.720 -1.5126 -3.2548 -0.0837
  866MOL0     H16889   8.565  13.617   5.652 -0.6045 -0.3520 -0.0709
  866MOL0     H16890   7.914  12.650   6.000  1.2798  1.7584 -0.7304
  866MOL0     H16891   7.888  12.423   6.045  1.1638 -0.2910  0.4451
  866MOL0     H16892   8.074  12.062   6.080 -0.0221  2.1780 -3.0554
  866MOL0     H16893   8.100  11.844   6.175 -1.2654 -2.4958  0.2217
  866MOL0     H16894   6.853  10.794   6.207  2.4230 -0.4469  0.5508
  866MOL0     H16895   6.705  10.998   6.210 -0.2950  0.2098 -0.9608
  866MOL0     H16896   6.692  11.367   6.153 -1.2402 -1.5947 -0.7537
  866MOL0     H16897   6.557  11.544   6.071  0.4679  0.7309  0.1791
  866MOL0     H16898   6.371  11.744   6.024 -1.8018 -1.9410  1.8161
  866MOL0     H16899   6.519  11.770   6.127  0.3847 -3.4986  2.8741
  866MOL0     H16900   6.403  11.986   6.120 -0.8219 -0.9784 -1.0702
  866MOL0     H16901   6.358  11.917   6.274  2.3021  2.2613 -0.1556
  866MOL0     H16902   6.150  11.825   6.133 -0.3348  0.6729  2.8101
  866MOL0     H16903   6.203  11.949   6.014 -1.1813  0.7098  0.0059
  866MOL0     H16904   6.032  12.015   6.184 -0.5225  0.0369 -1.2324
  866MOL0     H16905   6.165  12.031   6.307 -0.0742 -1.0916  0.0222
  866MOL0     H16906   6.236  12.366   6.052  0.2167 -0.0595  0.7312
  866MOL0     H16907   6.351  11.562   6.446 -1.9913  0.3986 -1.6906
  866MOL0     H16908   6.392  11.244   6.543 -3.0784  1.2488 -0.1556
  866MOL0     H16909   6.529  11.316   6.619  1.2461  1.8328 -1.6453
  866MOL0     H16910   6.377  11.402   6.616  1.0786  0.1901  1.3443
  867MOL0     O16911   8.112   4.154   3.338  0.1629  0.2678 -0.4574
  867MOL0     C16912   8.030   4.243   3.330  0.4871  0.2220  0.4219
  867MOL0     O16913   7.931   4.257   3.416  0.0606  0.2521  0.1810
  867MOL0     C16914   7.935   4.165   3.518 -0.5581 -0.1907  1.2268
  867MOL0     C16915   7.856   4.050   3.509 -0.2070  0.2892 -0.6536
  867MOL0     C16916   7.843   3.962   3.622 -0.5363  0.1083 -0.2286
  867MOL0     C16917   7.918   3.986   3.740 -0.2597  0.2844  1.2209
  867MOL0     O16918   7.920   3.900   3.853  0.7664  0.3219  0.2839
  867MOL0     C16919   7.820   3.794   3.844 -0.7276 -0.5682  0.4641
  867MOL0     C16920   7.829   3.722   3.976  0.0138  0.2173 -0.1354
  867MOL0     C16921   7.753   3.800   4.096  0.3289 -0.3935  0.5594
  867MOL0     C16922   7.603   3.774   4.097 -1.0329 -0.3346  0.0085
  867MOL0     C16923   7.540   3.813   4.236  1.3383  1.1915  0.3379
  867MOL0     C16924   7.395   3.750   4.230 -0.1319  0.0172 -0.8437
  867MOL0     C16925   7.332   3.759   4.370  0.1158  0.4036 -0.3874
  867MOL0     C16926   7.194   3.688   4.383  0.2231 -0.4146 -0.1575
  867MOL0     N16927   7.096   3.730   4.285  0.2513 -0.2662  0.8345
  867MOL0     C16928   7.032   3.650   4.191  1.0512 -0.0253  0.9097
  867MOL0     C16929   6.958   3.739   4.118  0.0841 -0.2464 -0.1520
  867MOL0     C16930   6.905   3.717   3.977  1.1507 -0.3612 -0.6401
  867MOL0     C16931   6.748   3.727   3.982 -0.3042 -0.4448  0.5879
  867MOL0     C16932   6.687   3.726   3.838  0.7939  0.3560  0.1388
  867MOL0     C16933   6.726   3.597   3.763  0.1156  0.2983  0.9218
  867MOL0     O16934   6.686   3.473   3.833 -0.0046  0.4186  0.1126
  867MOL0     C16935   6.553   3.434   3.841 -0.8322  0.2205  1.3325
  867MOL0     C16936   6.460   3.491   3.758  0.7343  0.2855  0.0238
  867MOL0     C16937   6.328   3.441   3.748 -0.1601  0.3766 -0.0674
  867MOL0     C16938   6.292   3.330   3.828  0.8537 -0.1146 -0.0627
  867MOL0     C16939   6.148   3.291   3.825  0.0137 -0.0444 -0.0483
  867MOL0     O16940   6.048   3.382   3.801 -0.7388  0.1820  0.3713
  867MOL0     C16941   5.914   3.348   3.824 -0.1018  0.2092 -0.3949
  867MOL0     C16942   5.844   3.404   3.927  0.2444 -0.0312  0.1898
  867MOL0     C16943   5.714   3.364   3.958 -0.0380 -0.7882 -0.8053
  867MOL0     C16944   5.638   3.283   3.871 -0.3296 -0.3113 -0.0805
  867MOL0     O16945   5.512   3.251   3.898  0.6358  0.6411 -0.0937
  867MOL0     C16946   5.474   3.246   4.040 -0.1723 -1.1787 -0.5281
  867MOL0     C16947   5.322   3.212   4.060 -0.1552 -0.3335  0.2169
  867MOL0     C16948   5.288   3.197   4.207  0.4285  0.0851  0.3545
  867MOL0     C16949   5.268   3.329   4.278 -0.4467  0.8041 -0.8887
  867MOL0     C16950   5.228   3.302   4.420  0.2571  0.5566  1.0901
  867MOL0     C16951   5.204   3.437   4.485  0.2250 -1.2320  0.3001
  867MOL0     C16952   5.125   3.431   4.623  0.9106  0.0628 -0.7209
  867MOL0     C16953   5.059   3.565   4.672  0.0892 -0.3971 -0.4644
  867MOL0    Cl16954   4.893   3.597   4.603 -0.4361  0.3105 -0.0431
  867MOL0     C16955   5.704   3.235   3.768 -0.1566 -0.4789  0.3395
  867MOL0     C16956   5.843   3.265   3.744  0.8014 -0.2529 -0.6216
  867MOL0     O16957   6.127   3.172   3.837 -0.1000 -0.3622  0.2464
  867MOL0     C16958   6.387   3.260   3.903  1.1577 -0.3611  0.0981
  867MOL0     C16959   6.515   3.322   3.925 -0.3565 -0.2415  0.2391
  867MOL0     N16960   6.976   3.867   4.163  0.0402 -0.3491  0.6407
  867MOL0     N16961   7.052   3.856   4.269 -0.4379  0.3377  0.2354
  867MOL0     C16962   7.986   4.105   3.744 -0.3869  0.7166 -0.5767
  867MOL0     C16963   7.994   4.195   3.638  0.0066 -0.0517  0.7538
  867MOL0     C16964   8.039   4.346   3.217  0.0614  0.1934 -0.2311
  867MOL0     C16965   7.917   4.410   3.182  0.1781  1.0767 -0.0129
  867MOL0     C16966   7.911   4.503   3.085  0.3374 -0.4376 -1.3602
  867MOL0     C16967   8.028   4.533   3.006 -0.4119  0.1329  0.5768
  867MOL0     O16968   8.036   4.633   2.907  0.2062 -0.6559  0.1517
  867MOL0     C16969   7.917   4.690   2.855 -1.1921  0.9834 -0.3354
  867MOL0     C16970   7.949   4.780   2.742 -0.3357  0.6681  0.2069
  867MOL0     C16971   8.040   4.711   2.649  0.3879  0.6867  0.9183
  867MOL0     C16972   8.045   4.760   2.501 -0.0565 -0.6265 -0.1638
  867MOL0     C16973   8.144   4.679   2.424  0.2973 -0.4845  0.5403
  867MOL0     C16974   8.230   4.621   2.360 -0.6127 -0.1692  0.3167
  867MOL0     C16975   8.145   4.458   3.028 -0.4045  0.1629 -0.0636
  867MOL0     C16976   8.154   4.376   3.139 -0.3608 -0.0245 -0.1098
  867MOL0     C16977   8.282   4.297   3.163  0.2107 -0.4652 -0.0034
  867MOL0     H16978   7.802   4.032   3.416 -0.8351  1.0251 -0.4424
  867MOL0     H16979   7.792   3.866   3.621  1.6343 -1.2364  2.2575
  867MOL0     H16980   7.720   3.836   3.832 -0.5113  1.3037  3.9147
  867MOL0     H16981   7.857   3.729   3.764 -3.3499 -0.2530 -1.1251
  867MOL0     H16982   7.935   3.714   4.001  0.1204  1.2952 -0.1627
  867MOL0     H16983   7.778   3.626   3.969 -0.8109  0.6396  0.0120
  867MOL0     H16984   7.756   3.907   4.077 -2.3290 -0.3056  0.2274
  867MOL0     H16985   7.799   3.775   4.192 -1.9893 -2.2436  1.2924
  867MOL0     H16986   7.554   3.814   4.008 -1.7088 -0.7367  0.1944
  867MOL0     H16987   7.606   3.666   4.081  1.3238 -0.5257  1.2291
  867MOL0     H16988   7.593   3.760   4.316  0.7464  0.1714  0.0873
  867MOL0     H16989   7.535   3.922   4.244  1.8350  1.3327 -1.0707
  867MOL0     H16990   7.333   3.792   4.150 -1.7010 -1.8902 -0.7008
  867MOL0     H16991   7.409   3.648   4.195 -1.0294  0.5212 -2.8164
  867MOL0     H16992   7.317   3.863   4.400 -3.5978 -0.4363  1.1704
  867MOL0     H16993   7.399   3.717   4.445 -1.8296 -2.8245 -0.2501
  867MOL0     H16994   7.202   3.579   4.379  1.1541 -0.4001  0.9003
  867MOL0     H16995   7.154   3.709   4.483  3.1805 -0.8201  1.2244
  867MOL0     H16996   7.044   3.544   4.167 -0.9613 -0.5648  2.0721
  867MOL0     H16997   6.956   3.792   3.916  0.4471  0.3442 -0.3683
  867MOL0     H16998   6.927   3.615   3.945 -0.9025 -1.3521  0.9036
  867MOL0     H16999   6.717   3.647   4.050  0.1746 -0.7789  0.4203
  867MOL0     H17000   6.709   3.813   4.037 -1.3158 -0.0399 -0.7332
  867MOL0     H17001   6.730   3.811   3.784  0.5003  0.9658  0.8540
  867MOL0     H17002   6.578   3.737   3.841  0.8053  0.7836 -0.7797
  867MOL0     H17003   6.834   3.604   3.749  0.2334 -1.3476  0.8259
  867MOL0     H17004   6.696   3.599   3.658  0.2714  4.2661  0.8047
  867MOL0     H17005   6.485   3.580   3.700  0.6726  1.2078  1.3875
  867MOL0     H17006   6.250   3.483   3.685  0.1714 -1.6894 -1.9982
  867MOL0     H17007   5.899   3.473   3.990 -0.2679  0.4667  0.1010
  867MOL0     H17008   5.676   3.394   4.056  0.0422  1.0655 -1.2963
  867MOL0     H17009   5.530   3.164   4.086 -1.1604 -1.2433  0.6391
  867MOL0     H17010   5.483   3.344   4.088 -0.4250 -2.6988  2.9166
  867MOL0     H17011   5.252   3.279   4.009 -0.2326  1.1603  2.1641
  867MOL0     H17012   5.311   3.115   4.011  0.8636  1.4066 -3.9117
  867MOL0     H17013   5.206   3.125   4.213 -0.2463  0.6769 -1.1575
  867MOL0     H17014   5.374   3.141   4.245  2.5555  0.3198 -3.5799
  867MOL0     H17015   5.185   3.382   4.231 -1.2832  2.3555  2.1190
  867MOL0     H17016   5.357   3.392   4.284  1.4535 -1.7244 -0.6345
  867MOL0     H17017   5.295   3.238   4.478 -0.8271 -1.8312 -0.1839
  867MOL0     H17018   5.140   3.239   4.411 -0.2775  1.3121  0.8998
  867MOL0     H17019   5.298   3.490   4.506  0.4455 -1.0884 -0.9914
  867MOL0     H17020   5.154   3.499   4.410  2.8663 -1.4294 -1.7941
  867MOL0     H17021   5.188   3.393   4.704  0.8330  0.4991 -0.4500
  867MOL0     H17022   5.048   3.357   4.601  1.2933 -0.6858  0.3830
  867MOL0     H17023   5.038   3.552   4.778  2.1459 -3.9017 -0.3304
  867MOL0     H17024   5.115   3.659   4.664 -2.6648  1.3920  0.1090
  867MOL0     H17025   5.669   3.171   3.688 -0.7035  1.7585 -1.3114
  867MOL0     H17026   5.898   3.236   3.656 -1.9514  0.4658 -2.7400
  867MOL0     H17027   6.368   3.171   3.961 -1.9780  0.5644  0.6761
  867MOL0     H17028   6.602   3.280   3.973 -0.0260  1.1493  0.9235
  867MOL0     H17029   8.022   4.143   3.839  0.0634  1.2291 -0.9426
  867MOL0     H17030   8.046   4.289   3.648  0.3824 -0.1685 -0.0575
  867MOL0     H17031   7.828   4.390   3.242  0.1870  1.0487 -0.0090
  867MOL0     H17032   7.820   4.558   3.064  0.1286 -0.4310 -0.4983
  867MOL0     H17033   7.879   4.745   2.942 -1.8853 -1.6183  1.1201
  867MOL0     H17034   7.836   4.625   2.821 -1.8824  1.3928  0.4748
  867MOL0     H17035   7.985   4.874   2.783 -1.8788  0.5672  1.9651
  867MOL0     H17036   7.859   4.808   2.686  0.1317 -0.3043 -1.0718
  867MOL0     H17037   8.020   4.604   2.661 -1.7384  0.9241  0.0509
  867MOL0     H17038   8.142   4.724   2.687  0.7541  1.3096 -0.2227
  867MOL0     H17039   7.949   4.762   2.448  0.4270 -1.1995 -1.0793
  867MOL0     H17040   8.084   4.861   2.485 -1.6268 -0.2874 -2.3447
  867MOL0     H17041   8.312   4.571   2.312 -0.8672  0.1850 -0.4956
  867MOL0     H17042   8.236   4.473   2.970  0.2319 -2.4209  0.1750
  867MOL0     H17043   8.317   4.307   3.266  2.3025 -2.7047 -0.4081
  867MOL0     H17044   8.263   4.193   3.135 -0.7262 -0.2044 -0.3716
  867MOL0     H17045   8.360   4.344   3.102  0.5174  0.5795  1.1305
  868MOL0     O17046   9.189   6.585   1.705  0.9797 -0.5795  0.1310
  868MOL0     C17047   9.135   6.620   1.805  0.8027 -0.6498 -0.2220
  868MOL0     O17048   9.180   6.720   1.888 -0.1656  0.1492 -0.2382
  868MOL0     C17049   9.267   6.801   1.813  0.6695 -0.5947 -0.3514
  868MOL0     C17050   9.405   6.767   1.808  0.6041  0.2356 -0.2429
  868MOL0     C17051   9.492   6.844   1.733 -0.0760  0.7898  0.4779
  868MOL0     C17052   9.454   6.967   1.687 -0.0379  0.6615 -0.5410
  868MOL0     O17053   9.554   7.042   1.640  0.2061 -0.5678 -0.4584
  868MOL0     C17054   9.584   7.153   1.724 -0.5905  0.1998 -0.8485
  868MOL0     C17055   9.720   7.207   1.677 -0.3185 -0.5299  0.9773
  868MOL0     C17056   9.840   7.112   1.703  0.8312 -0.3670  0.1878
  868MOL0     C17057   9.964   7.174   1.641 -0.4945  0.6161  0.7307
  868MOL0     C17058  10.090   7.087   1.660 -0.2449  0.5324 -0.8591
  868MOL0     C17059  10.195   7.133   1.558  0.4476  1.1437 -0.0862
  868MOL0     C17060  10.319   7.055   1.538  0.1902  0.4712 -0.1321
  868MOL0     C17061  10.294   6.917   1.476  0.0530  0.0360  0.0834
  868MOL0     N17062  10.414   6.845   1.432 -0.3692 -0.8709 -1.2113
  868MOL0     C17063  10.445   6.711   1.453  0.1726 -0.1070 -1.5726
  868MOL0     C17064  10.582   6.700   1.424 -0.1001 -0.0942  0.8847
  868MOL0     C17065  10.654   6.566   1.431 -1.0364 -0.0056 -0.3356
  868MOL0     C17066  10.802   6.571   1.452  0.0971  0.0536 -0.5704
  868MOL0     C17067  10.857   6.418   1.441  0.2710  0.0521  0.5620
  868MOL0     C17068  10.989   6.409   1.360  0.6296  0.4687  0.1714
  868MOL0     O17069  11.009   6.263   1.331  0.0804 -0.1670 -0.0490
  868MOL0     C17070  11.124   6.227   1.272  0.0865  0.0859  1.2408
  868MOL0     C17071  11.239   6.301   1.243 -0.7294 -0.2304  0.0796
  868MOL0     C17072  11.360   6.238   1.204 -0.5292  0.4728 -0.5257
  868MOL0     C17073  11.363   6.095   1.197 -0.4653 -0.6460  0.5344
  868MOL0     C17074  11.494   6.025   1.159  0.0753  0.4834 -0.5978
  868MOL0     O17075  11.599   6.108   1.100  0.4694 -0.0341 -0.2110
  868MOL0     C17076  11.728   6.061   1.067 -0.3204 -1.0148  0.2181
  868MOL0     C17077  11.811   6.136   0.975 -0.0861  0.6501  0.4782
  868MOL0     C17078  11.935   6.093   0.926  0.8755  0.5160 -0.2476
  868MOL0     C17079  11.982   5.964   0.983  0.1398  0.3473  0.2761
  868MOL0     O17080  12.096   5.899   0.944 -0.4048  0.6561  0.4507
  868MOL0     C17081  12.108   5.865   0.804  0.2984 -1.0854  0.1300
  868MOL0     C17082  12.186   5.968   0.714 -0.0168 -0.0965 -0.1851
  868MOL0     C17083  12.327   6.005   0.768 -0.1587 -0.8755  0.9718
  868MOL0     C17084  12.428   5.896   0.749 -0.2782  0.6115  0.8681
  868MOL0     C17085  12.560   5.919   0.829 -1.1308  0.6662 -0.3314
  868MOL0     C17086  12.633   6.056   0.808 -0.1636 -0.5008  0.1330
  868MOL0     C17087  12.656   6.079   0.662  0.0167 -0.4541  0.2254
  868MOL0     C17088  12.716   6.220   0.643  0.8962 -0.0309 -0.0014
  868MOL0    Cl17089  12.872   6.225   0.719  0.1232  0.2613  0.2233
  868MOL0     C17090  11.908   5.894   1.074  0.3925  0.1697 -0.3264
  868MOL0     C17091  11.780   5.941   1.116 -0.1876 -0.0980  0.8011
  868MOL0     O17092  11.497   5.904   1.179  0.4180  0.2731 -0.0294
  868MOL0     C17093  11.245   6.025   1.217  0.1942  0.2549  0.7650
  868MOL0     C17094  11.124   6.086   1.253 -0.6699  0.4140  0.4950
  868MOL0     N17095  10.619   6.820   1.370 -0.0524 -0.4939  0.4313
  868MOL0     N17096  10.525   6.899   1.370  0.3771  0.0256 -0.2562
  868MOL0     C17097   9.318   7.008   1.700  0.9303  0.5876 -0.3739
  868MOL0     C17098   9.220   6.922   1.762 -0.5577  0.1851 -0.2284
  868MOL0     C17099   8.998   6.570   1.838 -0.8355  0.3502 -0.2318
  868MOL0     C17100   8.992   6.473   1.941 -0.1907 -0.4038 -0.1236
  868MOL0     C17101   8.865   6.440   1.990  0.9555  0.7381 -0.3592
  868MOL0     C17102   8.746   6.491   1.942 -0.4097 -0.0992 -0.2678
  868MOL0     O17103   8.634   6.434   1.985  0.2860  0.7219 -0.5579
  868MOL0     C17104   8.521   6.523   1.997  0.2743  0.3261  0.7168
  868MOL0     C17105   8.389   6.441   2.005 -0.8632  0.0104 -0.4387
  868MOL0     C17106   8.351   6.382   1.870  0.4786 -0.0472  0.8949
  868MOL0     C17107   8.200   6.338   1.866 -0.5487  0.1970  0.5762
  868MOL0     C17108   8.151   6.291   1.737  0.3753 -0.1342 -0.3956
  868MOL0     C17109   8.107   6.248   1.630 -0.4165  0.3182  0.2352
  868MOL0     C17110   8.755   6.579   1.836 -0.4744  0.1131  0.5856
  868MOL0     C17111   8.881   6.624   1.785 -0.1235  0.4330  0.0887
  868MOL0     C17112   8.870   6.726   1.671 -0.0904  0.0159 -0.3101
  868MOL0     H17113   9.432   6.670   1.848 -1.3987 -0.0301  0.5392
  868MOL0     H17114   9.594   6.809   1.729  0.5686  2.4987  0.8712
  868MOL0     H17115   9.510   7.233   1.714 -0.1933  0.8421  1.0135
  868MOL0     H17116   9.587   7.128   1.830 -0.1975  2.6997 -0.2154
  868MOL0     H17117   9.731   7.298   1.735  0.1042 -1.5483  2.5450
  868MOL0     H17118   9.719   7.223   1.568  0.9988 -2.9671  0.5199
  868MOL0     H17119   9.824   7.014   1.658 -4.5997  1.3784 -2.4777
  868MOL0     H17120   9.855   7.094   1.810 -1.6168 -0.7060  0.5176
  868MOL0     H17121   9.950   7.204   1.537  0.2811  1.0377  0.7402
  868MOL0     H17122   9.981   7.270   1.692 -2.2166  0.9304  0.7662
  868MOL0     H17123  10.134   7.098   1.760  0.4487  2.4947 -1.3336
  868MOL0     H17124  10.072   6.985   1.626  0.3468  0.6272 -1.4778
  868MOL0     H17125  10.146   7.121   1.460  1.8719 -0.1621 -0.6829
  868MOL0     H17126  10.219   7.236   1.585  1.1904  0.8294  0.4673
  868MOL0     H17127  10.375   7.039   1.631 -0.6217 -0.6830  0.1775
  868MOL0     H17128  10.376   7.111   1.463  1.6708  0.3665  0.8559
  868MOL0     H17129  10.235   6.859   1.548  0.9706 -4.5808 -2.4964
  868MOL0     H17130  10.221   6.920   1.395 -0.9750  3.7666  0.9711
  868MOL0     H17131  10.382   6.634   1.497  2.4258  0.3168  3.0140
  868MOL0     H17132  10.618   6.508   1.517  0.7947  0.1584  0.6046
  868MOL0     H17133  10.627   6.519   1.337 -2.1531  0.2150 -0.1358
  868MOL0     H17134  10.843   6.633   1.372 -0.5041 -2.2724 -2.8310
  868MOL0     H17135  10.831   6.625   1.543  4.1362 -3.2050  0.3768
  868MOL0     H17136  10.778   6.355   1.399  1.8258 -1.0954 -0.7323
  868MOL0     H17137  10.874   6.375   1.540 -0.1292 -0.7644  0.2823
  868MOL0     H17138  11.073   6.451   1.416  1.4502  0.7125 -1.1802
  868MOL0     H17139  10.984   6.467   1.267  0.3049 -0.3264 -0.3194
  868MOL0     H17140  11.239   6.409   1.250 -2.9879 -0.2716  1.7995
  868MOL0     H17141  11.438   6.308   1.177 -1.0421  0.9142 -0.8903
  868MOL0     H17142  11.776   6.229   0.930  1.9211 -0.8590 -5.0844
  868MOL0     H17143  11.981   6.155   0.849  0.2769  3.9436  1.9294
  868MOL0     H17144  12.174   5.778   0.802 -1.7302 -2.7397  1.2615
  868MOL0     H17145  12.005   5.861   0.767 -0.0904  1.9743  0.5827
  868MOL0     H17146  12.186   5.942   0.607 -2.3235 -0.4442 -0.1337
  868MOL0     H17147  12.141   6.067   0.721 -0.8793 -0.3510 -1.6607
  868MOL0     H17148  12.369   6.087   0.709  0.6131 -1.4498  0.7040
  868MOL0     H17149  12.326   6.046   0.870  2.0876 -1.3521  1.2274
  868MOL0     H17150  12.466   5.885   0.647  1.2709  2.4065  1.1951
  868MOL0     H17151  12.381   5.798   0.759 -0.7445 -0.1892 -5.3232
  868MOL0     H17152  12.633   5.839   0.809 -2.5613  0.0226 -3.6196
  868MOL0     H17153  12.541   5.905   0.936  0.8094 -0.9623 -0.1350
  868MOL0     H17154  12.565   6.130   0.850  2.2716  0.2126  3.1767
  868MOL0     H17155  12.726   6.059   0.866 -0.9831 -1.3078  1.5355
  868MOL0     H17156  12.562   6.061   0.609  0.7289 -1.4891 -0.7182
  868MOL0     H17157  12.735   6.013   0.626  1.3944  1.9307 -1.3009
  868MOL0     H17158  12.718   6.252   0.538 -0.8445  0.4337  0.0754
  868MOL0     H17159  12.646   6.287   0.694 -0.5617 -1.7814  0.4040
  868MOL0     H17160  11.956   5.808   1.119  0.3356  1.1485  1.7028
  868MOL0     H17161  11.719   5.891   1.191 -1.2708  0.1650  0.1173
  868MOL0     H17162  11.246   5.917   1.215  1.2104  0.2662 -0.1279
  868MOL0     H17163  11.038   6.023   1.274  0.6640 -0.2496  4.8492
  868MOL0     H17164   9.303   7.111   1.669  0.0463  1.1515  1.7614
  868MOL0     H17165   9.118   6.954   1.782 -1.0664 -2.0852  1.1807
  868MOL0     H17166   9.080   6.451   2.000 -1.4192 -2.6100  1.0075
  868MOL0     H17167   8.867   6.380   2.081 -0.7016  3.3391  1.5271
  868MOL0     H17168   8.516   6.595   1.915 -1.6052 -1.6457 -1.0686
  868MOL0     H17169   8.542   6.581   2.087 -0.5972 -0.5509  1.5152
  868MOL0     H17170   8.304   6.498   2.044 -0.4600  0.0948  0.3347
  868MOL0     H17171   8.414   6.361   2.076  3.5611 -0.1289 -1.8186
  868MOL0     H17172   8.406   6.292   1.840 -0.5222 -0.6402  0.7692
  868MOL0     H17173   8.356   6.457   1.791 -0.7665  1.3214  2.0597
  868MOL0     H17174   8.194   6.259   1.941  3.1415 -0.6679  0.1482
  868MOL0     H17175   8.125   6.410   1.901 -1.4467  0.3730 -1.5439
  868MOL0     H17176   8.063   6.215   1.538  1.5078  1.9567 -1.3715
  868MOL0     H17177   8.669   6.624   1.788  0.6076 -0.1296 -1.6786
  868MOL0     H17178   8.792   6.694   1.601  0.9223 -1.0118 -0.9916
  868MOL0     H17179   8.836   6.818   1.720  2.0435 -1.7367  5.2383
  868MOL0     H17180   8.963   6.740   1.616 -0.5716  1.3192 -0.8336
  869MOL0     O17181   1.122   3.360   3.165 -0.4263  0.0344  0.2118
  869MOL0     C17182   1.020   3.379   3.227  0.2788 -0.0996 -0.1302
  869MOL0     O17183   0.894   3.398   3.174 -0.3094  0.3620 -0.0344
  869MOL0     C17184   0.893   3.407   3.039  0.1496  0.9865  0.2838
  869MOL0     C17185   0.840   3.307   2.958  1.0776 -0.8227  0.2734
  869MOL0     C17186   0.853   3.316   2.813  0.5424  0.2130 -0.1347
  869MOL0     C17187   0.923   3.419   2.754 -0.2927 -0.0039 -0.6735
  869MOL0     O17188   0.931   3.409   2.615 -0.3687  0.2561 -0.0123
  869MOL0     C17189   0.916   3.537   2.531  0.2672  0.6308 -0.6837
  869MOL0     C17190   0.807   3.499   2.433  0.4034  0.1171  0.2683
  869MOL0     C17191   0.778   3.608   2.334  0.1427 -0.3460 -0.5670
  869MOL0     C17192   0.667   3.572   2.239  0.2645 -0.4486 -0.2957
  869MOL0     C17193   0.649   3.670   2.119 -0.0397 -0.0763  0.2909
  869MOL0     C17194   0.547   3.618   2.014  0.9126  0.9592  0.3562
  869MOL0     C17195   0.557   3.683   1.875 -0.5855  0.5269 -0.4330
  869MOL0     C17196   0.486   3.825   1.877  0.6505  0.4459 -0.8475
  869MOL0     N17197   0.472   3.873   1.743  0.0063  0.4480 -0.0132
  869MOL0     C17198   0.354   3.937   1.715 -0.4394 -0.4179  0.0000
  869MOL0     C17199   0.381   3.988   1.591 -0.1849  0.2154  0.1110
  869MOL0     C17200   0.296   4.083   1.511  0.1704 -0.6733  1.1557
  869MOL0     C17201   0.171   3.999   1.450 -0.4622 -1.3111 -1.5292
  869MOL0     C17202   0.051   4.077   1.428  0.7460 -0.3717 -0.8034
  869MOL0     C17203  -0.060   3.989   1.388  1.0569  0.4096  0.5863
  869MOL0     O17204  -0.173   4.076   1.352 -0.2933 -0.0945 -0.2256
  869MOL0     C17205  -0.292   4.051   1.411  1.3053  0.1007 -0.3984
  869MOL0     C17206  -0.339   3.922   1.426  0.1444  0.3160  0.5066
  869MOL0     C17207  -0.456   3.899   1.500 -0.8518  0.9860 -0.1097
  869MOL0     C17208  -0.536   4.001   1.551  0.5983  0.6134  0.5845
  869MOL0     C17209  -0.663   3.970   1.609  0.1584 -0.3318  0.5592
  869MOL0     O17210  -0.712   4.068   1.691  0.3393 -0.2622 -0.2133
  869MOL0     C17211  -0.843   4.088   1.726  0.6281 -0.1091  0.1299
  869MOL0     C17212  -0.866   4.178   1.827 -0.2171  0.5783 -0.1392
  869MOL0     C17213  -0.992   4.215   1.865  0.3917 -0.1936  0.0116
  869MOL0     C17214  -1.102   4.160   1.803  0.6836  0.0609  0.6847
  869MOL0     O17215  -1.237   4.175   1.840 -0.3170 -0.1025 -0.3696
  869MOL0     C17216  -1.276   4.290   1.915  0.6109 -0.0361  0.0102
  869MOL0     C17217  -1.433   4.300   1.924 -0.8074 -0.5120  0.9579
  869MOL0     C17218  -1.488   4.362   2.055 -0.0198 -0.0865  0.2185
  869MOL0     C17219  -1.426   4.496   2.080 -0.3689 -0.0357  0.0520
  869MOL0     C17220  -1.493   4.569   2.197 -0.5189 -0.0179 -0.2971
  869MOL0     C17221  -1.650   4.572   2.191 -0.2541  0.8975  0.4881
  869MOL0     C17222  -1.702   4.677   2.284 -0.2044 -0.8336  0.0968
  869MOL0     C17223  -1.744   4.633   2.425  0.8730  0.0729 -0.5208
  869MOL0    Cl17224  -1.861   4.741   2.503  0.2226  0.4719  0.0414
  869MOL0     C17225  -1.083   4.092   1.682 -0.0035  0.6624 -0.7210
  869MOL0     C17226  -0.951   4.047   1.649 -0.3517  0.8584  0.0576
  869MOL0     O17227  -0.720   3.864   1.584 -0.7149  0.0343 -0.7021
  869MOL0     C17228  -0.488   4.131   1.530  0.0582 -1.2205  0.5939
  869MOL0     C17229  -0.366   4.158   1.469  0.0181 -0.0868 -0.0933
  869MOL0     N17230   0.512   3.968   1.555 -0.1351 -0.4180 -0.4164
  869MOL0     N17231   0.572   3.901   1.653  1.2457 -0.9426 -0.0853
  869MOL0     C17232   0.981   3.521   2.829 -0.0804 -0.2744  0.0660
  869MOL0     C17233   0.969   3.510   2.974  0.0898  0.2461 -0.2118
  869MOL0     C17234   1.025   3.352   3.372  0.0196  0.1555 -0.1965
  869MOL0     C17235   0.907   3.302   3.430 -1.0165  0.8429  0.4049
  869MOL0     C17236   0.906   3.250   3.560  0.2522  0.0382  0.4472
  869MOL0     C17237   1.024   3.240   3.635 -1.0807 -1.2484  0.3538
  869MOL0     O17238   1.031   3.163   3.745 -0.1303  0.2154  0.0755
  869MOL0     C17239   1.145   3.075   3.744  0.1868  0.3266 -0.2237
  869MOL0     C17240   1.122   2.960   3.640  0.4839  0.0735 -0.7897
  869MOL0     C17241   0.997   2.877   3.670 -0.1598  0.1890 -0.7846
  869MOL0     C17242   0.996   2.746   3.587  0.4720 -0.9325  0.2511
  869MOL0     C17243   0.971   2.785   3.441 -0.4469 -0.0429  0.0741
  869MOL0     C17244   0.963   2.834   3.328  0.0861  0.3225 -0.2516
  869MOL0     C17245   1.140   3.312   3.584  0.5199 -0.1949 -1.3618
  869MOL0     C17246   1.145   3.364   3.453  0.7394 -0.4365 -0.2328
  869MOL0     C17247   1.255   3.448   3.391  0.5669 -0.1248  0.2729
  869MOL0     H17248   0.788   3.224   3.004  0.2707 -0.7317 -0.4561
  869MOL0     H17249   0.805   3.236   2.758 -0.3373  1.9843 -2.0817
  869MOL0     H17250   0.901   3.632   2.583  1.6065 -0.2764  1.5040
  869MOL0     H17251   1.005   3.550   2.468  0.2821  0.2226 -0.7547
  869MOL0     H17252   0.715   3.475   2.485  0.2537 -1.7752 -0.7841
  869MOL0     H17253   0.832   3.412   2.372  0.0564 -1.0580  1.7675
  869MOL0     H17254   0.868   3.630   2.276 -1.6941  1.6628 -2.8639
  869MOL0     H17255   0.744   3.696   2.390  1.4702 -0.7074  0.9016
  869MOL0     H17256   0.685   3.472   2.197 -3.3629 -0.4662 -2.2352
  869MOL0     H17257   0.573   3.556   2.292  1.2981 -0.8110  1.5178
  869MOL0     H17258   0.607   3.763   2.159 -0.3353  0.3559 -0.9628
  869MOL0     H17259   0.746   3.682   2.071 -0.6701  2.3998 -0.5393
  869MOL0     H17260   0.560   3.510   2.008  0.5485  0.9192  0.2307
  869MOL0     H17261   0.447   3.622   2.058  1.7010  1.6674  2.2110
  869MOL0     H17262   0.505   3.615   1.808 -0.5798  0.4411 -0.3506
  869MOL0     H17263   0.658   3.695   1.835 -0.2318  1.3441  0.6397
  869MOL0     H17264   0.390   3.827   1.930  1.0911 -0.8409  0.0506
  869MOL0     H17265   0.561   3.889   1.924  0.0191  0.1176  0.6881
  869MOL0     H17266   0.261   3.966   1.762 -1.0220 -0.2471 -1.2028
  869MOL0     H17267   0.258   4.163   1.574  2.2422  0.0846  1.5245
  869MOL0     H17268   0.357   4.126   1.431 -2.3200  0.5632 -0.1884
  869MOL0     H17269   0.189   3.953   1.352 -0.1791  1.4587 -2.8730
  869MOL0     H17270   0.143   3.915   1.514 -5.8751  0.9027 -0.4643
  869MOL0     H17271   0.066   4.164   1.364 -1.6490 -0.2161 -1.2274
  869MOL0     H17272   0.028   4.124   1.524  0.6690  0.2697 -1.1287
  869MOL0     H17273  -0.087   3.920   1.469 -1.8315  0.3424 -0.3236
  869MOL0     H17274  -0.046   3.928   1.299  0.0255  2.8908 -1.3830
  869MOL0     H17275  -0.286   3.841   1.377 -2.9466 -1.7827  0.3158
  869MOL0     H17276  -0.488   3.795   1.507  0.2319  0.6422 -0.0565
  869MOL0     H17277  -0.797   4.213   1.903 -0.5431 -0.6129  0.7249
  869MOL0     H17278  -1.006   4.286   1.946  1.0404  0.3416 -0.3428
  869MOL0     H17279  -1.236   4.281   2.017  2.3789  0.4133 -0.6052
  869MOL0     H17280  -1.227   4.380   1.876 -0.4713  0.9437  0.8557
  869MOL0     H17281  -1.466   4.360   1.838 -1.3839 -2.0728  0.0477
  869MOL0     H17282  -1.466   4.196   1.917  2.1976 -1.4836 -1.7036
  869MOL0     H17283  -1.596   4.364   2.037  0.0497  1.4828 -0.1063
  869MOL0     H17284  -1.473   4.303   2.146  1.7239  1.1069  0.7479
  869MOL0     H17285  -1.436   4.548   1.985  2.0038 -2.4635 -1.6737
  869MOL0     H17286  -1.319   4.495   2.103 -0.2509 -0.0686 -0.4988
  869MOL0     H17287  -1.461   4.673   2.201  1.0159 -0.4298 -1.1578
  869MOL0     H17288  -1.458   4.525   2.291  0.1540  0.8269 -0.1432
  869MOL0     H17289  -1.677   4.596   2.088  2.3291 -2.9027 -1.2868
  869MOL0     H17290  -1.681   4.469   2.211  2.4457 -0.5293 -2.0678
  869MOL0     H17291  -1.782   4.736   2.238 -0.5346 -0.4203  1.1765
  869MOL0     H17292  -1.620   4.746   2.303 -1.0184 -0.1066  1.1322
  869MOL0     H17293  -1.788   4.533   2.423  1.9614 -0.4259 -0.3568
  869MOL0     H17294  -1.655   4.619   2.487  0.7641  3.9660  0.7778
  869MOL0     H17295  -1.172   4.063   1.628 -2.5044  4.0116  1.1809
  869MOL0     H17296  -0.931   3.995   1.556 -2.3913  0.4258 -0.1762
  869MOL0     H17297  -0.552   4.204   1.578  0.6544 -0.1957 -0.1154
  869MOL0     H17298  -0.321   4.257   1.467 -1.4545  0.6735  1.6831
  869MOL0     H17299   1.041   3.592   2.771 -0.7443  0.5468  0.3643
  869MOL0     H17300   1.023   3.575   3.041 -1.7302  0.6618  0.9239
  869MOL0     H17301   0.818   3.286   3.370 -0.6643 -5.4065  0.8657
  869MOL0     H17302   0.818   3.194   3.591 -0.3756  1.0582  0.5739
  869MOL0     H17303   1.153   3.026   3.842 -0.7472  0.9155  0.1561
  869MOL0     H17304   1.237   3.130   3.722  1.2614 -1.6726 -1.0239
  869MOL0     H17305   1.205   2.890   3.648  2.0828  2.0487  1.5474
  869MOL0     H17306   1.113   3.009   3.543  0.3617  1.9812  0.1299
  869MOL0     H17307   0.906   2.935   3.652  0.1503  0.8432 -0.2689
  869MOL0     H17308   1.001   2.853   3.776  0.2366 -0.1857 -0.8818
  869MOL0     H17309   1.089   2.690   3.597 -0.0387 -1.7406  0.6508
  869MOL0     H17310   0.909   2.694   3.630 -0.8094  0.3409 -0.7063
  869MOL0     H17311   0.946   2.871   3.229 -0.5197 -1.9466 -1.0699
  869MOL0     H17312   1.227   3.330   3.647  0.5921 -0.0892 -1.4902
  869MOL0     H17313   1.336   3.462   3.464  0.5741  2.3646 -0.1280
  869MOL0     H17314   1.310   3.401   3.309 -0.3407  3.5054 -2.7062
  869MOL0     H17315   1.220   3.549   3.366 -1.3059 -1.3560 -2.6135
  870MOL0     O17316   4.216   7.655  11.196  0.6258 -0.1683 -0.0191
  870MOL0     C17317   4.211   7.750  11.121  0.9761 -0.1514 -0.0951
  870MOL0     O17318   4.306   7.822  11.063 -0.3160  0.8887  0.0566
  870MOL0     C17319   4.436   7.781  11.085  0.1553 -0.6022  0.3302
  870MOL0     C17320   4.527   7.876  11.139 -0.4206  0.5088  0.7940
  870MOL0     C17321   4.646   7.827  11.187  0.2494 -0.0530 -0.2275
  870MOL0     C17322   4.685   7.695  11.179  0.4872 -0.4264 -0.0549
  870MOL0     O17323   4.808   7.649  11.226  0.6563  0.3530 -0.2437
  870MOL0     C17324   4.920   7.729  11.199 -0.2355 -0.8253 -0.4372
  870MOL0     C17325   5.048   7.649  11.224 -0.2748  0.3068 -0.8321
  870MOL0     C17326   5.179   7.723  11.207  0.0522  0.0904 -0.2798
  870MOL0     C17327   5.301   7.627  11.206  0.2715  0.0827  0.3231
  870MOL0     C17328   5.438   7.701  11.198 -0.3967 -0.7529 -0.0958
  870MOL0     C17329   5.567   7.607  11.191  0.4366 -0.2219  0.0854
  870MOL0     C17330   5.683   7.708  11.182 -0.7956  0.7154  0.0468
  870MOL0     C17331   5.814   7.630  11.145  1.2263 -0.1579  0.0549
  870MOL0     N17332   5.825   7.601  11.002 -0.4098 -0.5013  0.6149
  870MOL0     C17333   5.853   7.700  10.911  0.4960  0.7059  0.3976
  870MOL0     C17334   5.848   7.640  10.787 -0.0045 -0.1981  0.4259
  870MOL0     C17335   5.889   7.707  10.657 -0.0719 -0.3557 -0.5901
  870MOL0     C17336   6.044   7.727  10.646  0.1081 -0.0155 -0.6287
  870MOL0     C17337   6.092   7.754  10.502  0.2096  0.4025 -0.3832
  870MOL0     C17338   6.241   7.780  10.496  0.0063  0.1416  0.0431
  870MOL0     O17339   6.271   7.895  10.568 -0.1429 -0.0054  0.0036
  870MOL0     C17340   6.405   7.935  10.574  0.1298 -0.4752  0.1962
  870MOL0     C17341   6.422   8.070  10.574 -0.2450  0.2742  0.0316
  870MOL0     C17342   6.553   8.130  10.572 -0.9117  0.1825  1.1090
  870MOL0     C17343   6.669   8.050  10.601  0.7078  0.6247 -0.0089
  870MOL0     C17344   6.807   8.104  10.632 -1.7004 -0.3757  1.1146
  870MOL0     O17345   6.830   8.237  10.621  0.7826  0.1557 -1.0270
  870MOL0     C17346   6.949   8.287  10.667  1.0968 -1.1963 -1.1454
  870MOL0     C17347   7.079   8.239  10.654 -0.0780 -0.7856  1.4004
  870MOL0     C17348   7.183   8.317  10.710 -1.3479  0.1577  0.6190
  870MOL0     C17349   7.164   8.435  10.780  0.3524  0.2919 -0.0344
  870MOL0     O17350   7.264   8.521  10.822  0.3836 -0.4838  1.0355
  870MOL0     C17351   7.405   8.472  10.819  0.3666 -0.1435  0.3315
  870MOL0     C17352   7.497   8.560  10.907  0.5517 -0.2696  0.4473
  870MOL0     C17353   7.631   8.487  10.943  0.4221 -0.2423  0.4073
  870MOL0     C17354   7.707   8.566  11.052  0.5344  1.2128  0.8331
  870MOL0     C17355   7.808   8.463  11.105 -0.3452  0.1274 -0.8906
  870MOL0     C17356   7.913   8.523  11.194 -0.1776 -0.6875 -0.2127
  870MOL0     C17357   8.016   8.406  11.219 -0.2062 -0.1623  0.3545
  870MOL0     C17358   8.108   8.423  11.344  0.1315 -0.7992 -0.1823
  870MOL0    Cl17359   8.014   8.399  11.492 -0.6287  0.2677 -0.3004
  870MOL0     C17360   7.033   8.473  10.799 -0.3178 -0.2507  1.5745
  870MOL0     C17361   6.926   8.401  10.745  0.1198 -0.8237 -1.1982
  870MOL0     O17362   6.893   8.021  10.653 -0.4514  0.0035 -0.2561
  870MOL0     C17363   6.645   7.915  10.601 -0.0038  0.0690  0.5024
  870MOL0     C17364   6.520   7.856  10.587  0.0803 -0.7763 -0.0877
  870MOL0     N17365   5.821   7.509  10.812  0.6193  0.2162  0.5901
  870MOL0     N17366   5.795   7.482  10.938  0.3315  0.6480 -0.0607
  870MOL0     C17367   4.598   7.608  11.111 -1.2471  0.5361 -0.6204
  870MOL0     C17368   4.477   7.649  11.061  1.5080 -0.1902 -0.0061
  870MOL0     C17369   4.076   7.777  11.071 -0.5280 -0.7110 -0.0958
  870MOL0     C17370   4.066   7.836  10.937 -0.2513  0.6896 -0.0114
  870MOL0     C17371   3.941   7.869  10.889  0.7675  0.2746 -0.1941
  870MOL0     C17372   3.822   7.851  10.967  0.1669  0.4707 -0.2175
  870MOL0     O17373   3.702   7.871  10.910  0.4514  0.3986  0.0682
  870MOL0     C17374   3.585   7.849  10.983  0.2287 -0.5924 -0.9670
  870MOL0     C17375   3.462   7.896  10.910  0.4847 -0.3277 -0.6970
  870MOL0     C17376   3.448   8.049  10.877  0.4078 -0.6215 -0.3734
  870MOL0     C17377   3.312   8.088  10.823  0.1454 -0.7662  0.2946
  870MOL0     C17378   3.304   8.231  10.785  0.7705 -0.2889 -0.1828
  870MOL0     C17379   3.289   8.352  10.785  0.0234  0.2744  0.1267
  870MOL0     C17380   3.841   7.789  11.098 -0.3139 -0.4746  0.4883
  870MOL0     C17381   3.959   7.758  11.151 -1.2224  0.0135 -0.3735
  870MOL0     C17382   3.955   7.692  11.297 -0.6356  0.1107  0.1930
  870MOL0     H17383   4.508   7.982  11.149  2.0736  1.0498  0.4523
  870MOL0     H17384   4.710   7.902  11.232  2.1187 -0.5946 -1.8418
  870MOL0     H17385   4.921   7.770  11.097  1.5007  0.3522 -0.0016
  870MOL0     H17386   4.941   7.810  11.270 -0.4840  0.6104 -1.9213
  870MOL0     H17387   5.036   7.568  11.152  0.4195 -0.1957 -0.3907
  870MOL0     H17388   5.042   7.604  11.323 -0.7358  0.2059 -0.9013
  870MOL0     H17389   5.197   7.793  11.289  3.5657  0.4188 -1.1768
  870MOL0     H17390   5.169   7.770  11.108 -0.4822 -0.7860 -0.6500
  870MOL0     H17391   5.300   7.566  11.297 -1.0700 -2.7668 -1.4268
  870MOL0     H17392   5.288   7.565  11.117  2.2803  2.3459 -1.6847
  870MOL0     H17393   5.450   7.761  11.107  0.1001 -1.1487 -0.2971
  870MOL0     H17394   5.450   7.754  11.293  1.8347 -2.8814  0.9148
  870MOL0     H17395   5.571   7.543  11.279 -0.6581 -2.4838 -1.4395
  870MOL0     H17396   5.568   7.542  11.103  1.5430  1.1018 -0.9491
  870MOL0     H17397   5.699   7.753  11.281 -0.1634 -1.3740  0.9552
  870MOL0     H17398   5.671   7.792  11.113  2.8014  1.7385  0.4384
  870MOL0     H17399   5.899   7.697  11.158  1.5684  0.3463 -3.6654
  870MOL0     H17400   5.828   7.536  11.199 -0.1320 -1.0760 -1.0968
  870MOL0     H17401   5.892   7.801  10.925 -0.6312  1.5983 -2.2118
  870MOL0     H17402   5.862   7.647  10.569 -1.3659 -1.3747  0.4735
  870MOL0     H17403   5.841   7.805  10.643 -2.2400 -1.3574 -0.6368
  870MOL0     H17404   6.071   7.804  10.718 -4.3931 -2.1012  3.8998
  870MOL0     H17405   6.098   7.640  10.687  1.4874 -0.0982 -2.4609
  870MOL0     H17406   6.040   7.840  10.459  0.1004 -1.2261 -3.8516
  870MOL0     H17407   6.069   7.665  10.442 -0.4501  0.1944  0.1573
  870MOL0     H17408   6.269   7.795  10.391 -2.9293  0.3012 -0.8165
  870MOL0     H17409   6.290   7.690  10.534  0.8084 -0.6367 -2.6543
  870MOL0     H17410   6.330   8.128  10.573  0.2067  1.0158  0.5429
  870MOL0     H17411   6.556   8.239  10.573  1.4374  0.1790  3.3147
  870MOL0     H17412   7.091   8.154  10.588 -2.2971 -1.2186  1.4998
  870MOL0     H17413   7.282   8.280  10.687 -2.0111 -1.1607 -0.2778
  870MOL0     H17414   7.403   8.373  10.864 -1.6517 -0.8061 -1.0780
  870MOL0     H17415   7.458   8.468  10.723 -2.2104 -0.5294 -1.1655
  870MOL0     H17416   7.517   8.659  10.865 -2.2716 -0.4746 -1.7058
  870MOL0     H17417   7.449   8.561  11.006  2.6306 -1.3255  1.5313
  870MOL0     H17418   7.613   8.384  10.975 -1.9686  0.3406  1.1114
  870MOL0     H17419   7.694   8.498  10.854 -2.7059  1.7320 -1.8043
  870MOL0     H17420   7.626   8.595  11.119 -2.0942 -0.1704 -1.5225
  870MOL0     H17421   7.759   8.644  10.997 -0.0720  0.3872 -0.9826
  870MOL0     H17422   7.871   8.435  11.021 -0.8008 -0.1694 -1.1322
  870MOL0     H17423   7.761   8.370  11.139  2.1529 -1.1015 -0.5634
  870MOL0     H17424   7.969   8.613  11.164  1.0742 -1.3131  0.1663
  870MOL0     H17425   7.864   8.550  11.288 -1.2859 -0.3077 -0.8852
  870MOL0     H17426   8.086   8.400  11.135  1.5566 -4.1078  1.8555
  870MOL0     H17427   7.965   8.310  11.227  0.4275 -0.5767 -0.4242
  870MOL0     H17428   8.184   8.344  11.347 -0.3066 -1.2730 -1.1657
  870MOL0     H17429   8.161   8.518  11.345  1.0666 -1.1910  3.3101
  870MOL0     H17430   7.011   8.565  10.853 -0.2594  0.5186  0.3384
  870MOL0     H17431   6.825   8.440  10.757  0.7381  0.6738 -0.6288
  870MOL0     H17432   6.732   7.853  10.618  0.8541  1.4143  1.1128
  870MOL0     H17433   6.514   7.748  10.594  2.6886 -1.0118 -0.2831
  870MOL0     H17434   4.637   7.507  11.114  2.8592  1.9313 -0.0934
  870MOL0     H17435   4.411   7.576  11.016  1.3660  1.8351 -3.4124
  870MOL0     H17436   4.156   7.820  10.878  0.1699 -2.2288  1.2237
  870MOL0     H17437   3.924   7.901  10.787 -0.6545  0.0202 -0.0697
  870MOL0     H17438   3.592   7.890  11.084 -1.7963 -2.3058 -0.0581
  870MOL0     H17439   3.582   7.743  11.008 -1.0223 -0.0322  1.5880
  870MOL0     H17440   3.377   7.867  10.972 -0.9306  1.4727 -1.6951
  870MOL0     H17441   3.467   7.846  10.813 -3.9879 -2.7048  0.0626
  870MOL0     H17442   3.519   8.071  10.797  1.3950  0.9599  0.8854
  870MOL0     H17443   3.473   8.124  10.952 -1.0807  1.8866 -2.2026
  870MOL0     H17444   3.294   8.031  10.732  1.1164  0.4828 -0.7189
  870MOL0     H17445   3.231   8.059  10.891 -0.5222 -0.3818 -0.3333
  870MOL0     H17446   3.268   8.457  10.790  2.7135  0.8123  2.2819
  870MOL0     H17447   3.754   7.754  11.153 -2.0118  0.0304 -1.7472
  870MOL0     H17448   3.948   7.583  11.290  0.3800  0.0957 -0.8903
  870MOL0     H17449   4.039   7.720  11.361 -1.5941  0.6073  1.2628
  870MOL0     H17450   3.866   7.733  11.345 -1.9839 -0.7889 -1.3917
  871MOL0     O17451  11.329   3.677   0.506  1.2136  1.2157  0.7462
  871MOL0     C17452  11.339   3.554   0.518 -0.3607  0.1896  0.1721
  871MOL0     O17453  11.462   3.484   0.539 -0.7030 -0.8699 -0.6183
  871MOL0     C17454  11.584   3.543   0.566 -0.3136 -0.7884  0.4816
  871MOL0     C17455  11.695   3.461   0.603  0.7282 -0.0856  1.5506
  871MOL0     C17456  11.815   3.523   0.647 -0.5572  0.0137  0.2962
  871MOL0     C17457  11.842   3.658   0.655  0.6416  0.0337 -0.4073
  871MOL0     O17458  11.957   3.712   0.689 -0.1040 -0.6149  0.0395
  871MOL0     C17459  11.952   3.831   0.773  0.8090 -0.0543 -0.0086
  871MOL0     C17460  12.095   3.885   0.797  0.9713  0.2154  0.2448
  871MOL0     C17461  12.191   3.803   0.892  0.0712  0.5292  0.0477
  871MOL0     C17462  12.332   3.826   0.842 -0.3781 -0.3350 -1.0940
  871MOL0     C17463  12.443   3.729   0.894  0.7919  0.0757  0.4760
  871MOL0     C17464  12.578   3.790   0.871  0.0377  0.3518  0.3197
  871MOL0     C17465  12.632   3.893   0.979 -0.0671 -0.5252 -0.0459
  871MOL0     C17466  12.658   3.824   1.115 -0.0281  0.0028  0.7670
  871MOL0     N17467  12.761   3.724   1.128  0.0522  0.1637 -0.6886
  871MOL0     C17468  12.743   3.595   1.106 -0.5261 -0.1988  0.1691
  871MOL0     C17469  12.866   3.538   1.121  0.3346  0.2188 -0.1758
  871MOL0     C17470  12.902   3.399   1.094 -0.1969  0.1203 -1.7348
  871MOL0     C17471  12.987   3.390   0.960 -0.2224 -1.0842 -0.0812
  871MOL0     C17472  13.059   3.259   0.937  0.0443  0.2572  1.0198
  871MOL0     C17473  13.153   3.260   0.822 -0.3426 -0.7154  0.4838
  871MOL0     O17474  13.288   3.288   0.859  0.1483  0.5494  0.3693
  871MOL0     C17475  13.340   3.412   0.853 -0.2487  0.2903 -0.3650
  871MOL0     C17476  13.465   3.435   0.919  0.5494  0.5385  0.3480
  871MOL0     C17477  13.538   3.557   0.918  0.3096 -0.5071 -0.0568
  871MOL0     C17478  13.481   3.669   0.860 -0.2830 -1.0388  0.3444
  871MOL0     C17479  13.546   3.802   0.857 -0.4509 -0.6086 -0.2380
  871MOL0     O17480  13.464   3.916   0.834 -0.0581 -0.4359 -0.1743
  871MOL0     C17481  13.533   4.036   0.838 -0.0340 -0.2224 -0.3069
  871MOL0     C17482  13.657   4.063   0.776 -0.2091  0.4554  0.5749
  871MOL0     C17483  13.727   4.187   0.789  0.7562  0.0256 -0.6100
  871MOL0     C17484  13.657   4.293   0.852  1.1950 -0.5002 -0.5073
  871MOL0     O17485  13.699   4.423   0.860 -0.4035 -0.3993  0.3181
  871MOL0     C17486  13.826   4.449   0.807  0.1550 -0.8051 -0.0696
  871MOL0     C17487  13.847   4.605   0.818  0.3239 -0.0814  0.0764
  871MOL0     C17488  13.980   4.658   0.768  0.1626  0.3226  0.6533
  871MOL0     C17489  13.952   4.808   0.740 -0.0678 -0.0295  0.2392
  871MOL0     C17490  14.084   4.893   0.707  0.3135  0.4538  0.8814
  871MOL0     C17491  14.170   4.845   0.586 -1.0163  0.5402  0.3344
  871MOL0     C17492  14.297   4.928   0.576  0.3028  0.1789  0.2263
  871MOL0     C17493  14.294   5.039   0.465  0.9033  0.6243  1.0212
  871MOL0    Cl17494  14.275   4.975   0.304 -0.2592 -0.5992  0.0330
  871MOL0     C17495  13.525   4.270   0.904  0.1467  0.3709  0.2894
  871MOL0     C17496  13.472   4.143   0.900  0.5677 -0.0454  0.8684
  871MOL0     O17497  13.661   3.807   0.892 -0.0231 -0.0203  0.6223
  871MOL0     C17498  13.355   3.646   0.800  0.3920 -0.7248  0.0717
  871MOL0     C17499  13.287   3.520   0.791  1.1935  0.2047 -0.2616
  871MOL0     N17500  12.952   3.635   1.157 -0.0644  0.0601 -0.0333
  871MOL0     N17501  12.893   3.744   1.161 -0.2284  0.2496  0.7613
  871MOL0     C17502  11.733   3.736   0.611 -0.3038  0.1546 -0.0404
  871MOL0     C17503  11.611   3.676   0.564 -0.2496  0.4882 -0.5491
  871MOL0     C17504  11.221   3.461   0.485 -0.9253 -0.0734 -0.3420
  871MOL0     C17505  11.091   3.512   0.519 -0.0885  0.1704  0.5845
  871MOL0     C17506  10.985   3.432   0.509  0.4679  0.3890 -0.2761
  871MOL0     C17507  10.981   3.295   0.469 -0.0911  0.0872  0.1588
  871MOL0     O17508  10.858   3.227   0.478 -0.0870 -0.5646  0.0063
  871MOL0     C17509  10.862   3.091   0.436 -0.4458 -0.0417 -0.4384
  871MOL0     C17510  10.723   3.023   0.468  1.3278 -0.4435 -0.0207
  871MOL0     C17511  10.720   2.868   0.458  0.5547  0.3291 -0.5595
  871MOL0     C17512  10.586   2.805   0.467  0.4436  0.9288  0.2929
  871MOL0     C17513  10.588   2.663   0.503  0.4613  0.0462  0.2586
  871MOL0     C17514  10.583   2.541   0.534  0.4706 -0.3959  1.7538
  871MOL0     C17515  11.111   3.246   0.435  0.4064 -0.3810  0.2431
  871MOL0     C17516  11.229   3.325   0.442  0.3656  0.1042  0.4186
  871MOL0     C17517  11.360   3.259   0.420  0.1799 -0.2266 -0.3016
  871MOL0     H17518  11.690   3.353   0.601  3.6368 -0.2798  0.5519
  871MOL0     H17519  11.895   3.452   0.665 -0.6653 -1.0136 -2.6433
  871MOL0     H17520  11.890   3.907   0.724 -1.1255 -2.1002 -0.9472
  871MOL0     H17521  11.904   3.799   0.865  0.9777 -0.7598 -0.1640
  871MOL0     H17522  12.067   3.980   0.844  1.0485 -0.7933  2.4295
  871MOL0     H17523  12.134   3.890   0.695 -0.2136  1.5656 -0.1774
  871MOL0     H17524  12.170   3.697   0.874  2.7684 -0.1536  0.4218
  871MOL0     H17525  12.174   3.793   0.999  1.1144 -2.5022  0.0449
  871MOL0     H17526  12.338   3.831   0.733 -0.2030 -2.0499 -1.1920
  871MOL0     H17527  12.357   3.923   0.886 -2.4693 -0.3597  0.2763
  871MOL0     H17528  12.427   3.695   0.997 -1.5596  0.2183  0.2207
  871MOL0     H17529  12.431   3.639   0.833 -0.7248  1.5920 -1.6023
  871MOL0     H17530  12.639   3.698   0.867  0.1560  0.3796 -5.1952
  871MOL0     H17531  12.582   3.834   0.771 -3.8837 -0.7253 -0.4754
  871MOL0     H17532  12.558   3.968   1.009 -0.2083 -0.5496 -0.3355
  871MOL0     H17533  12.718   3.944   0.935  0.4787  1.7846  3.2610
  871MOL0     H17534  12.693   3.907   1.177  2.7323  1.2640 -2.1605
  871MOL0     H17535  12.565   3.780   1.151 -1.4089  0.5849 -1.7857
  871MOL0     H17536  12.646   3.561   1.072  0.9642 -0.9579 -4.0035
  871MOL0     H17537  12.964   3.356   1.172  1.1616  2.1409 -1.6151
  871MOL0     H17538  12.821   3.326   1.091  0.6663 -1.4477  3.5990
  871MOL0     H17539  12.933   3.420   0.869  0.7407  0.9740 -0.0134
  871MOL0     H17540  13.070   3.459   0.971  2.0973 -3.8841  1.3202
  871MOL0     H17541  12.981   3.189   0.906 -0.1407  0.9001 -0.0015
  871MOL0     H17542  13.109   3.226   1.028 -0.1258  0.1996  1.0942
  871MOL0     H17543  13.106   3.326   0.748 -2.8355 -0.7304  1.9246
  871MOL0     H17544  13.162   3.161   0.778 -1.2095 -0.5863 -0.0008
  871MOL0     H17545  13.513   3.347   0.960 -0.7347 -0.4023 -0.1237
  871MOL0     H17546  13.636   3.568   0.963  2.0345  0.2384 -3.6340
  871MOL0     H17547  13.708   3.991   0.713 -0.1624  0.9681  0.0199
  871MOL0     H17548  13.832   4.186   0.760  1.4062 -1.0112  1.5248
  871MOL0     H17549  13.898   4.407   0.878 -0.3586 -0.6902  0.5297
  871MOL0     H17550  13.841   4.412   0.705  3.2847 -0.5781  0.2118
  871MOL0     H17551  13.769   4.641   0.749  0.1363  1.8256  1.2117
  871MOL0     H17552  13.832   4.639   0.921 -0.5934  0.7508 -0.3113
  871MOL0     H17553  14.060   4.634   0.840  0.9473  4.0271  1.2286
  871MOL0     H17554  14.005   4.597   0.681 -0.5601 -0.6287  1.0926
  871MOL0     H17555  13.907   4.863   0.823  0.5762  0.5326  0.2316
  871MOL0     H17556  13.891   4.821   0.650 -1.5492  1.6059  1.3973
  871MOL0     H17557  14.156   4.878   0.789  1.8293  0.2488 -0.4363
  871MOL0     H17558  14.081   5.002   0.697  1.7657  0.5175  0.8662
  871MOL0     H17559  14.196   4.739   0.587 -0.8263  0.5898  0.8423
  871MOL0     H17560  14.111   4.865   0.496  0.4740  2.6317 -0.2750
  871MOL0     H17561  14.384   4.868   0.549  0.3261  1.2105 -2.2148
  871MOL0     H17562  14.325   4.970   0.673  0.8826 -0.0105  0.1450
  871MOL0     H17563  14.202   5.098   0.469 -0.1879 -0.9017 -0.0500
  871MOL0     H17564  14.385   5.099   0.461 -0.0709  2.1694  1.0443
  871MOL0     H17565  13.473   4.352   0.953 -0.2703 -0.7178  1.7286
  871MOL0     H17566  13.369   4.128   0.930 -0.0568 -2.7232 -2.0118
  871MOL0     H17567  13.305   3.725   0.746  0.2115 -2.0941 -1.8461
  871MOL0     H17568  13.193   3.512   0.738  0.7352 -0.1680  0.5794
  871MOL0     H17569  11.740   3.843   0.593 -3.2430  0.4663  0.1407
  871MOL0     H17570  11.534   3.741   0.522 -1.3359 -1.3839 -1.6313
  871MOL0     H17571  11.064   3.602   0.574 -1.5122 -2.5395  4.8633
  871MOL0     H17572  10.891   3.474   0.544  2.2245  1.5855  3.5868
  871MOL0     H17573  10.933   3.037   0.499 -3.1900 -2.3813  0.8712
  871MOL0     H17574  10.893   3.072   0.333  2.0448  0.9010  0.0599
  871MOL0     H17575  10.656   3.059   0.389  0.3527 -0.2002  0.8981
  871MOL0     H17576  10.673   3.046   0.562 -0.0098 -1.5669 -0.4234
  871MOL0     H17577  10.782   2.832   0.541 -1.6980 -0.5814  0.8152
  871MOL0     H17578  10.782   2.835   0.374  3.2060 -0.3330  1.5230
  871MOL0     H17579  10.533   2.852   0.551 -1.4130 -0.9164  0.2221
  871MOL0     H17580  10.534   2.820   0.372  0.3620 -1.1292 -0.0143
  871MOL0     H17581  10.576   2.439   0.566  0.4295 -0.9780  0.0042
  871MOL0     H17582  11.117   3.138   0.419  2.5842 -0.3319  0.4643
  871MOL0     H17583  11.344   3.157   0.386  0.4359 -0.0136 -1.0710
  871MOL0     H17584  11.408   3.315   0.339 -0.2806  1.1769  0.3599
  871MOL0     H17585  11.423   3.258   0.510  0.1489  1.6109 -0.2212
  872MOL0     O17586   7.234   0.376   6.163 -0.4034  0.6094  0.3695
  872MOL0     C17587   7.231   0.305   6.264  0.6924 -1.3440  1.3400
  872MOL0     O17588   7.160   0.191   6.280  0.1110  0.0011  0.0588
  872MOL0     C17589   7.128   0.104   6.185 -0.5727  0.5064  0.6471
  872MOL0     C17590   7.215   0.092   6.073  0.2852 -0.4504 -0.7870
  872MOL0     C17591   7.191  -0.009   5.985  0.1207  0.0330 -0.4516
  872MOL0     C17592   7.094  -0.108   6.012 -0.0289  0.4917 -0.7377
  872MOL0     O17593   7.088  -0.221   5.928 -0.5860 -0.2786  1.4431
  872MOL0     C17594   7.043  -0.341   5.990 -0.2266  0.3192  0.2460
  872MOL0     C17595   7.037  -0.445   5.884  0.4268  0.8567 -0.1294
  872MOL0     C17596   6.979  -0.585   5.924 -0.4998  0.1779  0.1370
  872MOL0     C17597   6.991  -0.682   5.811  0.0427 -0.0935 -0.4975
  872MOL0     C17598   6.879  -0.793   5.809  0.4199 -0.2921 -0.3523
  872MOL0     C17599   6.876  -0.870   5.677 -0.5307 -0.3515  0.0657
  872MOL0     C17600   6.779  -0.991   5.666  0.3708  0.0578 -0.1309
  872MOL0     C17601   6.821  -1.117   5.736  0.0162 -0.5636 -0.5474
  872MOL0     N17602   6.797  -1.108   5.886 -0.4202  0.1785 -0.3941
  872MOL0     C17603   6.676  -1.086   5.947  0.8208  0.5202 -0.2171
  872MOL0     C17604   6.688  -1.125   6.075  0.1591 -0.1001 -0.0075
  872MOL0     C17605   6.587  -1.132   6.186 -0.6260  0.2920 -0.9871
  872MOL0     C17606   6.589  -0.995   6.266  0.3267  0.9160 -0.3580
  872MOL0     C17607   6.556  -0.866   6.188  0.0682  0.5006  0.6067
  872MOL0     C17608   6.501  -0.758   6.277 -0.5369  0.5100 -0.6010
  872MOL0     O17609   6.367  -0.790   6.328 -0.0490  0.5955  0.1687
  872MOL0     C17610   6.306  -0.712   6.422  0.6980  1.0574  0.5339
  872MOL0     C17611   6.179  -0.751   6.463 -1.0895 -0.2548 -1.0227
  872MOL0     C17612   6.112  -0.679   6.566  0.7369  0.3096 -0.1656
  872MOL0     C17613   6.167  -0.563   6.619  0.3620 -0.2153  0.4078
  872MOL0     C17614   6.086  -0.478   6.715 -0.4012  0.5028 -0.0283
  872MOL0     O17615   5.962  -0.523   6.757 -0.2239  0.0109 -0.1464
  872MOL0     C17616   5.880  -0.419   6.806 -0.5256  0.1007  0.0050
  872MOL0     C17617   5.767  -0.397   6.719 -0.0183  0.8644 -0.0614
  872MOL0     C17618   5.685  -0.297   6.767 -0.1945 -0.4865 -0.1486
  872MOL0     C17619   5.683  -0.238   6.899 -0.8768  1.1683 -0.3909
  872MOL0     O17620   5.593  -0.143   6.937  0.3993  0.2298 -0.3765
  872MOL0     C17621   5.516  -0.167   7.056 -0.9895  0.7004  0.1488
  872MOL0     C17622   5.366  -0.127   7.038  0.1625  0.3660 -0.5595
  872MOL0     C17623   5.300  -0.140   7.175 -0.1061 -0.6394 -1.2403
  872MOL0     C17624   5.279  -0.276   7.230 -0.2333 -0.5312  0.2618
  872MOL0     C17625   5.185  -0.282   7.358  0.5587 -0.0940  0.3468
  872MOL0     C17626   5.152  -0.433   7.380 -0.8027  0.1588  0.1305
  872MOL0     C17627   5.047  -0.447   7.482  0.7059  0.4944 -0.6422
  872MOL0     C17628   5.091  -0.412   7.627  0.7348  0.0328  0.7426
  872MOL0    Cl17629   4.950  -0.433   7.731 -0.0614 -0.1401 -0.0844
  872MOL0     C17630   5.793  -0.262   6.978 -1.6020  1.0415 -0.2017
  872MOL0     C17631   5.887  -0.354   6.934 -0.0015  0.2882 -0.9585
  872MOL0     O17632   6.136  -0.377   6.750  0.1134 -0.1741 -0.0199
  872MOL0     C17633   6.293  -0.522   6.573 -0.0222 -0.4477 -0.0357
  872MOL0     C17634   6.362  -0.602   6.479 -0.6263 -0.2784  0.3729
  872MOL0     N17635   6.818  -1.145   6.102 -0.0791  0.5749  0.2372
  872MOL0     N17636   6.888  -1.133   5.988  0.6593  0.4368 -0.1047
  872MOL0     C17637   7.001  -0.086   6.116  0.1936 -0.6026 -0.0511
  872MOL0     C17638   7.016   0.020   6.199  0.0614 -1.0675 -0.0301
  872MOL0     C17639   7.311   0.347   6.385 -0.1609  0.3552  0.4632
  872MOL0     C17640   7.334   0.253   6.486 -0.6132  0.5071 -1.4423
  872MOL0     C17641   7.429   0.276   6.601 -0.4754  0.5172 -0.0951
  872MOL0     C17642   7.474   0.408   6.614  0.2758  0.3591 -0.8689
  872MOL0     O17643   7.555   0.436   6.728  0.1884 -0.4290  0.7631
  872MOL0     C17644   7.631   0.561   6.729  0.0288  0.4898 -0.2394
  872MOL0     C17645   7.737   0.564   6.849  0.7929 -1.6612 -0.5247
  872MOL0     C17646   7.866   0.501   6.812 -0.4162 -0.0470  0.0744
  872MOL0     C17647   7.963   0.485   6.933 -0.9304 -0.7475  0.7294
  872MOL0     C17648   7.901   0.414   7.046 -0.1232 -0.5786  0.1663
  872MOL0     C17649   7.837   0.345   7.129 -0.4854  0.4757  0.1483
  872MOL0     C17650   7.449   0.502   6.507 -0.2192 -0.1973 -1.0753
  872MOL0     C17651   7.375   0.470   6.396 -0.6487  0.2090  1.0087
  872MOL0     C17652   7.339   0.592   6.309  0.6538  0.8844  0.3685
  872MOL0     H17653   7.300   0.156   6.049  0.5040 -0.4956 -0.1383
  872MOL0     H17654   7.251  -0.008   5.895  2.0368 -2.8471  0.6508
  872MOL0     H17655   7.105  -0.365   6.076  0.5072  0.1351 -0.3265
  872MOL0     H17656   6.937  -0.332   6.018 -1.1427  0.2358 -2.7920
  872MOL0     H17657   7.123  -0.456   5.817 -0.6377  0.8861 -1.5642
  872MOL0     H17658   6.957  -0.422   5.812  2.1778  0.5159 -2.2946
  872MOL0     H17659   6.872  -0.574   5.943 -0.4997  0.5911 -0.0932
  872MOL0     H17660   7.018  -0.632   6.015 -0.1116 -2.2568 -1.2181
  872MOL0     H17661   6.989  -0.625   5.718  3.2708  0.5753 -0.2644
  872MOL0     H17662   7.081  -0.736   5.839  0.6200  0.7129 -0.7709
  872MOL0     H17663   6.899  -0.864   5.890  0.1473 -0.6462 -0.5937
  872MOL0     H17664   6.781  -0.747   5.820 -0.2601 -1.3878 -1.6331
  872MOL0     H17665   6.858  -0.792   5.602  0.3005  1.0008  1.2077
  872MOL0     H17666   6.980  -0.899   5.659 -0.6390 -0.9375  0.3578
  872MOL0     H17667   6.770  -1.009   5.558 -1.9488  1.7403 -0.2937
  872MOL0     H17668   6.675  -0.968   5.689  0.4047  0.8367 -0.7172
  872MOL0     H17669   6.776  -1.207   5.692 -0.5109 -1.6098  1.9573
  872MOL0     H17670   6.929  -1.131   5.734  0.1403  0.1774  0.1956
  872MOL0     H17671   6.581  -1.074   5.896  0.8925 -2.2856 -1.1663
  872MOL0     H17672   6.488  -1.142   6.140 -1.3351  0.0300  0.4998
  872MOL0     H17673   6.612  -1.214   6.254 -0.7432  1.8713  1.0852
  872MOL0     H17674   6.508  -1.006   6.338 -0.9093 -2.0523 -2.0265
  872MOL0     H17675   6.693  -0.989   6.300 -0.3138 -0.9679  2.2259
  872MOL0     H17676   6.483  -0.897   6.112  3.5738 -2.2676 -1.9665
  872MOL0     H17677   6.650  -0.838   6.140 -1.3790  1.0735 -2.0893
  872MOL0     H17678   6.501  -0.664   6.220 -3.2584  1.4267  0.7527
  872MOL0     H17679   6.573  -0.744   6.358 -2.0089  0.5772  0.7372
  872MOL0     H17680   6.136  -0.845   6.432  0.8970 -2.2293  1.6682
  872MOL0     H17681   6.012  -0.719   6.581  1.3867 -1.4582 -0.2959
  872MOL0     H17682   5.760  -0.446   6.623 -2.2649 -0.4833  0.7170
  872MOL0     H17683   5.606  -0.257   6.705  2.8249  2.0448 -2.7295
  872MOL0     H17684   5.520  -0.273   7.082 -1.9466  0.4267 -0.7315
  872MOL0     H17685   5.556  -0.097   7.129 -0.4346  0.6144 -0.0726
  872MOL0     H17686   5.363  -0.022   7.005  2.3313  0.3591 -0.9836
  872MOL0     H17687   5.320  -0.194   6.965  1.4794 -1.1071 -0.0787
  872MOL0     H17688   5.374  -0.089   7.238 -0.1360  2.1381 -3.2953
  872MOL0     H17689   5.205  -0.090   7.192 -1.0242 -2.6602 -0.0569
  872MOL0     H17690   5.381  -0.310   7.254  0.2167  1.1982  0.9131
  872MOL0     H17691   5.233  -0.336   7.151 -0.1432  1.1807 -1.1427
  872MOL0     H17692   5.097  -0.218   7.346  1.4594  1.9170  3.4645
  872MOL0     H17693   5.232  -0.235   7.445  1.3451  0.1068 -0.1783
  872MOL0     H17694   5.118  -0.482   7.288  0.2375 -1.1497  0.4289
  872MOL0     H17695   5.242  -0.489   7.404  0.6574  3.0060  1.9480
  872MOL0     H17696   5.012  -0.550   7.489  4.3187 -0.7814  0.3111
  872MOL0     H17697   4.966  -0.381   7.447  0.8828  1.2243  0.2992
  872MOL0     H17698   5.187  -0.451   7.664  0.6253 -0.3932  0.5869
  872MOL0     H17699   5.107  -0.304   7.616 -2.9649  0.7017  0.6289
  872MOL0     H17700   5.816  -0.216   7.074 -0.0537  0.1944 -0.1321
  872MOL0     H17701   5.959  -0.385   7.009 -2.8280  1.5205  2.5547
  872MOL0     H17702   6.341  -0.441   6.628 -0.1052  0.0691 -0.7096
  872MOL0     H17703   6.462  -0.574   6.448 -0.2403 -1.4630  0.4740
  872MOL0     H17704   6.915  -0.150   6.129 -2.2252  2.6797  1.4011
  872MOL0     H17705   6.945   0.029   6.280 -1.8583 -1.4467 -1.5732
  872MOL0     H17706   7.295   0.154   6.469  2.4543 -0.7158 -2.0399
  872MOL0     H17707   7.450   0.193   6.668  1.0068 -1.8700 -3.2374
  872MOL0     H17708   7.556   0.637   6.755 -1.3596 -0.0148 -2.5314
  872MOL0     H17709   7.672   0.575   6.629 -0.1735 -3.0548 -0.9341
  872MOL0     H17710   7.687   0.527   6.939 -1.4920  2.1556  0.0095
  872MOL0     H17711   7.754   0.670   6.870  0.7527 -1.3894 -1.8175
  872MOL0     H17712   7.916   0.556   6.731 -1.3474  1.7418  0.6720
  872MOL0     H17713   7.846   0.399   6.777 -1.3638  0.1346  0.0884
  872MOL0     H17714   8.058   0.435   6.911 -0.3798  0.6000 -0.0518
  872MOL0     H17715   7.988   0.586   6.967  1.8157 -0.6811 -1.2134
  872MOL0     H17716   7.794   0.286   7.207  0.0092  3.9241  3.3419
  872MOL0     H17717   7.469   0.605   6.536 -1.2697 -0.1939 -0.2818
  872MOL0     H17718   7.401   0.584   6.219 -0.2269  0.3673 -0.2111
  872MOL0     H17719   7.233   0.581   6.281 -0.2449  1.6542  3.1233
  872MOL0     H17720   7.365   0.688   6.354  1.7859  0.5460  0.4588
  873MOL0     O17721  10.218   9.104   1.509  0.2273 -0.0166 -0.1251
  873MOL0     C17722  10.236   9.214   1.569 -0.0825  0.0573 -0.4281
  873MOL0     O17723  10.348   9.287   1.574  0.2475 -1.0885 -0.3953
  873MOL0     C17724  10.462   9.271   1.502  0.0269  0.5073  0.5200
  873MOL0     C17725  10.482   9.179   1.393  0.0574 -0.3132 -1.6774
  873MOL0     C17726  10.596   9.179   1.314 -0.0767  0.5885  0.0043
  873MOL0     C17727  10.712   9.257   1.353  0.8159 -0.1680 -0.1631
  873MOL0     O17728  10.823   9.261   1.278 -0.1147  0.1487  0.1167
  873MOL0     C17729  10.902   9.146   1.275 -1.0594 -0.0755 -0.2908
  873MOL0     C17730  11.006   9.151   1.390  0.2729  0.1749 -1.0302
  873MOL0     C17731  11.069   9.012   1.405 -1.0456 -0.7256  0.2027
  873MOL0     C17732  11.167   8.978   1.291  0.1693  0.3235 -0.4434
  873MOL0     C17733  11.312   9.040   1.294 -0.7655  1.0439  0.1821
  873MOL0     C17734  11.405   8.996   1.177 -0.3070 -0.1743 -0.6982
  873MOL0     C17735  11.551   9.056   1.174 -0.0130 -0.0318  0.2221
  873MOL0     C17736  11.636   9.007   1.057 -0.1644  0.1204 -1.4857
  873MOL0     N17737  11.766   9.068   1.034 -0.4578  0.2330 -0.5937
  873MOL0     C17738  11.892   9.007   1.014 -0.1728  0.2786 -0.9539
  873MOL0     C17739  11.980   9.110   0.995  0.2461 -0.5750  0.0084
  873MOL0     C17740  12.128   9.104   0.992  0.3055  0.0505  0.1562
  873MOL0     C17741  12.172   9.117   1.137 -0.2770 -0.1867  1.2869
  873MOL0     C17742  12.322   9.149   1.158  0.4482  0.5863  0.2188
  873MOL0     C17743  12.416   9.058   1.081 -0.3808  0.3999  0.4467
  873MOL0     O17744  12.367   8.918   1.098 -0.1793 -0.3688 -0.2155
  873MOL0     C17745  12.412   8.845   1.204 -0.4881  0.0657 -1.0450
  873MOL0     C17746  12.518   8.879   1.282  0.7021  0.7623  0.0025
  873MOL0     C17747  12.566   8.798   1.389  0.0451  0.1535  0.7400
  873MOL0     C17748  12.517   8.672   1.396 -0.1193 -0.3750  1.1943
  873MOL0     C17749  12.572   8.572   1.504  0.4205  1.3073  0.7403
  873MOL0     O17750  12.652   8.615   1.605  0.0174 -0.1914 -0.2051
  873MOL0     C17751  12.697   8.530   1.699 -0.1121 -0.0706  0.1822
  873MOL0     C17752  12.784   8.429   1.661 -0.2317  0.1564 -0.3661
  873MOL0     C17753  12.826   8.331   1.758  0.6652  0.5342 -0.3670
  873MOL0     C17754  12.779   8.342   1.888  0.9809 -0.8156 -0.7075
  873MOL0     O17755  12.807   8.256   1.990 -0.0524  0.6026 -0.0834
  873MOL0     C17756  12.926   8.181   1.972 -0.2205 -0.0585 -0.1800
  873MOL0     C17757  12.948   8.120   2.112 -0.2409  0.4023 -0.2949
  873MOL0     C17758  13.069   8.030   2.105  0.3631  0.3945 -0.7343
  873MOL0     C17759  13.054   7.908   2.018  0.7515 -0.1804 -1.0141
  873MOL0     C17760  13.138   7.799   2.065 -0.7162 -0.0314 -0.3691
  873MOL0     C17761  13.124   7.668   1.982 -1.0200 -0.5176  0.0585
  873MOL0     C17762  13.180   7.677   1.836  0.9716  0.4218  0.1916
  873MOL0     C17763  13.170   7.543   1.761 -0.3450 -0.6656 -0.7421
  873MOL0    Cl17764  12.994   7.499   1.744  0.3110  0.5450 -0.1939
  873MOL0     C17765  12.691   8.444   1.918  0.0217 -0.1098  0.0139
  873MOL0     C17766  12.648   8.534   1.824 -1.0036 -0.1317 -0.3501
  873MOL0     O17767  12.537   8.457   1.492  0.0204  0.2507 -0.6527
  873MOL0     C17768  12.417   8.624   1.306 -0.2288 -0.1476 -0.2861
  873MOL0     C17769  12.361   8.717   1.219 -0.0115 -0.9062 -0.2484
  873MOL0     N17770  11.900   9.231   0.994 -0.3699  0.4541 -0.1277
  873MOL0     N17771  11.783   9.201   1.011  0.0550 -0.3497  0.2785
  873MOL0     C17772  10.697   9.348   1.463 -0.1130  0.0193 -1.0359
  873MOL0     C17773  10.576   9.347   1.537  1.1710  0.0965 -0.1573
  873MOL0     C17774  10.121   9.275   1.635  0.3239  0.8019 -0.7988
  873MOL0     C17775  10.069   9.228   1.762  0.2220 -0.8255  0.5884
  873MOL0     C17776   9.969   9.295   1.831  0.4719 -0.3257 -0.3133
  873MOL0     C17777   9.915   9.410   1.770 -0.7577  0.2851  0.7315
  873MOL0     O17778   9.813   9.488   1.813 -0.2185  0.3290  0.1542
  873MOL0     C17779   9.740   9.452   1.939  0.1287 -0.0870  0.2352
  873MOL0     C17780   9.686   9.584   1.994 -0.1285 -0.4912 -0.1968
  873MOL0     C17781   9.786   9.675   2.052 -0.7007 -0.5277 -1.3774
  873MOL0     C17782   9.843   9.624   2.186  0.5080  0.2483  0.0399
  873MOL0     C17783   9.945   9.522   2.173 -0.0310 -0.4288 -0.1339
  873MOL0     C17784  10.019   9.429   2.168 -0.4885  0.2051  0.0818
  873MOL0     C17785   9.951   9.443   1.639 -0.4659 -0.0492  0.0231
  873MOL0     C17786  10.053   9.383   1.573  0.8699  0.7939  0.5275
  873MOL0     C17787  10.080   9.420   1.434 -0.9724 -1.1980 -0.6595
  873MOL0     H17788  10.400   9.117   1.359 -3.4010  3.8176 -1.7632
  873MOL0     H17789  10.619   9.108   1.235  0.7184 -0.1658  0.8781
  873MOL0     H17790  10.832   9.061   1.280 -1.9231  0.5797 -0.8474
  873MOL0     H17791  10.965   9.131   1.187  0.9431 -1.4916  1.2840
  873MOL0     H17792  10.959   9.196   1.478 -1.3541  0.8308 -2.1684
  873MOL0     H17793  11.092   9.216   1.371  1.3313 -1.3296 -1.5506
  873MOL0     H17794  10.991   8.936   1.404 -0.2767 -1.5753 -2.2733
  873MOL0     H17795  11.123   9.007   1.500  1.9117  0.4623 -1.3052
  873MOL0     H17796  11.192   8.872   1.288  0.7538  0.4417 -4.1666
  873MOL0     H17797  11.116   9.012   1.201 -0.7207 -0.6608 -0.3216
  873MOL0     H17798  11.318   9.149   1.283 -1.0467  1.0873  0.4442
  873MOL0     H17799  11.366   9.018   1.386 -0.1025  0.6081 -0.3023
  873MOL0     H17800  11.415   8.892   1.207  1.5591 -0.1826 -1.2310
  873MOL0     H17801  11.367   9.006   1.075 -2.2960  0.2685  0.0365
  873MOL0     H17802  11.598   9.011   1.262 -1.5161 -1.5623  0.2895
  873MOL0     H17803  11.555   9.165   1.162  3.3873 -0.2095 -1.4290
  873MOL0     H17804  11.638   8.900   1.080 -2.5073  0.7760  2.6915
  873MOL0     H17805  11.590   9.026   0.960  0.3068 -2.0918 -2.2076
  873MOL0     H17806  11.914   8.901   1.018 -1.3409  0.0517  0.0214
  873MOL0     H17807  12.155   9.012   0.940  1.9018  1.4327 -1.6171
  873MOL0     H17808  12.169   9.194   0.945  3.0582 -0.3019  1.6821
  873MOL0     H17809  12.118   9.198   1.186 -3.5692 -0.0122 -2.1177
  873MOL0     H17810  12.152   9.027   1.195  2.2421  0.2352  2.9369
  873MOL0     H17811  12.341   9.138   1.265 -1.1951  0.8900  0.5679
  873MOL0     H17812  12.338   9.256   1.141 -1.5669  1.1723  1.7005
  873MOL0     H17813  12.517   9.077   1.119 -0.1342 -1.3636  0.7458
  873MOL0     H17814  12.411   9.083   0.974 -1.6192 -2.8140 -0.3476
  873MOL0     H17815  12.557   8.980   1.284 -1.3737  1.6943 -2.0007
  873MOL0     H17816  12.639   8.836   1.460  3.0850  0.0401 -2.0770
  873MOL0     H17817  12.813   8.407   1.558 -3.4584 -0.2382 -1.3039
  873MOL0     H17818  12.890   8.248   1.729  0.1070  0.4851 -1.5206
  873MOL0     H17819  12.897   8.093   1.913 -0.6667  1.0256 -1.6298
  873MOL0     H17820  13.012   8.227   1.923 -0.2614 -1.0702 -1.2682
  873MOL0     H17821  12.950   8.202   2.184 -0.1869 -0.2077  0.4091
  873MOL0     H17822  12.866   8.054   2.140  2.0596 -2.3262  0.4885
  873MOL0     H17823  13.152   8.095   2.075  0.8169  0.0737 -0.1971
  873MOL0     H17824  13.078   8.001   2.210 -4.8210 -0.2318 -0.1954
  873MOL0     H17825  13.084   7.951   1.922  0.6562 -0.3080 -1.1021
  873MOL0     H17826  12.957   7.859   2.004  1.7126 -3.0974  1.4771
  873MOL0     H17827  13.117   7.771   2.169  1.2049 -0.5573 -0.0772
  873MOL0     H17828  13.246   7.814   2.069 -0.7484  0.2265  2.9780
  873MOL0     H17829  13.186   7.589   2.025  0.3303 -0.9688 -2.4669
  873MOL0     H17830  13.024   7.624   1.974 -2.0340  1.4081  1.4754
  873MOL0     H17831  13.285   7.702   1.848  2.0713 -3.4230  0.0600
  873MOL0     H17832  13.124   7.751   1.778  3.5052  1.1854 -1.4060
  873MOL0     H17833  13.214   7.566   1.663 -3.0801  1.6853 -1.5312
  873MOL0     H17834  13.226   7.462   1.809 -0.1485  0.5756  1.2839
  873MOL0     H17835  12.632   8.436   2.009  0.3395 -4.1860  0.0241
  873MOL0     H17836  12.578   8.612   1.853 -0.7628 -0.0420 -0.0183
  873MOL0     H17837  12.372   8.525   1.301 -0.3653 -0.0277 -1.9215
  873MOL0     H17838  12.278   8.685   1.156  1.3363 -0.5026 -2.3377
  873MOL0     H17839  10.783   9.413   1.479 -0.4614  0.1725  0.3127
  873MOL0     H17840  10.560   9.426   1.610 -3.1917  1.8351 -2.6384
  873MOL0     H17841  10.114   9.143   1.813 -1.7054 -1.6023  1.0866
  873MOL0     H17842   9.944   9.272   1.935  2.0620  2.1403  0.7024
  873MOL0     H17843   9.787   9.386   2.012 -0.1093 -1.7535 -1.0654
  873MOL0     H17844   9.655   9.392   1.904  2.4056 -1.6117 -3.1912
  873MOL0     H17845   9.602   9.557   2.059 -0.9200 -0.6380 -1.2465
  873MOL0     H17846   9.645   9.634   1.905 -1.3796  1.3601  1.3390
  873MOL0     H17847   9.736   9.770   2.068  0.9866  0.0423  1.1300
  873MOL0     H17848   9.867   9.688   1.979 -1.3803  0.3350 -1.9909
  873MOL0     H17849   9.899   9.697   2.244  0.3465  1.2720 -1.0460
  873MOL0     H17850   9.762   9.593   2.252  0.7618 -0.5426 -0.0176
  873MOL0     H17851  10.081   9.342   2.174 -2.0494 -1.0299 -0.8000
  873MOL0     H17852   9.894   9.518   1.585  1.5638 -0.0126 -2.1991
  873MOL0     H17853  10.184   9.451   1.426 -1.1123 -1.0407 -2.2910
  873MOL0     H17854  10.051   9.342   1.362  0.6075  1.2317 -4.2241
  873MOL0     H17855  10.032   9.514   1.404  1.3756  1.3511  2.8275
  874MOL0     O17856   5.281   0.939   7.694 -0.3349 -1.0120  0.3217
  874MOL0     C17857   5.204   0.858   7.643  0.2809  0.6090  0.4595
  874MOL0     O17858   5.227   0.720   7.638 -0.0899  0.5935  0.2920
  874MOL0     C17859   5.344   0.663   7.668  0.8451 -0.2154  0.4528
  874MOL0     C17860   5.356   0.557   7.760  0.7301  1.1036  0.6446
  874MOL0     C17861   5.487   0.492   7.784 -0.0546 -0.6341  0.2705
  874MOL0     C17862   5.602   0.551   7.720  0.5011  1.1892 -0.3167
  874MOL0     O17863   5.725   0.496   7.744  0.2632  0.3976 -0.1323
  874MOL0     C17864   5.799   0.456   7.631 -0.5786 -0.0325  0.7854
  874MOL0     C17865   5.911   0.359   7.660 -1.0547 -0.7675  0.2436
  874MOL0     C17866   5.977   0.308   7.532 -0.0720 -0.7799 -0.2550
  874MOL0     C17867   6.078   0.405   7.461 -0.0946 -0.5351  0.2358
  874MOL0     C17868   6.133   0.336   7.340  0.1783  0.3204  0.2745
  874MOL0     C17869   6.256   0.409   7.303  0.3853  0.2567 -1.0070
  874MOL0     C17870   6.342   0.319   7.220 -0.2763  0.4220  0.6403
  874MOL0     C17871   6.471   0.376   7.182  0.1149  0.4636 -0.3369
  874MOL0     N17872   6.561   0.266   7.138  0.1931 -0.0028  0.6074
  874MOL0     C17873   6.634   0.178   7.216  0.5136  0.1976 -0.3964
  874MOL0     C17874   6.696   0.086   7.130  0.5738 -0.6468  0.2689
  874MOL0     C17875   6.785  -0.030   7.176  0.6625 -0.3121  0.3957
  874MOL0     C17876   6.887  -0.078   7.066  0.9651 -0.7197  0.4494
  874MOL0     C17877   6.810  -0.171   6.975 -0.7545 -0.3707  0.2256
  874MOL0     C17878   6.902  -0.239   6.881 -0.6219 -0.4549  1.0264
  874MOL0     O17879   7.023  -0.299   6.939 -0.2975 -0.3874  0.1078
  874MOL0     C17880   7.114  -0.360   6.852  0.0480  1.5929  0.6502
  874MOL0     C17881   7.089  -0.431   6.733 -0.4923 -1.1391  0.0603
  874MOL0     C17882   7.201  -0.491   6.670 -0.7212 -0.2061 -0.5676
  874MOL0     C17883   7.325  -0.488   6.727 -1.2174 -0.8131 -0.0141
  874MOL0     C17884   7.444  -0.555   6.659  0.4595 -0.5477 -0.0750
  874MOL0     O17885   7.419  -0.641   6.565  1.0126  0.3187  0.0700
  874MOL0     C17886   7.519  -0.682   6.478  0.6783 -0.7957  0.3040
  874MOL0     C17887   7.607  -0.601   6.415 -0.3996 -0.5758  0.8637
  874MOL0     C17888   7.715  -0.658   6.335 -0.2180  0.0193  0.3740
  874MOL0     C17889   7.720  -0.791   6.304  0.0644 -0.0445 -0.0139
  874MOL0     O17890   7.817  -0.867   6.250 -1.0417 -0.1285  0.4970
  874MOL0     C17891   7.935  -0.800   6.203 -0.6489  0.2060  0.1164
  874MOL0     C17892   8.055  -0.893   6.189 -0.6329 -0.0731  0.2904
  874MOL0     C17893   8.033  -0.994   6.078 -0.0527  0.0200  0.0825
  874MOL0     C17894   8.125  -0.978   5.958  0.6095  0.0209 -0.0744
  874MOL0     C17895   8.061  -1.028   5.826  0.4084  0.2904  0.0762
  874MOL0     C17896   8.146  -1.036   5.698 -0.5678  1.8123  0.5634
  874MOL0     C17897   8.254  -1.142   5.711 -0.1863  0.2459 -0.2473
  874MOL0     C17898   8.324  -1.184   5.575 -0.8002 -0.9677 -0.2191
  874MOL0    Cl17899   8.499  -1.169   5.579 -0.0708 -0.0113  0.3087
  874MOL0     C17900   7.611  -0.861   6.351  0.8088  0.8184  0.3084
  874MOL0     C17901   7.522  -0.817   6.436  0.0320 -0.0963 -0.1015
  874MOL0     O17902   7.558  -0.518   6.691  0.0222  0.0093  0.2329
  874MOL0     C17903   7.345  -0.423   6.851  0.2397  0.0458 -0.6803
  874MOL0     C17904   7.236  -0.366   6.914 -1.2403  0.0801  0.1521
  874MOL0     N17905   6.662   0.123   6.997 -1.1095 -0.0041 -0.0169
  874MOL0     N17906   6.587   0.230   7.008  0.1171  0.8626  0.6336
  874MOL0     C17907   5.586   0.650   7.628  0.7081 -0.3463 -0.6343
  874MOL0     C17908   5.458   0.700   7.602 -0.1632 -0.2265 -0.1844
  874MOL0     C17909   5.076   0.907   7.616  0.2344 -0.4107  1.2796
  874MOL0     C17910   5.016   0.989   7.709 -0.5553 -1.0649 -0.0992
  874MOL0     C17911   4.881   1.020   7.711 -0.1669  0.7971  0.8406
  874MOL0     C17912   4.797   0.979   7.610 -0.1560 -0.4611 -0.0116
  874MOL0     O17913   4.670   1.019   7.619 -0.7507 -0.2792  0.7649
  874MOL0     C17914   4.588   0.973   7.508 -0.8489 -0.7244 -1.2696
  874MOL0     C17915   4.453   1.018   7.549 -0.8752  0.2426  0.3595
  874MOL0     C17916   4.348   1.013   7.439  0.6062  0.8015  0.2467
  874MOL0     C17917   4.213   1.071   7.490  0.3245  0.1087  0.0029
  874MOL0     C17918   4.221   1.216   7.506  0.5486  0.0606  0.0869
  874MOL0     C17919   4.226   1.338   7.517  0.3005  0.4855  0.3582
  874MOL0     C17920   4.857   0.904   7.505 -0.1937 -1.1697 -0.7937
  874MOL0     C17921   4.990   0.875   7.502  0.1079  0.0118  0.1412
  874MOL0     C17922   5.053   0.806   7.381  0.3247 -1.1660  0.4822
  874MOL0     H17923   5.268   0.517   7.809  1.7312 -1.0097  0.8585
  874MOL0     H17924   5.502   0.406   7.848 -3.2187 -0.5533  1.2626
  874MOL0     H17925   5.730   0.400   7.567 -0.8733  0.7903  0.3708
  874MOL0     H17926   5.837   0.544   7.578 -1.6668  0.5562  0.9519
  874MOL0     H17927   5.868   0.274   7.713  0.9910 -3.2824 -1.8553
  874MOL0     H17928   5.987   0.407   7.723  0.0684  0.8568 -2.1749
  874MOL0     H17929   5.898   0.273   7.466 -0.1104  0.1182 -0.7031
  874MOL0     H17930   6.041   0.220   7.548  1.3717 -0.1074 -1.8828
  874MOL0     H17931   6.048   0.505   7.428 -0.0274 -1.2778 -2.3083
  874MOL0     H17932   6.162   0.429   7.527  2.0780 -1.7134 -1.9159
  874MOL0     H17933   6.158   0.232   7.364  0.8483  0.2996 -0.4853
  874MOL0     H17934   6.054   0.340   7.264  0.2043 -0.3346  0.2097
  874MOL0     H17935   6.217   0.503   7.262  0.1052 -0.6207 -2.8402
  874MOL0     H17936   6.326   0.438   7.382  0.8980 -0.6600 -1.1125
  874MOL0     H17937   6.309   0.301   7.117  0.0066  0.5140  0.5315
  874MOL0     H17938   6.356   0.221   7.266  0.7607  0.2509 -0.0068
  874MOL0     H17939   6.468   0.455   7.107 -3.6723 -1.3285 -2.3526
  874MOL0     H17940   6.507   0.416   7.278 -1.0469 -0.9689  0.7479
  874MOL0     H17941   6.632   0.171   7.324  4.5289  2.1661 -0.0139
  874MOL0     H17942   6.846   0.019   7.253  1.5560 -1.0620  0.1907
  874MOL0     H17943   6.722  -0.103   7.226 -1.1387 -1.1275 -2.8197
  874MOL0     H17944   6.928   0.008   7.013  0.3969 -1.1896 -0.7986
  874MOL0     H17945   6.966  -0.138   7.112 -1.3075 -3.8484  0.5620
  874MOL0     H17946   6.723  -0.123   6.929 -0.6997  0.8648  1.3781
  874MOL0     H17947   6.765  -0.257   7.026 -1.9441  1.8184  3.1244
  874MOL0     H17948   6.926  -0.163   6.805 -0.3049  0.5811  2.1291
  874MOL0     H17949   6.847  -0.318   6.829  0.7194 -1.4873  1.1230
  874MOL0     H17950   6.991  -0.447   6.689 -0.9940 -1.1451  1.1605
  874MOL0     H17951   7.184  -0.546   6.578  0.2479 -1.8211  0.1740
  874MOL0     H17952   7.593  -0.497   6.440 -1.8769 -0.3170 -0.8371
  874MOL0     H17953   7.792  -0.591   6.299 -1.5258 -0.0392 -2.9183
  874MOL0     H17954   7.905  -0.755   6.108 -1.8980 -0.0360  0.3797
  874MOL0     H17955   7.967  -0.728   6.279  0.9425 -0.3231 -0.0117
  874MOL0     H17956   8.142  -0.828   6.171 -1.0133  0.5699  0.7281
  874MOL0     H17957   8.056  -0.944   6.286  1.0170 -0.3613  0.1596
  874MOL0     H17958   8.061  -1.095   6.112 -0.4733 -0.2374 -0.3173
  874MOL0     H17959   7.927  -0.981   6.052  0.0168 -1.0490 -0.7947
  874MOL0     H17960   8.219  -1.029   5.981  1.1733  0.1713 -1.8888
  874MOL0     H17961   8.152  -0.872   5.958 -1.4940  0.6202  0.5613
  874MOL0     H17962   7.969  -0.974   5.803 -0.4220 -0.3661  1.6714
  874MOL0     H17963   8.034  -1.131   5.853 -0.2070  0.6111  0.6910
  874MOL0     H17964   8.088  -1.070   5.611  1.5603  0.8418 -0.5480
  874MOL0     H17965   8.183  -0.934   5.681  1.9608  0.4959 -3.2770
  874MOL0     H17966   8.205  -1.235   5.743 -3.2247  1.1946 -1.7941
  874MOL0     H17967   8.328  -1.101   5.780 -0.9704  0.6588  0.3818
  874MOL0     H17968   8.305  -1.290   5.555 -0.3193 -1.0546 -0.2339
  874MOL0     H17969   8.295  -1.122   5.490 -1.1470 -1.0713 -0.1755
  874MOL0     H17970   7.607  -0.966   6.322 -1.1011  1.2749 -1.2452
  874MOL0     H17971   7.452  -0.885   6.483 -0.8085  3.4818  4.5948
  874MOL0     H17972   7.441  -0.424   6.900  0.6026  2.1329 -1.2566
  874MOL0     H17973   7.241  -0.324   7.014 -1.8244 -2.3692  1.2817
  874MOL0     H17974   5.671   0.703   7.584 -0.2358  0.3840 -1.6418
  874MOL0     H17975   5.458   0.792   7.544  1.9104  0.1430  0.2982
  874MOL0     H17976   5.074   1.042   7.784 -2.2167  3.1591 -1.4660
  874MOL0     H17977   4.845   1.086   7.788 -4.0871  2.5650 -2.1543
  874MOL0     H17978   4.593   0.865   7.493  3.7398 -0.5111 -2.7796
  874MOL0     H17979   4.618   1.019   7.413  0.3734  0.6333 -0.2616
  874MOL0     H17980   4.462   1.123   7.578  1.8830  0.8421 -2.2118
  874MOL0     H17981   4.417   0.954   7.630  2.5077 -1.6702  0.4992
  874MOL0     H17982   4.342   0.908   7.412  1.6095  1.1164 -1.3468
  874MOL0     H17983   4.375   1.063   7.345  0.8243 -2.0223 -1.2782
  874MOL0     H17984   4.126   1.044   7.429 -1.3325  1.5417  1.6230
  874MOL0     H17985   4.189   1.028   7.587 -1.9908 -1.0395 -0.9884
  874MOL0     H17986   4.254   1.439   7.534  1.3576  0.4353 -0.8877
  874MOL0     H17987   4.803   0.899   7.411  1.1687  2.8636 -2.0303
  874MOL0     H17988   5.147   0.859   7.366 -0.7290  0.4035 -0.8703
  874MOL0     H17989   5.071   0.701   7.408  1.1025 -0.5804  2.4539
  874MOL0     H17990   4.992   0.812   7.291  1.5813 -1.1259 -0.3917
  875MOL0     O17991  10.971   3.016   3.751 -0.6538 -0.0124 -0.6497
  875MOL0     C17992  10.910   2.957   3.664  0.0904 -0.5922  0.6256
  875MOL0     O17993  10.934   2.831   3.624  0.4093 -0.3763  0.1955
  875MOL0     C17994  11.034   2.757   3.689  0.0847 -0.5396 -0.4961
  875MOL0     C17995  11.013   2.630   3.737  0.1319 -0.5210  0.4141
  875MOL0     C17996  11.121   2.551   3.786 -0.2633  0.0122 -0.1273
  875MOL0     C17997  11.250   2.605   3.773  0.1055 -0.4915  0.2411
  875MOL0     O17998  11.350   2.515   3.801  0.1732  0.2341 -0.8780
  875MOL0     C17999  11.483   2.553   3.773  0.3937  0.9182  0.3817
  875MOL0     C18000  11.560   2.607   3.892  0.0506 -0.3075  0.4884
  875MOL0     C18001  11.686   2.680   3.841 -0.1686  0.4403  0.3499
  875MOL0     C18002  11.765   2.732   3.957 -0.0221  0.1194 -0.7579
  875MOL0     C18003  11.830   2.867   3.917 -0.0541 -0.1121  0.0077
  875MOL0     C18004  11.958   2.838   3.836  0.3348  0.3363  0.2419
  875MOL0     C18005  12.034   2.963   3.787 -0.1188  0.8067  0.6290
  875MOL0     C18006  11.977   3.044   3.677 -0.1821 -0.4800  0.1730
  875MOL0     N18007  11.965   2.976   3.548 -0.2995 -0.3277 -0.3188
  875MOL0     C18008  12.048   2.986   3.443  0.1317 -0.5500  1.3951
  875MOL0     C18009  11.988   2.917   3.341 -1.0953  0.2912  0.3516
  875MOL0     C18010  12.055   2.905   3.210  0.7736 -1.3294 -0.0707
  875MOL0     C18011  12.061   3.040   3.139  0.1601 -0.3012 -0.2682
  875MOL0     C18012  11.918   3.122   3.123  0.2010 -0.1465  0.9494
  875MOL0     C18013  11.936   3.262   3.062 -0.0706  0.7764  0.6585
  875MOL0     O18014  11.812   3.296   3.004 -0.0938 -0.5802  0.3386
  875MOL0     C18015  11.767   3.428   2.993  0.8331  0.7486  0.2666
  875MOL0     C18016  11.633   3.450   2.971  0.0649 -0.2503  0.2434
  875MOL0     C18017  11.565   3.576   2.963  0.0367  0.2878 -0.1092
  875MOL0     C18018  11.646   3.687   2.992  0.5331 -0.2125  0.0888
  875MOL0     C18019  11.577   3.822   2.997  0.2402  0.5315  0.1918
  875MOL0     O18020  11.446   3.838   2.971  0.2499  0.8971  0.2399
  875MOL0     C18021  11.411   3.970   2.953 -0.1931 -0.0852  0.6548
  875MOL0     C18022  11.409   4.026   2.826  0.8537 -0.1612 -0.9299
  875MOL0     C18023  11.372   4.166   2.820  0.9915 -0.3426 -0.2123
  875MOL0     C18024  11.317   4.231   2.935  0.3498  0.0467 -0.0711
  875MOL0     O18025  11.255   4.352   2.933  0.3030 -1.0767 -1.2822
  875MOL0     C18026  11.291   4.450   2.830 -0.2290 -0.8341  1.5387
  875MOL0     C18027  11.229   4.588   2.868  0.3081  0.1684 -0.1706
  875MOL0     C18028  11.274   4.703   2.769 -0.6000  0.8531 -0.8646
  875MOL0     C18029  11.196   4.841   2.803 -0.1125  0.3899 -0.2845
  875MOL0     C18030  11.259   4.914   2.918 -0.1492 -0.7768 -0.6089
  875MOL0     C18031  11.177   5.042   2.956 -1.1946 -0.1686 -0.2005
  875MOL0     C18032  11.233   5.109   3.083  0.1722  0.0411  0.3277
  875MOL0     C18033  11.153   5.235   3.116 -0.0587 -0.2749 -0.7517
  875MOL0    Cl18034  11.186   5.304   3.280  0.2843 -0.0692  0.2503
  875MOL0     C18035  11.331   4.172   3.062  0.0724 -0.2667 -0.7053
  875MOL0     C18036  11.370   4.037   3.072  0.2494  0.0434 -0.0119
  875MOL0     O18037  11.654   3.913   3.025 -0.4335 -0.9542  0.4927
  875MOL0     C18038  11.788   3.673   3.006  0.3296  0.1260  0.3840
  875MOL0     C18039  11.841   3.540   3.019  0.3437 -0.0603  0.1733
  875MOL0     N18040  11.871   2.861   3.383  0.4965 -0.5924  0.7378
  875MOL0     N18041  11.855   2.902   3.508  0.1388 -0.3207 -0.2753
  875MOL0     C18042  11.271   2.743   3.731 -1.2058  0.5020  0.4580
  875MOL0     C18043  11.165   2.810   3.685 -0.0211 -0.6818 -0.8361
  875MOL0     C18044  10.810   3.036   3.582 -0.0924  0.1017 -0.4917
  875MOL0     C18045  10.791   3.000   3.448 -0.3329 -0.1497 -0.6766
  875MOL0     C18046  10.698   3.069   3.373  0.3790  0.8732  0.5037
  875MOL0     C18047  10.610   3.160   3.423  0.2702  1.0643 -0.6876
  875MOL0     O18048  10.512   3.200   3.342  0.3414  0.0647 -0.2678
  875MOL0     C18049  10.426   3.307   3.380  0.2161  0.1165 -0.5029
  875MOL0     C18050  10.355   3.373   3.261 -0.2631 -1.5988  0.3484
  875MOL0     C18051  10.297   3.282   3.158  0.6449  0.3523 -0.5498
  875MOL0     C18052  10.210   3.346   3.048 -0.2423 -0.2423 -0.0506
  875MOL0     C18053  10.133   3.255   2.959 -0.9176 -0.8987  0.5795
  875MOL0     C18054  10.062   3.202   2.878 -0.5077  0.5872  0.6199
  875MOL0     C18055  10.623   3.198   3.555 -0.3985  0.5288  0.3199
  875MOL0     C18056  10.716   3.125   3.637  0.4207 -0.4396  0.5225
  875MOL0     C18057  10.715   3.162   3.782  0.7502  0.2549 -0.1959
  875MOL0     H18058  10.919   2.588   3.702  0.4779  0.8665 -2.4734
  875MOL0     H18059  11.094   2.450   3.817 -2.4019  0.5181 -0.1451
  875MOL0     H18060  11.535   2.461   3.745 -1.4095  0.3723 -1.3972
  875MOL0     H18061  11.494   2.605   3.677 -0.0681 -1.6713 -1.1486
  875MOL0     H18062  11.583   2.534   3.969  0.8133 -1.5785 -0.8880
  875MOL0     H18063  11.492   2.684   3.930  2.7423  1.1993  2.6072
  875MOL0     H18064  11.649   2.765   3.785 -2.7412 -0.2543  0.8621
  875MOL0     H18065  11.744   2.607   3.784 -2.3155 -2.9562  2.1618
  875MOL0     H18066  11.690   2.738   4.036  0.1292  0.7944 -0.6599
  875MOL0     H18067  11.848   2.677   4.002 -2.5615 -0.7201  3.4458
  875MOL0     H18068  11.770   2.935   3.855  0.4822 -2.0054 -2.7821
  875MOL0     H18069  11.852   2.915   4.013 -0.3814 -0.7079  0.3875
  875MOL0     H18070  12.022   2.786   3.907  0.2210 -0.4979 -0.2527
  875MOL0     H18071  11.933   2.775   3.750 -0.5563  1.3566 -0.2727
  875MOL0     H18072  12.131   2.935   3.744 -0.7764  2.0950 -1.9050
  875MOL0     H18073  12.057   3.043   3.858  1.5273 -0.7763  1.9556
  875MOL0     H18074  11.881   3.079   3.716  0.5985  1.4156  0.4720
  875MOL0     H18075  12.038   3.133   3.660  2.2500 -1.9928  0.5357
  875MOL0     H18076  12.150   3.022   3.428 -0.7707  1.1062 -1.6509
  875MOL0     H18077  12.161   2.878   3.216  1.6796  1.7176 -0.6606
  875MOL0     H18078  12.002   2.829   3.152  1.4687 -1.3457 -0.7028
  875MOL0     H18079  12.131   3.100   3.199 -0.6966 -0.4419  0.9154
  875MOL0     H18080  12.093   3.015   3.038  0.7862 -2.5644  0.4270
  875MOL0     H18081  11.868   3.130   3.220 -0.1202  0.1381  0.7632
  875MOL0     H18082  11.860   3.052   3.063  3.4233 -3.1847  1.0959
  875MOL0     H18083  12.013   3.274   2.985 -0.6739  3.4840  0.3675
  875MOL0     H18084  11.973   3.323   3.145 -2.4750  0.9531  1.6901
  875MOL0     H18085  11.580   3.359   2.945  1.2453 -0.4875 -1.4625
  875MOL0     H18086  11.462   3.596   2.934  0.2857  2.5513  0.3881
  875MOL0     H18087  11.431   3.957   2.745 -0.3948 -1.3294 -0.2967
  875MOL0     H18088  11.365   4.206   2.720  2.3125 -3.3164 -1.6130
  875MOL0     H18089  11.400   4.463   2.823 -0.6423  2.6935 -0.4606
  875MOL0     H18090  11.242   4.402   2.746 -0.6336  3.3661 -0.8683
  875MOL0     H18091  11.121   4.591   2.884  0.3459 -0.5547  0.2446
  875MOL0     H18092  11.266   4.617   2.967 -1.0130  0.2608  0.3133
  875MOL0     H18093  11.381   4.724   2.780 -0.4714  0.9806 -2.2454
  875MOL0     H18094  11.255   4.671   2.666  0.0331 -2.8947  0.0280
  875MOL0     H18095  11.090   4.824   2.826 -0.3640  0.0514 -1.6141
  875MOL0     H18096  11.192   4.906   2.715 -3.2837  0.7161 -0.0378
  875MOL0     H18097  11.357   4.947   2.882  1.0529 -1.1877  2.0349
  875MOL0     H18098  11.261   4.850   3.007  0.0491  1.4381  1.1077
  875MOL0     H18099  11.188   5.114   2.875 -0.3975  0.2387  0.2617
  875MOL0     H18100  11.068   5.027   2.955 -1.3599  0.8842  0.2785
  875MOL0     H18101  11.332   5.153   3.068 -1.0518  2.7432 -0.5907
  875MOL0     H18102  11.226   5.033   3.160 -2.0203 -0.2964 -0.1379
  875MOL0     H18103  11.166   5.311   3.038 -0.2517 -0.1335 -0.6468
  875MOL0     H18104  11.050   5.199   3.116 -0.3595  0.5281 -1.6884
  875MOL0     H18105  11.305   4.230   3.150  2.5169  1.9137 -1.3179
  875MOL0     H18106  11.365   3.995   3.172 -2.1607 -2.3510 -1.0222
  875MOL0     H18107  11.855   3.755   3.029  0.4243 -0.4285  2.2109
  875MOL0     H18108  11.947   3.544   3.042  0.2455  2.0546  0.4492
  875MOL0     H18109  11.372   2.785   3.730 -1.6995  1.7318 -0.8550
  875MOL0     H18110  11.191   2.905   3.639  1.1058 -0.9026 -0.6756
  875MOL0     H18111  10.849   2.923   3.398 -0.0253 -0.5648  0.3090
  875MOL0     H18112  10.687   3.059   3.266  2.7196  0.0267  0.2787
  875MOL0     H18113  10.489   3.375   3.438  1.4920 -1.2735 -0.1839
  875MOL0     H18114  10.345   3.263   3.439  2.2755  0.7153  3.1126
  875MOL0     H18115  10.416   3.445   3.205 -1.4085  0.3754  1.5246
  875MOL0     H18116  10.273   3.431   3.304  1.0341  1.3468 -0.8578
  875MOL0     H18117  10.241   3.208   3.215  2.2517 -0.3996  0.0994
  875MOL0     H18118  10.386   3.232   3.120  1.4626  0.7217  0.7722
  875MOL0     H18119  10.130   3.404   3.094 -1.1014 -0.6290 -1.0036
  875MOL0     H18120  10.280   3.398   2.982  2.9231 -4.0115 -0.0695
  875MOL0     H18121  10.000   3.156   2.803 -2.6880  2.2289  1.3295
  875MOL0     H18122  10.567   3.279   3.600 -0.7684  0.2291  0.4145
  875MOL0     H18123  10.616   3.177   3.825  2.0021  2.0518  2.2611
  875MOL0     H18124  10.749   3.077   3.842 -0.9265  0.2995  0.8577
  875MOL0     H18125  10.790   3.238   3.808  0.6597 -0.1513  1.3307
  876MOL0     O18126   7.369   0.519   8.270 -0.1446  0.0519  0.3912
  876MOL0     C18127   7.290   0.429   8.246  0.4452  0.0020  0.0941
  876MOL0     O18128   7.149   0.443   8.256  0.2123 -0.1610  0.6150
  876MOL0     C18129   7.086   0.565   8.263  0.1956 -0.8796 -0.7404
  876MOL0     C18130   7.083   0.645   8.151  0.9419 -0.1744 -0.4235
  876MOL0     C18131   7.017   0.774   8.155 -0.9035 -0.4074 -1.0460
  876MOL0     C18132   6.948   0.823   8.270 -0.5947  1.2502 -0.6582
  876MOL0     O18133   6.893   0.954   8.265 -0.0388 -0.2201  0.1197
  876MOL0     C18134   6.838   1.013   8.383  1.0715 -0.0721 -0.9357
  876MOL0     C18135   6.830   1.157   8.374  0.8887 -0.0282 -0.7231
  876MOL0     C18136   6.750   1.211   8.247 -0.4478  1.3031 -0.4109
  876MOL0     C18137   6.723   1.356   8.252 -0.7236  0.3601 -0.1558
  876MOL0     C18138   6.645   1.403   8.126 -0.5416  0.2149 -0.4034
  876MOL0     C18139   6.725   1.410   7.993 -0.1778 -0.0600 -0.2544
  876MOL0     C18140   6.662   1.527   7.902  0.4348  0.3446  0.0954
  876MOL0     C18141   6.521   1.509   7.864 -0.0594 -0.5559  0.3300
  876MOL0     N18142   6.457   1.636   7.810 -0.0835 -0.1100  0.0168
  876MOL0     C18143   6.444   1.756   7.876 -0.3699  0.0943 -0.5389
  876MOL0     C18144   6.353   1.829   7.814  0.3826  0.2318 -0.4289
  876MOL0     C18145   6.296   1.958   7.876 -0.0329  0.0084  0.6903
  876MOL0     C18146   6.207   2.024   7.774  0.5054  0.2188 -0.4953
  876MOL0     C18147   6.116   2.130   7.840 -1.1736 -0.2467 -0.3243
  876MOL0     C18148   6.197   2.238   7.906  0.2803  1.5072 -0.0592
  876MOL0     O18149   6.110   2.312   7.992  0.2132  0.4132 -0.1929
  876MOL0     C18150   6.014   2.397   7.937  0.9144  0.1289  0.3438
  876MOL0     C18151   5.998   2.428   7.803  0.6983  0.4861 -0.3045
  876MOL0     C18152   5.909   2.524   7.764  1.1031 -0.7663 -0.0717
  876MOL0     C18153   5.804   2.576   7.857  0.0637 -0.5315 -0.0179
  876MOL0     C18154   5.693   2.664   7.829  0.6024 -0.0325 -0.0292
  876MOL0     O18155   5.705   2.726   7.710  0.1132 -0.3458 -0.1227
  876MOL0     C18156   5.623   2.832   7.664  1.2630  0.0582  0.3299
  876MOL0     C18157   5.539   2.916   7.736 -0.1367  0.4486 -0.3135
  876MOL0     C18158   5.448   3.008   7.670 -0.4577  0.2513 -0.6152
  876MOL0     C18159   5.442   3.023   7.533 -0.0245  0.2160  0.1606
  876MOL0     O18160   5.358   3.122   7.474  0.3242  0.7073  0.8988
  876MOL0     C18161   5.340   3.238   7.549  0.0399  0.7675  0.6200
  876MOL0     C18162   5.281   3.348   7.456  0.1391  0.2959 -0.9788
  876MOL0     C18163   5.226   3.457   7.542  0.4203 -0.1392 -0.2433
  876MOL0     C18164   5.084   3.494   7.510 -0.2095 -0.1766  0.2793
  876MOL0     C18165   4.985   3.384   7.550 -0.3926 -0.5688  0.0234
  876MOL0     C18166   4.844   3.432   7.573  0.3534 -0.9480 -0.1045
  876MOL0     C18167   4.755   3.299   7.567 -0.2431  0.0173  0.0426
  876MOL0     C18168   4.683   3.280   7.438 -0.1418 -1.0260  0.4525
  876MOL0    Cl18169   4.601   3.127   7.451  0.0102 -0.1681 -0.1041
  876MOL0     C18170   5.523   2.937   7.465  0.6319  0.5293  0.2820
  876MOL0     C18171   5.608   2.840   7.532 -0.1456  0.0140  0.0893
  876MOL0     O18172   5.607   2.668   7.913 -0.5915 -0.5392  0.5811
  876MOL0     C18173   5.827   2.535   7.991 -0.0876 -0.1830  0.3804
  876MOL0     C18174   5.933   2.457   8.030  0.5332 -0.1508  0.2655
  876MOL0     N18175   6.325   1.758   7.693  0.3306  0.0594  0.6010
  876MOL0     N18176   6.398   1.647   7.694  0.5181  0.4886  0.5653
  876MOL0     C18177   6.948   0.734   8.380 -0.2481  0.2960  0.4435
  876MOL0     C18178   7.016   0.608   8.376  0.1447  0.5397 -0.1709
  876MOL0     C18179   7.332   0.297   8.205  0.2650 -0.8637  0.5863
  876MOL0     C18180   7.244   0.186   8.238  0.1100 -0.4907  0.3829
  876MOL0     C18181   7.272   0.054   8.204  0.6757 -0.3583 -0.6782
  876MOL0     C18182   7.384   0.025   8.130  0.0518  0.7712  1.0776
  876MOL0     O18183   7.400  -0.105   8.094  0.0913  1.4412  0.6281
  876MOL0     C18184   7.518  -0.143   8.009 -0.4059  0.7800 -0.4679
  876MOL0     C18185   7.518  -0.295   7.992  0.2866 -0.2904  0.5534
  876MOL0     C18186   7.556  -0.356   8.124 -0.6510 -0.5875  1.0423
  876MOL0     C18187   7.601  -0.504   8.122 -0.3291  0.7078 -1.0727
  876MOL0     C18188   7.718  -0.527   8.027 -0.1663 -0.5435  0.0232
  876MOL0     C18189   7.824  -0.552   7.984  0.5167  0.4627 -0.3686
  876MOL0     C18190   7.476   0.137   8.095 -0.0482  0.3653 -0.1410
  876MOL0     C18191   7.442   0.266   8.124 -0.5554 -0.7478 -0.4605
  876MOL0     C18192   7.548   0.367   8.094 -0.6248  0.1746 -0.7364
  876MOL0     H18193   7.138   0.603   8.067  1.2067 -2.8863  0.9963
  876MOL0     H18194   7.018   0.836   8.066  1.0656 -0.4849 -1.1260
  876MOL0     H18195   6.742   0.967   8.408  1.4344  0.2678  1.2614
  876MOL0     H18196   6.907   0.993   8.465  0.5419  0.2946 -0.3910
  876MOL0     H18197   6.935   1.181   8.359  1.2730 -1.8004 -1.0462
  876MOL0     H18198   6.790   1.197   8.467  3.7184  1.6814 -0.1260
  876MOL0     H18199   6.657   1.157   8.231 -0.5458  1.3139  0.1173
  876MOL0     H18200   6.805   1.200   8.153 -0.9542  2.2793 -0.8322
  876MOL0     H18201   6.662   1.375   8.341 -0.9250 -1.4273  0.1105
  876MOL0     H18202   6.820   1.402   8.275  0.7556 -2.1801 -0.9583
  876MOL0     H18203   6.557   1.339   8.116 -0.2558 -0.8065  2.5631
  876MOL0     H18204   6.612   1.504   8.152  0.0618  0.3680 -0.2273
  876MOL0     H18205   6.828   1.443   8.009  0.4951 -3.0535  2.9022
  876MOL0     H18206   6.719   1.312   7.943  0.2306  0.2046 -0.8327
  876MOL0     H18207   6.717   1.547   7.810 -1.6749  0.4262 -1.1970
  876MOL0     H18208   6.675   1.626   7.947  2.1885  0.2656 -0.1334
  876MOL0     H18209   6.511   1.429   7.791  2.6414 -0.2294 -0.5349
  876MOL0     H18210   6.467   1.481   7.955  0.1978  0.0015  0.6611
  876MOL0     H18211   6.476   1.776   7.978  0.0195 -0.9052 -0.4475
  876MOL0     H18212   6.241   1.930   7.966 -3.1012 -2.3342 -1.6915
  876MOL0     H18213   6.379   2.028   7.891 -0.1592  0.4629 -0.6105
  876MOL0     H18214   6.272   2.073   7.701 -2.9950  3.5319 -1.7545
  876MOL0     H18215   6.144   1.950   7.724 -0.5438  1.1657 -0.6275
  876MOL0     H18216   6.055   2.078   7.914  1.3829 -1.3402  1.1490
  876MOL0     H18217   6.054   2.176   7.762  2.5009  1.9582 -2.2419
  876MOL0     H18218   6.228   2.301   7.822 -1.9266 -0.3555 -2.4322
  876MOL0     H18219   6.279   2.192   7.961 -0.3841 -0.7317 -0.8440
  876MOL0     H18220   6.049   2.365   7.731 -1.3930 -3.0301  1.0292
  876MOL0     H18221   5.901   2.562   7.663 -0.9982  2.6976  1.2262
  876MOL0     H18222   5.554   2.914   7.844 -1.6793 -1.4528 -0.0799
  876MOL0     H18223   5.382   3.064   7.736 -0.2761 -1.1558  0.8264
  876MOL0     H18224   5.281   3.213   7.638  0.0503 -1.1659  0.1166
  876MOL0     H18225   5.438   3.277   7.578 -0.2556  1.4634  0.7175
  876MOL0     H18226   5.365   3.376   7.392  0.6987  1.6123  0.2614
  876MOL0     H18227   5.199   3.310   7.395 -1.7668 -1.8331  2.5371
  876MOL0     H18228   5.233   3.432   7.648  0.9311  1.7095  0.1987
  876MOL0     H18229   5.281   3.548   7.516  2.4247 -0.6891  1.8202
  876MOL0     H18230   5.082   3.520   7.404  4.1839  2.3812  0.6071
  876MOL0     H18231   5.060   3.588   7.562  1.9159 -0.2943  1.5916
  876MOL0     H18232   5.033   3.329   7.631  0.7633 -0.8026 -0.7819
  876MOL0     H18233   4.980   3.317   7.464  1.5531  1.3572 -1.7036
  876MOL0     H18234   4.835   3.478   7.672 -1.8611 -2.9293  0.7301
  876MOL0     H18235   4.809   3.514   7.510 -1.3764 -1.4347  0.1572
  876MOL0     H18236   4.682   3.313   7.648 -0.9538  0.8490 -0.7280
  876MOL0     H18237   4.794   3.204   7.605 -2.1867 -1.1546 -0.7535
  876MOL0     H18238   4.617   3.364   7.416 -0.6872 -1.8910 -1.4314
  876MOL0     H18239   4.760   3.274   7.360 -0.4525 -0.0856  0.0665
  876MOL0     H18240   5.523   2.960   7.359  2.5486  0.4520  0.2346
  876MOL0     H18241   5.659   2.771   7.465  1.1884 -2.1960  3.1564
  876MOL0     H18242   5.760   2.570   8.069 -1.5281 -1.4191 -0.2665
  876MOL0     H18243   5.943   2.448   8.138 -2.7296 -0.2147  0.6538
  876MOL0     H18244   6.884   0.763   8.463 -2.9571 -1.4107 -0.8884
  876MOL0     H18245   7.003   0.545   8.464 -4.2434  0.1477 -0.9010
  876MOL0     H18246   7.150   0.200   8.290 -1.3762 -1.6169 -1.8278
  876MOL0     H18247   7.201  -0.022   8.237  1.4993 -0.8569 -0.0312
  876MOL0     H18248   7.609  -0.109   8.059  0.4928 -0.4062 -1.2242
  876MOL0     H18249   7.522  -0.090   7.914 -0.4401  1.6134 -0.0108
  876MOL0     H18250   7.597  -0.304   7.917 -0.7450  1.4955 -0.8289
  876MOL0     H18251   7.423  -0.333   7.952  0.7540  0.8259 -1.8089
  876MOL0     H18252   7.464  -0.340   8.180  0.8949  0.5683  3.4493
  876MOL0     H18253   7.631  -0.294   8.176  0.3245  0.8290 -1.8422
  876MOL0     H18254   7.624  -0.549   8.218  0.4883 -0.9786 -2.0086
  876MOL0     H18255   7.505  -0.552   8.099  0.4538 -1.8858  0.6653
  876MOL0     H18256   7.930  -0.562   7.969  0.1511 -0.4607 -2.7792
  876MOL0     H18257   7.567   0.111   8.042  0.8512  3.9943 -0.6662
  876MOL0     H18258   7.636   0.315   8.053 -0.1542  0.7498 -0.4722
  876MOL0     H18259   7.519   0.446   8.025  0.2252 -0.1903 -1.5410
  876MOL0     H18260   7.579   0.408   8.191 -0.9504 -3.0635  0.8963
  877MOL0     O18261   1.316   0.602   6.408 -0.6784 -0.2605 -0.2295
  877MOL0     C18262   1.293   0.699   6.343  0.1506  0.1262  0.5875
  877MOL0     O18263   1.376   0.748   6.250 -0.2380  0.3475  0.1655
  877MOL0     C18264   1.511   0.716   6.261  0.7099  1.0135 -0.9683
  877MOL0     C18265   1.570   0.607   6.195 -0.1896 -0.1721  1.3824
  877MOL0     C18266   1.701   0.572   6.229 -0.6612  0.5113  0.2703
  877MOL0     C18267   1.771   0.639   6.323 -0.2103  0.4598 -0.0878
  877MOL0     O18268   1.894   0.611   6.364 -0.2373  0.4403  0.1128
  877MOL0     C18269   1.964   0.487   6.323  0.9590 -0.2309 -0.9778
  877MOL0     C18270   2.114   0.489   6.340 -0.6042  0.1284 -0.4955
  877MOL0     C18271   2.174   0.604   6.265  0.5311  0.1551  0.0290
  877MOL0     C18272   2.332   0.618   6.277 -0.2082 -0.5237 -0.3546
  877MOL0     C18273   2.367   0.745   6.359 -0.2546 -0.0162  0.9919
  877MOL0     C18274   2.515   0.753   6.395  0.0371  0.1032  0.1792
  877MOL0     C18275   2.624   0.751   6.285  0.1798 -0.8479  0.4678
  877MOL0     C18276   2.768   0.703   6.320  0.4320  1.1570 -0.1898
  877MOL0     N18277   2.827   0.791   6.418  0.6991 -0.1176 -0.4474
  877MOL0     C18278   2.881   0.911   6.402 -0.0036 -0.0413 -0.6719
  877MOL0     C18279   2.910   0.956   6.526  0.4638  0.0009 -0.0589
  877MOL0     C18280   2.951   1.099   6.550  0.0137 -0.7447 -0.1615
  877MOL0     C18281   3.098   1.121   6.583  0.6077 -0.0103 -0.0310
  877MOL0     C18282   3.169   1.002   6.657 -0.0046 -0.1008  0.4817
  877MOL0     C18283   3.298   1.046   6.717 -0.8975  0.1664 -0.4908
  877MOL0     O18284   3.393   1.073   6.613  0.5016 -0.2085  0.6553
  877MOL0     C18285   3.491   1.152   6.654  0.4289 -0.3826 -0.7485
  877MOL0     C18286   3.613   1.087   6.671  0.9395 -0.4806 -0.2668
  877MOL0     C18287   3.728   1.154   6.721 -0.2114  0.6066  0.0487
  877MOL0     C18288   3.720   1.289   6.759 -0.1008  1.0393 -0.4603
  877MOL0     C18289   3.845   1.343   6.833  0.3592  0.6372  0.2612
  877MOL0     O18290   3.955   1.266   6.822  0.1863  0.7433 -0.5909
  877MOL0     C18291   4.046   1.295   6.919  0.4975 -0.6790 -0.0609
  877MOL0     C18292   4.041   1.227   7.042 -0.1445  0.1533  1.0452
  877MOL0     C18293   4.156   1.213   7.122 -0.4128 -0.6327  0.1592
  877MOL0     C18294   4.277   1.284   7.085 -0.4789 -0.6285  0.5868
  877MOL0     O18295   4.379   1.281   7.177 -0.1977 -0.0798 -0.1858
  877MOL0     C18296   4.430   1.409   7.230  0.7712 -0.0467 -0.3547
  877MOL0     C18297   4.550   1.399   7.330  0.3439 -0.5067  0.0532
  877MOL0     C18298   4.659   1.319   7.259  0.5045 -0.1494  0.5115
  877MOL0     C18299   4.775   1.317   7.349  0.3927  0.7563 -0.2211
  877MOL0     C18300   4.886   1.237   7.285 -0.2305 -0.0929 -0.2826
  877MOL0     C18301   5.019   1.266   7.349 -0.8421  0.5835  0.3322
  877MOL0     C18302   5.133   1.165   7.321  0.3209 -0.5351  0.3709
  877MOL0     C18303   5.263   1.223   7.354 -0.1089  0.5807  0.2785
  877MOL0    Cl18304   5.405   1.137   7.316 -0.0242  0.2987 -0.1850
  877MOL0     C18305   4.273   1.378   6.978 -0.1938 -0.2725  0.5423
  877MOL0     C18306   4.163   1.372   6.892  0.7604  0.7784  0.2610
  877MOL0     O18307   3.833   1.454   6.889 -0.4736 -0.3638  0.5827
  877MOL0     C18308   3.597   1.350   6.745 -0.8061  0.3047  0.9058
  877MOL0     C18309   3.481   1.283   6.700  0.4596  0.1526  0.3504
  877MOL0     N18310   2.857   0.868   6.618  0.5012  0.6352  0.0796
  877MOL0     N18311   2.826   0.764   6.553 -0.7462 -0.0015  0.1115
  877MOL0     C18312   1.716   0.757   6.380  0.0869  0.5462  0.0339
  877MOL0     C18313   1.583   0.795   6.344  0.0166 -0.5170 -0.5447
  877MOL0     C18314   1.148   0.753   6.346 -0.0167 -0.9166 -0.0497
  877MOL0     C18315   1.106   0.815   6.231  0.7627  0.2149 -0.0112
  877MOL0     C18316   0.977   0.853   6.196  0.0335  0.2621  0.1754
  877MOL0     C18317   0.886   0.835   6.296 -0.1580  0.4088 -0.2921
  877MOL0     O18318   0.747   0.874   6.285 -0.3395 -0.2812  0.8652
  877MOL0     C18319   0.691   0.945   6.167 -0.2206  1.0158 -0.0925
  877MOL0     C18320   0.542   0.959   6.196  1.1995 -0.4469 -0.4983
  877MOL0     C18321   0.516   1.071   6.298 -0.6049  1.0383 -0.4399
  877MOL0     C18322   0.387   1.055   6.371 -0.6679  0.3005 -0.3366
  877MOL0     C18323   0.278   1.064   6.269 -0.5751  0.8596 -0.3386
  877MOL0     C18324   0.206   1.073   6.173  1.3295  0.4458 -0.6530
  877MOL0     C18325   0.923   0.776   6.423  0.2450  0.4341  0.2055
  877MOL0     C18326   1.056   0.737   6.445 -0.2697 -0.0816 -0.5644
  877MOL0     C18327   1.101   0.689   6.578  0.3938  0.0976  0.3735
  877MOL0     H18328   1.501   0.550   6.135  1.6052 -1.7388  0.7004
  877MOL0     H18329   1.728   0.483   6.174 -2.8437  0.4215 -0.8020
  877MOL0     H18330   1.921   0.405   6.381  0.1278 -0.1284 -1.4232
  877MOL0     H18331   1.941   0.464   6.218 -1.7512 -0.8221 -0.3288
  877MOL0     H18332   2.151   0.391   6.308  0.5660  0.6042 -0.6126
  877MOL0     H18333   2.144   0.499   6.444 -2.9551  1.0690  0.1522
  877MOL0     H18334   2.131   0.703   6.281  1.2187  0.7230 -1.4343
  877MOL0     H18335   2.151   0.588   6.159  1.3951 -2.6955  0.1761
  877MOL0     H18336   2.375   0.530   6.326 -0.7955  0.1239  1.3987
  877MOL0     H18337   2.365   0.620   6.172  1.7498 -3.9668  0.0493
  877MOL0     H18338   2.341   0.834   6.300 -0.9809 -1.0595 -0.3257
  877MOL0     H18339   2.305   0.741   6.449 -0.5745  2.0125  0.9192
  877MOL0     H18340   2.528   0.840   6.461  0.1347 -0.0617  0.3817
  877MOL0     H18341   2.550   0.663   6.446  0.4788 -1.9013 -3.3653
  877MOL0     H18342   2.638   0.850   6.241 -0.4010 -1.6316 -1.5682
  877MOL0     H18343   2.591   0.684   6.206 -0.1404  0.2871 -0.3760
  877MOL0     H18344   2.754   0.607   6.371  1.6550  1.6614  1.1935
  877MOL0     H18345   2.835   0.685   6.236  1.0228 -1.8148  0.7812
  877MOL0     H18346   2.896   0.962   6.307  0.3878 -0.2759 -0.7394
  877MOL0     H18347   2.911   1.171   6.478  0.4644  1.3937  1.6036
  877MOL0     H18348   2.891   1.130   6.637 -0.2287 -0.6523 -0.3586
  877MOL0     H18349   3.161   1.128   6.495 -2.7725 -2.2027 -2.8851
  877MOL0     H18350   3.093   1.212   6.644 -1.7145 -0.1994  0.1620
  877MOL0     H18351   3.181   0.912   6.596 -1.1914 -2.1250  3.0420
  877MOL0     H18352   3.100   0.987   6.740 -0.5267  2.4316  0.6016
  877MOL0     H18353   3.332   0.959   6.773 -2.2859  0.1852  0.4202
  877MOL0     H18354   3.272   1.127   6.786 -2.2631 -1.6976  1.2813
  877MOL0     H18355   3.607   0.986   6.632 -1.5075  0.1533 -1.7676
  877MOL0     H18356   3.823   1.101   6.731  0.0893  1.5980  4.4641
  877MOL0     H18357   3.957   1.170   7.080 -1.9733  0.3444 -2.3206
  877MOL0     H18358   4.155   1.160   7.217  2.7492 -0.5866  0.3208
  877MOL0     H18359   4.469   1.475   7.152 -0.7734 -2.1089 -3.0207
  877MOL0     H18360   4.342   1.453   7.279 -0.9294 -3.0530 -0.4564
  877MOL0     H18361   4.582   1.501   7.353 -1.6071  1.5569 -5.0233
  877MOL0     H18362   4.510   1.352   7.421 -2.8535  2.5849  0.4987
  877MOL0     H18363   4.621   1.224   7.219  1.8918 -1.3164  1.8290
  877MOL0     H18364   4.689   1.386   7.178 -0.3600 -0.2192  0.1267
  877MOL0     H18365   4.742   1.268   7.441 -0.0955  0.2442 -0.6592
  877MOL0     H18366   4.816   1.412   7.385 -1.4116  1.1587  0.9593
  877MOL0     H18367   4.904   1.265   7.181  2.8723  1.2741  0.4980
  877MOL0     H18368   4.854   1.132   7.285 -0.0136 -0.1655 -0.9194
  877MOL0     H18369   5.053   1.368   7.329 -1.2469  0.2414 -2.5092
  877MOL0     H18370   4.993   1.259   7.455 -2.3496  0.6738 -0.0070
  877MOL0     H18371   5.131   1.157   7.212 -0.4602  0.7417  0.2688
  877MOL0     H18372   5.106   1.071   7.370  2.4085 -0.5881  1.5227
  877MOL0     H18373   5.275   1.321   7.308  0.4295  0.8231  0.9066
  877MOL0     H18374   5.267   1.233   7.463  2.0952 -0.2640  0.3319
  877MOL0     H18375   4.354   1.447   6.956 -1.1020  1.1363  1.4672
  877MOL0     H18376   4.163   1.421   6.796  0.8818  0.3843  0.0557
  877MOL0     H18377   3.588   1.454   6.775  0.0942  0.8439 -0.5691
  877MOL0     H18378   3.385   1.332   6.687  0.3859 -0.4396 -1.8450
  877MOL0     H18379   1.773   0.832   6.434 -0.2436  1.3530 -0.6986
  877MOL0     H18380   1.539   0.887   6.383 -0.6234 -0.4838 -1.3198
  877MOL0     H18381   1.170   0.805   6.143 -1.9950  1.2068 -2.2818
  877MOL0     H18382   0.953   0.887   6.096  1.6526  0.2587 -0.2437
  877MOL0     H18383   0.719   0.901   6.071  1.1858 -0.3448  0.9070
  877MOL0     H18384   0.736   1.045   6.162 -1.9156  1.8292 -5.6331
  877MOL0     H18385   0.493   0.865   6.223 -1.5436  0.5148 -1.7120
  877MOL0     H18386   0.489   0.990   6.106 -0.0450  0.4456  0.4984
  877MOL0     H18387   0.510   1.166   6.244 -0.5843  1.9240  1.0466
  877MOL0     H18388   0.600   1.069   6.368 -1.5195  2.8282  0.8201
  877MOL0     H18389   0.394   0.959   6.423  3.8750  1.5383  1.8252
  877MOL0     H18390   0.374   1.143   6.436 -1.6242  1.0919 -1.5487
  877MOL0     H18391   0.144   1.067   6.086  1.4669 -0.1486 -0.7128
  877MOL0     H18392   0.840   0.758   6.491 -1.1171  1.4599 -1.1334
  877MOL0     H18393   1.195   0.731   6.613  1.9090 -0.0745 -3.0667
  877MOL0     H18394   1.029   0.715   6.656  3.6438  2.9305  2.7381
  877MOL0     H18395   1.123   0.582   6.588 -1.7217 -0.1783  4.2667
  878MOL0     O18396   9.421   2.134  10.038  0.0468 -0.0551 -0.8683
  878MOL0     C18397   9.420   2.231   9.963  0.2156  0.0703  0.9571
  878MOL0     O18398   9.416   2.226   9.825  0.0228  0.4367 -0.2300
  878MOL0     C18399   9.419   2.103   9.760  0.4039  0.3079  0.1058
  878MOL0     C18400   9.316   2.012   9.771  0.0964  0.1817  0.6169
  878MOL0     C18401   9.326   1.886   9.699  0.1331 -0.6064 -0.2715
  878MOL0     C18402   9.439   1.860   9.624  0.7483 -0.0614  1.6156
  878MOL0     O18403   9.464   1.746   9.551 -0.0846  0.6494  0.1201
  878MOL0     C18404   9.380   1.639   9.560 -0.0741  0.4751 -0.1301
  878MOL0     C18405   9.405   1.534   9.454  0.4018  0.4486  0.4148
  878MOL0     C18406   9.557   1.511   9.427 -0.8830  0.4645  0.7611
  878MOL0     C18407   9.633   1.619   9.340  0.1052  0.5342 -1.1860
  878MOL0     C18408   9.792   1.588   9.364  0.0803 -0.5471  0.2262
  878MOL0     C18409   9.893   1.702   9.311  1.0392  0.4998  0.0266
  878MOL0     C18410   9.918   1.719   9.158 -1.0219 -0.7676 -0.5195
  878MOL0     C18411   9.987   1.851   9.121 -0.2856  0.7073 -0.5701
  878MOL0     N18412   9.973   1.873   8.971 -0.3345 -0.4881  0.6201
  878MOL0     C18413  10.052   1.817   8.872 -0.8206 -0.2439  0.2720
  878MOL0     C18414  10.024   1.886   8.755 -0.0885  1.0868  0.3793
  878MOL0     C18415  10.078   1.883   8.619  0.0999  0.0345 -0.3995
  878MOL0     C18416  10.230   1.865   8.622 -0.8572 -0.4211 -0.2193
  878MOL0     C18417  10.283   1.838   8.479 -1.0025 -0.5388  0.3969
  878MOL0     C18418  10.437   1.818   8.483  0.5851  0.3665  1.0825
  878MOL0     O18419  10.466   1.712   8.571 -0.8149  0.4072 -1.1004
  878MOL0     C18420  10.600   1.693   8.605  0.2660  0.4583  0.0978
  878MOL0     C18421  10.623   1.604   8.709  0.0816 -0.2248 -0.1754
  878MOL0     C18422  10.751   1.565   8.754 -0.8878  0.6762 -0.0424
  878MOL0     C18423  10.862   1.615   8.680 -0.1379 -0.2742  0.0763
  878MOL0     C18424  11.001   1.569   8.697  0.2296  1.0866 -0.2764
  878MOL0     O18425  11.104   1.650   8.643 -0.1541  0.2713  0.0345
  878MOL0     C18426  11.232   1.602   8.648  1.1035  0.4964  0.5590
  878MOL0     C18427  11.288   1.564   8.530 -0.6506 -0.3690 -0.1719
  878MOL0     C18428  11.415   1.508   8.533 -0.5146 -0.4483 -0.1875
  878MOL0     C18429  11.490   1.498   8.657 -0.0969 -0.8652 -0.2113
  878MOL0     O18430  11.625   1.456   8.638  0.0795 -0.2192 -0.0370
  878MOL0     C18431  11.673   1.363   8.745  0.3216 -0.6728  0.2161
  878MOL0     C18432  11.785   1.274   8.691 -0.2857 -0.0415  0.4278
  878MOL0     C18433  11.880   1.361   8.592 -0.0406  0.1934 -0.3970
  878MOL0     C18434  12.020   1.308   8.601  0.1135 -0.3026  0.0476
  878MOL0     C18435  12.133   1.385   8.534 -0.3776  0.7518 -0.5751
  878MOL0     C18436  12.266   1.372   8.607 -0.1463 -0.0939  0.2912
  878MOL0     C18437  12.382   1.461   8.545 -0.0607 -0.0328  0.0250
  878MOL0     C18438  12.520   1.422   8.584  0.2188  0.9689  0.0984
  878MOL0    Cl18439  12.539   1.386   8.761  0.1773  0.2764  0.4887
  878MOL0     C18440  11.436   1.557   8.771  0.3207  0.0481 -0.1750
  878MOL0     C18441  11.306   1.609   8.766 -0.0037  0.1195 -0.0620
  878MOL0     O18442  11.015   1.471   8.774 -0.5365 -0.2695  0.1648
  878MOL0     C18443  10.835   1.701   8.563 -0.0375 -0.4237 -0.2482
  878MOL0     C18444  10.709   1.739   8.532  0.2176 -0.0219  0.1912
  878MOL0     N18445   9.923   1.965   8.793 -0.6009  0.1226  0.4227
  878MOL0     N18446   9.885   1.952   8.908 -0.4088  0.2599 -0.9195
  878MOL0     C18447   9.534   1.958   9.609  0.2006  0.1484  0.1751
  878MOL0     C18448   9.529   2.072   9.694 -0.4592 -0.1819  0.5711
  878MOL0     C18449   9.404   2.369  10.028 -0.3331  0.2989 -0.0500
  878MOL0     C18450   9.370   2.476   9.941  0.5571  0.5290 -0.5641
  878MOL0     C18451   9.373   2.607   9.988 -0.1998 -0.5089 -0.0820
  878MOL0     C18452   9.396   2.631  10.117 -0.7009 -0.2097 -0.9800
  878MOL0     O18453   9.408   2.770  10.150 -0.8613  0.4597 -0.0900
  878MOL0     C18454   9.524   2.804  10.228  0.2448 -0.3037  0.2275
  878MOL0     C18455   9.649   2.795  10.143  0.0292  0.9278  0.8895
  878MOL0     C18456   9.755   2.879  10.213  0.3367 -0.9541 -0.1907
  878MOL0     C18457   9.886   2.862  10.135 -0.8252  0.3033 -0.3921
  878MOL0     C18458   9.873   2.899   9.996  0.7204 -0.6110  0.6101
  878MOL0     C18459   9.850   2.923   9.879 -0.6302 -0.6680  0.5935
  878MOL0     C18460   9.411   2.526  10.206 -0.2195 -1.0763  0.2840
  878MOL0     C18461   9.417   2.398  10.166 -1.0741  0.0620 -0.2862
  878MOL0     C18462   9.451   2.299  10.275 -0.4833  0.1608  0.1826
  878MOL0     H18463   9.225   2.042   9.822  0.8939  0.3619  1.9836
  878MOL0     H18464   9.247   1.811   9.702 -0.6771  0.1931 -1.1720
  878MOL0     H18465   9.396   1.596   9.659 -2.9734  1.5067  0.9097
  878MOL0     H18466   9.277   1.677   9.561 -1.0909 -1.9035 -2.2440
  878MOL0     H18467   9.360   1.562   9.358 -0.1454 -0.9609  0.2433
  878MOL0     H18468   9.354   1.441   9.481 -0.2780  1.1672  1.7427
  878MOL0     H18469   9.576   1.415   9.378  0.5110 -0.0091  2.1282
  878MOL0     H18470   9.600   1.500   9.527 -1.8879  0.6014  1.2205
  878MOL0     H18471   9.605   1.620   9.235 -0.4515  2.2623 -1.0565
  878MOL0     H18472   9.622   1.720   9.382  0.9277 -0.5628  2.0065
  878MOL0     H18473   9.809   1.586   9.472 -0.5376 -1.3069  0.3121
  878MOL0     H18474   9.813   1.491   9.319 -0.5707 -0.6762  0.1885
  878MOL0     H18475   9.858   1.802   9.341 -1.0518  0.5890 -2.3668
  878MOL0     H18476   9.987   1.684   9.363 -0.0998 -0.7619  1.7398
  878MOL0     H18477   9.825   1.702   9.103 -0.7837 -3.9572 -0.1251
  878MOL0     H18478   9.993   1.645   9.130  0.4699  0.8587 -1.0226
  878MOL0     H18479   9.921   1.924   9.167 -1.9655 -1.9223  1.4896
  878MOL0     H18480  10.094   1.854   9.143  0.0366  2.1721 -2.0656
  878MOL0     H18481  10.126   1.740   8.889 -1.4133 -0.8611  0.0983
  878MOL0     H18482  10.025   1.797   8.577  3.5500 -1.8636 -1.2308
  878MOL0     H18483  10.044   1.976   8.570  0.0010 -0.0348 -0.4635
  878MOL0     H18484  10.279   1.953   8.665 -0.3859 -0.5734 -0.4421
  878MOL0     H18485  10.252   1.776   8.681  0.2062  1.0911  1.8136
  878MOL0     H18486  10.266   1.921   8.409 -0.7048  0.7385  1.7715
  878MOL0     H18487  10.235   1.747   8.442 -0.9063 -0.3015 -0.3427
  878MOL0     H18488  10.487   1.910   8.515 -2.2371  1.0364  4.0545
  878MOL0     H18489  10.469   1.783   8.385 -2.0640 -0.8949  0.5764
  878MOL0     H18490  10.533   1.555   8.745 -0.5337  0.6090 -0.5380
  878MOL0     H18491  10.764   1.498   8.839 -1.9347 -0.1564 -0.5247
  878MOL0     H18492  11.228   1.564   8.439  0.5357 -0.3261 -0.9670
  878MOL0     H18493  11.470   1.479   8.444 -2.6900  2.4375 -2.6887
  878MOL0     H18494  11.719   1.433   8.815 -1.3112  1.9777 -1.1447
  878MOL0     H18495  11.590   1.310   8.792  1.0337 -1.7350  0.2953
  878MOL0     H18496  11.845   1.239   8.775  1.1745  1.8736  0.2457
  878MOL0     H18497  11.745   1.198   8.623 -0.4487  1.4695 -1.2766
  878MOL0     H18498  11.856   1.362   8.485 -0.8792 -0.6646 -0.2254
  878MOL0     H18499  11.873   1.459   8.640  0.0334  0.4773 -0.9527
  878MOL0     H18500  12.021   1.205   8.567 -1.3113  0.1654 -1.5432
  878MOL0     H18501  12.044   1.302   8.708 -0.5959  0.4062  0.2616
  878MOL0     H18502  12.118   1.493   8.527  1.2974  0.9658 -1.4929
  878MOL0     H18503  12.155   1.356   8.431  2.4138  0.9404 -0.1053
  878MOL0     H18504  12.230   1.400   8.707  1.2379  0.1438  0.7475
  878MOL0     H18505  12.294   1.266   8.601 -1.7022 -0.4557 -1.8289
  878MOL0     H18506  12.373   1.568   8.566  4.0429  0.7939 -1.4801
  878MOL0     H18507  12.386   1.437   8.439 -0.4008  0.0645 -0.0132
  878MOL0     H18508  12.542   1.330   8.529 -3.9098 -0.9708  1.3047
  878MOL0     H18509  12.592   1.497   8.551  4.3390 -3.2523 -1.6683
  878MOL0     H18510  11.494   1.561   8.863  0.4536  0.4063 -0.2741
  878MOL0     H18511  11.252   1.643   8.854  2.3408  0.2179  1.4250
  878MOL0     H18512  10.926   1.735   8.516  0.5975 -0.5076  0.8855
  878MOL0     H18513  10.694   1.796   8.440  0.6281 -1.0781 -0.5538
  878MOL0     H18514   9.630   1.934   9.565  0.5826  1.5496  0.1844
  878MOL0     H18515   9.615   2.137   9.701 -0.5277 -0.2716  2.6681
  878MOL0     H18516   9.363   2.460   9.833  1.9532  3.3094 -1.1574
  878MOL0     H18517   9.358   2.685   9.914 -2.3270 -2.6176 -2.0725
  878MOL0     H18518   9.537   2.751  10.323 -1.4498 -2.9948 -0.9257
  878MOL0     H18519   9.502   2.909  10.253  0.2482 -0.7371  2.2357
  878MOL0     H18520   9.637   2.831  10.040  0.3716 -1.2504  0.0373
  878MOL0     H18521   9.679   2.691  10.124  3.4948  2.1277 -1.0158
  878MOL0     H18522   9.755   2.850  10.319 -1.0747 -1.4041 -0.2904
  878MOL0     H18523   9.716   2.981  10.220 -0.7931 -1.3562 -0.3940
  878MOL0     H18524   9.967   2.921  10.177  0.0127 -1.4048  0.5137
  878MOL0     H18525   9.921   2.758  10.135 -0.5045  0.3249 -3.1106
  878MOL0     H18526   9.846   2.926   9.772  0.3749  0.8917  0.5760
  878MOL0     H18527   9.432   2.573  10.301  0.1691  1.1493 -0.8284
  878MOL0     H18528   9.458   2.342  10.376 -1.2774  0.4543  0.1234
  878MOL0     H18529   9.383   2.213  10.285  1.2377 -1.1483  1.1106
  878MOL0     H18530   9.549   2.255  10.258 -0.9965 -1.4763  1.2121
  879MOL0     O18531  11.164   1.990   1.968  0.4394  0.0645  0.4439
  879MOL0     C18532  11.077   1.920   2.035 -0.1100 -0.4522 -0.7637
  879MOL0     O18533  11.126   1.818   2.116 -0.6357 -0.0060 -0.5338
  879MOL0     C18534  11.251   1.776   2.104 -0.6281  0.1024  0.0024
  879MOL0     C18535  11.335   1.826   2.206 -0.0105  0.2440 -0.1571
  879MOL0     C18536  11.462   1.781   2.216 -0.3251  1.3725 -0.5375
  879MOL0     C18537  11.515   1.674   2.136 -0.4676 -0.4694  0.2092
  879MOL0     O18538  11.649   1.640   2.142  0.1035 -0.3929  0.1747
  879MOL0     C18539  11.748   1.751   2.177 -0.0890  0.0669 -0.1359
  879MOL0     C18540  11.821   1.688   2.303 -0.2909 -0.5071 -0.0273
  879MOL0     C18541  11.890   1.810   2.369  0.2074 -0.0188  0.4822
  879MOL0     C18542  11.959   1.777   2.500  0.3228  0.7478  0.2504
  879MOL0     C18543  12.083   1.691   2.486  0.3948  0.1488  0.3668
  879MOL0     C18544  12.163   1.665   2.613 -0.4846 -0.5466  0.3326
  879MOL0     C18545  12.296   1.593   2.607  0.2946  0.4076 -0.0927
  879MOL0     C18546  12.361   1.592   2.746 -0.6673  1.1806  0.1062
  879MOL0     N18547  12.431   1.715   2.774 -0.2269  0.7074  0.2302
  879MOL0     C18548  12.402   1.807   2.876  0.8660 -0.2299 -0.4976
  879MOL0     C18549  12.496   1.906   2.869 -0.1191  0.1630  1.0330
  879MOL0     C18550  12.517   2.014   2.974  0.3340 -0.4594  0.6225
  879MOL0     C18551  12.576   1.956   3.102  0.1298 -0.1323  0.1401
  879MOL0     C18552  12.596   2.065   3.211 -0.0576  0.4739  0.4110
  879MOL0     C18553  12.663   2.006   3.335  0.1561 -1.0741  0.7053
  879MOL0     O18554  12.811   1.993   3.315 -0.6194  0.3639 -0.0461
  879MOL0     C18555  12.886   2.103   3.348  0.0615 -0.0617 -0.8935
  879MOL0     C18556  13.020   2.070   3.356 -0.1828 -0.2771  0.9041
  879MOL0     C18557  13.115   2.169   3.381  0.2348 -0.6427  0.4391
  879MOL0     C18558  13.079   2.300   3.410 -0.6638 -0.0461  0.0932
  879MOL0     C18559  13.176   2.402   3.438  0.9180 -0.4369  0.3458
  879MOL0     O18560  13.302   2.342   3.473 -0.6750 -0.3117 -1.3657
  879MOL0     C18561  13.419   2.411   3.456 -0.4889  0.0966 -0.6851
  879MOL0     C18562  13.528   2.338   3.407  0.2456 -0.4736  0.9059
  879MOL0     C18563  13.644   2.419   3.384  0.1209 -1.4286 -0.7128
  879MOL0     C18564  13.656   2.554   3.428 -0.4085 -0.1212 -0.6281
  879MOL0     O18565  13.783   2.614   3.407  0.0424 -0.7543  0.0989
  879MOL0     C18566  13.795   2.749   3.458  0.1899  1.6656 -0.2696
  879MOL0     C18567  13.940   2.797   3.428 -0.2311 -0.0225 -0.3938
  879MOL0     C18568  14.046   2.706   3.485 -0.1433  0.1354  1.0355
  879MOL0     C18569  14.048   2.729   3.634 -0.0054 -0.5243  0.3460
  879MOL0     C18570  14.185   2.703   3.685 -0.4838 -0.0348 -0.3297
  879MOL0     C18571  14.212   2.753   3.822  0.0331  0.3541 -0.4311
  879MOL0     C18572  14.364   2.764   3.836 -0.0123  0.8825  0.1428
  879MOL0     C18573  14.410   2.780   3.975 -0.3022 -0.2089 -0.4021
  879MOL0    Cl18574  14.393   2.638   4.073 -0.0593  0.2348  0.1814
  879MOL0     C18575  13.537   2.619   3.482  1.0460  0.0319 -0.3133
  879MOL0     C18576  13.426   2.538   3.498 -0.5828  0.5952 -0.4665
  879MOL0     O18577  13.158   2.518   3.397 -0.2146  0.5904  0.5645
  879MOL0     C18578  12.943   2.339   3.392 -0.1836  0.3166 -0.0384
  879MOL0     C18579  12.851   2.237   3.359 -0.0322 -0.4030 -0.2899
  879MOL0     N18580  12.580   1.872   2.763 -0.2015  0.4190  0.5475
  879MOL0     N18581  12.545   1.754   2.707  0.2801 -0.4020  0.1767
  879MOL0     C18582  11.424   1.620   2.042 -0.8875  0.3860 -0.7977
  879MOL0     C18583  11.289   1.667   2.033  0.2557  0.6564 -0.4265
  879MOL0     C18584  10.934   1.942   2.027  0.7645 -0.5707  0.4904
  879MOL0     C18585  10.849   1.862   2.104  0.2833 -0.9123 -0.0494
  879MOL0     C18586  10.719   1.868   2.076  0.8114 -0.4659  0.4769
  879MOL0     C18587  10.660   1.943   1.969 -0.8181 -0.1385  0.0452
  879MOL0     O18588  10.534   1.929   1.935 -0.0816  0.0060 -0.4159
  879MOL0     C18589  10.502   1.810   1.868  0.3852  0.8844 -0.1230
  879MOL0     C18590  10.387   1.847   1.760  0.0212  0.3718  0.2541
  879MOL0     C18591  10.253   1.889   1.831 -0.0237 -0.1647  1.4649
  879MOL0     C18592  10.171   1.990   1.742  0.4849 -0.7248  0.6877
  879MOL0     C18593  10.237   2.128   1.739  0.4327 -0.5174  0.0051
  879MOL0     C18594  10.290   2.240   1.720 -0.6410 -0.2295 -0.3680
  879MOL0     C18595  10.739   2.041   1.905 -0.1806  0.2799 -0.7158
  879MOL0     C18596  10.879   2.044   1.937 -1.1844  1.0062  0.1826
  879MOL0     C18597  10.967   2.149   1.878  0.4588  0.2090  1.3179
  879MOL0     H18598  11.276   1.900   2.259  0.4232  1.4650 -1.3199
  879MOL0     H18599  11.528   1.819   2.293  1.4735 -2.5245  0.0690
  879MOL0     H18600  11.818   1.762   2.094  1.5002  1.7101  1.3584
  879MOL0     H18601  11.711   1.852   2.196 -0.6013 -0.4908  2.1274
  879MOL0     H18602  11.888   1.604   2.282 -0.9282 -0.5987 -1.8931
  879MOL0     H18603  11.745   1.651   2.372  0.4225  0.4696  1.3303
  879MOL0     H18604  11.808   1.882   2.374  0.1405 -0.1802  1.8683
  879MOL0     H18605  11.965   1.860   2.307  1.3123 -1.8833  0.2378
  879MOL0     H18606  11.991   1.869   2.550  1.2651  1.0772 -0.9249
  879MOL0     H18607  11.871   1.735   2.550 -0.8779  1.5595 -1.1022
  879MOL0     H18608  12.050   1.590   2.459 -0.8046 -0.0332  2.3118
  879MOL0     H18609  12.148   1.736   2.410 -2.0564  0.6484 -1.5790
  879MOL0     H18610  12.177   1.753   2.677 -4.5912 -1.0878  2.2616
  879MOL0     H18611  12.105   1.595   2.672  1.0315 -3.2121 -1.1646
  879MOL0     H18612  12.353   1.642   2.529 -1.0028 -0.1473 -1.4535
  879MOL0     H18613  12.288   1.487   2.578  0.0268  0.4747 -0.2740
  879MOL0     H18614  12.283   1.574   2.821 -2.0994 -3.8099 -2.1556
  879MOL0     H18615  12.430   1.507   2.749 -0.3253  1.3675 -1.4558
  879MOL0     H18616  12.331   1.806   2.958 -0.9504 -1.1935 -1.9969
  879MOL0     H18617  12.584   2.092   2.937 -0.0207  0.6378  2.2047
  879MOL0     H18618  12.420   2.052   3.008 -0.9687 -1.7132 -1.4467
  879MOL0     H18619  12.514   1.873   3.137  0.3868  0.7724  2.9543
  879MOL0     H18620  12.674   1.923   3.065  1.1702  4.1323 -1.5825
  879MOL0     H18621  12.499   2.102   3.248  0.2410  0.6622  1.0213
  879MOL0     H18622  12.643   2.156   3.171  0.2211  0.7381  1.3194
  879MOL0     H18623  12.631   1.904   3.356  1.8389 -1.8785 -0.3871
  879MOL0     H18624  12.651   2.076   3.418 -1.1653 -0.7438  0.2661
  879MOL0     H18625  13.074   1.976   3.345  3.7893  1.7941  0.6982
  879MOL0     H18626  13.222   2.152   3.383  0.1329 -1.5652 -0.8931
  879MOL0     H18627  13.527   2.232   3.386  2.9887 -0.6094  1.1091
  879MOL0     H18628  13.730   2.368   3.341  2.1704  1.1172  0.1109
  879MOL0     H18629  13.726   2.819   3.411  0.5051  3.1169  1.3344
  879MOL0     H18630  13.774   2.757   3.565  1.8260 -0.9260  0.3469
  879MOL0     H18631  13.953   2.794   3.319  2.4230 -0.7137 -0.1186
  879MOL0     H18632  13.950   2.899   3.466 -0.0398  0.0611 -0.6634
  879MOL0     H18633  14.028   2.599   3.468  1.1805  0.0508 -0.0287
  879MOL0     H18634  14.137   2.742   3.435 -0.6123  0.5554  0.4632
  879MOL0     H18635  13.984   2.654   3.681 -0.0079 -0.0437  1.1249
  879MOL0     H18636  14.014   2.830   3.659  2.5059  1.4043 -3.0324
  879MOL0     H18637  14.253   2.744   3.609 -1.4065 -0.7785 -1.6133
  879MOL0     H18638  14.207   2.597   3.676  4.0554  0.6516  0.3301
  879MOL0     H18639  14.164   2.849   3.842 -0.1463 -0.1153  1.6675
  879MOL0     H18640  14.176   2.686   3.901  1.4544  1.9497  1.6682
  879MOL0     H18641  14.392   2.844   3.766  1.7260  1.2980  1.2389
  879MOL0     H18642  14.410   2.680   3.782 -0.1774  2.4407 -2.6053
  879MOL0     H18643  14.512   2.821   3.977 -0.7958  1.2293  3.1504
  879MOL0     H18644  14.350   2.862   4.015  0.6354 -0.2986  1.3000
  879MOL0     H18645  13.541   2.724   3.507 -2.9951 -0.1107  1.6877
  879MOL0     H18646  13.338   2.585   3.540 -0.3202  0.5158  0.1733
  879MOL0     H18647  12.912   2.442   3.405  0.5181  0.2592  2.6434
  879MOL0     H18648  12.748   2.267   3.340 -0.4533 -0.3012  1.8657
  879MOL0     H18649  11.462   1.545   1.973  2.5008  0.0029  1.2296
  879MOL0     H18650  11.217   1.614   1.972 -0.8313  3.2605 -1.5790
  879MOL0     H18651  10.893   1.795   2.177  1.8638  0.5319  0.3680
  879MOL0     H18652  10.656   1.802   2.134  1.7897  0.2794  2.4836
  879MOL0     H18653  10.464   1.741   1.944  0.3254 -0.6642 -1.4769
  879MOL0     H18654  10.582   1.752   1.820 -1.7438 -1.4157 -1.1538
  879MOL0     H18655  10.378   1.759   1.697  3.5023 -0.6213  0.9197
  879MOL0     H18656  10.421   1.920   1.686 -0.7395  1.2660  0.7488
  879MOL0     H18657  10.270   1.940   1.927 -1.2103  2.6057  0.3047
  879MOL0     H18658  10.196   1.799   1.854 -0.5428 -0.5861 -1.1474
  879MOL0     H18659  10.171   1.954   1.639 -2.0978 -2.1575  1.0960
  879MOL0     H18660  10.068   2.009   1.771  1.0676  1.5958  1.4908
  879MOL0     H18661  10.324   2.342   1.714 -1.9055  0.5598  3.2761
  879MOL0     H18662  10.699   2.098   1.822  0.0342 -0.8801 -1.6407
  879MOL0     H18663  10.901   2.226   1.837 -0.0270  1.1068  3.6719
  879MOL0     H18664  11.030   2.195   1.955  2.4876  0.1708 -0.2279
  879MOL0     H18665  11.032   2.097   1.807  1.0162  0.6285  1.5143
  880MOL0     O18666   6.327  11.009   7.625 -0.1576  0.0186 -0.1242
  880MOL0     C18667   6.233  11.021   7.545  0.4301  0.6102 -0.3159
  880MOL0     O18668   6.121  11.091   7.565 -0.3184 -0.0266  0.5187
  880MOL0     C18669   6.117  11.190   7.662 -0.1901  0.1000 -0.0012
  880MOL0     C18670   6.013  11.188   7.757 -0.6637  0.0157 -0.2813
  880MOL0     C18671   6.000  11.296   7.844 -0.3793  0.3984 -0.1756
  880MOL0     C18672   6.087  11.411   7.827 -0.4929 -0.7263 -0.5939
  880MOL0     O18673   6.088  11.521   7.913 -0.4564  0.6100 -0.0834
  880MOL0     C18674   6.002  11.525   8.021 -0.0216 -0.3014 -0.5693
  880MOL0     C18675   5.872  11.592   7.984 -0.9402  0.4626  0.0457
  880MOL0     C18676   5.777  11.590   8.107  0.0199 -0.1427 -0.1125
  880MOL0     C18677   5.641  11.646   8.061 -0.2932 -0.4750  0.3804
  880MOL0     C18678   5.539  11.656   8.168  0.1692  0.2367  0.7672
  880MOL0     C18679   5.418  11.741   8.129  1.0803  0.0158 -0.4312
  880MOL0     C18680   5.326  11.780   8.251  1.2513  0.1338 -0.1558
  880MOL0     C18681   5.201  11.852   8.217 -0.0760  0.5582 -0.5244
  880MOL0     N18682   5.096  11.766   8.159 -0.1918 -1.0065 -0.5103
  880MOL0     C18683   4.987  11.697   8.217  0.0249  1.2532  0.3820
  880MOL0     C18684   4.911  11.668   8.110 -0.4552  1.1030 -0.7960
  880MOL0     C18685   4.774  11.612   8.122  0.5828 -0.3047 -0.0016
  880MOL0     C18686   4.669  11.718   8.076 -0.0128  0.3713 -0.2589
  880MOL0     C18687   4.647  11.835   8.175  0.8180 -0.1277 -0.4613
  880MOL0     C18688   4.537  11.933   8.123  0.0471  0.6345 -0.4699
  880MOL0     O18689   4.415  11.864   8.138 -0.0361  0.3677 -0.0616
  880MOL0     C18690   4.302  11.915   8.080  0.4294 -0.3743 -0.1472
  880MOL0     C18691   4.200  11.828   8.049  0.2345  0.1041 -0.4489
  880MOL0     C18692   4.083  11.878   7.988 -0.2039 -0.1883 -0.7279
  880MOL0     C18693   4.055  12.017   7.976 -0.2384  0.8347 -0.3171
  880MOL0     C18694   3.923  12.060   7.917 -0.2839  0.6931 -0.0392
  880MOL0     O18695   3.907  12.193   7.902  0.2762 -0.0402 -0.1758
  880MOL0     C18696   3.789  12.229   7.850  0.4933 -0.5925  0.4343
  880MOL0     C18697   3.794  12.292   7.727 -0.1171 -0.1235  0.1118
  880MOL0     C18698   3.677  12.345   7.681 -0.0037 -0.5778 -0.1943
  880MOL0     C18699   3.555  12.318   7.739  0.9823 -1.2163  0.0550
  880MOL0     O18700   3.436  12.369   7.697  0.5122  0.5337  0.1555
  880MOL0     C18701   3.429  12.459   7.589  0.4493 -0.5997  0.2691
  880MOL0     C18702   3.290  12.529   7.580 -0.2514  0.0400 -0.3574
  880MOL0     C18703   3.179  12.428   7.521  0.4839  0.3193 -0.2889
  880MOL0     C18704   3.149  12.308   7.608  0.0576  0.3675 -0.3732
  880MOL0     C18705   3.032  12.216   7.557 -0.8160 -0.2739 -0.4741
  880MOL0     C18706   3.026  12.074   7.614  0.4090 -0.5615 -0.1978
  880MOL0     C18707   2.996  12.070   7.759  0.1711 -0.3883 -0.4618
  880MOL0     C18708   2.993  11.921   7.809 -0.0541 -0.0468  0.5408
  880MOL0    Cl18709   3.010  11.930   7.991 -0.2450 -0.1120 -0.0751
  880MOL0     C18710   3.549  12.253   7.862  0.3667  0.1116 -0.0813
  880MOL0     C18711   3.666  12.206   7.924  0.3311 -0.5903 -0.1712
  880MOL0     O18712   3.844  11.979   7.869  0.0457 -0.2410 -0.2659
  880MOL0     C18713   4.153  12.106   8.026  1.1172  0.7258  0.1109
  880MOL0     C18714   4.274  12.054   8.078 -0.1608 -0.0836 -0.8828
  880MOL0     N18715   4.984  11.695   7.988  0.6945  0.6564 -0.9094
  880MOL0     N18716   5.087  11.758   8.019  0.5137  0.2167 -0.2541
  880MOL0     C18717   6.182  11.408   7.733  0.1681 -0.1701 -0.3809
  880MOL0     C18718   6.200  11.304   7.645  0.3408 -0.0517 -0.3501
  880MOL0     C18719   6.230  10.926   7.426  0.2703  0.6578 -0.0705
  880MOL0     C18720   6.113  10.940   7.344  0.2172  0.2721  0.6942
  880MOL0     C18721   6.096  10.855   7.233 -1.0009 -0.5619 -0.4725
  880MOL0     C18722   6.199  10.766   7.193  0.0752 -0.0885 -0.3173
  880MOL0     O18723   6.164  10.691   7.079  0.2126  0.0652 -0.5022
  880MOL0     C18724   6.272  10.664   6.989 -0.0420 -0.3162 -0.2822
  880MOL0     C18725   6.211  10.585   6.876  0.4756  0.0586 -0.1912
  880MOL0     C18726   6.311  10.555   6.755 -0.8708  0.4080 -0.1935
  880MOL0     C18727   6.449  10.486   6.796  0.6601  0.0934 -0.3425
  880MOL0     C18728   6.550  10.508   6.693  0.2534 -0.0948 -1.0450
  880MOL0     C18729   6.633  10.520   6.610 -0.4346  0.1264 -0.1043
  880MOL0     C18730   6.308  10.761   7.273  0.2384 -0.4234 -0.2799
  880MOL0     C18731   6.334  10.841   7.379 -0.3980 -0.4674  0.4835
  880MOL0     C18732   6.464  10.822   7.445 -1.1762  1.1213 -0.2387
  880MOL0     H18733   5.941  11.108   7.765 -1.9012  1.1787  0.7163
  880MOL0     H18734   5.922  11.295   7.918  0.3943  3.7854  0.8759
  880MOL0     H18735   5.982  11.433   8.077  0.7296 -0.5667 -0.7307
  880MOL0     H18736   6.060  11.583   8.094  0.9629  0.4904 -1.9452
  880MOL0     H18737   5.822  11.552   7.896 -0.8918 -2.0264  1.0772
  880MOL0     H18738   5.902  11.695   7.961  0.2696  0.0390 -0.3311
  880MOL0     H18739   5.811  11.656   8.187  0.7711 -1.2855  0.5360
  880MOL0     H18740   5.771  11.490   8.150  1.1398  0.1067  0.6717
  880MOL0     H18741   5.651  11.748   8.023 -0.0230 -1.2098 -1.6348
  880MOL0     H18742   5.594  11.592   7.978 -2.3105 -0.6446  1.5550
  880MOL0     H18743   5.508  11.554   8.194  0.1640 -1.0185 -3.4614
  880MOL0     H18744   5.568  11.701   8.263 -1.0704 -0.2643  1.4155
  880MOL0     H18745   5.445  11.838   8.086  1.8089  0.5969  1.2441
  880MOL0     H18746   5.358  11.690   8.054  0.4925 -0.6049  0.4489
  880MOL0     H18747   5.386  11.840   8.321 -2.3924  1.0527  2.5167
  880MOL0     H18748   5.296  11.691   8.308  2.9580 -0.3783 -0.0017
  880MOL0     H18749   5.155  11.906   8.300  0.6724  0.0738  0.2177
  880MOL0     H18750   5.214  11.933   8.144 -1.6777  2.6891  1.4270
  880MOL0     H18751   4.958  11.692   8.322 -1.3620 -1.8481 -0.0541
  880MOL0     H18752   4.760  11.525   8.058  1.3963 -0.4283 -0.0130
  880MOL0     H18753   4.750  11.574   8.222  1.4356  1.6194  0.9826
  880MOL0     H18754   4.691  11.768   7.981 -1.4932 -1.0180 -1.3946
  880MOL0     H18755   4.571  11.670   8.066 -0.4606  1.0642  0.6047
  880MOL0     H18756   4.741  11.887   8.192 -0.6499  2.5688  0.0087
  880MOL0     H18757   4.623  11.798   8.275  1.4528 -0.1091 -0.3005
  880MOL0     H18758   4.555  11.961   8.019  2.2390 -0.1987 -0.3630
  880MOL0     H18759   4.549  12.014   8.196  0.6211 -0.6201  0.8788
  880MOL0     H18760   4.211  11.723   8.071  0.0055  0.4371  1.3864
  880MOL0     H18761   4.004  11.816   7.947  1.1805 -1.2457 -1.9123
  880MOL0     H18762   3.887  12.305   7.671  1.0248 -0.1947  1.9198
  880MOL0     H18763   3.685  12.410   7.595 -0.3952 -0.5618 -0.2221
  880MOL0     H18764   3.493  12.544   7.612  0.3768  0.0502 -1.7424
  880MOL0     H18765   3.442  12.420   7.488 -3.1139  0.8709 -0.8831
  880MOL0     H18766   3.270  12.565   7.681  4.2024  1.9728  0.0941
  880MOL0     H18767   3.303  12.621   7.522 -0.6533  0.1204 -0.3217
  880MOL0     H18768   3.099  12.502   7.510 -0.4888 -0.7414 -0.6090
  880MOL0     H18769   3.203  12.381   7.425 -0.4348  1.1861 -0.9725
  880MOL0     H18770   3.136  12.330   7.714  0.3965 -2.4405  0.3104
  880MOL0     H18771   3.239  12.247   7.604 -1.0422 -1.5225  1.7129
  880MOL0     H18772   3.053  12.209   7.450  1.4023  3.4538 -0.4610
  880MOL0     H18773   2.943  12.280   7.568 -2.3243 -2.7114  4.2377
  880MOL0     H18774   2.952  12.012   7.563  2.5098 -4.4549  1.0649
  880MOL0     H18775   3.121  12.024   7.591 -0.2552 -2.3207  0.7406
  880MOL0     H18776   2.897  12.115   7.771  0.3543  0.5723 -2.1188
  880MOL0     H18777   3.077  12.124   7.808  1.8738 -2.6070 -0.6718
  880MOL0     H18778   2.899  11.872   7.783 -0.7567  0.4274  2.0634
  880MOL0     H18779   3.075  11.864   7.764 -1.1406 -0.6964 -0.6900
  880MOL0     H18780   3.453  12.243   7.911 -0.4195  3.6265 -0.5841
  880MOL0     H18781   3.667  12.156   8.020  3.8972  3.2172  2.1502
  880MOL0     H18782   4.132  12.212   8.023 -1.2337  0.3200  0.4755
  880MOL0     H18783   4.343  12.129   8.112 -0.3646  0.3666 -1.4409
  880MOL0     H18784   6.252  11.491   7.722  2.2072 -1.4382  2.0980
  880MOL0     H18785   6.269  11.306   7.561 -2.9042 -2.0367 -3.3217
  880MOL0     H18786   6.024  10.997   7.369 -0.9542 -0.1243 -2.1729
  880MOL0     H18787   6.007  10.860   7.171  1.0906  2.2999 -3.6123
  880MOL0     H18788   6.347  10.599   7.036  2.7086  0.5069 -3.1230
  880MOL0     H18789   6.329  10.755   6.966 -0.7539 -0.1401 -1.4212
  880MOL0     H18790   6.126  10.648   6.846 -0.4560 -1.9125 -1.9637
  880MOL0     H18791   6.173  10.492   6.918  0.8006  0.2523  0.5407
  880MOL0     H18792   6.335  10.652   6.710  2.4254 -0.3679 -0.3697
  880MOL0     H18793   6.277  10.492   6.673 -1.2012  0.3524 -0.0132
  880MOL0     H18794   6.490  10.516   6.893  0.1494 -2.1367  0.6407
  880MOL0     H18795   6.435  10.378   6.805 -3.2994  0.4515 -0.4208
  880MOL0     H18796   6.707  10.549   6.539  1.5081 -1.3469  1.1928
  880MOL0     H18797   6.384  10.688   7.243 -0.9646 -0.9554 -2.2262
  880MOL0     H18798   6.524  10.914   7.444 -1.9929  1.7218  1.4859
  880MOL0     H18799   6.452  10.779   7.545 -1.0965  0.5563 -0.4678
  880MOL0     H18800   6.531  10.756   7.390  1.2758  2.9314  0.4093
  881MOL0     O18801   6.428   8.110   5.652  0.4917 -0.1906 -0.1890
  881MOL0     C18802   6.468   8.225   5.642  0.5602 -0.0308  0.0976
  881MOL0     O18803   6.516   8.292   5.536  0.0641  0.1064 -0.3990
  881MOL0     C18804   6.556   8.221   5.427 -0.7858 -0.2877  0.6554
  881MOL0     C18805   6.475   8.152   5.346  1.0837 -0.3470 -0.3619
  881MOL0     C18806   6.518   8.087   5.233 -0.5799  0.7478 -0.3949
  881MOL0     C18807   6.658   8.096   5.199  0.5724 -0.0494 -0.7905
  881MOL0     O18808   6.701   8.050   5.077 -0.1925 -0.7104  0.5819
  881MOL0     C18809   6.611   8.001   4.978  1.2503  0.2751  0.7121
  881MOL0     C18810   6.705   7.953   4.866  0.4293 -0.9992 -0.2206
  881MOL0     C18811   6.669   7.826   4.795 -0.4001 -0.5164  0.4156
  881MOL0     C18812   6.655   7.699   4.877 -0.5114  0.9224  1.1088
  881MOL0     C18813   6.669   7.576   4.792  0.3761  0.1491 -0.4098
  881MOL0     C18814   6.613   7.446   4.855  0.5502 -0.0595  0.3902
  881MOL0     C18815   6.626   7.319   4.764  0.2634  0.2583 -0.3026
  881MOL0     C18816   6.574   7.194   4.838 -0.0060  0.0895 -0.0362
  881MOL0     N18817   6.649   7.156   4.963  0.0643 -0.9206  0.4643
  881MOL0     C18818   6.777   7.099   4.961 -0.7797  0.4700  0.9921
  881MOL0     C18819   6.805   7.096   5.096 -0.1641 -0.4980 -0.4373
  881MOL0     C18820   6.933   7.048   5.155 -0.1986 -0.4828  0.9902
  881MOL0     C18821   6.901   6.941   5.258  0.9034 -0.0918  0.3531
  881MOL0     C18822   7.037   6.870   5.287  0.2059  0.9696  0.3449
  881MOL0     C18823   7.125   6.924   5.395  0.4681  0.7493  0.2376
  881MOL0     O18824   7.244   6.842   5.406  0.0539 -0.3797 -0.2265
  881MOL0     C18825   7.325   6.873   5.519 -0.4348  0.2237  0.0131
  881MOL0     C18826   7.435   6.786   5.533 -0.5226 -0.2148 -1.0444
  881MOL0     C18827   7.532   6.807   5.631 -0.3402 -0.2247  0.2467
  881MOL0     C18828   7.505   6.904   5.732 -0.2779  0.3600 -0.0982
  881MOL0     C18829   7.606   6.932   5.824 -0.0962 -0.0799  0.1168
  881MOL0     O18830   7.742   6.908   5.783  0.0964  0.3627 -0.4189
  881MOL0     C18831   7.841   6.914   5.876  1.0598  0.1750  0.0585
  881MOL0     C18832   7.954   6.979   5.849  0.3901  0.7587 -0.2922
  881MOL0     C18833   8.067   6.975   5.933 -0.6274 -0.3966 -0.4437
  881MOL0     C18834   8.065   6.890   6.045 -0.4968 -0.5857  0.0353
  881MOL0     O18835   8.166   6.857   6.127 -0.0505 -0.6409  0.4311
  881MOL0     C18836   8.286   6.934   6.093  0.6267  0.0961 -0.5165
  881MOL0     C18837   8.394   6.902   6.191 -0.5693 -0.0249 -0.6644
  881MOL0     C18838   8.503   7.011   6.207  0.4369 -0.4483  1.5860
  881MOL0     C18839   8.630   6.957   6.276 -0.2245 -0.0480  0.1877
  881MOL0     C18840   8.734   7.057   6.321  0.7229  1.3141  0.1967
  881MOL0     C18841   8.746   7.051   6.473 -0.4079  0.1959  0.3098
  881MOL0     C18842   8.849   7.149   6.542  1.1304 -0.8849 -0.0279
  881MOL0     C18843   8.875   7.118   6.690 -0.3652  0.1742  0.3707
  881MOL0    Cl18844   9.001   7.243   6.757  0.8403  0.0594  0.1864
  881MOL0     C18845   7.958   6.813   6.065  0.5598  0.1931  0.3337
  881MOL0     C18846   7.845   6.823   5.982 -0.3032  0.1655  0.5702
  881MOL0     O18847   7.570   6.974   5.929 -0.0416 -0.1372  0.3633
  881MOL0     C18848   7.380   6.972   5.733  0.8184 -0.8573  0.0111
  881MOL0     C18849   7.304   6.961   5.620 -0.6323  1.2256 -0.1480
  881MOL0     N18850   6.699   7.159   5.169 -0.7972 -0.5572 -1.0954
  881MOL0     N18851   6.598   7.186   5.092 -0.1115  0.5741 -0.0802
  881MOL0     C18852   6.745   8.164   5.285 -0.0479  0.2254  0.2747
  881MOL0     C18853   6.692   8.231   5.391  0.9035 -0.3943 -0.3637
  881MOL0     C18854   6.467   8.308   5.763 -1.6663  0.8288  0.9531
  881MOL0     C18855   6.578   8.389   5.780 -0.6264 -0.2421 -0.5766
  881MOL0     C18856   6.599   8.473   5.892  1.1971 -0.1345  0.1917
  881MOL0     C18857   6.497   8.491   5.988  0.8422 -0.2341 -0.3370
  881MOL0     O18858   6.495   8.572   6.100 -0.5667 -0.3008 -0.3601
  881MOL0     C18859   6.609   8.641   6.144 -0.4008 -0.8106 -0.4009
  881MOL0     C18860   6.601   8.785   6.103 -0.7453  0.8684  0.1291
  881MOL0     C18861   6.574   8.801   5.945  0.3621  0.1907 -0.4954
  881MOL0     C18862   6.592   8.940   5.907 -0.1269  0.4957  0.1287
  881MOL0     C18863   6.730   8.985   5.889 -0.6006  0.4825 -0.6644
  881MOL0     C18864   6.831   9.038   5.890 -0.4304 -0.8403  0.4897
  881MOL0     C18865   6.383   8.412   5.971 -0.2129 -0.2309  0.7619
  881MOL0     C18866   6.373   8.328   5.860  0.6993  0.3782  0.0227
  881MOL0     C18867   6.230   8.258   5.843  0.5392  0.3725 -0.6047
  881MOL0     H18868   6.378   8.126   5.386 -0.2189 -2.7653 -4.5202
  881MOL0     H18869   6.435   8.043   5.179 -0.9578 -1.6298  1.8850
  881MOL0     H18870   6.553   7.918   5.020 -0.8279  1.2244 -0.1651
  881MOL0     H18871   6.552   8.086   4.943 -0.4433 -0.1802  2.3008
  881MOL0     H18872   6.811   7.953   4.893  1.5119  4.5824 -3.0157
  881MOL0     H18873   6.697   8.040   4.801  1.6830 -0.5086  0.2674
  881MOL0     H18874   6.754   7.816   4.727 -0.7980  1.6219 -0.4945
  881MOL0     H18875   6.581   7.845   4.732 -1.7095 -1.5701  1.8530
  881MOL0     H18876   6.713   7.698   4.970 -1.0408 -0.4352  1.4423
  881MOL0     H18877   6.553   7.686   4.913 -0.6904 -2.3210 -0.2661
  881MOL0     H18878   6.613   7.596   4.701  2.2636  2.7360 -1.1603
  881MOL0     H18879   6.776   7.569   4.768  1.2918 -0.4147  3.1105
  881MOL0     H18880   6.687   7.424   4.933  1.5026 -0.5219 -0.6073
  881MOL0     H18881   6.513   7.456   4.898  1.2331  2.6615  1.5757
  881MOL0     H18882   6.730   7.303   4.734  0.1564 -1.7075  0.2563
  881MOL0     H18883   6.569   7.325   4.670  0.9149 -2.4458 -0.9629
  881MOL0     H18884   6.471   7.220   4.867 -0.5026  0.6566 -2.1106
  881MOL0     H18885   6.589   7.107   4.773  3.6512  1.3071 -1.0828
  881MOL0     H18886   6.826   7.063   4.871 -2.0468  1.0608  0.0334
  881MOL0     H18887   6.992   7.010   5.071  1.0215  2.7634  0.2114
  881MOL0     H18888   6.982   7.135   5.200  0.4598 -1.3654  2.0010
  881MOL0     H18889   6.862   6.994   5.345 -0.2878 -0.6141  0.1586
  881MOL0     H18890   6.830   6.870   5.215  1.7253  0.4262 -1.9949
  881MOL0     H18891   7.104   6.862   5.201 -1.8717  0.4242 -1.3016
  881MOL0     H18892   7.014   6.767   5.315 -3.2132  1.2614 -0.8937
  881MOL0     H18893   7.074   6.935   5.491  0.6473 -1.6566  0.6745
  881MOL0     H18894   7.160   7.025   5.371  2.3883 -0.2600 -1.6136
  881MOL0     H18895   7.458   6.709   5.461  1.6661  0.2912 -0.9843
  881MOL0     H18896   7.616   6.739   5.638 -0.9189 -0.9183  0.5783
  881MOL0     H18897   7.969   7.025   5.752 -0.5952  0.3745 -0.6405
  881MOL0     H18898   8.148   7.044   5.913  0.3190 -1.4681 -0.3648
  881MOL0     H18899   8.324   6.916   5.992  0.3520 -0.8431 -0.4575
  881MOL0     H18900   8.269   7.042   6.097  2.2427  0.4755 -2.2009
  881MOL0     H18901   8.339   6.882   6.284 -0.6888 -0.8048 -0.8905
  881MOL0     H18902   8.452   6.815   6.159  1.2216  0.8384  0.1287
  881MOL0     H18903   8.538   7.046   6.109 -2.2735  0.4013  0.8391
  881MOL0     H18904   8.454   7.096   6.255 -0.8430  0.2385 -0.7468
  881MOL0     H18905   8.676   6.884   6.209  1.1653  0.7651  0.2029
  881MOL0     H18906   8.601   6.888   6.356  4.4830 -1.5178  0.9456
  881MOL0     H18907   8.723   7.159   6.283  0.8986 -0.2700 -4.8950
  881MOL0     H18908   8.834   7.028   6.286  0.9284  1.6536  0.4898
  881MOL0     H18909   8.651   7.085   6.515 -0.2864  0.8880  0.0290
  881MOL0     H18910   8.761   6.948   6.507 -1.6513  0.0432  0.4104
  881MOL0     H18911   8.812   7.251   6.535 -0.7676 -1.6214 -1.5553
  881MOL0     H18912   8.946   7.147   6.491 -0.1561 -1.9503 -2.6140
  881MOL0     H18913   8.778   7.136   6.736 -1.3581 -2.0471 -0.6935
  881MOL0     H18914   8.935   7.030   6.714  5.3037  3.1549 -1.0661
  881MOL0     H18915   7.961   6.757   6.159  0.5253 -1.1981 -0.4602
  881MOL0     H18916   7.764   6.758   6.012  1.1319 -1.1915  1.7057
  881MOL0     H18917   7.351   7.034   5.818 -0.5818 -0.6570 -0.5924
  881MOL0     H18918   7.215   7.022   5.636 -3.0138 -1.9174 -0.3577
  881MOL0     H18919   6.852   8.171   5.266 -0.2403 -0.6721 -1.2779
  881MOL0     H18920   6.755   8.272   5.468 -2.6702  1.3071  1.9198
  881MOL0     H18921   6.659   8.381   5.709  0.3817  0.8730  0.4147
  881MOL0     H18922   6.687   8.536   5.893 -1.0259  3.2618 -0.3482
  881MOL0     H18923   6.704   8.602   6.106  0.0619  0.0200 -0.1188
  881MOL0     H18924   6.616   8.640   6.254  2.3093  1.1477 -0.4479
  881MOL0     H18925   6.695   8.831   6.134 -0.3565 -0.1569  0.5254
  881MOL0     H18926   6.516   8.827   6.157 -2.1289 -0.1355 -1.1597
  881MOL0     H18927   6.479   8.772   5.899  1.2382  0.7913 -2.8636
  881MOL0     H18928   6.651   8.744   5.892 -1.1596 -2.0581 -0.4424
  881MOL0     H18929   6.549   8.953   5.807  1.1749 -0.7308 -0.6317
  881MOL0     H18930   6.537   9.000   5.980  2.3867  1.4643  1.3422
  881MOL0     H18931   6.929   9.082   5.888  0.5982 -2.9644  1.0826
  881MOL0     H18932   6.298   8.422   6.038  1.1394 -1.1916  2.7017
  881MOL0     H18933   6.153   8.336   5.847 -0.3699 -0.4738 -1.2392
  881MOL0     H18934   6.215   8.214   5.744 -1.8834 -0.1147 -0.0897
  881MOL0     H18935   6.207   8.193   5.928  0.4920  0.6534 -0.3991
  882MOL0     O18936   8.647   2.867   1.425  0.0878 -0.1999  0.1665
  882MOL0     C18937   8.529   2.885   1.397 -0.3543 -0.4747 -0.5113
  882MOL0     O18938   8.470   3.007   1.413  0.1200  0.9556  0.0159
  882MOL0     C18939   8.521   3.101   1.505  0.7971 -0.4053 -0.7932
  882MOL0     C18940   8.605   3.081   1.615 -0.7860  0.6728 -1.0279
  882MOL0     C18941   8.656   3.184   1.696 -0.5605  0.1758  0.1124
  882MOL0     C18942   8.636   3.315   1.667  0.6365 -0.0853  0.3075
  882MOL0     O18943   8.676   3.414   1.756 -0.6085 -1.2051 -0.1897
  882MOL0     C18944   8.648   3.550   1.725 -0.3979 -0.2644 -1.2235
  882MOL0     C18945   8.691   3.625   1.851  0.2484  0.7984 -0.5948
  882MOL0     C18946   8.602   3.581   1.967  0.1776  0.2725  0.2132
  882MOL0     C18947   8.643   3.649   2.097  0.0837  0.5508 -0.3733
  882MOL0     C18948   8.538   3.614   2.207 -1.2971  0.1337  0.4398
  882MOL0     C18949   8.527   3.465   2.247 -0.8275  0.4652 -0.1381
  882MOL0     C18950   8.389   3.427   2.312  0.1924 -0.8096 -0.1939
  882MOL0     C18951   8.397   3.306   2.405 -0.6929 -0.3367  0.2146
  882MOL0     N18952   8.468   3.325   2.538  0.3556  0.3632  0.1952
  882MOL0     C18953   8.603   3.327   2.548  0.3807 -0.0044  0.4722
  882MOL0     C18954   8.623   3.324   2.681  0.2401 -0.2790 -0.7641
  882MOL0     C18955   8.760   3.314   2.750  0.4780  0.7871  0.6452
  882MOL0     C18956   8.788   3.418   2.857 -0.2968  0.8460  0.9346
  882MOL0     C18957   8.734   3.556   2.822 -0.0961  0.2877 -0.7014
  882MOL0     C18958   8.788   3.655   2.930  0.5975 -0.5300 -0.2790
  882MOL0     O18959   8.930   3.681   2.907 -0.3946 -0.1752 -0.0789
  882MOL0     C18960   8.981   3.806   2.931  0.2100 -0.2844  0.1835
  882MOL0     C18961   8.963   3.872   3.056  0.3309  0.0232  0.8735
  882MOL0     C18962   9.040   3.980   3.084 -0.4891  0.2120  0.0048
  882MOL0     C18963   9.113   4.045   2.986 -0.3911 -0.0539  0.5655
  882MOL0     C18964   9.190   4.169   3.022 -0.7044  0.1912 -0.9142
  882MOL0     O18965   9.206   4.187   3.161  0.1140  0.6498 -0.0525
  882MOL0     C18966   9.280   4.287   3.228  0.2233  0.2622 -0.2791
  882MOL0     C18967   9.326   4.243   3.351 -0.3705  0.0840  1.3287
  882MOL0     C18968   9.421   4.317   3.424 -0.7646 -0.1501 -0.8427
  882MOL0     C18969   9.453   4.449   3.383 -0.2309  0.2755  0.4549
  882MOL0     O18970   9.558   4.509   3.451 -0.2620  0.2686 -0.1124
  882MOL0     C18971   9.605   4.630   3.390  1.0017 -0.6188 -0.4873
  882MOL0     C18972   9.729   4.669   3.470  0.3423 -0.9005 -0.7377
  882MOL0     C18973   9.858   4.583   3.452  1.0122 -0.3015 -0.1695
  882MOL0     C18974   9.952   4.637   3.568 -0.4829 -0.5561  0.4478
  882MOL0     C18975  10.077   4.558   3.599 -0.8520 -0.0719 -0.6834
  882MOL0     C18976  10.157   4.509   3.476 -0.1259 -0.5121 -0.0268
  882MOL0     C18977  10.290   4.455   3.528  0.5813  0.4292  0.8863
  882MOL0     C18978  10.369   4.384   3.429 -0.8759 -0.9928  0.7644
  882MOL0    Cl18979  10.484   4.505   3.371  0.2600  0.3049 -0.0564
  882MOL0     C18980   9.397   4.506   3.272  0.9993  0.9963 -0.6877
  882MOL0     C18981   9.324   4.416   3.187 -0.1784 -1.1472 -0.5005
  882MOL0     O18982   9.234   4.246   2.936 -0.0346  0.2583  0.1168
  882MOL0     C18983   9.116   3.992   2.855 -0.2863 -0.2331 -0.8198
  882MOL0     C18984   9.057   3.868   2.825  0.2148 -0.0866 -1.3437
  882MOL0     N18985   8.501   3.304   2.749  0.1960  1.1025  0.5009
  882MOL0     N18986   8.409   3.312   2.660 -0.1456  0.3107  0.1051
  882MOL0     C18987   8.546   3.342   1.556 -0.4531 -0.5051 -0.8906
  882MOL0     C18988   8.496   3.240   1.477  0.6492 -0.5606 -0.1685
  882MOL0     C18989   8.443   2.784   1.327  0.3766 -1.3157  1.0579
  882MOL0     C18990   8.315   2.821   1.279 -0.2090 -0.6109  0.1356
  882MOL0     C18991   8.233   2.736   1.205 -0.0831 -0.1058  0.5265
  882MOL0     C18992   8.276   2.604   1.185  0.9974  0.5431  0.1842
  882MOL0     O18993   8.200   2.517   1.113 -0.3079 -0.5671 -0.2734
  882MOL0     C18994   8.055   2.513   1.139 -0.7014 -0.3385  0.3257
  882MOL0     C18995   8.015   2.446   1.276 -0.3791 -0.8557  0.3356
  882MOL0     C18996   7.864   2.462   1.299  0.3456 -0.0451 -0.3659
  882MOL0     C18997   7.820   2.490   1.437  0.4090 -0.4108 -0.1622
  882MOL0     C18998   7.867   2.386   1.541  0.5539 -0.1509 -0.0747
  882MOL0     C18999   7.909   2.314   1.627 -0.2603  0.2427  0.1682
  882MOL0     C19000   8.403   2.563   1.227 -0.0559  0.3594  0.3366
  882MOL0     C19001   8.493   2.652   1.296  0.4439 -0.0122  0.1345
  882MOL0     C19002   8.622   2.587   1.334 -0.0141  0.0891  0.4960
  882MOL0     H19003   8.628   2.976   1.626  2.2458  1.4595  1.9578
  882MOL0     H19004   8.716   3.145   1.779 -1.7676 -0.6565  0.6326
  882MOL0     H19005   8.707   3.576   1.637  0.3736 -0.4187 -0.7675
  882MOL0     H19006   8.544   3.579   1.707  0.3069  4.2420  0.5308
  882MOL0     H19007   8.682   3.733   1.834 -0.7098  0.6645 -0.9993
  882MOL0     H19008   8.793   3.602   1.882  0.3046  3.2825  1.3675
  882MOL0     H19009   8.598   3.475   1.993 -1.2927  0.6581  1.7096
  882MOL0     H19010   8.498   3.608   1.945  0.0129  1.4199  2.2053
  882MOL0     H19011   8.746   3.620   2.122  1.1203  2.6378 -1.8771
  882MOL0     H19012   8.643   3.758   2.086  0.0756  0.6066  0.1517
  882MOL0     H19013   8.568   3.674   2.294 -0.2912  1.9469 -1.0813
  882MOL0     H19014   8.438   3.649   2.180 -0.7743  1.3271 -0.0539
  882MOL0     H19015   8.545   3.392   2.168 -1.1432  1.2262 -0.9298
  882MOL0     H19016   8.604   3.455   2.325  0.6211  0.0717 -1.5734
  882MOL0     H19017   8.312   3.412   2.236  0.7605  1.3972 -1.2981
  882MOL0     H19018   8.352   3.511   2.373  1.0481 -0.5154 -0.0601
  882MOL0     H19019   8.294   3.284   2.435 -0.2172 -1.2613  1.2759
  882MOL0     H19020   8.417   3.216   2.347 -0.2762  1.2947 -2.2982
  882MOL0     H19021   8.678   3.310   2.472  0.7587 -0.9466  1.0493
  882MOL0     H19022   8.776   3.213   2.790 -0.4082 -0.0977 -1.0992
  882MOL0     H19023   8.833   3.318   2.668 -3.0445 -2.1579 -3.0818
  882MOL0     H19024   8.738   3.389   2.950 -2.1725  1.6037  0.2221
  882MOL0     H19025   8.897   3.417   2.858 -0.2888  1.5267  0.8350
  882MOL0     H19026   8.627   3.567   2.841  0.1441  1.4737  0.0822
  882MOL0     H19027   8.758   3.587   2.720  0.2344 -2.8065 -1.6514
  882MOL0     H19028   8.775   3.607   3.027 -1.5529 -0.9696 -0.7501
  882MOL0     H19029   8.735   3.750   2.932  1.5656  0.0347 -0.4643
  882MOL0     H19030   8.900   3.824   3.130 -0.4012  0.5625  0.6060
  882MOL0     H19031   9.033   4.021   3.185  0.6806  0.8259 -0.1423
  882MOL0     H19032   9.286   4.146   3.376 -2.1773 -0.1120 -1.8098
  882MOL0     H19033   9.470   4.262   3.504 -0.5972 -0.0822 -0.8992
  882MOL0     H19034   9.650   4.619   3.291  1.5666  1.1522 -0.4659
  882MOL0     H19035   9.530   4.710   3.393  1.4577 -0.1225 -1.5105
  882MOL0     H19036   9.757   4.774   3.455 -2.9431  0.5623  2.0675
  882MOL0     H19037   9.699   4.659   3.574 -0.0651  0.5899 -0.6802
  882MOL0     H19038   9.839   4.475   3.462 -0.3421 -0.0848 -0.2229
  882MOL0     H19039   9.895   4.607   3.352 -1.8704  0.0158 -1.2637
  882MOL0     H19040   9.897   4.641   3.662  0.2156  0.9203  0.8229
  882MOL0     H19041   9.972   4.740   3.537 -2.5158 -0.2230  0.1266
  882MOL0     H19042  10.049   4.468   3.655  1.4438 -0.1632  0.4576
  882MOL0     H19043  10.142   4.630   3.649 -0.1202  1.0775 -3.1669
  882MOL0     H19044  10.096   4.427   3.437 -0.8411  0.5306 -1.1787
  882MOL0     H19045  10.164   4.596   3.409  0.7829  0.1088  0.8405
  882MOL0     H19046  10.267   4.377   3.602 -4.9032 -0.0838 -0.8982
  882MOL0     H19047  10.353   4.526   3.582  1.5022  0.0012  0.3799
  882MOL0     H19048  10.411   4.303   3.490 -0.5034 -0.7963  0.7698
  882MOL0     H19049  10.314   4.351   3.341 -0.3290 -0.8390  0.3633
  882MOL0     H19050   9.416   4.607   3.236  0.2040  1.4442  0.0983
  882MOL0     H19051   9.299   4.456   3.089 -2.6417 -1.0651  0.1049
  882MOL0     H19052   9.173   4.050   2.783 -4.6286  2.8176 -2.2243
  882MOL0     H19053   9.058   3.808   2.735  0.9409 -1.6222 -0.3670
  882MOL0     H19054   8.527   3.446   1.533  0.1021  0.4109  2.2317
  882MOL0     H19055   8.433   3.262   1.392  0.5221 -3.2449 -0.8795
  882MOL0     H19056   8.275   2.921   1.293  0.3344  0.5111 -4.7375
  882MOL0     H19057   8.136   2.762   1.165 -1.3821 -2.3247  2.0298
  882MOL0     H19058   8.009   2.468   1.050  1.6489  2.1920 -2.3836
  882MOL0     H19059   8.004   2.610   1.143 -2.0056 -1.0489  1.9637
  882MOL0     H19060   8.074   2.501   1.350  1.0168 -2.2917  0.3502
  882MOL0     H19061   8.042   2.340   1.274  1.1845 -0.4831  0.5216
  882MOL0     H19062   7.818   2.371   1.260 -2.1320  2.3005 -3.4988
  882MOL0     H19063   7.821   2.548   1.248 -1.5712 -0.3046  0.7246
  882MOL0     H19064   7.855   2.587   1.471  0.8851 -0.5684 -0.1963
  882MOL0     H19065   7.712   2.474   1.440  0.4423 -0.8636 -0.9681
  882MOL0     H19066   7.966   2.257   1.697  0.0778  0.6746  0.2487
  882MOL0     H19067   8.432   2.464   1.193 -0.0226  0.9656 -1.5321
  882MOL0     H19068   8.697   2.650   1.384  0.7292  2.1055 -2.8039
  882MOL0     H19069   8.602   2.506   1.405 -0.3169 -0.2761 -0.0023
  882MOL0     H19070   8.676   2.549   1.247  0.0662 -0.3335  0.7281
  883MOL0     O19071  11.132  10.607   8.297  0.0920  0.7468  0.0462
  883MOL0     C19072  11.112  10.505   8.225 -0.0874  0.4448 -0.5139
  883MOL0     O19073  11.072  10.512   8.099 -0.2571  0.4412 -0.3019
  883MOL0     C19074  11.046  10.634   8.042  0.5844  0.6954 -0.1193
  883MOL0     C19075  10.919  10.693   8.051  0.7816 -0.0753 -0.2520
  883MOL0     C19076  10.883  10.814   7.987  0.4355 -0.1220  1.0387
  883MOL0     C19077  10.977  10.881   7.903 -0.3162 -0.6086  0.6676
  883MOL0     O19078  10.930  10.999   7.841  0.0864  0.8781  0.2474
  883MOL0     C19079  11.034  11.079   7.779  0.4716  0.1542  0.6976
  883MOL0     C19080  10.971  11.225   7.756 -0.5650  1.0091  0.5170
  883MOL0     C19081  10.862  11.230   7.637  0.6545  0.1367 -0.3663
  883MOL0     C19082  10.712  11.214   7.669  1.0149  0.2649 -0.1404
  883MOL0     C19083  10.620  11.238   7.550 -0.6964 -0.4899  0.1015
  883MOL0     C19084  10.618  11.126   7.447  0.5188 -0.2910  0.7167
  883MOL0     C19085  10.568  11.185   7.318  0.2818 -0.1341  0.2783
  883MOL0     C19086  10.414  11.186   7.294 -0.6875  0.1453 -0.2902
  883MOL0     N19087  10.392  11.056   7.231 -0.1465  0.3047  0.8472
  883MOL0     C19088  10.367  11.045   7.099 -0.1994  0.3734  0.6149
  883MOL0     C19089  10.351  10.908   7.087 -0.3731 -0.1820  0.4527
  883MOL0     C19090  10.342  10.846   6.955  0.8164  0.2173 -0.1580
  883MOL0     C19091  10.266  10.922   6.845 -0.4570 -0.0908  0.0088
  883MOL0     C19092  10.287  10.849   6.708  0.0836 -0.2126  0.2015
  883MOL0     C19093  10.251  10.931   6.582  0.5692 -0.6752  0.0629
  883MOL0     O19094  10.105  10.959   6.572 -0.4507  0.4579 -0.2150
  883MOL0     C19095  10.065  11.046   6.470  0.0287  0.5410 -0.5486
  883MOL0     C19096   9.928  11.030   6.441  0.0920  0.4397  0.3805
  883MOL0     C19097   9.877  11.095   6.329  0.2585 -0.1152  0.2842
  883MOL0     C19098   9.963  11.174   6.251 -0.3914 -0.0969  0.0641
  883MOL0     C19099   9.914  11.251   6.132 -0.2251  1.0311  0.3267
  883MOL0     O19100   9.999  11.284   6.029  0.0332  0.2265  0.2917
  883MOL0     C19101   9.987  11.392   5.948  0.2641  0.8151  0.0522
  883MOL0     C19102   9.867  11.466   5.919  0.0726 -0.1195  0.2406
  883MOL0     C19103   9.864  11.555   5.810 -0.6378  0.0341 -0.8018
  883MOL0     C19104   9.983  11.587   5.747 -0.0606  0.0229  0.4479
  883MOL0     O19105   9.993  11.693   5.653 -0.1645  0.0954 -0.0185
  883MOL0     C19106   9.903  11.804   5.653  0.3209 -0.1567  0.0120
  883MOL0     C19107   9.951  11.918   5.573  0.4908 -1.0713  0.3605
  883MOL0     C19108  10.071  12.002   5.639  0.0974  0.3995 -1.2151
  883MOL0     C19109  10.200  11.983   5.572 -0.2286  0.7915  0.3287
  883MOL0     C19110  10.317  12.038   5.648 -0.8635 -1.5601 -0.3616
  883MOL0     C19111  10.304  12.188   5.687  0.2801  0.1866  0.4730
  883MOL0     C19112  10.424  12.240   5.779  0.0954  0.5035  0.4685
  883MOL0     C19113  10.409  12.398   5.809 -0.8528  0.1223 -1.0363
  883MOL0    Cl19114  10.260  12.414   5.917  0.1313  0.0713  0.2830
  883MOL0     C19115  10.102  11.519   5.776 -0.2951  0.1828 -0.0519
  883MOL0     C19116  10.104  11.425   5.879  0.6352 -0.5670  0.0681
  883MOL0     O19117   9.801  11.297   6.141 -0.5829 -0.4441 -0.1900
  883MOL0     C19118  10.096  11.199   6.277  0.4704  0.1949  0.0167
  883MOL0     C19119  10.144  11.132   6.390 -0.1838 -0.1313 -0.0501
  883MOL0     N19120  10.354  10.845   7.215  0.1877  0.0516  1.2504
  883MOL0     N19121  10.385  10.938   7.296  0.3437 -0.0916 -0.4936
  883MOL0     C19122  11.111  10.820   7.884 -0.0065 -0.8240 -0.1623
  883MOL0     C19123  11.135  10.695   7.952  0.1044  0.2540  0.0969
  883MOL0     C19124  11.118  10.367   8.291  0.1241 -1.0770  0.6193
  883MOL0     C19125  11.038  10.268   8.246  0.9505 -0.1725  0.4835
  883MOL0     C19126  11.035  10.142   8.294 -0.0124  0.1974 -1.0768
  883MOL0     C19127  11.105  10.111   8.406 -0.5254  1.0496  1.0247
  883MOL0     O19128  11.090   9.987   8.454 -0.5271  0.2327  0.0457
  883MOL0     C19129  11.086   9.964   8.594  0.4719 -0.3356  0.1637
  883MOL0     C19130  11.044   9.814   8.625 -0.8095  0.7713  0.3424
  883MOL0     C19131  11.130   9.723   8.541 -0.1163  0.0018  0.0453
  883MOL0     C19132  11.106   9.584   8.597  0.1786  0.2885  0.2281
  883MOL0     C19133  10.968   9.539   8.573  0.2659 -0.6375  0.5340
  883MOL0     C19134  10.852   9.518   8.540  0.0096 -0.6280 -0.6737
  883MOL0     C19135  11.189  10.213   8.456 -0.2915 -0.4202 -0.3370
  883MOL0     C19136  11.201  10.334   8.402  0.1030 -0.0870  1.4251
  883MOL0     C19137  11.303  10.424   8.474 -0.5534  0.7409  0.6568
  883MOL0     H19138  10.847  10.647   8.118  0.3285 -0.7897 -1.2121
  883MOL0     H19139  10.784  10.857   7.990  0.0793 -0.8895  0.5116
  883MOL0     H19140  11.120  11.088   7.845  0.2268 -2.4352  1.4825
  883MOL0     H19141  11.072  11.050   7.680  1.9892  0.3751  1.1946
  883MOL0     H19142  11.060  11.281   7.727  0.9118 -0.7999  1.3509
  883MOL0     H19143  10.928  11.256   7.852 -3.3162 -0.4520 -0.1326
  883MOL0     H19144  10.896  11.159   7.560 -0.6203 -0.4001 -0.4731
  883MOL0     H19145  10.869  11.330   7.594  1.4605  0.2509  0.0240
  883MOL0     H19146  10.698  11.113   7.707 -2.6210 -0.0116 -1.8098
  883MOL0     H19147  10.673  11.288   7.739 -2.4597  0.0371 -1.6554
  883MOL0     H19148  10.518  11.249   7.589 -0.1981 -1.3546  1.7492
  883MOL0     H19149  10.653  11.331   7.503 -1.6530 -1.3748 -2.4834
  883MOL0     H19150  10.720  11.091   7.425  1.0827  1.6970  0.0213
  883MOL0     H19151  10.553  11.045   7.480  0.4326 -0.2255  0.7053
  883MOL0     H19152  10.607  11.122   7.238 -2.2552 -1.7400  0.1670
  883MOL0     H19153  10.604  11.287   7.305 -0.3405 -0.1039 -1.4856
  883MOL0     H19154  10.356  11.190   7.387  0.9332 -2.4961  0.9859
  883MOL0     H19155  10.382  11.263   7.224 -1.0398 -0.6062 -0.9640
  883MOL0     H19156  10.376  11.130   7.032  0.8574 -0.7676 -0.7694
  883MOL0     H19157  10.445  10.845   6.918  0.7559 -3.7223 -0.6593
  883MOL0     H19158  10.302  10.745   6.969  1.1761  0.3922  2.9865
  883MOL0     H19159  10.161  10.938   6.869 -0.4057  3.1644 -1.4300
  883MOL0     H19160  10.310  11.022   6.834  2.9437 -1.6402 -2.6667
  883MOL0     H19161  10.211  10.771   6.705 -0.8270  0.5852  1.2788
  883MOL0     H19162  10.390  10.819   6.688  0.1951  0.2316  0.0907
  883MOL0     H19163  10.272  10.869   6.494  2.5684  1.8139 -1.3237
  883MOL0     H19164  10.308  11.024   6.579 -0.0075  0.2855  6.3704
  883MOL0     H19165   9.851  10.974   6.493 -2.0485  2.5385 -0.3563
  883MOL0     H19166   9.770  11.095   6.316  0.2706  1.0585  0.1476
  883MOL0     H19167   9.773  11.464   5.973 -0.8609  1.5652 -1.2262
  883MOL0     H19168   9.784  11.624   5.788  2.0976  3.3958 -1.1020
  883MOL0     H19169   9.806  11.776   5.610  0.7876 -1.4385 -0.2403
  883MOL0     H19170   9.884  11.839   5.755  0.6426 -1.2508  0.4699
  883MOL0     H19171   9.965  11.870   5.475 -2.7494 -1.2663 -0.1483
  883MOL0     H19172   9.869  11.990   5.570 -0.5200 -2.1878  0.2376
  883MOL0     H19173  10.043  12.107   5.632  0.3770  0.4870 -1.0033
  883MOL0     H19174  10.068  11.975   5.745 -1.6695  2.5738 -0.6309
  883MOL0     H19175  10.199  12.037   5.477 -0.6584  2.0079  1.0070
  883MOL0     H19176  10.203  11.878   5.545 -2.0887  0.7920  0.0446
  883MOL0     H19177  10.407  12.035   5.586  0.3240  3.0028  0.7239
  883MOL0     H19178  10.338  11.960   5.722  2.3832 -2.5732 -2.1445
  883MOL0     H19179  10.308  12.240   5.592  1.1370  0.9490  0.9057
  883MOL0     H19180  10.208  12.200   5.737 -0.1655  0.9937 -0.5547
  883MOL0     H19181  10.521  12.213   5.736 -0.1273  0.0553  0.2384
  883MOL0     H19182  10.416  12.189   5.875 -2.2408  0.7303  0.4474
  883MOL0     H19183  10.498  12.420   5.869 -0.8507 -2.0719 -0.1412
  883MOL0     H19184  10.394  12.452   5.715 -1.1391 -2.5336 -2.6147
  883MOL0     H19185  10.188  11.533   5.712  0.5913 -0.4034  0.9741
  883MOL0     H19186  10.192  11.362   5.889 -0.2808 -1.8463  0.3152
  883MOL0     H19187  10.161  11.269   6.226 -0.5944 -0.1709 -1.9620
  883MOL0     H19188  10.245  11.149   6.425 -0.3979 -1.7574  1.5174
  883MOL0     H19189  11.175  10.851   7.802  0.0262 -1.9941 -0.6059
  883MOL0     H19190  11.234  10.656   7.930  1.4913  3.5651 -0.2351
  883MOL0     H19191  10.978  10.285   8.157  0.1680 -1.2045  0.7834
  883MOL0     H19192  10.963  10.071   8.256 -1.7216  0.5211  1.3459
  883MOL0     H19193  11.010  10.019   8.650 -2.8199 -3.4673 -0.7798
  883MOL0     H19194  11.184   9.980   8.640  0.3063 -0.1303  0.4441
  883MOL0     H19195  10.937   9.802   8.605 -0.8532  2.4401 -0.6670
  883MOL0     H19196  11.062   9.802   8.733  0.0813 -0.3209  0.0972
  883MOL0     H19197  11.231   9.762   8.557 -1.0739  3.6556 -1.8625
  883MOL0     H19198  11.103   9.711   8.436  1.2256 -0.2895 -0.2856
  883MOL0     H19199  11.170   9.521   8.535 -0.5361 -0.7663  0.5392
  883MOL0     H19200  11.129   9.590   8.704 -0.6533 -0.8627  0.4894
  883MOL0     H19201  10.752   9.502   8.506 -0.2236 -0.8452  0.0910
  883MOL0     H19202  11.253  10.198   8.542 -1.9055 -2.2195  0.6371
  883MOL0     H19203  11.311  10.403   8.581 -0.1853 -0.7331  0.3594
  883MOL0     H19204  11.400  10.401   8.429 -0.3968 -2.2083  2.2721
  883MOL0     H19205  11.296  10.530   8.448  1.4622  0.0780 -3.4592
  884MOL0     O19206   7.188   6.732   9.730 -0.1906 -0.3622  0.4858
  884MOL0     C19207   7.202   6.735   9.857  0.2849  0.1783  0.2987
  884MOL0     O19208   7.161   6.630   9.938 -0.4763 -0.1922 -0.3214
  884MOL0     C19209   7.084   6.532   9.876  0.1572  0.0970 -0.5273
  884MOL0     C19210   7.127   6.414   9.818  0.4404 -0.0146 -0.2031
  884MOL0     C19211   7.039   6.323   9.780  0.8280  0.2863  0.5203
  884MOL0     C19212   6.900   6.338   9.796 -0.0724 -1.0935  0.1586
  884MOL0     O19213   6.811   6.249   9.758 -0.5803  0.4137  0.5567
  884MOL0     C19214   6.841   6.169   9.645  0.0629 -0.0920 -0.4392
  884MOL0     C19215   6.754   6.050   9.648 -0.1880  0.8944 -0.6686
  884MOL0     C19216   6.603   6.078   9.663  0.3371  0.2392  0.6241
  884MOL0     C19217   6.552   6.184   9.568 -0.0230 -0.4286 -0.6634
  884MOL0     C19218   6.402   6.203   9.575  0.4521  0.0992 -0.4255
  884MOL0     C19219   6.372   6.345   9.600 -0.1569 -0.6385  0.6134
  884MOL0     C19220   6.233   6.387   9.647 -0.5357 -0.0385 -0.2490
  884MOL0     C19221   6.139   6.342   9.542 -0.3925  0.1844 -0.0128
  884MOL0     N19222   6.004   6.385   9.575 -0.1271  0.1552 -0.8837
  884MOL0     C19223   5.963   6.510   9.618 -0.6917  0.2450 -0.4680
  884MOL0     C19224   5.829   6.507   9.625  0.7007  0.1163  0.5386
  884MOL0     C19225   5.721   6.599   9.671 -0.1573  1.3880  0.7917
  884MOL0     C19226   5.683   6.583   9.826 -0.4204  0.4738 -0.2054
  884MOL0     C19227   5.763   6.670   9.920  0.2314  0.3217  0.9859
  884MOL0     C19228   5.913   6.649   9.926 -0.9138 -0.6483 -0.2339
  884MOL0     O19229   5.996   6.705   9.822 -0.2836 -0.0934 -0.4832
  884MOL0     C19230   6.042   6.828   9.817  0.6795 -0.6661 -0.6037
  884MOL0     C19231   5.964   6.931   9.767 -0.6003  0.2141  0.6228
  884MOL0     C19232   6.015   7.057   9.753 -0.1018  0.5082 -0.1753
  884MOL0     C19233   6.148   7.092   9.803 -0.2399 -0.5976  0.9834
  884MOL0     C19234   6.195   7.230   9.775  0.7027  0.5338 -0.5281
  884MOL0     O19235   6.114   7.335   9.782  0.1788  0.2581  0.4253
  884MOL0     C19236   6.173   7.459   9.790  0.2271  1.1865  0.4701
  884MOL0     C19237   6.167   7.544   9.683  0.1353 -0.1629  1.1217
  884MOL0     C19238   6.235   7.669   9.689 -0.8356 -0.2820 -0.0440
  884MOL0     C19239   6.306   7.708   9.811  0.4392 -0.0091 -0.3880
  884MOL0     O19240   6.372   7.828   9.829 -0.6877  0.5632  0.2445
  884MOL0     C19241   6.374   7.921   9.716  0.1434  0.3016 -0.9813
  884MOL0     C19242   6.461   8.049   9.759 -0.0717  0.3008  0.3716
  884MOL0     C19243   6.382   8.180   9.754 -0.2538  0.7336 -1.3182
  884MOL0     C19244   6.308   8.190   9.883 -0.4115  0.2525 -0.9013
  884MOL0     C19245   6.190   8.284   9.884  1.0186 -0.3168 -0.1771
  884MOL0     C19246   6.081   8.245   9.782  1.3755  0.9530  0.6152
  884MOL0     C19247   5.983   8.363   9.785 -0.1190  0.6662 -0.0786
  884MOL0     C19248   5.913   8.384   9.653  0.4780  0.3110  0.0299
  884MOL0    Cl19249   5.813   8.231   9.619 -0.2958  0.2093 -0.5710
  884MOL0     C19250   6.324   7.618   9.918  0.1250 -0.0707  0.8971
  884MOL0     C19251   6.246   7.493   9.902  0.0295  0.5772 -0.3589
  884MOL0     O19252   6.318   7.229   9.764  0.5252  0.1982 -0.3356
  884MOL0     C19253   6.229   6.984   9.847  0.1388 -0.8805 -0.3660
  884MOL0     C19254   6.172   6.856   9.864  0.5791  0.3490  0.7656
  884MOL0     N19255   5.798   6.373   9.598  0.1041 -0.6747 -0.8411
  884MOL0     N19256   5.902   6.305   9.560  0.7000  0.3449  0.6435
  884MOL0     C19257   6.855   6.455   9.857  0.2113  0.6881 -0.0308
  884MOL0     C19258   6.949   6.548   9.899  1.3950  0.2558 -0.0575
  884MOL0     C19259   7.276   6.842   9.921  0.4906 -0.0806  0.5875
  884MOL0     C19260   7.356   6.929   9.838  0.6458  0.8347 -0.8486
  884MOL0     C19261   7.446   7.019   9.886 -0.2704 -0.5043 -0.4011
  884MOL0     C19262   7.442   7.048  10.024 -0.2004  0.5526 -0.2285
  884MOL0     O19263   7.534   7.125  10.077  0.0042 -0.2208  0.3173
  884MOL0     C19264   7.610   7.059  10.181  0.2825 -0.1059  0.0318
  884MOL0     C19265   7.760   7.096  10.159 -0.1108  0.6010 -0.4677
  884MOL0     C19266   7.791   7.233  10.210  0.6706  0.0185  0.1169
  884MOL0     C19267   7.798   7.357  10.120  0.3100 -0.4333  0.5564
  884MOL0     C19268   7.920   7.368  10.043 -0.2901  0.3932 -0.1861
  884MOL0     C19269   8.010   7.379   9.964  0.8245 -0.9603 -0.4776
  884MOL0     C19270   7.351   6.982  10.108 -0.2678  0.3484  0.2803
  884MOL0     C19271   7.268   6.885  10.057 -0.0869  0.4140 -0.2068
  884MOL0     C19272   7.171   6.836  10.162 -0.0717  0.0304  0.8478
  884MOL0     H19273   7.235   6.406   9.807  0.4101  1.4583 -2.1264
  884MOL0     H19274   7.082   6.230   9.743  0.4565  1.3256 -2.8716
  884MOL0     H19275   6.843   6.224   9.550  0.4486 -0.1972 -0.4963
  884MOL0     H19276   6.940   6.123   9.643  0.1011 -0.1420 -3.9406
  884MOL0     H19277   6.782   5.990   9.736  0.3084  1.4538 -0.4436
  884MOL0     H19278   6.753   5.985   9.560 -4.7537 -1.4940  0.8157
  884MOL0     H19279   6.570   6.101   9.765 -0.2806 -0.3623  0.5706
  884MOL0     H19280   6.548   5.988   9.635 -0.7600  0.5958  1.5403
  884MOL0     H19281   6.602   6.278   9.594  2.1437 -1.1527 -1.9736
  884MOL0     H19282   6.579   6.158   9.465 -3.1278 -0.2882 -1.6224
  884MOL0     H19283   6.344   6.173   9.488 -1.5003  3.4486 -0.4882
  884MOL0     H19284   6.362   6.155   9.665 -2.1573  2.2847 -0.2597
  884MOL0     H19285   6.436   6.377   9.683  4.4569 -0.5757 -2.6135
  884MOL0     H19286   6.403   6.398   9.509  4.6412 -2.2607  1.0013
  884MOL0     H19287   6.242   6.495   9.656 -0.1047 -0.1352  0.6057
  884MOL0     H19288   6.213   6.354   9.749 -3.3313 -0.1539 -0.7400
  884MOL0     H19289   6.173   6.376   9.443 -0.0891 -1.0790 -0.3656
  884MOL0     H19290   6.144   6.232   9.540 -3.2358 -0.0950  2.2424
  884MOL0     H19291   6.029   6.595   9.634  0.9305 -1.2640  1.4111
  884MOL0     H19292   5.744   6.702   9.644 -1.8897  1.5771 -0.0972
  884MOL0     H19293   5.629   6.568   9.619  0.4931  2.3954 -1.0503
  884MOL0     H19294   5.579   6.617   9.825  0.2854  2.8829  0.0074
  884MOL0     H19295   5.701   6.478   9.851  0.6315  0.6711 -0.0740
  884MOL0     H19296   5.721   6.656  10.020 -2.9737  0.0001 -0.2978
  884MOL0     H19297   5.746   6.774   9.891  2.3260  0.2788 -0.6413
  884MOL0     H19298   5.930   6.541   9.927 -0.7031 -0.6149  0.8889
  884MOL0     H19299   5.941   6.704  10.016 -0.1246  0.8362 -1.3369
  884MOL0     H19300   5.864   6.921   9.727 -0.3897  2.8947 -0.8374
  884MOL0     H19301   5.945   7.130   9.714  0.9319  0.3745 -2.4044
  884MOL0     H19302   6.113   7.511   9.595  2.3519 -0.8009 -0.1005
  884MOL0     H19303   6.237   7.738   9.605  1.1928 -1.9992 -1.5179
  884MOL0     H19304   6.418   7.877   9.626 -0.2616 -1.8415 -0.1750
  884MOL0     H19305   6.271   7.947   9.690 -0.9348 -0.8376  1.8327
  884MOL0     H19306   6.499   8.028   9.860 -4.2905  1.0191  2.3423
  884MOL0     H19307   6.549   8.054   9.695  2.8397 -1.8529  3.7856
  884MOL0     H19308   6.449   8.266   9.747  0.5311  0.3564  0.7191
  884MOL0     H19309   6.319   8.173   9.665 -2.2473 -0.6775  0.0905
  884MOL0     H19310   6.388   8.215   9.953 -2.4846 -0.2753  1.8650
  884MOL0     H19311   6.276   8.093   9.923  1.2371  0.7848  2.0368
  884MOL0     H19312   6.226   8.385   9.862  0.3779  0.0661  0.4999
  884MOL0     H19313   6.144   8.280   9.983  1.1509  1.8337  0.0127
  884MOL0     H19314   6.126   8.229   9.684 -0.5759 -3.3337  0.1956
  884MOL0     H19315   6.040   8.147   9.810  1.2699  0.5511 -0.8387
  884MOL0     H19316   6.033   8.459   9.804 -1.1313  1.3986 -1.0425
  884MOL0     H19317   5.907   8.344   9.862  2.3541 -0.8308  2.2019
  884MOL0     H19318   5.853   8.475   9.662  0.7096  0.9376 -3.3128
  884MOL0     H19319   5.992   8.385   9.577 -0.6628 -0.1349 -1.2011
  884MOL0     H19320   6.380   7.646  10.007  1.5865  1.5706 -0.4591
  884MOL0     H19321   6.238   7.432   9.991 -1.9976  0.6996 -0.4214
  884MOL0     H19322   6.325   7.009   9.891 -1.0876  1.9087  0.9195
  884MOL0     H19323   6.228   6.772   9.904  0.7696  1.8203  3.9209
  884MOL0     H19324   6.749   6.465   9.878 -0.0619  0.5932 -1.2879
  884MOL0     H19325   6.904   6.631   9.952 -3.0596 -1.3768 -0.8730
  884MOL0     H19326   7.365   6.919   9.730 -1.9756 -1.4459 -0.9813
  884MOL0     H19327   7.510   7.071   9.816  3.4233  0.2228  3.1720
  884MOL0     H19328   7.594   6.951  10.175  0.7513 -0.1347 -0.8843
  884MOL0     H19329   7.582   7.105  10.276  0.0309 -0.1793 -0.0055
  884MOL0     H19330   7.785   7.093  10.053 -0.2148 -4.8367 -0.6390
  884MOL0     H19331   7.831   7.034  10.215 -0.0871 -0.4435 -1.6218
  884MOL0     H19332   7.886   7.229  10.263 -0.3902 -0.3401  2.1149
  884MOL0     H19333   7.718   7.256  10.289 -2.6711 -1.3362 -2.3302
  884MOL0     H19334   7.709   7.356  10.056 -0.8045  1.2746  1.9839
  884MOL0     H19335   7.785   7.452  10.174  0.9856  1.0702 -1.7881
  884MOL0     H19336   8.082   7.414   9.892  1.7546  0.0322  0.8850
  884MOL0     H19337   7.344   7.014  10.212 -2.4513 -0.3160  0.3795
  884MOL0     H19338   7.142   6.731  10.155  0.5254 -0.1901  1.5418
  884MOL0     H19339   7.217   6.850  10.260  0.6998  0.9181  0.3789
  884MOL0     H19340   7.087   6.903  10.139  0.0766 -0.0365  0.0755
  885MOL0     O19341   6.586   9.979   7.394 -0.3702  1.0912  0.6329
  885MOL0     C19342   6.625  10.045   7.494  1.7381 -0.8652  0.6513
  885MOL0     O19343   6.751  10.087   7.515  0.6817 -0.6644 -0.0485
  885MOL0     C19344   6.850  10.072   7.414  0.2097 -0.4645 -0.4128
  885MOL0     C19345   6.879   9.950   7.353  0.1877 -0.3647 -0.6735
  885MOL0     C19346   6.989   9.935   7.264 -0.0616  0.0604 -0.6032
  885MOL0     C19347   7.065  10.051   7.242 -0.3013  0.4490  0.2690
  885MOL0     O19348   7.177  10.049   7.165 -0.0620  1.3573 -0.2900
  885MOL0     C19349   7.170   9.977   7.043 -1.0469 -0.7743  0.4211
  885MOL0     C19350   7.299  10.015   6.959 -0.6736  0.0468  0.1203
  885MOL0     C19351   7.427   9.975   7.048 -0.4684  0.0108 -0.1573
  885MOL0     C19352   7.417   9.848   7.138 -0.1532  0.3393  0.2523
  885MOL0     C19353   7.438   9.714   7.053 -0.2935  0.0135  0.1543
  885MOL0     C19354   7.396   9.576   7.116 -0.6705  0.1233  0.3048
  885MOL0     C19355   7.487   9.543   7.236  0.4645 -0.3146 -1.0459
  885MOL0     C19356   7.452   9.407   7.297  0.1664  1.3051 -0.8884
  885MOL0     N19357   7.490   9.296   7.206  0.4185 -0.0615  0.7677
  885MOL0     C19358   7.600   9.217   7.215  0.0182 -0.3657 -0.0283
  885MOL0     C19359   7.586   9.117   7.129  0.9118  0.3616 -0.7497
  885MOL0     C19360   7.686   9.005   7.101  0.5903  0.4325 -0.1783
  885MOL0     C19361   7.647   8.918   6.981 -0.1681  0.1470  0.7427
  885MOL0     C19362   7.679   8.988   6.844  0.7933  0.6468  0.6210
  885MOL0     C19363   7.620   8.913   6.726 -0.8763  0.1636  1.0613
  885MOL0     O19364   7.678   8.952   6.598  0.5946 -0.2802  0.2849
  885MOL0     C19365   7.609   8.911   6.486 -0.3818  0.5928 -0.3162
  885MOL0     C19366   7.666   8.810   6.403  0.1925 -0.0857  0.5059
  885MOL0     C19367   7.601   8.777   6.275 -1.1436 -0.5214 -0.3797
  885MOL0     C19368   7.484   8.840   6.236 -1.1086 -0.7952  0.6635
  885MOL0     C19369   7.402   8.806   6.118 -0.2445  0.2144 -0.2645
  885MOL0     O19370   7.284   8.875   6.087  0.2020  0.2717 -0.3884
  885MOL0     C19371   7.197   8.815   6.001 -0.0682 -0.9251  0.6502
  885MOL0     C19372   7.100   8.723   6.043 -0.0753 -0.9266 -0.2994
  885MOL0     C19373   7.010   8.682   5.937 -0.8392 -0.3146 -0.1573
  885MOL0     C19374   7.011   8.733   5.810  0.1520  0.6464 -0.3339
  885MOL0     O19375   6.912   8.674   5.729  0.5809 -0.0843 -0.1785
  885MOL0     C19376   6.870   8.750   5.620 -0.4261 -0.6395 -0.5625
  885MOL0     C19377   6.729   8.706   5.585 -0.1541  0.5580 -0.4519
  885MOL0     C19378   6.669   8.809   5.497  0.4583 -0.6198 -0.9327
  885MOL0     C19379   6.536   8.735   5.437 -0.8084 -1.0746  0.0647
  885MOL0     C19380   6.457   8.825   5.330 -0.1880 -0.2811  0.3236
  885MOL0     C19381   6.384   8.950   5.402 -0.0686  0.3442  0.4891
  885MOL0     C19382   6.352   9.048   5.288 -0.5916 -0.9189  0.2567
  885MOL0     C19383   6.304   9.186   5.334  0.9293  0.3276 -0.1756
  885MOL0    Cl19384   6.445   9.277   5.396 -0.2849  0.4659  0.2045
  885MOL0     C19385   7.099   8.831   5.773  0.2260 -0.1299  0.3978
  885MOL0     C19386   7.197   8.867   5.866  0.1049 -0.3801  0.6674
  885MOL0     O19387   7.448   8.717   6.046 -0.7375 -0.4340 -0.5165
  885MOL0     C19388   7.443   8.947   6.320  0.3723 -0.6432  0.0997
  885MOL0     C19389   7.501   8.989   6.437  0.4269  0.3944 -0.3028
  885MOL0     N19390   7.459   9.130   7.064 -0.7634 -0.1670  0.1512
  885MOL0     N19391   7.407   9.239   7.108 -0.4859  0.7175 -0.4971
  885MOL0     C19392   7.038  10.172   7.304  0.1649  0.6611  0.1368
  885MOL0     C19393   6.928  10.188   7.386  0.0176  1.2699  0.1488
  885MOL0     C19394   6.516  10.067   7.589 -0.3929  0.5345  0.0684
  885MOL0     C19395   6.383  10.026   7.556  0.6548 -0.9422 -1.1254
  885MOL0     C19396   6.274  10.044   7.657 -1.0490 -0.2699 -0.2140
  885MOL0     C19397   6.292  10.107   7.780  0.5594  0.8543 -0.4495
  885MOL0     O19398   6.196  10.124   7.885 -0.1092  0.2421 -0.3238
  885MOL0     C19399   6.060  10.100   7.862 -0.1039  0.2610 -0.4841
  885MOL0     C19400   6.011  10.000   7.961 -0.4375  1.3595 -0.4777
  885MOL0     C19401   6.064   9.858   7.908 -0.3672 -0.9730  0.1229
  885MOL0     C19402   6.001   9.761   8.000 -0.3168  0.0868 -0.2696
  885MOL0     C19403   6.030   9.622   7.961 -0.3784 -0.1675  0.0396
  885MOL0     C19404   6.047   9.498   7.950  0.3890  0.0893  0.1874
  885MOL0     C19405   6.427  10.142   7.803  0.0408 -0.0676  0.3156
  885MOL0     C19406   6.539  10.128   7.714  1.2470 -0.0078 -0.4438
  885MOL0     C19407   6.660  10.200   7.758 -0.1676 -0.2602  0.4492
  885MOL0     H19408   6.819   9.865   7.385  0.4069  0.8449  3.6863
  885MOL0     H19409   7.004   9.835   7.225 -3.4736 -1.7258  2.1341
  885MOL0     H19410   7.154   9.869   7.054 -5.1414 -0.5334 -1.4472
  885MOL0     H19411   7.086  10.015   6.985 -0.5228 -0.0575  0.1173
  885MOL0     H19412   7.303  10.124   6.952  1.7716 -0.0752 -3.3276
  885MOL0     H19413   7.291   9.966   6.861 -1.2645 -1.0301  0.6850
  885MOL0     H19414   7.447  10.061   7.113 -0.8196  0.5982 -0.8084
  885MOL0     H19415   7.520   9.958   6.993  0.6615  2.7113  0.7469
  885MOL0     H19416   7.489   9.861   7.219  0.7814  0.6332 -0.5954
  885MOL0     H19417   7.318   9.840   7.182 -1.5598 -1.9601 -2.9127
  885MOL0     H19418   7.373   9.720   6.965 -1.7421  1.7355  1.2719
  885MOL0     H19419   7.543   9.709   7.021  0.9993  0.6110  3.8562
  885MOL0     H19420   7.294   9.591   7.153 -0.4637 -1.2591  1.5400
  885MOL0     H19421   7.408   9.505   7.034 -0.5961 -1.2838  1.4907
  885MOL0     H19422   7.477   9.611   7.322 -0.4912 -2.7361  0.8996
  885MOL0     H19423   7.595   9.546   7.217  0.5406 -1.1116 -0.7449
  885MOL0     H19424   7.501   9.390   7.393  0.9821  0.8452 -1.3655
  885MOL0     H19425   7.347   9.405   7.326  0.8098 -2.6987  1.9385
  885MOL0     H19426   7.685   9.245   7.275 -0.9268  0.4169  0.9888
  885MOL0     H19427   7.783   9.050   7.079  1.2167 -0.1723  1.2486
  885MOL0     H19428   7.688   8.951   7.195 -4.3704  1.4218  0.7958
  885MOL0     H19429   7.713   8.831   6.981 -1.8745 -1.2052 -0.1808
  885MOL0     H19430   7.543   8.887   6.996  0.2543 -1.5661  0.3596
  885MOL0     H19431   7.787   8.994   6.826  0.5156  0.3407 -1.3377
  885MOL0     H19432   7.633   9.087   6.852 -0.8235  0.0649 -0.7662
  885MOL0     H19433   7.514   8.939   6.734 -1.6155 -2.4555  0.4844
  885MOL0     H19434   7.628   8.804   6.731  1.7686  0.2253  0.2114
  885MOL0     H19435   7.748   8.749   6.438 -0.3924 -0.9297  0.4488
  885MOL0     H19436   7.637   8.695   6.214 -0.7622 -0.4716 -0.2256
  885MOL0     H19437   7.107   8.674   6.139  0.8443  0.3280  0.2893
  885MOL0     H19438   6.938   8.603   5.958 -1.2772 -0.8101 -3.1109
  885MOL0     H19439   6.870   8.854   5.652 -2.1968 -0.6775 -0.3701
  885MOL0     H19440   6.935   8.745   5.531 -0.8200  1.0055 -0.9678
  885MOL0     H19441   6.753   8.617   5.526 -1.3123  0.6097 -1.0267
  885MOL0     H19442   6.675   8.683   5.677 -2.1270  2.2432 -1.1356
  885MOL0     H19443   6.633   8.891   5.561 -0.8583 -1.7732 -0.1459
  885MOL0     H19444   6.716   8.855   5.410 -2.4687 -1.4223 -3.0790
  885MOL0     H19445   6.470   8.721   5.523 -0.8104  0.9705  0.4492
  885MOL0     H19446   6.562   8.640   5.390  0.6840  0.0250 -1.4426
  885MOL0     H19447   6.387   8.764   5.272 -1.0293  0.5527  0.4383
  885MOL0     H19448   6.540   8.864   5.269 -0.3085 -0.7965 -0.1787
  885MOL0     H19449   6.299   8.924   5.465 -0.9080  1.4102 -0.1622
  885MOL0     H19450   6.461   8.990   5.468  1.1303 -1.5167  0.2988
  885MOL0     H19451   6.279   9.005   5.219 -1.4678  0.0251  0.5825
  885MOL0     H19452   6.445   9.060   5.231 -0.3918  0.8409  0.8995
  885MOL0     H19453   6.275   9.253   5.252  2.2305  3.1357  1.5060
  885MOL0     H19454   6.223   9.176   5.407  2.3152  0.7006  1.4897
  885MOL0     H19455   7.093   8.874   5.674 -4.1217 -0.5559  0.3126
  885MOL0     H19456   7.268   8.944   5.836  1.4245 -1.9298 -0.2945
  885MOL0     H19457   7.358   8.999   6.276  0.2596 -1.6061 -0.8665
  885MOL0     H19458   7.461   9.057   6.512  0.7840  0.6847 -0.3705
  885MOL0     H19459   7.113  10.250   7.303  2.7369 -1.6782  0.5023
  885MOL0     H19460   6.909  10.273   7.451  0.3906  0.9051  0.7397
  885MOL0     H19461   6.357   9.958   7.476 -2.9454 -0.3525 -0.5885
  885MOL0     H19462   6.176  10.001   7.638 -0.9981 -0.2492 -0.5179
  885MOL0     H19463   6.019  10.089   7.761 -0.4986  0.2504 -0.3212
  885MOL0     H19464   6.015  10.195   7.894  1.0415  0.5595  0.3250
  885MOL0     H19465   5.902  10.002   7.957 -0.5523 -0.2217  0.7185
  885MOL0     H19466   6.049  10.024   8.061  1.1150 -2.2987 -0.0092
  885MOL0     H19467   6.172   9.855   7.898 -0.0284  1.9586  1.5924
  885MOL0     H19468   6.015   9.856   7.810 -0.0946 -1.8953 -0.0035
  885MOL0     H19469   6.024   9.777   8.105 -1.8446 -0.1258  0.1263
  885MOL0     H19470   5.892   9.767   7.989 -0.6340  1.6099  2.6618
  885MOL0     H19471   6.062   9.392   7.939  1.7177  0.4980 -3.1849
  885MOL0     H19472   6.452  10.179   7.902  3.0323 -1.1950  0.0913
  885MOL0     H19473   6.647  10.242   7.858 -2.1086 -0.3598  0.2791
  885MOL0     H19474   6.746  10.133   7.752  0.2567  0.2855  0.3983
  885MOL0     H19475   6.680  10.283   7.690  1.6079 -1.8601 -1.1075
  886MOL0     O19476   5.124   7.843   5.349  0.3908 -0.8033  0.3470
  886MOL0     C19477   5.153   7.738   5.303 -0.2724  0.7183 -0.5429
  886MOL0     O19478   5.285   7.701   5.258  0.0388  0.3721 -0.1760
  886MOL0     C19479   5.373   7.802   5.234 -0.2218 -0.8726 -0.1367
  886MOL0     C19480   5.502   7.796   5.289  0.4599 -0.1565  0.4744
  886MOL0     C19481   5.591   7.903   5.287  0.9296  0.5401  0.1028
  886MOL0     C19482   5.561   8.017   5.220  0.1031  1.2627 -0.7545
  886MOL0     O19483   5.661   8.116   5.225  0.4158  0.2293 -0.2473
  886MOL0     C19484   5.623   8.248   5.183 -0.8930 -0.0193  0.0503
  886MOL0     C19485   5.748   8.343   5.194 -0.3012  0.6331  0.0912
  886MOL0     C19486   5.709   8.482   5.128  0.2662 -0.5485  0.5653
  886MOL0     C19487   5.823   8.572   5.164 -0.8736 -0.1561  0.9697
  886MOL0     C19488   5.773   8.712   5.204  0.3979 -0.3367 -0.3517
  886MOL0     C19489   5.704   8.780   5.095  0.8678 -0.3463  0.3761
  886MOL0     C19490   5.651   8.916   5.134 -0.1365 -0.5612  0.5195
  886MOL0     C19491   5.586   8.989   5.014  0.7315 -0.1549  0.5060
  886MOL0     N19492   5.461   8.932   4.970 -0.6120  0.0940  0.4687
  886MOL0     C19493   5.437   8.835   4.880 -0.1629 -0.0386  0.0241
  886MOL0     C19494   5.318   8.771   4.895  1.0279  0.0667  0.6768
  886MOL0     C19495   5.261   8.664   4.804  0.0136 -0.3203  0.8930
  886MOL0     C19496   5.211   8.728   4.667 -0.5214 -0.6950  0.9162
  886MOL0     C19497   5.092   8.663   4.599 -1.0936 -0.7508  0.5488
  886MOL0     C19498   5.109   8.521   4.557 -1.0123  0.1239  0.1136
  886MOL0     O19499   5.008   8.497   4.463 -0.0013 -0.0753  0.2619
  886MOL0     C19500   4.872   8.505   4.502  0.1546 -0.0107  0.0777
  886MOL0     C19501   4.782   8.579   4.418  0.1420 -0.1877 -0.4769
  886MOL0     C19502   4.650   8.579   4.444  0.7728 -0.0024 -0.0693
  886MOL0     C19503   4.596   8.519   4.565  0.5545 -0.4707 -0.3264
  886MOL0     C19504   4.455   8.519   4.590  0.1955 -0.0384 -0.7849
  886MOL0     O19505   4.408   8.414   4.652 -0.3536  1.2389 -0.2831
  886MOL0     C19506   4.273   8.409   4.651 -0.3182 -0.2157  0.5540
  886MOL0     C19507   4.194   8.489   4.737  0.4128 -0.6723 -1.4631
  886MOL0     C19508   4.054   8.493   4.727  0.1708 -1.0462  0.5189
  886MOL0     C19509   3.993   8.426   4.619 -0.1491  0.8845 -0.2287
  886MOL0     O19510   3.854   8.409   4.616 -0.6844 -0.5348 -0.4965
  886MOL0     C19511   3.768   8.507   4.664  0.7936  0.5208  0.2794
  886MOL0     C19512   3.631   8.471   4.602  0.2676 -0.1630 -0.6634
  886MOL0     C19513   3.525   8.576   4.634 -0.0272  0.3068  0.3420
  886MOL0     C19514   3.392   8.541   4.566  0.2427 -0.8575  0.6751
  886MOL0     C19515   3.297   8.455   4.647  0.0149 -0.0488  0.3873
  886MOL0     C19516   3.168   8.418   4.579 -0.3839  0.4432  0.5732
  886MOL0     C19517   3.075   8.544   4.571  0.7593 -0.3713 -0.1530
  886MOL0     C19518   2.940   8.504   4.543  0.3912  0.1208  0.1253
  886MOL0    Cl19519   2.880   8.423   4.687 -0.3201 -0.1448  0.1842
  886MOL0     C19520   4.072   8.341   4.537  0.4119  0.1212 -0.1108
  886MOL0     C19521   4.209   8.335   4.555 -0.0991 -0.0993 -0.1382
  886MOL0     O19522   4.382   8.595   4.519  0.6918 -0.4283  0.0536
  886MOL0     C19523   4.683   8.450   4.647 -0.5077 -0.2005 -0.7475
  886MOL0     C19524   4.815   8.434   4.617  0.7166  0.1838  0.7035
  886MOL0     N19525   5.261   8.849   4.996 -0.1340 -0.2958  0.4028
  886MOL0     N19526   5.345   8.939   5.042  0.0055 -0.2770 -0.0376
  886MOL0     C19527   5.438   8.011   5.145 -0.2891 -0.0727 -0.1860
  886MOL0     C19528   5.348   7.907   5.148 -1.5461  0.5938 -0.3409
  886MOL0     C19529   5.053   7.627   5.295 -0.5580 -0.3509  0.3574
  886MOL0     C19530   5.076   7.522   5.200 -0.3091  0.6772  0.2478
  886MOL0     C19531   4.992   7.414   5.182  0.0851  0.4678 -0.1225
  886MOL0     C19532   4.885   7.395   5.276  1.2365 -0.4875 -0.1365
  886MOL0     O19533   4.823   7.267   5.271  0.3078  0.8351  0.5011
  886MOL0     C19534   4.701   7.235   5.346  0.2419  0.1384  0.3209
  886MOL0     C19535   4.570   7.290   5.290 -0.0447  0.2491  1.4863
  886MOL0     C19536   4.437   7.244   5.363  0.4501 -0.2788 -0.5240
  886MOL0     C19537   4.405   7.100   5.339  0.9628 -0.0259 -0.2921
  886MOL0     C19538   4.271   7.065   5.394 -0.7157  0.1902 -0.0980
  886MOL0     C19539   4.174   7.034   5.457 -1.0841 -0.4566 -0.4707
  886MOL0     C19540   4.849   7.496   5.361 -0.0356 -1.3211  0.0922
  886MOL0     C19541   4.926   7.617   5.361 -0.1371 -0.4243 -0.8219
  886MOL0     C19542   4.866   7.725   5.452 -0.2219 -0.5823 -0.1024
  886MOL0     H19543   5.538   7.706   5.339 -0.5837 -1.8523 -1.6578
  886MOL0     H19544   5.683   7.878   5.339  0.9894 -3.6711 -1.6054
  886MOL0     H19545   5.586   8.251   5.080  2.0295  1.7807 -1.0676
  886MOL0     H19546   5.540   8.292   5.239  0.6854 -1.5670  3.9870
  886MOL0     H19547   5.825   8.301   5.128  0.1365 -1.3751  1.7974
  886MOL0     H19548   5.778   8.368   5.296 -0.6142  3.9180 -0.5123
  886MOL0     H19549   5.619   8.510   5.185  0.1520 -3.1507  1.7835
  886MOL0     H19550   5.699   8.482   5.019  2.0688  2.2564  0.2902
  886MOL0     H19551   5.879   8.540   5.253  1.8154 -1.0239 -0.8967
  886MOL0     H19552   5.898   8.574   5.084  0.8051 -0.1115  2.4883
  886MOL0     H19553   5.694   8.700   5.279  0.3144  0.5294 -0.2807
  886MOL0     H19554   5.860   8.769   5.237 -0.7377  1.7292 -0.7440
  886MOL0     H19555   5.765   8.796   5.005 -0.6717  1.2720 -0.4477
  886MOL0     H19556   5.619   8.719   5.063  0.2150 -1.0154  3.1660
  886MOL0     H19557   5.726   8.983   5.179  1.8805 -1.4580 -1.3524
  886MOL0     H19558   5.573   8.899   5.209 -0.2934 -2.1911  0.0192
  886MOL0     H19559   5.575   9.096   5.030 -1.0812 -0.1616 -0.4488
  886MOL0     H19560   5.654   8.975   4.930  0.3578  1.9957 -0.1972
  886MOL0     H19561   5.524   8.802   4.823  0.9422  0.9711  1.0544
  886MOL0     H19562   5.339   8.590   4.784  1.6563  1.2612  1.2162
  886MOL0     H19563   5.173   8.623   4.854  0.6945 -2.5652  0.3735
  886MOL0     H19564   5.181   8.832   4.683 -3.2027 -1.2945  0.2972
  886MOL0     H19565   5.297   8.730   4.599  0.1867  0.8096  1.8142
  886MOL0     H19566   5.065   8.725   4.513 -2.0744  1.5859  2.4210
  886MOL0     H19567   5.006   8.665   4.667 -0.3772 -0.6027  1.4597
  886MOL0     H19568   5.110   8.452   4.642 -2.8213  1.4149  1.2518
  886MOL0     H19569   5.203   8.506   4.503 -1.1351 -0.0648 -0.0492
  886MOL0     H19570   4.827   8.637   4.339 -0.4072  1.5149  0.4131
  886MOL0     H19571   4.575   8.626   4.381  1.1153  1.1933  0.3900
  886MOL0     H19572   4.234   8.552   4.816 -2.0446  1.5689 -1.8607
  886MOL0     H19573   4.004   8.556   4.800  4.6058  0.2336  2.7717
  886MOL0     H19574   3.753   8.513   4.772  0.0345  0.0472  0.2032
  886MOL0     H19575   3.791   8.606   4.622 -3.3705  1.2967 -0.6185
  886MOL0     H19576   3.652   8.451   4.496 -0.2779 -0.7200 -0.6681
  886MOL0     H19577   3.593   8.374   4.636  1.3616 -0.4252 -0.1420
  886MOL0     H19578   3.517   8.585   4.743  2.0335 -3.1655  0.9149
  886MOL0     H19579   3.554   8.679   4.609 -3.1645  1.7067  1.8412
  886MOL0     H19580   3.401   8.504   4.463  1.1391  2.5813 -0.6420
  886MOL0     H19581   3.336   8.634   4.551  0.3500 -1.0890 -1.5756
  886MOL0     H19582   3.273   8.513   4.736  1.3449  2.0293 -0.5334
  886MOL0     H19583   3.343   8.362   4.682  0.4837  0.3424  0.8136
  886MOL0     H19584   3.186   8.378   4.478  1.9082  0.5801  0.8694
  886MOL0     H19585   3.124   8.337   4.638 -0.8722 -0.7684 -1.3443
  886MOL0     H19586   3.110   8.602   4.486  0.0363  1.7533  0.9450
  886MOL0     H19587   3.062   8.594   4.667 -1.7844 -1.4595  0.1806
  886MOL0     H19588   2.880   8.595   4.529  1.7433  0.9892 -0.2805
  886MOL0     H19589   2.931   8.439   4.455  2.8495 -2.7214  1.7960
  886MOL0     H19590   4.028   8.268   4.469 -0.5611  1.8406 -1.3911
  886MOL0     H19591   4.261   8.265   4.491 -0.0783  0.5691 -0.8669
  886MOL0     H19592   4.630   8.406   4.730  0.4434 -1.8463 -0.9623
  886MOL0     H19593   4.892   8.386   4.678  1.0410 -1.4860 -0.9190
  886MOL0     H19594   5.409   8.095   5.082  1.3654  1.1921  0.6548
  886MOL0     H19595   5.254   7.906   5.093 -1.9323 -1.9112  0.2814
  886MOL0     H19596   5.170   7.528   5.147 -0.5757 -0.1394 -0.3377
  886MOL0     H19597   5.020   7.336   5.113 -3.2833 -2.0828  1.1130
  886MOL0     H19598   4.714   7.282   5.444  1.8867  2.1576 -0.8093
  886MOL0     H19599   4.696   7.126   5.358  3.3083  0.0399  1.5347
  886MOL0     H19600   4.558   7.258   5.186 -2.6122  3.8424  0.4934
  886MOL0     H19601   4.576   7.399   5.283 -0.8384  0.1974 -2.3199
  886MOL0     H19602   4.349   7.303   5.335 -0.0431 -0.6482  0.2339
  886MOL0     H19603   4.430   7.255   5.471  1.8654  0.1968 -0.4584
  886MOL0     H19604   4.408   7.065   5.236 -3.3618 -1.2030 -0.2122
  886MOL0     H19605   4.481   7.043   5.392 -0.1262  0.5227  1.9925
  886MOL0     H19606   4.093   7.008   5.522 -0.6989 -0.9237 -0.1685
  886MOL0     H19607   4.754   7.481   5.410 -1.9629 -1.0476 -3.2131
  886MOL0     H19608   4.849   7.821   5.403  0.3914  0.2298  1.2042
  886MOL0     H19609   4.768   7.691   5.487 -1.0528  0.4068 -1.3765
  886MOL0     H19610   4.926   7.758   5.537 -1.1319  3.5789 -0.8518
  887MOL0     O19611   8.625   5.313   3.155  0.3844  0.6990 -0.3611
  887MOL0     C19612   8.527   5.306   3.088  0.5246  0.1030  0.2816
  887MOL0     O19613   8.402   5.272   3.137  0.3270 -0.7239 -0.8139
  887MOL0     C19614   8.372   5.228   3.263  0.0844 -1.3337 -0.5620
  887MOL0     C19615   8.233   5.224   3.291 -0.9177 -0.3207 -0.6101
  887MOL0     C19616   8.197   5.170   3.419 -0.7781 -0.6322 -0.0239
  887MOL0     C19617   8.286   5.119   3.515 -0.0139 -0.5406  0.3289
  887MOL0     O19618   8.259   5.077   3.637  0.2701  0.3269  0.1303
  887MOL0     C19619   8.140   5.096   3.710 -0.0526 -0.2738  0.0622
  887MOL0     C19620   8.125   5.004   3.832  0.5064  0.8025  0.8297
  887MOL0     C19621   8.117   4.857   3.784  0.1114 -0.0670  0.2184
  887MOL0     C19622   8.050   4.760   3.885  0.7691  0.5103 -0.7734
  887MOL0     C19623   8.029   4.618   3.827 -0.0621  0.0144  0.1223
  887MOL0     C19624   7.980   4.623   3.690  0.1514  0.1561  0.7616
  887MOL0     C19625   7.846   4.694   3.676  1.1421 -0.5318 -0.0600
  887MOL0     C19626   7.779   4.702   3.540  0.3149 -0.6665  0.3528
  887MOL0     N19627   7.864   4.778   3.446  0.0558  0.2263 -0.1317
  887MOL0     C19628   7.958   4.713   3.366  0.7728 -0.2836  0.5445
  887MOL0     C19629   8.038   4.815   3.329  1.0325  0.0987 -0.1730
  887MOL0     C19630   8.161   4.797   3.252 -0.9980 -0.2041 -0.2492
  887MOL0     C19631   8.143   4.864   3.119  0.5191 -0.3254  0.1912
  887MOL0     C19632   8.284   4.873   3.047 -0.3422 -0.4835 -0.1900
  887MOL0     C19633   8.263   4.919   2.896  0.9621 -0.0666 -0.4198
  887MOL0     O19634   8.385   4.933   2.826 -0.3155  0.5978 -0.8499
  887MOL0     C19635   8.406   5.011   2.716 -0.7239  0.5753  0.2894
  887MOL0     C19636   8.542   5.013   2.680 -0.0937  0.0794  0.1352
  887MOL0     C19637   8.580   5.092   2.575 -1.1843 -0.5301 -0.2688
  887MOL0     C19638   8.484   5.164   2.504 -0.5657  0.0176  0.4389
  887MOL0     C19639   8.519   5.240   2.391 -0.9963  0.6253  0.9093
  887MOL0     O19640   8.656   5.249   2.363  0.1456 -0.0720  1.1518
  887MOL0     C19641   8.682   5.325   2.251  1.4344 -0.2115  0.4825
  887MOL0     C19642   8.759   5.442   2.268 -0.4393  0.3816  0.4906
  887MOL0     C19643   8.795   5.519   2.162  0.5347  0.0090 -0.7925
  887MOL0     C19644   8.765   5.482   2.029 -0.2994 -1.0451 -0.1534
  887MOL0     O19645   8.801   5.567   1.925  0.4599 -0.3570  0.2716
  887MOL0     C19646   8.697   5.625   1.841  0.4915 -0.0212  0.0089
  887MOL0     C19647   8.762   5.730   1.755 -0.8181 -0.0777 -1.3777
  887MOL0     C19648   8.819   5.846   1.834  0.5564  0.7139  0.6043
  887MOL0     C19649   8.881   5.946   1.741 -0.1091 -0.5690 -0.0440
  887MOL0     C19650   8.918   6.074   1.810 -0.4183  0.1526 -0.4590
  887MOL0     C19651   8.972   6.181   1.718 -0.5262 -0.1000  0.2660
  887MOL0     C19652   8.881   6.214   1.612 -0.0281 -0.4729 -0.1651
  887MOL0     C19653   8.937   6.342   1.546  0.5120  0.8826 -0.0218
  887MOL0    Cl19654   8.898   6.325   1.370  0.2285 -0.1859 -0.3493
  887MOL0     C19655   8.691   5.362   2.010 -0.9427  0.1952  0.3342
  887MOL0     C19656   8.645   5.292   2.124  0.6280 -0.1936  0.5238
  887MOL0     O19657   8.426   5.291   2.324 -0.1070  0.2074  0.4495
  887MOL0     C19658   8.348   5.153   2.541  0.4153  0.4147 -0.7730
  887MOL0     C19659   8.310   5.067   2.641  0.0147  0.0968 -0.8888
  887MOL0     N19660   7.991   4.930   3.382  0.5339 -0.0033 -0.5426
  887MOL0     N19661   7.887   4.913   3.457  0.3103  0.1029 -0.1378
  887MOL0     C19662   8.418   5.125   3.485 -0.2605  0.1081  0.5549
  887MOL0     C19663   8.466   5.182   3.367 -0.7127 -0.6249  0.6214
  887MOL0     C19664   8.540   5.364   2.954  0.5399  0.5640  0.2006
  887MOL0     C19665   8.443   5.455   2.912 -0.1234 -0.5776  0.0915
  887MOL0     C19666   8.439   5.501   2.779  0.8700 -0.4742 -1.2122
  887MOL0     C19667   8.544   5.464   2.692  0.5164 -0.0077 -0.7350
  887MOL0     O19668   8.549   5.508   2.567  0.4757 -0.5095 -0.3358
  887MOL0     C19669   8.449   5.587   2.515  0.2609 -0.4883  0.1801
  887MOL0     C19670   8.499   5.640   2.377 -0.8228 -0.8483  0.5454
  887MOL0     C19671   8.408   5.761   2.324  0.4815 -0.1619 -0.2118
  887MOL0     C19672   8.494   5.839   2.228  0.9244  0.6626 -0.2568
  887MOL0     C19673   8.428   5.953   2.175  0.4384  0.5851 -0.4132
  887MOL0     C19674   8.371   6.033   2.106  0.1900  0.5274 -0.0655
  887MOL0     C19675   8.637   5.380   2.741 -1.0045 -0.5324  0.4950
  887MOL0     C19676   8.646   5.326   2.866 -0.1855  0.6366 -0.7548
  887MOL0     C19677   8.768   5.241   2.910  0.1987 -0.6462  0.4088
  887MOL0     H19678   8.170   5.272   3.217 -1.9004 -0.6236  0.0159
  887MOL0     H19679   8.094   5.168   3.453  0.3815 -1.5398  3.8187
  887MOL0     H19680   8.153   5.193   3.758  4.8931 -1.6194  2.0169
  887MOL0     H19681   8.049   5.097   3.649  0.3856 -0.3939 -0.6132
  887MOL0     H19682   8.032   5.016   3.890 -0.8032 -1.9992 -0.4738
  887MOL0     H19683   8.216   5.011   3.891  0.3168 -2.6136  1.7178
  887MOL0     H19684   8.218   4.823   3.759  0.3904  0.7302  0.2465
  887MOL0     H19685   8.056   4.858   3.693  2.0755 -4.1836 -1.3940
  887MOL0     H19686   8.115   4.750   3.972  4.8163  2.0324 -3.3222
  887MOL0     H19687   7.957   4.806   3.919  1.8151  0.7715  1.9549
  887MOL0     H19688   8.128   4.572   3.829 -0.6272 -1.2888  2.5912
  887MOL0     H19689   7.961   4.553   3.883 -1.5922  3.2404  2.3353
  887MOL0     H19690   8.054   4.671   3.626  0.4394 -0.5950  0.5301
  887MOL0     H19691   7.965   4.527   3.641  0.2852  0.4515  0.1326
  887MOL0     H19692   7.843   4.795   3.716 -1.4475  0.3005 -2.0764
  887MOL0     H19693   7.784   4.635   3.745 -0.0793  1.0704  0.2565
  887MOL0     H19694   7.750   4.605   3.500 -2.4439  0.8211 -1.5864
  887MOL0     H19695   7.680   4.746   3.548 -0.6913 -2.5416 -1.0444
  887MOL0     H19696   7.962   4.606   3.351  1.2714 -0.3018  0.7920
  887MOL0     H19697   8.241   4.841   3.312 -0.9499 -0.6989  0.0521
  887MOL0     H19698   8.178   4.689   3.255 -0.5723 -0.1238  0.2411
  887MOL0     H19699   8.068   4.807   3.062  1.0469 -1.1976  0.3437
  887MOL0     H19700   8.102   4.965   3.131 -0.0417 -0.7371  2.1002
  887MOL0     H19701   8.328   4.773   3.045  2.0487  0.3916  2.2114
  887MOL0     H19702   8.351   4.940   3.102 -2.2231 -0.5356  2.3601
  887MOL0     H19703   8.221   5.019   2.907  2.3094  0.5733 -0.8256
  887MOL0     H19704   8.200   4.849   2.841 -1.3206  0.1079  1.7634
  887MOL0     H19705   8.617   4.958   2.736  0.0637 -1.9947 -1.9633
  887MOL0     H19706   8.685   5.097   2.549 -1.3811 -0.4259 -1.0439
  887MOL0     H19707   8.775   5.475   2.370 -1.0794 -2.2665  1.5246
  887MOL0     H19708   8.848   5.607   2.197 -3.9484  1.2728  3.8332
  887MOL0     H19709   8.642   5.551   1.782 -0.9950  0.1929  1.0621
  887MOL0     H19710   8.630   5.676   1.912  1.5456  0.2763  0.8136
  887MOL0     H19711   8.839   5.674   1.702 -1.8705 -5.0000  1.6556
  887MOL0     H19712   8.687   5.756   1.680 -1.9449 -2.5884 -1.2144
  887MOL0     H19713   8.736   5.880   1.897 -1.3556 -1.1770 -0.7036
  887MOL0     H19714   8.895   5.803   1.899  0.7068 -1.6587 -1.0216
  887MOL0     H19715   8.815   5.960   1.656  1.1280 -0.2585 -0.9788
  887MOL0     H19716   8.975   5.903   1.704  0.3317 -1.6724  2.1924
  887MOL0     H19717   8.993   6.058   1.888 -2.4885 -2.5869  1.1734
  887MOL0     H19718   8.829   6.120   1.855 -1.2271 -0.8115 -1.0335
  887MOL0     H19719   8.982   6.270   1.781 -2.1598 -1.0462  1.9458
  887MOL0     H19720   9.068   6.148   1.677  0.1889  1.8840  0.2221
  887MOL0     H19721   8.785   6.233   1.660  0.3417 -0.2635  0.5076
  887MOL0     H19722   8.882   6.143   1.529 -0.4750  1.4583 -1.8835
  887MOL0     H19723   8.891   6.430   1.591 -0.4090 -0.1424  1.1046
  887MOL0     H19724   9.045   6.356   1.563 -0.0049  2.2859  2.4954
  887MOL0     H19725   8.665   5.331   1.909  0.5198 -2.4485  0.6734
  887MOL0     H19726   8.571   5.216   2.102  2.1579 -1.3028 -1.1175
  887MOL0     H19727   8.271   5.204   2.484 -0.5051  0.6936  0.6809
  887MOL0     H19728   8.207   5.056   2.672  0.7415  2.4121  2.9162
  887MOL0     H19729   8.485   5.097   3.566  1.0763  0.3117 -0.4400
  887MOL0     H19730   8.573   5.187   3.353 -1.0567 -0.7876 -2.8763
  887MOL0     H19731   8.361   5.488   2.974 -1.8706 -0.9726 -1.8800
  887MOL0     H19732   8.366   5.578   2.755  0.5024 -0.0627  0.9909
  887MOL0     H19733   8.437   5.673   2.582  0.4895 -1.1479  1.0823
  887MOL0     H19734   8.357   5.529   2.518 -2.5024  3.2074 -3.0715
  887MOL0     H19735   8.521   5.562   2.304 -0.3537 -0.4026  0.2061
  887MOL0     H19736   8.594   5.692   2.392 -2.0855  1.5086  0.9128
  887MOL0     H19737   8.377   5.832   2.402 -0.0878 -0.5127 -0.1111
  887MOL0     H19738   8.331   5.708   2.267 -0.2529  0.5954  0.0448
  887MOL0     H19739   8.588   5.865   2.276  0.7844  0.6714  0.0152
  887MOL0     H19740   8.515   5.774   2.143  0.5971 -1.2528  1.0538
  887MOL0     H19741   8.300   6.104   2.069  0.2137  0.2054 -0.7415
  887MOL0     H19742   8.717   5.341   2.679 -0.1605 -0.3386  1.4208
  887MOL0     H19743   8.814   5.192   2.823 -0.6827 -3.4800  1.4225
  887MOL0     H19744   8.847   5.295   2.963 -0.7790 -1.7076  3.1508
  887MOL0     H19745   8.733   5.158   2.972  0.2967 -1.9804 -1.2639
  888MOL0     O19746   1.782   6.805  10.949  0.4364  0.2275 -0.1893
  888MOL0     C19747   1.738   6.694  10.985 -0.1922 -0.2224  0.3504
  888MOL0     O19748   1.812   6.595  11.032  0.4963  0.1058  1.0360
  888MOL0     C19749   1.954   6.608  11.039  0.6587  0.0280 -0.2121
  888MOL0     C19750   2.020   6.640  11.161 -0.2696 -0.1937 -0.1881
  888MOL0     C19751   2.147   6.693  11.156 -0.7985  0.5126 -0.3271
  888MOL0     C19752   2.214   6.702  11.039 -0.1303  0.2233 -0.5178
  888MOL0     O19753   2.340   6.757  11.038 -1.0853  0.0020 -0.0505
  888MOL0     C19754   2.433   6.702  11.126 -0.0994  0.4698 -0.2458
  888MOL0     C19755   2.568   6.681  11.055 -0.5215  0.4899  0.4128
  888MOL0     C19756   2.643   6.572  11.131  1.3456  0.8199  0.0903
  888MOL0     C19757   2.791   6.559  11.090 -0.7655  0.6770  1.1441
  888MOL0     C19758   2.853   6.470  11.200 -0.0655 -0.2446  0.2685
  888MOL0     C19759   2.998   6.461  11.161 -0.4568  0.3754 -0.2999
  888MOL0     C19760   3.061   6.355  11.246 -0.7808  0.3710 -0.1223
  888MOL0     C19761   3.210   6.353  11.211  0.1671  0.8091  0.2609
  888MOL0     N19762   3.269   6.462  11.282 -0.0776 -1.3846 -0.1491
  888MOL0     C19763   3.344   6.442  11.403 -0.1155  0.5714  0.1022
  888MOL0     C19764   3.432   6.541  11.408  0.0176  0.1251 -0.1237
  888MOL0     C19765   3.567   6.550  11.482 -0.0918  0.1333  0.3886
  888MOL0     C19766   3.667   6.453  11.422 -0.8201 -0.0381  0.3811
  888MOL0     C19767   3.819   6.493  11.474 -0.2457  0.0748  0.9380
  888MOL0     C19768   3.926   6.410  11.394 -0.8453  0.0292 -0.3598
  888MOL0     O19769   4.048   6.380  11.466 -0.5481 -0.0422 -0.2987
  888MOL0     C19770   4.158   6.345  11.400 -0.2306 -0.4239  0.2037
  888MOL0     C19771   4.160   6.323  11.254  0.4342  0.0281 -0.7181
  888MOL0     C19772   4.276   6.293  11.191 -0.4006  0.5841  0.0371
  888MOL0     C19773   4.400   6.276  11.269  1.0228  0.4430 -0.9214
  888MOL0     C19774   4.520   6.234  11.208  0.1268  0.7074  0.7487
  888MOL0     O19775   4.503   6.181  11.088 -0.2812  0.6360  0.2741
  888MOL0     C19776   4.614   6.156  11.009  0.2332 -0.3940 -0.5834
  888MOL0     C19777   4.677   6.239  10.912  0.6458 -0.1734 -0.2581
  888MOL0     C19778   4.791   6.206  10.831  0.2472 -0.2145 -0.2286
  888MOL0     C19779   4.838   6.078  10.854 -0.5827  1.0966  0.5861
  888MOL0     O19780   4.951   6.026  10.795  0.1742  0.4969 -0.0329
  888MOL0     C19781   5.024   6.120  10.710 -0.1326 -0.2826 -0.0854
  888MOL0     C19782   5.165   6.073  10.683  0.2975 -0.3886  0.1570
  888MOL0     C19783   5.242   6.064  10.811 -0.0867  0.3422 -0.7233
  888MOL0     C19784   5.384   6.007  10.787  0.2084 -0.5862  0.3953
  888MOL0     C19785   5.440   5.970  10.932 -0.1755  0.2677  0.3146
  888MOL0     C19786   5.429   5.822  10.953  1.1524  0.4827  0.2776
  888MOL0     C19787   5.452   5.776  11.089  0.7475 -0.7117  0.1859
  888MOL0     C19788   5.408   5.629  11.128 -0.1664 -0.2446  0.1790
  888MOL0    Cl19789   5.529   5.506  11.065 -0.1407  0.3036  0.0664
  888MOL0     C19790   4.766   5.983  10.934 -0.0715 -0.1723  0.1928
  888MOL0     C19791   4.664   6.019  11.012 -0.2460  1.1637 -0.2734
  888MOL0     O19792   4.624   6.239  11.271 -1.3197  0.5319 -0.2399
  888MOL0     C19793   4.389   6.290  11.408 -0.0450 -0.2717 -0.5759
  888MOL0     C19794   4.276   6.337  11.478  0.2296 -0.3757 -0.3410
  888MOL0     N19795   3.410   6.628  11.300  0.3353 -0.7237 -0.1327
  888MOL0     N19796   3.315   6.584  11.230 -0.2524 -0.7842  0.1001
  888MOL0     C19797   2.150   6.665  10.917 -0.3367  0.0294 -0.5084
  888MOL0     C19798   2.020   6.621  10.916  0.0501 -0.0486  0.5032
  888MOL0     C19799   1.594   6.669  10.966  0.8961  0.9726  0.3710
  888MOL0     C19800   1.541   6.566  11.041  0.2042 -0.4642  0.8200
  888MOL0     C19801   1.408   6.526  11.035 -0.0625 -0.5578 -0.0815
  888MOL0     C19802   1.320   6.589  10.951  0.0184  0.2625 -0.6653
  888MOL0     O19803   1.193   6.552  10.974 -0.1739  0.0188 -0.5380
  888MOL0     C19804   1.081   6.589  10.889 -0.2972  0.4621 -0.1864
  888MOL0     C19805   1.072   6.498  10.758  0.2765  0.0527 -0.0158
  888MOL0     C19806   0.941   6.526  10.677  1.3929 -0.3210 -0.1518
  888MOL0     C19807   0.930   6.443  10.543 -0.4283 -0.3009 -0.1095
  888MOL0     C19808   0.788   6.433  10.497  0.4828  0.4121  0.2508
  888MOL0     C19809   0.680   6.435  10.448  0.8646 -0.5592 -0.1338
  888MOL0     C19810   1.366   6.689  10.868  0.0912 -0.6327 -0.3586
  888MOL0     C19811   1.502   6.730  10.878  0.3321  1.1816  0.4458
  888MOL0     C19812   1.552   6.835  10.789  0.3785 -0.1738 -0.2227
  888MOL0     H19813   1.982   6.628  11.262 -0.6577 -0.7228 -0.3988
  888MOL0     H19814   2.205   6.722  11.244 -1.3595  0.7483 -0.0307
  888MOL0     H19815   2.448   6.761  11.217  1.9120 -2.2868  1.3194
  888MOL0     H19816   2.396   6.604  11.155 -0.5958  0.2738 -1.4709
  888MOL0     H19817   2.632   6.770  11.054  2.6473 -1.6215  0.4482
  888MOL0     H19818   2.550   6.649  10.952 -0.6954 -2.4071  1.2576
  888MOL0     H19819   2.589   6.478  11.119 -0.1739  1.1444  3.3944
  888MOL0     H19820   2.639   6.602  11.236  1.0474 -2.0677  0.9756
  888MOL0     H19821   2.796   6.495  11.001  3.4776  0.9649  0.9812
  888MOL0     H19822   2.836   6.657  11.078 -0.5008  0.7049  2.2790
  888MOL0     H19823   2.840   6.524  11.295  1.4782 -1.7727  1.4003
  888MOL0     H19824   2.800   6.375  11.201 -1.0871  0.1017 -3.6654
  888MOL0     H19825   3.013   6.436  11.055  2.4498  0.0185  0.1257
  888MOL0     H19826   3.043   6.559  11.177  1.4514 -0.4034 -0.6186
  888MOL0     H19827   3.022   6.256  11.221  0.8486 -0.3704  0.1069
  888MOL0     H19828   3.047   6.382  11.351  2.1011  1.4500  0.0710
  888MOL0     H19829   3.262   6.264  11.249  1.4655  1.2755 -0.3748
  888MOL0     H19830   3.214   6.353  11.102  0.8432 -1.4242  0.2379
  888MOL0     H19831   3.356   6.352  11.464 -3.4182 -1.7174 -2.2335
  888MOL0     H19832   3.604   6.653  11.483  1.0238 -0.1618 -2.3350
  888MOL0     H19833   3.549   6.518  11.585  0.4663 -0.9014  0.1809
  888MOL0     H19834   3.638   6.352  11.453 -3.6022  0.7162  0.4907
  888MOL0     H19835   3.660   6.452  11.313  0.3766  0.8940  0.2700
  888MOL0     H19836   3.821   6.451  11.575  1.9704 -2.0534  0.1262
  888MOL0     H19837   3.830   6.601  11.463 -1.3751  0.0824 -0.3274
  888MOL0     H19838   3.961   6.461  11.303 -3.3378  0.8497 -0.9324
  888MOL0     H19839   3.878   6.316  11.365 -0.9731 -0.2411  0.6846
  888MOL0     H19840   4.078   6.319  11.183 -4.2508 -0.0101  4.0859
  888MOL0     H19841   4.276   6.284  11.083 -0.2132 -2.2801  0.2003
  888MOL0     H19842   4.642   6.336  10.879  0.9229 -0.8253 -2.6952
  888MOL0     H19843   4.838   6.277  10.764  2.0915  0.4282  1.6550
  888MOL0     H19844   4.960   6.131  10.623 -0.5597  0.0040  0.2607
  888MOL0     H19845   5.041   6.220  10.751 -0.7214 -0.2447  0.0649
  888MOL0     H19846   5.160   5.976  10.632  0.0776 -0.5109  0.4128
  888MOL0     H19847   5.217   6.141  10.615  0.3954 -2.6856 -2.2517
  888MOL0     H19848   5.234   6.150  10.879  2.1359  0.9171 -1.1183
  888MOL0     H19849   5.199   5.980  10.866 -1.7116  1.7249  0.2023
  888MOL0     H19850   5.447   6.085  10.745 -0.5765  0.1406  0.5291
  888MOL0     H19851   5.390   5.920  10.720 -0.2803 -0.7362  0.5361
  888MOL0     H19852   5.395   6.030  11.011 -1.6379  2.2620 -1.9022
  888MOL0     H19853   5.544   6.001  10.919 -0.4457  0.4818 -1.5393
  888MOL0     H19854   5.326   5.801  10.920  1.5403  1.2489 -1.4808
  888MOL0     H19855   5.498   5.772  10.885 -0.0918 -0.5285 -0.3106
  888MOL0     H19856   5.397   5.840  11.160  0.4392 -2.2841  1.4165
  888MOL0     H19857   5.557   5.788  11.121  0.4020 -0.3758  1.2498
  888MOL0     H19858   5.404   5.620  11.237 -3.0113 -1.5076  0.0568
  888MOL0     H19859   5.311   5.596  11.090 -0.6594 -0.3905  1.4995
  888MOL0     H19860   4.790   5.879  10.916  1.5371  0.2928 -0.5439
  888MOL0     H19861   4.629   5.935  11.072 -1.8116  2.3050  0.4980
  888MOL0     H19862   4.478   6.264  11.465  0.8145 -1.0912 -2.2138
  888MOL0     H19863   4.283   6.338  11.586  1.4548 -5.5955 -0.1152
  888MOL0     H19864   2.218   6.665  10.833  0.5972 -1.5279  0.1847
  888MOL0     H19865   1.973   6.617  10.819 -0.2197  1.5342  0.5413
  888MOL0     H19866   1.600   6.508  11.111  0.7691  1.0463  1.6345
  888MOL0     H19867   1.372   6.448  11.101 -0.7629  1.6259  2.2815
  888MOL0     H19868   1.086   6.692  10.855  1.1642 -0.3252 -2.6141
  888MOL0     H19869   0.986   6.561  10.937 -0.2463 -1.3815 -1.0864
  888MOL0     H19870   1.058   6.396  10.794  1.9206 -0.0093  0.5167
  888MOL0     H19871   1.167   6.519  10.707  1.3102 -0.1418  1.7657
  888MOL0     H19872   0.921   6.633  10.663  0.8555 -0.6009 -1.6156
  888MOL0     H19873   0.853   6.504  10.737  1.7600  0.1585  0.5805
  888MOL0     H19874   0.978   6.510  10.470 -0.6290 -1.6517 -1.5374
  888MOL0     H19875   0.973   6.343  10.549  1.5652  0.5201  0.0658
  888MOL0     H19876   0.592   6.444  10.387  1.2602  1.2501 -0.4871
  888MOL0     H19877   1.299   6.742  10.801 -0.7045  1.3124  1.8150
  888MOL0     H19878   1.555   6.927  10.848  1.7302  0.0059 -0.5463
  888MOL0     H19879   1.649   6.808  10.746  0.6771  1.0014 -0.3196
  888MOL0     H19880   1.493   6.842  10.697  1.0142  2.5102 -0.5205
  889MOL0     O19881   2.167   3.388   9.027  0.0652 -0.4918 -0.8674
  889MOL0     C19882   2.211   3.368   8.915 -0.4664  0.0325  0.2364
  889MOL0     O19883   2.139   3.314   8.819  0.2339 -0.1756  0.3341
  889MOL0     C19884   2.042   3.220   8.851 -0.0221 -0.2601 -0.1976
  889MOL0     C19885   1.923   3.209   8.775  0.0403  0.4175  0.7077
  889MOL0     C19886   1.826   3.113   8.805  0.9239  0.2416  0.0074
  889MOL0     C19887   1.847   3.020   8.902 -0.3979 -0.4220 -0.2922
  889MOL0     O19888   1.757   2.928   8.939 -0.6565  0.4279  0.0670
  889MOL0     C19889   1.696   2.960   9.062  0.2359 -0.9098 -0.0117
  889MOL0     C19890   1.541   2.944   9.061 -0.1336 -0.2449  0.2036
  889MOL0     C19891   1.487   2.987   8.923 -0.1519  0.2905 -0.0989
  889MOL0     C19892   1.355   3.050   8.917  0.0317  0.0142 -0.4853
  889MOL0     C19893   1.245   2.944   8.951 -0.3052  0.3870 -0.1223
  889MOL0     C19894   1.109   3.014   8.957 -0.5626  0.7584  0.1303
  889MOL0     C19895   1.001   2.917   8.998 -0.0188 -0.2424  0.0524
  889MOL0     C19896   0.862   2.981   9.008 -0.5623  0.9187 -0.0524
  889MOL0     N19897   0.847   3.042   9.145  0.4806  0.2404  0.1363
  889MOL0     C19898   0.842   2.972   9.267 -0.3060 -0.8872 -0.8822
  889MOL0     C19899   0.832   3.071   9.348 -0.7634 -0.6509  0.2153
  889MOL0     C19900   0.825   3.047   9.494  0.1087  0.5276 -0.6017
  889MOL0     C19901   0.931   3.104   9.574  0.5359 -0.9499  0.3414
  889MOL0     C19902   0.903   3.250   9.592 -0.1225  0.0275  0.2888
  889MOL0     C19903   0.971   3.307   9.707 -1.1011 -0.7548 -0.3062
  889MOL0     O19904   1.113   3.281   9.693 -0.1849 -0.4232 -0.0349
  889MOL0     C19905   1.203   3.381   9.670  0.2709  0.2785 -0.3018
  889MOL0     C19906   1.334   3.357   9.627  0.9416  0.1083  0.2514
  889MOL0     C19907   1.421   3.462   9.605  0.4106  0.1766 -0.7251
  889MOL0     C19908   1.388   3.588   9.641  0.0434 -0.6086  0.2958
  889MOL0     C19909   1.491   3.694   9.620 -0.1319  0.2732 -0.8783
  889MOL0     O19910   1.488   3.798   9.709 -0.5009 -0.3411  0.9869
  889MOL0     C19911   1.592   3.887   9.693  0.1975 -0.4621  0.0421
  889MOL0     C19912   1.589   4.003   9.612  0.1232  0.5263  0.6108
  889MOL0     C19913   1.699   4.094   9.599  1.3291  0.4393 -0.2654
  889MOL0     C19914   1.820   4.066   9.674 -0.2245  1.0170  0.1211
  889MOL0     O19915   1.933   4.140   9.667 -0.7193  0.0095 -0.1514
  889MOL0     C19916   1.944   4.274   9.610 -0.0536 -0.8133 -0.1016
  889MOL0     C19917   1.872   4.383   9.694  0.9146  0.6628 -0.3570
  889MOL0     C19918   1.888   4.382   9.845  0.1551 -1.3073  0.4191
  889MOL0     C19919   1.835   4.517   9.906  0.0978  0.4609  0.1634
  889MOL0     C19920   1.881   4.541  10.051 -0.3485 -0.7154  0.8260
  889MOL0     C19921   1.848   4.683  10.094 -0.4628 -0.0146  0.1949
  889MOL0     C19922   1.704   4.697  10.128  0.0503  0.3863 -0.8955
  889MOL0     C19923   1.662   4.825  10.202  0.6526  0.4651 -0.2516
  889MOL0    Cl19924   1.488   4.807  10.230 -0.0945 -0.1355 -0.3344
  889MOL0     C19925   1.821   3.951   9.755 -1.1480  0.8245  0.3212
  889MOL0     C19926   1.712   3.861   9.753 -0.7474  0.5230  0.3562
  889MOL0     O19927   1.570   3.674   9.533 -0.0013  0.2518  1.0758
  889MOL0     C19928   1.270   3.619   9.702 -0.3139  0.2044  0.1629
  889MOL0     C19929   1.177   3.519   9.710 -0.4057  0.8739  0.3161
  889MOL0     N19930   0.850   3.190   9.282  0.3888 -0.0622  0.3512
  889MOL0     N19931   0.859   3.174   9.159 -0.6105  0.2427 -0.3215
  889MOL0     C19932   1.973   3.026   8.962 -0.6999  0.1696 -0.2777
  889MOL0     C19933   2.075   3.127   8.948  0.0663  0.3317 -0.0439
  889MOL0     C19934   2.357   3.392   8.882 -0.8668  0.2251 -0.0623
  889MOL0     C19935   2.414   3.307   8.784 -0.5649 -0.2212 -0.2817
  889MOL0     C19936   2.548   3.326   8.750  0.2032  0.5573 -1.0848
  889MOL0     C19937   2.626   3.438   8.798  0.7434 -0.7043  1.5306
  889MOL0     O19938   2.755   3.456   8.768 -0.5683 -0.2461 -0.1026
  889MOL0     C19939   2.819   3.367   8.681  0.1772  0.8503 -0.7193
  889MOL0     C19940   2.969   3.400   8.661  0.7241 -0.1014 -0.1975
  889MOL0     C19941   3.047   3.392   8.794 -0.4475  0.0128  1.0371
  889MOL0     C19942   3.188   3.460   8.785  0.0149 -0.0882 -0.4298
  889MOL0     C19943   3.240   3.463   8.928 -0.2427  0.6336  0.6383
  889MOL0     C19944   3.283   3.451   9.038  0.6306  0.2341  0.0536
  889MOL0     C19945   2.564   3.520   8.890 -0.3066  0.2908  0.6394
  889MOL0     C19946   2.433   3.496   8.937 -0.6696  0.0302 -0.6906
  889MOL0     C19947   2.356   3.596   9.026  0.2412 -0.5666 -0.7663
  889MOL0     H19948   1.894   3.284   8.702 -0.8373  0.1220  0.7364
  889MOL0     H19949   1.722   3.125   8.776  1.0581 -0.8027 -0.9433
  889MOL0     H19950   1.736   2.893   9.139 -2.0106 -1.7750  0.5003
  889MOL0     H19951   1.708   3.067   9.081 -0.0678 -0.8876  0.0609
  889MOL0     H19952   1.504   2.994   9.151 -0.9454 -1.8287  0.7974
  889MOL0     H19953   1.521   2.838   9.076  0.1708  0.1835  6.3824
  889MOL0     H19954   1.485   2.894   8.865  0.3971 -0.7689  1.5029
  889MOL0     H19955   1.550   3.048   8.858  0.7635 -2.5640 -2.1026
  889MOL0     H19956   1.350   3.147   8.969  1.6653  1.8228 -3.4173
  889MOL0     H19957   1.341   3.076   8.812 -1.0584 -3.6666 -1.3818
  889MOL0     H19958   1.257   2.863   8.879 -0.5289 -1.8234  2.1853
  889MOL0     H19959   1.267   2.905   9.051 -0.1434  3.8673  1.3630
  889MOL0     H19960   1.109   3.098   9.027 -0.1654  2.1312 -1.4364
  889MOL0     H19961   1.088   3.061   8.860 -0.7316  2.5027  0.9618
  889MOL0     H19962   1.026   2.862   9.089 -1.3731 -0.4988  0.2832
  889MOL0     H19963   0.994   2.837   8.924  0.6511 -3.3937  3.1289
  889MOL0     H19964   0.844   3.065   8.940 -4.1620  1.2847  1.1313
  889MOL0     H19965   0.790   2.902   8.985  0.5738  0.4721 -2.4719
  889MOL0     H19966   0.848   2.865   9.285  2.8794 -1.3499 -3.7628
  889MOL0     H19967   0.733   3.094   9.528  1.1166  2.0386  0.1459
  889MOL0     H19968   0.831   2.939   9.514  4.3836  0.6250 -0.4099
  889MOL0     H19969   0.925   3.061   9.674 -0.1375  1.3091  1.3392
  889MOL0     H19970   1.026   3.081   9.524  0.4035 -0.5948 -0.0770
  889MOL0     H19971   0.795   3.262   9.603  0.1362  1.2727  1.9772
  889MOL0     H19972   0.942   3.301   9.504 -0.2387  1.1212  0.8553
  889MOL0     H19973   0.921   3.249   9.785 -2.6193  0.0563 -0.6249
  889MOL0     H19974   0.937   3.409   9.723 -1.6806 -0.8300 -0.9608
  889MOL0     H19975   1.369   3.259   9.596 -0.8824 -0.3978 -0.3469
  889MOL0     H19976   1.523   3.447   9.572  1.6912  1.1678  2.4006
  889MOL0     H19977   1.504   4.030   9.549  1.7049  0.8456 -1.4868
  889MOL0     H19978   1.686   4.180   9.534 -1.3563 -0.7688 -1.5014
  889MOL0     H19979   2.050   4.298   9.604 -0.0044 -1.3377 -2.7613
  889MOL0     H19980   1.914   4.260   9.506  0.6498 -0.2670 -0.3858
  889MOL0     H19981   1.899   4.482   9.656 -2.5843  3.3527  3.2858
  889MOL0     H19982   1.764   4.380   9.674  0.9599 -2.1730 -0.7104
  889MOL0     H19983   1.841   4.292   9.886 -0.7136 -2.9287 -3.6082
  889MOL0     H19984   1.997   4.379   9.856  0.4417  0.6890 -1.1842
  889MOL0     H19985   1.729   4.528   9.885  0.4836  1.6750 -1.2802
  889MOL0     H19986   1.872   4.597   9.841  0.3937  2.2231  2.3395
  889MOL0     H19987   1.991   4.536  10.045 -0.3965 -0.1825 -2.2673
  889MOL0     H19988   1.845   4.476  10.131 -1.0055 -2.0465 -0.4963
  889MOL0     H19989   1.911   4.709  10.179 -1.3574 -1.6172  1.3906
  889MOL0     H19990   1.870   4.745  10.006  0.6496 -0.5426  0.0795
  889MOL0     H19991   1.669   4.614  10.189 -1.3978  2.0752  0.6747
  889MOL0     H19992   1.654   4.689  10.031  1.8118  2.2350 -2.0287
  889MOL0     H19993   1.708   4.823  10.301  0.0882  1.2879  0.0485
  889MOL0     H19994   1.682   4.921  10.153  1.1880  1.3534  1.6066
  889MOL0     H19995   1.913   3.937   9.810 -1.3477  2.5933  1.1892
  889MOL0     H19996   1.712   3.766   9.806  1.3535  0.5098  0.4050
  889MOL0     H19997   1.239   3.721   9.722  0.6724  0.8109 -1.2003
  889MOL0     H19998   1.084   3.550   9.759 -0.3855  3.8336 -1.2838
  889MOL0     H19999   1.992   2.958   9.045  1.9623 -2.0022 -2.4581
  889MOL0     H20000   2.175   3.121   8.991 -1.0130 -1.7617  2.4583
  889MOL0     H20001   2.368   3.221   8.738 -1.9647  0.5140 -0.3150
  889MOL0     H20002   2.582   3.255   8.676 -0.6706 -0.5275 -0.4643
  889MOL0     H20003   2.759   3.358   8.589 -2.9307  4.0672  0.7489
  889MOL0     H20004   2.814   3.266   8.722 -2.0582 -0.5004 -3.8761
  889MOL0     H20005   2.976   3.495   8.608 -0.2059 -0.2172 -0.5476
  889MOL0     H20006   3.012   3.330   8.589  2.1577  2.0393 -1.5344
  889MOL0     H20007   3.056   3.290   8.833  0.4556 -1.1472 -1.9389
  889MOL0     H20008   2.987   3.456   8.859 -3.1016  1.4992 -2.5341
  889MOL0     H20009   3.259   3.399   8.729  1.8611  0.9977  0.6271
  889MOL0     H20010   3.187   3.556   8.732  3.1447 -0.8627 -2.1396
  889MOL0     H20011   3.318   3.431   9.137  1.4156 -1.5433 -0.5437
  889MOL0     H20012   2.604   3.614   8.926 -2.1654  0.9340  1.1506
  889MOL0     H20013   2.344   3.564   9.130 -3.1277 -1.0670 -1.1724
  889MOL0     H20014   2.413   3.689   9.036 -0.7136 -0.1901  2.9020
  889MOL0     H20015   2.256   3.610   8.983 -0.4994 -1.9039  0.4070
  890MOL0     O20016   2.354   7.914   4.474  0.4878  0.5569 -0.6545
  890MOL0     C20017   2.343   7.865   4.591 -0.5837  0.6636 -0.8112
  890MOL0     O20018   2.371   7.733   4.625 -0.0813 -0.8279 -0.4063
  890MOL0     C20019   2.410   7.643   4.528 -0.4018 -0.6600  0.3966
  890MOL0     C20020   2.324   7.606   4.421  0.5964 -0.2026 -0.1846
  890MOL0     C20021   2.369   7.507   4.327 -0.1283 -0.0028  0.2120
  890MOL0     C20022   2.492   7.437   4.338  0.3324  0.2794  0.7187
  890MOL0     O20023   2.517   7.355   4.232 -0.1382  1.1716 -0.1612
  890MOL0     C20024   2.655   7.324   4.198 -0.1830 -0.1370  0.1237
  890MOL0     C20025   2.654   7.202   4.105 -0.6069 -0.3270  0.0157
  890MOL0     C20026   2.795   7.153   4.087 -0.9527 -0.3356 -0.5181
  890MOL0     C20027   2.793   7.016   4.010  0.1886 -0.0295  0.6136
  890MOL0     C20028   2.926   6.973   3.937 -0.1984  0.4627  0.7005
  890MOL0     C20029   2.925   6.817   3.915 -0.4345  0.0221  0.3220
  890MOL0     C20030   3.063   6.770   3.871 -0.1106 -1.0645  1.0829
  890MOL0     C20031   3.100   6.815   3.731 -0.1480  0.3002  0.2008
  890MOL0     N20032   3.233   6.771   3.690  0.1527 -0.5912  0.2533
  890MOL0     C20033   3.352   6.806   3.754  0.3253 -0.2946 -0.0940
  890MOL0     C20034   3.452   6.749   3.683 -0.1507  0.2512 -0.0743
  890MOL0     C20035   3.606   6.753   3.706  0.4043 -0.5959  0.4295
  890MOL0     C20036   3.645   6.840   3.825 -0.3812  0.1554 -0.3287
  890MOL0     C20037   3.801   6.858   3.806 -0.1697  0.5794  0.6206
  890MOL0     C20038   3.877   6.925   3.908  0.2477  0.1196  0.9755
  890MOL0     O20039   3.845   6.859   4.035  1.2566 -0.8411  0.5960
  890MOL0     C20040   3.766   6.924   4.125  0.4065  0.2028  0.3880
  890MOL0     C20041   3.719   6.839   4.224 -0.6235  0.4790 -0.0055
  890MOL0     C20042   3.633   6.883   4.319  0.1247  0.3646 -0.1296
  890MOL0     C20043   3.591   7.016   4.320  0.2394  0.3180 -0.6773
  890MOL0     C20044   3.503   7.070   4.426  0.9371  0.2506 -0.0451
  890MOL0     O20045   3.509   7.010   4.552 -0.0225  1.0404  0.3741
  890MOL0     C20046   3.415   7.045   4.642  0.2062  0.0610 -0.0379
  890MOL0     C20047   3.438   7.104   4.768 -0.4043  0.2383 -1.4468
  890MOL0     C20048   3.324   7.130   4.846  0.1555  0.5361 -0.6889
  890MOL0     C20049   3.193   7.102   4.809  1.2814 -0.4024  0.2446
  890MOL0     O20050   3.084   7.142   4.890 -0.1337 -0.2395  0.3104
  890MOL0     C20051   3.085   7.109   5.029  0.6906  0.5817  0.4240
  890MOL0     C20052   2.944   7.128   5.090  0.9988  0.0412 -0.8769
  890MOL0     C20053   2.858   7.264   5.079  1.0321  0.0599  0.6183
  890MOL0     C20054   2.720   7.251   5.151  0.6002 -0.3731 -0.1709
  890MOL0     C20055   2.646   7.395   5.137  0.7301 -0.3526  0.3259
  890MOL0     C20056   2.550   7.416   5.247  0.4006 -0.5665  0.4598
  890MOL0     C20057   2.501   7.563   5.247  0.8645 -0.6237 -1.0485
  890MOL0     C20058   2.351   7.574   5.295 -0.9502  0.0768  0.4906
  890MOL0    Cl20059   2.239   7.534   5.155  0.4559  0.4328  0.0654
  890MOL0     C20060   3.174   7.050   4.682  0.3639 -1.2127 -0.2382
  890MOL0     C20061   3.284   7.021   4.603  0.6742 -0.2634  0.1170
  890MOL0     O20062   3.432   7.167   4.385 -0.9494  0.0044 -0.7415
  890MOL0     C20063   3.631   7.102   4.216 -1.1013 -0.2353 -0.3994
  890MOL0     C20064   3.724   7.055   4.122  0.2332 -0.0809 -1.1358
  890MOL0     N20065   3.386   6.689   3.578  0.0896  0.4280  0.9233
  890MOL0     N20066   3.263   6.696   3.585  0.4188 -0.6079  0.2053
  890MOL0     C20067   2.579   7.482   4.437 -0.3873 -0.3476  0.4220
  890MOL0     C20068   2.538   7.588   4.528 -0.8798 -0.3698 -0.0680
  890MOL0     C20069   2.293   7.957   4.698 -1.0206 -0.2029 -0.2173
  890MOL0     C20070   2.268   8.091   4.663 -0.0604 -0.1926 -0.4875
  890MOL0     C20071   2.235   8.189   4.757 -0.1921  0.4915  0.7215
  890MOL0     C20072   2.214   8.140   4.882  0.9578 -0.4371  0.5158
  890MOL0     O20073   2.187   8.219   4.988  0.2003 -0.1505  0.4096
  890MOL0     C20074   2.115   8.346   4.967 -0.1062  0.3914  0.4052
  890MOL0     C20075   2.082   8.391   5.107  0.2758  0.5163 -1.0414
  890MOL0     C20076   2.082   8.540   5.111  0.6918  0.5238 -0.2256
  890MOL0     C20077   2.093   8.595   5.263  0.0211  0.1331  0.1555
  890MOL0     C20078   2.102   8.738   5.271 -0.0387 -0.2461 -0.0355
  890MOL0     C20079   2.113   8.858   5.285  0.3945 -0.1688  0.1734
  890MOL0     C20080   2.238   8.010   4.923 -0.0265  1.1663 -0.6046
  890MOL0     C20081   2.284   7.912   4.831  0.4335  0.6187  0.0143
  890MOL0     C20082   2.309   7.782   4.893 -0.4138  0.2224  0.1609
  890MOL0     H20083   2.223   7.647   4.420  1.5442  2.3497  0.4470
  890MOL0     H20084   2.299   7.486   4.247  0.4258  0.3608 -0.3751
  890MOL0     H20085   2.707   7.401   4.140 -0.4342 -0.2568 -0.2706
  890MOL0     H20086   2.716   7.305   4.286  0.4164  1.2692  0.0389
  890MOL0     H20087   2.597   7.236   4.018 -0.6449 -0.1162  0.1216
  890MOL0     H20088   2.592   7.128   4.155 -1.2497  0.9003  1.1053
  890MOL0     H20089   2.832   7.138   4.188 -1.4118  5.8735  0.9913
  890MOL0     H20090   2.865   7.227   4.047  1.3663 -1.2985  1.5567
  890MOL0     H20091   2.773   6.942   4.088  0.6693 -0.0662  0.7092
  890MOL0     H20092   2.712   7.004   3.938  1.0958  2.9794 -1.1162
  890MOL0     H20093   2.935   7.018   3.838 -0.2151 -0.7687  0.1132
  890MOL0     H20094   3.005   7.019   3.997  0.4262  1.1167 -0.5769
  890MOL0     H20095   2.907   6.781   4.017  3.9134 -1.3037  0.8600
  890MOL0     H20096   2.849   6.787   3.843  1.4741  3.7299 -3.7403
  890MOL0     H20097   3.079   6.662   3.878 -1.1556 -1.1544  2.3931
  890MOL0     H20098   3.129   6.823   3.941 -1.7590  2.0089  0.4969
  890MOL0     H20099   3.026   6.779   3.659  2.8107 -0.6500 -2.5920
  890MOL0     H20100   3.104   6.924   3.728  1.2505  0.2426 -1.2261
  890MOL0     H20101   3.369   6.858   3.847  2.0701 -0.9639 -0.0081
  890MOL0     H20102   3.642   6.651   3.722  1.8383 -0.6941 -2.6382
  890MOL0     H20103   3.649   6.793   3.614 -1.8830  1.5068  0.1612
  890MOL0     H20104   3.595   6.937   3.821 -0.7689 -0.0281  0.0425
  890MOL0     H20105   3.620   6.802   3.924  1.4282 -1.8788 -0.5749
  890MOL0     H20106   3.822   6.898   3.707 -2.2169 -1.2180 -0.6425
  890MOL0     H20107   3.847   6.759   3.799 -0.1915  0.6908 -2.8099
  890MOL0     H20108   3.849   7.028   3.884 -0.5166 -0.5169 -1.0260
  890MOL0     H20109   3.985   6.934   3.891 -0.0229  1.0660 -0.3590
  890MOL0     H20110   3.759   6.740   4.249 -3.5775 -1.1593 -1.2694
  890MOL0     H20111   3.604   6.826   4.407 -1.8057  1.0840 -0.2714
  890MOL0     H20112   3.535   7.120   4.813 -1.1970  0.2955  0.3195
  890MOL0     H20113   3.339   7.160   4.950  0.3813 -4.3024  0.9272
  890MOL0     H20114   3.115   7.005   5.039  2.8935  0.8619 -2.0094
  890MOL0     H20115   3.153   7.175   5.083 -1.2442  1.3742  2.0447
  890MOL0     H20116   2.883   7.057   5.034 -0.0081  0.7526 -0.7147
  890MOL0     H20117   2.948   7.101   5.196 -2.1825 -1.3945 -0.9996
  890MOL0     H20118   2.919   7.346   5.120 -0.1271  2.3124 -1.8465
  890MOL0     H20119   2.830   7.292   4.977  1.1237  0.5684  0.7271
  890MOL0     H20120   2.743   7.232   5.256  3.1381  1.2804 -0.3524
  890MOL0     H20121   2.661   7.167   5.112  1.7069 -1.3641  0.2320
  890MOL0     H20122   2.579   7.396   5.051 -2.6150  2.9100  2.7121
  890MOL0     H20123   2.715   7.479   5.128 -2.1421  1.9355 -4.7781
  890MOL0     H20124   2.475   7.337   5.243  0.2113 -0.5076  2.0665
  890MOL0     H20125   2.621   7.400   5.329  2.9842 -0.7467 -1.6609
  890MOL0     H20126   2.509   7.601   5.145 -0.0091  2.2297 -0.1285
  890MOL0     H20127   2.574   7.622   5.302  1.8245  0.0172 -2.9183
  890MOL0     H20128   2.329   7.501   5.374 -1.3078 -1.0250 -0.5982
  890MOL0     H20129   2.330   7.673   5.336  0.3049 -0.4416  2.5885
  890MOL0     H20130   3.076   7.040   4.636  0.4655 -0.4430 -0.6447
  890MOL0     H20131   3.266   6.992   4.500  0.3498  1.6284 -0.3978
  890MOL0     H20132   3.602   7.206   4.204  0.7545  0.3555 -0.0418
  890MOL0     H20133   3.763   7.122   4.045  1.0111  1.2762  0.3602
  890MOL0     H20134   2.682   7.446   4.434  0.7066  2.4615  1.0995
  890MOL0     H20135   2.618   7.616   4.596  0.7705 -0.2856 -1.9489
  890MOL0     H20136   2.273   8.118   4.558  5.1980 -0.7974 -0.6261
  890MOL0     H20137   2.224   8.292   4.723 -1.2515  0.4586  0.9183
  890MOL0     H20138   2.026   8.345   4.903 -1.0889 -0.2347  1.7212
  890MOL0     H20139   2.192   8.410   4.922 -0.2429  0.9043  0.8802
  890MOL0     H20140   2.159   8.347   5.171 -0.8820 -1.4202 -0.9274
  890MOL0     H20141   1.981   8.360   5.134  0.5766  2.0173  2.2862
  890MOL0     H20142   1.981   8.569   5.080  0.4801  0.5080  0.4119
  890MOL0     H20143   2.167   8.567   5.048  1.5638 -0.8956  0.3032
  890MOL0     H20144   2.010   8.561   5.326  0.0042  2.0545  1.2418
  890MOL0     H20145   2.182   8.550   5.309  1.5899 -1.9983 -4.3799
  890MOL0     H20146   2.114   8.965   5.284 -0.9351 -0.1452  0.4825
  890MOL0     H20147   2.223   7.991   5.029 -1.8676 -0.2934 -1.0638
  890MOL0     H20148   2.247   7.696   4.867  0.2371 -1.2728  3.1624
  890MOL0     H20149   2.413   7.764   4.863 -1.1896 -2.8163 -1.0443
  890MOL0     H20150   2.308   7.783   5.002  2.3793 -1.2132  0.2842
  891MOL0     O20151   4.133   0.716   1.185  0.1119  0.4708  0.4558
  891MOL0     C20152   4.138   0.633   1.102  0.3356 -1.7808 -0.3977
  891MOL0     O20153   4.210   0.645   0.990  0.1184 -0.0361 -0.6424
  891MOL0     C20154   4.278   0.758   0.954 -0.0261  0.1516 -0.5133
  891MOL0     C20155   4.365   0.831   1.032 -0.2133 -0.0266  0.4439
  891MOL0     C20156   4.418   0.956   0.991 -0.1840 -0.1224  0.2849
  891MOL0     C20157   4.390   1.009   0.862  0.5514  0.1287  0.3324
  891MOL0     O20158   4.428   1.134   0.821 -0.4320  0.2373  0.3642
  891MOL0     C20159   4.370   1.243   0.899 -0.0435 -0.3922  0.1678
  891MOL0     C20160   4.429   1.368   0.836 -0.3330 -0.1509 -0.1081
  891MOL0     C20161   4.573   1.377   0.868  0.3523 -0.2129 -0.1856
  891MOL0     C20162   4.623   1.514   0.840 -0.5135 -0.3701  0.5578
  891MOL0     C20163   4.753   1.514   0.783 -0.2668 -0.4536 -0.5676
  891MOL0     C20164   4.797   1.662   0.796  0.0000 -0.8186 -0.0666
  891MOL0     C20165   4.949   1.688   0.764 -0.1463  0.7359  0.1030
  891MOL0     C20166   4.971   1.840   0.744 -0.2031  0.2169  0.3229
  891MOL0     N20167   5.119   1.870   0.748  0.7525  1.4165 -0.3999
  891MOL0     C20168   5.207   1.840   0.853  0.2726 -0.1576  0.3243
  891MOL0     C20169   5.323   1.876   0.800  0.5666  0.3721  0.0957
  891MOL0     C20170   5.448   1.863   0.881 -0.3742 -1.1130  0.0314
  891MOL0     C20171   5.548   1.979   0.840 -0.1784  0.5109 -0.3421
  891MOL0     C20172   5.674   1.987   0.940 -0.6381  0.2350 -0.1771
  891MOL0     C20173   5.789   1.889   0.900  0.0751 -0.1690  0.1468
  891MOL0     O20174   5.896   1.896   0.998 -0.4655  0.4185 -0.4874
  891MOL0     C20175   5.960   1.778   1.026  0.2080 -0.7240  0.4535
  891MOL0     C20176   6.036   1.725   0.931  0.0535 -0.0744 -0.6898
  891MOL0     C20177   6.101   1.593   0.946 -0.1169 -0.2162 -0.7017
  891MOL0     C20178   6.086   1.529   1.068 -0.1413  0.2415 -0.8631
  891MOL0     C20179   6.162   1.403   1.098  1.2325  1.3202  0.1796
  891MOL0     O20180   6.234   1.347   0.996  0.7681 -0.9598 -0.6672
  891MOL0     C20181   6.301   1.237   1.036  0.0574  1.2805  0.0209
  891MOL0     C20182   6.288   1.122   0.961 -0.2972  0.0284  0.0169
  891MOL0     C20183   6.361   1.006   0.984 -0.2445  0.5966 -0.4275
  891MOL0     C20184   6.461   1.008   1.084 -1.4206 -0.3953  0.8768
  891MOL0     O20185   6.539   0.897   1.119 -0.2503 -0.4021 -0.4277
  891MOL0     C20186   6.500   0.773   1.070 -0.4746 -0.3318  0.6373
  891MOL0     C20187   6.630   0.699   1.040  0.2603  0.1955  0.7040
  891MOL0     C20188   6.624   0.553   0.983  0.0528  0.5685 -1.0471
  891MOL0     C20189   6.587   0.437   1.086  0.2062 -0.2145  0.2088
  891MOL0     C20190   6.643   0.308   1.020  0.2185  0.0831  0.6626
  891MOL0     C20191   6.793   0.296   1.048 -0.2908 -0.0905 -0.5791
  891MOL0     C20192   6.843   0.168   0.980  0.5513 -0.0628  0.3097
  891MOL0     C20193   6.983   0.120   1.030  0.5861 -0.8230 -1.0662
  891MOL0    Cl20194   6.999  -0.056   1.014 -0.4247  0.2207  0.2095
  891MOL0     C20195   6.476   1.119   1.166 -0.1978 -0.4624 -0.1770
  891MOL0     C20196   6.401   1.228   1.133 -0.1116 -0.3978 -0.6775
  891MOL0     O20197   6.142   1.355   1.210 -0.6803  0.0749  0.1272
  891MOL0     C20198   6.008   1.592   1.172 -0.3743  0.1702 -0.0608
  891MOL0     C20199   5.951   1.718   1.149  0.2521  0.0097 -0.4892
  891MOL0     N20200   5.315   1.897   0.668 -0.0615 -0.3208  0.6148
  891MOL0     N20201   5.193   1.900   0.636 -0.5487 -0.3288  0.0677
  891MOL0     C20202   4.299   0.946   0.782 -0.6467  0.2746 -0.5024
  891MOL0     C20203   4.244   0.820   0.831  0.2588 -0.3993 -1.0077
  891MOL0     C20204   4.060   0.511   1.120  0.4131  1.2444  0.1549
  891MOL0     C20205   3.947   0.506   1.202 -0.0909  0.0017  1.0280
  891MOL0     C20206   3.857   0.401   1.220 -0.8582 -1.2678 -0.9904
  891MOL0     C20207   3.891   0.288   1.152 -0.7362  0.2049  0.1616
  891MOL0     O20208   3.813   0.176   1.162 -0.7035  0.5858  0.3669
  891MOL0     C20209   3.685   0.166   1.229 -1.0017  0.5864  0.3574
  891MOL0     C20210   3.657   0.022   1.240  0.7990  0.3069 -0.2258
  891MOL0     C20211   3.539  -0.005   1.326  0.1307  0.9084 -0.9045
  891MOL0     C20212   3.513  -0.153   1.360 -0.0436 -0.2839  0.0292
  891MOL0     C20213   3.505  -0.241   1.245 -0.7203 -0.0600  0.2640
  891MOL0     C20214   3.502  -0.302   1.136  0.1990 -0.8700 -0.6474
  891MOL0     C20215   4.010   0.275   1.079  0.4211  0.5541  0.5256
  891MOL0     C20216   4.090   0.384   1.056 -0.5924  0.7528  0.4393
  891MOL0     C20217   4.212   0.365   0.966  0.5497 -0.0532 -0.1932
  891MOL0     H20218   4.391   0.793   1.130  1.3843  1.1510  0.5297
  891MOL0     H20219   4.479   1.025   1.048 -2.3017  3.6634 -1.5651
  891MOL0     H20220   4.262   1.237   0.911  0.2654 -3.3276  2.8589
  891MOL0     H20221   4.406   1.236   1.002  3.9254  3.3671 -0.6630
  891MOL0     H20222   4.369   1.441   0.892  1.4491 -0.9809  3.1329
  891MOL0     H20223   4.413   1.374   0.728  3.5299  0.7575 -0.7905
  891MOL0     H20224   4.635   1.303   0.816  0.9444 -1.0725  1.6630
  891MOL0     H20225   4.590   1.352   0.973 -0.9215  1.7566  0.5451
  891MOL0     H20226   4.545   1.556   0.776 -1.0660 -3.3032 -0.8944
  891MOL0     H20227   4.625   1.568   0.935  1.6377 -2.0459  1.5339
  891MOL0     H20228   4.813   1.458   0.854  1.6956  2.4700  0.2544
  891MOL0     H20229   4.754   1.480   0.679 -2.0145  0.3365 -0.8956
  891MOL0     H20230   4.743   1.720   0.721  0.2371 -0.8378 -0.2533
  891MOL0     H20231   4.777   1.710   0.892  2.1554  0.0993 -0.0316
  891MOL0     H20232   4.975   1.635   0.672 -0.4898 -1.8515  1.4150
  891MOL0     H20233   5.019   1.650   0.839 -1.6709 -0.6196  0.8907
  891MOL0     H20234   4.928   1.864   0.647  1.8921 -1.4787 -1.1340
  891MOL0     H20235   4.924   1.907   0.816 -0.1226  2.0883 -1.2999
  891MOL0     H20236   5.181   1.819   0.956  0.7394  1.5596  0.8201
  891MOL0     H20237   5.418   1.865   0.986  1.0225 -1.8069  0.4750
  891MOL0     H20238   5.488   1.762   0.866  0.2578 -0.8099 -0.3448
  891MOL0     H20239   5.583   1.962   0.738 -1.2058 -3.7063 -0.1532
  891MOL0     H20240   5.510   2.082   0.846  0.2141  0.5780  2.9810
  891MOL0     H20241   5.648   1.958   1.042 -0.7991 -1.9185 -0.7918
  891MOL0     H20242   5.711   2.090   0.944 -1.8077  0.6255  1.8746
  891MOL0     H20243   5.838   1.914   0.806  0.1080  1.5484  0.5876
  891MOL0     H20244   5.760   1.783   0.897  1.6289 -0.7947  2.9872
  891MOL0     H20245   6.054   1.772   0.834  2.1978 -0.1421 -0.3690
  891MOL0     H20246   6.166   1.566   0.863  1.1613  2.2597 -0.6060
  891MOL0     H20247   6.202   1.125   0.895 -0.8261  1.1458  0.7255
  891MOL0     H20248   6.327   0.924   0.922  1.2504  0.8594 -1.6509
  891MOL0     H20249   6.434   0.723   1.141 -1.0285 -3.0752 -1.6246
  891MOL0     H20250   6.453   0.779   0.971  1.0294  0.2217 -0.0791
  891MOL0     H20251   6.671   0.759   0.958 -2.5738  0.4443 -0.6676
  891MOL0     H20252   6.704   0.705   1.120  1.2264 -0.5269 -0.1054
  891MOL0     H20253   6.543   0.551   0.909 -0.5124  1.2511 -0.4630
  891MOL0     H20254   6.717   0.531   0.931 -0.7500 -1.6829 -1.6756
  891MOL0     H20255   6.486   0.432   1.127  0.9306 -0.9533  1.9910
  891MOL0     H20256   6.636   0.441   1.183  0.6685 -3.9696  0.3006
  891MOL0     H20257   6.624   0.307   0.912  0.6826 -1.1762  0.5746
  891MOL0     H20258   6.591   0.222   1.063  0.6882 -1.3619 -1.5007
  891MOL0     H20259   6.847   0.383   1.009 -1.0966  0.7437  0.1056
  891MOL0     H20260   6.820   0.286   1.154  0.8437 -1.4790 -0.9843
  891MOL0     H20261   6.845   0.180   0.871  0.7090  1.3436  0.4554
  891MOL0     H20262   6.771   0.089   1.004 -1.3090  1.6386  0.6359
  891MOL0     H20263   7.062   0.172   0.975  2.6744 -1.5392  1.0426
  891MOL0     H20264   7.009   0.145   1.134  2.1522  1.0096 -1.8364
  891MOL0     H20265   6.543   1.124   1.251  2.4513 -1.5720 -2.0816
  891MOL0     H20266   6.405   1.325   1.182 -1.9888 -1.2176  1.2516
  891MOL0     H20267   5.983   1.543   1.266  1.2946  0.8898  0.7940
  891MOL0     H20268   5.904   1.772   1.231  2.7304  2.9662 -0.8270
  891MOL0     H20269   4.270   0.981   0.683 -0.6602 -1.2438 -1.0643
  891MOL0     H20270   4.167   0.770   0.773  0.0038 -0.0195 -0.9996
  891MOL0     H20271   3.916   0.598   1.251 -0.8399  1.4292 -1.9150
  891MOL0     H20272   3.769   0.402   1.284 -0.1694 -0.0147 -0.0235
  891MOL0     H20273   3.606   0.212   1.169 -0.1344  0.0349 -1.2620
  891MOL0     H20274   3.685   0.225   1.321  0.7462  2.4770 -0.7648
  891MOL0     H20275   3.750  -0.023   1.278  0.0390 -0.4535  0.8041
  891MOL0     H20276   3.633  -0.022   1.143 -0.1943  0.1421  0.0891
  891MOL0     H20277   3.448   0.031   1.277 -0.2087  0.9544 -0.2527
  891MOL0     H20278   3.544   0.061   1.414  0.0007  0.2619 -0.4062
  891MOL0     H20279   3.592  -0.183   1.429  1.9311  2.1037 -1.0177
  891MOL0     H20280   3.422  -0.155   1.419  0.0476  2.2593  0.3739
  891MOL0     H20281   3.503  -0.348   1.039 -2.0091  0.5457 -1.4097
  891MOL0     H20282   4.029   0.186   1.019  0.4503  0.4113  0.7456
  891MOL0     H20283   4.181   0.386   0.863  3.0195 -2.7873 -1.6418
  891MOL0     H20284   4.300   0.427   0.985  1.4961 -0.8322 -1.7912
  891MOL0     H20285   4.240   0.259   0.970 -0.0595 -0.2351 -0.5310
  892MOL0     O20286   2.538   2.419   9.044  0.6067 -0.4995 -0.3142
  892MOL0     C20287   2.589   2.484   9.138  0.4573  0.4363  0.3171
  892MOL0     O20288   2.539   2.504   9.263  0.3963  0.6048  0.3922
  892MOL0     C20289   2.419   2.448   9.310 -0.0913  0.3872 -0.0339
  892MOL0     C20290   2.298   2.479   9.248  0.3501  0.3276  0.6932
  892MOL0     C20291   2.176   2.440   9.308 -0.1232  0.1037  0.0732
  892MOL0     C20292   2.167   2.378   9.429  0.5440 -0.1350 -0.2997
  892MOL0     O20293   2.040   2.343   9.472 -0.1861 -0.6862 -0.4486
  892MOL0     C20294   2.017   2.325   9.618 -0.6768  0.6442 -0.0322
  892MOL0     C20295   1.864   2.343   9.649 -0.1660 -0.2673  0.9697
  892MOL0     C20296   1.778   2.224   9.618  0.6348  0.0024  0.8189
  892MOL0     C20297   1.637   2.263   9.673 -1.0643  0.1828  0.2021
  892MOL0     C20298   1.554   2.134   9.683  0.4144 -0.5323 -0.4279
  892MOL0     C20299   1.420   2.166   9.752 -0.7266 -0.7196  0.7717
  892MOL0     C20300   1.320   2.056   9.707 -0.5075  0.9317 -0.9448
  892MOL0     C20301   1.178   2.079   9.760  0.1409  0.6057 -0.2398
  892MOL0     N20302   1.092   2.123   9.648  0.1821  0.1366 -0.4953
  892MOL0     C20303   0.993   2.044   9.595 -0.5011 -0.5175 -0.2250
  892MOL0     C20304   0.942   2.123   9.500  0.4768  0.2507 -0.0303
  892MOL0     C20305   0.837   2.082   9.403 -0.3348  0.2767  0.1960
  892MOL0     C20306   0.701   2.122   9.440  0.4257  0.3299 -0.2203
  892MOL0     C20307   0.641   2.027   9.536  0.8345  0.0508 -0.1006
  892MOL0     C20308   0.525   2.103   9.610  0.1055  0.5073  0.3353
  892MOL0     O20309   0.459   1.993   9.679 -0.2992  0.2817  0.5177
  892MOL0     C20310   0.331   2.002   9.715 -0.9686 -0.3491  0.1699
  892MOL0     C20311   0.290   1.890   9.789 -0.1192 -0.4362 -0.7848
  892MOL0     C20312   0.161   1.884   9.819  0.3141  0.2133 -0.2018
  892MOL0     C20313   0.064   1.973   9.778  0.7300 -0.7356 -1.0229
  892MOL0     C20314  -0.081   1.961   9.819  0.4651  0.2722 -0.2005
  892MOL0     O20315  -0.170   2.060   9.772 -0.0649 -0.0978 -0.4556
  892MOL0     C20316  -0.298   2.072   9.804  0.4692 -0.6771  0.3899
  892MOL0     C20317  -0.342   2.040   9.933  0.6740  0.9690  0.4332
  892MOL0     C20318  -0.479   2.053   9.965 -0.5252  0.4051 -0.1839
  892MOL0     C20319  -0.573   2.095   9.871 -0.1948  0.1433  0.0003
  892MOL0     O20320  -0.710   2.098   9.894  0.3359 -0.5449 -0.2565
  892MOL0     C20321  -0.776   1.998   9.974  0.0525  0.2958 -0.5256
  892MOL0     C20322  -0.924   1.999   9.968 -0.7210 -0.5740  0.0158
  892MOL0     C20323  -0.983   2.127  10.033 -1.0416  0.0961 -0.2553
  892MOL0     C20324  -1.125   2.107  10.067 -0.4369  0.3123  0.8301
  892MOL0     C20325  -1.196   2.236  10.107  0.7982  0.1624  0.6200
  892MOL0     C20326  -1.125   2.319  10.213  0.0138  1.0626 -1.0279
  892MOL0     C20327  -1.192   2.452  10.247  0.1303 -0.6593 -1.1759
  892MOL0     C20328  -1.319   2.442  10.342 -0.3722  0.3952  0.9870
  892MOL0    Cl20329  -1.384   2.602  10.386  0.1087 -0.1753  0.0938
  892MOL0     C20330  -0.523   2.143   9.750 -0.4401 -0.5826  0.4142
  892MOL0     C20331  -0.394   2.124   9.719 -0.0844  0.3349  0.5212
  892MOL0     O20332  -0.115   1.861   9.882  0.5639 -0.4816  0.7313
  892MOL0     C20333   0.103   2.084   9.708  0.2562 -0.0978 -0.3736
  892MOL0     C20334   0.235   2.099   9.682 -0.0791 -0.6162 -0.4466
  892MOL0     N20335   1.000   2.248   9.514  0.0838 -0.6576  0.2866
  892MOL0     N20336   1.096   2.246   9.599  0.1393  0.0031  0.3980
  892MOL0     C20337   2.290   2.349   9.486  0.6777  0.6178 -0.7249
  892MOL0     C20338   2.417   2.376   9.433 -0.0942 -0.4615  0.6735
  892MOL0     C20339   2.717   2.550   9.112 -0.2188 -0.0225  1.0604
  892MOL0     C20340   2.821   2.487   9.175 -0.3676  0.0172 -0.0960
  892MOL0     C20341   2.949   2.537   9.145 -0.9421  0.1741  0.6531
  892MOL0     C20342   2.970   2.634   9.048  0.1290 -0.4368 -0.7416
  892MOL0     O20343   3.088   2.682   9.011 -0.8228 -0.3970 -0.2732
  892MOL0     C20344   3.205   2.596   9.014  0.5399 -0.0322 -0.3225
  892MOL0     C20345   3.302   2.672   9.114 -0.6407 -1.8731 -0.2829
  892MOL0     C20346   3.364   2.580   9.220 -0.0500 -0.1244  0.4501
  892MOL0     C20347   3.475   2.648   9.288 -0.0379  0.3738 -0.1818
  892MOL0     C20348   3.599   2.627   9.211 -1.0510  0.3870 -1.0481
  892MOL0     C20349   3.702   2.619   9.143  0.1831  0.2221 -0.1166
  892MOL0     C20350   2.863   2.693   8.991  0.6469  0.7006 -1.2635
  892MOL0     C20351   2.728   2.653   9.018 -0.7002 -0.5059  0.2144
  892MOL0     C20352   2.610   2.733   8.957 -0.4248  0.3257  0.7270
  892MOL0     H20353   2.303   2.540   9.159 -1.0457  0.8063  0.9211
  892MOL0     H20354   2.091   2.480   9.254  0.1013  0.0567 -0.3193
  892MOL0     H20355   2.040   2.223   9.649 -0.3299  0.7362  0.0107
  892MOL0     H20356   2.085   2.387   9.678 -0.7870  1.0438 -0.3219
  892MOL0     H20357   1.828   2.423   9.584  0.1927  0.4618  1.6564
  892MOL0     H20358   1.863   2.365   9.756 -1.1196 -2.2830  1.4341
  892MOL0     H20359   1.812   2.130   9.660  1.1668 -0.4266 -0.5079
  892MOL0     H20360   1.770   2.202   9.511 -2.9556 -0.7410  1.1151
  892MOL0     H20361   1.649   2.316   9.768  1.1309 -0.3992  0.3037
  892MOL0     H20362   1.602   2.342   9.606  2.5570 -0.1612 -2.3649
  892MOL0     H20363   1.539   2.090   9.584  0.5145 -1.8161  0.1035
  892MOL0     H20364   1.595   2.054   9.745 -1.0068  0.6501  2.2119
  892MOL0     H20365   1.420   2.191   9.858 -1.6251  1.1819  0.3686
  892MOL0     H20366   1.397   2.266   9.714  4.8847  0.9974  1.0152
  892MOL0     H20367   1.358   1.974   9.768 -3.8671  1.9770  3.0482
  892MOL0     H20368   1.332   2.051   9.598 -0.1864  3.2351 -1.0745
  892MOL0     H20369   1.132   1.987   9.796 -0.6225  0.8733 -0.5012
  892MOL0     H20370   1.173   2.147   9.845 -0.4585  0.3177 -0.0422
  892MOL0     H20371   0.965   1.942   9.619 -3.5028  0.9642  3.7716
  892MOL0     H20372   0.862   2.128   9.307 -2.4039 -0.7174 -0.8882
  892MOL0     H20373   0.838   1.975   9.380  0.7550  0.3296 -0.0786
  892MOL0     H20374   0.700   2.216   9.496 -0.5624  0.1030  0.1583
  892MOL0     H20375   0.638   2.120   9.351  1.4877  0.4531 -1.0007
  892MOL0     H20376   0.710   1.981   9.606  0.8260 -0.4631 -0.4251
  892MOL0     H20377   0.596   1.948   9.476  1.2763 -1.0410  0.9746
  892MOL0     H20378   0.457   2.153   9.540  1.4680  0.5277 -1.0138
  892MOL0     H20379   0.561   2.178   9.681  1.6286  2.6984 -2.5417
  892MOL0     H20380   0.361   1.822   9.835  2.8258 -0.3224 -4.6585
  892MOL0     H20381   0.132   1.797   9.877 -0.7969 -0.8919 -2.2736
  892MOL0     H20382  -0.275   2.014  10.014 -1.1327  0.6596  1.8642
  892MOL0     H20383  -0.499   2.027  10.068  2.4400  0.0305  0.3814
  892MOL0     H20384  -0.745   1.903   9.930 -0.9339  0.7948 -2.3950
  892MOL0     H20385  -0.750   2.007  10.080 -0.6762  3.0330 -0.4857
  892MOL0     H20386  -0.951   1.993   9.862  0.2977  2.5479 -0.5460
  892MOL0     H20387  -0.959   1.911  10.022  0.7362 -0.5186  1.1171
  892MOL0     H20388  -0.920   2.136  10.122  0.4312 -2.8041 -0.8950
  892MOL0     H20389  -0.960   2.213   9.969 -1.5848 -0.2361 -0.8951
  892MOL0     H20390  -1.149   2.034  10.145  1.0186 -0.3205  0.7273
  892MOL0     H20391  -1.170   2.069   9.976  0.3148 -5.2683  2.4041
  892MOL0     H20392  -1.297   2.207  10.135 -0.0592  3.0539  0.7953
  892MOL0     H20393  -1.206   2.302  10.020 -3.1008 -1.6320 -0.5436
  892MOL0     H20394  -1.113   2.250  10.297  4.8502  0.1714 -2.1682
  892MOL0     H20395  -1.019   2.337  10.196  0.6443  0.4939  1.7904
  892MOL0     H20396  -1.208   2.511  10.156  2.4616 -0.4584 -1.5195
  892MOL0     H20397  -1.123   2.512  10.309 -1.2317 -0.9809  0.7281
  892MOL0     H20398  -1.392   2.392  10.278  2.4071  1.0961 -3.1952
  892MOL0     H20399  -1.290   2.380  10.428 -1.2203  0.4765  1.3430
  892MOL0     H20400  -0.584   2.172   9.665  1.7015  1.0552 -0.6790
  892MOL0     H20401  -0.360   2.149   9.619 -2.2923 -0.5945 -0.5401
  892MOL0     H20402   0.029   2.152   9.668 -0.9528 -2.3923 -2.2907
  892MOL0     H20403   0.262   2.189   9.629 -2.5141  0.5804  0.2220
  892MOL0     H20404   2.278   2.278   9.567 -0.4114  0.9019 -0.6244
  892MOL0     H20405   2.517   2.347   9.464  1.0841  1.2259 -1.3023
  892MOL0     H20406   2.828   2.408   9.249  2.5055  0.9334  0.7565
  892MOL0     H20407   3.031   2.481   9.189 -2.0319 -1.7607  0.3316
  892MOL0     H20408   3.250   2.582   8.916 -1.5925 -2.3484 -1.0849
  892MOL0     H20409   3.193   2.498   9.061  0.9689 -0.3978 -0.9607
  892MOL0     H20410   3.252   2.755   9.166 -0.1559  1.0434 -4.0675
  892MOL0     H20411   3.386   2.715   9.059  0.0822  0.5885  2.4924
  892MOL0     H20412   3.411   2.494   9.172  1.6417 -0.1401  2.0447
  892MOL0     H20413   3.291   2.537   9.289  0.8685 -0.4301  1.2374
  892MOL0     H20414   3.462   2.757   9.290  2.4953  0.7880 -1.4648
  892MOL0     H20415   3.483   2.603   9.388 -1.6853  2.3889  0.9292
  892MOL0     H20416   3.778   2.624   9.067  0.3158  1.4118  0.0727
  892MOL0     H20417   2.871   2.773   8.918  0.7888  0.2838 -1.7107
  892MOL0     H20418   2.518   2.674   8.959  0.5592 -1.2592  1.4605
  892MOL0     H20419   2.588   2.821   9.018 -0.0101  1.0158 -0.0918
  892MOL0     H20420   2.650   2.767   8.861  1.4470 -1.0525  0.9633
  893MOL0     O20421   4.204   1.623   6.524 -0.4004 -0.0923 -0.2209
  893MOL0     C20422   4.167   1.632   6.411  0.5966 -0.1272  0.6137
  893MOL0     O20423   4.240   1.703   6.304 -0.1683  0.3103 -0.9740
  893MOL0     C20424   4.333   1.799   6.334 -0.2742  0.9110 -0.7640
  893MOL0     C20425   4.330   1.886   6.445  1.5900 -0.2491  0.0314
  893MOL0     C20426   4.422   1.996   6.465  0.7842  0.2854 -0.1371
  893MOL0     C20427   4.522   2.019   6.369  0.4319  0.5308  0.5813
  893MOL0     O20428   4.610   2.116   6.397  0.4343 -0.0754  0.1138
  893MOL0     C20429   4.668   2.176   6.279  0.1253 -0.4212 -0.4190
  893MOL0     C20430   4.753   2.299   6.331  1.2332 -0.1449  0.3299
  893MOL0     C20431   4.675   2.397   6.422 -0.5163 -1.0454 -0.3356
  893MOL0     C20432   4.761   2.515   6.466 -0.5589 -1.2200  0.2141
  893MOL0     C20433   4.825   2.599   6.345  0.2329  0.1610  0.0056
  893MOL0     C20434   4.888   2.729   6.393 -0.5938  0.6880  0.5162
  893MOL0     C20435   5.015   2.731   6.476  0.1723 -0.9791 -0.0978
  893MOL0     C20436   5.139   2.657   6.435 -0.1575  0.3435 -0.0673
  893MOL0     N20437   5.165   2.697   6.298 -0.0176 -0.0340  0.3488
  893MOL0     C20438   5.249   2.800   6.255 -0.0512 -0.3261 -0.4956
  893MOL0     C20439   5.234   2.801   6.122 -1.0187  0.9059  0.3281
  893MOL0     C20440   5.314   2.903   6.042  0.0502 -0.5628  0.0718
  893MOL0     C20441   5.461   2.862   6.008  1.4412 -0.1943  0.1069
  893MOL0     C20442   5.456   2.758   5.891  0.2204 -0.8152 -1.0839
  893MOL0     C20443   5.600   2.736   5.841 -1.0143  0.8796 -0.6462
  893MOL0     O20444   5.656   2.843   5.776 -0.4979 -0.4229 -0.8146
  893MOL0     C20445   5.611   2.886   5.658  0.1661 -0.9777  0.5822
  893MOL0     C20446   5.656   3.011   5.621 -0.5840 -0.0475  0.5842
  893MOL0     C20447   5.625   3.066   5.496 -0.0283 -0.4973  0.0825
  893MOL0     C20448   5.545   2.993   5.404  0.0601  0.1662  0.0851
  893MOL0     C20449   5.539   3.026   5.260 -0.7742  0.1808 -0.3872
  893MOL0     O20450   5.465   2.940   5.187  0.1325 -0.0058  0.0193
  893MOL0     C20451   5.482   2.942   5.057  1.2439  0.2604  0.9046
  893MOL0     C20452   5.370   2.947   4.966  0.0543  0.2454  0.3804
  893MOL0     C20453   5.389   2.949   4.826  0.5150 -0.9122 -0.2006
  893MOL0     C20454   5.514   2.921   4.785 -0.2861  0.0692  0.3799
  893MOL0     O20455   5.540   2.917   4.654  0.9523 -0.3872  0.1805
  893MOL0     C20456   5.489   3.014   4.569  0.2766  1.2611 -0.0538
  893MOL0     C20457   5.567   2.999   4.436 -0.1536 -0.7227 -0.0693
  893MOL0     C20458   5.713   2.992   4.449  0.4043 -0.4005  0.9229
  893MOL0     C20459   5.771   2.999   4.306 -0.5829  0.5847 -0.1240
  893MOL0     C20460   5.922   2.979   4.302  1.0054 -0.3771  0.3750
  893MOL0     C20461   6.007   3.108   4.322  0.1193  0.4392  0.4505
  893MOL0     C20462   6.020   3.181   4.184 -0.4977  0.1856 -0.1305
  893MOL0     C20463   6.087   3.316   4.209 -0.1255  0.2144  0.3272
  893MOL0    Cl20464   6.251   3.316   4.288  0.4522 -0.1923  0.1424
  893MOL0     C20465   5.619   2.904   4.871 -0.5045 -0.3080  0.0087
  893MOL0     C20466   5.604   2.928   5.000  0.1565 -0.1972 -0.1991
  893MOL0     O20467   5.593   3.130   5.227  0.9792  0.4562  0.1700
  893MOL0     C20468   5.500   2.865   5.450 -0.5610  0.0130 -0.4685
  893MOL0     C20469   5.527   2.818   5.573 -0.3303  0.4078 -0.1448
  893MOL0     N20470   5.164   2.687   6.078  0.3393 -0.5182  0.1701
  893MOL0     N20471   5.129   2.624   6.186  0.0003  0.5160  0.0494
  893MOL0     C20472   4.519   1.934   6.255  0.3041  0.1740  0.1947
  893MOL0     C20473   4.427   1.824   6.243  0.2384 -0.7700 -0.1258
  893MOL0     C20474   4.041   1.564   6.363  0.3989 -0.6503  0.4148
  893MOL0     C20475   4.036   1.512   6.231 -0.1460 -0.5798 -0.3877
  893MOL0     C20476   3.923   1.446   6.191  0.4391 -1.0011  0.0031
  893MOL0     C20477   3.815   1.427   6.281  0.5742  0.2607  0.4267
  893MOL0     O20478   3.702   1.366   6.230 -0.7548 -0.4571 -0.0803
  893MOL0     C20479   3.660   1.234   6.283  0.3820 -0.4653 -0.3716
  893MOL0     C20480   3.763   1.131   6.238  0.5883  1.0483 -0.3552
  893MOL0     C20481   3.722   1.077   6.099 -0.5898 -0.7182  0.4212
  893MOL0     C20482   3.824   0.974   6.041 -0.0298 -0.0240  0.2194
  893MOL0     C20483   3.952   1.040   6.007 -0.7857  0.6512  0.3019
  893MOL0     C20484   4.063   1.087   5.985  1.0156 -1.0995  0.1322
  893MOL0     C20485   3.812   1.485   6.405 -0.1970 -1.0972  0.1662
  893MOL0     C20486   3.930   1.554   6.445  0.7827  0.8039 -0.4575
  893MOL0     C20487   3.918   1.622   6.583 -0.3150 -0.4970  0.9184
  893MOL0     H20488   4.246   1.877   6.514  0.0883  1.0227 -1.5411
  893MOL0     H20489   4.414   2.053   6.558 -2.8319 -0.4714  0.1854
  893MOL0     H20490   4.731   2.112   6.216  1.6943  2.0042 -1.4558
  893MOL0     H20491   4.586   2.222   6.224  0.4237 -3.6750 -3.9763
  893MOL0     H20492   4.792   2.344   6.239 -0.3376  1.1976  0.2981
  893MOL0     H20493   4.832   2.258   6.395  1.2086 -1.0790 -0.2114
  893MOL0     H20494   4.637   2.340   6.507 -1.0899  0.2304  0.3028
  893MOL0     H20495   4.596   2.445   6.363 -0.3578 -0.4396 -0.0698
  893MOL0     H20496   4.702   2.585   6.524 -0.7282 -0.5083 -0.7837
  893MOL0     H20497   4.836   2.479   6.537  1.5204  1.1801 -0.6113
  893MOL0     H20498   4.896   2.527   6.303 -3.0778 -3.6958  0.4191
  893MOL0     H20499   4.754   2.634   6.269  0.0966 -1.3115 -0.5776
  893MOL0     H20500   4.915   2.783   6.302  1.2435 -3.1538 -1.4422
  893MOL0     H20501   4.820   2.778   6.464 -2.5584 -2.9320  1.3844
  893MOL0     H20502   4.996   2.689   6.575 -2.7947 -0.4685 -0.3611
  893MOL0     H20503   5.023   2.840   6.490 -1.6602 -1.0120  1.8031
  893MOL0     H20504   5.224   2.663   6.504 -0.4096 -1.9937  0.5231
  893MOL0     H20505   5.118   2.550   6.425  0.5487  0.1149  0.7661
  893MOL0     H20506   5.298   2.876   6.316 -1.5027  0.1584  0.1112
  893MOL0     H20507   5.265   2.930   5.948  1.5516  2.7577  0.0873
  893MOL0     H20508   5.325   2.993   6.104  2.4614  1.6145 -3.1961
  893MOL0     H20509   5.508   2.955   5.975 -1.6280  0.1591 -4.2495
  893MOL0     H20510   5.521   2.814   6.085  0.5071 -1.4741  0.0722
  893MOL0     H20511   5.382   2.800   5.822 -1.8630  0.7125  1.8740
  893MOL0     H20512   5.416   2.667   5.935  2.0661 -0.4421  1.6451
  893MOL0     H20513   5.597   2.650   5.773 -1.0693 -0.4207  0.9351
  893MOL0     H20514   5.655   2.707   5.931 -0.2847  2.8411 -0.4032
  893MOL0     H20515   5.706   3.079   5.690 -2.1004  2.6713 -0.8168
  893MOL0     H20516   5.675   3.160   5.476 -1.4698  0.5361  1.1687
  893MOL0     H20517   5.265   2.940   4.992 -0.2530 -0.8081 -0.9681
  893MOL0     H20518   5.308   2.947   4.754  3.8817 -4.0183 -4.5121
  893MOL0     H20519   5.386   2.986   4.546  0.2488 -2.1294  3.2075
  893MOL0     H20520   5.494   3.115   4.610 -2.9508  0.6964  2.1178
  893MOL0     H20521   5.536   2.909   4.382  2.3025 -0.3388 -2.3252
  893MOL0     H20522   5.552   3.089   4.374  0.1465 -1.1565 -0.7869
  893MOL0     H20523   5.746   3.080   4.504  1.2546 -0.3667  0.3674
  893MOL0     H20524   5.747   2.895   4.488 -3.2395 -2.2699 -0.0886
  893MOL0     H20525   5.746   3.091   4.253 -0.1425  1.2015  0.7243
  893MOL0     H20526   5.736   2.913   4.247  4.4194 -2.0089  0.1786
  893MOL0     H20527   5.951   2.919   4.215 -1.6938  0.9168 -1.5460
  893MOL0     H20528   5.943   2.914   4.388  0.1368 -1.6550 -0.3442
  893MOL0     H20529   5.955   3.176   4.389 -1.5688  0.5226 -0.8699
  893MOL0     H20530   6.099   3.073   4.369  1.8094 -0.5511 -3.1775
  893MOL0     H20531   5.917   3.198   4.152 -0.1681  0.7109 -0.9600
  893MOL0     H20532   6.070   3.116   4.112  3.4059 -1.3539  3.5633
  893MOL0     H20533   6.088   3.367   4.113 -0.8996 -1.9094 -0.8877
  893MOL0     H20534   6.020   3.375   4.272 -0.2102  0.5942 -0.1202
  893MOL0     H20535   5.714   2.892   4.820  0.0308  3.4327 -0.1696
  893MOL0     H20536   5.693   2.920   5.061 -2.0177 -2.8218  3.0271
  893MOL0     H20537   5.447   2.807   5.375  0.6489 -3.4718  1.1502
  893MOL0     H20538   5.492   2.716   5.591  1.0214  0.1367  1.1478
  893MOL0     H20539   4.584   1.956   6.171  1.3985 -0.7020  0.7878
  893MOL0     H20540   4.428   1.762   6.154  0.0933 -0.3784 -0.3975
  893MOL0     H20541   4.119   1.521   6.161  0.7268  6.1599  0.7882
  893MOL0     H20542   3.913   1.403   6.092  2.1326  0.8056 -1.0368
  893MOL0     H20543   3.558   1.221   6.247  0.2696  2.6939 -1.5016
  893MOL0     H20544   3.646   1.234   6.392 -4.8915 -3.2843 -0.7263
  893MOL0     H20545   3.757   1.048   6.310  0.8538  2.7617  1.7364
  893MOL0     H20546   3.865   1.168   6.250  0.4103  1.4532 -0.0736
  893MOL0     H20547   3.723   1.161   6.028 -1.0352 -1.8111 -0.9150
  893MOL0     H20548   3.619   1.041   6.102 -0.5671 -0.7789  3.2027
  893MOL0     H20549   3.836   0.900   6.120  0.9696  0.1044  0.1996
  893MOL0     H20550   3.784   0.931   5.948  4.1807  0.5057 -2.0890
  893MOL0     H20551   4.158   1.134   5.971  1.1878 -1.1319  1.0913
  893MOL0     H20552   3.720   1.482   6.463 -1.4716  4.9900 -0.9048
  893MOL0     H20553   3.816   1.619   6.621 -0.3226  1.5629  1.2093
  893MOL0     H20554   3.990   1.586   6.656 -0.7249  0.8526  2.0250
  893MOL0     H20555   3.931   1.729   6.560 -1.3040 -0.9054 -2.0526
  894MOL0     O20556   4.996   8.711   4.087  0.2224 -0.3888  0.0432
  894MOL0     C20557   4.947   8.645   3.994  0.4543  0.7682  0.2060
  894MOL0     O20558   4.828   8.664   3.937  0.1059 -0.8047  0.2381
  894MOL0     C20559   4.749   8.774   3.980 -0.3706  0.6140  0.3701
  894MOL0     C20560   4.765   8.905   3.923  0.2134  0.1260  0.8203
  894MOL0     C20561   4.682   9.012   3.969 -0.2134 -0.3594  0.7346
  894MOL0     C20562   4.590   8.982   4.080 -0.1257 -0.0944  0.7015
  894MOL0     O20563   4.503   9.083   4.105  0.1355  0.1824 -1.4339
  894MOL0     C20564   4.517   9.148   4.234 -0.9332 -0.4660 -0.1738
  894MOL0     C20565   4.447   9.291   4.231 -0.3077  0.0109  0.3888
  894MOL0     C20566   4.296   9.278   4.225 -0.5185  0.6240 -0.9148
  894MOL0     C20567   4.231   9.410   4.251  0.2513  0.2755  1.2562
  894MOL0     C20568   4.077   9.402   4.254  0.7520  0.5186  0.0742
  894MOL0     C20569   4.012   9.366   4.123 -0.1436 -0.2756  0.1309
  894MOL0     C20570   3.859   9.375   4.134  0.3363  0.0705  0.5801
  894MOL0     C20571   3.800   9.368   4.000 -0.0168 -0.2998 -0.2566
  894MOL0     N20572   3.670   9.433   3.996 -0.3171 -0.9047 -0.7574
  894MOL0     C20573   3.658   9.571   4.005  0.4603 -0.2654 -0.7793
  894MOL0     C20574   3.527   9.590   4.040  0.9519 -0.3050 -1.0224
  894MOL0     C20575   3.468   9.723   4.091  0.1512  0.3241 -0.0210
  894MOL0     C20576   3.515   9.753   4.236  0.8358  0.5167 -0.5226
  894MOL0     C20577   3.432   9.677   4.336  0.0377 -0.3274 -0.2812
  894MOL0     C20578   3.502   9.557   4.408  0.4790  0.2646  0.1107
  894MOL0     O20579   3.422   9.521   4.515  0.2956  1.1631 -0.6014
  894MOL0     C20580   3.484   9.437   4.598  1.0256  0.2603 -0.7423
  894MOL0     C20581   3.407   9.393   4.712 -0.9947 -0.4557 -0.2082
  894MOL0     C20582   3.441   9.290   4.798 -0.1009  0.0800  0.1035
  894MOL0     C20583   3.560   9.227   4.772 -0.7677  0.6552 -0.2680
  894MOL0     C20584   3.616   9.129   4.862 -0.8747  0.1818 -0.2317
  894MOL0     O20585   3.735   9.077   4.830 -0.0224  0.5051 -1.2600
  894MOL0     C20586   3.802   8.996   4.924  0.2221 -0.5476  0.1498
  894MOL0     C20587   3.879   9.056   5.029 -0.0221  0.9877  1.0313
  894MOL0     C20588   3.926   8.979   5.140 -0.1591  0.2025  0.3298
  894MOL0     C20589   3.922   8.840   5.138  0.8906 -0.5898  0.2623
  894MOL0     O20590   3.991   8.774   5.239 -0.4931 -0.1452  0.3755
  894MOL0     C20591   3.997   8.628   5.234 -0.3238  0.2185  1.2493
  894MOL0     C20592   4.065   8.562   5.360 -0.0440 -0.0393  0.1081
  894MOL0     C20593   4.215   8.612   5.381  0.8454 -0.1601  0.2010
  894MOL0     C20594   4.260   8.547   5.507  0.1163  0.9281 -0.1301
  894MOL0     C20595   4.411   8.546   5.516  0.9282 -0.3219 -0.6306
  894MOL0     C20596   4.469   8.674   5.569 -0.0799  0.3970  0.3397
  894MOL0     C20597   4.442   8.699   5.721 -0.2699  0.6430 -0.0182
  894MOL0     C20598   4.555   8.784   5.777 -0.0041  1.1315  1.0289
  894MOL0    Cl20599   4.542   8.791   5.951 -0.0170 -0.4444 -0.3100
  894MOL0     C20600   3.852   8.780   5.030 -0.5164 -0.2138  0.7287
  894MOL0     C20601   3.793   8.858   4.921 -0.0253  0.0000  0.4791
  894MOL0     O20602   3.557   9.117   4.972 -0.1549  0.0370 -0.5101
  894MOL0     C20603   3.637   9.264   4.662 -0.7074 -0.5613  0.5594
  894MOL0     C20604   3.599   9.365   4.574 -0.1999  0.8093 -0.3014
  894MOL0     N20605   3.471   9.470   4.066  0.8448  0.1982 -0.2588
  894MOL0     N20606   3.557   9.375   4.049 -0.2675  0.7210 -0.2255
  894MOL0     C20607   4.578   8.859   4.142  0.5232 -0.5838  0.4441
  894MOL0     C20608   4.657   8.757   4.086 -0.2279  0.6791 -0.6138
  894MOL0     C20609   5.026   8.527   3.957  0.3568 -0.3285  0.1942
  894MOL0     C20610   5.170   8.549   3.955 -0.0180  0.3233 -0.0013
  894MOL0     C20611   5.252   8.438   3.935  0.0364  0.4052 -0.1116
  894MOL0     C20612   5.196   8.308   3.893  0.1499 -0.2418  0.7376
  894MOL0     O20613   5.260   8.187   3.873  0.0811 -0.0062 -0.1512
  894MOL0     C20614   5.405   8.200   3.871 -0.7127 -0.1175 -0.1797
  894MOL0     C20615   5.487   8.075   3.849 -0.7646  0.0496 -0.2442
  894MOL0     C20616   5.622   8.099   3.777  0.1570  0.0613  0.8032
  894MOL0     C20617   5.699   7.965   3.781  0.4129  0.2673  0.2136
  894MOL0     C20618   5.840   7.994   3.761 -0.4694 -0.0669  0.0691
  894MOL0     C20619   5.955   8.035   3.759  0.2595 -0.1913 -0.8250
  894MOL0     C20620   5.059   8.294   3.882 -0.2804 -0.6143  0.1187
  894MOL0     C20621   4.973   8.404   3.921  0.3186  0.4622  0.3384
  894MOL0     C20622   4.818   8.382   3.917 -0.0087 -0.6800 -0.5303
  894MOL0     H20623   4.840   8.927   3.848  2.7237  2.6066  3.7694
  894MOL0     H20624   4.686   9.110   3.922  2.0604 -1.6443 -2.0550
  894MOL0     H20625   4.472   9.083   4.310  0.5621  0.7957  1.8976
  894MOL0     H20626   4.621   9.153   4.267 -1.5594  1.2545  1.7879
  894MOL0     H20627   4.476   9.348   4.142 -1.8509  3.3918  1.8579
  894MOL0     H20628   4.489   9.346   4.315 -1.7505  1.8061  0.0037
  894MOL0     H20629   4.255   9.219   4.307  2.5968  1.4873  1.4532
  894MOL0     H20630   4.260   9.241   4.128  0.8119 -0.4065 -1.0431
  894MOL0     H20631   4.277   9.435   4.347  1.1710  2.4336  0.3216
  894MOL0     H20632   4.260   9.482   4.175 -0.1226 -1.1878 -0.3431
  894MOL0     H20633   4.047   9.330   4.332  2.4336  0.7627  1.0018
  894MOL0     H20634   4.038   9.499   4.286 -0.7130 -0.1099  0.2659
  894MOL0     H20635   4.042   9.442   4.050  0.5122 -0.7526 -0.1105
  894MOL0     H20636   4.054   9.278   4.074  0.2308 -0.4274  0.7226
  894MOL0     H20637   3.844   9.468   4.191  0.9603  1.7624 -1.8705
  894MOL0     H20638   3.819   9.285   4.183  3.2597 -2.9103 -2.0779
  894MOL0     H20639   3.869   9.403   3.923 -0.6756  0.7654 -0.3754
  894MOL0     H20640   3.776   9.264   3.976  0.6644 -0.3493 -0.7518
  894MOL0     H20641   3.725   9.655   3.985 -2.3091  2.9166  2.0976
  894MOL0     H20642   3.486   9.811   4.029 -3.0496  1.3663  0.3206
  894MOL0     H20643   3.359   9.715   4.092  0.1042  0.0034 -2.4046
  894MOL0     H20644   3.621   9.729   4.246  0.8017 -0.2352 -1.7887
  894MOL0     H20645   3.503   9.861   4.249  0.3859  0.5711 -1.3364
  894MOL0     H20646   3.337   9.643   4.292  0.4582 -2.2020  0.1524
  894MOL0     H20647   3.410   9.739   4.423 -1.2147 -1.3503  0.1573
  894MOL0     H20648   3.604   9.591   4.425  0.4695 -0.7645  2.5848
  894MOL0     H20649   3.509   9.472   4.340  1.5074  0.6217 -0.2434
  894MOL0     H20650   3.311   9.442   4.729 -1.1253 -1.2455  1.5894
  894MOL0     H20651   3.375   9.262   4.880 -0.7894  1.5082  0.0674
  894MOL0     H20652   3.883   9.164   5.025 -0.2682  0.9573 -0.9603
  894MOL0     H20653   3.973   9.033   5.221  0.0259 -1.3252  1.2797
  894MOL0     H20654   3.897   8.586   5.216 -0.0172  0.2051 -0.6531
  894MOL0     H20655   4.054   8.598   5.145  0.4791  1.3798  1.3539
  894MOL0     H20656   4.018   8.600   5.451  1.0673  1.8615 -0.0532
  894MOL0     H20657   4.066   8.453   5.359  1.4564 -0.0475  0.3604
  894MOL0     H20658   4.282   8.580   5.301 -1.9533 -1.2628 -1.8837
  894MOL0     H20659   4.222   8.719   5.405  1.5630 -0.5105  1.6855
  894MOL0     H20660   4.237   8.440   5.505 -0.7320  1.0866  0.4493
  894MOL0     H20661   4.202   8.581   5.593 -0.7741  2.2921 -1.2225
  894MOL0     H20662   4.458   8.511   5.424 -0.1082 -3.3713 -0.1366
  894MOL0     H20663   4.433   8.469   5.591 -0.5553  0.5810  0.7850
  894MOL0     H20664   4.574   8.666   5.541 -0.0646  2.3203 -0.2757
  894MOL0     H20665   4.428   8.755   5.508 -0.5660 -0.1829 -0.1093
  894MOL0     H20666   4.434   8.610   5.784  1.3682  0.6707  0.2720
  894MOL0     H20667   4.344   8.747   5.724 -0.9679 -0.7585  0.9789
  894MOL0     H20668   4.655   8.741   5.772 -0.1589  0.9533 -1.6338
  894MOL0     H20669   4.559   8.881   5.727  0.6988 -0.5093 -2.3199
  894MOL0     H20670   3.837   8.673   5.021 -0.0573 -0.2587  0.4426
  894MOL0     H20671   3.732   8.806   4.847  1.8112  0.9116 -1.8050
  894MOL0     H20672   3.727   9.210   4.634  2.3339  4.1186  0.2148
  894MOL0     H20673   3.669   9.381   4.493  1.1988  0.4557  0.8105
  894MOL0     H20674   4.509   8.841   4.223  1.0582  0.8382  1.2603
  894MOL0     H20675   4.651   8.651   4.108  1.0847  0.7547  0.2356
  894MOL0     H20676   5.208   8.646   3.985  1.5327 -0.5802  1.0677
  894MOL0     H20677   5.360   8.451   3.937  0.6350 -2.9926 -2.4005
  894MOL0     H20678   5.446   8.243   3.963 -0.7367 -0.2112 -0.1243
  894MOL0     H20679   5.428   8.267   3.788  0.1907 -1.3719 -0.9760
  894MOL0     H20680   5.421   8.015   3.787 -0.4269  1.2033 -1.7815
  894MOL0     H20681   5.500   8.020   3.943 -2.4373 -0.6043 -0.3574
  894MOL0     H20682   5.669   8.184   3.829 -1.2711  0.1561  1.9985
  894MOL0     H20683   5.612   8.127   3.672  0.5865 -1.6609  0.2744
  894MOL0     H20684   5.690   7.917   3.879  0.8405 -2.3563 -0.9370
  894MOL0     H20685   5.658   7.893   3.710 -1.9139  0.7771  0.9560
  894MOL0     H20686   6.050   8.085   3.758  0.0793  0.1721  0.0537
  894MOL0     H20687   5.022   8.197   3.853  2.5287 -0.8080 -3.4080
  894MOL0     H20688   4.781   8.421   4.013  1.8171 -2.0790  0.8230
  894MOL0     H20689   4.769   8.439   3.837  1.2731  4.8181  2.0994
  894MOL0     H20690   4.792   8.276   3.911 -0.6609 -0.7651  2.1404
  895MOL0     O20691   1.304   9.211   3.148  0.1874  0.2891  0.0248
  895MOL0     C20692   1.214   9.158   3.085  0.0622  0.6029 -1.2028
  895MOL0     O20693   1.141   9.056   3.138  0.4089  0.8257  0.1213
  895MOL0     C20694   1.167   9.004   3.256  0.1268 -0.9173 -0.1710
  895MOL0     C20695   1.298   8.957   3.291  0.5310  0.0386 -0.0335
  895MOL0     C20696   1.310   8.881   3.402 -1.3510 -0.7133 -1.1765
  895MOL0     C20697   1.205   8.867   3.494  0.0589 -0.0073 -0.1043
  895MOL0     O20698   1.224   8.816   3.627 -0.0955 -0.4158 -0.3004
  895MOL0     C20699   1.132   8.716   3.681  0.7042 -0.2180  0.9080
  895MOL0     C20700   1.215   8.618   3.751  0.5005 -0.2385  0.7026
  895MOL0     C20701   1.132   8.518   3.845 -0.6696 -0.1637 -0.0491
  895MOL0     C20702   1.240   8.428   3.919  1.3020  0.4886  0.5844
  895MOL0     C20703   1.179   8.349   4.047  0.1013  1.2066 -0.3275
  895MOL0     C20704   1.281   8.320   4.157  0.6314  0.2239 -0.8017
  895MOL0     C20705   1.408   8.234   4.112 -0.1643  0.1590  0.4579
  895MOL0     C20706   1.533   8.319   4.098 -0.2494  0.3549  0.4109
  895MOL0     N20707   1.646   8.234   4.088 -0.9384  0.9717 -0.4661
  895MOL0     C20708   1.694   8.159   4.194  0.3579  0.6507  0.0567
  895MOL0     C20709   1.804   8.098   4.142 -0.4533 -0.2119 -0.5881
  895MOL0     C20710   1.889   8.004   4.221 -0.3341  0.1443 -1.0169
  895MOL0     C20711   2.049   8.010   4.212  0.0558 -0.0866  0.0843
  895MOL0     C20712   2.091   8.137   4.283 -0.4130 -0.4799  0.3893
  895MOL0     C20713   2.217   8.188   4.214  0.6950  0.1106 -0.4871
  895MOL0     O20714   2.256   8.306   4.283 -0.7979 -0.4336 -0.2145
  895MOL0     C20715   2.387   8.353   4.261  0.8588 -0.7040  0.8928
  895MOL0     C20716   2.471   8.316   4.156  0.7023  0.4194 -0.8882
  895MOL0     C20717   2.592   8.383   4.137 -0.1057  0.0690 -1.2174
  895MOL0     C20718   2.621   8.485   4.233  0.5110 -0.7473 -0.0535
  895MOL0     C20719   2.752   8.552   4.226 -0.4784 -0.1131  0.0373
  895MOL0     O20720   2.844   8.483   4.162 -0.1303 -0.8719 -0.6232
  895MOL0     C20721   2.976   8.521   4.160  0.3800  0.2545  0.1780
  895MOL0     C20722   3.023   8.655   4.160  0.1812 -0.7943  0.7626
  895MOL0     C20723   3.162   8.676   4.160 -0.7198  0.1823  0.5328
  895MOL0     C20724   3.257   8.574   4.171  1.0252 -0.0947 -0.1865
  895MOL0     O20725   3.386   8.605   4.185  0.7069  0.3838 -0.1583
  895MOL0     C20726   3.495   8.507   4.151  0.5663 -0.2131 -0.6436
  895MOL0     C20727   3.631   8.572   4.148 -0.5162 -1.1474 -0.0416
  895MOL0     C20728   3.739   8.472   4.147 -0.2263  1.0450  0.4490
  895MOL0     C20729   3.878   8.533   4.181  0.0599 -0.1918  0.6946
  895MOL0     C20730   3.982   8.425   4.175 -0.2114  0.5712  0.4068
  895MOL0     C20731   4.113   8.494   4.187  0.3928 -0.2731 -0.1554
  895MOL0     C20732   4.228   8.400   4.147 -0.4904  0.5624  0.5487
  895MOL0     C20733   4.364   8.478   4.120 -0.0405  0.0392 -0.0748
  895MOL0    Cl20734   4.342   8.573   3.977  0.2657  0.5978 -0.2744
  895MOL0     C20735   3.206   8.445   4.173 -0.5387  0.0811  0.3435
  895MOL0     C20736   3.071   8.416   4.163  0.4029  0.5348 -0.3510
  895MOL0     O20737   2.778   8.648   4.296 -0.6215 -1.0803  0.6764
  895MOL0     C20738   2.531   8.526   4.328 -0.5605 -0.2568  0.6432
  895MOL0     C20739   2.414   8.456   4.346 -0.0316 -0.4648 -0.7398
  895MOL0     N20740   1.822   8.140   4.013  0.8123  0.4803  0.6973
  895MOL0     N20741   1.730   8.222   3.984  0.6514  1.0339 -1.0236
  895MOL0     C20742   1.083   8.915   3.459 -0.4005 -0.3921 -0.7977
  895MOL0     C20743   1.061   8.978   3.338 -0.0808 -0.4431 -0.6405
  895MOL0     C20744   1.182   9.217   2.947  0.5389 -0.6015  0.3032
  895MOL0     C20745   1.053   9.195   2.897  0.0376 -0.2245 -0.1593
  895MOL0     C20746   1.007   9.259   2.779 -0.1816 -0.3413 -0.1561
  895MOL0     C20747   1.100   9.334   2.707 -0.6448 -0.9392 -0.1683
  895MOL0     O20748   1.045   9.400   2.608 -0.2271 -0.0411  0.2243
  895MOL0     C20749   1.116   9.511   2.551  0.6678 -0.6648  1.0761
  895MOL0     C20750   1.048   9.570   2.430 -0.2482 -0.6036  0.0530
  895MOL0     C20751   0.911   9.648   2.453 -1.0269 -0.0514  0.3403
  895MOL0     C20752   0.950   9.795   2.480  0.3172  0.2490 -0.1155
  895MOL0     C20753   0.989   9.873   2.364  0.2381  0.3327 -0.9374
  895MOL0     C20754   1.023   9.944   2.270 -0.0313 -0.0133 -0.4813
  895MOL0     C20755   1.235   9.345   2.752 -0.2134  0.0949  0.5061
  895MOL0     C20756   1.273   9.280   2.868  0.0998 -0.2839  0.6739
  895MOL0     C20757   1.429   9.289   2.898 -0.1713 -0.1418 -1.4634
  895MOL0     H20758   1.387   8.983   3.236  0.9496  1.3094  1.1858
  895MOL0     H20759   1.412   8.853   3.426 -0.7198  0.9118 -1.8737
  895MOL0     H20760   1.052   8.760   3.741 -1.1581  0.4677 -1.8862
  895MOL0     H20761   1.086   8.666   3.596  1.6273 -1.4434  1.1042
  895MOL0     H20762   1.274   8.677   3.823 -0.0324 -0.9191  1.7317
  895MOL0     H20763   1.279   8.558   3.686  2.9681  1.9240  0.9346
  895MOL0     H20764   1.069   8.456   3.781 -0.3415  0.2186 -0.7465
  895MOL0     H20765   1.062   8.563   3.916 -1.2977 -3.8209  1.9010
  895MOL0     H20766   1.302   8.374   3.848  0.1122  1.3642 -1.1828
  895MOL0     H20767   1.311   8.498   3.964  1.7487  1.0199 -0.9104
  895MOL0     H20768   1.103   8.407   4.100 -1.4694  0.7495 -1.9752
  895MOL0     H20769   1.132   8.262   4.001 -1.8623  2.0834 -0.0706
  895MOL0     H20770   1.294   8.419   4.201 -1.1305  1.5635 -3.0824
  895MOL0     H20771   1.238   8.264   4.241  0.4866 -1.9155 -2.2002
  895MOL0     H20772   1.378   8.186   4.019  1.0039  2.0750 -0.9666
  895MOL0     H20773   1.417   8.152   4.184  0.5413  0.3086  0.5397
  895MOL0     H20774   1.528   8.378   4.006 -0.5088  0.6877  0.6365
  895MOL0     H20775   1.533   8.385   4.185  1.9750  0.0032  0.7389
  895MOL0     H20776   1.663   8.151   4.298  0.9519 -2.8664  0.0895
  895MOL0     H20777   1.852   7.998   4.324  0.0583  3.1474 -0.6192
  895MOL0     H20778   1.860   7.908   4.177  2.1950 -2.3702  2.2936
  895MOL0     H20779   2.087   7.925   4.268  1.0127  0.1804 -0.1496
  895MOL0     H20780   2.077   7.992   4.108  0.3261 -2.6555  0.5233
  895MOL0     H20781   2.110   8.127   4.391  0.5835  1.7055  0.4758
  895MOL0     H20782   2.010   8.210   4.274  0.7991  0.8900  0.2877
  895MOL0     H20783   2.203   8.209   4.108  0.7992 -0.4447 -0.6178
  895MOL0     H20784   2.276   8.097   4.229 -1.9954 -1.5598  0.9581
  895MOL0     H20785   2.436   8.239   4.089  0.2983  0.5703 -0.8523
  895MOL0     H20786   2.675   8.365   4.070  0.6935  2.0305 -0.8524
  895MOL0     H20787   2.951   8.735   4.171 -0.0229 -0.9674  0.6846
  895MOL0     H20788   3.205   8.776   4.163 -0.4783  0.0762  0.6307
  895MOL0     H20789   3.505   8.422   4.219 -0.9555 -1.5825 -2.0500
  895MOL0     H20790   3.471   8.464   4.054 -2.1055 -0.4983  0.0851
  895MOL0     H20791   3.645   8.639   4.063  0.2176 -2.5032 -1.0285
  895MOL0     H20792   3.628   8.628   4.242  1.3614  1.3471 -1.3278
  895MOL0     H20793   3.719   8.394   4.221 -3.6752 -0.0676 -1.4448
  895MOL0     H20794   3.741   8.433   4.045  0.5504 -0.2371  0.9312
  895MOL0     H20795   3.870   8.587   4.276 -1.2722 -0.9789  1.0447
  895MOL0     H20796   3.900   8.613   4.109  0.8065  1.5815  2.7577
  895MOL0     H20797   3.975   8.373   4.079 -1.4822 -1.9189  1.7597
  895MOL0     H20798   3.973   8.355   4.258  0.3831  0.3622  0.2973
  895MOL0     H20799   4.116   8.577   4.117  0.1531 -0.1292  0.0029
  895MOL0     H20800   4.132   8.542   4.283 -0.6578  0.8369 -0.4853
  895MOL0     H20801   4.204   8.356   4.050 -1.6387 -1.2787  1.5975
  895MOL0     H20802   4.246   8.324   4.224 -0.1149  0.4375  0.3384
  895MOL0     H20803   4.384   8.533   4.213 -0.8200 -0.2326  0.2627
  895MOL0     H20804   4.458   8.426   4.099  1.4578  3.0375 -1.4595
  895MOL0     H20805   3.274   8.362   4.183 -1.9539 -1.0141  1.2254
  895MOL0     H20806   3.024   8.320   4.144 -0.0883  1.0581 -1.9928
  895MOL0     H20807   2.553   8.612   4.390 -0.3962  1.2094 -1.3148
  895MOL0     H20808   2.338   8.485   4.417 -1.4948  1.3116 -2.8857
  895MOL0     H20809   1.003   8.912   3.533  0.8398 -0.5308  0.5918
  895MOL0     H20810   0.961   9.013   3.314 -0.8953 -0.6235  2.1436
  895MOL0     H20811   0.980   9.141   2.957  0.4453  1.2131  1.6948
  895MOL0     H20812   0.904   9.246   2.745  0.4511 -0.4987 -2.1395
  895MOL0     H20813   1.207   9.467   2.510 -0.3151  0.1847 -2.3646
  895MOL0     H20814   1.145   9.586   2.625  0.0455  0.3988  0.2812
  895MOL0     H20815   1.033   9.495   2.352  2.2410 -0.4744 -0.6644
  895MOL0     H20816   1.120   9.638   2.382  0.0653 -0.2224  1.0444
  895MOL0     H20817   0.858   9.622   2.545 -0.7810  1.4317  0.9440
  895MOL0     H20818   0.839   9.639   2.372 -0.3442  1.9387 -0.5398
  895MOL0     H20819   0.869   9.854   2.524  0.5244 -0.0355  0.6581
  895MOL0     H20820   1.025   9.796   2.560 -0.4528  3.2949  0.7249
  895MOL0     H20821   1.054   9.998   2.182 -1.1638 -1.0073 -1.5351
  895MOL0     H20822   1.307   9.396   2.689 -3.7321  1.6885 -2.6171
  895MOL0     H20823   1.474   9.191   2.915  0.0477  0.3179  0.9438
  895MOL0     H20824   1.481   9.336   2.813  2.8196 -0.4610  0.0632
  895MOL0     H20825   1.443   9.354   2.985  0.6401 -2.7131  0.4410
  896MOL0     O20826   4.461   6.912  10.868 -0.2184  0.0858 -0.4615
  896MOL0     C20827   4.483   7.031  10.843  0.5224  0.6500 -0.3033
  896MOL0     O20828   4.413   7.106  10.749 -0.3613  0.0121  0.4715
  896MOL0     C20829   4.284   7.063  10.720  0.0318  1.0648  0.8615
  896MOL0     C20830   4.247   7.084  10.585  0.2760  0.5305  0.4707
  896MOL0     C20831   4.120   7.048  10.534 -0.0905  0.6127 -0.2278
  896MOL0     C20832   4.026   7.004  10.623 -0.7549  0.2320 -0.5060
  896MOL0     O20833   3.897   6.965  10.590 -0.1375  0.1453 -0.6895
  896MOL0     C20834   3.814   7.082  10.610 -0.4713  0.9966  0.7038
  896MOL0     C20835   3.670   7.044  10.565  0.5641  0.5691 -0.2389
  896MOL0     C20836   3.593   6.970  10.670  0.5521 -1.1766  0.2829
  896MOL0     C20837   3.656   6.838  10.711  0.3644 -0.3052 -0.4883
  896MOL0     C20838   3.548   6.749  10.788 -0.0373 -0.3582 -0.4830
  896MOL0     C20839   3.622   6.641  10.867  0.3563 -0.0946  0.3389
  896MOL0     C20840   3.528   6.549  10.935  0.0921 -0.2185 -0.2607
  896MOL0     C20841   3.584   6.459  11.044 -0.1035 -0.6066  0.6200
  896MOL0     N20842   3.707   6.399  10.999 -0.2952 -0.0075 -0.5053
  896MOL0     C20843   3.718   6.301  10.908  0.3363  0.4402 -0.0926
  896MOL0     C20844   3.846   6.278  10.886  0.4391 -0.9773 -0.0188
  896MOL0     C20845   3.910   6.188  10.783 -0.1968 -0.3268 -0.4538
  896MOL0     C20846   4.061   6.163  10.824 -0.0251  0.0653  0.9344
  896MOL0     C20847   4.117   6.077  10.714  0.3727 -0.9770 -0.3384
  896MOL0     C20848   4.275   6.069  10.705 -0.5952  0.1200  0.4722
  896MOL0     O20849   4.302   5.973  10.605  0.7926 -0.1074 -0.2703
  896MOL0     C20850   4.427   5.919  10.592 -0.0127 -0.1003  0.5186
  896MOL0     C20851   4.544   5.991  10.605 -0.0230 -0.4743  0.8078
  896MOL0     C20852   4.666   5.926  10.590 -1.1979  0.1554  0.3423
  896MOL0     C20853   4.677   5.794  10.550  0.3625 -0.3414  0.1196
  896MOL0     C20854   4.804   5.735  10.505 -0.1293 -0.0632 -0.2188
  896MOL0     O20855   4.918   5.799  10.543 -0.1557 -0.6967 -0.1290
  896MOL0     C20856   5.045   5.742  10.539 -0.9005  0.0189  0.0024
  896MOL0     C20857   5.129   5.736  10.649 -0.4295 -0.1728 -0.3834
  896MOL0     C20858   5.252   5.670  10.633 -0.2470  0.5630 -0.4762
  896MOL0     C20859   5.299   5.597  10.522  0.0946 -0.2187  0.4964
  896MOL0     O20860   5.406   5.512  10.501 -0.0389 -0.0198 -0.3946
  896MOL0     C20861   5.481   5.481  10.621 -0.8135 -0.5477  0.7673
  896MOL0     C20862   5.629   5.433  10.596  0.2919 -0.3180  0.7357
  896MOL0     C20863   5.721   5.459  10.728  0.2322  0.1709  0.1614
  896MOL0     C20864   5.869   5.462  10.680  0.0253  0.8183 -0.2558
  896MOL0     C20865   5.950   5.535  10.789  0.1043 -1.1035 -0.6373
  896MOL0     C20866   6.087   5.589  10.749 -0.0311  0.6655  0.7868
  896MOL0     C20867   6.163   5.663  10.861  0.6826  0.6984  0.2822
  896MOL0     C20868   6.297   5.720  10.813  0.3473 -0.5797  0.2704
  896MOL0    Cl20869   6.386   5.776  10.953 -0.0717  1.1676  0.1214
  896MOL0     C20870   5.220   5.614  10.412  1.1631 -0.3959  0.9140
  896MOL0     C20871   5.094   5.691  10.418 -0.3464  0.6505  0.3952
  896MOL0     O20872   4.806   5.638  10.425 -0.0520  0.3291  0.4344
  896MOL0     C20873   4.562   5.723  10.525  0.1915  0.2848  0.9758
  896MOL0     C20874   4.438   5.787  10.544  0.3676 -0.3922  1.0651
  896MOL0     N20875   3.917   6.367  10.973 -0.4381 -0.5105  0.4175
  896MOL0     N20876   3.831   6.438  11.040  0.3207  0.3415  0.0587
  896MOL0     C20877   4.068   6.981  10.755  0.6287 -0.5752  0.4322
  896MOL0     C20878   4.191   7.015  10.805  1.0276 -0.1159  0.4263
  896MOL0     C20879   4.594   7.096  10.920 -0.1018 -0.1460  0.4840
  896MOL0     C20880   4.625   7.227  10.880  1.0207 -0.0461  1.3185
  896MOL0     C20881   4.730   7.299  10.932  0.3472 -0.0081 -0.2542
  896MOL0     C20882   4.799   7.244  11.040  0.1011  0.7917 -0.2022
  896MOL0     O20883   4.900   7.324  11.089  0.1206 -0.4810  0.2033
  896MOL0     C20884   4.951   7.301  11.225 -0.7698  0.9158  0.4772
  896MOL0     C20885   5.076   7.211  11.222 -0.8125 -0.1056  0.6073
  896MOL0     C20886   5.194   7.282  11.153  0.0567  0.5004  0.2615
  896MOL0     C20887   5.256   7.208  11.041  0.9631  0.2415  0.0822
  896MOL0     C20888   5.351   7.295  10.967 -0.1122 -0.1795  0.1666
  896MOL0     C20889   5.425   7.382  10.921  0.1351  0.4402  0.2486
  896MOL0     C20890   4.767   7.111  11.085 -0.5596  0.2148  0.5416
  896MOL0     C20891   4.664   7.041  11.029 -0.6250  0.5305  0.5716
  896MOL0     C20892   4.659   6.907  11.091  0.3008 -0.9243  0.6649
  896MOL0     H20893   4.323   7.114  10.515  1.4552  1.5288  2.1004
  896MOL0     H20894   4.101   7.068  10.429 -1.3424  3.0315  0.3848
  896MOL0     H20895   3.820   7.121  10.712 -1.6679  1.8523  0.4693
  896MOL0     H20896   3.857   7.156  10.542  0.1227 -0.3474 -0.4558
  896MOL0     H20897   3.662   6.983  10.475 -2.8935 -0.0477  0.3270
  896MOL0     H20898   3.616   7.134  10.533 -0.7296 -1.1569 -3.2909
  896MOL0     H20899   3.499   6.945  10.619  0.0903  2.3503 -0.8897
  896MOL0     H20900   3.565   7.031  10.757  2.1259  2.0216 -1.2500
  896MOL0     H20901   3.689   6.782  10.623  0.4934 -1.0453  0.0261
  896MOL0     H20902   3.743   6.862  10.773 -1.6677 -1.2177  2.9819
  896MOL0     H20903   3.509   6.804  10.873  1.2673  0.2613 -0.2675
  896MOL0     H20904   3.479   6.703  10.716 -0.2414  1.0766 -1.2428
  896MOL0     H20905   3.684   6.580  10.802 -2.8601 -2.8983 -0.3777
  896MOL0     H20906   3.684   6.689  10.943 -0.5802 -0.6067  1.4670
  896MOL0     H20907   3.472   6.492  10.860 -1.2834  1.8413 -0.8743
  896MOL0     H20908   3.456   6.602  10.998 -0.1310 -2.4591  1.5214
  896MOL0     H20909   3.621   6.526  11.123 -0.1599 -0.5987  0.6398
  896MOL0     H20910   3.512   6.393  11.093  0.4906 -0.3571  1.8647
  896MOL0     H20911   3.637   6.253  10.854  0.5335  1.8633 -1.7658
  896MOL0     H20912   3.843   6.103  10.768 -0.9370  0.1049  0.3197
  896MOL0     H20913   3.909   6.246  10.690 -0.1309 -0.6336 -0.6464
  896MOL0     H20914   4.120   6.254  10.809 -2.0532  1.0857 -1.7801
  896MOL0     H20915   4.059   6.113  10.921 -0.1936 -0.7702  0.5076
  896MOL0     H20916   4.083   6.113  10.617 -0.9650 -1.1460  0.0536
  896MOL0     H20917   4.074   5.978  10.732 -2.6481  0.2984  0.0016
  896MOL0     H20918   4.322   6.034  10.798  1.7659 -0.6306 -0.9319
  896MOL0     H20919   4.313   6.169  10.685  0.4208 -0.4721 -0.6960
  896MOL0     H20920   4.533   6.099  10.614 -2.3925 -0.4974 -0.9541
  896MOL0     H20921   4.753   5.990  10.598 -2.6735  2.4065 -0.5668
  896MOL0     H20922   5.102   5.794  10.737 -1.5607 -1.8691  0.4502
  896MOL0     H20923   5.318   5.653  10.719  0.1071 -3.4948 -1.3584
  896MOL0     H20924   5.507   5.572  10.676  0.9467  0.2024 -1.2066
  896MOL0     H20925   5.414   5.410  10.671 -1.8224 -0.4383 -0.3906
  896MOL0     H20926   5.626   5.324  10.584 -0.7718 -0.0592 -2.0458
  896MOL0     H20927   5.669   5.463  10.499  1.7834 -1.7579  0.8581
  896MOL0     H20928   5.708   5.560  10.766  1.5526  0.4464 -0.0994
  896MOL0     H20929   5.693   5.397  10.814 -0.0700  2.0112  1.4554
  896MOL0     H20930   5.878   5.520  10.588  0.2454 -2.1288 -2.2319
  896MOL0     H20931   5.908   5.362  10.660 -1.8211 -0.2817  1.2926
  896MOL0     H20932   5.966   5.472  10.877  0.3257  1.8645  1.5986
  896MOL0     H20933   5.890   5.620  10.822  0.4685 -0.8243 -0.6896
  896MOL0     H20934   6.138   5.495  10.725  0.5540  0.9000  1.0964
  896MOL0     H20935   6.083   5.656  10.662  1.9757  1.6926  1.4482
  896MOL0     H20936   6.189   5.588  10.937  2.3463 -0.3892 -1.2848
  896MOL0     H20937   6.094   5.736  10.903 -0.0336 -1.4249  3.1806
  896MOL0     H20938   6.345   5.644  10.751 -3.0849 -2.5498 -0.2094
  896MOL0     H20939   6.271   5.806  10.751 -1.1948 -0.1992  1.3891
  896MOL0     H20940   5.257   5.572  10.319 -0.2404  0.3252  0.0015
  896MOL0     H20941   5.036   5.724  10.332  1.0853  5.1276  0.8989
  896MOL0     H20942   4.569   5.621  10.488 -0.1837  0.3098  0.8395
  896MOL0     H20943   4.345   5.737  10.518  1.0982 -1.1820 -0.1455
  896MOL0     H20944   3.995   6.933  10.820 -0.0860 -3.8070 -2.4916
  896MOL0     H20945   4.229   6.998  10.905  1.9463 -2.5008 -0.2713
  896MOL0     H20946   4.566   7.282  10.807 -0.2571  0.9588  3.0298
  896MOL0     H20947   4.770   7.393  10.896 -1.8353  0.2808 -2.1727
  896MOL0     H20948   4.869   7.275  11.292  1.3340  0.2195  2.9484
  896MOL0     H20949   4.988   7.393  11.270  1.8865  0.1315  0.1346
  896MOL0     H20950   5.057   7.122  11.162  1.5228  0.5965 -1.3250
  896MOL0     H20951   5.100   7.180  11.324  3.8433 -1.1719 -0.5650
  896MOL0     H20952   5.260   7.329  11.227  0.1774  2.1580 -0.8381
  896MOL0     H20953   5.157   7.369  11.097 -1.1813 -0.0111  0.2548
  896MOL0     H20954   5.321   7.126  11.072  0.5509 -0.5412 -1.0629
  896MOL0     H20955   5.179   7.191  10.965  1.3358  0.6692 -0.4018
  896MOL0     H20956   5.498   7.454  10.890 -0.0848  0.1229 -1.0549
  896MOL0     H20957   4.824   7.063  11.164  0.9442  1.3634  0.2013
  896MOL0     H20958   4.712   6.881  11.184 -1.9867 -4.0169  1.2766
  896MOL0     H20959   4.554   6.901  11.120  0.0402 -0.2515 -0.1255
  896MOL0     H20960   4.667   6.834  11.011 -1.0930 -1.3481  0.8891
  897MOL0     O20961   5.440   1.286   6.536  0.3222  0.0458  0.1266
  897MOL0     C20962   5.414   1.404   6.565 -1.1188  0.5612  0.0623
  897MOL0     O20963   5.495   1.513   6.552  0.5384  0.1736  0.1620
  897MOL0     C20964   5.610   1.493   6.477  0.5329 -0.4063  0.2829
  897MOL0     C20965   5.620   1.559   6.348 -0.2829  0.6170  0.4561
  897MOL0     C20966   5.731   1.555   6.267 -0.3532  0.9351 -0.2102
  897MOL0     C20967   5.847   1.488   6.322 -0.0464  0.3022 -0.1496
  897MOL0     O20968   5.958   1.486   6.243 -0.5234 -0.8315 -0.5295
  897MOL0     C20969   6.089   1.456   6.309 -0.1650 -0.8933 -1.1422
  897MOL0     C20970   6.213   1.452   6.215  0.5118  0.9616  0.0535
  897MOL0     C20971   6.183   1.314   6.142 -0.5144 -0.8227  0.3556
  897MOL0     C20972   6.120   1.324   6.004  0.4585 -0.1567  0.5090
  897MOL0     C20973   6.092   1.176   5.962  0.4053 -0.4634 -0.1124
  897MOL0     C20974   5.970   1.088   6.036 -0.6177  0.2193  0.6232
  897MOL0     C20975   5.919   0.978   5.952  0.1810  0.6571  0.7926
  897MOL0     C20976   5.828   1.020   5.834 -0.3608 -0.0365  0.0605
  897MOL0     N20977   5.906   1.081   5.724  0.3000  0.1331  0.3292
  897MOL0     C20978   5.904   1.215   5.688  0.8006 -0.3191  0.7336
  897MOL0     C20979   5.992   1.226   5.579  1.3545 -0.2248 -0.3314
  897MOL0     C20980   6.029   1.346   5.503  0.0367  0.8265 -0.0831
  897MOL0     C20981   5.908   1.433   5.496  0.2122  0.3586  0.3007
  897MOL0     C20982   5.932   1.549   5.409  0.0174  0.4662  0.9737
  897MOL0     C20983   5.932   1.510   5.258 -0.7161 -0.9517  0.1612
  897MOL0     O20984   5.810   1.448   5.225 -0.6562 -0.0588  0.1159
  897MOL0     C20985   5.739   1.490   5.117 -0.1265 -0.0523 -0.8618
  897MOL0     C20986   5.765   1.593   5.028  0.1023  0.2373  0.3079
  897MOL0     C20987   5.699   1.612   4.906  0.7850 -0.1185  0.3339
  897MOL0     C20988   5.585   1.534   4.881 -0.6329  0.0094  0.4550
  897MOL0     C20989   5.516   1.549   4.745  0.2500  0.8287 -0.7145
  897MOL0     O20990   5.382   1.523   4.743  0.3114 -0.3710  0.4743
  897MOL0     C20991   5.306   1.523   4.626  0.1721  0.2909  1.2107
  897MOL0     C20992   5.294   1.630   4.529  0.6030 -0.2479 -0.7846
  897MOL0     C20993   5.209   1.620   4.419 -0.1662  0.4880 -0.1938
  897MOL0     C20994   5.141   1.502   4.384 -0.3481 -0.2606 -0.2381
  897MOL0     O20995   5.062   1.507   4.274  0.9469  0.6059 -0.0024
  897MOL0     C20996   4.969   1.396   4.260 -2.1873  0.2162  0.3150
  897MOL0     C20997   4.869   1.428   4.150 -0.0378  0.2893  0.5312
  897MOL0     C20998   4.761   1.322   4.129 -0.8426  0.4357  0.2978
  897MOL0     C20999   4.661   1.380   4.022  0.0610  1.1444  0.7226
  897MOL0     C21000   4.564   1.268   3.973  0.0964 -0.5090  1.0433
  897MOL0     C21001   4.493   1.186   4.085  0.5143  1.0282  0.4965
  897MOL0     C21002   4.434   1.058   4.029  0.1511 -0.5514 -0.6264
  897MOL0     C21003   4.300   1.090   3.962 -0.0078 -0.4688 -0.6708
  897MOL0    Cl21004   4.184   1.152   4.084  0.2598  0.2448  0.4944
  897MOL0     C21005   5.161   1.395   4.471  1.6160 -0.1079  0.2796
  897MOL0     C21006   5.239   1.406   4.591  0.2307 -0.0206 -0.1837
  897MOL0     O21007   5.577   1.586   4.645  0.3425  0.4750 -0.4728
  897MOL0     C21008   5.550   1.433   4.973  1.0931 -0.0237  0.2182
  897MOL0     C21009   5.624   1.409   5.092 -0.6719 -0.0870  0.4190
  897MOL0     N21010   6.026   1.097   5.541  0.1554  0.6041 -0.2054
  897MOL0     N21011   5.976   1.016   5.634  0.9212  0.2400 -0.7049
  897MOL0     C21012   5.838   1.424   6.444  0.4376 -0.0523 -0.5842
  897MOL0     C21013   5.723   1.436   6.521  0.3964 -0.0676 -0.5494
  897MOL0     C21014   5.286   1.453   6.625 -0.3163  0.1594  0.8122
  897MOL0     C21015   5.251   1.591   6.640  0.3220  0.4318 -1.1573
  897MOL0     C21016   5.125   1.636   6.687  0.1775  1.4534  0.3470
  897MOL0     C21017   5.021   1.546   6.716 -0.9561  0.1621  0.0128
  897MOL0     O21018   4.894   1.581   6.768 -0.2819  0.9193  0.1589
  897MOL0     C21019   4.861   1.712   6.791 -0.7352  0.0925  0.2380
  897MOL0     C21020   4.717   1.687   6.846  0.6180 -0.2964  0.0407
  897MOL0     C21021   4.676   1.821   6.906  0.1790  0.3936 -0.3174
  897MOL0     C21022   4.543   1.795   6.976  0.0473  0.2235  0.9522
  897MOL0     C21023   4.442   1.750   6.874  0.0772  0.1342  0.2187
  897MOL0     C21024   4.350   1.720   6.798 -0.0041  0.4645 -0.4423
  897MOL0     C21025   5.048   1.407   6.695 -0.0454 -0.1065 -0.1463
  897MOL0     C21026   5.181   1.365   6.669 -0.4826  0.8167 -0.3165
  897MOL0     C21027   5.211   1.222   6.704 -0.2339  0.5537  0.4669
  897MOL0     H21028   5.533   1.613   6.310  0.5169  2.5360  1.2111
  897MOL0     H21029   5.733   1.594   6.165  1.0575  2.1098  0.2192
  897MOL0     H21030   6.115   1.537   6.379  1.7722 -1.0401 -1.6284
  897MOL0     H21031   6.088   1.370   6.377  0.1801  2.4185  3.5674
  897MOL0     H21032   6.307   1.433   6.267  0.5265 -3.0982 -1.1075
  897MOL0     H21033   6.219   1.539   6.149 -1.4184  0.6659 -0.5789
  897MOL0     H21034   6.142   1.244   6.215 -3.2225  1.7872  1.4970
  897MOL0     H21035   6.285   1.279   6.120  0.4061  1.5876  0.5435
  897MOL0     H21036   6.027   1.381   6.008  1.1961  1.0908  0.5008
  897MOL0     H21037   6.188   1.368   5.930  2.0075 -2.4788  0.4701
  897MOL0     H21038   6.066   1.192   5.857 -2.1210 -1.6368  0.2666
  897MOL0     H21039   6.187   1.125   5.979 -0.9019 -1.7485  5.4875
  897MOL0     H21040   5.998   1.049   6.134 -2.9101 -1.4879  0.6857
  897MOL0     H21041   5.887   1.157   6.056 -1.4332 -0.8184  0.8871
  897MOL0     H21042   5.870   0.910   6.022  2.5946 -0.2022  1.7642
  897MOL0     H21043   5.997   0.914   5.909 -1.1728  0.1553 -1.0264
  897MOL0     H21044   5.776   0.929   5.804  0.7892 -0.6303 -0.2007
  897MOL0     H21045   5.755   1.092   5.872 -0.1930  1.2185 -1.8228
  897MOL0     H21046   5.853   1.300   5.732 -0.4216 -0.9868  0.6235
  897MOL0     H21047   6.107   1.392   5.564  0.3003  2.6906 -1.7396
  897MOL0     H21048   6.075   1.317   5.407  0.3176 -0.3288  0.3805
  897MOL0     H21049   5.815   1.380   5.474  0.4426 -1.3203  2.9288
  897MOL0     H21050   5.896   1.473   5.597  0.0322 -0.8119  0.7562
  897MOL0     H21051   6.028   1.598   5.427 -0.8072  1.6235  2.4558
  897MOL0     H21052   5.853   1.624   5.415  0.2508  1.3179 -3.5710
  897MOL0     H21053   6.007   1.435   5.235 -1.5663 -1.0602 -2.6290
  897MOL0     H21054   5.957   1.598   5.198  1.3318  1.0957  3.6763
  897MOL0     H21055   5.848   1.660   5.046 -1.1264  1.4372  1.8566
  897MOL0     H21056   5.726   1.683   4.829  2.2882 -1.8754 -0.8387
  897MOL0     H21057   5.346   1.722   4.555 -0.7883  0.1718  0.6600
  897MOL0     H21058   5.186   1.706   4.358  0.7509 -0.3596 -1.8048
  897MOL0     H21059   5.016   1.299   4.241 -1.3841  0.6051  0.2770
  897MOL0     H21060   4.934   1.387   4.363  1.1644 -3.0344  1.3899
  897MOL0     H21061   4.825   1.527   4.162  2.8417  1.5473  1.6085
  897MOL0     H21062   4.923   1.423   4.055 -1.0579  3.3055 -0.3094
  897MOL0     H21063   4.800   1.223   4.102 -0.4818  0.6008  0.1949
  897MOL0     H21064   4.709   1.317   4.225 -0.5766  4.7870  0.8843
  897MOL0     H21065   4.718   1.409   3.933  3.0970 -3.5088  0.8277
  897MOL0     H21066   4.607   1.467   4.061  0.2236  1.7846 -0.4210
  897MOL0     H21067   4.631   1.203   3.916  0.5257  0.8506 -0.0589
  897MOL0     H21068   4.483   1.304   3.908 -0.2655 -1.3205  1.0321
  897MOL0     H21069   4.569   1.147   4.154  0.1304  1.8583  1.4096
  897MOL0     H21070   4.417   1.241   4.140 -0.4455  1.6390 -1.3804
  897MOL0     H21071   4.434   0.980   4.106 -0.4941 -1.9583 -1.9825
  897MOL0     H21072   4.506   1.022   3.955  1.1670  1.9893 -0.9645
  897MOL0     H21073   4.309   1.175   3.893 -3.4345  0.1138 -0.5711
  897MOL0     H21074   4.238   1.021   3.905 -3.5718  1.2479  0.8373
  897MOL0     H21075   5.116   1.297   4.460  1.3383 -0.1507  1.6249
  897MOL0     H21076   5.248   1.327   4.665  0.2893 -2.3212 -2.5142
  897MOL0     H21077   5.462   1.377   4.944  1.0165  0.4207 -0.4560
  897MOL0     H21078   5.592   1.330   5.160  1.7938 -2.0228 -0.5221
  897MOL0     H21079   5.921   1.373   6.493 -0.8478 -0.7757  0.9443
  897MOL0     H21080   5.733   1.397   6.622 -0.3247 -1.6120 -1.0505
  897MOL0     H21081   5.328   1.657   6.604  1.6552 -0.1055  0.5744
  897MOL0     H21082   5.108   1.744   6.689 -2.3660  1.1114  2.3369
  897MOL0     H21083   4.866   1.769   6.698 -1.5031  2.1737  1.4369
  897MOL0     H21084   4.925   1.762   6.864 -2.3560  1.3372  0.8580
  897MOL0     H21085   4.729   1.616   6.928  0.0355  2.5396  2.8127
  897MOL0     H21086   4.645   1.654   6.770 -2.5383 -3.6218  4.0054
  897MOL0     H21087   4.668   1.887   6.820 -0.1492  1.2411  0.3441
  897MOL0     H21088   4.752   1.858   6.975  0.0789  3.0495 -1.5036
  897MOL0     H21089   4.549   1.719   7.054 -2.5280  0.3276  1.3471
  897MOL0     H21090   4.511   1.890   7.019 -0.7223  0.1085  0.6543
  897MOL0     H21091   4.263   1.701   6.739  0.9348 -0.3452 -1.6475
  897MOL0     H21092   4.978   1.346   6.751  0.6028  0.5787  1.5071
  897MOL0     H21093   5.128   1.160   6.738 -2.9158  2.9072 -1.3555
  897MOL0     H21094   5.257   1.170   6.620  1.7544  4.1270 -0.8661
  897MOL0     H21095   5.287   1.224   6.783  0.9246 -0.8480 -0.5477
  898MOL0     O21096   7.233   3.576  10.152  0.0456 -0.8035 -0.2763
  898MOL0     C21097   7.184   3.687  10.118 -0.7214 -0.4139 -0.6874
  898MOL0     O21098   7.256   3.802  10.090  0.6989 -0.2002  0.3609
  898MOL0     C21099   7.387   3.816  10.138  0.3242 -0.2623  0.3430
  898MOL0     C21100   7.491   3.804  10.044 -0.3101  0.5790  1.0454
  898MOL0     C21101   7.624   3.814  10.080  0.1817  0.9466  0.2444
  898MOL0     C21102   7.665   3.843  10.209 -0.3134 -0.5623 -0.9531
  898MOL0     O21103   7.802   3.853  10.242  0.4766  0.0242 -0.3246
  898MOL0     C21104   7.827   3.909  10.371 -0.0838  1.4247 -0.0875
  898MOL0     C21105   7.972   3.942  10.397  0.0975  0.2797  0.3954
  898MOL0     C21106   8.056   3.825  10.429 -0.4243  0.2479 -0.4095
  898MOL0     C21107   8.208   3.867  10.416  0.3375 -0.2405 -0.8087
  898MOL0     C21108   8.311   3.755  10.399  0.4096  0.0539  0.0101
  898MOL0     C21109   8.316   3.642  10.508  0.8613 -0.1523 -0.0663
  898MOL0     C21110   8.351   3.684  10.651  0.2822  0.4086  0.5929
  898MOL0     C21111   8.497   3.725  10.662  0.1838 -0.3069 -0.6462
  898MOL0     N21112   8.547   3.780  10.790  1.1234  0.0487  0.3860
  898MOL0     C21113   8.671   3.758  10.853 -0.2443 -0.5157  0.9024
  898MOL0     C21114   8.697   3.863  10.927  0.6222  0.3168  0.2037
  898MOL0     C21115   8.809   3.866  11.023  0.0715  0.4859  0.6395
  898MOL0     C21116   8.775   3.919  11.159  0.3592 -0.0305 -0.4393
  898MOL0     C21117   8.777   4.070  11.167  0.0138  0.5805  0.9005
  898MOL0     C21118   8.778   4.122  11.314 -0.2669 -0.6506  0.0437
  898MOL0     O21119   8.668   4.049  11.375 -0.9850 -0.2434  0.0455
  898MOL0     C21120   8.594   4.122  11.474 -0.4227  0.4793  0.4936
  898MOL0     C21121   8.449   4.113  11.469  0.2330  0.8722 -0.7042
  898MOL0     C21122   8.374   4.193  11.560 -0.3563  0.7742 -0.8214
  898MOL0     C21123   8.438   4.288  11.652  0.5396 -0.7851  0.8197
  898MOL0     C21124   8.356   4.385  11.717 -0.1188  0.0831 -0.3092
  898MOL0     O21125   8.416   4.479  11.794  0.4848 -0.0787 -0.1403
  898MOL0     C21126   8.341   4.586  11.832 -0.7746  0.6202 -0.2702
  898MOL0     C21127   8.363   4.621  11.972  1.1000 -0.3813  0.3191
  898MOL0     C21128   8.309   4.740  12.024  0.4130 -0.0557 -0.3085
  898MOL0     C21129   8.220   4.815  11.943  0.4392 -0.2584 -0.4906
  898MOL0     O21130   8.160   4.929  12.004 -0.4390 -0.0137  0.1663
  898MOL0     C21131   8.132   5.047  11.931  0.3883  0.7502 -0.0601
  898MOL0     C21132   7.981   5.049  11.893 -0.1952  0.2568  0.2866
  898MOL0     C21133   7.937   5.144  11.784  0.7670 -0.0534 -0.6273
  898MOL0     C21134   7.783   5.168  11.775 -0.3263 -0.1620  0.0165
  898MOL0     C21135   7.747   5.243  11.649 -0.0613  0.2834  0.1495
  898MOL0     C21136   7.635   5.342  11.672  0.0210  0.3980  0.1849
  898MOL0     C21137   7.546   5.346  11.546  0.5314 -0.1071 -0.2132
  898MOL0     C21138   7.453   5.471  11.567 -0.4252  0.1842 -0.1997
  898MOL0    Cl21139   7.536   5.627  11.604  0.6023  0.7329  0.0641
  898MOL0     C21140   8.195   4.777  11.814 -0.5596  0.3265  0.4911
  898MOL0     C21141   8.256   4.661  11.756  1.4033 -0.4585 -0.7882
  898MOL0     O21142   8.234   4.385  11.695  0.2276 -0.3371  0.4401
  898MOL0     C21143   8.575   4.295  11.639  0.3536 -0.2017 -0.4620
  898MOL0     C21144   8.655   4.210  11.562  0.1757 -0.3571  0.8483
  898MOL0     N21145   8.587   3.947  10.924 -0.5420 -0.3329 -0.0121
  898MOL0     N21146   8.492   3.891  10.843  0.4745 -0.3459 -0.1215
  898MOL0     C21147   7.560   3.859  10.299  0.1893  0.8925 -0.0969
  898MOL0     C21148   7.428   3.852  10.267  0.2029  0.3203 -0.1567
  898MOL0     C21149   7.035   3.712  10.118 -0.0867 -1.0300 -0.2124
  898MOL0     C21150   6.987   3.841  10.072 -0.1207  0.7730 -0.4771
  898MOL0     C21151   6.855   3.885  10.093  0.8141  0.0843  0.1941
  898MOL0     C21152   6.760   3.793  10.150  0.5085  0.7058  0.5567
  898MOL0     O21153   6.642   3.849  10.168 -0.3123 -0.4206  0.1229
  898MOL0     C21154   6.537   3.792  10.094  0.3617  0.2665  0.0355
  898MOL0     C21155   6.519   3.855   9.955  0.5005  0.2292  0.0194
  898MOL0     C21156   6.501   4.001   9.962 -0.2395 -1.1224 -0.3404
  898MOL0     C21157   6.399   4.064  10.045  0.7761 -0.1764 -0.8920
  898MOL0     C21158   6.274   3.999  10.024  0.2023  0.4529 -0.5717
  898MOL0     C21159   6.181   3.934   9.976  1.0156 -0.7472  0.8764
  898MOL0     C21160   6.799   3.663  10.185  0.0403 -0.9449  0.2339
  898MOL0     C21161   6.937   3.620  10.165  0.5289 -0.4808  1.1767
  898MOL0     C21162   6.967   3.479  10.191  0.3183  0.2768 -0.1850
  898MOL0     H21163   7.480   3.775   9.940  2.8521 -1.0509  1.0586
  898MOL0     H21164   7.701   3.790  10.008  0.1882 -2.4185  1.2228
  898MOL0     H21165   7.777   4.006  10.369 -3.2005 -0.0365 -1.0878
  898MOL0     H21166   7.785   3.855  10.456 -1.1245  2.4776  0.0953
  898MOL0     H21167   7.973   4.024  10.470 -1.2243  0.7857 -0.1136
  898MOL0     H21168   8.006   3.990  10.305 -1.0873 -0.4980 -0.4769
  898MOL0     H21169   8.031   3.744  10.360 -1.8707  0.8105 -0.5739
  898MOL0     H21170   8.034   3.789  10.530  2.0202  1.3618  0.5975
  898MOL0     H21171   8.221   3.931  10.328  0.5581 -0.6616 -1.0889
  898MOL0     H21172   8.243   3.917  10.507 -0.3283 -1.4641  0.1567
  898MOL0     H21173   8.292   3.706  10.303 -1.2211 -0.6218  0.6490
  898MOL0     H21174   8.408   3.806  10.394  1.6046 -1.9654  1.2857
  898MOL0     H21175   8.216   3.600  10.519  1.8365 -2.7276 -0.3996
  898MOL0     H21176   8.381   3.561  10.473  1.2743 -0.5969  1.6467
  898MOL0     H21177   8.315   3.593  10.700 -3.0128  0.9457 -0.6054
  898MOL0     H21178   8.288   3.769  10.678 -3.1527 -1.5427 -0.7053
  898MOL0     H21179   8.564   3.644  10.634  5.2472  3.1597  0.1617
  898MOL0     H21180   8.509   3.809  10.593 -0.2809 -0.4520 -0.9087
  898MOL0     H21181   8.736   3.674  10.827 -0.0532  0.2537 -1.3396
  898MOL0     H21182   8.848   3.764  11.026 -1.1180  0.0020  0.4462
  898MOL0     H21183   8.892   3.924  10.982 -0.5005  0.3973 -0.6897
  898MOL0     H21184   8.677   3.888  11.198 -0.9357  2.3197 -1.6073
  898MOL0     H21185   8.849   3.878  11.228  1.0437 -0.7142 -1.5628
  898MOL0     H21186   8.678   4.095  11.129 -1.1775 -2.0218  2.0505
  898MOL0     H21187   8.855   4.110  11.100 -0.2998 -1.1682 -0.5980
  898MOL0     H21188   8.748   4.227  11.325  0.7579 -0.0990 -1.9065
  898MOL0     H21189   8.873   4.098  11.362  0.3823 -0.3723 -1.0656
  898MOL0     H21190   8.404   4.049  11.394 -0.0138 -0.9815  0.9670
  898MOL0     H21191   8.266   4.196  11.547 -0.3851  1.4898 -0.4671
  898MOL0     H21192   8.433   4.567  12.035  0.7463 -2.1369 -0.7219
  898MOL0     H21193   8.334   4.784  12.120 -0.3808 -0.4252  0.0779
  898MOL0     H21194   8.154   5.142  11.979  0.2799  1.3830 -1.2424
  898MOL0     H21195   8.196   5.049  11.842  2.4457  4.5440  1.2900
  898MOL0     H21196   7.950   4.949  11.861  1.4757  0.4786 -2.3656
  898MOL0     H21197   7.932   5.071  11.988  0.2310  1.5208  0.2227
  898MOL0     H21198   7.980   5.238  11.822  0.3669 -1.1298  2.8834
  898MOL0     H21199   7.978   5.121  11.686  2.0478  1.8532 -0.6064
  898MOL0     H21200   7.753   5.223  11.864 -0.0119  1.0546 -0.6141
  898MOL0     H21201   7.732   5.071  11.772 -0.7383  0.0675 -1.9422
  898MOL0     H21202   7.722   5.165  11.576 -0.9705  1.1378 -0.4956
  898MOL0     H21203   7.830   5.301  11.607  0.2189  0.4004  0.8480
  898MOL0     H21204   7.571   5.315  11.757  3.2778  0.1596  2.8214
  898MOL0     H21205   7.686   5.438  11.683  0.1600  0.2139  1.3257
  898MOL0     H21206   7.490   5.252  11.544 -1.2497  0.8176  1.9284
  898MOL0     H21207   7.605   5.352  11.454  0.2056 -0.8509 -0.4742
  898MOL0     H21208   7.381   5.477  11.484  0.4520  0.2510 -0.9702
  898MOL0     H21209   7.385   5.447  11.649 -5.0113 -1.3704 -3.9357
  898MOL0     H21210   8.122   4.834  11.759  0.2053  0.7427 -0.1214
  898MOL0     H21211   8.241   4.635  11.651  1.0655 -1.4091 -0.5165
  898MOL0     H21212   8.609   4.375  11.704  1.0925 -0.1146 -0.9444
  898MOL0     H21213   8.762   4.229  11.571 -0.0919  0.5327  2.4758
  898MOL0     H21214   7.590   3.873  10.403  1.1023 -1.3941  0.0250
  898MOL0     H21215   7.368   3.849  10.357 -0.6718 -1.2584 -0.7527
  898MOL0     H21216   7.057   3.916  10.038 -0.0780 -0.1523 -2.5855
  898MOL0     H21217   6.814   3.979  10.058 -1.1696 -0.3443  1.1988
  898MOL0     H21218   6.443   3.792  10.150  1.4746 -2.0109  2.1168
  898MOL0     H21219   6.545   3.684  10.075 -0.1517  0.0189  1.1573
  898MOL0     H21220   6.436   3.812   9.899  2.9638 -4.1793 -0.7520
  898MOL0     H21221   6.608   3.841   9.892  1.9626  0.7847  1.8846
  898MOL0     H21222   6.496   4.036   9.858  1.7081 -0.8014 -0.3735
  898MOL0     H21223   6.601   4.040   9.982  0.5046 -2.3232 -1.5483
  898MOL0     H21224   6.417   4.056  10.152 -0.6150 -2.3188 -0.7586
  898MOL0     H21225   6.397   4.172  10.028  1.1179  0.4617  2.4579
  898MOL0     H21226   6.088   3.895   9.941 -0.1929 -0.5221  3.5680
  898MOL0     H21227   6.725   3.597  10.229 -1.0351  0.4539  0.5714
  898MOL0     H21228   7.020   3.428  10.110 -0.4157 -1.5280  0.4156
  898MOL0     H21229   7.020   3.465  10.286 -0.3653 -2.0479 -0.0783
  898MOL0     H21230   6.881   3.412  10.204  3.5944 -4.3375  0.0063
  899MOL0     O21231   0.865   1.944   6.124  0.3839  0.6319 -0.0826
  899MOL0     C21232   0.888   1.921   6.240  0.4774  0.6116 -0.0595
  899MOL0     O21233   1.002   1.864   6.294  0.1289 -0.2897  0.3025
  899MOL0     C21234   1.117   1.840   6.219 -0.5210 -0.0240 -0.3901
  899MOL0     C21235   1.125   1.787   6.084  0.2379  0.1622 -1.0424
  899MOL0     C21236   1.255   1.764   6.030  0.2658  0.1589 -0.3739
  899MOL0     C21237   1.370   1.781   6.101 -0.5318 -0.0734  0.3061
  899MOL0     O21238   1.499   1.757   6.046  0.5802  1.0546 -0.2890
  899MOL0     C21239   1.526   1.649   5.952 -1.0339  0.4670  0.1457
  899MOL0     C21240   1.671   1.675   5.891  0.3449 -0.3806  0.6581
  899MOL0     C21241   1.775   1.586   5.953 -0.1091 -0.0618  0.0015
  899MOL0     C21242   1.902   1.573   5.865  0.0975  0.2457  0.2468
  899MOL0     C21243   2.018   1.512   5.946 -0.3423 -0.6505 -0.3998
  899MOL0     C21244   2.140   1.502   5.858 -0.2871 -1.1930  0.5514
  899MOL0     C21245   2.244   1.398   5.896 -0.7231 -0.0399  0.2358
  899MOL0     C21246   2.347   1.364   5.788 -0.0455  0.2459 -0.3264
  899MOL0     N21247   2.451   1.467   5.757 -0.6873  0.2113 -1.2795
  899MOL0     C21248   2.435   1.574   5.682  0.5081 -0.2560 -0.1270
  899MOL0     C21249   2.557   1.628   5.651  0.7053  0.1852  0.3358
  899MOL0     C21250   2.568   1.741   5.555  0.2638  0.8052 -0.6744
  899MOL0     C21251   2.709   1.771   5.515 -0.1382  0.7358 -0.2536
  899MOL0     C21252   2.706   1.884   5.426 -0.2738  0.4079  0.5709
  899MOL0     C21253   2.831   1.908   5.349 -0.1313  0.0452  0.5019
  899MOL0     O21254   2.891   1.787   5.302  0.2878  0.2419  0.3254
  899MOL0     C21255   3.018   1.777   5.258  0.3568  0.1950  0.1511
  899MOL0     C21256   3.072   1.656   5.207  0.0761 -0.3485 -0.4650
  899MOL0     C21257   3.195   1.645   5.158 -0.9909  1.2921  0.2134
  899MOL0     C21258   3.279   1.759   5.142 -0.4230  0.2167 -0.7486
  899MOL0     C21259   3.416   1.749   5.081 -0.8308 -0.4626 -0.2342
  899MOL0     O21260   3.505   1.857   5.080 -0.1611  0.0111 -0.2106
  899MOL0     C21261   3.632   1.834   5.027 -0.9722  0.3114 -0.1090
  899MOL0     C21262   3.740   1.856   5.114  0.4897 -0.4719  0.3757
  899MOL0     C21263   3.864   1.827   5.070 -0.3650 -0.8559  0.2326
  899MOL0     C21264   3.893   1.781   4.943 -1.0576  0.3385  0.3347
  899MOL0     O21265   4.030   1.762   4.910  0.3498  0.0742 -0.9074
  899MOL0     C21266   4.069   1.723   4.773 -0.1880 -0.2711 -0.2450
  899MOL0     C21267   4.215   1.680   4.779 -0.1299 -0.1795 -0.4913
  899MOL0     C21268   4.311   1.802   4.775  0.0741 -0.0819 -0.4771
  899MOL0     C21269   4.455   1.761   4.828  0.1369 -0.1572  0.6316
  899MOL0     C21270   4.563   1.865   4.826  0.3984  0.2234  0.0599
  899MOL0     C21271   4.541   1.986   4.922 -0.2253 -0.0394  0.3749
  899MOL0     C21272   4.668   2.086   4.916  0.1311  1.1849 -0.1688
  899MOL0     C21273   4.659   2.163   4.786  0.8868  0.6549 -0.1123
  899MOL0    Cl21274   4.543   2.300   4.830  0.0237  0.1636  0.1832
  899MOL0     C21275   3.786   1.767   4.853 -0.5184  0.0089 -1.5651
  899MOL0     C21276   3.657   1.797   4.893  0.8138 -0.6035  0.4703
  899MOL0     O21277   3.441   1.640   5.033 -0.2882  0.1830  0.1838
  899MOL0     C21278   3.225   1.886   5.172  0.2154 -0.5299  1.1420
  899MOL0     C21279   3.098   1.893   5.231 -0.1653  0.7469  0.1564
  899MOL0     N21280   2.648   1.542   5.704  0.0191 -0.1180  0.1906
  899MOL0     N21281   2.590   1.449   5.774  0.2672  0.7678 -0.8661
  899MOL0     C21282   1.361   1.828   6.229 -0.2899  0.4624 -1.2997
  899MOL0     C21283   1.238   1.854   6.296  0.1118  0.6794  1.0798
  899MOL0     C21284   0.787   1.964   6.346 -0.4254 -0.8121  0.7751
  899MOL0     C21285   0.842   1.987   6.471 -0.2293  0.1613  1.1474
  899MOL0     C21286   0.762   2.050   6.565  0.3619  0.7985  0.0695
  899MOL0     C21287   0.623   2.074   6.558 -0.1307 -0.0149  0.5213
  899MOL0     O21288   0.544   2.135   6.656 -0.4699  1.1146 -1.1435
  899MOL0     C21289   0.608   2.167   6.784 -0.0013  0.1964  0.3642
  899MOL0     C21290   0.516   2.220   6.883  0.6521  0.3870 -0.3604
  899MOL0     C21291   0.411   2.114   6.916 -0.0536 -0.4470  0.3814
  899MOL0     C21292   0.344   2.143   7.054  0.0799 -0.7331  0.7853
  899MOL0     C21293   0.203   2.100   7.052 -0.6707 -0.3043 -0.2797
  899MOL0     C21294   0.094   2.038   7.065 -0.2015  0.2706  1.1044
  899MOL0     C21295   0.570   2.045   6.437 -0.4772 -0.2973 -0.6082
  899MOL0     C21296   0.647   1.996   6.331  0.0628  0.3588  0.0351
  899MOL0     C21297   0.575   1.976   6.201 -0.5538 -0.4884 -0.5441
  899MOL0     H21298   1.029   1.780   6.035 -0.4615  0.1208  0.2745
  899MOL0     H21299   1.267   1.726   5.929 -0.6325  1.6198 -1.0701
  899MOL0     H21300   1.531   1.552   6.003 -0.0718 -0.1192 -1.0073
  899MOL0     H21301   1.452   1.646   5.871 -1.0231 -1.2026  0.1625
  899MOL0     H21302   1.698   1.781   5.904  1.1594 -0.3869 -0.7335
  899MOL0     H21303   1.676   1.669   5.782  1.9221  3.6165  0.3526
  899MOL0     H21304   1.731   1.487   5.968  1.0293 -0.9692 -2.2117
  899MOL0     H21305   1.805   1.630   6.049 -1.3397 -3.1103  1.9314
  899MOL0     H21306   1.883   1.507   5.779  3.8910 -1.4146  0.4764
  899MOL0     H21307   1.938   1.667   5.823  0.0044 -0.9077 -2.6654
  899MOL0     H21308   2.038   1.582   6.027  1.7649  1.0703 -2.2877
  899MOL0     H21309   1.982   1.418   5.990  0.9718  0.5910  3.8615
  899MOL0     H21310   2.104   1.494   5.755 -1.1581  2.8315  0.3856
  899MOL0     H21311   2.189   1.599   5.859  1.1594 -1.8948  1.7917
  899MOL0     H21312   2.200   1.300   5.912  1.5441 -1.0075  1.0141
  899MOL0     H21313   2.296   1.431   5.987 -0.2370  2.0473 -0.7253
  899MOL0     H21314   2.400   1.279   5.833 -0.8209  0.9216  2.0565
  899MOL0     H21315   2.294   1.335   5.697  2.2317 -1.5878 -1.1643
  899MOL0     H21316   2.339   1.615   5.653  0.5812 -1.1199 -1.6896
  899MOL0     H21317   2.520   1.717   5.459  0.2136  0.8169 -0.6530
  899MOL0     H21318   2.505   1.826   5.586  0.5225  0.3619  1.1573
  899MOL0     H21319   2.777   1.796   5.597  1.1415 -0.1056 -1.0118
  899MOL0     H21320   2.754   1.682   5.469 -0.0210 -0.6630  2.4156
  899MOL0     H21321   2.675   1.971   5.484  0.4998  0.5783  0.7329
  899MOL0     H21322   2.635   1.865   5.345 -0.0253 -1.8797  0.8208
  899MOL0     H21323   2.897   1.962   5.417 -0.3241 -1.7100  2.1664
  899MOL0     H21324   2.796   1.973   5.269 -1.2738  0.8412  1.6008
  899MOL0     H21325   3.023   1.559   5.211  2.0799 -1.5814 -3.2267
  899MOL0     H21326   3.228   1.542   5.145  3.0499  2.5338 -0.8061
  899MOL0     H21327   3.736   1.891   5.217  0.2810 -1.3834  0.6907
  899MOL0     H21328   3.951   1.831   5.135 -0.2971  2.6007  0.1512
  899MOL0     H21329   4.004   1.638   4.753  1.0264 -1.4038  0.4753
  899MOL0     H21330   4.052   1.798   4.695 -1.2202 -1.0229 -0.7671
  899MOL0     H21331   4.232   1.622   4.871  1.4404  1.4093  0.2630
  899MOL0     H21332   4.228   1.626   4.685 -3.3023 -0.7030 -0.7558
  899MOL0     H21333   4.341   1.830   4.674  1.1993  0.1843 -0.0867
  899MOL0     H21334   4.280   1.881   4.845 -0.1579 -0.0689 -0.5919
  899MOL0     H21335   4.489   1.684   4.759  0.2294 -1.6143  2.2298
  899MOL0     H21336   4.434   1.726   4.930 -0.6196 -0.1556  0.4796
  899MOL0     H21337   4.590   1.898   4.725  0.8378 -0.2124  0.0278
  899MOL0     H21338   4.654   1.808   4.850  1.3703  1.5674 -0.3369
  899MOL0     H21339   4.445   2.030   4.892  0.3802  0.4253 -0.9626
  899MOL0     H21340   4.533   1.952   5.025  0.5234  4.6168  2.1875
  899MOL0     H21341   4.756   2.022   4.930 -0.3712  0.3314 -0.7801
  899MOL0     H21342   4.691   2.143   5.006  2.8869  0.9765 -0.6660
  899MOL0     H21343   4.755   2.213   4.768  1.4181  0.7057  2.4793
  899MOL0     H21344   4.624   2.103   4.702 -1.7840 -0.2691  1.5468
  899MOL0     H21345   3.809   1.715   4.761  3.8468  0.6285 -1.0500
  899MOL0     H21346   3.565   1.796   4.835 -0.5264 -0.7259  2.4543
  899MOL0     H21347   3.281   1.977   5.152 -0.0694 -0.5169  0.3793
  899MOL0     H21348   3.053   1.989   5.255 -1.0335 -0.0581  2.0186
  899MOL0     H21349   1.452   1.858   6.281 -1.4120  2.0903 -0.1586
  899MOL0     H21350   1.234   1.893   6.397 -0.1905  1.4391  0.7808
  899MOL0     H21351   0.950   1.975   6.483  0.0963  0.1119 -1.1800
  899MOL0     H21352   0.822   2.089   6.647  3.7530 -0.7178 -1.4827
  899MOL0     H21353   0.693   2.235   6.784 -1.2418  1.8260  0.0521
  899MOL0     H21354   0.652   2.077   6.827  1.7002  1.6931  1.9204
  899MOL0     H21355   0.467   2.308   6.840  1.6778  1.7484  1.1468
  899MOL0     H21356   0.565   2.255   6.974  2.2847  0.2888 -1.1683
  899MOL0     H21357   0.453   2.014   6.926 -1.6878 -0.9094  5.1640
  899MOL0     H21358   0.351   2.116   6.825  3.6064 -0.0744 -2.2599
  899MOL0     H21359   0.400   2.088   7.130  0.5214 -1.0395  0.2461
  899MOL0     H21360   0.351   2.251   7.074  0.7194 -0.7615  0.7291
  899MOL0     H21361   0.001   1.992   7.093  0.4737 -0.7898  1.6786
  899MOL0     H21362   0.464   2.061   6.421 -0.1030  0.8483 -2.1146
  899MOL0     H21363   0.617   1.881   6.166 -1.6609 -1.1058 -0.2630
  899MOL0     H21364   0.468   1.959   6.212 -0.8699  1.8803  0.6710
  899MOL0     H21365   0.603   2.056   6.133  3.4355 -1.6601 -0.5795
  900MOL0     O21366   9.201   0.713   4.656  0.1564  0.5364 -0.3571
  900MOL0     C21367   9.171   0.729   4.775 -0.2244  0.5715 -0.8867
  900MOL0     O21368   9.140   0.629   4.869 -0.9003  0.0292  0.2959
  900MOL0     C21369   9.149   0.495   4.827  0.4083 -0.2643 -1.2529
  900MOL0     C21370   9.100   0.445   4.705  0.0105  1.2127  0.5783
  900MOL0     C21371   9.129   0.314   4.668 -0.5122 -0.6883  0.3781
  900MOL0     C21372   9.200   0.230   4.750 -0.0301  0.0962 -0.4074
  900MOL0     O21373   9.239   0.096   4.708  0.7675 -0.5583 -1.2517
  900MOL0     C21374   9.133   0.001   4.717  0.6832  0.2050  1.1198
  900MOL0     C21375   9.103  -0.069   4.582 -0.2081  0.2720 -0.0817
  900MOL0     C21376   9.043   0.023   4.474  0.1477 -0.6855 -0.1809
  900MOL0     C21377   8.943  -0.052   4.380  0.1460  0.4263  0.6042
  900MOL0     C21378   8.833   0.049   4.329  0.5041 -0.5396  0.6772
  900MOL0     C21379   8.740  -0.014   4.229  0.8712  0.9091  0.4959
  900MOL0     C21380   8.624   0.075   4.174  1.2430 -1.0397  0.6162
  900MOL0     C21381   8.676   0.207   4.092 -0.1814 -0.3493 -0.3555
  900MOL0     N21382   8.716   0.185   3.957 -0.6541  0.3562 -0.4226
  900MOL0     C21383   8.839   0.137   3.935  0.4807  0.3917  0.1811
  900MOL0     C21384   8.858   0.135   3.802  0.3156  0.2193  0.3110
  900MOL0     C21385   8.975   0.074   3.726  1.0705 -0.1743 -0.0680
  900MOL0     C21386   9.012   0.160   3.604 -0.6988 -0.2815  0.6093
  900MOL0     C21387   9.100   0.082   3.502  0.4434 -0.3881  0.5721
  900MOL0     C21388   9.227   0.028   3.547  0.8296 -0.2586 -0.1826
  900MOL0     O21389   9.280  -0.054   3.434 -0.1588 -0.4168 -0.2644
  900MOL0     C21390   9.415  -0.048   3.417  0.9825 -0.0999 -0.7504
  900MOL0     C21391   9.506  -0.036   3.519 -0.4491  0.0693 -0.1610
  900MOL0     C21392   9.640  -0.006   3.489 -0.7417 -0.0709  0.4180
  900MOL0     C21393   9.684   0.009   3.359 -0.4318 -0.1569 -0.9481
  900MOL0     C21394   9.830   0.031   3.335 -0.6506 -0.0821  0.1030
  900MOL0     O21395   9.870   0.009   3.203 -0.0892  0.0878  0.2430
  900MOL0     C21396  10.006   0.007   3.183 -0.6451  1.2415 -0.3531
  900MOL0     C21397  10.082  -0.113   3.175 -0.3743 -1.3759  0.0168
  900MOL0     C21398  10.221  -0.106   3.143  0.2077 -0.0159 -0.0687
  900MOL0     C21399  10.285   0.017   3.129  0.6528 -0.1665 -0.1005
  900MOL0     O21400  10.424   0.016   3.124  0.4178  0.5670  0.2007
  900MOL0     C21401  10.494   0.129   3.175  1.2491 -0.3616  0.2169
  900MOL0     C21402  10.638   0.089   3.194 -0.4400 -0.7488  0.8194
  900MOL0     C21403  10.677  -0.001   3.312  0.9315  0.2819  0.2737
  900MOL0     C21404  10.819   0.024   3.342 -0.0792  0.0674 -0.6944
  900MOL0     C21405  10.881  -0.077   3.430 -0.6929 -0.1934 -0.9259
  900MOL0     C21406  11.044  -0.056   3.462  1.3029 -1.1242 -0.1672
  900MOL0     C21407  11.129  -0.030   3.332  0.3346 -0.2039 -0.8015
  900MOL0     C21408  11.182  -0.168   3.282 -0.1528  1.0392  0.5852
  900MOL0    Cl21409  11.062  -0.275   3.212  0.5517  0.4292 -0.0958
  900MOL0     C21410  10.205   0.132   3.124  0.1310  0.8094  0.1390
  900MOL0     C21411  10.062   0.123   3.148  0.8128 -0.9790  1.4009
  900MOL0     O21412   9.904   0.051   3.431  0.3214  0.1085 -1.0102
  900MOL0     C21413   9.595  -0.010   3.259 -0.0866 -0.4312  1.0490
  900MOL0     C21414   9.461  -0.045   3.292  0.6852 -0.2506 -0.8316
  900MOL0     N21415   8.738   0.178   3.747 -0.0214  0.0242  0.1313
  900MOL0     N21416   8.652   0.214   3.843  0.3150  0.1360  0.5572
  900MOL0     C21417   9.240   0.278   4.880 -0.0427 -0.3345 -0.5056
  900MOL0     C21418   9.213   0.410   4.913  0.0278  0.2072 -0.3145
  900MOL0     C21419   9.165   0.868   4.829 -0.0189 -0.5384  0.2092
  900MOL0     C21420   9.118   0.880   4.968 -0.6992  0.1970  0.1823
  900MOL0     C21421   9.094   1.006   5.028 -0.5555  0.2280  0.2739
  900MOL0     C21422   9.111   1.119   4.957  0.0424 -0.6017  0.2067
  900MOL0     O21423   9.077   1.247   4.995 -0.9722 -0.5106 -0.0668
  900MOL0     C21424   9.079   1.279   5.136  0.0796  0.7074  0.7452
  900MOL0     C21425   9.218   1.290   5.191  0.0430 -0.2352  0.0485
  900MOL0     C21426   9.223   1.340   5.336  0.6790  0.6223  0.7706
  900MOL0     C21427   9.371   1.326   5.388  0.2859 -0.2644 -0.0293
  900MOL0     C21428   9.409   1.193   5.445 -1.2167 -0.5273 -0.7138
  900MOL0     C21429   9.448   1.085   5.482 -0.2408  0.3169 -0.0745
  900MOL0     C21430   9.153   1.109   4.824  0.0321 -0.6424  0.9446
  900MOL0     C21431   9.187   0.987   4.764  0.5248 -0.4492 -0.1327
  900MOL0     C21432   9.240   0.996   4.626  0.7430 -0.5765 -0.0023
  900MOL0     H21433   9.052   0.512   4.634  1.8346 -0.0806 -2.0261
  900MOL0     H21434   9.108   0.281   4.567 -1.1512  0.3162  0.1561
  900MOL0     H21435   9.162  -0.080   4.785  1.9434  1.9679  2.7745
  900MOL0     H21436   9.043   0.035   4.768 -0.0896  0.6469 -0.4707
  900MOL0     H21437   9.031  -0.147   4.610  0.0017  0.7030  1.7842
  900MOL0     H21438   9.193  -0.117   4.540 -0.4991 -1.8197  1.5184
  900MOL0     H21439   9.121   0.076   4.419 -0.4754 -0.0291 -0.4452
  900MOL0     H21440   8.981   0.099   4.522  3.7178  2.0067  0.6520
  900MOL0     H21441   8.994  -0.094   4.293 -2.6459  0.2035 -1.0415
  900MOL0     H21442   8.901  -0.141   4.427 -0.6063  0.2337 -0.3965
  900MOL0     H21443   8.776   0.087   4.414 -0.9100  3.1950 -1.6981
  900MOL0     H21444   8.860   0.138   4.272  0.1343 -0.6037  0.3962
  900MOL0     H21445   8.801  -0.059   4.150 -2.0352  1.8047 -2.5077
  900MOL0     H21446   8.685  -0.094   4.279 -0.8589  2.2408  0.8381
  900MOL0     H21447   8.555   0.109   4.252 -1.1216  0.2414 -1.8640
  900MOL0     H21448   8.559   0.023   4.102  2.6144  1.2137 -2.4422
  900MOL0     H21449   8.588   0.272   4.092 -1.8873 -2.5527  0.1393
  900MOL0     H21450   8.755   0.267   4.138  0.2966  1.7197 -3.5149
  900MOL0     H21451   8.910   0.092   4.003 -1.0824 -0.5386  1.2711
  900MOL0     H21452   9.063   0.078   3.791  1.6202  1.4165 -0.8825
  900MOL0     H21453   8.942  -0.029   3.708  0.3601  0.0863 -0.2936
  900MOL0     H21454   8.920   0.179   3.549 -2.9544 -5.1571  2.0875
  900MOL0     H21455   9.065   0.248   3.640 -1.2734 -1.0458  3.5712
  900MOL0     H21456   9.114   0.151   3.419 -2.4968  2.5463  2.2874
  900MOL0     H21457   9.045  -0.003   3.459  1.5689 -0.7702 -0.1427
  900MOL0     H21458   9.214  -0.047   3.627 -1.4065 -1.1247 -1.2867
  900MOL0     H21459   9.301   0.105   3.571 -1.1831  1.7356 -0.1605
  900MOL0     H21460   9.483  -0.042   3.625  1.2974  5.2421  0.8199
  900MOL0     H21461   9.717   0.009   3.565  0.3091 -0.7739 -0.4767
  900MOL0     H21462  10.037  -0.207   3.205  1.2700 -2.0843  0.3745
  900MOL0     H21463  10.275  -0.200   3.135 -1.4655 -0.9030 -1.5655
  900MOL0     H21464  10.495   0.213   3.105 -0.6545  0.4071  1.0409
  900MOL0     H21465  10.451   0.163   3.270 -0.1866  1.2279 -0.9553
  900MOL0     H21466  10.671   0.035   3.105 -0.1536 -0.0571  0.4987
  900MOL0     H21467  10.687   0.187   3.197 -1.3960 -0.2801  2.7112
  900MOL0     H21468  10.615   0.040   3.392 -2.4760 -0.1611 -1.8794
  900MOL0     H21469  10.651  -0.108   3.304 -0.5860  0.6397 -0.0604
  900MOL0     H21470  10.837   0.126   3.379  2.5818  1.3060 -4.6897
  900MOL0     H21471  10.883   0.020   3.253  1.6429  1.9493  0.3619
  900MOL0     H21472  10.884  -0.173   3.378 -0.6999 -0.2738 -0.7782
  900MOL0     H21473  10.817  -0.090   3.517 -1.7170 -4.7369 -2.1049
  900MOL0     H21474  11.056   0.025   3.535 -1.9278 -0.2181 -0.5073
  900MOL0     H21475  11.063  -0.150   3.514  0.0378 -1.0374  0.4894
  900MOL0     H21476  11.206   0.037   3.372  1.3169 -2.6629  1.7652
  900MOL0     H21477  11.073   0.027   3.257 -2.1959  0.5326  1.4778
  900MOL0     H21478  11.273  -0.159   3.221  0.8811 -4.8577  0.6576
  900MOL0     H21479  11.225  -0.238   3.355 -2.5086 -2.5192 -1.1355
  900MOL0     H21480  10.266   0.221   3.109  0.9004 -0.0602 -2.4759
  900MOL0     H21481   9.996   0.208   3.160 -0.3550 -1.9255  1.9314
  900MOL0     H21482   9.611  -0.002   3.152 -0.0364  0.7537  1.1279
  900MOL0     H21483   9.389  -0.056   3.211 -1.3032  0.3768  0.7684
  900MOL0     H21484   9.298   0.219   4.950 -1.2439 -0.5668  0.3220
  900MOL0     H21485   9.244   0.445   5.011  3.8659 -2.2355 -0.4603
  900MOL0     H21486   9.106   0.793   5.031  1.1002 -1.5604 -1.7350
  900MOL0     H21487   9.073   0.999   5.134 -0.4777  1.2333  0.3619
  900MOL0     H21488   9.027   1.202   5.195  0.1452  0.9601  1.1358
  900MOL0     H21489   9.024   1.371   5.156 -1.5164  0.1873 -0.9863
  900MOL0     H21490   9.271   1.356   5.122 -0.3008 -0.0837 -0.0676
  900MOL0     H21491   9.269   1.193   5.179  0.1766  0.1543 -3.3462
  900MOL0     H21492   9.157   1.280   5.400 -0.5903 -0.5624 -1.4888
  900MOL0     H21493   9.183   1.442   5.340 -2.6243 -0.4197 -1.3122
  900MOL0     H21494   9.449   1.361   5.320  0.1301  0.5424  0.1930
  900MOL0     H21495   9.372   1.403   5.466 -1.2171 -0.5005  0.2481
  900MOL0     H21496   9.501   0.994   5.503  3.7069  2.2851 -0.5514
  900MOL0     H21497   9.149   1.199   4.764  1.1809 -1.1898  0.0039
  900MOL0     H21498   9.149   0.986   4.566 -1.0638  2.1299  2.0361
  900MOL0     H21499   9.283   1.092   4.596 -3.0644  1.0717 -0.7822
  900MOL0     H21500   9.310   0.917   4.598 -0.2483 -1.1913 -0.7997
  901MOL0     O21501   9.065   5.778  11.283  0.0675  0.7524  0.3940
  901MOL0     C21502   8.992   5.681  11.292  0.1308 -0.5151 -0.6247
  901MOL0     O21503   9.038   5.548  11.282 -0.4149  0.0149 -0.1949
  901MOL0     C21504   9.169   5.508  11.278 -0.1526  0.2804  0.9197
  901MOL0     C21505   9.187   5.377  11.244 -0.1258 -0.9052 -1.3895
  901MOL0     C21506   9.313   5.313  11.240 -0.0571  0.3219  0.1456
  901MOL0     C21507   9.429   5.393  11.251 -0.1532 -0.2421 -0.3309
  901MOL0     O21508   9.544   5.324  11.255 -0.8791 -0.2283 -0.2591
  901MOL0     C21509   9.672   5.393  11.259 -0.2917  0.4367 -1.3496
  901MOL0     C21510   9.763   5.283  11.335 -1.3455  0.1371  0.5921
  901MOL0     C21511   9.914   5.309  11.327  0.6699  0.0006  0.7343
  901MOL0     C21512  10.002   5.223  11.426 -0.3078  0.9453  0.5435
  901MOL0     C21513  10.145   5.279  11.431 -0.6028 -0.3819  0.3483
  901MOL0     C21514  10.227   5.181  11.515  0.2817 -0.2717 -0.2238
  901MOL0     C21515  10.218   5.212  11.665  1.0061  0.6379 -0.3677
  901MOL0     C21516  10.298   5.338  11.715  0.4038  1.1982 -0.2084
  901MOL0     N21517  10.431   5.292  11.757 -0.2687  0.2871  0.1784
  901MOL0     C21518  10.473   5.286  11.887  0.2485  0.3689 -1.8468
  901MOL0     C21519  10.612   5.303  11.883  0.3852 -0.0739 -0.1527
  901MOL0     C21520  10.716   5.302  11.996  0.7099  1.1026  0.2090
  901MOL0     C21521  10.857   5.358  11.962  0.3445  0.3481 -0.8692
  901MOL0     C21522  10.933   5.274  11.852 -0.3589 -0.2115 -1.0069
  901MOL0     C21523  11.084   5.267  11.892 -0.5105 -0.2815  1.0394
  901MOL0     O21524  11.110   5.172  12.001  0.1786  0.7081  0.2173
  901MOL0     C21525  11.235   5.169  12.055 -0.8388  0.0194  0.1667
  901MOL0     C21526  11.312   5.057  12.038 -0.3459 -0.1293  0.0557
  901MOL0     C21527  11.436   5.043  12.088  0.6368 -0.0663 -0.4284
  901MOL0     C21528  11.491   5.137  12.171  0.6776  0.1931 -1.3459
  901MOL0     C21529  11.624   5.120  12.225  0.4074 -0.3425  0.6336
  901MOL0     O21530  11.692   5.011  12.206 -0.5538  0.0004  0.0678
  901MOL0     C21531  11.828   5.012  12.235 -0.8762  0.0301  0.2925
  901MOL0     C21532  11.891   4.891  12.280 -1.1651  0.1669  0.2669
  901MOL0     C21533  12.025   4.891  12.319 -0.2295  0.6729  0.8380
  901MOL0     C21534  12.108   4.998  12.299 -0.4021 -0.0558  0.3465
  901MOL0     O21535  12.237   4.975  12.342 -0.1662 -0.1687 -0.1669
  901MOL0     C21536  12.335   5.058  12.276  0.4890  0.1565 -0.2180
  901MOL0     C21537  12.467   4.999  12.283 -0.2171 -0.6357  0.6335
  901MOL0     C21538  12.526   5.012  12.419 -0.0556  0.5214 -0.5525
  901MOL0     C21539  12.665   4.945  12.425 -0.2871 -0.0289 -0.5248
  901MOL0     C21540  12.739   4.987  12.557  0.0049 -0.5524  0.0001
  901MOL0     C21541  12.876   4.931  12.567 -0.4277  0.7093  0.5045
  901MOL0     C21542  12.931   4.933  12.711  0.7438  0.2592 -0.1546
  901MOL0     C21543  13.072   4.868  12.730 -0.1877 -0.8160 -0.2404
  901MOL0    Cl21544  13.214   4.974  12.682 -0.1450 -0.4984 -0.3262
  901MOL0     C21545  12.054   5.111  12.234 -0.4099 -0.6083  0.6223
  901MOL0     C21546  11.918   5.126  12.212 -0.3238  0.5092  0.1537
  901MOL0     O21547  11.666   5.216  12.295  0.4410 -0.0977  1.1232
  901MOL0     C21548  11.421   5.259  12.169  0.5638 -0.5189 -0.8870
  901MOL0     C21549  11.294   5.279  12.113  0.6073 -0.7387  0.9796
  901MOL0     N21550  10.643   5.293  11.746 -0.0516 -0.5965  0.3883
  901MOL0     N21551  10.539   5.296  11.677 -0.1236 -0.3325 -0.0614
  901MOL0     C21552   9.416   5.528  11.275  0.6247 -0.3431 -0.7105
  901MOL0     C21553   9.286   5.580  11.296 -0.6655 -0.0779  0.4089
  901MOL0     C21554   8.845   5.691  11.324  0.4086 -1.0248 -0.2057
  901MOL0     C21555   8.750   5.608  11.250  0.1236  0.0311 -0.4656
  901MOL0     C21556   8.613   5.630  11.264 -0.5222 -0.1152  0.0111
  901MOL0     C21557   8.568   5.719  11.359  0.0751 -0.7949 -0.1375
  901MOL0     O21558   8.436   5.760  11.368  0.2419  0.0422  0.1365
  901MOL0     C21559   8.336   5.665  11.337  1.1486 -0.2372  0.2393
  901MOL0     C21560   8.332   5.544  11.432  0.9430  0.2026 -1.2077
  901MOL0     C21561   8.223   5.442  11.400  0.8333 -0.1647 -0.0834
  901MOL0     C21562   8.234   5.317  11.488  0.3148  1.1694  0.0670
  901MOL0     C21563   8.136   5.209  11.453  0.3336  0.2321 -0.1009
  901MOL0     C21564   8.044   5.126  11.438  0.0825  0.7691  0.5675
  901MOL0     C21565   8.659   5.795  11.441  0.0482  0.9186  0.2692
  901MOL0     C21566   8.801   5.787  11.414  1.4435 -0.1471  0.7612
  901MOL0     C21567   8.891   5.883  11.482  0.7048  0.2060  0.2779
  901MOL0     H21568   9.104   5.308  11.231 -0.5321 -0.6979 -0.0226
  901MOL0     H21569   9.322   5.204  11.239  1.0436  0.2975  3.0493
  901MOL0     H21570   9.698   5.423  11.158 -0.3567 -0.5000 -1.6521
  901MOL0     H21571   9.675   5.473  11.334 -2.0416 -2.1201  1.6971
  901MOL0     H21572   9.744   5.187  11.286 -0.2902  0.8749 -1.3907
  901MOL0     H21573   9.721   5.274  11.435 -1.1516 -3.8233  0.4853
  901MOL0     H21574   9.929   5.413  11.360  3.5594  0.1953 -0.8846
  901MOL0     H21575   9.954   5.305  11.225  2.1884  0.3684  1.2958
  901MOL0     H21576   9.964   5.224  11.528  0.2168  0.2439  0.7468
  901MOL0     H21577  10.000   5.116  11.402 -0.1463  1.0040  0.2587
  901MOL0     H21578  10.181   5.272  11.328  1.5922  1.6848  0.8860
  901MOL0     H21579  10.156   5.380  11.472  0.9435  0.0886 -1.1162
  901MOL0     H21580  10.176   5.086  11.496 -0.2579  0.4207 -2.5472
  901MOL0     H21581  10.331   5.172  11.483  0.7179 -1.2666  1.3561
  901MOL0     H21582  10.240   5.116  11.714 -0.7426  0.2697 -0.2621
  901MOL0     H21583  10.113   5.232  11.684  1.6928  2.9433  1.4073
  901MOL0     H21584  10.296   5.412  11.635 -1.2064  1.4201  0.0016
  901MOL0     H21585  10.252   5.392  11.798  1.4185  1.8047 -0.0274
  901MOL0     H21586  10.412   5.288  11.977  1.7676  3.6254 -0.7448
  901MOL0     H21587  10.670   5.372  12.067  0.9793  0.2409  1.2628
  901MOL0     H21588  10.726   5.202  12.039 -1.7506  0.4509 -0.5968
  901MOL0     H21589  10.849   5.461  11.927  0.3884  0.9086  0.6561
  901MOL0     H21590  10.917   5.358  12.054 -0.9751  5.1333  0.2863
  901MOL0     H21591  10.936   5.335  11.761 -0.1926  3.4030  1.2469
  901MOL0     H21592  10.902   5.170  11.838  0.2646 -0.2278 -2.5313
  901MOL0     H21593  11.115   5.366  11.929 -2.5946  2.6297 -4.0244
  901MOL0     H21594  11.138   5.238  11.801 -2.2731  0.1572 -0.2096
  901MOL0     H21595  11.267   4.971  11.989 -0.4275 -1.0028  1.5802
  901MOL0     H21596  11.495   4.955  12.067  1.1116 -0.3718  1.9024
  901MOL0     H21597  11.845   4.799  12.311  1.4979 -1.1351  0.6547
  901MOL0     H21598  12.057   4.800  12.369 -0.8285 -0.2668 -0.4502
  901MOL0     H21599  12.321   5.061  12.168  1.6228  1.5926 -0.3561
  901MOL0     H21600  12.318   5.159  12.314 -0.0209 -0.1129  0.3012
  901MOL0     H21601  12.452   4.894  12.257  2.0278 -0.7996 -0.2022
  901MOL0     H21602  12.538   5.047  12.215  2.1572 -2.3289  1.7565
  901MOL0     H21603  12.530   5.118  12.444  0.8791  0.1270  1.1494
  901MOL0     H21604  12.467   4.955  12.491  1.5294 -1.3748 -0.6847
  901MOL0     H21605  12.730   4.981  12.345  0.5462  2.7003  1.2506
  901MOL0     H21606  12.651   4.836  12.416 -1.0326  0.0691 -0.6042
  901MOL0     H21607  12.686   4.958  12.648  0.5569 -0.1971  0.4499
  901MOL0     H21608  12.739   5.096  12.550  3.6655 -0.4098  0.2385
  901MOL0     H21609  12.880   4.825  12.541  1.6761  0.6583  0.8321
  901MOL0     H21610  12.940   4.989  12.500 -0.8340  1.8064  1.0327
  901MOL0     H21611  12.859   4.885  12.777 -1.3144  0.6295 -2.0068
  901MOL0     H21612  12.929   5.037  12.746  0.3837  0.0288  0.5268
  901MOL0     H21613  13.097   4.850  12.835  0.3884  1.3180  0.0310
  901MOL0     H21614  13.078   4.769  12.682  0.6666 -2.0746  2.2406
  901MOL0     H21615  12.114   5.193  12.195 -0.7991 -0.2185  0.8323
  901MOL0     H21616  11.872   5.220  12.185 -1.3591  1.1409  3.6415
  901MOL0     H21617  11.464   5.349  12.212 -1.4863  0.8627 -1.5709
  901MOL0     H21618  11.244   5.375  12.106  3.2145  0.5693 -2.1865
  901MOL0     H21619   9.502   5.592  11.294  1.9220 -2.4526  0.9482
  901MOL0     H21620   9.282   5.679  11.339  1.2603 -0.6720  2.1114
  901MOL0     H21621   8.785   5.533  11.179 -0.4955 -0.4284 -0.3030
  901MOL0     H21622   8.554   5.574  11.192 -2.2960  0.2154  1.1358
  901MOL0     H21623   8.340   5.635  11.232 -1.0579 -0.0585  0.0456
  901MOL0     H21624   8.234   5.700  11.356  0.6084 -0.2279 -2.3631
  901MOL0     H21625   8.312   5.577  11.534  1.5151 -1.2643 -0.5876
  901MOL0     H21626   8.429   5.492  11.435  0.6771 -0.2703  0.5979
  901MOL0     H21627   8.229   5.414  11.294  1.9798 -0.7963  0.1336
  901MOL0     H21628   8.124   5.485  11.420 -0.9178 -3.5538 -0.6468
  901MOL0     H21629   8.332   5.271  11.472 -0.2060 -1.8469  3.9870
  901MOL0     H21630   8.231   5.328  11.596 -0.3298 -2.7865  0.6230
  901MOL0     H21631   7.965   5.055  11.418  0.9867  0.3397 -1.8130
  901MOL0     H21632   8.623   5.869  11.512 -1.3902 -0.4799  1.0584
  901MOL0     H21633   8.965   5.830  11.542 -0.9808 -1.5954  0.8924
  901MOL0     H21634   8.940   5.945  11.406  0.5028 -0.4943 -0.4419
  901MOL0     H21635   8.837   5.951  11.549  0.4386  1.0080 -0.7139
  902MOL0     O21636   4.639   6.098   7.564 -0.0077 -0.0238  0.4521
  902MOL0     C21637   4.649   6.218   7.603  0.1261  0.0008  1.0651
  902MOL0     O21638   4.777   6.264   7.641  0.0073  0.0108  0.2678
  902MOL0     C21639   4.892   6.197   7.631  0.6029  0.0684  0.0829
  902MOL0     C21640   4.925   6.075   7.692  0.5653  0.5570  0.7697
  902MOL0     C21641   5.049   6.022   7.681  0.5056 -0.4208 -0.4196
  902MOL0     C21642   5.155   6.084   7.607  0.3040 -0.2169  0.1901
  902MOL0     O21643   5.294   6.058   7.620  0.6257  0.2199 -0.5722
  902MOL0     C21644   5.335   6.025   7.755  0.8404  0.3338  0.3760
  902MOL0     C21645   5.343   5.877   7.772  1.0035  0.3296  0.1608
  902MOL0     C21646   5.440   5.831   7.883 -0.5678  0.0399 -0.2051
  902MOL0     C21647   5.458   5.684   7.899 -0.0938  0.2445 -0.1114
  902MOL0     C21648   5.328   5.608   7.893  1.1402  0.5736  0.0375
  902MOL0     C21649   5.245   5.622   8.017 -0.4752 -0.1715  0.3965
  902MOL0     C21650   5.115   5.537   8.014  0.2859 -0.0629 -0.7087
  902MOL0     C21651   4.993   5.613   7.969 -0.6300 -0.7573 -0.0814
  902MOL0     N21652   4.875   5.533   7.987 -0.2770  0.6798  0.2780
  902MOL0     C21653   4.755   5.591   7.966 -0.2640  0.8974 -0.0048
  902MOL0     C21654   4.661   5.490   7.974  0.3025  0.0492 -0.2862
  902MOL0     C21655   4.509   5.511   7.980 -0.1867 -0.0631  0.3768
  902MOL0     C21656   4.455   5.586   7.863 -0.5765  0.0084 -0.2512
  902MOL0     C21657   4.316   5.628   7.881 -0.7980  0.6092 -0.1925
  902MOL0     C21658   4.280   5.708   7.745 -0.7264  0.3336 -0.1939
  902MOL0     O21659   4.142   5.766   7.756 -0.3458  0.1626  0.2580
  902MOL0     C21660   4.038   5.678   7.737  0.3100 -0.1954  0.1705
  902MOL0     C21661   3.921   5.694   7.829  0.4296  0.0290  0.5293
  902MOL0     C21662   3.807   5.613   7.809  0.9284  0.1604  0.0649
  902MOL0     C21663   3.810   5.506   7.718 -0.2555  0.0699 -0.4078
  902MOL0     C21664   3.688   5.405   7.722 -0.1117  0.0786  0.2111
  902MOL0     O21665   3.575   5.454   7.782  0.3591  0.1709  0.3034
  902MOL0     C21666   3.467   5.373   7.805 -0.0904 -0.4204 -0.6512
  902MOL0     C21667   3.396   5.382   7.929 -0.3250 -0.7212  0.5312
  902MOL0     C21668   3.274   5.305   7.950 -0.5822 -0.3641 -0.4656
  902MOL0     C21669   3.226   5.218   7.853  0.6239  0.1468  1.2787
  902MOL0     O21670   3.112   5.132   7.851 -0.0319 -0.1593 -0.8865
  902MOL0     C21671   3.039   5.113   7.974 -0.1294  0.5260  0.0681
  902MOL0     C21672   2.914   5.197   7.970  0.1582  0.1885  0.0371
  902MOL0     C21673   2.814   5.144   8.079 -0.1559  0.2789  0.3196
  902MOL0     C21674   2.666   5.187   8.064 -0.1506 -0.7681 -0.5655
  902MOL0     C21675   2.598   5.122   7.946 -0.0735  0.5468 -0.0781
  902MOL0     C21676   2.461   5.176   7.899 -1.3908  0.5909 -1.0568
  902MOL0     C21677   2.426   5.086   7.775  0.1983 -0.0809  0.4392
  902MOL0     C21678   2.277   5.091   7.730 -0.1966 -0.0902 -0.5288
  902MOL0    Cl21679   2.178   5.072   7.883  0.1937 -0.5136  0.9992
  902MOL0     C21680   3.292   5.223   7.727  0.4641 -0.2414  0.1683
  902MOL0     C21681   3.414   5.294   7.713  0.9662 -0.0253 -0.0350
  902MOL0     O21682   3.699   5.292   7.679  0.4349  0.0463  0.6611
  902MOL0     C21683   3.915   5.495   7.622  0.0179 -0.3487  0.5736
  902MOL0     C21684   4.029   5.570   7.643  0.7108  0.7149 -0.6217
  902MOL0     N21685   4.736   5.372   7.987  1.1999  0.7107  0.0891
  902MOL0     N21686   4.861   5.396   8.002 -0.4105  1.3184  0.3175
  902MOL0     C21687   5.115   6.196   7.530  0.1430  0.3659  0.1954
  902MOL0     C21688   4.991   6.257   7.546 -0.6024 -0.0783  0.4593
  902MOL0     C21689   4.523   6.303   7.612  0.3138 -0.4361 -0.0856
  902MOL0     C21690   4.552   6.443   7.623 -0.7430 -0.3711  0.0188
  902MOL0     C21691   4.455   6.536   7.623 -0.2927 -0.4891 -0.5928
  902MOL0     C21692   4.322   6.500   7.614  0.1298 -0.0725 -0.0603
  902MOL0     O21693   4.233   6.602   7.594 -0.0608 -0.2932  0.0808
  902MOL0     C21694   4.093   6.569   7.592  0.5592  0.0858  0.1248
  902MOL0     C21695   4.000   6.690   7.577  1.0598 -0.9429 -0.6655
  902MOL0     C21696   3.849   6.654   7.562  0.1223 -0.1383  0.8219
  902MOL0     C21697   3.743   6.768   7.531 -0.0406 -0.4193 -0.0910
  902MOL0     C21698   3.792   6.854   7.426  0.9010  0.0985  0.2696
  902MOL0     C21699   3.814   6.925   7.333 -0.6568 -0.0983  1.0071
  902MOL0     C21700   4.293   6.359   7.617 -0.6687 -0.4229  0.6527
  902MOL0     C21701   4.394   6.268   7.623  0.0312 -0.7504 -0.5953
  902MOL0     C21702   4.347   6.130   7.618  0.3637  0.0159 -0.7772
  902MOL0     H21703   4.857   6.026   7.761 -0.2485  0.2017 -0.2408
  902MOL0     H21704   5.070   5.938   7.746 -1.4146  0.0162  0.8539
  902MOL0     H21705   5.439   6.059   7.766  1.5592 -1.5994 -0.0004
  902MOL0     H21706   5.266   6.058   7.833 -1.1558  0.2512 -1.2933
  902MOL0     H21707   5.372   5.823   7.681  0.0943  2.9232 -1.8125
  902MOL0     H21708   5.242   5.838   7.786  1.2599 -1.6536 -2.6260
  902MOL0     H21709   5.405   5.858   7.983 -0.2042 -1.1406  0.2604
  902MOL0     H21710   5.541   5.867   7.861 -0.3472  0.1976  0.9888
  902MOL0     H21711   5.510   5.639   7.813  0.2548 -1.8293  1.1179
  902MOL0     H21712   5.508   5.671   7.995 -1.3691  1.2357  0.7148
  902MOL0     H21713   5.263   5.635   7.810  1.1981  0.4279 -0.0557
  902MOL0     H21714   5.357   5.503   7.892  0.6097  0.4125 -1.8534
  902MOL0     H21715   5.295   5.596   8.111 -1.8671 -0.3060  1.1401
  902MOL0     H21716   5.218   5.727   8.032  1.3654  1.0469 -3.5571
  902MOL0     H21717   5.094   5.506   8.117 -3.8283  1.7247 -0.8153
  902MOL0     H21718   5.132   5.448   7.952 -2.0224  0.8599 -2.8494
  902MOL0     H21719   4.986   5.711   8.017 -3.5680 -0.1761 -1.4848
  902MOL0     H21720   5.000   5.633   7.861 -0.7313 -0.7803 -0.0916
  902MOL0     H21721   4.738   5.698   7.956  1.8603  1.5129  2.0311
  902MOL0     H21722   4.456   5.415   7.984 -0.3637  0.0251  0.1905
  902MOL0     H21723   4.495   5.564   8.075 -0.1759  0.6384 -0.0094
  902MOL0     H21724   4.520   5.668   7.830 -1.4269 -0.4273 -3.3271
  902MOL0     H21725   4.478   5.516   7.782  0.0489 -1.5460  1.2273
  902MOL0     H21726   4.314   5.701   7.963  2.0543 -1.3197  1.7891
  902MOL0     H21727   4.253   5.539   7.880  1.4760 -1.1049 -0.8574
  902MOL0     H21728   4.283   5.636   7.663  1.5177  0.5464 -0.3552
  902MOL0     H21729   4.344   5.796   7.729 -0.4839  0.8983  3.0731
  902MOL0     H21730   3.915   5.774   7.901 -1.5154 -0.9700  1.5427
  902MOL0     H21731   3.729   5.618   7.885 -0.7836  0.0975 -1.6296
  902MOL0     H21732   3.438   5.444   8.008 -1.7716  0.7153  0.2320
  902MOL0     H21733   3.235   5.312   8.051 -2.3012  1.2278 -1.1839
  902MOL0     H21734   3.012   5.008   7.961  0.1781  0.3694  0.6960
  902MOL0     H21735   3.088   5.126   8.070  2.7978 -0.5177 -1.1568
  902MOL0     H21736   2.934   5.305   7.971 -0.7962  0.3763 -0.2082
  902MOL0     H21737   2.862   5.182   7.874  0.7103  2.3609 -0.6642
  902MOL0     H21738   2.818   5.035   8.080  0.3442  0.1151 -3.6205
  902MOL0     H21739   2.849   5.175   8.178  0.1758 -0.1140  0.3287
  902MOL0     H21740   2.671   5.296   8.049 -0.2173 -0.8867 -1.5201
  902MOL0     H21741   2.607   5.165   8.153 -0.7237 -1.6622 -1.1560
  902MOL0     H21742   2.588   5.014   7.963 -0.5059  0.1739 -2.4200
  902MOL0     H21743   2.670   5.130   7.864  2.2896  1.2616  1.9207
  902MOL0     H21744   2.390   5.167   7.982  0.6819 -0.2737  0.7334
  902MOL0     H21745   2.463   5.284   7.883 -1.5134  0.8193  0.3344
  902MOL0     H21746   2.436   4.982   7.807  0.8276 -0.0784  0.2604
  902MOL0     H21747   2.491   5.106   7.689  0.2813  0.7423  0.6846
  902MOL0     H21748   2.253   5.185   7.679 -0.8125 -0.1232 -0.3049
  902MOL0     H21749   2.260   4.998   7.675  2.9228 -1.9399  1.3485
  902MOL0     H21750   3.257   5.170   7.640  1.5947  1.1590 -1.1949
  902MOL0     H21751   3.466   5.310   7.619 -2.0895 -1.1951 -2.1008
  902MOL0     H21752   3.898   5.428   7.538 -1.0752 -0.7219  1.0668
  902MOL0     H21753   4.113   5.568   7.574  2.0335  0.3700  0.9190
  902MOL0     H21754   5.200   6.241   7.481  2.3984  0.8840  4.1374
  902MOL0     H21755   4.958   6.349   7.499  0.3631  0.5997  1.0809
  902MOL0     H21756   4.657   6.473   7.627 -1.3019  1.6223  0.6587
  902MOL0     H21757   4.488   6.639   7.614 -1.7438 -0.1076 -2.3593
  902MOL0     H21758   4.064   6.522   7.686  0.7702 -1.2970 -0.4773
  902MOL0     H21759   4.077   6.492   7.516 -1.8836 -1.1038  1.7091
  902MOL0     H21760   4.020   6.736   7.479  1.6588 -1.6216 -0.8638
  902MOL0     H21761   4.021   6.758   7.660  0.5678 -2.3204  0.6336
  902MOL0     H21762   3.820   6.624   7.664 -2.2220  0.0600  0.2688
  902MOL0     H21763   3.833   6.577   7.486 -1.9385  1.5281 -0.5355
  902MOL0     H21764   3.646   6.731   7.499  1.1952 -0.6948 -3.9900
  902MOL0     H21765   3.732   6.825   7.624  1.6873  1.4961 -0.9673
  902MOL0     H21766   3.857   6.980   7.252  1.5959  0.6128  2.5718
  902MOL0     H21767   4.188   6.335   7.623 -1.1354 -0.0131 -3.3274
  902MOL0     H21768   4.395   6.076   7.535  1.7176  1.7300 -1.1688
  902MOL0     H21769   4.363   6.086   7.717  3.0496  4.1066  0.8588
  902MOL0     H21770   4.238   6.126   7.612  0.2642  1.1547 -0.0593
  903MOL0     O21771   3.636   0.735   9.055  0.7064  0.1175 -0.2823
  903MOL0     C21772   3.715   0.810   9.120  0.6703  0.7974  0.1692
  903MOL0     O21773   3.689   0.854   9.245 -0.5333  0.3323 -0.2724
  903MOL0     C21774   3.568   0.809   9.299  0.0523  0.2953 -0.6851
  903MOL0     C21775   3.447   0.864   9.260 -0.3970 -0.2634 -0.1366
  903MOL0     C21776   3.329   0.813   9.314  0.6208  1.1264 -0.6975
  903MOL0     C21777   3.330   0.712   9.413 -0.5266  0.4905 -1.0804
  903MOL0     O21778   3.215   0.679   9.480  0.0722 -0.6070 -0.4285
  903MOL0     C21779   3.103   0.654   9.397  0.4565  0.0638 -0.7648
  903MOL0     C21780   3.082   0.502   9.378 -0.6313  0.7414  0.7329
  903MOL0     C21781   3.106   0.399   9.495 -0.4491 -0.3573  0.4735
  903MOL0     C21782   3.021   0.421   9.616  0.4513  0.3480  0.7288
  903MOL0     C21783   2.872   0.419   9.589  0.2375 -0.1151 -0.7776
  903MOL0     C21784   2.815   0.281   9.551  0.7136  0.4466  0.1677
  903MOL0     C21785   2.664   0.275   9.537  0.2896 -0.4563  1.1985
  903MOL0     C21786   2.601   0.371   9.428  0.1271 -0.2220  0.0493
  903MOL0     N21787   2.603   0.519   9.440 -1.0558 -0.4317 -0.1712
  903MOL0     C21788   2.526   0.598   9.520  0.0349  0.6961 -0.2779
  903MOL0     C21789   2.533   0.721   9.462  0.0883  0.3049  0.6629
  903MOL0     C21790   2.438   0.833   9.502  0.2769 -0.5354 -0.9857
  903MOL0     C21791   2.286   0.809   9.489  0.4532  0.0971  0.8871
  903MOL0     C21792   2.257   0.733   9.363  0.6137  0.2749  0.2744
  903MOL0     C21793   2.110   0.721   9.321  0.5706  0.2917  0.0921
  903MOL0     O21794   2.034   0.671   9.436 -0.1402 -0.3829 -0.0855
  903MOL0     C21795   1.898   0.674   9.428  0.5248 -1.5722 -0.4119
  903MOL0     C21796   1.825   0.571   9.500  0.3737 -0.1997  0.4397
  903MOL0     C21797   1.684   0.587   9.513 -0.5752 -0.3991 -0.0084
  903MOL0     C21798   1.616   0.697   9.457 -0.1551 -1.3495  0.2238
  903MOL0     C21799   1.471   0.708   9.465 -0.4825 -0.3498  0.2086
  903MOL0     O21800   1.406   0.587   9.483 -0.5084 -0.3807  0.4644
  903MOL0     C21801   1.269   0.597   9.510  0.3006 -0.2857 -0.4066
  903MOL0     C21802   1.222   0.595   9.646  0.9505 -1.3313 -0.3336
  903MOL0     C21803   1.092   0.640   9.675  0.2679 -0.2346  0.1017
  903MOL0     C21804   1.002   0.683   9.573  0.1039  0.6154  0.9400
  903MOL0     O21805   0.878   0.731   9.613 -0.0772  0.2765  0.4005
  903MOL0     C21806   0.786   0.784   9.512 -0.3667  0.0118 -0.8170
  903MOL0     C21807   0.849   0.923   9.476  0.5062  0.2679 -0.2188
  903MOL0     C21808   0.822   0.968   9.333 -0.3943  0.5156  1.4365
  903MOL0     C21809   0.723   1.085   9.336 -1.5043 -0.2353  0.6918
  903MOL0     C21810   0.681   1.138   9.198  0.0057 -0.2426 -0.0747
  903MOL0     C21811   0.623   1.272   9.181  0.2079 -0.1126 -0.0398
  903MOL0     C21812   0.612   1.313   9.032  0.0753 -0.5096  0.0699
  903MOL0     C21813   0.573   1.456   8.993  0.3563  0.0644 -0.8375
  903MOL0    Cl21814   0.418   1.491   9.068 -0.0770 -0.1593  0.4061
  903MOL0     C21815   1.046   0.658   9.436 -0.4266  0.6769 -0.3044
  903MOL0     C21816   1.180   0.621   9.409 -0.0294 -0.5704  0.1078
  903MOL0     O21817   1.427   0.824   9.453  0.5346  0.3086 -0.1286
  903MOL0     C21818   1.688   0.793   9.390  0.0302 -0.3161 -0.6305
  903MOL0     C21819   1.824   0.782   9.377  0.0464 -0.0248  0.1620
  903MOL0     N21820   2.609   0.714   9.343  0.1747 -0.6581  1.3295
  903MOL0     N21821   2.645   0.594   9.338 -0.1645 -0.7934  0.1229
  903MOL0     C21822   3.456   0.662   9.455  1.5350  0.0687  0.6421
  903MOL0     C21823   3.570   0.719   9.404 -0.8479  0.1931  0.6972
  903MOL0     C21824   3.829   0.869   9.045  0.4031 -0.1506  0.4892
  903MOL0     C21825   3.879   0.994   9.103  1.1606  0.0398  0.1035
  903MOL0     C21826   3.997   1.048   9.041  0.1924  0.1117 -0.5286
  903MOL0     C21827   4.064   0.992   8.927  1.1667 -0.5294 -0.8164
  903MOL0     O21828   4.168   1.041   8.851 -1.0107 -0.5283  0.1797
  903MOL0     C21829   4.224   1.176   8.881 -0.2942  0.2730  0.6781
  903MOL0     C21830   4.142   1.292   8.829  0.7586  1.2162  0.3468
  903MOL0     C21831   4.165   1.319   8.677  0.1412 -0.1792 -0.2641
  903MOL0     C21832   4.313   1.315   8.626 -0.5550 -0.3209 -0.0793
  903MOL0     C21833   4.404   1.407   8.691  0.6805 -0.8732  0.2999
  903MOL0     C21834   4.485   1.488   8.724 -0.2863 -0.7548  0.6643
  903MOL0     C21835   4.002   0.879   8.878 -0.0815 -0.0847 -0.9965
  903MOL0     C21836   3.893   0.820   8.928 -0.2126  0.3149 -0.2130
  903MOL0     C21837   3.833   0.700   8.858  0.2429 -0.2676 -0.2213
  903MOL0     H21838   3.444   0.936   9.179  3.8642 -0.6447 -0.8512
  903MOL0     H21839   3.237   0.847   9.269  0.7437  0.7021 -1.2879
  903MOL0     H21840   3.011   0.694   9.439 -0.3918 -2.5175  0.0146
  903MOL0     H21841   3.107   0.694   9.295  1.1433 -0.6934 -1.0452
  903MOL0     H21842   3.144   0.456   9.300  0.3286  2.9827  0.1111
  903MOL0     H21843   2.978   0.490   9.348 -0.6039  1.9549  0.1154
  903MOL0     H21844   3.212   0.387   9.518 -0.1383 -2.0066 -1.4923
  903MOL0     H21845   3.070   0.304   9.455  0.7947 -1.5996  2.1797
  903MOL0     H21846   3.049   0.341   9.686  1.1841 -0.8942 -0.9092
  903MOL0     H21847   3.053   0.514   9.664  2.0460  0.7466 -0.9748
  903MOL0     H21848   2.823   0.455   9.680 -2.3569 -1.9389 -1.3654
  903MOL0     H21849   2.850   0.503   9.522 -1.2934 -0.4804 -0.7632
  903MOL0     H21850   2.850   0.239   9.455  0.4043  1.7820 -0.5520
  903MOL0     H21851   2.841   0.208   9.628  2.9396  0.3161 -0.6192
  903MOL0     H21852   2.619   0.302   9.633 -1.5001 -1.0019  0.5501
  903MOL0     H21853   2.631   0.175   9.507 -0.3046  0.4425 -1.3291
  903MOL0     H21854   2.646   0.351   9.331 -2.0528  0.3218 -1.1365
  903MOL0     H21855   2.496   0.342   9.428 -0.9655  3.1993  0.7919
  903MOL0     H21856   2.473   0.577   9.613  1.0146 -1.7862 -0.1960
  903MOL0     H21857   2.448   0.876   9.602 -0.4942  1.0142 -1.5393
  903MOL0     H21858   2.456   0.921   9.440 -0.2598  0.0728 -0.2944
  903MOL0     H21859   2.238   0.760   9.574  0.9882  0.2984  1.3137
  903MOL0     H21860   2.243   0.909   9.481  3.3112  1.4135  0.5003
  903MOL0     H21861   2.297   0.633   9.378 -0.9363 -0.7978 -2.2393
  903MOL0     H21862   2.308   0.766   9.272  1.2420 -3.5265 -0.9228
  903MOL0     H21863   2.115   0.647   9.240 -1.8676  0.1428  0.0232
  903MOL0     H21864   2.065   0.814   9.286 -2.1742 -0.7225  0.7457
  903MOL0     H21865   1.876   0.492   9.554  0.1414  1.1075  2.6909
  903MOL0     H21866   1.626   0.510   9.563 -0.2145 -1.6366 -1.4371
  903MOL0     H21867   1.303   0.568   9.713  1.7866 -0.3135 -0.9212
  903MOL0     H21868   1.065   0.640   9.780  1.7003  1.3195  0.5103
  903MOL0     H21869   0.775   0.710   9.432 -1.1597  1.7121 -2.3531
  903MOL0     H21870   0.683   0.804   9.545  0.6360  2.3909  1.1182
  903MOL0     H21871   0.821   0.992   9.556 -2.6411 -0.5034 -0.5436
  903MOL0     H21872   0.958   0.924   9.472  0.5107 -1.6263 -2.2536
  903MOL0     H21873   0.917   0.987   9.282 -0.4297 -0.0220  1.1534
  903MOL0     H21874   0.775   0.890   9.272 -0.2952  0.9511  0.7886
  903MOL0     H21875   0.759   1.171   9.393  2.3206 -0.0554 -1.7049
  903MOL0     H21876   0.630   1.066   9.392 -0.4052  0.3692  2.8373
  903MOL0     H21877   0.610   1.065   9.159  0.8144 -0.8569 -0.4415
  903MOL0     H21878   0.765   1.141   9.127  0.4917 -0.7365  0.4686
  903MOL0     H21879   0.521   1.274   9.220  0.5489 -0.6842  0.8939
  903MOL0     H21880   0.698   1.337   9.228  2.4094 -2.1640 -0.5218
  903MOL0     H21881   0.544   1.250   8.973 -0.9811 -0.4514  1.1901
  903MOL0     H21882   0.707   1.293   8.981  0.0841  1.5984 -0.8394
  903MOL0     H21883   0.641   1.525   9.043 -1.0793 -0.2627  1.7584
  903MOL0     H21884   0.573   1.485   8.887 -2.1986  3.0890 -0.1674
  903MOL0     H21885   0.990   0.681   9.345 -0.3427  1.4179 -0.1771
  903MOL0     H21886   1.212   0.600   9.307  0.4224  1.7421 -0.2855
  903MOL0     H21887   1.631   0.875   9.346 -1.2826  0.0600  1.6239
  903MOL0     H21888   1.878   0.847   9.309  2.4775 -1.2749  0.7891
  903MOL0     H21889   3.461   0.592   9.538 -2.2542 -3.2434 -1.5339
  903MOL0     H21890   3.669   0.685   9.435 -0.4587  1.3471  0.7936
  903MOL0     H21891   3.836   1.042   9.190 -2.5781 -1.3394 -0.8153
  903MOL0     H21892   4.055   1.131   9.080  0.0870 -0.9409  2.0876
  903MOL0     H21893   4.328   1.176   8.848 -0.6621 -0.0873 -0.5440
  903MOL0     H21894   4.240   1.184   8.989  1.0114  0.9843  0.4464
  903MOL0     H21895   4.175   1.382   8.882  0.2370  3.3321 -2.6908
  903MOL0     H21896   4.039   1.257   8.832  0.8990  0.4104 -2.2048
  903MOL0     H21897   4.112   1.410   8.647  0.4654 -0.5802 -2.2111
  903MOL0     H21898   4.118   1.241   8.616  0.2740  0.5381 -1.3227
  903MOL0     H21899   4.364   1.218   8.623 -0.5107 -0.5141  3.1757
  903MOL0     H21900   4.310   1.342   8.520  1.5348 -0.1143 -0.1334
  903MOL0     H21901   4.541   1.574   8.753 -3.0087  1.0450  0.9956
  903MOL0     H21902   4.053   0.832   8.794 -1.1462 -3.1914 -0.0023
  903MOL0     H21903   3.823   0.617   8.929 -0.1765  1.4739  1.8802
  903MOL0     H21904   3.731   0.723   8.827  1.0849  1.4646 -1.9368
  903MOL0     H21905   3.901   0.665   8.780  1.0812 -1.9760  1.1810
  904MOL0     O21906   3.754   0.315   5.872 -1.0250  0.3987  0.7662
  904MOL0     C21907   3.811   0.220   5.823  0.2500 -0.4771  0.5323
  904MOL0     O21908   3.751   0.120   5.765 -0.6926  0.3350  0.4305
  904MOL0     C21909   3.625   0.136   5.724  0.9789 -0.6053 -0.3880
  904MOL0     C21910   3.560   0.018   5.713  0.3480 -1.0782 -0.1311
  904MOL0     C21911   3.431   0.014   5.669  0.7642 -0.4311 -0.3861
  904MOL0     C21912   3.362   0.130   5.641  0.4884  0.3131  0.5498
  904MOL0     O21913   3.235   0.133   5.585 -0.1938 -0.3754  0.1980
  904MOL0     C21914   3.139   0.045   5.643  0.2549  0.1776  0.8722
  904MOL0     C21915   2.993   0.072   5.597 -0.7993  0.3927  0.1975
  904MOL0     C21916   2.976   0.060   5.445  0.0357 -0.1942 -0.8499
  904MOL0     C21917   2.831   0.092   5.407 -0.0959  0.0195  0.5882
  904MOL0     C21918   2.793   0.034   5.269 -0.0585  0.4459  0.6791
  904MOL0     C21919   2.645   0.055   5.240  0.0713 -0.4475  0.1871
  904MOL0     C21920   2.631   0.182   5.158  0.1825 -0.1525 -0.7223
  904MOL0     C21921   2.487   0.259   5.184 -0.3899 -0.5789  0.6812
  904MOL0     N21922   2.491   0.398   5.115 -0.4069  0.6560 -0.3766
  904MOL0     C21923   2.514   0.438   4.987  0.9195  0.5434  1.0377
  904MOL0     C21924   2.507   0.573   4.985  0.0838 -0.1181 -0.0448
  904MOL0     C21925   2.542   0.661   4.869 -0.4629  0.8520 -0.9689
  904MOL0     C21926   2.418   0.721   4.812  0.6942 -0.2261 -0.7880
  904MOL0     C21927   2.450   0.830   4.707  0.1144  0.4195  0.5975
  904MOL0     C21928   2.447   0.781   4.560  0.1837 -0.5128  0.3683
  904MOL0     O21929   2.510   0.653   4.554  0.0950 -0.3991  0.1062
  904MOL0     C21930   2.633   0.644   4.494  0.8190 -0.3250 -0.3605
  904MOL0     C21931   2.711   0.534   4.524  0.2696 -0.0922 -0.6433
  904MOL0     C21932   2.847   0.533   4.492 -0.7590 -0.0912  0.4218
  904MOL0     C21933   2.904   0.637   4.415 -0.1159  0.4144 -0.9054
  904MOL0     C21934   3.046   0.631   4.379 -0.3316 -0.1035 -0.6697
  904MOL0     O21935   3.091   0.720   4.288  0.6682 -0.5648 -0.1780
  904MOL0     C21936   3.223   0.713   4.254  0.9583  0.3338  0.5428
  904MOL0     C21937   3.253   0.619   4.155 -0.7382 -0.3282  0.5325
  904MOL0     C21938   3.390   0.611   4.116 -0.5959 -0.3236  0.7010
  904MOL0     C21939   3.488   0.694   4.183  1.4167 -0.1446  0.0457
  904MOL0     O21940   3.619   0.687   4.151 -0.0917  0.2756 -0.3529
  904MOL0     C21941   3.698   0.669   4.264  0.3268  0.4448  0.6326
  904MOL0     C21942   3.786   0.554   4.216 -0.0669  1.2305 -0.0509
  904MOL0     C21943   3.878   0.501   4.333 -0.0062  0.2689  0.2791
  904MOL0     C21944   3.945   0.367   4.298  0.2821 -0.1001  0.9344
  904MOL0     C21945   4.056   0.336   4.399  0.3297 -0.2212  0.8678
  904MOL0     C21946   3.993   0.272   4.530  0.2493  0.8337  0.0940
  904MOL0     C21947   4.041   0.338   4.659  0.3682  0.9114 -0.1797
  904MOL0     C21948   3.938   0.337   4.767 -0.0931  0.0092 -0.5689
  904MOL0    Cl21949   3.999   0.402   4.926 -0.2420 -0.5383 -0.6155
  904MOL0     C21950   3.443   0.789   4.280 -0.6596  0.0935 -1.1105
  904MOL0     C21951   3.310   0.799   4.305  0.8551  0.0162  0.1034
  904MOL0     O21952   3.117   0.556   4.442  0.1288  0.1536 -0.4402
  904MOL0     C21953   2.814   0.723   4.352  0.3050  0.2554 -0.3982
  904MOL0     C21954   2.689   0.732   4.403  0.1906 -0.7192 -0.3347
  904MOL0     N21955   2.484   0.618   5.112  0.0734  0.2262 -0.2916
  904MOL0     N21956   2.476   0.519   5.189 -0.1310  0.3970  0.4539
  904MOL0     C21957   3.422   0.251   5.658  0.7756 -0.3616  0.2418
  904MOL0     C21958   3.556   0.257   5.698 -0.2504 -0.0811  0.1640
  904MOL0     C21959   3.952   0.191   5.845  0.1502  0.0669  1.1448
  904MOL0     C21960   3.991   0.070   5.898  0.0373  0.4634  0.2229
  904MOL0     C21961   4.122   0.042   5.934 -0.5216 -0.2700 -0.5195
  904MOL0     C21962   4.215   0.158   5.934  0.3601 -0.3262  0.1721
  904MOL0     O21963   4.338   0.137   6.002 -0.2236 -0.3932 -0.3478
  904MOL0     C21964   4.407   0.249   6.048  0.4214 -0.2468  0.3212
  904MOL0     C21965   4.508   0.222   6.165 -0.3498  0.7245 -0.2863
  904MOL0     C21966   4.429   0.182   6.292  0.5782  0.3771 -0.5408
  904MOL0     C21967   4.511   0.159   6.418 -0.4576 -0.6526  0.4610
  904MOL0     C21968   4.420   0.101   6.521 -0.1678 -0.5326  0.3639
  904MOL0     C21969   4.353   0.058   6.610  0.7435 -0.0778  0.2277
  904MOL0     C21970   4.172   0.275   5.871 -1.3649 -0.1351  0.2003
  904MOL0     C21971   4.050   0.294   5.827 -0.2672  0.0053  0.0188
  904MOL0     C21972   4.008   0.433   5.775 -0.2461  0.1886 -0.7463
  904MOL0     H21973   3.617  -0.070   5.740  1.7906 -0.2694 -0.4603
  904MOL0     H21974   3.384  -0.084   5.663 -3.1667  1.3339 -1.9889
  904MOL0     H21975   3.159  -0.049   5.591  1.0574 -0.2256  1.8651
  904MOL0     H21976   3.143   0.038   5.752 -2.0635  1.9225  1.1456
  904MOL0     H21977   2.951   0.168   5.628 -2.9172  0.4676 -2.4617
  904MOL0     H21978   2.929  -0.002   5.646 -0.6172  0.5830  0.7279
  904MOL0     H21979   2.998  -0.042   5.413  3.0188 -0.9443  2.8743
  904MOL0     H21980   3.046   0.121   5.388  1.2528 -0.2270  0.5439
  904MOL0     H21981   2.751   0.051   5.470 -2.3613 -0.3550 -2.3026
  904MOL0     H21982   2.814   0.200   5.411 -2.5990 -0.0449 -3.4490
  904MOL0     H21983   2.867   0.071   5.198 -0.1777  1.5218  1.0838
  904MOL0     H21984   2.801  -0.075   5.266 -2.6702  0.1928  0.5746
  904MOL0     H21985   2.599  -0.025   5.180 -0.0018  0.5195 -1.0918
  904MOL0     H21986   2.588   0.068   5.333 -0.3699 -0.4412 -0.0811
  904MOL0     H21987   2.652   0.168   5.051  0.5903 -2.2204 -0.4076
  904MOL0     H21988   2.706   0.248   5.202 -0.9644  0.3832  0.5073
  904MOL0     H21989   2.408   0.193   5.147  1.7580 -2.1169 -1.5081
  904MOL0     H21990   2.466   0.276   5.290  1.0057  1.1050  0.7336
  904MOL0     H21991   2.541   0.394   4.892 -1.2764  1.6397 -0.1493
  904MOL0     H21992   2.608   0.740   4.906 -2.4013  0.8124  3.1567
  904MOL0     H21993   2.593   0.599   4.795 -1.8139  0.6312 -1.7599
  904MOL0     H21994   2.362   0.642   4.762  1.7382 -1.8777  0.5746
  904MOL0     H21995   2.356   0.757   4.894  1.7355 -1.0853  0.4138
  904MOL0     H21996   2.543   0.880   4.734  0.3339  0.4826 -0.2397
  904MOL0     H21997   2.367   0.899   4.723  0.3381  0.9534 -0.4688
  904MOL0     H21998   2.498   0.853   4.495  0.8670 -2.3116 -1.2078
  904MOL0     H21999   2.343   0.764   4.530  0.0867 -1.3214  1.1481
  904MOL0     H22000   2.659   0.449   4.567  1.7491 -0.0846  1.2974
  904MOL0     H22001   2.901   0.445   4.527 -1.5005 -1.2137 -1.1492
  904MOL0     H22002   3.176   0.567   4.099 -1.4617  2.2826 -1.1072
  904MOL0     H22003   3.408   0.542   4.035  1.9170 -0.1007  0.9815
  904MOL0     H22004   3.761   0.759   4.270  1.8509 -0.0863 -3.7888
  904MOL0     H22005   3.646   0.647   4.358  1.8647  0.4436  1.5235
  904MOL0     H22006   3.731   0.468   4.177 -2.7904  1.5245  2.7648
  904MOL0     H22007   3.843   0.593   4.130 -1.0733 -0.3817 -1.5038
  904MOL0     H22008   3.948   0.584   4.342  1.5686 -0.7636 -1.5407
  904MOL0     H22009   3.831   0.479   4.430  3.8175 -4.6421  1.4489
  904MOL0     H22010   3.993   0.375   4.200  2.0262  0.2829  1.7723
  904MOL0     H22011   3.878   0.281   4.303  1.2041 -0.8508  0.4890
  904MOL0     H22012   4.107   0.428   4.429  0.5803  0.3225 -1.1266
  904MOL0     H22013   4.134   0.270   4.360 -0.1154 -0.7303  0.8298
  904MOL0     H22014   3.885   0.288   4.522 -0.2476 -1.9709 -0.0271
  904MOL0     H22015   3.999   0.163   4.537 -1.3823  0.7621  0.8946
  904MOL0     H22016   4.081   0.437   4.631 -1.4585  1.5090 -0.8013
  904MOL0     H22017   4.122   0.274   4.696 -0.7727  2.2810  5.7624
  904MOL0     H22018   3.857   0.402   4.732 -0.5247  0.1478  0.6534
  904MOL0     H22019   3.896   0.239   4.789 -0.5165  0.4975  0.8846
  904MOL0     H22020   3.518   0.850   4.330  0.1771 -1.0673 -0.8935
  904MOL0     H22021   3.274   0.875   4.374  1.7474 -0.8705  1.5868
  904MOL0     H22022   2.834   0.802   4.280  0.2692  1.7265  1.1422
  904MOL0     H22023   2.621   0.805   4.359 -2.1778 -0.3211  3.4662
  904MOL0     H22024   3.374   0.345   5.629  1.2445  0.2364  1.3421
  904MOL0     H22025   3.606   0.353   5.706  0.5756 -0.4170 -0.7820
  904MOL0     H22026   3.924  -0.013   5.918 -1.7437  0.9191 -3.1079
  904MOL0     H22027   4.160  -0.053   5.968 -1.3695 -0.3500  0.2551
  904MOL0     H22028   4.338   0.320   6.095 -0.4656 -1.1073  0.3649
  904MOL0     H22029   4.457   0.301   5.966  1.3219 -0.8097  0.4976
  904MOL0     H22030   4.550   0.322   6.180  2.2324 -0.3816  0.3163
  904MOL0     H22031   4.574   0.147   6.119 -1.3927 -0.8553  0.7067
  904MOL0     H22032   4.357   0.100   6.288 -1.0581  1.6421  1.2527
  904MOL0     H22033   4.378   0.277   6.310  1.4159  0.4467  1.8585
  904MOL0     H22034   4.595   0.093   6.394 -0.6538  0.2387 -3.4620
  904MOL0     H22035   4.545   0.259   6.447 -1.1670 -1.0617  2.8473
  904MOL0     H22036   4.281   0.015   6.676  0.2019 -2.1783 -1.6424
  904MOL0     H22037   4.246   0.354   5.862  2.7625 -3.4068  2.2535
  904MOL0     H22038   4.089   0.471   5.713  1.0203 -0.3290  0.5339
  904MOL0     H22039   3.927   0.423   5.702 -1.7409  2.8872  0.3735
  904MOL0     H22040   3.987   0.501   5.859 -0.6092  0.0834 -0.7470
  905MOL0     O22041   7.760   6.215   5.171  0.4012  0.2080  0.7491
  905MOL0     C22042   7.707   6.208   5.060 -0.3955  0.0597  0.8925
  905MOL0     O22043   7.761   6.249   4.931  0.0019 -0.3705 -0.8278
  905MOL0     C22044   7.889   6.306   4.939  0.1197 -0.2934 -0.2780
  905MOL0     C22045   7.988   6.261   4.854  0.0363  0.1735 -0.4793
  905MOL0     C22046   8.099   6.338   4.841 -0.6748 -0.7818  0.8297
  905MOL0     C22047   8.127   6.457   4.909  0.1301 -0.4311  0.1285
  905MOL0     O22048   8.251   6.514   4.886  0.1018  0.0994 -0.6449
  905MOL0     C22049   8.259   6.662   4.863  0.7792  0.8174 -0.1320
  905MOL0     C22050   8.337   6.682   4.738 -0.1685  0.5814  0.0976
  905MOL0     C22051   8.487   6.656   4.736  0.2522  0.1588 -0.4873
  905MOL0     C22052   8.561   6.730   4.851  0.1515  0.7700  0.3771
  905MOL0     C22053   8.702   6.759   4.806  0.6086  0.4091  0.4616
  905MOL0     C22054   8.718   6.884   4.718  0.5856 -0.3505  0.3279
  905MOL0     C22055   8.713   7.010   4.811  0.1337 -0.0910  0.4870
  905MOL0     C22056   8.843   7.077   4.869 -0.3827 -0.2525 -0.1384
  905MOL0     N22057   8.824   7.199   4.947  0.0540 -0.8343  0.5454
  905MOL0     C22058   8.748   7.300   4.901  0.2673 -0.4253  0.1116
  905MOL0     C22059   8.757   7.397   5.000  0.5782 -0.8601  0.2798
  905MOL0     C22060   8.680   7.531   5.022  0.1137  0.9349 -0.2934
  905MOL0     C22061   8.591   7.561   4.901  0.5439 -0.7026 -0.2645
  905MOL0     C22062   8.477   7.656   4.935  0.7466  0.2421  0.3788
  905MOL0     C22063   8.526   7.779   5.008  1.1479 -0.4033  0.0927
  905MOL0     O22064   8.431   7.888   4.992 -0.3618  0.2980 -0.3480
  905MOL0     C22065   8.460   8.013   5.045 -0.6728  0.2113 -1.2157
  905MOL0     C22066   8.375   8.117   5.015 -0.7945 -0.5399  0.0846
  905MOL0     C22067   8.393   8.246   5.073 -0.2082 -0.1443  0.8444
  905MOL0     C22068   8.511   8.267   5.152 -0.0874 -0.3428  0.4730
  905MOL0     C22069   8.538   8.411   5.195 -0.4016  0.6145  0.6593
  905MOL0     O22070   8.668   8.439   5.210  0.0694 -0.6652  0.5929
  905MOL0     C22071   8.710   8.560   5.263  0.0048 -0.0195 -0.2949
  905MOL0     C22072   8.822   8.625   5.220 -0.3568 -0.3540 -0.1945
  905MOL0     C22073   8.858   8.748   5.283 -0.2142  0.2087  0.7111
  905MOL0     C22074   8.805   8.788   5.407  0.2466  0.1533 -0.1111
  905MOL0     O22075   8.856   8.894   5.477  0.1186  0.1354 -0.5277
  905MOL0     C22076   8.977   8.876   5.544 -1.0875 -0.3871  0.2733
  905MOL0     C22077   8.976   8.893   5.698  0.8741  0.4276 -0.1274
  905MOL0     C22078   8.925   9.039   5.729 -0.8218 -0.0377  0.3019
  905MOL0     C22079   8.900   9.057   5.872  0.3801  0.3977 -0.1265
  905MOL0     C22080   9.034   9.086   5.949 -0.0696  0.4985  0.3736
  905MOL0     C22081   9.035   9.060   6.098  0.3373  0.7183 -0.2999
  905MOL0     C22082   9.051   8.900   6.105 -0.2794 -0.5752  0.3721
  905MOL0     C22083   9.043   8.839   6.245 -0.3601 -0.7105  0.4465
  905MOL0    Cl22084   9.065   8.668   6.218 -0.0059 -0.1612 -0.5260
  905MOL0     C22085   8.701   8.714   5.456  0.2258  0.0827  0.2668
  905MOL0     C22086   8.651   8.606   5.384  0.0094 -0.9214 -0.3680
  905MOL0     O22087   8.448   8.492   5.209  0.5959  0.3974  0.0341
  905MOL0     C22088   8.603   8.164   5.180  0.7228 -0.3873 -0.6411
  905MOL0     C22089   8.574   8.043   5.120 -0.0532  0.7519  0.2036
  905MOL0     N22090   8.842   7.344   5.097  0.3318 -0.0148 -0.1497
  905MOL0     N22091   8.886   7.227   5.065  0.4885 -0.2210 -0.5369
  905MOL0     C22092   8.028   6.499   4.999 -0.5501 -0.1206  1.0206
  905MOL0     C22093   7.907   6.427   5.005  0.0419 -0.6742 -0.3520
  905MOL0     C22094   7.568   6.161   5.060 -0.4847 -1.3213  0.2777
  905MOL0     C22095   7.478   6.229   4.976 -1.4297 -0.7285 -0.6567
  905MOL0     C22096   7.342   6.199   4.971 -0.3456  0.2964  0.5147
  905MOL0     C22097   7.297   6.099   5.051  0.4962  0.4662 -0.0692
  905MOL0     O22098   7.164   6.063   5.041  0.7207 -0.3907  0.3111
  905MOL0     C22099   7.098   5.974   5.140  0.0747  0.0098  0.8977
  905MOL0     C22100   6.943   5.978   5.123  0.4199  0.7203  0.2952
  905MOL0     C22101   6.884   5.895   5.242 -0.0860  0.1787 -0.6185
  905MOL0     C22102   6.930   5.743   5.258 -0.5525 -0.7267  0.6278
  905MOL0     C22103   6.941   5.674   5.130 -0.3595 -0.7643 -0.4123
  905MOL0     C22104   6.943   5.625   5.019 -0.5576  0.1749  0.1595
  905MOL0     C22105   7.384   6.033   5.140  0.2925 -0.8417  1.3013
  905MOL0     C22106   7.524   6.057   5.137  1.1093 -0.2992  0.7372
  905MOL0     C22107   7.604   5.966   5.215  0.3170  0.5413 -0.0801
  905MOL0     H22108   7.970   6.175   4.790 -0.0726  2.0623 -3.1388
  905MOL0     H22109   8.182   6.314   4.776  1.5336  1.1320  2.7432
  905MOL0     H22110   8.157   6.698   4.841 -0.2467 -1.5411  0.4519
  905MOL0     H22111   8.301   6.707   4.953 -1.9016  1.8996  0.7025
  905MOL0     H22112   8.320   6.787   4.713 -3.8902 -0.4055 -2.3572
  905MOL0     H22113   8.292   6.630   4.653  1.5117 -0.6260 -0.1077
  905MOL0     H22114   8.541   6.672   4.642  3.1206 -1.7168  0.7183
  905MOL0     H22115   8.507   6.551   4.758  1.9891  0.8431  1.5494
  905MOL0     H22116   8.515   6.829   4.856  3.1914  2.3309 -0.1264
  905MOL0     H22117   8.547   6.677   4.945 -1.3652 -3.2030 -1.8137
  905MOL0     H22118   8.756   6.781   4.899  0.4740 -0.3510  0.7245
  905MOL0     H22119   8.742   6.667   4.761  0.5480  1.4200 -1.8158
  905MOL0     H22120   8.812   6.886   4.661  0.1078  1.0091 -0.4475
  905MOL0     H22121   8.644   6.892   4.638 -0.6265 -0.8985  1.3722
  905MOL0     H22122   8.652   6.997   4.901  0.1203  1.9281  0.8284
  905MOL0     H22123   8.668   7.084   4.744  1.2901 -0.2469 -0.4910
  905MOL0     H22124   8.890   7.004   4.936  1.7344 -1.3725 -2.6580
  905MOL0     H22125   8.914   7.094   4.787  0.8256 -0.0589  0.9276
  905MOL0     H22126   8.692   7.309   4.808 -3.4811 -0.2558  2.2115
  905MOL0     H22127   8.628   7.519   5.118  2.1585  0.2053  0.7654
  905MOL0     H22128   8.758   7.607   5.022  1.6553 -0.5837 -1.4160
  905MOL0     H22129   8.653   7.595   4.817  2.1492  1.0080  1.5120
  905MOL0     H22130   8.544   7.467   4.871 -1.5771  0.3686 -0.5090
  905MOL0     H22131   8.397   7.607   4.991 -0.3243  2.6913  1.1325
  905MOL0     H22132   8.429   7.703   4.848  1.9304  0.5318 -0.1405
  905MOL0     H22133   8.621   7.805   4.960  1.0064 -1.0545 -0.5661
  905MOL0     H22134   8.533   7.764   5.116 -0.0351  4.9572  1.2081
  905MOL0     H22135   8.299   8.089   4.944  1.5651 -0.7206 -2.5248
  905MOL0     H22136   8.331   8.324   5.030  1.6064  1.8578  1.6807
  905MOL0     H22137   8.876   8.582   5.137 -1.0705 -1.1544 -0.2523
  905MOL0     H22138   8.938   8.811   5.245 -1.5169  0.9066 -0.9978
  905MOL0     H22139   9.022   8.781   5.515  2.4891  1.1033  0.4818
  905MOL0     H22140   9.054   8.948   5.515  0.3983 -1.8999  0.3111
  905MOL0     H22141   8.903   8.827   5.745  0.2131  0.8740 -0.5217
  905MOL0     H22142   9.075   8.867   5.737 -0.1171  0.1094  2.3502
  905MOL0     H22143   8.983   9.120   5.686  0.9104 -0.7625  1.1742
  905MOL0     H22144   8.823   9.053   5.693 -1.5367  1.4971  2.7150
  905MOL0     H22145   8.844   8.970   5.908 -1.0403  1.3132 -0.0636
  905MOL0     H22146   8.836   9.144   5.890  0.1915  0.3857 -0.7251
  905MOL0     H22147   9.057   9.193   5.943 -2.9178  1.4772  3.5410
  905MOL0     H22148   9.118   9.041   5.896 -0.9477  0.6741 -1.2270
  905MOL0     H22149   9.124   9.112   6.133 -0.8406  2.9771 -0.5014
  905MOL0     H22150   8.950   9.103   6.152  2.0935  0.3939  2.9137
  905MOL0     H22151   9.141   8.874   6.048  0.7385 -0.5686  1.9308
  905MOL0     H22152   8.960   8.852   6.067 -0.6066 -0.2322  0.7090
  905MOL0     H22153   9.120   8.876   6.314  0.7765  0.0411 -1.1712
  905MOL0     H22154   8.947   8.867   6.291 -0.6905  0.2247 -0.7762
  905MOL0     H22155   8.657   8.746   5.550 -0.3759  0.9377 -0.2828
  905MOL0     H22156   8.575   8.543   5.429  2.1711 -2.2833  1.5882
  905MOL0     H22157   8.694   8.185   5.236 -0.1357 -1.6913  1.3862
  905MOL0     H22158   8.649   7.967   5.140  1.9395  2.7943  0.9298
  905MOL0     H22159   8.038   6.581   5.068  1.2403  0.4515  0.1461
  905MOL0     H22160   7.833   6.462   5.076  0.3917 -2.0517  0.7565
  905MOL0     H22161   7.520   6.307   4.913 -0.5432 -1.6282 -1.2082
  905MOL0     H22162   7.275   6.260   4.910 -2.9317 -1.5600  1.3437
  905MOL0     H22163   7.131   5.992   5.242  3.3962 -1.8681  0.3083
  905MOL0     H22164   7.129   5.875   5.104  4.1969  0.2016  3.3303
  905MOL0     H22165   6.920   5.933   5.026  3.7832  0.2746 -0.4160
  905MOL0     H22166   6.909   6.082   5.123 -2.5674 -0.1432 -1.1082
  905MOL0     H22167   6.775   5.895   5.234  0.0349  0.6708 -3.1665
  905MOL0     H22168   6.910   5.944   5.336  1.9691  0.3708 -1.2442
  905MOL0     H22169   7.029   5.742   5.304 -0.1741  0.5703 -0.1060
  905MOL0     H22170   6.851   5.689   5.312 -2.9267  0.3877 -1.4844
  905MOL0     H22171   6.940   5.580   4.923  0.0385  0.0797  0.1873
  905MOL0     H22172   7.352   5.960   5.213 -1.1631  0.8640  2.4629
  905MOL0     H22173   7.676   6.019   5.277  0.1294  0.0486  0.5753
  905MOL0     H22174   7.544   5.902   5.281 -1.9750  0.3970 -2.1751
  905MOL0     H22175   7.674   5.905   5.159  0.6671  0.8033  0.0699
  906MOL0     O22176   3.176   4.263   8.781  0.3036 -0.2138 -0.0265
  906MOL0     C22177   3.220   4.150   8.784  0.7210  0.8752 -0.3783
  906MOL0     O22178   3.151   4.037   8.792 -0.4794  0.4205  0.4423
  906MOL0     C22179   3.016   4.030   8.779 -0.1614 -0.6229  0.7335
  906MOL0     C22180   2.956   3.915   8.826 -0.5703 -0.3266  0.2131
  906MOL0     C22181   2.816   3.891   8.825 -0.3922  0.9017  0.0580
  906MOL0     C22182   2.737   3.986   8.771  0.2572  0.6925  0.5949
  906MOL0     O22183   2.603   3.948   8.762  0.2267  0.0981 -0.3468
  906MOL0     C22184   2.512   4.028   8.691  0.2763  0.8076 -0.3200
  906MOL0     C22185   2.376   3.945   8.698  0.1634  0.3980  0.3113
  906MOL0     C22186   2.322   3.939   8.842  0.4754  0.5810 -0.0759
  906MOL0     C22187   2.169   3.909   8.845  0.2200 -1.3392  0.1017
  906MOL0     C22188   2.133   3.787   8.753  0.3880  0.4256 -0.2910
  906MOL0     C22189   1.986   3.759   8.764 -0.5537  0.7929 -0.2533
  906MOL0     C22190   1.947   3.606   8.719  0.7191 -0.8555 -0.8157
  906MOL0     C22191   1.799   3.583   8.688 -0.0068 -0.2347 -0.5517
  906MOL0     N22192   1.718   3.597   8.807  0.5618 -0.4229  0.1631
  906MOL0     C22193   1.686   3.497   8.896  0.1735 -0.2072  0.7070
  906MOL0     C22194   1.610   3.565   8.990 -0.3242 -0.0554  0.0627
  906MOL0     C22195   1.572   3.496   9.118 -0.2706  0.6359 -0.3371
  906MOL0     C22196   1.652   3.538   9.236  0.1578 -0.4347 -0.8345
  906MOL0     C22197   1.801   3.526   9.206  0.9428  0.1865  0.0603
  906MOL0     C22198   1.878   3.509   9.338 -1.2477  1.0635  0.6976
  906MOL0     O22199   1.875   3.633   9.412  0.9564  0.0064  0.2073
  906MOL0     C22200   1.947   3.744   9.365 -0.3498 -0.5217  1.1421
  906MOL0     C22201   2.065   3.740   9.281  0.3874 -0.2674  0.7489
  906MOL0     C22202   2.132   3.854   9.241 -0.7731 -0.3172  0.3880
  906MOL0     C22203   2.107   3.980   9.301 -0.6576 -0.2279 -0.4772
  906MOL0     C22204   2.203   4.091   9.263  0.7475  0.0432 -0.6711
  906MOL0     O22205   2.166   4.211   9.319  0.4632 -0.0324  0.0959
  906MOL0     C22206   2.252   4.317   9.310  0.7699  0.0757  0.2433
  906MOL0     C22207   2.300   4.357   9.428 -0.5393 -0.8150 -0.9035
  906MOL0     C22208   2.405   4.454   9.433  0.2283  0.4637 -0.2083
  906MOL0     C22209   2.461   4.497   9.314  0.5427  0.1816 -0.4224
  906MOL0     O22210   2.564   4.588   9.314  1.2175  0.2246 -0.3341
  906MOL0     C22211   2.619   4.630   9.438  0.1495  0.6168  0.9936
  906MOL0     C22212   2.727   4.743   9.416 -0.1950 -0.8294 -0.0086
  906MOL0     C22213   2.840   4.668   9.345 -0.5536 -0.3577  0.3271
  906MOL0     C22214   2.970   4.749   9.349 -0.0538 -0.5488 -0.0774
  906MOL0     C22215   2.950   4.873   9.258 -1.0534  0.0035 -0.3586
  906MOL0     C22216   3.081   4.922   9.208 -0.1246  0.1733  0.5152
  906MOL0     C22217   3.062   5.083   9.201 -0.9490 -0.6105 -0.1706
  906MOL0     C22218   2.992   5.148   9.073 -0.2896 -0.2266  0.4344
  906MOL0    Cl22219   3.097   5.130   8.931  0.1942  1.1011  0.1844
  906MOL0     C22220   2.413   4.448   9.188 -0.1214 -0.3937  0.8380
  906MOL0     C22221   2.306   4.361   9.186  0.2106  0.2944  0.1104
  906MOL0     O22222   2.301   4.070   9.198  0.0931 -0.3803  0.3462
  906MOL0     C22223   1.997   3.982   9.383 -1.2637  0.4246 -0.2495
  906MOL0     C22224   1.920   3.872   9.412  0.7928 -0.0011 -0.5512
  906MOL0     N22225   1.587   3.700   8.956 -0.1526  0.2959  0.4041
  906MOL0     N22226   1.672   3.716   8.852 -0.4354 -0.2986 -0.9739
  906MOL0     C22227   2.789   4.107   8.728  0.0475  0.0374 -0.3480
  906MOL0     C22228   2.929   4.132   8.726  0.1881  0.6414 -0.8379
  906MOL0     C22229   3.370   4.128   8.767  0.3597  0.4416 -0.1402
  906MOL0     C22230   3.418   3.999   8.745 -0.1253  0.7634 -1.0023
  906MOL0     C22231   3.554   3.967   8.717  1.3781 -0.7173  0.3566
  906MOL0     C22232   3.638   4.076   8.714  0.0235  0.0879  0.4938
  906MOL0     O22233   3.764   4.042   8.672 -0.2852  0.5416  0.3417
  906MOL0     C22234   3.868   4.138   8.671 -0.4022 -0.6463  0.4626
  906MOL0     C22235   3.989   4.105   8.575  0.0713  0.0837 -0.4261
  906MOL0     C22236   3.963   4.117   8.427  0.7427 -0.0358 -0.1362
  906MOL0     C22237   3.884   3.997   8.374 -0.3899  0.4914 -0.4066
  906MOL0     C22238   3.847   4.032   8.237 -0.1039 -0.1294  0.3914
  906MOL0     C22239   3.820   4.070   8.126 -0.2445  0.4463 -0.1118
  906MOL0     C22240   3.601   4.201   8.760 -0.0139 -0.6579  0.4288
  906MOL0     C22241   3.468   4.230   8.784 -0.2293  0.0876  0.7259
  906MOL0     C22242   3.427   4.373   8.817 -0.4844  0.1574  0.7665
  906MOL0     H22243   3.013   3.833   8.869 -2.2747 -1.5302  0.3125
  906MOL0     H22244   2.781   3.797   8.865 -0.1226 -0.2234 -2.1986
  906MOL0     H22245   2.505   4.127   8.739  1.5546  0.9092 -0.3009
  906MOL0     H22246   2.544   4.031   8.587  2.0893 -0.8793  0.1330
  906MOL0     H22247   2.393   3.848   8.650 -0.9870  0.1206  0.4434
  906MOL0     H22248   2.303   3.999   8.638 -0.4486  0.3158  0.9625
  906MOL0     H22249   2.326   4.039   8.887  0.7112 -0.3871  2.1733
  906MOL0     H22250   2.359   3.859   8.907  1.2158  0.8284 -0.1887
  906MOL0     H22251   2.133   3.896   8.948 -1.2523 -1.5376 -0.4248
  906MOL0     H22252   2.119   4.000   8.811  1.2025 -0.2010  1.5368
  906MOL0     H22253   2.160   3.800   8.647  0.1631  1.9064 -0.1887
  906MOL0     H22254   2.180   3.696   8.791 -4.4162 -2.0348  0.3997
  906MOL0     H22255   1.962   3.772   8.870  5.8005  0.7986  1.5985
  906MOL0     H22256   1.928   3.827   8.702 -0.9485  1.3722  0.7258
  906MOL0     H22257   1.998   3.537   8.787  0.5578 -1.0472 -0.8840
  906MOL0     H22258   2.001   3.589   8.625  2.0431  1.3789 -0.5183
  906MOL0     H22259   1.756   3.644   8.608  0.7099  1.6979  0.4908
  906MOL0     H22260   1.798   3.477   8.658  0.9930 -0.0366 -1.3513
  906MOL0     H22261   1.717   3.393   8.895 -0.2672 -0.3414  0.6910
  906MOL0     H22262   1.468   3.517   9.146 -0.9052 -3.1112  0.7584
  906MOL0     H22263   1.597   3.390   9.106  4.4205  1.1873  1.9558
  906MOL0     H22264   1.636   3.643   9.260  0.7101 -0.0209 -2.1764
  906MOL0     H22265   1.617   3.480   9.322  3.3541 -1.0453  0.1967
  906MOL0     H22266   1.841   3.618   9.161  3.7197 -0.4198  1.1358
  906MOL0     H22267   1.815   3.435   9.147 -0.3487 -1.3728  2.0148
  906MOL0     H22268   1.984   3.484   9.323 -1.6322 -1.3389  1.4629
  906MOL0     H22269   1.824   3.431   9.394 -3.3761 -1.0996 -3.8404
  906MOL0     H22270   2.093   3.641   9.246 -4.1855 -1.2963 -0.6143
  906MOL0     H22271   2.214   3.837   9.172  0.5617  0.3688  1.7578
  906MOL0     H22272   2.264   4.310   9.519 -0.4408 -1.5274 -1.2275
  906MOL0     H22273   2.436   4.482   9.533 -0.2991 -2.6021  0.9342
  906MOL0     H22274   2.531   4.664   9.492 -2.4420 -1.4021 -1.6215
  906MOL0     H22275   2.664   4.546   9.492  0.1101 -1.6616 -2.1883
  906MOL0     H22276   2.674   4.821   9.360  0.9949 -1.8736 -2.7513
  906MOL0     H22277   2.761   4.781   9.513 -2.9097 -1.4273  1.2653
  906MOL0     H22278   2.852   4.586   9.415 -1.9192  1.2517  2.5620
  906MOL0     H22279   2.820   4.642   9.240 -1.3854  1.0066  0.1183
  906MOL0     H22280   3.052   4.685   9.316  0.5365  0.5051 -0.7136
  906MOL0     H22281   2.984   4.777   9.454 -2.6474  1.4482 -0.1539
  906MOL0     H22282   2.883   4.951   9.297 -0.0972  1.0718 -0.8091
  906MOL0     H22283   2.903   4.831   9.168  1.3489 -1.1420 -1.1606
  906MOL0     H22284   3.174   4.916   9.266  0.6458 -0.4901 -0.7414
  906MOL0     H22285   3.106   4.894   9.105  2.6116  2.9836  0.2785
  906MOL0     H22286   3.162   5.126   9.212 -0.8527 -0.1655 -2.3785
  906MOL0     H22287   3.006   5.115   9.290  0.1198  1.0698 -0.0671
  906MOL0     H22288   2.891   5.107   9.063 -0.9241  0.8192  2.0429
  906MOL0     H22289   2.981   5.255   9.091  0.5346 -0.0483 -0.0706
  906MOL0     H22290   2.460   4.488   9.099  0.0410  3.4780  2.4864
  906MOL0     H22291   2.265   4.326   9.091 -2.2963 -0.1043  1.2741
  906MOL0     H22292   1.971   4.078   9.427 -1.0404 -0.5596  2.1843
  906MOL0     H22293   1.835   3.889   9.478 -0.3791 -0.8001 -1.8076
  906MOL0     H22294   2.729   4.186   8.684 -2.3637 -1.4274  0.1042
  906MOL0     H22295   2.953   4.225   8.676  2.5283 -0.9259 -2.8614
  906MOL0     H22296   3.350   3.915   8.734  1.4068 -1.2943  2.9749
  906MOL0     H22297   3.595   3.870   8.691 -0.6889 -1.7747  0.7970
  906MOL0     H22298   3.913   4.158   8.769  0.8427  0.8124 -0.3603
  906MOL0     H22299   3.824   4.228   8.627 -2.0228 -1.8584 -0.5049
  906MOL0     H22300   4.038   4.013   8.610 -0.4650  0.0813  0.3157
  906MOL0     H22301   4.069   4.178   8.592 -1.8326  2.3086 -0.5617
  906MOL0     H22302   4.058   4.120   8.373 -1.0190  0.5185 -3.5763
  906MOL0     H22303   3.912   4.212   8.405  1.9757  0.9685  1.1743
  906MOL0     H22304   3.951   3.911   8.362  2.1351  2.3494 -0.4931
  906MOL0     H22305   3.799   3.975   8.439 -1.0022 -1.3060 -1.7524
  906MOL0     H22306   3.790   4.101   8.028 -1.4924  2.1649  0.7623
  906MOL0     H22307   3.677   4.278   8.762  0.3828 -1.0609  0.8047
  906MOL0     H22308   3.522   4.424   8.837 -0.8978  0.6684  1.4363
  906MOL0     H22309   3.379   4.418   8.729  1.2943 -1.4725 -1.1483
  906MOL0     H22310   3.359   4.373   8.902 -2.1918 -2.5686 -0.4573
  907MOL0     O22311   3.867   6.357   5.648 -0.5048  0.0361 -0.0867
  907MOL0     C22312   3.964   6.284   5.623 -0.8556 -0.0772 -0.3957
  907MOL0     O22313   4.048   6.301   5.513 -0.1990 -0.1059 -0.1694
  907MOL0     C22314   4.006   6.398   5.429 -0.4563 -0.8108 -0.9619
  907MOL0     C22315   4.076   6.517   5.405  0.2182 -0.4848  0.0286
  907MOL0     C22316   4.024   6.609   5.309 -0.9432  0.2227  0.1863
  907MOL0     C22317   3.923   6.577   5.220  0.3139 -0.5282  0.5544
  907MOL0     O22318   3.879   6.658   5.109  0.4876 -0.0375 -0.5108
  907MOL0     C22319   3.913   6.801   5.107  0.8488 -0.7616  0.5482
  907MOL0     C22320   3.860   6.856   4.976 -0.6777 -0.7038  0.3560
  907MOL0     C22321   3.893   7.003   4.967 -0.1193 -0.3357  0.3281
  907MOL0     C22322   4.037   7.057   5.004 -0.3216  0.3329 -0.8503
  907MOL0     C22323   4.056   7.200   4.955 -0.1725  0.0274  0.8732
  907MOL0     C22324   4.195   7.255   5.015  0.0792  0.2102  0.3663
  907MOL0     C22325   4.276   7.287   4.886  0.1700  0.7736 -0.1891
  907MOL0     C22326   4.406   7.347   4.931  0.5560 -0.7288 -0.8097
  907MOL0     N22327   4.387   7.483   5.001  0.2580 -0.2245 -0.2461
  907MOL0     C22328   4.330   7.594   4.947 -0.6563 -0.6216 -0.5171
  907MOL0     C22329   4.334   7.679   5.052 -0.6014  0.2338 -0.9147
  907MOL0     C22330   4.283   7.828   5.062  0.3027  0.6454 -0.3254
  907MOL0     C22331   4.291   7.903   4.937 -0.0311 -0.2569 -0.6537
  907MOL0     C22332   4.175   7.852   4.839 -0.5337 -0.1474  0.5102
  907MOL0     C22333   4.144   7.945   4.728 -0.3214  0.1079  0.4727
  907MOL0     O22334   4.263   7.998   4.679 -0.0370  0.5450  0.8673
  907MOL0     C22335   4.351   7.930   4.602  0.4085 -0.4091  0.3681
  907MOL0     C22336   4.483   7.988   4.588 -0.6243  0.4316 -0.1262
  907MOL0     C22337   4.583   7.911   4.535 -0.2715  0.9064 -0.1681
  907MOL0     C22338   4.558   7.781   4.485 -0.2952  1.2675 -0.4356
  907MOL0     C22339   4.667   7.708   4.415 -0.2240 -0.3098 -0.2548
  907MOL0     O22340   4.799   7.746   4.422 -0.2547  0.4470  0.3996
  907MOL0     C22341   4.897   7.657   4.374  0.8215  0.5039  0.1049
  907MOL0     C22342   4.991   7.712   4.290  1.1734  0.2217  0.6136
  907MOL0     C22343   5.096   7.632   4.245 -0.5921 -0.3696  0.7273
  907MOL0     C22344   5.095   7.492   4.264 -0.6912 -0.0828 -0.3268
  907MOL0     O22345   5.194   7.423   4.202  0.1066 -0.4708  0.0985
  907MOL0     C22346   5.195   7.280   4.206 -0.0012  0.3620  0.2302
  907MOL0     C22347   5.306   7.215   4.113  0.2659 -0.7251 -1.3163
  907MOL0     C22348   5.447   7.229   4.156  0.2316 -0.7505 -0.1298
  907MOL0     C22349   5.470   7.161   4.292 -0.5127 -0.1904 -1.1636
  907MOL0     C22350   5.619   7.138   4.314 -0.1836 -0.0447 -0.4947
  907MOL0     C22351   5.705   7.262   4.299 -0.0677  0.4016  0.1290
  907MOL0     C22352   5.853   7.220   4.335 -0.2493 -0.1300  0.5939
  907MOL0     C22353   5.917   7.126   4.234  0.2164 -0.2729 -0.3978
  907MOL0    Cl22354   6.079   7.072   4.290 -0.2628 -0.2660  0.1502
  907MOL0     C22355   4.996   7.435   4.344 -0.0829  0.1737 -0.1752
  907MOL0     C22356   4.902   7.519   4.406  0.2275  0.3128 -0.4000
  907MOL0     O22357   4.630   7.595   4.374  0.3766 -0.7732 -0.1748
  907MOL0     C22358   4.423   7.727   4.495 -0.2502  0.0934  0.6742
  907MOL0     C22359   4.323   7.800   4.564 -0.5429  0.2439 -0.0372
  907MOL0     N22360   4.384   7.620   5.167 -1.1019 -0.1020  0.4110
  907MOL0     N22361   4.424   7.508   5.127  0.7547  1.0727 -0.2682
  907MOL0     C22362   3.854   6.459   5.248  0.2333  0.2526  0.8946
  907MOL0     C22363   3.897   6.380   5.347 -1.0729 -0.3196 -0.6199
  907MOL0     C22364   4.010   6.194   5.736  0.0426 -0.7399  1.1685
  907MOL0     C22365   4.148   6.160   5.734 -0.1752 -0.0179 -0.5997
  907MOL0     C22366   4.202   6.071   5.835  1.1669 -0.2156  0.9675
  907MOL0     C22367   4.122   6.027   5.940  0.6094  0.3680  0.1562
  907MOL0     O22368   4.180   5.938   6.027 -0.7253  0.2268  0.0477
  907MOL0     C22369   4.119   5.891   6.141 -0.5943  0.2936 -0.0520
  907MOL0     C22370   4.104   6.000   6.240  0.1622 -0.0886  0.5450
  907MOL0     C22371   4.221   6.086   6.253 -0.5725  0.2238  0.0431
  907MOL0     C22372   4.233   6.168   6.389 -0.1689 -0.4434  0.1752
  907MOL0     C22373   4.348   6.250   6.387 -0.0213  0.1333 -0.5246
  907MOL0     C22374   4.451   6.312   6.389  0.0904  0.3422 -0.0035
  907MOL0     C22375   3.983   6.058   5.927  0.2575  0.2637  0.0499
  907MOL0     C22376   3.925   6.130   5.828  1.6991  0.4565  0.0583
  907MOL0     C22377   3.774   6.136   5.832  1.0617  0.8751  0.3426
  907MOL0     H22378   4.160   6.540   5.470  1.1807 -0.3638 -1.2123
  907MOL0     H22379   4.072   6.705   5.296 -2.3282  0.6527 -2.2795
  907MOL0     H22380   3.865   6.851   5.192  0.8083 -4.6201  3.0000
  907MOL0     H22381   4.021   6.821   5.108  0.5218  1.4512 -0.7973
  907MOL0     H22382   3.752   6.844   4.964 -0.8970  1.1283  0.1676
  907MOL0     H22383   3.918   6.797   4.905 -0.2088  1.4366 -1.1650
  907MOL0     H22384   3.819   7.056   5.028 -2.2309  1.4361 -3.4216
  907MOL0     H22385   3.880   7.025   4.861  0.5275 -0.0442  0.3058
  907MOL0     H22386   4.049   7.051   5.112  1.8704 -1.4017 -1.0948
  907MOL0     H22387   4.111   6.988   4.960  1.4799  0.2253  2.0985
  907MOL0     H22388   4.056   7.193   4.846 -2.2790  1.3277  0.7507
  907MOL0     H22389   3.973   7.264   4.986 -0.5559  1.5395 -2.7378
  907MOL0     H22390   4.171   7.338   5.081  1.3428 -1.3043  2.8934
  907MOL0     H22391   4.240   7.171   5.070 -0.0518 -0.8987 -1.1364
  907MOL0     H22392   4.211   7.350   4.824  0.2539 -1.4520 -2.6895
  907MOL0     H22393   4.306   7.207   4.818 -0.2916  1.1777 -0.8849
  907MOL0     H22394   4.460   7.284   5.002  0.2438 -0.7405 -0.5806
  907MOL0     H22395   4.474   7.346   4.846 -0.4866 -0.9341 -1.6480
  907MOL0     H22396   4.292   7.595   4.846 -0.7663 -0.6681 -0.4768
  907MOL0     H22397   4.188   7.835   5.115  0.8729  0.4028  0.7504
  907MOL0     H22398   4.345   7.881   5.134 -2.9236 -0.9005  4.0136
  907MOL0     H22399   4.281   8.009   4.959 -1.1109 -0.5797  0.5240
  907MOL0     H22400   4.389   7.873   4.897 -0.4307 -1.4254 -0.7990
  907MOL0     H22401   4.077   7.831   4.881 -1.1654  0.5392 -0.5832
  907MOL0     H22402   4.213   7.757   4.799  1.3334 -0.0307  1.8487
  907MOL0     H22403   4.078   8.023   4.768 -0.1876 -0.0095  0.9295
  907MOL0     H22404   4.088   7.897   4.646 -0.1857 -1.3369  1.1892
  907MOL0     H22405   4.500   8.085   4.634 -1.7851  0.5352  0.1009
  907MOL0     H22406   4.689   7.933   4.530  0.4911 -1.7067  1.9069
  907MOL0     H22407   4.982   7.818   4.271 -2.4935 -0.2908 -1.2624
  907MOL0     H22408   5.180   7.664   4.184 -0.4250  0.7728  1.5245
  907MOL0     H22409   5.197   7.244   4.309  1.2532 -0.9682 -0.2282
  907MOL0     H22410   5.096   7.246   4.175  1.2458 -0.7672 -2.9303
  907MOL0     H22411   5.282   7.109   4.101  0.4732 -0.7032 -1.9390
  907MOL0     H22412   5.296   7.257   4.012  0.6633  1.2152 -0.6000
  907MOL0     H22413   5.502   7.176   4.077 -1.5243 -1.8493 -0.6718
  907MOL0     H22414   5.477   7.331   4.180 -0.2578 -1.0011  1.6952
  907MOL0     H22415   5.430   7.059   4.292  0.4592 -0.5994 -2.2659
  907MOL0     H22416   5.427   7.226   4.369  0.6584 -1.4499  0.6423
  907MOL0     H22417   5.655   7.064   4.243 -1.9437  0.4987 -2.0220
  907MOL0     H22418   5.627   7.103   4.417  0.9832  2.9412  0.5606
  907MOL0     H22419   5.716   7.311   4.202 -1.3504 -2.0489 -1.3525
  907MOL0     H22420   5.671   7.335   4.372 -0.3754  3.1175 -2.5279
  907MOL0     H22421   5.860   7.176   4.435  0.7681 -0.2330  0.4881
  907MOL0     H22422   5.916   7.309   4.346 -2.3159  1.1655  3.2011
  907MOL0     H22423   5.863   7.033   4.218  1.1931 -1.3891  2.3212
  907MOL0     H22424   5.922   7.182   4.140 -2.3797  0.3031 -0.2729
  907MOL0     H22425   4.996   7.327   4.358  1.7232  0.3760  1.9310
  907MOL0     H22426   4.827   7.480   4.475 -0.8712 -0.2905 -1.8885
  907MOL0     H22427   4.398   7.629   4.456  0.5050  0.7442 -1.6049
  907MOL0     H22428   4.236   7.739   4.584 -1.1016  1.2570  0.7049
  907MOL0     H22429   3.769   6.415   5.196  0.9348 -1.3318  1.0273
  907MOL0     H22430   3.843   6.285   5.350  0.5257 -1.3085 -1.5181
  907MOL0     H22431   4.213   6.208   5.662  1.1198  0.3946  0.8116
  907MOL0     H22432   4.306   6.041   5.823  1.1293 -0.0503  0.2348
  907MOL0     H22433   4.169   5.805   6.187 -4.2076 -0.6292  2.6757
  907MOL0     H22434   4.023   5.846   6.113 -0.5970 -0.1329  0.6199
  907MOL0     H22435   4.068   5.962   6.337 -0.1532  3.4059  1.9520
  907MOL0     H22436   4.027   6.067   6.202  0.0930 -2.0071 -3.1609
  907MOL0     H22437   4.231   6.159   6.172  3.0109 -1.5699 -1.3329
  907MOL0     H22438   4.309   6.022   6.248 -0.8267 -0.4047  2.4472
  907MOL0     H22439   4.136   6.217   6.402 -1.5118 -2.4838 -1.4807
  907MOL0     H22440   4.253   6.103   6.475  3.5096 -1.9926 -1.6095
  907MOL0     H22441   4.530   6.384   6.391  1.5249 -1.0868 -1.6117
  907MOL0     H22442   3.914   6.003   5.990  0.7735  0.7964  1.1142
  907MOL0     H22443   3.725   6.233   5.814  0.1060  0.5071  0.8725
  907MOL0     H22444   3.739   6.071   5.752 -0.6888  0.0956  1.6608
  907MOL0     H22445   3.738   6.096   5.927  2.5189 -1.2765  0.0482
  908MOL0     O22446   9.742   6.904   5.812 -0.2330  0.3326 -0.1157
  908MOL0     C22447   9.622   6.891   5.793 -0.4594  0.3493 -0.2299
  908MOL0     O22448   9.559   6.761   5.789  0.0067 -0.5410  0.3119
  908MOL0     C22449   9.617   6.645   5.826 -0.5102  0.3741 -0.4152
  908MOL0     C22450   9.539   6.533   5.804  0.0728  1.6745  0.1907
  908MOL0     C22451   9.583   6.404   5.831 -0.2073 -0.8664 -0.1516
  908MOL0     C22452   9.713   6.384   5.875 -0.2189 -0.3956 -0.8044
  908MOL0     O22453   9.767   6.263   5.908 -0.1490  0.5989  0.1047
  908MOL0     C22454   9.679   6.166   5.968  0.3479 -0.1480  0.3874
  908MOL0     C22455   9.673   6.031   5.886 -0.7320  0.2920  1.1912
  908MOL0     C22456   9.568   5.943   5.948 -0.3403  0.4637 -0.1153
  908MOL0     C22457   9.572   5.800   5.899  0.0300 -1.1898 -0.6115
  908MOL0     C22458   9.656   5.704   5.978  0.3176  0.6926 -0.4131
  908MOL0     C22459   9.687   5.584   5.897  0.1392  0.8749 -0.3603
  908MOL0     C22460   9.834   5.540   5.936 -0.6626 -0.0813 -0.0693
  908MOL0     C22461   9.874   5.409   5.871  1.0683 -0.3992 -0.6581
  908MOL0     N22462   9.906   5.434   5.733  0.2960 -0.2426  0.2418
  908MOL0     C22463  10.024   5.465   5.674 -0.0549  0.1391 -0.5554
  908MOL0     C22464   9.991   5.503   5.545  0.4028  0.2001 -0.0357
  908MOL0     C22465  10.086   5.547   5.433  0.2007  0.5029 -0.2951
  908MOL0     C22466  10.204   5.636   5.483 -0.6064 -0.5240  0.3912
  908MOL0     C22467  10.323   5.670   5.379 -0.1182 -0.5369  0.4321
  908MOL0     C22468  10.357   5.569   5.274  0.2295  0.8780  0.0725
  908MOL0     O22469  10.415   5.462   5.350 -0.2096  0.0063  0.6260
  908MOL0     C22470  10.477   5.367   5.275  0.7834 -0.1360  0.8538
  908MOL0     C22471  10.569   5.403   5.170 -0.0048 -0.3548  0.2413
  908MOL0     C22472  10.625   5.299   5.089  0.0969  0.1180  0.5912
  908MOL0     C22473  10.594   5.165   5.105 -0.3317  0.8740 -0.0504
  908MOL0     C22474  10.658   5.055   5.030  0.0597  0.6372 -0.1871
  908MOL0     O22475  10.599   4.927   5.042  0.2948  0.4973 -0.2992
  908MOL0     C22476  10.630   4.815   4.967  0.4281 -0.1716 -0.3230
  908MOL0     C22477  10.689   4.815   4.847  0.8127  0.6438  0.7342
  908MOL0     C22478  10.725   4.703   4.774 -0.8860  0.5610 -0.4094
  908MOL0     C22479  10.711   4.579   4.834 -0.2898  0.8235 -0.7419
  908MOL0     O22480  10.767   4.473   4.766 -0.1166  0.8980  0.5838
  908MOL0     C22481  10.847   4.386   4.854  0.4811  0.4169 -0.6816
  908MOL0     C22482  10.896   4.247   4.805 -0.2100 -0.1891  0.1268
  908MOL0     C22483  10.976   4.275   4.674  0.4302 -0.2814 -0.4862
  908MOL0     C22484  11.061   4.156   4.632 -0.2061 -0.0223  0.3720
  908MOL0     C22485  11.130   4.178   4.493  0.0219 -0.2201  0.0179
  908MOL0     C22486  11.219   4.064   4.446 -0.2431  0.2299 -0.5671
  908MOL0     C22487  11.209   4.054   4.292 -0.3263 -0.2606  0.2468
  908MOL0     C22488  11.286   3.940   4.231  1.0794 -0.0973 -0.6207
  908MOL0    Cl22489  11.224   3.913   4.060 -0.4621  0.1225 -0.1307
  908MOL0     C22490  10.636   4.568   4.952 -0.0083  0.6259 -0.4538
  908MOL0     C22491  10.590   4.687   5.013 -0.0552 -0.5849  0.5757
  908MOL0     O22492  10.757   5.074   4.961  0.5626  0.7749 -0.2090
  908MOL0     C22493  10.496   5.128   5.200 -0.2288 -0.2568 -0.1461
  908MOL0     C22494  10.446   5.229   5.284 -0.3653 -0.1701 -0.3941
  908MOL0     N22495   9.850   5.500   5.533 -0.6472  0.2298 -0.6707
  908MOL0     N22496   9.807   5.458   5.645 -0.2665  0.0893 -0.1339
  908MOL0     C22497   9.801   6.493   5.884 -0.3695 -0.1505 -0.3266
  908MOL0     C22498   9.753   6.622   5.869  0.1456  0.0542 -0.2201
  908MOL0     C22499   9.537   7.011   5.793 -0.3221  0.7479  1.1399
  908MOL0     C22500   9.598   7.131   5.833 -0.6402 -0.1738 -0.1598
  908MOL0     C22501   9.536   7.255   5.823  0.2937  0.2548  0.6404
  908MOL0     C22502   9.400   7.263   5.798 -0.0111  0.0506  0.1574
  908MOL0     O22503   9.342   7.389   5.817  0.2963 -0.2171  0.2817
  908MOL0     C22504   9.220   7.411   5.748  0.6190  0.3091  0.4665
  908MOL0     C22505   9.202   7.556   5.710 -0.0530  0.2452 -0.6710
  908MOL0     C22506   9.142   7.646   5.837 -0.0442  1.5909  0.8161
  908MOL0     C22507   9.002   7.611   5.884 -0.2368 -0.2166  0.4708
  908MOL0     C22508   8.896   7.648   5.785  0.1892  0.4884  0.5123
  908MOL0     C22509   8.798   7.694   5.718 -0.3507 -0.3158 -0.0244
  908MOL0     C22510   9.337   7.147   5.764  0.0231  0.2798  0.9609
  908MOL0     C22511   9.395   7.020   5.764  0.6593 -0.8340  0.1968
  908MOL0     C22512   9.302   6.906   5.724  0.6891  0.0854 -0.1107
  908MOL0     H22513   9.437   6.548   5.772  0.5285 -2.4674 -4.5036
  908MOL0     H22514   9.513   6.323   5.821 -1.1152 -0.3353  1.5761
  908MOL0     H22515   9.717   6.148   6.069 -0.7567  0.8978  1.0203
  908MOL0     H22516   9.584   6.219   5.981  1.5614  2.0080  0.8753
  908MOL0     H22517   9.764   5.972   5.883  0.7253  2.3681 -2.2663
  908MOL0     H22518   9.652   6.055   5.781  1.6930 -3.6463 -0.4188
  908MOL0     H22519   9.468   5.986   5.952 -1.0744 -1.1599  0.0110
  908MOL0     H22520   9.602   5.949   6.052 -0.3119  0.7662 -0.1405
  908MOL0     H22521   9.470   5.761   5.893 -1.1110  0.3511  4.3159
  908MOL0     H22522   9.594   5.793   5.792 -2.5804 -1.7529 -1.1758
  908MOL0     H22523   9.749   5.758   5.998  1.2419 -0.1231 -2.2937
  908MOL0     H22524   9.610   5.679   6.074 -0.2609 -0.6185 -1.0080
  908MOL0     H22525   9.616   5.504   5.916  2.1412 -1.1368 -0.9834
  908MOL0     H22526   9.699   5.605   5.790  2.5511 -0.4600 -0.4257
  908MOL0     H22527   9.839   5.519   6.043  0.9394 -2.2353 -0.5008
  908MOL0     H22528   9.910   5.611   5.904 -1.2293 -0.5994 -2.8417
  908MOL0     H22529   9.957   5.368   5.929 -0.4865 -0.9281  1.3236
  908MOL0     H22530   9.793   5.335   5.877  1.4559 -0.8404 -0.7923
  908MOL0     H22531  10.123   5.452   5.714 -0.3712  0.2097  0.2686
  908MOL0     H22532  10.127   5.460   5.381 -1.3226 -1.7773  2.0822
  908MOL0     H22533  10.023   5.604   5.364 -2.1175 -2.7317 -1.1233
  908MOL0     H22534  10.169   5.733   5.520  1.1555  0.2059  0.2128
  908MOL0     H22535  10.255   5.579   5.562  0.8497  1.8638  1.2698
  908MOL0     H22536  10.417   5.686   5.433  0.0423 -0.2734  0.0871
  908MOL0     H22537  10.296   5.769   5.339 -1.1535 -0.3319  1.5810
  908MOL0     H22538  10.417   5.609   5.191  2.7696  0.5964  1.7024
  908MOL0     H22539  10.269   5.521   5.229  0.6051 -0.8698  1.1486
  908MOL0     H22540  10.610   5.501   5.149  3.4082 -1.6645  0.2209
  908MOL0     H22541  10.702   5.324   5.017  0.8924 -3.5674 -0.0892
  908MOL0     H22542  10.701   4.909   4.796 -4.2969  1.2398  0.0256
  908MOL0     H22543  10.767   4.714   4.674 -3.7838  0.2658 -1.7420
  908MOL0     H22544  10.938   4.440   4.883  1.7819 -0.3082 -3.1404
  908MOL0     H22545  10.788   4.363   4.943  1.1792  0.5574 -0.1741
  908MOL0     H22546  10.971   4.208   4.874 -0.9627 -2.0589 -0.0587
  908MOL0     H22547  10.812   4.179   4.786 -1.8136  1.1703  1.9682
  908MOL0     H22548  10.904   4.295   4.594 -3.3751 -2.0450  2.2307
  908MOL0     H22549  11.046   4.357   4.694  1.4866 -1.4631  0.8416
  908MOL0     H22550  10.998   4.069   4.610 -0.4217  0.1214  0.4256
  908MOL0     H22551  11.134   4.120   4.706  0.5956 -1.0664 -0.8839
  908MOL0     H22552  11.199   4.263   4.495  0.1219 -0.1964  4.2801
  908MOL0     H22553  11.046   4.193   4.425 -1.7183  3.2638  2.6252
  908MOL0     H22554  11.323   4.078   4.476 -0.2278  0.9732 -0.9329
  908MOL0     H22555  11.198   3.971   4.498 -0.8994 -0.6521 -2.3186
  908MOL0     H22556  11.248   4.149   4.254 -1.5488  1.5560  3.1430
  908MOL0     H22557  11.108   4.040   4.253 -0.0455  1.5126 -1.2609
  908MOL0     H22558  11.394   3.941   4.216  1.3997  0.9855  1.4187
  908MOL0     H22559  11.255   3.857   4.294 -2.7145  1.8451  0.4128
  908MOL0     H22560  10.605   4.471   4.989  0.6250 -0.2303 -2.0801
  908MOL0     H22561  10.523   4.686   5.099 -1.7309  1.4098 -0.5945
  908MOL0     H22562  10.473   5.022   5.209  2.3872 -1.0371 -1.6425
  908MOL0     H22563  10.377   5.203   5.364  1.2609  1.9507  1.8600
  908MOL0     H22564   9.907   6.479   5.903 -0.1891 -2.2902 -2.4188
  908MOL0     H22565   9.821   6.702   5.897  0.2223 -0.8717  2.5883
  908MOL0     H22566   9.697   7.144   5.876 -0.9915  2.1158  0.0772
  908MOL0     H22567   9.591   7.345   5.850  2.3989 -1.1346  1.2286
  908MOL0     H22568   9.139   7.383   5.816  0.3611 -0.5347 -0.1583
  908MOL0     H22569   9.210   7.346   5.660 -2.1746 -0.0920  1.0035
  908MOL0     H22570   9.131   7.565   5.628  0.6242 -0.3500 -1.3249
  908MOL0     H22571   9.294   7.596   5.667  2.1353 -1.8246  1.7566
  908MOL0     H22572   9.143   7.749   5.799 -1.5532  1.2993 -0.0940
  908MOL0     H22573   9.221   7.641   5.913  0.4318 -0.8980  0.2337
  908MOL0     H22574   8.993   7.510   5.922  2.4229 -2.4111 -3.8805
  908MOL0     H22575   8.988   7.677   5.970  0.5233 -0.2741  0.6438
  908MOL0     H22576   8.716   7.738   5.665  0.1837 -0.7398 -1.2297
  908MOL0     H22577   9.238   7.147   5.719  0.3839  0.1352  0.1563
  908MOL0     H22578   9.317   6.817   5.786  1.3561 -2.2833 -3.3810
  908MOL0     H22579   9.202   6.935   5.758  1.2932 -0.1124  1.9493
  908MOL0     H22580   9.288   6.873   5.621 -1.1172  1.1574 -0.2678
  909MOL0     O22581   0.312   8.188   6.504 -0.3449 -0.5400 -0.6759
  909MOL0     C22582   0.212   8.216   6.439  1.0188  0.4954 -0.6410
  909MOL0     O22583   0.202   8.213   6.308  0.3109  0.1468 -0.0770
  909MOL0     C22584   0.308   8.172   6.239 -0.7375  0.6851 -0.1820
  909MOL0     C22585   0.346   8.037   6.234 -0.0506  0.1040  0.5299
  909MOL0     C22586   0.458   7.999   6.154 -0.3143  0.5622 -0.0952
  909MOL0     C22587   0.541   8.081   6.085  0.6890  0.5566  0.2418
  909MOL0     O22588   0.643   8.041   6.007 -0.4495  0.1495  0.2364
  909MOL0     C22589   0.679   7.901   5.983 -0.3286 -0.6968  0.4690
  909MOL0     C22590   0.773   7.884   5.872 -1.0406 -0.2741  1.0277
  909MOL0     C22591   0.884   7.996   5.873  0.0651 -0.2339  0.0517
  909MOL0     C22592   0.968   7.983   5.999 -0.7894  0.0525 -0.4650
  909MOL0     C22593   1.089   8.083   5.997  0.2042 -0.5779  0.9104
  909MOL0     C22594   1.133   8.123   6.143  0.1643  0.1249  0.7604
  909MOL0     C22595   1.172   8.003   6.233 -0.4403  0.1036 -0.2852
  909MOL0     C22596   1.274   7.908   6.170  0.1782 -0.1069  0.1336
  909MOL0     N22597   1.394   7.987   6.121  0.4245  0.3512  0.3892
  909MOL0     C22598   1.509   8.028   6.187  0.3072  0.4641  0.5890
  909MOL0     C22599   1.591   8.077   6.085  0.0876 -1.0438 -1.1836
  909MOL0     C22600   1.718   8.142   6.100 -1.3066  0.2450  0.0272
  909MOL0     C22601   1.842   8.038   6.118  0.9918 -0.2304  0.8406
  909MOL0     C22602   1.966   8.105   6.152 -1.0862 -0.3264  0.3246
  909MOL0     C22603   2.089   8.023   6.120  1.0577  0.0327  0.3076
  909MOL0     O22604   2.099   8.003   5.973  0.3839  0.5405  0.0825
  909MOL0     C22605   2.196   7.912   5.919  0.3689 -0.1493  0.0937
  909MOL0     C22606   2.316   7.875   5.992  0.7250  0.4152 -0.2098
  909MOL0     C22607   2.401   7.784   5.931 -0.7892  0.7605  0.4114
  909MOL0     C22608   2.378   7.732   5.803  0.6797 -0.6197 -0.5791
  909MOL0     C22609   2.474   7.640   5.743 -0.1973 -0.0945  0.3940
  909MOL0     O22610   2.573   7.580   5.818 -0.6488 -0.1464 -1.2306
  909MOL0     C22611   2.632   7.459   5.784  0.3155 -1.5066  0.6406
  909MOL0     C22612   2.645   7.375   5.882 -0.1983  0.2832 -0.9811
  909MOL0     C22613   2.690   7.245   5.874  0.0260 -0.3545 -0.1730
  909MOL0     C22614   2.737   7.204   5.747 -0.0245  1.1140 -0.4152
  909MOL0     O22615   2.795   7.084   5.734  0.4471 -0.0081 -0.0175
  909MOL0     C22616   2.921   7.086   5.663  0.5391 -0.6687  0.1331
  909MOL0     C22617   2.962   6.946   5.670  0.3000  0.2193  0.9319
  909MOL0     C22618   3.063   6.906   5.564 -0.4743 -0.3477  0.1803
  909MOL0     C22619   3.190   6.998   5.555  0.2052  0.5420  0.0671
  909MOL0     C22620   3.279   6.953   5.674 -0.0257  0.2257 -0.9595
  909MOL0     C22621   3.342   7.070   5.746 -0.7118 -0.0394 -0.3800
  909MOL0     C22622   3.469   7.118   5.676 -0.3183 -0.4886 -0.5648
  909MOL0     C22623   3.553   7.210   5.763  0.0826 -0.4508 -0.0812
  909MOL0    Cl22624   3.477   7.361   5.805  0.0755 -0.5316 -0.4387
  909MOL0     C22625   2.722   7.287   5.637  0.3980 -0.7917  0.7140
  909MOL0     C22626   2.658   7.413   5.656  0.2156 -0.4066 -0.2639
  909MOL0     O22627   2.443   7.611   5.626 -0.1612 -0.2087  0.0624
  909MOL0     C22628   2.259   7.762   5.737 -0.0270  0.3756  0.5834
  909MOL0     C22629   2.167   7.853   5.796  0.3367 -0.2417 -0.8826
  909MOL0     N22630   1.529   8.055   5.966 -0.1567 -0.2329  0.4716
  909MOL0     N22631   1.419   7.995   5.983 -0.0472 -0.5305  0.1626
  909MOL0     C22632   0.507   8.219   6.096 -0.1326 -0.3592  0.8047
  909MOL0     C22633   0.398   8.258   6.178 -0.4549 -0.4791 -0.1939
  909MOL0     C22634   0.084   8.243   6.518 -0.0514  0.1246 -0.1910
  909MOL0     C22635  -0.036   8.245   6.443  0.1250 -0.7974 -0.3215
  909MOL0     C22636  -0.163   8.268   6.504  0.1069 -0.0473 -0.4675
  909MOL0     C22637  -0.173   8.286   6.643  0.6079 -0.0203  0.4755
  909MOL0     O22638  -0.295   8.299   6.707 -0.4485  0.2652  0.4243
  909MOL0     C22639  -0.390   8.384   6.649  0.3659 -0.3058 -0.3013
  909MOL0     C22640  -0.471   8.423   6.772 -0.9013  0.3827  0.3503
  909MOL0     C22641  -0.382   8.497   6.883  0.0284  0.2442 -0.1771
  909MOL0     C22642  -0.471   8.520   7.003  0.1638 -0.5583 -0.4136
  909MOL0     C22643  -0.576   8.622   6.973  0.0993  0.5271  0.2028
  909MOL0     C22644  -0.655   8.705   6.933  0.3330  0.3186  1.0039
  909MOL0     C22645  -0.057   8.272   6.718 -0.0077 -0.5553  0.9421
  909MOL0     C22646   0.072   8.254   6.661 -0.2670  0.3989  0.5173
  909MOL0     C22647   0.192   8.254   6.755  0.7615  0.0235 -0.5854
  909MOL0     H22648   0.290   7.958   6.283 -1.5198  0.1233 -1.0467
  909MOL0     H22649   0.469   7.891   6.150 -1.0244  0.4395  0.8673
  909MOL0     H22650   0.740   7.867   6.067  2.2343 -1.4472 -1.5709
  909MOL0     H22651   0.594   7.837   5.959  1.0523 -2.4291  0.0612
  909MOL0     H22652   0.718   7.901   5.779  0.4193 -0.4140  0.1050
  909MOL0     H22653   0.810   7.781   5.879 -2.6229 -0.9030  0.4443
  909MOL0     H22654   0.850   8.100   5.864 -0.2305 -0.4816 -2.5161
  909MOL0     H22655   0.938   7.979   5.780  1.9063  1.1120  0.8133
  909MOL0     H22656   0.905   8.004   6.086 -0.0304 -0.1016  0.1295
  909MOL0     H22657   1.004   7.880   5.996 -1.9726 -0.3709 -0.7618
  909MOL0     H22658   1.169   8.035   5.940 -0.5176 -2.9777  1.8011
  909MOL0     H22659   1.061   8.173   5.941 -2.3809 -1.9314 -0.1529
  909MOL0     H22660   1.211   8.198   6.143  1.7807 -1.4847  0.3341
  909MOL0     H22661   1.048   8.176   6.188  0.4405  3.1377 -1.9547
  909MOL0     H22662   1.085   7.948   6.268  0.9864 -0.5010  2.5944
  909MOL0     H22663   1.224   8.047   6.319 -0.3006  1.4712 -1.0240
  909MOL0     H22664   1.308   7.838   6.248  0.7213 -1.7043 -1.4779
  909MOL0     H22665   1.242   7.859   6.078 -0.2543  1.3641 -0.5303
  909MOL0     H22666   1.547   8.006   6.287  3.0053  0.8202 -0.2854
  909MOL0     H22667   1.748   8.185   6.003 -1.5224 -0.8094 -0.5213
  909MOL0     H22668   1.706   8.226   6.169  0.2625  3.3721 -3.1922
  909MOL0     H22669   1.810   7.958   6.186 -3.8753  2.0114  1.6775
  909MOL0     H22670   1.859   7.981   6.026 -1.8681  0.4892 -0.2418
  909MOL0     H22671   1.973   8.111   6.261  0.7077  1.0872  0.1811
  909MOL0     H22672   1.967   8.202   6.103  0.9647  0.1125  1.0998
  909MOL0     H22673   2.086   7.920   6.157 -3.2876 -0.5499 -1.1454
  909MOL0     H22674   2.181   8.070   6.158  1.0812  2.7706 -2.6533
  909MOL0     H22675   2.337   7.916   6.090  1.6141 -1.7814  0.5931
  909MOL0     H22676   2.487   7.758   5.991 -2.2288  1.2830  2.8632
  909MOL0     H22677   2.613   7.417   5.977 -1.4861  2.2262 -2.2055
  909MOL0     H22678   2.708   7.184   5.962  2.3673  0.0439 -0.2975
  909MOL0     H22679   2.900   7.126   5.564 -2.9376  0.0199  0.9845
  909MOL0     H22680   2.987   7.157   5.712 -1.4276  2.3742 -1.3635
  909MOL0     H22681   2.995   6.931   5.773  0.3823  0.0276  0.8779
  909MOL0     H22682   2.879   6.876   5.655  1.7989 -1.1415 -1.8507
  909MOL0     H22683   3.095   6.803   5.579  0.1452  0.0102  1.4247
  909MOL0     H22684   3.000   6.903   5.474 -2.0937  0.9665  1.2159
  909MOL0     H22685   3.161   7.103   5.563  3.6499  1.5560  1.3491
  909MOL0     H22686   3.243   6.978   5.461  3.3024 -0.7849  1.9242
  909MOL0     H22687   3.357   6.883   5.642 -1.6226 -1.3810 -1.4632
  909MOL0     H22688   3.228   6.894   5.750  4.2431 -2.2848  0.3061
  909MOL0     H22689   3.272   7.151   5.769  0.8175  1.3800 -0.5453
  909MOL0     H22690   3.367   7.035   5.847  0.1050  1.5720  0.0182
  909MOL0     H22691   3.433   7.159   5.581  1.0354  4.3799  0.7748
  909MOL0     H22692   3.523   7.029   5.642 -1.7433 -1.3067 -0.7702
  909MOL0     H22693   3.584   7.160   5.855  1.8768 -1.4472 -1.1709
  909MOL0     H22694   3.645   7.218   5.704 -0.4807 -0.7892 -1.0273
  909MOL0     H22695   2.732   7.245   5.537 -1.7083 -2.2172  1.0298
  909MOL0     H22696   2.634   7.461   5.561  2.6834 -2.3990 -2.0491
  909MOL0     H22697   2.243   7.727   5.635  2.5087  0.5715  0.0492
  909MOL0     H22698   2.070   7.867   5.748  1.5382 -0.2777 -3.4586
  909MOL0     H22699   0.555   8.288   6.028  0.2461 -2.7011 -1.4619
  909MOL0     H22700   0.384   8.366   6.185  1.2780  0.0886 -3.5472
  909MOL0     H22701  -0.028   8.232   6.336  2.1654 -0.4553 -0.2605
  909MOL0     H22702  -0.250   8.283   6.441 -0.9804 -2.0060  0.4555
  909MOL0     H22703  -0.452   8.327   6.580  1.2246  1.5349 -2.7312
  909MOL0     H22704  -0.351   8.478   6.610  1.2571 -0.3635  0.3959
  909MOL0     H22705  -0.526   8.338   6.812 -0.1800  0.2224  1.0280
  909MOL0     H22706  -0.536   8.492   6.718  0.0457 -1.0918 -2.9553
  909MOL0     H22707  -0.332   8.582   6.837 -1.4832  0.4056 -1.6511
  909MOL0     H22708  -0.300   8.434   6.918  0.2725  0.2087 -0.7999
  909MOL0     H22709  -0.523   8.431   7.040 -0.1324  0.5376  2.0062
  909MOL0     H22710  -0.412   8.559   7.086  1.0575  0.1635 -1.3608
  909MOL0     H22711  -0.732   8.774   6.904  1.6056  0.7111 -1.7013
  909MOL0     H22712  -0.061   8.271   6.826  0.3994  1.6382  1.0120
  909MOL0     H22713   0.228   8.156   6.787  1.4793  0.3681 -0.3175
  909MOL0     H22714   0.266   8.320   6.709  1.6022 -0.7322 -0.3481
  909MOL0     H22715   0.167   8.308   6.847  1.3544 -0.9777  0.1904
  910MOL0     O22716   7.200   8.243   3.323 -0.4562 -0.7151  0.6555
  910MOL0     C22717   7.151   8.351   3.303 -0.3571  0.7132 -0.8904
  910MOL0     O22718   7.210   8.465   3.268 -0.0679 -0.0885  0.0802
  910MOL0     C22719   7.345   8.466   3.258 -0.3780 -0.0554  0.1432
  910MOL0     C22720   7.436   8.402   3.348 -0.0002 -0.2750 -0.5281
  910MOL0     C22721   7.576   8.411   3.331  0.6763  0.2476 -0.0062
  910MOL0     C22722   7.633   8.479   3.223 -0.1304 -0.6735 -0.4726
  910MOL0     O22723   7.770   8.498   3.207  0.3293 -0.0597 -0.0153
  910MOL0     C22724   7.858   8.448   3.311  0.6091  0.7095  0.0968
  910MOL0     C22725   8.002   8.469   3.268  0.8200 -0.5669 -0.2994
  910MOL0     C22726   8.032   8.610   3.302 -0.6329  0.1417 -0.5166
  910MOL0     C22727   8.173   8.641   3.239  0.6159  0.2698 -0.4769
  910MOL0     C22728   8.246   8.762   3.307 -0.3921  0.4850 -0.5492
  910MOL0     C22729   8.197   8.894   3.248 -0.0234 -0.3049  0.6721
  910MOL0     C22730   8.284   9.005   3.290  0.6001 -0.3810 -0.4609
  910MOL0     C22731   8.211   9.134   3.225  0.2190 -0.0440 -0.3268
  910MOL0     N22732   8.279   9.256   3.277 -0.2542  0.2355  0.8628
  910MOL0     C22733   8.241   9.339   3.380  0.5301 -0.4877  0.0777
  910MOL0     C22734   8.345   9.417   3.418  0.6805  0.1551  1.6886
  910MOL0     C22735   8.331   9.525   3.523 -0.2917 -0.1951  0.3703
  910MOL0     C22736   8.456   9.542   3.615  0.0260  0.2716 -0.1561
  910MOL0     C22737   8.496   9.690   3.633 -0.0429 -0.2293  0.2979
  910MOL0     C22738   8.642   9.731   3.655  0.2150  0.5809 -0.7438
  910MOL0     O22739   8.683   9.701   3.792 -0.0411  0.4440 -0.1444
  910MOL0     C22740   8.812   9.713   3.844 -0.6943 -0.5237 -0.3867
  910MOL0     C22741   8.918   9.777   3.769  0.0615  0.3258 -0.1149
  910MOL0     C22742   9.046   9.779   3.826  0.3293  0.7868  0.0021
  910MOL0     C22743   9.073   9.729   3.951  0.4282  0.2861 -0.3502
  910MOL0     C22744   9.208   9.725   3.996 -0.4033  0.2414  0.1061
  910MOL0     O22745   9.233   9.658   4.115 -0.0813  0.3863 -0.0604
  910MOL0     C22746   9.365   9.648   4.163  0.6604  0.4387 -0.0226
  910MOL0     C22747   9.469   9.743   4.144 -0.3244 -0.0070  0.6843
  910MOL0     C22748   9.588   9.729   4.215 -0.0489  0.1197  0.2703
  910MOL0     C22749   9.611   9.615   4.289  0.0818 -0.1050 -0.4904
  910MOL0     O22750   9.740   9.610   4.337  0.2525  0.4385  0.7977
  910MOL0     C22751   9.782   9.487   4.396 -1.0978 -0.0573 -0.5115
  910MOL0     C22752   9.733   9.466   4.541 -0.0146 -0.4769  0.1851
  910MOL0     C22753   9.756   9.577   4.639  0.6383  0.7298  0.7473
  910MOL0     C22754   9.659   9.576   4.757  0.1265  0.3014  0.4413
  910MOL0     C22755   9.701   9.679   4.858 -0.1091  0.2520 -0.3482
  910MOL0     C22756   9.600   9.664   4.974  0.0633 -0.2975 -1.2767
  910MOL0     C22757   9.649   9.752   5.087 -0.3371 -0.5339 -0.4565
  910MOL0     C22758   9.642   9.909   5.061 -0.0929  0.4676  0.6032
  910MOL0    Cl22759   9.464   9.943   5.044  0.0739 -0.2030  0.0653
  910MOL0     C22760   9.511   9.519   4.312 -0.8055  0.7553  0.5809
  910MOL0     C22761   9.387   9.538   4.250  0.2205 -0.5610 -0.7949
  910MOL0     O22762   9.294   9.784   3.926  0.1402 -0.2510 -0.3930
  910MOL0     C22763   8.966   9.666   4.022 -0.1469  0.8916 -0.6646
  910MOL0     C22764   8.835   9.667   3.972  0.5553 -0.1381  0.2043
  910MOL0     N22765   8.446   9.394   3.328 -0.1448 -0.1830  0.5922
  910MOL0     N22766   8.408   9.299   3.245  0.0089  0.3461  0.7828
  910MOL0     C22767   7.548   8.539   3.133 -0.5719  0.6889 -0.0943
  910MOL0     C22768   7.407   8.535   3.155  0.8586 -0.5371  0.0481
  910MOL0     C22769   7.000   8.354   3.323  0.1123 -0.0619 -0.1968
  910MOL0     C22770   6.931   8.283   3.227  0.0406 -1.4938  0.0296
  910MOL0     C22771   6.792   8.284   3.223 -0.0950 -0.2917 -0.7463
  910MOL0     C22772   6.724   8.370   3.308 -0.8636 -0.6454 -0.8215
  910MOL0     O22773   6.590   8.380   3.292 -0.1067  0.0443 -0.3770
  910MOL0     C22774   6.513   8.469   3.367  0.0873 -1.1493 -0.1798
  910MOL0     C22775   6.381   8.464   3.309  0.5982 -0.1212  0.3832
  910MOL0     C22776   6.370   8.513   3.161 -0.5025  0.0370 -0.0745
  910MOL0     C22777   6.225   8.560   3.139 -0.4981  0.3511  0.1796
  910MOL0     C22778   6.195   8.611   3.004 -0.1406 -0.2282  0.4934
  910MOL0     C22779   6.128   8.653   2.916 -0.1069 -0.5001 -0.3286
  910MOL0     C22780   6.795   8.440   3.414  0.4852  0.2138  0.0339
  910MOL0     C22781   6.934   8.432   3.424  0.2376  0.2677 -0.2356
  910MOL0     C22782   7.009   8.507   3.532  0.0225 -0.3998 -0.5851
  910MOL0     H22783   7.405   8.359   3.443  3.0163 -0.1567  0.6289
  910MOL0     H22784   7.624   8.357   3.412 -0.8873  0.8758  1.4087
  910MOL0     H22785   7.832   8.508   3.398 -2.4860 -1.9949  1.2219
  910MOL0     H22786   7.834   8.342   3.321  2.1098  0.3458  0.1286
  910MOL0     H22787   8.013   8.449   3.161  1.1815  0.0908 -0.3932
  910MOL0     H22788   8.076   8.414   3.326  1.1650  0.9031  0.7011
  910MOL0     H22789   8.036   8.632   3.409 -1.2349 -1.1087 -0.2162
  910MOL0     H22790   7.963   8.679   3.252 -2.3066 -0.3318  1.0421
  910MOL0     H22791   8.236   8.555   3.263  1.5033  1.2221  0.7374
  910MOL0     H22792   8.170   8.651   3.130  1.0331 -1.3918 -0.6794
  910MOL0     H22793   8.230   8.760   3.416 -0.9809 -4.0064 -0.5404
  910MOL0     H22794   8.352   8.751   3.283 -0.5782 -0.3176 -1.0080
  910MOL0     H22795   8.201   8.898   3.138  2.7502  0.3001  0.7135
  910MOL0     H22796   8.093   8.907   3.281 -0.6935 -0.0007 -1.4120
  910MOL0     H22797   8.385   8.998   3.249  0.5537 -0.2682 -0.5954
  910MOL0     H22798   8.284   9.008   3.399  1.9101 -1.4951 -0.4075
  910MOL0     H22799   8.208   9.137   3.116 -0.0748 -1.8199 -0.3926
  910MOL0     H22800   8.107   9.139   3.259 -0.6372 -1.7123 -2.5322
  910MOL0     H22801   8.147   9.350   3.434  0.1463  0.2080 -0.7047
  910MOL0     H22802   8.319   9.620   3.469  2.4878  2.1278  3.4051
  910MOL0     H22803   8.240   9.512   3.581 -2.1397  2.4522 -1.7055
  910MOL0     H22804   8.421   9.505   3.711  0.2978  0.3294 -0.0351
  910MOL0     H22805   8.542   9.484   3.579 -0.4607  1.2480 -3.2434
  910MOL0     H22806   8.419   9.731   3.699 -0.2619 -1.3903  0.7852
  910MOL0     H22807   8.474   9.731   3.534  2.8123  2.9556  0.7845
  910MOL0     H22808   8.640   9.835   3.623  0.7707  0.0085 -2.8569
  910MOL0     H22809   8.708   9.669   3.592  1.8168 -0.1936  1.5555
  910MOL0     H22810   8.903   9.814   3.668  0.3385  0.3567 -0.1436
  910MOL0     H22811   9.126   9.813   3.762  0.9240 -1.2625 -0.4269
  910MOL0     H22812   9.464   9.832   4.083 -1.0852  0.8972  2.0114
  910MOL0     H22813   9.663   9.805   4.201  0.8239 -0.8226 -0.2587
  910MOL0     H22814   9.746   9.410   4.328 -0.6652 -0.5582 -0.1881
  910MOL0     H22815   9.890   9.476   4.410 -1.0920 -0.2831 -0.7349
  910MOL0     H22816   9.626   9.444   4.532  0.3439 -2.0361 -0.6127
  910MOL0     H22817   9.773   9.374   4.583  0.1324 -0.5080 -0.0216
  910MOL0     H22818   9.860   9.566   4.673 -0.2170 -2.4730  2.8227
  910MOL0     H22819   9.752   9.675   4.591  1.1333 -0.0158 -0.8971
  910MOL0     H22820   9.661   9.474   4.798 -2.1783 -1.0904 -2.5644
  910MOL0     H22821   9.556   9.592   4.727  0.1182 -2.3615 -1.3051
  910MOL0     H22822   9.691   9.775   4.806 -1.2125  0.7005  0.6735
  910MOL0     H22823   9.802   9.665   4.897 -1.3987  0.1189  3.2459
  910MOL0     H22824   9.501   9.701   4.949  0.8058  2.3528 -0.6250
  910MOL0     H22825   9.586   9.563   5.012  1.1978  0.3808  1.1096
  910MOL0     H22826   9.742   9.723   5.136 -0.4280 -0.2945 -0.1398
  910MOL0     H22827   9.571   9.743   5.163  0.3923  1.0524  0.5284
  910MOL0     H22828   9.673   9.970   5.147  1.9334 -0.5476  0.6387
  910MOL0     H22829   9.700   9.933   4.972  4.0352  1.8146  3.3727
  910MOL0     H22830   9.527   9.424   4.361 -0.7414  0.1566 -0.5592
  910MOL0     H22831   9.303   9.475   4.277 -0.0094 -0.0069 -0.1841
  910MOL0     H22832   8.998   9.624   4.116 -0.5480  1.9824 -0.0197
  910MOL0     H22833   8.748   9.631   4.026  0.1414 -0.9014 -0.9319
  910MOL0     H22834   7.610   8.589   3.059  1.1574 -2.5292 -1.0224
  910MOL0     H22835   7.338   8.588   3.091 -1.2240 -0.3261  2.3366
  910MOL0     H22836   6.991   8.237   3.149 -0.1868 -4.9913  1.6898
  910MOL0     H22837   6.739   8.212   3.161  1.5862 -2.4662  0.2193
  910MOL0     H22838   6.550   8.571   3.385 -3.2949 -0.1017  1.6231
  910MOL0     H22839   6.507   8.426   3.467 -2.1318 -1.7934 -0.5446
  910MOL0     H22840   6.319   8.522   3.379  0.0237 -1.7931  1.3252
  910MOL0     H22841   6.343   8.361   3.306  0.3402 -0.0314  0.4594
  910MOL0     H22842   6.396   8.438   3.086  1.6898  1.9854 -1.4234
  910MOL0     H22843   6.438   8.597   3.142 -0.6178 -0.3431 -2.4487
  910MOL0     H22844   6.147   8.487   3.164  0.2812  0.0175  1.7947
  910MOL0     H22845   6.202   8.647   3.200 -1.4474  0.6516 -0.5707
  910MOL0     H22846   6.054   8.691   2.848  0.8841  1.3411 -0.4288
  910MOL0     H22847   6.739   8.497   3.488 -1.3286  0.4830 -1.4691
  910MOL0     H22848   7.024   8.608   3.492 -2.5848 -0.1886 -1.2238
  910MOL0     H22849   6.943   8.525   3.617 -2.4207 -0.8083 -2.2833
  910MOL0     H22850   7.101   8.452   3.555  0.7022  0.3526 -1.4293
  911MOL0     O22851  11.010   6.393   1.887 -0.5704  0.4505 -0.2307
  911MOL0     C22852  11.040   6.303   1.961 -0.3452  0.7234 -1.2108
  911MOL0     O22853  11.158   6.303   2.034 -0.5396  0.8118 -0.3672
  911MOL0     C22854  11.254   6.385   1.990  0.7014  0.4421  0.6797
  911MOL0     C22855  11.251   6.521   2.019 -0.1198 -0.3597 -0.7661
  911MOL0     C22856  11.352   6.607   1.983 -0.1542 -0.4081 -0.5922
  911MOL0     C22857  11.462   6.568   1.916 -0.8906  0.5485 -0.5843
  911MOL0     O22858  11.563   6.662   1.890  0.3786 -0.3541  0.2658
  911MOL0     C22859  11.680   6.618   1.822 -0.1927  0.3964  0.6137
  911MOL0     C22860  11.761   6.744   1.792 -0.2841  0.5298 -0.5212
  911MOL0     C22861  11.898   6.700   1.722  0.9849 -0.1376 -0.1775
  911MOL0     C22862  12.010   6.796   1.771  0.2499  0.0224  0.5529
  911MOL0     C22863  12.151   6.783   1.703  0.5485  0.7431  0.4893
  911MOL0     C22864  12.155   6.851   1.563  0.5696 -0.4399 -0.7369
  911MOL0     C22865  12.270   6.806   1.472 -0.3540 -0.9338 -0.1205
  911MOL0     C22866  12.406   6.873   1.505  0.0181  1.1885  0.2708
  911MOL0     N22867  12.518   6.836   1.408  0.4027 -0.0156 -0.0249
  911MOL0     C22868  12.650   6.855   1.435 -0.4092 -0.2171 -0.4646
  911MOL0     C22869  12.712   6.804   1.320  0.9249  0.5717  0.3532
  911MOL0     C22870  12.851   6.802   1.286  0.3385 -0.5881 -0.4862
  911MOL0     C22871  12.921   6.942   1.293 -0.3733 -0.2869  0.4326
  911MOL0     C22872  13.074   6.935   1.301  0.5165 -0.6073  0.1681
  911MOL0     C22873  13.155   6.879   1.181  0.4147  1.0360 -0.4633
  911MOL0     O22874  13.286   6.946   1.194  0.3549  0.7194  0.6616
  911MOL0     C22875  13.401   6.888   1.138  1.8492  0.3173 -0.2295
  911MOL0     C22876  13.433   6.750   1.175 -0.0145 -0.7511  1.2782
  911MOL0     C22877  13.554   6.694   1.122  0.1536 -0.4361 -0.3750
  911MOL0     C22878  13.640   6.772   1.047 -0.3071 -1.5890  0.9725
  911MOL0     C22879  13.761   6.720   0.987 -1.0275  0.7559 -0.2272
  911MOL0     O22880  13.840   6.821   0.920  0.1490  0.1116  0.2239
  911MOL0     C22881  13.973   6.806   0.922  0.1103  0.6082  0.0863
  911MOL0     C22882  14.049   6.752   0.822 -0.0460  1.3198 -0.2412
  911MOL0     C22883  14.186   6.742   0.837  0.6653 -0.0031  0.4326
  911MOL0     C22884  14.253   6.791   0.943 -0.3945 -0.5387 -0.2719
  911MOL0     O22885  14.391   6.781   0.972  0.4461 -0.3384  0.4486
  911MOL0     C22886  14.471   6.687   0.900  0.9264  0.1235  0.8630
  911MOL0     C22887  14.622   6.720   0.922  0.3392 -0.3174 -0.1751
  911MOL0     C22888  14.659   6.853   0.863 -0.6529  0.0686 -0.4055
  911MOL0     C22889  14.591   6.890   0.734 -0.7622  0.3522 -0.2376
  911MOL0     C22890  14.663   6.996   0.645  0.1014 -0.1518  0.2107
  911MOL0     C22891  14.677   7.130   0.714  0.3893 -0.2616  0.2406
  911MOL0     C22892  14.736   7.230   0.605 -0.3170  0.5283 -1.1494
  911MOL0     C22893  14.756   7.375   0.656 -0.3112  0.3739  0.5482
  911MOL0    Cl22894  14.867   7.447   0.534 -0.0655  0.0610 -0.4663
  911MOL0     C22895  14.184   6.851   1.044  0.8216 -0.4109 -0.2515
  911MOL0     C22896  14.041   6.857   1.036 -0.3380 -0.6843  0.5070
  911MOL0     O22897  13.806   6.609   1.023 -0.4692 -0.1114  0.3523
  911MOL0     C22898  13.606   6.909   1.018 -0.2943 -0.1800  0.0963
  911MOL0     C22899  13.482   6.956   1.054  0.3068  0.3638  0.1111
  911MOL0     N22900  12.622   6.764   1.223 -0.4667  0.7955  0.1399
  911MOL0     N22901  12.502   6.790   1.279  0.8409  0.1207 -0.4470
  911MOL0     C22902  11.472   6.433   1.885  0.0052  0.8366  1.1136
  911MOL0     C22903  11.372   6.343   1.929 -0.3477  0.1188  0.8558
  911MOL0     C22904  10.946   6.186   1.992 -0.3879 -0.1060  0.0744
  911MOL0     C22905  11.001   6.076   2.053 -0.8311 -0.6877  0.3148
  911MOL0     C22906  10.922   5.967   2.084 -0.2505  0.2696  0.4968
  911MOL0     C22907  10.786   5.966   2.070 -0.1071 -0.5588 -0.0907
  911MOL0     O22908  10.683   5.870   2.111 -0.3103 -0.0789 -0.0505
  911MOL0     C22909  10.705   5.823   2.249  0.0261 -0.6237 -1.1958
  911MOL0     C22910  10.603   5.714   2.278  0.4825 -0.4710  0.1064
  911MOL0     C22911  10.623   5.658   2.419 -1.0959  0.8742 -1.2312
  911MOL0     C22912  10.550   5.523   2.432  0.2342  0.5175  0.3762
  911MOL0     C22913  10.539   5.492   2.571  0.4476  0.2477  0.5872
  911MOL0     C22914  10.533   5.457   2.685 -0.3037 -0.3227 -0.3773
  911MOL0     C22915  10.734   6.079   2.001 -0.0922  1.3753  0.6739
  911MOL0     C22916  10.806   6.189   1.957 -0.2091  0.3291  0.1408
  911MOL0     C22917  10.737   6.295   1.874 -1.1922  0.2734 -0.4613
  911MOL0     H22918  11.169   6.568   2.073  0.1914 -0.0106 -0.5909
  911MOL0     H22919  11.355   6.713   2.006  2.8547 -0.6913  0.7137
  911MOL0     H22920  11.735   6.548   1.885 -1.1282 -0.8614  0.0576
  911MOL0     H22921  11.657   6.569   1.728  0.6469 -2.0934  1.6252
  911MOL0     H22922  11.777   6.796   1.886 -2.3084  1.1159 -0.4553
  911MOL0     H22923  11.706   6.815   1.731 -2.2332 -0.6884 -0.2793
  911MOL0     H22924  11.899   6.719   1.614  1.9625  2.2771  0.2042
  911MOL0     H22925  11.922   6.595   1.744 -1.3120 -0.6541  0.0676
  911MOL0     H22926  11.993   6.904   1.764  1.0219  0.1778  0.9629
  911MOL0     H22927  12.008   6.772   1.877 -2.3440 -0.3037  0.4983
  911MOL0     H22928  12.227   6.838   1.759  2.1874  0.0596 -0.9748
  911MOL0     H22929  12.184   6.679   1.709 -0.0906  0.4895 -0.2156
  911MOL0     H22930  12.063   6.827   1.509 -0.3374 -1.6374  1.2046
  911MOL0     H22931  12.163   6.960   1.570 -2.3251 -0.1969  0.3175
  911MOL0     H22932  12.235   6.840   1.375 -2.6502 -0.7755  0.6987
  911MOL0     H22933  12.273   6.697   1.463 -2.4364 -1.3234  2.6160
  911MOL0     H22934  12.397   6.982   1.503  3.7013  1.5940 -1.4852
  911MOL0     H22935  12.431   6.844   1.608  1.2149  1.1184 -0.0272
  911MOL0     H22936  12.699   6.893   1.524 -2.8848  1.1933  0.3915
  911MOL0     H22937  12.908   6.738   1.355  0.9698  0.8589  0.3898
  911MOL0     H22938  12.862   6.755   1.188 -0.5227 -1.0494 -0.3735
  911MOL0     H22939  12.892   7.003   1.207  0.3323 -0.6815 -0.0951
  911MOL0     H22940  12.886   6.995   1.383 -0.7158  2.1348 -1.0291
  911MOL0     H22941  13.087   6.881   1.395  0.6026  0.8499  1.0220
  911MOL0     H22942  13.110   7.038   1.308  0.7231 -0.6504 -0.2662
  911MOL0     H22943  13.109   6.907   1.086 -1.9629  1.9808  0.8504
  911MOL0     H22944  13.157   6.770   1.178 -1.2662  0.9200  0.6803
  911MOL0     H22945  13.361   6.688   1.228 -2.6258 -0.2852 -1.4356
  911MOL0     H22946  13.585   6.599   1.164  1.0236  0.4144  0.9841
  911MOL0     H22947  14.008   6.712   0.730  0.4523 -0.9416  0.4601
  911MOL0     H22948  14.245   6.709   0.751 -1.4442 -0.1807 -1.0261
  911MOL0     H22949  14.456   6.583   0.932 -0.4466  0.0510  0.0524
  911MOL0     H22950  14.455   6.674   0.792 -3.5002 -0.1778  1.3572
  911MOL0     H22951  14.646   6.716   1.028 -0.2912  0.8982  0.0340
  911MOL0     H22952  14.678   6.643   0.867 -2.7766 -1.4339 -2.0663
  911MOL0     H22953  14.632   6.935   0.931 -2.7594 -0.2183 -0.8439
  911MOL0     H22954  14.767   6.849   0.845 -0.0796 -1.2935  2.5831
  911MOL0     H22955  14.488   6.916   0.760 -1.0655  0.6734 -1.7048
  911MOL0     H22956  14.587   6.795   0.680  1.7177  0.1908 -0.2566
  911MOL0     H22957  14.588   7.002   0.566 -0.4926 -2.8754  0.4740
  911MOL0     H22958  14.757   6.952   0.611 -1.2000 -2.2960 -0.7954
  911MOL0     H22959  14.582   7.166   0.754  1.0554 -0.1404  1.7911
  911MOL0     H22960  14.751   7.121   0.795 -0.0321  1.5160  0.8903
  911MOL0     H22961  14.676   7.233   0.514  4.0537  0.0180 -4.3972
  911MOL0     H22962  14.832   7.187   0.573  0.0164 -0.1800  0.7162
  911MOL0     H22963  14.668   7.440   0.663  2.2520  4.5427 -1.9783
  911MOL0     H22964  14.801   7.383   0.755 -2.6838  3.2814  1.5221
  911MOL0     H22965  14.227   6.898   1.132 -1.0946 -1.0462  1.0806
  911MOL0     H22966  13.992   6.901   1.122  1.2466 -0.2414  1.2230
  911MOL0     H22967  13.676   6.973   0.966  0.2657  1.7938  3.1098
  911MOL0     H22968  13.461   7.058   1.021 -1.5075 -0.9486 -3.3107
  911MOL0     H22969  11.557   6.398   1.827 -0.0935  2.4780 -0.1199
  911MOL0     H22970  11.377   6.240   1.897  1.2069  1.0705 -2.3566
  911MOL0     H22971  11.106   6.076   2.083 -0.8132  1.6723  0.4633
  911MOL0     H22972  10.964   5.876   2.126 -1.2462 -1.1752 -1.4858
  911MOL0     H22973  10.693   5.904   2.322 -2.9378 -0.5453 -1.6289
  911MOL0     H22974  10.802   5.774   2.256  1.0029  1.4372  1.0463
  911MOL0     H22975  10.606   5.636   2.203 -0.5874 -1.5516  1.1455
  911MOL0     H22976  10.504   5.761   2.275 -0.5966 -2.4671 -4.6286
  911MOL0     H22977  10.594   5.732   2.495  1.8185 -1.0883  2.0837
  911MOL0     H22978  10.729   5.633   2.423 -1.7470 -3.8848 -5.2696
  911MOL0     H22979  10.453   5.517   2.383  1.2976  0.7101 -1.8869
  911MOL0     H22980  10.610   5.443   2.387 -0.1921  1.3252 -1.7706
  911MOL0     H22981  10.534   5.423   2.787 -0.3523  1.9047  0.4262
  911MOL0     H22982  10.626   6.070   1.992  0.0867 -1.9799  0.5187
  911MOL0     H22983  10.779   6.333   1.780 -1.6834  0.4503 -0.6149
  911MOL0     H22984  10.639   6.248   1.858 -0.1326 -2.1563 -0.2529
  911MOL0     H22985  10.714   6.383   1.935 -3.3101 -1.5400  1.5301
  912MOL0     O22986   1.328   4.932   5.848 -0.0384 -0.0414 -0.4376
  912MOL0     C22987   1.210   4.949   5.840  0.1525  0.1905  0.2712
  912MOL0     O22988   1.131   4.924   5.728 -0.0463  0.0240 -0.1771
  912MOL0     C22989   1.196   4.870   5.614  0.8336  0.8726  0.0737
  912MOL0     C22990   1.113   4.771   5.545  0.0388 -0.2300 -1.1155
  912MOL0     C22991   1.182   4.703   5.444 -0.5477  0.1862  1.4420
  912MOL0     C22992   1.314   4.733   5.401  0.9877  0.2058 -0.0734
  912MOL0     O22993   1.383   4.686   5.287 -0.8801 -0.3027 -0.4838
  912MOL0     C22994   1.370   4.549   5.252 -0.0528 -1.3826 -0.1977
  912MOL0     C22995   1.427   4.470   5.365 -0.4435  0.7865 -0.5364
  912MOL0     C22996   1.438   4.319   5.352 -0.1991  0.3656  0.8529
  912MOL0     C22997   1.542   4.273   5.248  0.3868  0.8392 -0.0357
  912MOL0     C22998   1.502   4.136   5.184 -0.2224 -0.0839  0.4516
  912MOL0     C22999   1.368   4.139   5.099 -0.3823 -0.5668  0.5629
  912MOL0     C23000   1.320   3.995   5.077 -1.2810 -0.9655  0.6503
  912MOL0     C23001   1.360   3.925   4.941  0.4611  0.3056 -0.0487
  912MOL0     N23002   1.290   3.988   4.818  0.7338  0.1053 -0.1937
  912MOL0     C23003   1.178   3.938   4.752 -0.0259 -0.2150 -0.0727
  912MOL0     C23004   1.174   4.020   4.640 -0.2536 -0.3829  0.2386
  912MOL0     C23005   1.066   4.012   4.529  0.7676 -0.2973  1.4000
  912MOL0     C23006   1.100   3.906   4.429 -0.0383 -0.0468  0.7280
  912MOL0     C23007   1.230   3.945   4.365 -0.3734 -0.3170  1.1752
  912MOL0     C23008   1.274   3.857   4.251  0.9123  0.4539 -0.1798
  912MOL0     O23009   1.186   3.850   4.139  0.4337 -0.6441 -0.6850
  912MOL0     C23010   1.172   3.946   4.045 -0.0465 -0.4263 -0.5199
  912MOL0     C23011   1.065   3.933   3.956 -0.0828  0.1491  0.3391
  912MOL0     C23012   1.045   4.020   3.847  0.5053 -0.4018 -0.4537
  912MOL0     C23013   1.129   4.134   3.839  0.1338  0.8387  0.5032
  912MOL0     C23014   1.096   4.232   3.736  0.1129  1.1215 -0.1459
  912MOL0     O23015   0.996   4.199   3.643 -0.2061  0.6642 -0.1520
  912MOL0     C23016   0.965   4.304   3.556 -0.2262  0.1199 -0.4405
  912MOL0     C23017   1.036   4.315   3.433  0.4620 -0.2017  1.0423
  912MOL0     C23018   1.039   4.435   3.365 -0.3159 -0.1281  0.4431
  912MOL0     C23019   0.964   4.545   3.415 -0.5194 -0.1645  1.2799
  912MOL0     O23020   0.929   4.665   3.347  0.5196  0.8476  0.2736
  912MOL0     C23021   0.937   4.663   3.203  0.4197 -0.2065 -0.3475
  912MOL0     C23022   0.907   4.797   3.146  1.1078 -0.0285  0.8629
  912MOL0     C23023   0.933   4.793   2.991 -0.2631  0.0183 -0.0347
  912MOL0     C23024   1.082   4.794   2.936 -0.4026 -0.3386  0.4386
  912MOL0     C23025   1.085   4.716   2.794  0.3291 -0.3465 -0.2134
  912MOL0     C23026   1.217   4.717   2.717  0.5522  0.1777 -0.1115
  912MOL0     C23027   1.320   4.630   2.792  0.5061  0.5002  0.3142
  912MOL0     C23028   1.438   4.580   2.714  0.6024 -0.5733 -0.4346
  912MOL0    Cl23029   1.501   4.693   2.607  0.2353 -0.4860 -0.1845
  912MOL0     C23030   0.893   4.539   3.538 -0.2373  0.6636  1.2467
  912MOL0     C23031   0.896   4.418   3.605 -0.4869  0.5415  0.1410
  912MOL0     O23032   1.169   4.329   3.728 -0.6380 -0.1419 -0.3719
  912MOL0     C23033   1.229   4.147   3.927  0.0585 -0.7385 -0.0439
  912MOL0     C23034   1.254   4.056   4.031 -0.3201 -0.4100  0.0320
  912MOL0     N23035   1.269   4.118   4.653 -0.3044 -0.4038 -0.0978
  912MOL0     N23036   1.329   4.101   4.764  0.1236 -0.1166  0.3109
  912MOL0     C23037   1.376   4.832   5.465  0.2022 -0.4302 -0.8624
  912MOL0     C23038   1.320   4.907   5.569  0.2685  0.6815 -0.4118
  912MOL0     C23039   1.133   4.978   5.954  0.4166 -0.0724  0.6306
  912MOL0     C23040   1.015   4.905   5.981 -0.1904  0.1554  0.5333
  912MOL0     C23041   0.931   4.926   6.086 -0.0009  0.0459 -0.7573
  912MOL0     C23042   0.967   5.018   6.175  0.1807  0.0413  0.5602
  912MOL0     O23043   0.881   5.034   6.278  0.6627  0.2056  0.1197
  912MOL0     C23044   0.888   4.945   6.389 -0.4068  0.5335 -0.2618
  912MOL0     C23045   0.865   5.024   6.512 -0.6401  0.8929  0.3996
  912MOL0     C23046   0.919   4.946   6.626 -0.2484 -0.0200 -0.8629
  912MOL0     C23047   0.895   5.022   6.765 -0.2703  0.1164  1.1865
  912MOL0     C23048   0.989   4.969   6.861 -0.4438  0.3178 -0.0948
  912MOL0     C23049   1.054   4.920   6.952  0.7932  0.2751  0.8039
  912MOL0     C23050   1.083   5.098   6.162 -1.1005  0.0599 -0.0044
  912MOL0     C23051   1.163   5.075   6.044 -0.1753  0.5886 -0.2000
  912MOL0     C23052   1.281   5.166   6.034 -0.5705 -0.2792 -0.1394
  912MOL0     H23053   1.010   4.749   5.572 -0.0129  1.8945  0.7823
  912MOL0     H23054   1.118   4.631   5.392 -1.6478  3.2053 -1.7646
  912MOL0     H23055   1.264   4.530   5.233 -0.7016  1.1296  0.5412
  912MOL0     H23056   1.423   4.533   5.157  2.9623 -1.1033  1.3288
  912MOL0     H23057   1.366   4.480   5.455  1.4013 -1.2056  1.0299
  912MOL0     H23058   1.524   4.515   5.391  1.1356 -2.6198  0.0076
  912MOL0     H23059   1.334   4.289   5.333  0.3427 -0.9481 -0.2178
  912MOL0     H23060   1.463   4.279   5.451  1.2793 -2.1724 -0.4400
  912MOL0     H23061   1.526   4.344   5.166 -2.8115  1.6389  1.1264
  912MOL0     H23062   1.645   4.274   5.284 -0.1517  2.0642  1.6515
  912MOL0     H23063   1.590   4.093   5.135  0.7528  2.2800 -0.0290
  912MOL0     H23064   1.494   4.080   5.277  1.3127  2.1648  2.0356
  912MOL0     H23065   1.290   4.185   5.161 -2.2973 -1.5219 -0.9992
  912MOL0     H23066   1.376   4.196   5.006  0.8991  0.4555  1.2600
  912MOL0     H23067   1.211   3.993   5.076 -1.4227  1.8959  1.4382
  912MOL0     H23068   1.350   3.938   5.165 -0.9380  0.7925  1.7242
  912MOL0     H23069   1.469   3.922   4.940  0.4518 -1.0249 -1.1400
  912MOL0     H23070   1.330   3.819   4.939  0.4569  0.3115 -0.7718
  912MOL0     H23071   1.119   3.854   4.785 -0.8251  1.1908  2.2906
  912MOL0     H23072   0.971   3.976   4.567  0.6228 -2.3122 -0.6736
  912MOL0     H23073   1.047   4.113   4.489  0.8590  0.1679  2.4924
  912MOL0     H23074   1.104   3.804   4.467 -2.5754 -0.1157  0.9942
  912MOL0     H23075   1.018   3.891   4.358 -1.1506  0.6014  1.8317
  912MOL0     H23076   1.311   3.938   4.438  2.3146  0.0694 -1.6016
  912MOL0     H23077   1.229   4.045   4.322 -2.3026 -0.9360 -0.3487
  912MOL0     H23078   1.292   3.753   4.280 -2.7667 -0.7530 -1.6092
  912MOL0     H23079   1.372   3.892   4.216  0.2499  0.1717 -2.5018
  912MOL0     H23080   1.002   3.845   3.953 -0.6305  0.4432  2.2267
  912MOL0     H23081   0.966   4.001   3.776  0.5524 -0.7306 -0.4182
  912MOL0     H23082   1.097   4.242   3.381 -1.5344 -0.4054 -1.1823
  912MOL0     H23083   1.090   4.439   3.269 -2.4576  5.9132 -0.9047
  912MOL0     H23084   1.043   4.641   3.189  0.6782  0.1735  0.8839
  912MOL0     H23085   0.864   4.590   3.167 -0.0434 -0.0409  0.2346
  912MOL0     H23086   0.802   4.819   3.169  0.5624 -3.8421  2.8540
  912MOL0     H23087   0.979   4.863   3.195  2.3914 -0.6630 -0.1091
  912MOL0     H23088   0.888   4.697   2.962 -2.2785  0.8459  0.2130
  912MOL0     H23089   0.869   4.865   2.940 -2.1455 -0.9360  0.8517
  912MOL0     H23090   1.148   4.742   3.007 -1.2347  1.2985  2.5102
  912MOL0     H23091   1.125   4.894   2.927  1.1126 -1.0715 -0.8075
  912MOL0     H23092   1.018   4.776   2.733  4.4481  3.1528 -1.8420
  912MOL0     H23093   1.047   4.615   2.814 -0.5885 -0.2087 -1.1723
  912MOL0     H23094   1.209   4.680   2.614 -1.6068 -1.7161  0.6731
  912MOL0     H23095   1.267   4.814   2.722  0.5936  0.1456  0.1233
  912MOL0     H23096   1.266   4.536   2.807 -3.4252  2.5423  0.3093
  912MOL0     H23097   1.352   4.675   2.885  6.9147  1.2976 -1.7808
  912MOL0     H23098   1.514   4.551   2.787 -1.2427 -0.0152  1.8110
  912MOL0     H23099   1.404   4.490   2.661 -1.4187 -2.3148  3.3988
  912MOL0     H23100   0.833   4.619   3.578 -3.1479 -0.1780 -1.0844
  912MOL0     H23101   0.858   4.411   3.707  3.9003  1.1914  2.0763
  912MOL0     H23102   1.296   4.233   3.935 -1.2410  0.2297  0.8979
  912MOL0     H23103   1.333   4.084   4.100  0.9035  1.3987 -1.9575
  912MOL0     H23104   1.472   4.862   5.425 -0.0938 -0.1760 -1.3997
  912MOL0     H23105   1.378   4.990   5.610 -2.1999  1.4820  1.7644
  912MOL0     H23106   0.987   4.827   5.909  0.1838  0.9174 -0.4623
  912MOL0     H23107   0.844   4.866   6.111 -0.6500  1.6817  1.1547
  912MOL0     H23108   0.989   4.902   6.390  0.0593  1.5964  1.2599
  912MOL0     H23109   0.821   4.860   6.401 -0.6798  1.0821  2.6797
  912MOL0     H23110   0.756   5.037   6.516 -0.7674  0.4905 -1.1999
  912MOL0     H23111   0.899   5.127   6.502 -0.3519  0.7689  0.0727
  912MOL0     H23112   1.027   4.939   6.613 -0.1676  0.5198 -0.5275
  912MOL0     H23113   0.882   4.843   6.631  2.3905 -1.1266 -2.1944
  912MOL0     H23114   0.921   5.126   6.745 -5.9888  1.4361 -1.3491
  912MOL0     H23115   0.792   5.016   6.801 -0.2032  2.6376  1.9811
  912MOL0     H23116   1.116   4.882   7.031  1.0876 -0.2884  0.3116
  912MOL0     H23117   1.119   5.163   6.241 -1.4032 -0.5847  0.6666
  912MOL0     H23118   1.293   5.237   6.116  2.3376  1.7584 -2.1326
  912MOL0     H23119   1.378   5.125   6.005 -0.8931 -0.0708 -1.5525
  912MOL0     H23120   1.273   5.228   5.945 -0.1279  0.5078  0.3509
  913MOL0     O23121   6.253   5.207   0.171 -0.9100  1.1438 -0.2177
  913MOL0     C23122   6.183   5.309   0.173 -0.6745  0.5766 -0.6266
  913MOL0     O23123   6.081   5.335   0.258  0.8579  0.3935 -0.4423
  913MOL0     C23124   6.050   5.233   0.349 -0.7238 -0.2766  0.4027
  913MOL0     C23125   5.975   5.123   0.315  0.0803  0.8779  0.5204
  913MOL0     C23126   5.963   5.016   0.393 -0.5244  0.4417 -0.1837
  913MOL0     C23127   6.016   5.017   0.527  0.1489 -0.3061  0.1179
  913MOL0     O23128   6.004   4.903   0.596  0.9680  0.0255  0.1858
  913MOL0     C23129   6.034   4.904   0.733  0.4163 -0.1927  0.1488
  913MOL0     C23130   5.999   4.768   0.793  0.2408  0.3473  0.7961
  913MOL0     C23131   5.999   4.750   0.955 -0.3840 -0.2328 -0.1835
  913MOL0     C23132   6.131   4.672   1.008  0.1905 -1.2104  0.4023
  913MOL0     C23133   6.144   4.525   0.959  0.0124 -0.3832  0.1158
  913MOL0     C23134   6.028   4.443   1.023 -0.1629  0.0415  0.2215
  913MOL0     C23135   6.067   4.300   1.017 -0.5129 -0.1193 -0.4290
  913MOL0     C23136   5.958   4.205   1.085 -0.2501  0.4236  0.2422
  913MOL0     N23137   6.010   4.067   1.086 -0.7826  0.4779 -0.3060
  913MOL0     C23138   6.112   4.018   1.162 -0.6023 -0.1101 -0.9313
  913MOL0     C23139   6.123   3.896   1.131 -0.5062  1.2962  0.3945
  913MOL0     C23140   6.219   3.797   1.190  1.0314  0.1760 -1.0779
  913MOL0     C23141   6.371   3.841   1.169  0.1427  0.3662  0.2458
  913MOL0     C23142   6.410   3.874   1.016  0.6539  0.0808  0.1040
  913MOL0     C23143   6.377   3.758   0.916  0.1548  0.0698  1.4376
  913MOL0     O23144   6.399   3.797   0.779 -0.1399 -0.2417  0.2336
  913MOL0     C23145   6.329   3.885   0.707 -0.5285 -1.8971  0.5776
  913MOL0     C23146   6.220   3.948   0.760 -0.3720 -0.0566  0.5053
  913MOL0     C23147   6.131   4.031   0.691 -0.2718 -0.2108 -0.0854
  913MOL0     C23148   6.162   4.071   0.557 -0.5926 -0.3745 -0.0517
  913MOL0     C23149   6.080   4.166   0.485  0.6586  0.2484 -0.9553
  913MOL0     O23150   5.961   4.201   0.533 -0.0678 -0.2864 -0.5276
  913MOL0     C23151   5.897   4.322   0.515  0.6443 -0.0082 -0.6061
  913MOL0     C23152   5.959   4.448   0.515 -0.4348 -1.1601 -0.1689
  913MOL0     C23153   5.872   4.557   0.497 -0.0820  0.8552 -0.7718
  913MOL0     C23154   5.722   4.557   0.486  0.5126 -0.4604  0.2189
  913MOL0     O23155   5.626   4.657   0.496  0.5203  0.3841  0.0874
  913MOL0     C23156   5.677   4.784   0.521  0.1762  0.5529  0.7277
  913MOL0     C23157   5.584   4.880   0.444  0.5790 -0.4147 -0.8540
  913MOL0     C23158   5.599   4.869   0.290 -0.3838 -0.9402 -0.2760
  913MOL0     C23159   5.525   4.989   0.222  0.0745  0.0074 -0.4100
  913MOL0     C23160   5.548   4.980   0.066 -0.0839  1.4172  0.5232
  913MOL0     C23161   5.462   5.074  -0.012 -0.4600  0.0511 -0.0738
  913MOL0     C23162   5.467   5.034  -0.164 -0.9331  0.0270  0.3213
  913MOL0     C23163   5.409   5.133  -0.260 -0.0215 -0.2988  0.2763
  913MOL0    Cl23164   5.251   5.212  -0.215 -0.4165  0.0503  0.0907
  913MOL0     C23165   5.672   4.427   0.489 -0.3097  0.9884  0.3839
  913MOL0     C23166   5.752   4.316   0.500  0.1462 -0.0527  0.1060
  913MOL0     O23167   6.118   4.191   0.370  0.6767  0.4345  0.3839
  913MOL0     C23168   6.285   4.019   0.506 -0.6768  0.2171 -0.8744
  913MOL0     C23169   6.371   3.934   0.584  0.3473 -0.5541 -0.2402
  913MOL0     N23170   6.025   3.855   1.039 -0.0940 -0.2123  0.2187
  913MOL0     N23171   5.951   3.960   1.026 -0.0126  0.0852  0.4149
  913MOL0     C23172   6.077   5.137   0.573  0.5371 -0.3533  0.7135
  913MOL0     C23173   6.105   5.234   0.482  1.0510  0.4348  0.2168
  913MOL0     C23174   6.229   5.430   0.095 -0.3028  0.3346 -0.5379
  913MOL0     C23175   6.248   5.557   0.159 -0.5991  0.6568 -0.0891
  913MOL0     C23176   6.299   5.664   0.075 -1.0346 -0.2765 -1.3452
  913MOL0     C23177   6.338   5.649  -0.059  0.0695 -0.8516  0.1569
  913MOL0     O23178   6.368   5.757  -0.138  0.5255  0.5916 -0.2085
  913MOL0     C23179   6.484   5.837  -0.095 -0.3461 -1.3379  0.3201
  913MOL0     C23180   6.608   5.756  -0.124 -0.0531  0.5438 -0.2544
  913MOL0     C23181   6.677   5.818  -0.253 -0.0694  0.4331 -0.7312
  913MOL0     C23182   6.809   5.745  -0.273  1.3027 -0.4773 -0.4241
  913MOL0     C23183   6.881   5.815  -0.379 -0.2500 -0.1530  1.0579
  913MOL0     C23184   6.959   5.871  -0.449  0.1151 -0.3772  0.1218
  913MOL0     C23185   6.313   5.526  -0.119 -0.2165 -0.0281  0.5145
  913MOL0     C23186   6.258   5.414  -0.049 -0.2059  0.1886 -0.8240
  913MOL0     C23187   6.256   5.279  -0.126 -0.5207  0.8249  1.1069
  913MOL0     H23188   5.927   5.116   0.218  1.5550 -1.5633 -0.1274
  913MOL0     H23189   5.917   4.924   0.360 -0.0010 -0.1827  0.7949
  913MOL0     H23190   6.143   4.913   0.740  0.4199 -0.4565  0.4311
  913MOL0     H23191   5.984   4.986   0.785 -2.2095  0.3073 -2.8629
  913MOL0     H23192   6.072   4.701   0.747  0.7506  1.5441 -0.1699
  913MOL0     H23193   5.901   4.741   0.753 -0.0984  1.5287  0.7907
  913MOL0     H23194   5.910   4.700   0.994 -1.5668  2.1787  0.3950
  913MOL0     H23195   5.988   4.852   0.992  1.1920 -0.0176 -0.2224
  913MOL0     H23196   6.222   4.726   0.981 -1.4048  0.2251 -2.5341
  913MOL0     H23197   6.123   4.680   1.116  1.2513 -0.8059  0.4637
  913MOL0     H23198   6.137   4.521   0.850 -2.0866  2.1190  0.0418
  913MOL0     H23199   6.243   4.492   0.991 -0.6225  0.5644  3.5198
  913MOL0     H23200   6.010   4.461   1.129  0.7880 -1.1685  0.6050
  913MOL0     H23201   5.936   4.455   0.963  1.0322  0.0429 -1.6930
  913MOL0     H23202   6.165   4.281   1.062 -0.9361 -0.2089  0.4663
  913MOL0     H23203   6.077   4.270   0.912 -0.4605  2.6533 -1.3065
  913MOL0     H23204   5.941   4.239   1.187  1.3475  2.9703 -0.2396
  913MOL0     H23205   5.859   4.213   1.039  0.1520  3.4967 -0.3327
  913MOL0     H23206   6.169   4.078   1.232 -0.1877 -1.7855  0.2091
  913MOL0     H23207   6.201   3.795   1.298 -1.1576  0.6897 -1.3825
  913MOL0     H23208   6.194   3.696   1.157 -2.0841 -0.2564  1.9497
  913MOL0     H23209   6.399   3.930   1.227  2.1883 -0.4919  0.6814
  913MOL0     H23210   6.435   3.760   1.204 -0.3817 -0.6880 -1.1578
  913MOL0     H23211   6.518   3.892   1.015  0.2934  2.5232 -0.2389
  913MOL0     H23212   6.358   3.967   0.989  0.8147 -0.2914 -1.5906
  913MOL0     H23213   6.273   3.728   0.928 -0.1332 -0.6294 -1.8440
  913MOL0     H23214   6.429   3.668   0.949  0.3051  0.1060  1.3024
  913MOL0     H23215   6.185   3.924   0.861 -0.4475  1.6328  0.9001
  913MOL0     H23216   6.051   4.073   0.752  2.9359  3.5289  1.9639
  913MOL0     H23217   6.066   4.465   0.527 -0.8637  0.1848  2.1259
  913MOL0     H23218   5.924   4.652   0.486  2.4928 -0.7016 -3.0553
  913MOL0     H23219   5.670   4.811   0.627 -2.4962  0.7967  0.5556
  913MOL0     H23220   5.773   4.799   0.471 -0.5853  1.6058 -0.4539
  913MOL0     H23221   5.481   4.859   0.476  1.7492 -0.8721  3.1639
  913MOL0     H23222   5.600   4.981   0.484 -1.2494 -0.2696 -0.3764
  913MOL0     H23223   5.705   4.863   0.262 -0.5604  0.7694 -1.5164
  913MOL0     H23224   5.558   4.785   0.234  1.8823 -0.2209 -3.2894
  913MOL0     H23225   5.570   5.083   0.257 -0.6583 -0.3581  1.6623
  913MOL0     H23226   5.419   4.998   0.246 -0.7442 -2.6761 -2.6205
  913MOL0     H23227   5.537   4.877   0.031  2.6437  1.3548 -0.3324
  913MOL0     H23228   5.652   4.994   0.037 -0.2041  0.9004 -0.2003
  913MOL0     H23229   5.359   5.062   0.024 -0.1316 -2.4308  0.1903
  913MOL0     H23230   5.493   5.178   0.006 -0.8229  0.4144 -1.4441
  913MOL0     H23231   5.409   4.944  -0.188 -1.0699  0.4054 -0.8307
  913MOL0     H23232   5.566   5.013  -0.204 -0.9655  1.9660 -0.9380
  913MOL0     H23233   5.487   5.210  -0.265 -0.0209 -0.0291  3.0305
  913MOL0     H23234   5.394   5.084  -0.357  2.5416 -2.4719  0.8707
  913MOL0     H23235   5.566   4.405   0.480  0.1467 -2.0274  1.2239
  913MOL0     H23236   5.697   4.224   0.484 -1.9131  1.2694 -1.0511
  913MOL0     H23237   6.309   4.026   0.401 -1.4693 -3.3264 -1.4223
  913MOL0     H23238   6.453   3.884   0.535  1.3726  0.4570  0.3891
  913MOL0     H23239   6.136   5.145   0.664  1.6832  0.9388 -0.0924
  913MOL0     H23240   6.168   5.320   0.502  2.2253 -0.6347  1.2272
  913MOL0     H23241   6.254   5.559   0.268 -2.0821 -2.1093  0.1354
  913MOL0     H23242   6.317   5.759   0.124  0.2425  0.0495 -2.3928
  913MOL0     H23243   6.482   5.878   0.006  3.0903 -0.0378 -0.0260
  913MOL0     H23244   6.476   5.921  -0.166  2.3702 -1.7738 -0.5972
  913MOL0     H23245   6.593   5.649  -0.139 -1.8689  0.7174  0.0069
  913MOL0     H23246   6.676   5.770  -0.039 -1.5179 -0.2642  1.1166
  913MOL0     H23247   6.695   5.924  -0.230  3.1121  0.0060 -0.7985
  913MOL0     H23248   6.618   5.801  -0.342  1.3304 -1.8579 -1.3104
  913MOL0     H23249   6.872   5.749  -0.184 -1.1905  1.5298  1.3814
  913MOL0     H23250   6.797   5.642  -0.309  2.3205  0.7848 -4.9593
  913MOL0     H23251   7.039   5.904  -0.512 -0.2143 -1.5267 -0.9478
  913MOL0     H23252   6.333   5.523  -0.226  1.4683 -1.0816  0.8262
  913MOL0     H23253   6.344   5.256  -0.187 -2.3981 -1.9517 -0.7683
  913MOL0     H23254   6.225   5.191  -0.068  1.2367  0.1551  1.0794
  913MOL0     H23255   6.185   5.299  -0.207  2.3110  1.5824 -1.3718
  914MOL0     O23256   9.079   0.436   1.475  0.2704 -0.4021  0.3347
  914MOL0     C23257   9.080   0.318   1.441 -0.2284  0.0836 -0.4076
  914MOL0     O23258   9.192   0.245   1.428 -0.1252  0.5636  0.2468
  914MOL0     C23259   9.313   0.296   1.486  0.1710  0.1871 -0.1739
  914MOL0     C23260   9.324   0.301   1.623 -0.6129 -0.6997 -1.2654
  914MOL0     C23261   9.451   0.320   1.684 -0.6513 -0.4856  0.1435
  914MOL0     C23262   9.555   0.351   1.599 -0.5449 -1.3974 -0.4560
  914MOL0     O23263   9.669   0.361   1.668 -0.3449 -0.2652 -0.1564
  914MOL0     C23264   9.785   0.411   1.597  0.1458 -0.9543  0.0050
  914MOL0     C23265   9.864   0.502   1.682 -0.0581 -1.5661 -0.5089
  914MOL0     C23266   9.884   0.464   1.835  0.0916 -0.9113 -0.3540
  914MOL0     C23267   9.992   0.547   1.899  0.1838 -0.0674 -0.1215
  914MOL0     C23268  10.127   0.536   1.841  0.1458  0.7377  0.1586
  914MOL0     C23269  10.183   0.392   1.830  0.0611  0.7133  0.3572
  914MOL0     C23270  10.329   0.374   1.841  0.6220  0.3649  0.4611
  914MOL0     C23271  10.348   0.220   1.849 -0.8882 -0.9129 -0.0716
  914MOL0     N23272  10.496   0.190   1.854  0.6158  0.0860  0.6680
  914MOL0     C23273  10.556   0.069   1.860  0.1983 -0.9019  0.2328
  914MOL0     C23274  10.691   0.097   1.857 -0.1440  0.2695  0.0134
  914MOL0     C23275  10.787  -0.025   1.856  0.5114  0.0362  0.0356
  914MOL0     C23276  10.897   0.000   1.957  0.0548  0.2336  0.3790
  914MOL0     C23277  11.036   0.037   1.908 -0.7268  0.6351  0.5618
  914MOL0     C23278  11.046   0.182   1.841  0.6022  0.1418  0.3927
  914MOL0     O23279  11.056   0.280   1.956 -0.0126 -0.0939  0.6983
  914MOL0     C23280  11.102   0.405   1.929 -0.0480  0.1375 -0.8662
  914MOL0     C23281  11.131   0.483   2.045 -0.3548 -0.6237 -0.4222
  914MOL0     C23282  11.193   0.602   2.033 -0.4047  0.2302 -0.7030
  914MOL0     C23283  11.235   0.650   1.906 -0.0426 -0.6417  0.3222
  914MOL0     C23284  11.313   0.778   1.900  0.6602  1.0588  0.3636
  914MOL0     O23285  11.317   0.848   2.011  0.5009 -0.4132  0.4627
  914MOL0     C23286  11.410   0.945   2.014 -0.0566 -0.0756 -0.5436
  914MOL0     C23287  11.361   1.067   2.006  0.2718 -0.1269 -0.3961
  914MOL0     C23288  11.447   1.179   2.011  0.0516 -0.5461  0.6525
  914MOL0     C23289  11.592   1.165   2.025 -0.2877  0.3797 -0.3079
  914MOL0     O23290  11.676   1.276   2.006 -0.2367 -0.6729 -0.0969
  914MOL0     C23291  11.808   1.258   2.047  0.3755  0.2398 -0.2538
  914MOL0     C23292  11.896   1.385   2.029  0.2045  0.1070 -0.6465
  914MOL0     C23293  12.035   1.349   2.069 -0.0063  0.3526  0.5333
  914MOL0     C23294  12.067   1.383   2.212  0.1389 -0.1271 -0.0936
  914MOL0     C23295  12.216   1.355   2.245 -1.2688  0.2936  0.5811
  914MOL0     C23296  12.238   1.203   2.274  0.1280 -0.4729 -0.2790
  914MOL0     C23297  12.160   1.148   2.397 -0.2743 -0.2627  0.1137
  914MOL0     C23298  12.212   1.013   2.450  0.2042 -0.2461 -1.0197
  914MOL0    Cl23299  12.393   1.029   2.504  0.4882  0.0636 -0.1373
  914MOL0     C23300  11.636   1.029   2.040 -0.4827  0.8186  0.3638
  914MOL0     C23301  11.547   0.925   2.034 -0.1015  0.6184  1.0418
  914MOL0     O23302  11.372   0.790   1.793 -0.6326 -0.4453 -0.1173
  914MOL0     C23303  11.209   0.576   1.790 -0.1332  0.6222  0.1755
  914MOL0     C23304  11.152   0.454   1.804 -0.2862  0.3892 -0.3585
  914MOL0     N23305  10.711   0.235   1.850 -0.4774  0.6459  0.3190
  914MOL0     N23306  10.594   0.284   1.836  0.1292 -0.1259  0.3847
  914MOL0     C23307   9.536   0.356   1.459  0.3435 -0.1397 -0.6694
  914MOL0     C23308   9.422   0.310   1.398  0.6900  0.1614 -1.3405
  914MOL0     C23309   8.960   0.259   1.381 -0.9296 -0.2858  0.3023
  914MOL0     C23310   8.967   0.163   1.279 -0.6862  0.3090 -0.7177
  914MOL0     C23311   8.855   0.119   1.207  0.0568 -0.8334 -0.4848
  914MOL0     C23312   8.730   0.154   1.246 -0.0092 -0.1664 -0.5830
  914MOL0     O23313   8.620   0.099   1.180  0.5874 -0.5939 -0.7625
  914MOL0     C23314   8.502   0.177   1.190  0.2946 -0.1391 -0.9121
  914MOL0     C23315   8.412   0.116   1.089  0.0747 -0.0151  0.7541
  914MOL0     C23316   8.285   0.200   1.076  0.0327  0.3046  0.7460
  914MOL0     C23317   8.185   0.137   0.979 -1.2596 -0.6903 -0.3584
  914MOL0     C23318   8.138   0.001   1.017  0.0913 -1.0952  0.1359
  914MOL0     C23319   8.107  -0.110   1.061 -0.2616 -0.3022 -0.1653
  914MOL0     C23320   8.716   0.235   1.367 -0.2232 -0.0798  0.1464
  914MOL0     C23321   8.826   0.292   1.429 -0.2136 -0.2144  0.1536
  914MOL0     C23322   8.798   0.400   1.536  0.8717 -1.0627  0.0413
  914MOL0     H23323   9.235   0.288   1.683 -0.4729  4.2835  0.5185
  914MOL0     H23324   9.452   0.292   1.789 -2.7946  1.0357  0.6204
  914MOL0     H23325   9.855   0.333   1.568 -0.6743 -1.1292 -1.6107
  914MOL0     H23326   9.761   0.474   1.511 -0.4460 -1.4654 -0.2138
  914MOL0     H23327   9.827   0.605   1.676  0.6313 -1.0727  2.3823
  914MOL0     H23328   9.962   0.516   1.635 -0.4590 -0.6691 -1.1161
  914MOL0     H23329   9.920   0.361   1.838  2.3247 -0.1860 -0.3994
  914MOL0     H23330   9.790   0.486   1.885  0.6617  4.5900 -1.0292
  914MOL0     H23331   9.962   0.652   1.891 -0.3277 -0.2377 -0.4685
  914MOL0     H23332  10.001   0.512   2.002 -0.2265 -1.8631 -0.6626
  914MOL0     H23333  10.132   0.594   1.748  2.3487  0.1761 -0.1220
  914MOL0     H23334  10.192   0.588   1.912  1.1372 -1.5506  1.0320
  914MOL0     H23335  10.151   0.337   1.919 -1.2941  1.1619  0.1732
  914MOL0     H23336  10.144   0.348   1.737  1.8432  0.1870 -0.1716
  914MOL0     H23337  10.362   0.427   1.930  0.7862  1.7898 -0.4280
  914MOL0     H23338  10.386   0.411   1.755  0.5785  0.0201  0.2807
  914MOL0     H23339  10.296   0.189   1.940 -0.3651  0.0036  0.5605
  914MOL0     H23340  10.303   0.171   1.762  0.4826 -1.6903 -0.3663
  914MOL0     H23341  10.519  -0.033   1.856  2.9870 -2.2815  3.8606
  914MOL0     H23342  10.723  -0.110   1.883  0.7198 -0.2048 -0.2359
  914MOL0     H23343  10.830  -0.049   1.759  3.6919  0.8532  1.1393
  914MOL0     H23344  10.853   0.071   2.028 -0.6459  0.8068 -0.5904
  914MOL0     H23345  10.914  -0.097   2.004  2.2902  1.7764  3.0048
  914MOL0     H23346  11.068  -0.041   1.838 -3.2986 -0.6383  0.7194
  914MOL0     H23347  11.101   0.038   1.996 -0.3148 -3.4295  0.4882
  914MOL0     H23348  10.961   0.206   1.778 -0.8202 -1.9500  1.3927
  914MOL0     H23349  11.136   0.177   1.779 -1.3447 -3.1289 -2.5373
  914MOL0     H23350  11.080   0.467   2.139  0.9834  2.3556  0.9433
  914MOL0     H23351  11.182   0.663   2.123 -2.6349  1.1560 -1.5453
  914MOL0     H23352  11.253   1.077   2.003  0.2385 -0.7327 -2.3922
  914MOL0     H23353  11.403   1.278   2.007 -0.8122 -0.9484 -0.2519
  914MOL0     H23354  11.810   1.227   2.152 -0.6674  3.6271  0.9323
  914MOL0     H23355  11.855   1.186   1.981  0.4964  2.9758 -3.3970
  914MOL0     H23356  11.879   1.409   1.923 -2.1836 -2.1401 -0.8792
  914MOL0     H23357  11.853   1.466   2.088 -5.4219 -0.0321 -3.8272
  914MOL0     H23358  12.060   1.243   2.061 -0.2899  0.2019  1.5510
  914MOL0     H23359  12.105   1.391   1.996 -0.5024 -0.1551 -0.2469
  914MOL0     H23360  11.999   1.331   2.280 -1.0471 -1.3878 -2.1278
  914MOL0     H23361  12.049   1.490   2.225 -1.4247 -0.6237  2.3430
  914MOL0     H23362  12.240   1.419   2.331  2.5023  0.6513 -0.5423
  914MOL0     H23363  12.285   1.388   2.167 -2.3415 -1.6719 -1.2801
  914MOL0     H23364  12.196   1.145   2.191 -1.2239 -0.3123  0.2651
  914MOL0     H23365  12.345   1.186   2.285  0.2840  0.1348 -0.8113
  914MOL0     H23366  12.052   1.145   2.379 -0.0728  1.3187 -1.6167
  914MOL0     H23367  12.166   1.218   2.482 -0.8060 -2.3739  1.9995
  914MOL0     H23368  12.148   0.984   2.534 -1.6260  2.9341 -1.1356
  914MOL0     H23369  12.224   0.927   2.384 -0.4112 -2.5194  1.6390
  914MOL0     H23370  11.740   1.006   2.058 -1.5849 -3.8970  2.0957
  914MOL0     H23371  11.582   0.823   2.023  1.6887  1.2812  0.4063
  914MOL0     H23372  11.243   0.608   1.693  1.4113 -0.7764  0.2099
  914MOL0     H23373  11.149   0.407   1.706  2.4397  1.3771 -0.9831
  914MOL0     H23374   9.614   0.372   1.386  0.7425 -0.7653 -0.3894
  914MOL0     H23375   9.411   0.309   1.290 -0.4289  0.4960 -1.2444
  914MOL0     H23376   9.067   0.135   1.248 -0.9735  0.5861 -1.9781
  914MOL0     H23377   8.856   0.037   1.136  0.1671  0.8778 -2.5590
  914MOL0     H23378   8.517   0.282   1.164 -0.1278  0.4321  1.0220
  914MOL0     H23379   8.450   0.181   1.286 -1.0018  0.6809 -1.6148
  914MOL0     H23380   8.381   0.013   1.110  0.8893 -0.1511  1.2934
  914MOL0     H23381   8.451   0.120   0.986  0.8973 -4.3625  0.7106
  914MOL0     H23382   8.308   0.298   1.033  0.4349 -0.2708 -0.3801
  914MOL0     H23383   8.220   0.208   1.164 -2.4001  1.1630 -1.0081
  914MOL0     H23384   8.099   0.204   0.975  0.4156  1.4805 -2.5934
  914MOL0     H23385   8.217   0.124   0.875 -0.5590  0.3878 -0.2929
  914MOL0     H23386   8.063  -0.199   1.100  2.4599 -2.1294 -0.9842
  914MOL0     H23387   8.617   0.253   1.406  0.1872 -0.3318  1.3364
  914MOL0     H23388   8.851   0.390   1.632 -1.6118  1.8767  1.9126
  914MOL0     H23389   8.820   0.502   1.503 -2.9907  1.2204  3.5284
  914MOL0     H23390   8.692   0.403   1.564  1.1946 -2.3413  1.5514
  915MOL0     O23391   5.201   6.559   2.066  0.1526  0.1103 -0.4487
  915MOL0     C23392   5.153   6.659   2.025  0.8964 -0.3049 -0.1140
  915MOL0     O23393   5.028   6.678   1.989  0.1738 -0.4028  0.2434
  915MOL0     C23394   4.942   6.582   1.952  0.7081  0.1764 -0.3668
  915MOL0     C23395   4.819   6.567   2.021  1.1377 -0.1885  0.6871
  915MOL0     C23396   4.730   6.465   1.991 -0.4158  0.4813 -0.9430
  915MOL0     C23397   4.751   6.381   1.882 -0.3912 -0.2156 -0.0228
  915MOL0     O23398   4.653   6.297   1.843 -0.5880  0.5558  0.1072
  915MOL0     C23399   4.528   6.353   1.815  0.9550 -0.1190 -0.3929
  915MOL0     C23400   4.424   6.286   1.906 -0.4657 -0.5615  0.3380
  915MOL0     C23401   4.285   6.330   1.865 -0.4083 -1.6013 -0.3026
  915MOL0     C23402   4.181   6.272   1.956 -0.0598 -0.0875  0.1514
  915MOL0     C23403   4.044   6.278   1.889 -0.0650 -0.0629 -0.0415
  915MOL0     C23404   3.990   6.429   1.862 -0.3924  0.7704  0.8921
  915MOL0     C23405   3.941   6.490   1.991  0.0916 -0.3823  0.2171
  915MOL0     C23406   4.047   6.588   2.046 -0.2641  0.2160 -0.7790
  915MOL0     N23407   4.017   6.724   2.006 -0.1031 -0.6981  0.3395
  915MOL0     C23408   4.087   6.786   1.911 -0.1571 -0.7982  0.6801
  915MOL0     C23409   4.038   6.910   1.893 -0.4135 -0.7426  0.3536
  915MOL0     C23410   4.080   7.015   1.789 -0.4228 -1.0510  1.2470
  915MOL0     C23411   4.137   6.951   1.661  0.3135 -0.0314  0.0210
  915MOL0     C23412   4.171   7.056   1.552 -0.2025 -0.6882 -1.5572
  915MOL0     C23413   4.281   7.154   1.559 -0.6439 -0.5789  0.1112
  915MOL0     O23414   4.406   7.092   1.524  0.0119 -0.2024 -0.0573
  915MOL0     C23415   4.515   7.169   1.493 -0.8270 -0.0028 -0.1463
  915MOL0     C23416   4.606   7.133   1.400  0.2648 -0.5490  0.0290
  915MOL0     C23417   4.723   7.202   1.367  0.2953  0.6474 -0.6790
  915MOL0     C23418   4.757   7.316   1.449  1.5790 -0.5156  0.0347
  915MOL0     C23419   4.884   7.386   1.432 -0.3388 -0.1587 -0.1860
  915MOL0     O23420   4.898   7.514   1.490  0.6601 -1.0476 -0.1531
  915MOL0     C23421   5.004   7.585   1.444  0.2639  0.1311  0.5779
  915MOL0     C23422   5.139   7.551   1.462  0.3014  0.2779  0.3645
  915MOL0     C23423   5.243   7.625   1.402  0.0721 -0.0863  0.4613
  915MOL0     C23424   5.216   7.752   1.351 -0.2707  0.0888 -0.2573
  915MOL0     O23425   5.316   7.832   1.301  0.6828  1.2703 -0.0190
  915MOL0     C23426   5.444   7.825   1.356 -0.5658 -0.5360 -0.4452
  915MOL0     C23427   5.483   7.968   1.387 -0.0462  0.6461 -0.7366
  915MOL0     C23428   5.618   7.993   1.456  0.6611 -0.7126  0.0163
  915MOL0     C23429   5.622   8.137   1.506  1.1364  0.3523 -0.1181
  915MOL0     C23430   5.771   8.183   1.521  0.3604 -0.7933 -0.4321
  915MOL0     C23431   5.834   8.115   1.640  0.3107  0.1813 -0.1213
  915MOL0     C23432   5.987   8.132   1.642  0.3136 -0.4492  0.6006
  915MOL0     C23433   6.057   8.099   1.771  0.2044  1.2448 -0.1106
  915MOL0    Cl23434   6.232   8.141   1.772 -0.2964  0.5769 -0.2191
  915MOL0     C23435   5.083   7.785   1.336  0.5556 -0.4698  0.0931
  915MOL0     C23436   4.976   7.703   1.370 -0.9640  0.4695 -0.7311
  915MOL0     O23437   4.973   7.324   1.370  0.2896  0.1413  0.5571
  915MOL0     C23438   4.666   7.359   1.547  0.4719 -0.0497  1.1499
  915MOL0     C23439   4.544   7.283   1.564 -0.8345 -0.7793 -0.6878
  915MOL0     N23440   3.937   6.923   1.980  0.3202 -0.2503 -0.1148
  915MOL0     N23441   3.935   6.812   2.054  0.2249  0.1923  0.4404
  915MOL0     C23442   4.865   6.404   1.804  0.4761 -0.3865  0.3434
  915MOL0     C23443   4.960   6.497   1.844 -0.4503  0.5666  0.3377
  915MOL0     C23444   5.241   6.777   2.012 -0.2053  0.4563 -0.0826
  915MOL0     C23445   5.367   6.754   1.963 -0.1916 -0.9953  0.3863
  915MOL0     C23446   5.466   6.860   1.946 -0.6260  0.1438  0.1459
  915MOL0     C23447   5.443   6.981   1.992 -1.0755  0.1985 -0.0520
  915MOL0     O23448   5.524   7.087   1.984  0.3386  0.4211 -0.0053
  915MOL0     C23449   5.602   7.099   1.870  0.0465  0.3341 -0.1085
  915MOL0     C23450   5.552   7.222   1.787 -0.0413  0.1345 -0.2285
  915MOL0     C23451   5.401   7.221   1.769 -0.2402  0.6363  0.3209
  915MOL0     C23452   5.339   7.340   1.685 -0.2353 -0.2755 -0.4548
  915MOL0     C23453   5.413   7.463   1.700 -0.0805  0.2133  0.1537
  915MOL0     C23454   5.478   7.566   1.696  0.3820  0.3942  0.1811
  915MOL0     C23455   5.323   7.004   2.061 -0.0893 -0.1304  0.7530
  915MOL0     C23456   5.215   6.907   2.062 -0.0853  0.6134  0.3470
  915MOL0     C23457   5.091   6.940   2.129  0.5995  0.4005 -1.3224
  915MOL0     H23458   4.802   6.628   2.110  1.0329  0.4519  0.2357
  915MOL0     H23459   4.650   6.451   2.064 -0.5545 -0.2545 -1.2263
  915MOL0     H23460   4.528   6.461   1.830 -0.5694 -0.3682  2.1213
  915MOL0     H23461   4.493   6.343   1.712  0.7729  0.2127 -0.3633
  915MOL0     H23462   4.451   6.289   2.012 -0.2058 -1.2309  0.2957
  915MOL0     H23463   4.434   6.179   1.884  1.6072 -0.0289 -1.7816
  915MOL0     H23464   4.271   6.294   1.763 -0.5542 -1.4586 -0.3324
  915MOL0     H23465   4.281   6.439   1.863  1.9956 -1.4939 -2.1090
  915MOL0     H23466   4.195   6.169   1.989  1.4280  0.8344  2.6617
  915MOL0     H23467   4.173   6.335   2.045  3.4766  0.3835  0.2802
  915MOL0     H23468   4.046   6.215   1.800  0.9292 -1.3773  0.8701
  915MOL0     H23469   3.973   6.236   1.961  2.5224 -2.1887  1.4319
  915MOL0     H23470   4.067   6.487   1.810 -0.0760  0.9738  1.5640
  915MOL0     H23471   3.902   6.419   1.798  0.4064 -1.8999  0.0847
  915MOL0     H23472   3.926   6.415   2.070 -1.6648  0.1267  0.4221
  915MOL0     H23473   3.840   6.532   1.985 -0.1876 -0.6194  2.3219
  915MOL0     H23474   4.045   6.578   2.155 -1.6800 -0.4659 -0.8304
  915MOL0     H23475   4.152   6.570   2.023 -0.4981  0.4186 -2.0739
  915MOL0     H23476   4.169   6.730   1.868  1.7487  0.6767  2.2376
  915MOL0     H23477   3.995   7.083   1.777 -0.2089 -0.7761  1.2588
  915MOL0     H23478   4.157   7.086   1.822 -2.1496  0.8514  1.4415
  915MOL0     H23479   4.226   6.889   1.679 -1.4572 -3.3976 -1.7965
  915MOL0     H23480   4.065   6.885   1.612  0.4157  1.6967 -2.6505
  915MOL0     H23481   4.075   7.105   1.533 -0.5197 -1.8284 -3.1070
  915MOL0     H23482   4.197   6.993   1.466  1.4991 -1.6992 -0.3526
  915MOL0     H23483   4.287   7.198   1.660  1.9867  1.5541 -0.8479
  915MOL0     H23484   4.247   7.233   1.491 -0.5654 -0.4991  0.1639
  915MOL0     H23485   4.589   7.042   1.343  1.5608  0.1969 -1.6619
  915MOL0     H23486   4.785   7.159   1.289 -0.8683  1.0701 -1.8530
  915MOL0     H23487   5.161   7.462   1.519 -3.1171 -1.3356 -0.5686
  915MOL0     H23488   5.345   7.591   1.413 -0.4032 -1.6564  0.3245
  915MOL0     H23489   5.451   7.772   1.451  2.0215  0.5158  0.0479
  915MOL0     H23490   5.514   7.771   1.292  1.2164  1.7992 -0.6102
  915MOL0     H23491   5.483   8.010   1.286  1.5773  0.5368 -0.7951
  915MOL0     H23492   5.402   8.018   1.442  0.9670 -1.0089  2.4806
  915MOL0     H23493   5.629   7.921   1.538 -1.8658 -0.5236  0.6175
  915MOL0     H23494   5.695   7.978   1.380  1.2657  0.3205  0.3994
  915MOL0     H23495   5.561   8.129   1.597  2.3994 -2.6664  0.6201
  915MOL0     H23496   5.581   8.201   1.428 -0.3129 -3.1939 -2.5059
  915MOL0     H23497   5.773   8.291   1.536 -0.2711 -0.8119 -0.1888
  915MOL0     H23498   5.828   8.164   1.429  2.5974 -0.3980  0.8012
  915MOL0     H23499   5.802   8.155   1.736  3.5599  0.7127  0.8615
  915MOL0     H23500   5.813   8.008   1.640 -0.3716  0.2589  2.3459
  915MOL0     H23501   6.010   8.237   1.624  1.6851 -0.8182  0.0468
  915MOL0     H23502   6.035   8.069   1.567  2.7111  0.4211  1.3287
  915MOL0     H23503   6.013   8.152   1.856 -0.3298 -1.0333  1.1063
  915MOL0     H23504   6.042   7.995   1.801 -1.2815  1.7076  0.8639
  915MOL0     H23505   5.043   7.872   1.284  2.0486  0.3890  0.3414
  915MOL0     H23506   4.877   7.742   1.345 -1.4807  0.2497  0.8876
  915MOL0     H23507   4.675   7.450   1.606 -2.1780  0.9223  0.2210
  915MOL0     H23508   4.475   7.315   1.641 -1.6788 -1.0458 -1.3153
  915MOL0     H23509   4.867   6.342   1.715  0.7090 -0.3342  0.3128
  915MOL0     H23510   5.053   6.510   1.790 -0.7341  0.7527 -0.1206
  915MOL0     H23511   5.399   6.656   1.927  0.6865 -1.9403  3.3992
  915MOL0     H23512   5.563   6.830   1.908 -0.8868 -2.3715  1.2732
  915MOL0     H23513   5.619   7.008   1.812  1.9991  0.3587  0.3632
  915MOL0     H23514   5.705   7.117   1.903  0.2380  2.2569 -1.5746
  915MOL0     H23515   5.597   7.227   1.688 -1.0781 -0.2689 -0.7289
  915MOL0     H23516   5.579   7.305   1.852  0.4496 -1.5010  1.7823
  915MOL0     H23517   5.354   7.220   1.868  1.6399 -1.4329  1.2660
  915MOL0     H23518   5.375   7.131   1.714  2.7513  0.0138 -0.2573
  915MOL0     H23519   5.348   7.327   1.577 -3.3029  1.1629 -1.0023
  915MOL0     H23520   5.233   7.352   1.710 -0.4439 -1.5973 -0.6064
  915MOL0     H23521   5.534   7.657   1.682  0.5562  0.9659  3.7854
  915MOL0     H23522   5.299   7.098   2.109  0.0403  0.0145  0.5347
  915MOL0     H23523   5.012   6.931   2.054 -0.5021  0.3366 -0.1705
  915MOL0     H23524   5.067   6.867   2.207  0.2723  1.3967 -0.4837
  915MOL0     H23525   5.085   7.042   2.165  0.8342 -0.3256  0.9096
  916MOL0     O23526   8.564   7.784   7.388  0.0149 -0.2135 -0.1473
  916MOL0     C23527   8.616   7.870   7.327  0.1898 -0.7283  1.6535
  916MOL0     O23528   8.564   7.925   7.207  0.2622  1.4440  0.2518
  916MOL0     C23529   8.438   7.877   7.166 -0.9606  0.3478  0.1107
  916MOL0     C23530   8.317   7.928   7.219 -1.1226  0.0934  0.2753
  916MOL0     C23531   8.192   7.889   7.168 -0.0783  0.2863 -0.9149
  916MOL0     C23532   8.182   7.786   7.067 -0.6139  0.4438 -0.5426
  916MOL0     O23533   8.066   7.716   7.032 -0.0691 -0.2725 -0.3629
  916MOL0     C23534   7.933   7.789   7.038 -0.5316  0.1406  1.0924
  916MOL0     C23535   7.839   7.695   6.954 -0.7011  0.3589 -0.8980
  916MOL0     C23536   7.704   7.771   6.940 -0.5694  0.0231 -0.0290
  916MOL0     C23537   7.597   7.686   6.863  0.9051 -0.1145  0.2386
  916MOL0     C23538   7.451   7.730   6.900 -0.8886  0.7086  0.0521
  916MOL0     C23539   7.341   7.632   6.837 -0.5510  0.4035  0.0778
  916MOL0     C23540   7.202   7.656   6.892 -0.3350  0.6028  0.7851
  916MOL0     C23541   7.154   7.796   6.852  0.7608 -0.5878 -0.7075
  916MOL0     N23542   7.001   7.811   6.872  0.2315  0.2447  0.2305
  916MOL0     C23543   6.939   7.763   6.983 -0.2283  0.0841  0.5619
  916MOL0     C23544   6.809   7.784   6.958 -1.2464 -0.5004  0.4351
  916MOL0     C23545   6.702   7.731   7.048  0.0219 -0.4610 -0.4551
  916MOL0     C23546   6.638   7.839   7.147  0.0379 -0.7342 -0.8310
  916MOL0     C23547   6.700   7.860   7.287  1.1370  0.2055  0.1561
  916MOL0     C23548   6.833   7.940   7.281 -0.1355 -0.4588  0.4635
  916MOL0     O23549   6.932   7.851   7.316 -0.1688 -0.1437 -0.4695
  916MOL0     C23550   7.059   7.902   7.311 -0.0269  0.7477  0.1351
  916MOL0     C23551   7.145   7.826   7.386 -0.0801  0.2190 -0.2660
  916MOL0     C23552   7.281   7.854   7.388  0.2718  0.5740 -0.3009
  916MOL0     C23553   7.337   7.951   7.301 -0.1344  0.6397  0.0482
  916MOL0     C23554   7.490   7.971   7.286 -0.0965 -0.7160 -0.4186
  916MOL0     O23555   7.537   8.104   7.269  0.8298  0.3540  0.1671
  916MOL0     C23556   7.670   8.124   7.270 -0.1661 -0.0306  0.0836
  916MOL0     C23557   7.749   8.094   7.162  0.0823 -0.1234 -0.0391
  916MOL0     C23558   7.891   8.120   7.160  0.2193  0.4722 -0.1498
  916MOL0     C23559   7.959   8.167   7.268  0.3451 -0.7977 -0.1791
  916MOL0     O23560   8.096   8.176   7.278 -0.2796  1.2847 -0.7411
  916MOL0     C23561   8.158   8.297   7.322 -0.0455  0.2474  0.2075
  916MOL0     C23562   8.293   8.267   7.388 -0.1565 -0.5222  1.3266
  916MOL0     C23563   8.281   8.203   7.533  0.4553  0.4203  0.1355
  916MOL0     C23564   8.421   8.161   7.576  0.4965 -0.4121  0.1223
  916MOL0     C23565   8.434   8.142   7.725 -0.0784  0.0978 -0.0413
  916MOL0     C23566   8.554   8.061   7.755  0.1078 -0.2242  0.0410
  916MOL0     C23567   8.586   8.069   7.896 -0.7723  0.0955 -0.7858
  916MOL0     C23568   8.721   8.012   7.944 -0.5128  0.6224 -0.9830
  916MOL0    Cl23569   8.752   7.854   7.862 -0.2406  0.3453 -0.5228
  916MOL0     C23570   7.878   8.212   7.377  0.4684 -0.8926  0.1753
  916MOL0     C23571   7.737   8.187   7.380 -1.0444  1.1557  0.0377
  916MOL0     O23572   7.564   7.875   7.309 -0.1534 -0.1953  0.6383
  916MOL0     C23573   7.244   8.032   7.229 -0.0142  0.3927  0.2614
  916MOL0     C23574   7.109   8.002   7.228 -0.5358 -0.4880  1.2271
  916MOL0     N23575   6.794   7.852   6.843 -0.1508 -0.4716 -0.3529
  916MOL0     N23576   6.909   7.875   6.795 -0.3920  0.0368  0.0550
  916MOL0     C23577   8.300   7.736   7.009 -0.7692  0.6786 -1.4636
  916MOL0     C23578   8.422   7.778   7.062  0.4657 -0.1468  0.6521
  916MOL0     C23579   8.737   7.936   7.360 -0.9353  0.1854  0.2991
  916MOL0     C23580   8.778   8.056   7.292 -0.2812 -0.3794  0.6948
  916MOL0     C23581   8.878   8.143   7.339 -0.9613  0.6124  0.3805
  916MOL0     C23582   8.950   8.104   7.453 -0.7055  0.5942 -0.4468
  916MOL0     O23583   9.063   8.179   7.492 -0.0557  0.7455 -0.6109
  916MOL0     C23584   9.195   8.143   7.449  0.3209 -0.4065 -0.0749
  916MOL0     C23585   9.271   8.272   7.420  0.0090 -0.2702 -0.0511
  916MOL0     C23586   9.298   8.326   7.562  0.3457 -0.0790 -0.2274
  916MOL0     C23587   9.430   8.398   7.560  0.3964 -0.3554  0.2956
  916MOL0     C23588   9.444   8.467   7.686 -0.3790 -0.7678 -0.5335
  916MOL0     C23589   9.462   8.516   7.798 -0.3754 -0.5487  0.8599
  916MOL0     C23590   8.917   7.981   7.517 -0.2323 -0.0942  0.0638
  916MOL0     C23591   8.822   7.896   7.470 -0.2200 -0.9189  0.1770
  916MOL0     C23592   8.795   7.772   7.565  0.9848  0.2488  0.5247
  916MOL0     H23593   8.330   8.005   7.295 -2.5935 -0.0009  0.6498
  916MOL0     H23594   8.102   7.925   7.216 -0.3692 -0.5615 -0.8138
  916MOL0     H23595   7.900   7.823   7.137 -0.6763 -0.2371  1.1744
  916MOL0     H23596   7.948   7.875   6.972 -2.0700  0.3934  1.0406
  916MOL0     H23597   7.836   7.595   6.999  0.9056 -0.5204 -2.6200
  916MOL0     H23598   7.890   7.679   6.858  2.1391  0.7359  0.4505
  916MOL0     H23599   7.718   7.875   6.910 -0.9288  0.1263  0.1455
  916MOL0     H23600   7.668   7.784   7.042 -0.8592 -0.7651 -0.0242
  916MOL0     H23601   7.607   7.686   6.754 -2.9636 -1.6026 -0.2985
  916MOL0     H23602   7.616   7.582   6.892 -0.5976 -0.4936 -0.0324
  916MOL0     H23603   7.447   7.735   7.009  1.7705  0.5832  0.2269
  916MOL0     H23604   7.436   7.829   6.857 -4.0439  0.2429 -0.1549
  916MOL0     H23605   7.354   7.636   6.729  1.7398  0.9656  0.3338
  916MOL0     H23606   7.365   7.529   6.861 -0.6413  0.7233  1.6824
  916MOL0     H23607   7.210   7.639   6.999  2.9840 -2.0240  0.3251
  916MOL0     H23608   7.134   7.589   6.839  0.8560  1.5671 -2.1793
  916MOL0     H23609   7.211   7.865   6.916  2.0991 -1.6168 -0.7411
  916MOL0     H23610   7.183   7.827   6.751  1.9189  1.2380  0.1310
  916MOL0     H23611   6.983   7.713   7.069  1.1764 -1.8805 -1.1989
  916MOL0     H23612   6.627   7.692   6.978  0.4028 -0.5798 -0.7983
  916MOL0     H23613   6.742   7.650   7.109 -0.6121  2.1967  4.0445
  916MOL0     H23614   6.635   7.938   7.101 -0.5392 -0.6202 -0.5575
  916MOL0     H23615   6.540   7.795   7.166 -0.2562 -0.4500 -1.6770
  916MOL0     H23616   6.721   7.760   7.326  4.4185  0.0841 -1.6266
  916MOL0     H23617   6.627   7.919   7.344  2.9244  2.6544  0.0688
  916MOL0     H23618   6.836   8.031   7.343 -0.3733  0.0487 -0.2473
  916MOL0     H23619   6.842   7.987   7.183 -2.2359  2.6585  1.5817
  916MOL0     H23620   7.114   7.745   7.452  0.1522  1.4889  1.4510
  916MOL0     H23621   7.345   7.808   7.463  0.3069 -0.7234 -1.0881
  916MOL0     H23622   7.708   8.046   7.073 -2.1426  1.3643  0.1071
  916MOL0     H23623   7.940   8.105   7.064  2.2175 -3.6252  1.2733
  916MOL0     H23624   8.181   8.353   7.231  3.6727 -2.0943 -0.4976
  916MOL0     H23625   8.100   8.358   7.391 -0.0721 -1.9239  2.2288
  916MOL0     H23626   8.351   8.202   7.322  0.8659  0.4518  1.2177
  916MOL0     H23627   8.355   8.355   7.408  0.2733 -1.2078  3.1835
  916MOL0     H23628   8.227   8.267   7.604 -3.1410 -2.0125 -0.1403
  916MOL0     H23629   8.220   8.114   7.518 -0.3116  1.3414 -2.8500
  916MOL0     H23630   8.478   8.251   7.550 -0.9256 -0.3736 -3.3664
  916MOL0     H23631   8.458   8.080   7.513  4.6576  1.4859 -0.2174
  916MOL0     H23632   8.346   8.094   7.770 -2.1385  1.8575 -1.9037
  916MOL0     H23633   8.433   8.244   7.766  1.9424 -0.8910  2.7424
  916MOL0     H23634   8.543   7.955   7.731  4.5002 -1.3202  1.8444
  916MOL0     H23635   8.634   8.104   7.693 -1.3744  5.2088  1.3506
  916MOL0     H23636   8.508   8.014   7.949  1.6776  0.1918  3.2944
  916MOL0     H23637   8.584   8.177   7.915  3.1134  0.0690  0.5903
  916MOL0     H23638   8.795   8.090   7.923  2.1997 -2.2917 -3.2002
  916MOL0     H23639   8.714   8.009   8.053 -2.4688 -0.6415 -1.0882
  916MOL0     H23640   7.923   8.248   7.468 -0.4330 -2.3662  1.2471
  916MOL0     H23641   7.675   8.218   7.463 -2.4300  0.0383 -0.5515
  916MOL0     H23642   7.281   8.114   7.168  2.8486 -1.7645 -1.0872
  916MOL0     H23643   7.045   8.059   7.162  0.3743  1.5572  2.0377
  916MOL0     H23644   8.301   7.652   6.941 -1.0264  1.2945 -2.2438
  916MOL0     H23645   8.509   7.724   7.027  0.0566  1.0411 -2.5667
  916MOL0     H23646   8.712   8.107   7.223  1.8443  2.8752  0.8365
  916MOL0     H23647   8.905   8.233   7.284  1.6174 -1.2264 -1.5970
  916MOL0     H23648   9.168   8.097   7.353  2.3030 -4.2017  1.0053
  916MOL0     H23649   9.254   8.077   7.513 -0.3158 -0.0062  0.9349
  916MOL0     H23650   9.217   8.342   7.354  0.2849  1.0287  1.0466
  916MOL0     H23651   9.364   8.250   7.367  1.2584  1.6328  1.2034
  916MOL0     H23652   9.303   8.246   7.636 -0.1021 -0.2828 -0.4171
  916MOL0     H23653   9.220   8.397   7.590 -0.3644 -0.0002 -2.2142
  916MOL0     H23654   9.522   8.342   7.545 -0.5193 -1.4138 -1.8421
  916MOL0     H23655   9.423   8.475   7.482  0.6894  0.7473  1.3299
  916MOL0     H23656   9.473   8.557   7.897 -1.5615  1.1687  0.3241
  916MOL0     H23657   8.981   7.949   7.599  3.3470 -0.3470 -2.6036
  916MOL0     H23658   8.698   7.781   7.615  0.7352  0.1529  0.0570
  916MOL0     H23659   8.793   7.678   7.509 -1.5331 -1.3964  3.1176
  916MOL0     H23660   8.872   7.755   7.641  1.9312 -0.9046 -0.6599
  917MOL0     O23661   7.116   2.791   7.682  0.1693 -0.5214 -0.3550
  917MOL0     C23662   7.187   2.708   7.628 -0.2651  0.4744  0.2674
  917MOL0     O23663   7.271   2.723   7.515  0.3120 -0.7594 -0.4551
  917MOL0     C23664   7.234   2.802   7.410  0.1143  0.0445 -0.4998
  917MOL0     C23665   7.327   2.885   7.347  0.5141 -0.2680 -0.0237
  917MOL0     C23666   7.282   2.973   7.247  0.0808 -0.3796  0.3229
  917MOL0     C23667   7.148   2.982   7.209  0.3116 -0.7349 -0.5425
  917MOL0     O23668   7.098   3.065   7.110  0.4895 -0.8231 -1.1849
  917MOL0     C23669   7.181   3.094   6.999 -0.7798 -0.5991  0.6700
  917MOL0     C23670   7.097   3.176   6.900 -0.6973  0.6141  0.4791
  917MOL0     C23671   7.094   3.328   6.914  0.4264 -0.4840  0.3658
  917MOL0     C23672   7.010   3.366   7.031 -0.5577 -0.0857 -0.6671
  917MOL0     C23673   6.982   3.514   7.032 -1.2954 -0.4141  0.3177
  917MOL0     C23674   6.923   3.560   7.163  0.4167 -0.1210  0.5837
  917MOL0     C23675   6.902   3.715   7.161  1.0000 -0.2932 -0.4279
  917MOL0     C23676   6.854   3.775   7.296  0.1476  0.1140  0.1548
  917MOL0     N23677   6.738   3.705   7.359  0.3249 -0.2047  0.2928
  917MOL0     C23678   6.749   3.610   7.464  0.4785 -0.0938  0.9735
  917MOL0     C23679   6.628   3.555   7.476 -0.4301  0.3520  0.7497
  917MOL0     C23680   6.600   3.432   7.565 -0.5726 -0.0356  0.0998
  917MOL0     C23681   6.580   3.462   7.715  0.3204 -1.3009  0.4629
  917MOL0     C23682   6.537   3.343   7.796 -0.0454  0.0878  0.4251
  917MOL0     C23683   6.388   3.291   7.777  0.4634  0.0464 -0.1870
  917MOL0     O23684   6.339   3.205   7.884 -0.2759  0.7807 -0.2415
  917MOL0     C23685   6.323   3.068   7.861  0.3294  0.0572  0.2625
  917MOL0     C23686   6.387   2.970   7.927 -0.5288 -0.7311 -0.6111
  917MOL0     C23687   6.384   2.836   7.885 -0.1879  0.3851  0.2230
  917MOL0     C23688   6.325   2.790   7.767  0.0395  0.0939  0.4952
  917MOL0     C23689   6.322   2.656   7.716  0.3890  0.6262  0.1153
  917MOL0     O23690   6.415   2.557   7.769  0.0255 -1.1155  1.2784
  917MOL0     C23691   6.443   2.439   7.712  0.0809 -0.0599 -0.5251
  917MOL0     C23692   6.383   2.366   7.610  0.2348 -0.6030  0.3179
  917MOL0     C23693   6.438   2.251   7.561 -0.2828 -0.4885  0.2108
  917MOL0     C23694   6.558   2.197   7.604  0.0618 -0.4938  0.0902
  917MOL0     O23695   6.621   2.084   7.545  0.2587 -0.4727 -0.4309
  917MOL0     C23696   6.535   1.976   7.525  0.1990  0.1519  0.3790
  917MOL0     C23697   6.606   1.858   7.470 -0.6730  0.4024 -0.0527
  917MOL0     C23698   6.700   1.796   7.571  0.1021 -0.1896  0.2270
  917MOL0     C23699   6.787   1.681   7.524 -0.4769  0.2898  0.7102
  917MOL0     C23700   6.703   1.559   7.479 -0.1454  0.3148 -1.1686
  917MOL0     C23701   6.794   1.429   7.466  0.7690  0.5361 -0.1261
  917MOL0     C23702   6.714   1.305   7.451  0.0305  0.8716 -0.4560
  917MOL0     C23703   6.663   1.249   7.588  0.3115  0.2386  0.9945
  917MOL0    Cl23704   6.618   1.081   7.558  0.0671  0.8197  0.4134
  917MOL0     C23705   6.625   2.280   7.706 -0.5251 -0.4287 -0.1822
  917MOL0     C23706   6.559   2.394   7.767 -0.3262  0.7176  0.5805
  917MOL0     O23707   6.246   2.631   7.625 -0.6323  0.3602 -0.8463
  917MOL0     C23708   6.248   2.889   7.703  0.4272 -0.1994  1.0066
  917MOL0     C23709   6.250   3.019   7.742 -0.3968  0.0712 -0.1210
  917MOL0     N23710   6.536   3.634   7.399 -0.7865  0.3839 -0.4733
  917MOL0     N23711   6.607   3.722   7.333  0.5004  0.0615 -0.2571
  917MOL0     C23712   7.069   2.879   7.252 -0.2492  0.4738 -0.1230
  917MOL0     C23713   7.103   2.800   7.359  0.9570  0.2995 -0.0158
  917MOL0     C23714   7.185   2.574   7.697 -0.0345 -0.3756  0.1477
  917MOL0     C23715   7.298   2.488   7.693 -0.4348  0.0264 -0.3796
  917MOL0     C23716   7.296   2.357   7.748  0.4477 -0.2177 -0.1207
  917MOL0     C23717   7.185   2.322   7.826  0.1856  0.2374  0.7107
  917MOL0     O23718   7.198   2.217   7.912 -0.3442 -0.1218  0.5618
  917MOL0     C23719   7.155   2.087   7.870 -0.3285 -0.0793  0.9084
  917MOL0     C23720   7.242   2.037   7.753 -0.1692 -0.8162 -0.0140
  917MOL0     C23721   7.201   1.900   7.714 -0.2529  0.6847  0.2146
  917MOL0     C23722   7.267   1.841   7.589  0.2353  0.5522 -0.4638
  917MOL0     C23723   7.209   1.709   7.550 -0.5789 -0.0349  0.5183
  917MOL0     C23724   7.168   1.602   7.502  0.4366 -0.2284  0.3246
  917MOL0     C23725   7.067   2.396   7.827 -0.5793 -0.4144  0.6587
  917MOL0     C23726   7.070   2.528   7.769 -0.7200  0.6133 -0.3029
  917MOL0     C23727   6.929   2.590   7.788  0.2550  0.1360 -0.3236
  917MOL0     H23728   7.425   2.883   7.396  1.1393  0.5940 -1.1914
  917MOL0     H23729   7.357   3.045   7.216  1.6157 -2.0958 -0.0702
  917MOL0     H23730   7.276   3.138   7.031 -0.0937 -2.2406  0.9779
  917MOL0     H23731   7.194   2.996   6.952  1.5904  0.6737 -1.6079
  917MOL0     H23732   6.991   3.149   6.895 -0.8615  1.3264  0.0446
  917MOL0     H23733   7.145   3.156   6.804  2.0930  0.6616  1.7579
  917MOL0     H23734   7.050   3.367   6.822 -0.1470 -1.4055  0.2350
  917MOL0     H23735   7.195   3.358   6.943  1.4359 -1.9923 -1.3951
  917MOL0     H23736   6.915   3.314   7.047  0.5917 -1.1538  4.3637
  917MOL0     H23737   7.062   3.347   7.126 -0.3450 -2.6827 -1.2144
  917MOL0     H23738   7.077   3.566   7.017 -1.4564 -0.2220 -0.0571
  917MOL0     H23739   6.921   3.551   6.949 -1.3658 -1.7253 -0.2471
  917MOL0     H23740   6.826   3.511   7.167  0.2029 -0.0525 -2.1357
  917MOL0     H23741   6.993   3.522   7.238 -1.9728  0.2235  3.1429
  917MOL0     H23742   6.834   3.735   7.078  1.2773 -2.7389 -1.3240
  917MOL0     H23743   6.995   3.769   7.139  1.4155 -0.7627  0.1201
  917MOL0     H23744   6.947   3.770   7.353  0.5869  0.3969 -0.5274
  917MOL0     H23745   6.827   3.881   7.291  2.8568  0.9025  0.5719
  917MOL0     H23746   6.841   3.577   7.513 -0.1006 -0.6192  1.7306
  917MOL0     H23747   6.508   3.392   7.521 -2.3814  2.6060  1.2493
  917MOL0     H23748   6.678   3.355   7.560 -1.1630 -0.6815  0.6445
  917MOL0     H23749   6.675   3.493   7.759  0.2999  0.7485 -0.8035
  917MOL0     H23750   6.509   3.544   7.728  0.5506 -1.1265  0.6300
  917MOL0     H23751   6.547   3.379   7.899  1.5301  3.1160 -0.6536
  917MOL0     H23752   6.606   3.259   7.786  2.3742  1.9319  0.7452
  917MOL0     H23753   6.388   3.249   7.676 -1.6287  0.0738 -0.2359
  917MOL0     H23754   6.323   3.379   7.769 -2.3987 -1.7758  1.2639
  917MOL0     H23755   6.452   3.007   8.005  1.7856 -3.2613 -1.1824
  917MOL0     H23756   6.431   2.756   7.940 -0.6280  0.2076  0.3400
  917MOL0     H23757   6.278   2.388   7.590 -0.5584 -1.9647  2.7100
  917MOL0     H23758   6.376   2.199   7.488 -1.6767 -0.2722  1.1979
  917MOL0     H23759   6.486   1.956   7.621  1.6677 -0.0559  1.1161
  917MOL0     H23760   6.459   2.016   7.457  1.2067  0.7391 -0.4242
  917MOL0     H23761   6.526   1.784   7.458 -1.6330  1.5991 -1.3431
  917MOL0     H23762   6.660   1.877   7.376 -0.7600 -1.5978 -0.5541
  917MOL0     H23763   6.778   1.863   7.610  0.9917 -1.0987  0.0446
  917MOL0     H23764   6.636   1.758   7.650 -1.2947  3.5927  1.1381
  917MOL0     H23765   6.869   1.659   7.593  2.9721  3.6767 -1.9163
  917MOL0     H23766   6.840   1.726   7.440 -0.8292  1.8559  1.2860
  917MOL0     H23767   6.637   1.566   7.392 -2.6145  2.6599  0.6985
  917MOL0     H23768   6.636   1.535   7.563  2.6591  0.4552  1.2814
  917MOL0     H23769   6.863   1.438   7.381  2.4384  0.6523  1.1935
  917MOL0     H23770   6.860   1.414   7.551  0.8036 -1.6043 -0.4828
  917MOL0     H23771   6.777   1.230   7.402 -2.1130 -1.1204 -0.3883
  917MOL0     H23772   6.628   1.304   7.383 -1.4333 -1.7477  1.2402
  917MOL0     H23773   6.749   1.260   7.654  0.8076 -2.7260  0.9611
  917MOL0     H23774   6.568   1.293   7.618 -0.4518  0.5136 -1.5327
  917MOL0     H23775   6.713   2.228   7.743 -0.8926 -1.0469 -0.1617
  917MOL0     H23776   6.619   2.441   7.844 -0.7713 -3.2685  3.6867
  917MOL0     H23777   6.185   2.866   7.617  2.2856  0.9145 -0.7197
  917MOL0     H23778   6.185   3.084   7.684 -0.6663  5.2044  4.9856
  917MOL0     H23779   6.975   2.860   7.202  0.1699 -2.1110 -0.0918
  917MOL0     H23780   7.040   2.722   7.399 -1.6010  1.7642 -0.9579
  917MOL0     H23781   7.389   2.516   7.642 -0.1355  1.6992  0.9606
  917MOL0     H23782   7.388   2.299   7.747  1.1717  0.8896 -1.2463
  917MOL0     H23783   7.049   2.088   7.843 -0.5355  0.3938  1.7054
  917MOL0     H23784   7.172   2.014   7.950  1.4914 -1.3521 -0.5268
  917MOL0     H23785   7.344   2.026   7.791 -0.3789  0.3409  0.9087
  917MOL0     H23786   7.237   2.101   7.664 -0.4417 -0.4739  0.2459
  917MOL0     H23787   7.092   1.907   7.705 -0.2408  1.4964  0.5773
  917MOL0     H23788   7.218   1.829   7.796 -1.0889  0.6162  0.3310
  917MOL0     H23789   7.264   1.920   7.513  0.0297  1.5063  0.5145
  917MOL0     H23790   7.367   1.816   7.624  0.0606 -1.4418 -1.2767
  917MOL0     H23791   7.118   1.510   7.479 -1.5549  0.7601  0.5039
  917MOL0     H23792   6.985   2.357   7.886  0.8354 -0.2466  2.8613
  917MOL0     H23793   6.914   2.692   7.750 -2.5250  0.1755  0.6333
  917MOL0     H23794   6.856   2.525   7.739 -1.5233  0.0191  2.2936
  917MOL0     H23795   6.904   2.588   7.895 -0.9893  3.1343 -0.4329
  918MOL0     O23796   2.478   7.021   4.847  0.2565  0.0715  0.8819
  918MOL0     C23797   2.457   7.137   4.820  0.0072  0.0930  0.0912
  918MOL0     O23798   2.524   7.213   4.733 -0.7309 -0.5217 -0.1403
  918MOL0     C23799   2.610   7.147   4.649 -0.3285  0.4765 -0.0813
  918MOL0     C23800   2.566   7.056   4.549  0.0223 -0.4615  0.3125
  918MOL0     C23801   2.660   7.011   4.453 -0.7173  0.3184 -0.0722
  918MOL0     C23802   2.801   7.059   4.452  0.1426 -0.4960 -0.2029
  918MOL0     O23803   2.904   7.008   4.380 -0.9799  0.8039 -0.4842
  918MOL0     C23804   2.933   6.871   4.367 -0.1453 -0.1701 -0.6224
  918MOL0     C23805   3.080   6.864   4.293 -0.8453  0.1224 -0.5954
  918MOL0     C23806   3.126   6.725   4.273 -0.1579  0.2108  0.5398
  918MOL0     C23807   3.267   6.724   4.212  0.1908  0.6750  0.1726
  918MOL0     C23808   3.292   6.604   4.118 -1.0614 -0.7822  0.7719
  918MOL0     C23809   3.335   6.485   4.197  0.1807  0.4113 -0.7279
  918MOL0     C23810   3.334   6.353   4.117 -0.0443  0.2273  0.2731
  918MOL0     C23811   3.375   6.218   4.188  0.2887  0.6300  0.6181
  918MOL0     N23812   3.518   6.211   4.234  0.8469  0.1521  0.0368
  918MOL0     C23813   3.631   6.173   4.168  0.4756 -0.3518  1.2668
  918MOL0     C23814   3.730   6.157   4.261 -0.0137 -0.2697  0.4822
  918MOL0     C23815   3.874   6.128   4.250  0.4961  0.1606 -0.2394
  918MOL0     C23816   3.922   6.036   4.361 -0.1562  0.7714  0.7767
  918MOL0     C23817   4.068   5.978   4.325  0.3885  0.9947 -0.2724
  918MOL0     C23818   4.125   5.880   4.425  0.0451 -0.8810 -0.4163
  918MOL0     O23819   4.131   5.951   4.553 -0.0433  0.3261 -0.3239
  918MOL0     C23820   4.249   5.984   4.580  0.1303 -0.0084 -0.5743
  918MOL0     C23821   4.363   5.905   4.615 -0.1560  1.2661  0.4009
  918MOL0     C23822   4.484   5.964   4.642  0.5599 -0.0672  0.3544
  918MOL0     C23823   4.496   6.104   4.636 -0.1675  0.1028 -0.4109
  918MOL0     C23824   4.628   6.163   4.659  0.0418  0.0899 -0.9661
  918MOL0     O23825   4.727   6.076   4.692 -0.8637  0.0547 -0.4444
  918MOL0     C23826   4.850   6.120   4.716  0.5558 -0.3673  0.3832
  918MOL0     C23827   4.934   6.172   4.612  0.9708  1.0127  0.0938
  918MOL0     C23828   5.070   6.200   4.648  0.3363 -0.5765  0.1631
  918MOL0     C23829   5.121   6.183   4.777  0.2033  0.0425 -0.0456
  918MOL0     O23830   5.257   6.207   4.806  0.5927  0.2000  0.1933
  918MOL0     C23831   5.330   6.277   4.708 -0.3273  0.6919  0.5572
  918MOL0     C23832   5.480   6.278   4.738  0.0294  0.3935 -0.6626
  918MOL0     C23833   5.563   6.252   4.616  0.1633  0.1149 -0.5413
  918MOL0     C23834   5.574   6.107   4.577 -0.2317  0.4416 -0.0399
  918MOL0     C23835   5.596   6.080   4.421  0.7523  0.1033  0.6541
  918MOL0     C23836   5.478   6.112   4.330  0.6440  0.1302  0.8303
  918MOL0     C23837   5.513   6.090   4.182 -0.0057  0.1681  0.4111
  918MOL0     C23838   5.381   6.067   4.109  0.2606 -0.0660  0.7814
  918MOL0    Cl23839   5.310   6.229   4.097  0.1375 -0.5544 -0.0961
  918MOL0     C23840   5.037   6.141   4.880  0.1565  0.0238 -0.8227
  918MOL0     C23841   4.903   6.116   4.847  0.2951 -0.3628 -0.8019
  918MOL0     O23842   4.644   6.286   4.639  0.7657 -0.7747  0.6073
  918MOL0     C23843   4.382   6.183   4.611 -0.1061 -0.5908  0.3966
  918MOL0     C23844   4.258   6.124   4.580 -0.8831 -0.5231 -0.8430
  918MOL0     N23845   3.673   6.168   4.379 -0.2101  0.4809 -0.0972
  918MOL0     N23846   3.547   6.193   4.366 -0.0428 -0.0936 -0.7824
  918MOL0     C23847   2.834   7.155   4.541  0.3109 -0.1961 -0.7400
  918MOL0     C23848   2.741   7.192   4.640 -0.6334 -0.5047  0.1398
  918MOL0     C23849   2.340   7.189   4.892  0.3105  0.9261  0.1432
  918MOL0     C23850   2.300   7.120   5.010 -0.6566 -0.1522  0.5164
  918MOL0     C23851   2.186   7.151   5.078 -0.6038 -0.2615  0.3298
  918MOL0     C23852   2.105   7.253   5.033  0.1271 -0.2652  0.2980
  918MOL0     O23853   1.981   7.270   5.077  0.5531  0.3455 -0.9894
  918MOL0     C23854   1.879   7.172   5.048 -0.5379  0.4182 -0.0199
  918MOL0     C23855   1.751   7.234   5.043  0.7378  0.5280  1.7179
  918MOL0     C23856   1.707   7.278   4.898  0.1922 -0.2462 -0.7606
  918MOL0     C23857   1.596   7.375   4.902  0.7141  0.0458  0.0664
  918MOL0     C23858   1.469   7.310   4.933 -0.1215 -0.1754 -0.4933
  918MOL0     C23859   1.365   7.247   4.963  0.2188 -0.5299  0.2616
  918MOL0     C23860   2.139   7.324   4.922  0.6911  0.4345 -0.9027
  918MOL0     C23861   2.259   7.295   4.854  0.3200 -0.0865 -0.2195
  918MOL0     C23862   2.296   7.393   4.745  0.2806 -0.1700  0.2408
  918MOL0     H23863   2.462   7.027   4.543  0.5881 -2.4454 -0.8086
  918MOL0     H23864   2.630   6.922   4.399 -1.9786  0.7195 -0.0625
  918MOL0     H23865   2.943   6.816   4.461  0.2804 -0.3721 -0.7819
  918MOL0     H23866   2.857   6.817   4.310  0.7980  0.2201 -2.3523
  918MOL0     H23867   3.149   6.906   4.366  1.0140 -1.8801 -1.0923
  918MOL0     H23868   3.065   6.921   4.200 -0.4296 -2.0485 -2.0715
  918MOL0     H23869   3.052   6.684   4.203 -1.7269  1.8207  1.1910
  918MOL0     H23870   3.110   6.681   4.372 -0.8903  0.2536  0.4500
  918MOL0     H23871   3.280   6.816   4.154 -2.6594  2.4024  2.0493
  918MOL0     H23872   3.350   6.737   4.282  0.5667  3.6650 -0.6636
  918MOL0     H23873   3.197   6.584   4.068 -0.9136  0.1863  0.0622
  918MOL0     H23874   3.364   6.618   4.036 -0.5413  0.0411  1.3469
  918MOL0     H23875   3.432   6.505   4.244 -1.4292  2.0217  2.2165
  918MOL0     H23876   3.264   6.476   4.280 -2.2346  1.1944 -2.6006
  918MOL0     H23877   3.405   6.352   4.034  1.2265  0.1452  1.3288
  918MOL0     H23878   3.238   6.335   4.068  0.9532 -2.2778 -0.9464
  918MOL0     H23879   3.315   6.190   4.275  1.4282 -4.3716  0.0745
  918MOL0     H23880   3.360   6.137   4.116  2.3990 -0.5157  1.3838
  918MOL0     H23881   3.641   6.151   4.062 -1.6861 -3.7987  1.6204
  918MOL0     H23882   3.896   6.101   4.147 -1.0082  1.7408 -1.0228
  918MOL0     H23883   3.919   6.226   4.264  1.3573 -0.2233 -0.3009
  918MOL0     H23884   3.904   6.085   4.457 -0.6946  0.6680  0.7275
  918MOL0     H23885   3.851   5.954   4.370 -0.2994  0.7399 -0.3984
  918MOL0     H23886   4.140   6.060   4.323 -0.0019  1.3287 -0.8974
  918MOL0     H23887   4.071   5.937   4.224 -0.3204  2.2537 -0.8259
  918MOL0     H23888   4.215   5.834   4.383  0.5178 -0.3379 -0.0122
  918MOL0     H23889   4.055   5.797   4.438 -0.0878 -0.3919  2.9246
  918MOL0     H23890   4.352   5.797   4.605 -2.2860  1.5376 -0.7826
  918MOL0     H23891   4.569   5.903   4.670 -0.2822 -0.7157  1.5781
  918MOL0     H23892   4.900   6.185   4.510  0.1400  1.4707  0.4205
  918MOL0     H23893   5.125   6.223   4.557  2.3045  1.5043  1.7684
  918MOL0     H23894   5.322   6.215   4.618 -1.6424 -1.0806  1.8108
  918MOL0     H23895   5.283   6.371   4.678  3.2902  2.0314 -1.5721
  918MOL0     H23896   5.504   6.379   4.773  1.3432  0.8073 -2.5665
  918MOL0     H23897   5.504   6.205   4.815  0.1998  0.3519 -0.7542
  918MOL0     H23898   5.507   6.316   4.546 -0.9380  0.6532  0.7862
  918MOL0     H23899   5.664   6.292   4.628 -0.0434  1.3570 -2.3445
  918MOL0     H23900   5.495   6.043   4.616  2.6506 -3.3520  0.0893
  918MOL0     H23901   5.654   6.067   4.640 -0.3539  1.8286  1.0316
  918MOL0     H23902   5.616   5.972   4.423  1.0224  0.1318 -0.0687
  918MOL0     H23903   5.678   6.143   4.386  0.2848  0.4357  0.1459
  918MOL0     H23904   5.394   6.048   4.357  0.3038 -1.3148 -3.0130
  918MOL0     H23905   5.447   6.215   4.348  2.4903  1.2099 -1.4502
  918MOL0     H23906   5.559   5.993   4.162 -1.9242 -0.3413 -1.9278
  918MOL0     H23907   5.571   6.170   4.136  1.9764 -1.7139 -0.5299
  918MOL0     H23908   5.407   6.045   4.005 -0.8739 -3.2539  1.0626
  918MOL0     H23909   5.317   5.991   4.155  2.4336 -1.1127  2.2441
  918MOL0     H23910   5.072   6.139   4.982 -0.9305  1.2118 -0.4064
  918MOL0     H23911   4.835   6.069   4.917  1.0324 -1.6095 -0.9086
  918MOL0     H23912   4.389   6.291   4.609  0.6942 -0.6081  1.4762
  918MOL0     H23913   4.171   6.188   4.564 -2.6441 -2.4424  0.4768
  918MOL0     H23914   2.937   7.189   4.542  0.1089  0.4727  1.3653
  918MOL0     H23915   2.764   7.272   4.709 -1.7901  2.2347 -2.3967
  918MOL0     H23916   2.361   7.041   5.052 -0.2334  1.5201  3.3310
  918MOL0     H23917   2.144   7.096   5.162 -0.1684 -2.2663 -0.7249
  918MOL0     H23918   1.895   7.099   5.127  0.0099 -2.0374 -2.2648
  918MOL0     H23919   1.891   7.117   4.954 -5.0320  1.8852 -1.7253
  918MOL0     H23920   1.744   7.320   5.111 -2.2265  1.3135  0.6077
  918MOL0     H23921   1.687   7.160   5.093 -0.5797  1.3879  1.3703
  918MOL0     H23922   1.680   7.188   4.843  2.4983 -0.5439 -1.5099
  918MOL0     H23923   1.792   7.315   4.840 -0.2018  0.2039 -1.0606
  918MOL0     H23924   1.611   7.470   4.954 -1.9672  0.5424  0.0684
  918MOL0     H23925   1.585   7.396   4.795  0.3603  1.0594  0.2908
  918MOL0     H23926   1.272   7.195   4.972 -1.8070  2.1989 -2.5492
  918MOL0     H23927   2.069   7.393   4.877 -2.0557 -1.6150 -0.0228
  918MOL0     H23928   2.219   7.466   4.721 -0.3958  0.0158  2.7095
  918MOL0     H23929   2.381   7.458   4.765  0.0172  1.0574 -2.1923
  918MOL0     H23930   2.315   7.339   4.651 -3.8686 -3.8693  1.1652
  919MOL0     O23931   1.322   7.612  10.741  0.5611  0.2373 -0.2431
  919MOL0     C23932   1.199   7.612  10.726  0.9751  0.2474 -0.2221
  919MOL0     O23933   1.105   7.641  10.825  0.1145 -0.5056  0.7744
  919MOL0     C23934   1.134   7.650  10.961  0.6332 -0.2416  0.3145
  919MOL0     C23935   1.264   7.671  11.015  0.2588 -0.3627  0.2775
  919MOL0     C23936   1.274   7.670  11.158 -1.0296  0.3235  0.8988
  919MOL0     C23937   1.160   7.667  11.237 -0.4335  0.7036  0.0335
  919MOL0     O23938   1.184   7.681  11.370  0.0237  0.0127  0.2987
  919MOL0     C23939   1.106   7.601  11.466  0.2186  0.2992 -0.2553
  919MOL0     C23940   1.002   7.698  11.534  0.3676  0.4228  0.5830
  919MOL0     C23941   0.959   7.664  11.680  0.0535  0.6945  0.3053
  919MOL0     C23942   0.953   7.512  11.723  0.7836 -0.5953  0.8066
  919MOL0     C23943   0.835   7.434  11.661  0.3495  0.1119  0.0632
  919MOL0     C23944   0.810   7.301  11.717  1.0424 -0.3000  0.3330
  919MOL0     C23945   0.701   7.226  11.634  0.0697 -0.0500 -0.6798
  919MOL0     C23946   0.741   7.192  11.489 -0.2248  0.5471  1.1804
  919MOL0     N23947   0.634   7.117  11.413  0.1841  0.3526  0.0769
  919MOL0     C23948   0.530   7.167  11.335 -0.5170 -0.2122 -0.1629
  919MOL0     C23949   0.483   7.061  11.262 -0.2677  1.0522  0.8942
  919MOL0     C23950   0.366   7.057  11.156  0.3642  0.0525  0.7346
  919MOL0     C23951   0.234   6.978  11.194 -0.9314 -0.2760  0.3556
  919MOL0     C23952   0.248   6.828  11.177  0.5904  0.3205  0.6506
  919MOL0     C23953   0.110   6.773  11.160 -0.2302  0.1962 -0.1464
  919MOL0     O23954   0.032   6.771  11.282 -0.4770  0.2915  0.2991
  919MOL0     C23955  -0.101   6.751  11.281  0.0832 -0.2762  0.5257
  919MOL0     C23956  -0.180   6.702  11.172  0.3892  0.0115 -0.3058
  919MOL0     C23957  -0.319   6.681  11.189 -0.4161  0.6039 -0.1302
  919MOL0     C23958  -0.372   6.687  11.318  0.3566 -0.0838 -0.7520
  919MOL0     C23959  -0.521   6.658  11.346 -0.0318  0.1825 -0.1799
  919MOL0     O23960  -0.603   6.596  11.245  0.0155 -0.3357 -0.0993
  919MOL0     C23961  -0.732   6.576  11.266  0.8394 -0.0699  0.2638
  919MOL0     C23962  -0.786   6.453  11.230  0.0600 -0.2346  0.2262
  919MOL0     C23963  -0.926   6.424  11.232 -0.4605 -0.1633 -0.1317
  919MOL0     C23964  -1.009   6.531  11.266  0.0622  0.2562  0.4489
  919MOL0     O23965  -1.139   6.499  11.277  0.2119 -0.4101 -0.0911
  919MOL0     C23966  -1.233   6.605  11.254 -0.0543 -0.1043 -0.5007
  919MOL0     C23967  -1.374   6.546  11.229  0.5714  0.2130 -0.1041
  919MOL0     C23968  -1.372   6.453  11.108  0.3454 -0.1033 -0.7065
  919MOL0     C23969  -1.492   6.357  11.095  0.6482 -0.1567 -0.6179
  919MOL0     C23970  -1.624   6.429  11.095  0.2978  0.1065 -0.9997
  919MOL0     C23971  -1.671   6.463  10.953 -0.0537 -0.2834  0.7527
  919MOL0     C23972  -1.819   6.507  10.951  0.3185  0.6514 -0.7666
  919MOL0     C23973  -1.838   6.537  10.799 -0.9213 -0.5702 -0.0136
  919MOL0    Cl23974  -2.017   6.531  10.779 -0.2973  0.5956  0.4900
  919MOL0     C23975  -0.957   6.657  11.303 -0.3881 -0.7804 -1.0131
  919MOL0     C23976  -0.818   6.681  11.299  0.2464 -0.8605  0.6926
  919MOL0     O23977  -0.557   6.692  11.458 -0.2645 -0.5519  1.0576
  919MOL0     C23978  -0.291   6.726  11.430  0.6868 -0.0609  0.3076
  919MOL0     C23979  -0.160   6.761  11.400  0.9355 -0.6798  0.0029
  919MOL0     N23980   0.555   6.947  11.306  0.3681 -0.4317  0.2625
  919MOL0     N23981   0.635   6.975  11.406  0.1659  0.1294  0.4400
  919MOL0     C23982   1.032   7.659  11.179 -0.0824 -0.1389  0.5960
  919MOL0     C23983   1.021   7.643  11.042 -0.6731 -0.0957 -0.1347
  919MOL0     C23984   1.157   7.578  10.585  0.4113  0.3236  0.0698
  919MOL0     C23985   1.261   7.551  10.492 -0.7284 -0.2910 -0.3012
  919MOL0     C23986   1.243   7.499  10.368 -0.4631 -0.6004  0.5280
  919MOL0     C23987   1.112   7.477  10.321  0.4360  0.0967  0.4610
  919MOL0     O23988   1.079   7.407  10.205 -0.2929  0.6223  0.1189
  919MOL0     C23989   1.177   7.334  10.118  0.9483  0.2321 -1.1739
  919MOL0     C23990   1.272   7.429  10.051 -0.0395 -0.6797 -0.3692
  919MOL0     C23991   1.341   7.404   9.915  0.3624  0.1587  0.0529
  919MOL0     C23992   1.432   7.278   9.922  0.3376 -0.0135  0.1354
  919MOL0     C23993   1.556   7.304  10.005 -0.3341  0.0014  0.2011
  919MOL0     C23994   1.655   7.320  10.071  0.6444 -0.2401 -0.9133
  919MOL0     C23995   1.002   7.513  10.407 -0.4784 -0.3861  0.8701
  919MOL0     C23996   1.024   7.562  10.542 -0.4274  0.2220  0.1893
  919MOL0     C23997   0.920   7.623  10.620  0.4570  0.9120 -0.2138
  919MOL0     H23998   1.355   7.690  10.959 -0.7410 -1.3682 -1.8192
  919MOL0     H23999   1.374   7.684  11.199 -0.0473 -0.8897 -0.8931
  919MOL0     H24000   1.055   7.525  11.406 -2.0194  3.2833 -2.5178
  919MOL0     H24001   1.171   7.550  11.536 -1.2991 -2.5932 -0.8072
  919MOL0     H24002   0.910   7.698  11.476  0.5826  0.4847  0.2409
  919MOL0     H24003   1.032   7.803  11.530 -0.1080  0.5389 -0.1103
  919MOL0     H24004   0.860   7.709  11.687  0.4777  1.8653 -0.8408
  919MOL0     H24005   1.029   7.715  11.747  0.5812 -0.6195  0.7981
  919MOL0     H24006   1.041   7.455  11.694  0.3538 -0.4813 -0.7940
  919MOL0     H24007   0.935   7.511  11.831  1.7628 -0.7583  0.9789
  919MOL0     H24008   0.750   7.503  11.668  0.5186  0.3130  0.1635
  919MOL0     H24009   0.865   7.419  11.557 -1.1824  0.9664 -0.5488
  919MOL0     H24010   0.907   7.252  11.705  0.9710 -0.4619  0.4137
  919MOL0     H24011   0.787   7.298  11.824  1.5330 -1.1977  0.4278
  919MOL0     H24012   0.605   7.278  11.635 -0.9922 -1.9142 -0.3201
  919MOL0     H24013   0.687   7.134  11.692  3.6768 -0.4340 -0.1409
  919MOL0     H24014   0.757   7.287  11.437 -0.1787  1.2859  2.5073
  919MOL0     H24015   0.837   7.140  11.488  0.4459  1.6814 -1.1558
  919MOL0     H24016   0.496   7.270  11.325  3.3730  1.1086 -1.9485
  919MOL0     H24017   0.337   7.156  11.122  3.5632  0.1291 -2.2893
  919MOL0     H24018   0.409   7.007  11.069  1.6473  0.0158  1.3649
  919MOL0     H24019   0.208   6.994  11.299 -1.0781  1.7155  0.0500
  919MOL0     H24020   0.152   7.021  11.135  0.2529 -0.9558 -1.9018
  919MOL0     H24021   0.289   6.770  11.260 -0.6849 -3.1047 -0.9146
  919MOL0     H24022   0.303   6.808  11.085  0.7076  0.7752  0.6203
  919MOL0     H24023   0.132   6.674  11.120  3.2315  1.8675 -2.9787
  919MOL0     H24024   0.056   6.828  11.082 -0.8078  1.5089  1.1147
  919MOL0     H24025  -0.140   6.694  11.071 -0.9076  0.5175 -0.8781
  919MOL0     H24026  -0.363   6.644  11.097  1.9254 -2.7900 -0.0633
  919MOL0     H24027  -0.713   6.380  11.196 -0.5252 -0.3290 -0.9063
  919MOL0     H24028  -0.962   6.325  11.206 -0.6685  0.4683 -2.4416
  919MOL0     H24029  -1.243   6.670  11.341  2.1794 -0.6373  0.2197
  919MOL0     H24030  -1.198   6.666  11.169  2.7230 -1.2927 -0.3317
  919MOL0     H24031  -1.414   6.501  11.320  0.4810 -0.1013 -0.2977
  919MOL0     H24032  -1.443   6.622  11.193 -0.5952 -0.3740  0.8254
  919MOL0     H24033  -1.373   6.522  11.023  1.7988  2.2570  1.0867
  919MOL0     H24034  -1.278   6.397  11.113  1.1003  1.0753 -1.4020
  919MOL0     H24035  -1.501   6.299  11.187  0.6608 -0.4402 -0.7945
  919MOL0     H24036  -1.475   6.287  11.013  1.0146 -0.9437  0.1095
  919MOL0     H24037  -1.610   6.523  11.150 -0.9226  0.2405 -0.8847
  919MOL0     H24038  -1.703   6.369  11.141 -0.5518  1.1373 -1.0681
  919MOL0     H24039  -1.616   6.548  10.914 -0.8269 -0.0481  0.1351
  919MOL0     H24040  -1.648   6.373  10.895  0.8409  0.0262  0.6163
  919MOL0     H24041  -1.850   6.592  11.013 -3.3383 -0.4154 -0.9035
  919MOL0     H24042  -1.878   6.417  10.975 -0.5353  2.2581  4.4028
  919MOL0     H24043  -1.787   6.631  10.775  0.6075 -1.1499  0.8416
  919MOL0     H24044  -1.792   6.463  10.733 -1.9247 -0.0227 -1.3768
  919MOL0     H24045  -1.013   6.739  11.347  0.1788 -2.6763  3.8277
  919MOL0     H24046  -0.779   6.779  11.326  1.1964 -1.6974  2.6054
  919MOL0     H24047  -0.339   6.736  11.527  0.7498 -1.2343  0.4699
  919MOL0     H24048  -0.087   6.794  11.473  0.7629 -1.4581  0.5395
  919MOL0     H24049   0.944   7.664  11.242 -2.0979 -2.7450 -1.7425
  919MOL0     H24050   0.925   7.659  10.995  0.7698  2.1022 -2.6706
  919MOL0     H24051   1.365   7.567  10.519 -0.4850 -1.4506 -0.4756
  919MOL0     H24052   1.344   7.479  10.333 -0.8868  0.6351 -1.5556
  919MOL0     H24053   1.119   7.276  10.046 -1.7316  1.0009  0.2282
  919MOL0     H24054   1.230   7.259  10.177 -4.0739 -2.5482  0.3300
  919MOL0     H24055   1.355   7.452  10.119 -1.9057 -1.1121  2.1998
  919MOL0     H24056   1.212   7.520  10.039 -0.3508 -1.1541 -2.8287
  919MOL0     H24057   1.400   7.495   9.906  1.3592 -0.4802  0.0043
  919MOL0     H24058   1.252   7.383   9.855 -0.2102  2.7099 -0.1031
  919MOL0     H24059   1.369   7.196   9.958  0.4605 -0.4217 -0.5665
  919MOL0     H24060   1.453   7.259   9.817 -0.0702  2.1299 -0.3743
  919MOL0     H24061   1.739   7.319  10.138 -1.8303  0.4446  2.4377
  919MOL0     H24062   0.900   7.499  10.372  0.2021 -0.4338 -1.2576
  919MOL0     H24063   0.953   7.724  10.648  2.0604  0.6119 -0.9542
  919MOL0     H24064   0.836   7.640  10.552  0.5185  1.8415 -0.0753
  919MOL0     H24065   0.898   7.555  10.703  2.7506  0.1735 -0.1479
  920MOL0     O24066   7.672  10.718   2.297  0.5807  0.2672 -0.7139
  920MOL0     C24067   7.639  10.805   2.217 -0.1889 -0.2298  1.0567
  920MOL0     O24068   7.721  10.855   2.112 -0.2911  0.6382 -0.1082
  920MOL0     C24069   7.850  10.803   2.123  0.1553 -0.3116  0.2944
  920MOL0     C24070   7.893  10.684   2.068  0.6872 -0.0680  1.0903
  920MOL0     C24071   8.023  10.645   2.080  1.2633  0.1389  1.0938
  920MOL0     C24072   8.116  10.728   2.142 -0.9225 -0.0002 -0.2549
  920MOL0     O24073   8.246  10.686   2.150 -0.3911 -0.8187 -0.1681
  920MOL0     C24074   8.272  10.546   2.198  0.0794 -0.1581  0.1617
  920MOL0     C24075   8.423  10.539   2.214  1.0503 -0.5710  0.0755
  920MOL0     C24076   8.475  10.607   2.343  0.6925  0.3238  0.6132
  920MOL0     C24077   8.609  10.551   2.395 -0.2739  0.3264 -0.0394
  920MOL0     C24078   8.676  10.632   2.507  0.6774 -0.2243  0.0543
  920MOL0     C24079   8.617  10.584   2.639 -0.9445 -0.3098 -0.5627
  920MOL0     C24080   8.680  10.655   2.759  0.1062 -0.4280  1.0184
  920MOL0     C24081   8.608  10.599   2.883  0.1157  0.4698 -0.0813
  920MOL0     N24082   8.647  10.656   3.010 -0.9055 -1.1535  0.1500
  920MOL0     C24083   8.680  10.786   3.034  0.9672  0.1080  0.4206
  920MOL0     C24084   8.703  10.792   3.166 -0.7611 -0.0701 -0.3329
  920MOL0     C24085   8.734  10.910   3.247 -0.5989  0.3848  0.5816
  920MOL0     C24086   8.610  10.997   3.280  0.5086  1.4193  0.2009
  920MOL0     C24087   8.648  11.139   3.333 -0.8396  0.2921 -0.1703
  920MOL0     C24088   8.527  11.222   3.363 -0.2038  0.7990 -0.0281
  920MOL0     O24089   8.444  11.221   3.240 -0.2709  0.0318  0.1841
  920MOL0     C24090   8.386  11.333   3.186 -0.0821 -1.0399  0.1112
  920MOL0     C24091   8.334  11.343   3.058  0.1904 -0.2849  0.2556
  920MOL0     C24092   8.272  11.461   3.006 -0.2718  1.2867  0.1304
  920MOL0     C24093   8.262  11.576   3.094  0.1881  0.4664 -0.2057
  920MOL0     C24094   8.189  11.694   3.044 -0.6555 -0.2306  0.3904
  920MOL0     O24095   8.186  11.808   3.121  0.1099  0.6770  0.2354
  920MOL0     C24096   8.122  11.916   3.068  0.4648 -0.8330  0.4269
  920MOL0     C24097   7.984  11.950   3.066 -0.0159 -0.3822 -0.3539
  920MOL0     C24098   7.935  12.066   3.004  0.0736 -1.2772 -0.6520
  920MOL0     C24099   8.024  12.174   2.956 -0.5879 -0.0200  0.3645
  920MOL0     O24100   8.000  12.295   2.905  0.3155  0.4687 -0.1727
  920MOL0     C24101   7.862  12.325   2.880 -0.8469  0.0937  0.0513
  920MOL0     C24102   7.855  12.453   2.790 -0.2408  0.4765  0.3002
  920MOL0     C24103   7.711  12.482   2.753  0.1985  0.3138 -0.6838
  920MOL0     C24104   7.681  12.605   2.667 -0.4666 -0.8116  0.3973
  920MOL0     C24105   7.530  12.635   2.648  0.8024  0.1363 -0.2448
  920MOL0     C24106   7.503  12.765   2.563  0.3213 -0.7483  0.6122
  920MOL0     C24107   7.351  12.774   2.534 -0.0350 -0.8207 -0.3163
  920MOL0     C24108   7.284  12.877   2.633  0.0381 -0.7594  0.8295
  920MOL0    Cl24109   7.359  13.033   2.589 -0.0098  0.2488 -0.2725
  920MOL0     C24110   8.161  12.139   2.969  0.4820  0.4505  0.4252
  920MOL0     C24111   8.209  12.020   3.018 -0.1580  0.0981 -0.0863
  920MOL0     O24112   8.125  11.678   2.939 -0.7453 -0.6709  0.6584
  920MOL0     C24113   8.296  11.560   3.226 -0.4069 -0.3387 -0.4193
  920MOL0     C24114   8.363  11.451   3.273  0.2985 -0.6409  0.3794
  920MOL0     N24115   8.677  10.664   3.217  0.7142 -0.3282  0.5988
  920MOL0     N24116   8.653  10.586   3.126  0.6259  0.4262  0.1555
  920MOL0     C24117   8.079  10.861   2.181 -0.6885  0.8399 -0.9247
  920MOL0     C24118   7.948  10.895   2.174 -0.5373  0.8719  1.1378
  920MOL0     C24119   7.502  10.862   2.219 -0.0434  0.1645  0.5125
  920MOL0     C24120   7.478  10.967   2.124 -0.0373 -0.4426 -0.3595
  920MOL0     C24121   7.364  11.045   2.114  0.6531 -0.8553 -1.0427
  920MOL0     C24122   7.269  11.019   2.218  0.4141  0.3275  0.1744
  920MOL0     O24123   7.132  11.056   2.199 -0.1578  0.0689 -0.0871
  920MOL0     C24124   7.123  11.191   2.152 -0.2013  0.2162 -1.3345
  920MOL0     C24125   7.113  11.283   2.279  0.2019 -0.7794  0.5743
  920MOL0     C24126   7.021  11.238   2.398 -0.7004  0.3698 -0.0312
  920MOL0     C24127   6.868  11.256   2.367 -0.8117  0.8069 -0.1862
  920MOL0     C24128   6.816  11.122   2.314  0.4093 -0.6618 -0.2988
  920MOL0     C24129   6.787  11.008   2.263  1.3309  0.2955 -0.1101
  920MOL0     C24130   7.303  10.930   2.322  0.7237 -0.7857  0.4140
  920MOL0     C24131   7.415  10.847   2.321 -0.2996 -0.2069  0.1806
  920MOL0     C24132   7.426  10.737   2.420 -0.7287  0.9853  0.7190
  920MOL0     H24133   7.816  10.627   2.017  0.4682 -2.0422  3.4718
  920MOL0     H24134   8.064  10.552   2.041  2.2588  0.1890  1.9600
  920MOL0     H24135   8.232  10.525   2.298  0.2238  2.8485  0.9310
  920MOL0     H24136   8.241  10.473   2.122 -0.7091  2.6156 -2.3682
  920MOL0     H24137   8.453  10.608   2.134 -4.3531  0.8848 -1.1092
  920MOL0     H24138   8.447  10.434   2.191 -1.9152 -0.9654 -1.8216
  920MOL0     H24139   8.398  10.597   2.420  0.6278 -0.0990  0.4933
  920MOL0     H24140   8.486  10.712   2.314 -0.2614  0.2697  0.0245
  920MOL0     H24141   8.587  10.449   2.428  0.7228  0.1841  0.2163
  920MOL0     H24142   8.677  10.549   2.309  3.4046 -0.1874  2.6230
  920MOL0     H24143   8.785  10.624   2.509  1.1257  3.5346 -0.7918
  920MOL0     H24144   8.655  10.739   2.493 -1.7371 -0.2208  2.8374
  920MOL0     H24145   8.508  10.586   2.643 -1.1011 -2.0650 -2.3963
  920MOL0     H24146   8.648  10.479   2.646 -0.2055 -0.0022  2.1556
  920MOL0     H24147   8.660  10.763   2.756 -0.0515 -0.4640 -1.5139
  920MOL0     H24148   8.786  10.632   2.766 -0.0498 -1.9363 -0.7298
  920MOL0     H24149   8.501  10.618   2.876 -0.1625 -0.5727  1.0680
  920MOL0     H24150   8.613  10.490   2.884  2.4007  0.4748 -1.6510
  920MOL0     H24151   8.694  10.855   2.951 -1.0433  0.2070  0.1141
  920MOL0     H24152   8.786  10.864   3.332  1.2805 -4.7616 -2.8805
  920MOL0     H24153   8.811  10.976   3.205 -0.0951  0.6428  1.8473
  920MOL0     H24154   8.556  11.025   3.189 -2.1263  1.8918  1.8055
  920MOL0     H24155   8.538  10.953   3.349  0.6641  0.4924 -0.2227
  920MOL0     H24156   8.701  11.197   3.258 -0.2725  2.4929  1.7898
  920MOL0     H24157   8.707  11.143   3.426 -0.6149  0.5794 -0.3219
  920MOL0     H24158   8.559  11.320   3.399  2.3636  1.1526 -2.9309
  920MOL0     H24159   8.475  11.174   3.447  0.3860 -0.5571 -0.4091
  920MOL0     H24160   8.363  11.261   2.993 -0.2575  0.3032 -0.7095
  920MOL0     H24161   8.244  11.473   2.902 -1.0973  1.6266  0.3809
  920MOL0     H24162   7.919  11.875   3.110  2.9329 -2.1322  1.3884
  920MOL0     H24163   7.830  12.076   2.980  0.4300 -1.4101 -2.3956
  920MOL0     H24164   7.810  12.235   2.845  1.8872 -2.4191  1.8882
  920MOL0     H24165   7.815  12.349   2.976  0.0821 -0.4349  0.6508
  920MOL0     H24166   7.906  12.534   2.844  3.2474  0.4324 -2.5192
  920MOL0     H24167   7.912  12.432   2.699 -0.1666  2.3746 -0.1253
  920MOL0     H24168   7.667  12.394   2.704  0.5969 -1.9839  2.7215
  920MOL0     H24169   7.663  12.480   2.851  4.5072  0.7269  1.6696
  920MOL0     H24170   7.734  12.585   2.574  1.1181  0.1503  1.0599
  920MOL0     H24171   7.716  12.700   2.709  2.0516 -1.0036 -1.0996
  920MOL0     H24172   7.482  12.638   2.746  3.9517  0.1378  1.3960
  920MOL0     H24173   7.487  12.548   2.596 -1.6857  1.2401 -0.2053
  920MOL0     H24174   7.548  12.850   2.615 -0.3256  0.5507 -0.8953
  920MOL0     H24175   7.558  12.761   2.468 -0.6687  3.0104 -0.2477
  920MOL0     H24176   7.302  12.677   2.526 -2.6767  0.4337 -0.7839
  920MOL0     H24177   7.339  12.829   2.439 -1.6366 -1.0046 -0.2589
  920MOL0     H24178   7.175  12.883   2.630  0.0914  2.6386  1.6737
  920MOL0     H24179   7.317  12.851   2.734 -0.4666 -0.4390  1.0806
  920MOL0     H24180   8.234  12.209   2.930  0.1548  0.2372 -0.6156
  920MOL0     H24181   8.316  12.003   3.006  0.3975  3.8823 -1.7641
  920MOL0     H24182   8.280  11.643   3.294  2.8741 -1.0481  1.4212
  920MOL0     H24183   8.397  11.456   3.376 -1.3383  1.0212  0.8969
  920MOL0     H24184   8.147  10.937   2.219 -0.2375  1.0670 -2.1144
  920MOL0     H24185   7.910  10.990   2.210 -1.1886  1.0488  0.0369
  920MOL0     H24186   7.547  10.989   2.044  1.1799 -1.6431  0.2981
  920MOL0     H24187   7.356  11.111   2.028 -0.3184 -1.9865 -1.8692
  920MOL0     H24188   7.028  11.199   2.097 -1.5975 -0.5010  0.8484
  920MOL0     H24189   7.212  11.223   2.098 -0.4697  1.7535 -0.9117
  920MOL0     H24190   7.086  11.384   2.246 -1.1700 -1.5188 -0.6769
  920MOL0     H24191   7.211  11.293   2.326  2.3799  1.0385 -3.8053
  920MOL0     H24192   7.050  11.288   2.490 -0.6069 -2.1644  1.4222
  920MOL0     H24193   7.036  11.130   2.414 -1.4167  0.2923  0.1641
  920MOL0     H24194   6.809  11.293   2.451 -1.3327  1.3908 -0.7957
  920MOL0     H24195   6.857  11.332   2.289  1.7728  3.3006  1.6823
  920MOL0     H24196   6.766  10.929   2.195  1.4255  1.0782 -1.0680
  920MOL0     H24197   7.224  10.907   2.392  1.0758  0.5731  1.2898
  920MOL0     H24198   7.458  10.638   2.387  0.7125  2.1374 -1.6585
  920MOL0     H24199   7.495  10.776   2.495 -0.9586 -0.0041  1.4637
  920MOL0     H24200   7.331  10.720   2.471 -1.9572 -0.8834 -1.9368
  921MOL0     O24201   3.185  11.105   8.030  0.3891  0.3403  0.4484
  921MOL0     C24202   3.253  11.158   7.942 -0.8337 -0.0835  0.5885
  921MOL0     O24203   3.213  11.269   7.873 -0.2240  0.3571 -0.3373
  921MOL0     C24204   3.087  11.318   7.882 -0.0328  0.0709  0.1803
  921MOL0     C24205   3.076  11.452   7.870  0.4217 -0.2111  0.4118
  921MOL0     C24206   2.953  11.518   7.873  0.9983 -0.2472  0.3506
  921MOL0     C24207   2.833  11.447   7.885 -0.5391 -0.0730 -0.1544
  921MOL0     O24208   2.713  11.515   7.874 -0.3870 -0.3712  0.1597
  921MOL0     C24209   2.664  11.510   7.737  0.0356 -0.0509  0.9119
  921MOL0     C24210   2.531  11.585   7.736 -0.1099 -0.7880 -0.6686
  921MOL0     C24211   2.445  11.540   7.859  0.7638 -0.3567  0.1485
  921MOL0     C24212   2.299  11.564   7.850 -0.7635 -2.0418 -0.6783
  921MOL0     C24213   2.221  11.612   7.978  0.3991 -0.2040  0.8730
  921MOL0     C24214   2.254  11.754   8.025 -0.3965 -0.9778 -0.3091
  921MOL0     C24215   2.126  11.822   8.071  1.1885  0.7125  0.5017
  921MOL0     C24216   2.158  11.940   8.158  0.7737 -0.0456 -0.0363
  921MOL0     N24217   2.031  12.013   8.198 -0.4808 -0.6188 -0.1309
  921MOL0     C24218   2.030  12.114   8.295  0.4338  0.6580  0.1780
  921MOL0     C24219   1.897  12.127   8.324  0.8149 -0.7471 -0.4633
  921MOL0     C24220   1.821  12.232   8.403 -0.2917 -0.0974 -0.7150
  921MOL0     C24221   1.844  12.199   8.554  0.1822 -0.5940 -0.5877
  921MOL0     C24222   1.812  12.058   8.598  0.8813  0.6179 -0.1819
  921MOL0     C24223   1.664  12.012   8.577 -0.5164  0.3641 -0.5797
  921MOL0     O24224   1.580  12.101   8.649  0.4183  0.2531  0.6391
  921MOL0     C24225   1.445  12.071   8.627 -0.1649 -0.2438  0.1307
  921MOL0     C24226   1.352  12.178   8.659  0.6156 -0.8755  0.2823
  921MOL0     C24227   1.214  12.171   8.641 -0.7958  0.0442  0.3928
  921MOL0     C24228   1.163  12.044   8.601  0.3589 -0.2148  0.1140
  921MOL0     C24229   1.015  12.036   8.563 -0.2014 -0.0289  0.0499
  921MOL0     O24230   0.977  11.964   8.452  0.3466 -0.2251  0.4834
  921MOL0     C24231   0.839  11.969   8.419 -0.7404 -0.6386  0.7172
  921MOL0     C24232   0.753  11.862   8.429 -0.4788  0.0075  0.1573
  921MOL0     C24233   0.625  11.871   8.396  0.4183  0.4042 -0.4583
  921MOL0     C24234   0.565  11.994   8.352 -0.4905 -0.9884 -0.7044
  921MOL0     O24235   0.435  11.997   8.308 -0.1341  0.0350 -0.5453
  921MOL0     C24236   0.348  11.882   8.311 -0.4819  0.1584 -0.2543
  921MOL0     C24237   0.204  11.905   8.253  0.0939  0.2820 -1.0526
  921MOL0     C24238   0.122  11.775   8.245 -0.0042  0.5251  0.6808
  921MOL0     C24239   0.173  11.678   8.125 -0.6946  0.0561  0.1931
  921MOL0     C24240   0.102  11.547   8.091  0.3445  0.6367  0.6270
  921MOL0     C24241  -0.050  11.557   8.036 -1.3851  0.8061 -0.6465
  921MOL0     C24242  -0.117  11.421   8.045 -1.0888 -0.5998 -0.6721
  921MOL0     C24243  -0.244  11.413   7.952  0.1860  0.1586  0.1004
  921MOL0    Cl24244  -0.382  11.500   8.015  0.6372 -0.2301 -0.9215
  921MOL0     C24245   0.650  12.104   8.333 -0.5162 -0.5336 -0.9640
  921MOL0     C24246   0.782  12.090   8.374 -0.3749 -0.1079  0.7140
  921MOL0     O24247   0.936  12.075   8.648 -0.2694 -0.1486 -0.0789
  921MOL0     C24248   1.251  11.943   8.557  0.6414  0.3400 -1.1053
  921MOL0     C24249   1.391  11.948   8.582  0.7794 -0.8801 -1.1476
  921MOL0     N24250   1.827  12.044   8.239 -0.4233 -0.2428  0.4771
  921MOL0     N24251   1.905  11.965   8.175  0.2093 -0.0495 -0.0222
  921MOL0     C24252   2.839  11.312   7.898 -0.8627 -0.1198  0.6701
  921MOL0     C24253   2.968  11.245   7.885  0.8048  0.1195  0.3241
  921MOL0     C24254   3.389  11.110   7.913  0.0143  0.6406 -0.1602
  921MOL0     C24255   3.451  11.174   7.801  0.0265 -0.5144  1.1149
  921MOL0     C24256   3.578  11.133   7.757  0.0020  0.3217 -0.1938
  921MOL0     C24257   3.641  11.020   7.803 -0.0413 -0.4412 -0.9398
  921MOL0     O24258   3.760  10.983   7.741  0.0696  0.7004  0.0478
  921MOL0     C24259   3.798  10.839   7.731 -0.4408  0.2250  0.1259
  921MOL0     C24260   3.924  10.822   7.655  0.4847  0.5368  0.6288
  921MOL0     C24261   3.912  10.856   7.505  0.5948 -0.5385  0.6075
  921MOL0     C24262   3.854  10.754   7.406  0.6709  0.0677  0.1637
  921MOL0     C24263   3.922  10.631   7.416  0.1217  0.3547 -0.4976
  921MOL0     C24264   3.979  10.523   7.427  0.1602  0.1858  0.2660
  921MOL0     C24265   3.584  10.966   7.917  0.7139  0.3741  0.6820
  921MOL0     C24266   3.459  11.006   7.972  0.1808 -0.1565  0.1571
  921MOL0     C24267   3.412  10.925   8.096 -0.2306  0.1352 -0.6202
  921MOL0     H24268   3.173  11.496   7.886  1.5271 -2.5350  0.5285
  921MOL0     H24269   2.959  11.626   7.876  0.8318 -0.1215 -2.0610
  921MOL0     H24270   2.739  11.539   7.663  1.6323 -2.0624  1.6566
  921MOL0     H24271   2.637  11.410   7.704  0.3017 -0.1891  1.1110
  921MOL0     H24272   2.478  11.563   7.642  0.3509 -2.8277 -0.4909
  921MOL0     H24273   2.566  11.688   7.734  0.6129 -0.9847  0.9220
  921MOL0     H24274   2.480  11.600   7.944 -1.6186  1.0685  0.1999
  921MOL0     H24275   2.471  11.439   7.891  2.0692 -0.2471 -0.4542
  921MOL0     H24276   2.270  11.633   7.771  1.2972  0.8563  0.9100
  921MOL0     H24277   2.267  11.462   7.825 -1.5597 -3.2116  4.2325
  921MOL0     H24278   2.117  11.618   7.944  1.6555  3.8169 -3.2769
  921MOL0     H24279   2.242  11.541   8.058 -0.3221  0.3792  1.5927
  921MOL0     H24280   2.332  11.753   8.102  1.1115 -2.3804 -1.7628
  921MOL0     H24281   2.297  11.812   7.943  1.1180 -1.3046  0.2243
  921MOL0     H24282   2.062  11.751   8.125 -2.5459  4.2186  1.1031
  921MOL0     H24283   2.063  11.867   7.994  1.6523  3.3973  1.6079
  921MOL0     H24284   2.212  11.894   8.242 -0.5333  0.9606  1.4293
  921MOL0     H24285   2.209  12.014   8.097 -1.2721  2.1670  0.7668
  921MOL0     H24286   2.112  12.178   8.325  1.9397 -0.2438 -1.7521
  921MOL0     H24287   1.856  12.334   8.384 -0.4868  0.0499 -0.3027
  921MOL0     H24288   1.714  12.238   8.386 -0.3270 -1.2013 -0.9794
  921MOL0     H24289   1.946  12.225   8.581 -0.5692  0.7533  1.1360
  921MOL0     H24290   1.786  12.271   8.611 -0.4941 -2.7941  1.7025
  921MOL0     H24291   1.841  12.051   8.704  1.9363 -0.3828 -0.5250
  921MOL0     H24292   1.876  11.983   8.552  1.2447 -0.6241  2.1836
  921MOL0     H24293   1.641  11.906   8.595 -0.4483 -0.2232 -3.4036
  921MOL0     H24294   1.632  12.019   8.472  0.5377  0.6247 -0.9003
  921MOL0     H24295   1.396  12.271   8.694 -0.2607  0.5460 -2.1808
  921MOL0     H24296   1.154  12.256   8.672  1.7288  0.9649  3.3301
  921MOL0     H24297   0.786  11.765   8.463  1.0194  0.5070  0.1937
  921MOL0     H24298   0.563  11.782   8.397  2.6863 -1.2939 -1.1556
  921MOL0     H24299   0.391  11.805   8.246 -0.7442  0.5148 -0.8500
  921MOL0     H24300   0.350  11.847   8.415  0.4312  2.4694  0.5584
  921MOL0     H24301   0.162  11.983   8.318 -1.2566  2.0304 -3.7907
  921MOL0     H24302   0.220  11.946   8.152  0.3509 -2.8231 -2.3790
  921MOL0     H24303   0.130  11.723   8.341  0.9658 -0.4333  0.1028
  921MOL0     H24304   0.018  11.805   8.230  0.0718  0.3679 -0.2047
  921MOL0     H24305   0.278  11.654   8.142 -0.3041  1.8536  0.5334
  921MOL0     H24306   0.165  11.744   8.038  2.6928  0.8043  0.3164
  921MOL0     H24307   0.108  11.476   8.174  1.2283  1.6686  1.4795
  921MOL0     H24308   0.152  11.505   8.003 -0.4197  3.1049 -1.1219
  921MOL0     H24309  -0.104  11.636   8.090 -0.8882 -0.2879  1.5805
  921MOL0     H24310  -0.054  11.585   7.930 -1.2645  0.7723 -0.6599
  921MOL0     H24311  -0.147  11.404   8.149  1.3164 -2.8812 -0.2467
  921MOL0     H24312  -0.048  11.341   8.018  1.1175  1.9893 -3.3620
  921MOL0     H24313  -0.226  11.449   7.850 -1.4044  2.1160  0.4450
  921MOL0     H24314  -0.274  11.308   7.951 -1.6989  0.6733  0.3728
  921MOL0     H24315   0.607  12.199   8.300 -1.0320  0.7239  2.8825
  921MOL0     H24316   0.847  12.176   8.360 -2.2617  1.1785 -0.5264
  921MOL0     H24317   1.212  11.847   8.524  0.6381  0.1693 -0.6089
  921MOL0     H24318   1.445  11.857   8.558 -0.3855 -1.9135  0.0083
  921MOL0     H24319   2.739  11.269   7.896  0.0980 -2.4599 -0.9565
  921MOL0     H24320   2.967  11.136   7.891  0.5317  0.1367  0.6730
  921MOL0     H24321   3.412  11.261   7.751 -1.7193 -3.0056 -2.2618
  921MOL0     H24322   3.627  11.174   7.669 -0.1523  0.6925 -0.1104
  921MOL0     H24323   3.714  10.795   7.675  0.4569 -2.2199  0.5945
  921MOL0     H24324   3.801  10.792   7.829  2.2826  0.6427  0.3280
  921MOL0     H24325   3.951  10.718   7.675 -1.0699  0.5335  3.1821
  921MOL0     H24326   4.002  10.880   7.704 -0.2023  1.4832  0.6398
  921MOL0     H24327   4.010  10.879   7.463  0.7581 -2.1611  0.0330
  921MOL0     H24328   3.856  10.950   7.497 -2.7837 -2.4896 -0.5088
  921MOL0     H24329   3.745  10.753   7.419  0.0743  2.0186 -3.4858
  921MOL0     H24330   3.866  10.796   7.306 -3.4818 -0.4475 -0.7368
  921MOL0     H24331   4.023  10.426   7.441 -0.1586  0.2389  1.8968
  921MOL0     H24332   3.640  10.898   7.981  1.4368  2.3446  2.2663
  921MOL0     H24333   3.325  10.870   8.059  0.3764 -0.6550 -0.8798
  921MOL0     H24334   3.487  10.854   8.129  1.4136  1.3457 -1.5842
  921MOL0     H24335   3.400  10.979   8.191  0.2139 -1.4269  0.3498
  922MOL0     O24336   2.741  10.635   7.634  0.4784 -0.6637  0.0720
  922MOL0     C24337   2.778  10.598   7.739 -0.6114 -0.7730  0.2186
  922MOL0     O24338   2.745  10.656   7.853  0.0367  0.7735 -1.1985
  922MOL0     C24339   2.636  10.743   7.867  0.1503  0.1601 -0.1941
  922MOL0     C24340   2.661  10.882   7.856 -0.0561 -0.6623 -0.0356
  922MOL0     C24341   2.550  10.974   7.871 -0.3180 -0.5953 -0.1656
  922MOL0     C24342   2.419  10.917   7.874  0.3241 -0.7029  0.5245
  922MOL0     O24343   2.305  11.000   7.855 -0.2433 -0.2447  0.3256
  922MOL0     C24344   2.178  10.960   7.783 -0.2272  0.2127 -0.5125
  922MOL0     C24345   2.088  11.071   7.731 -0.2075 -0.5810 -0.3145
  922MOL0     C24346   1.977  11.004   7.643  0.4904 -0.6287 -0.6072
  922MOL0     C24347   1.922  11.111   7.553 -0.4630 -0.2478  0.5465
  922MOL0     C24348   1.846  11.221   7.631 -0.3782 -0.1047  0.4709
  922MOL0     C24349   1.751  11.288   7.542 -0.8187  0.4866  0.8786
  922MOL0     C24350   1.658  11.390   7.604  0.5359 -0.2346  0.2414
  922MOL0     C24351   1.543  11.435   7.508 -0.7703  0.0501 -1.0453
  922MOL0     N24352   1.594  11.467   7.376  0.7099  0.2586 -0.1035
  922MOL0     C24353   1.674  11.573   7.352 -0.4491 -0.0328  0.0605
  922MOL0     C24354   1.710  11.568   7.222  0.7822  0.1966 -0.6837
  922MOL0     C24355   1.797  11.649   7.140  0.1972 -0.2852 -0.2361
  922MOL0     C24356   1.947  11.644   7.181 -0.4033 -0.1629 -0.1099
  922MOL0     C24357   2.017  11.759   7.114 -0.8774 -0.1589  0.7822
  922MOL0     C24358   2.162  11.790   7.159 -0.0748  0.0332  0.1354
  922MOL0     O24359   2.240  11.668   7.158  0.9982 -0.0454 -0.2560
  922MOL0     C24360   2.367  11.665   7.223  0.9282 -0.0678 -0.3664
  922MOL0     C24361   2.396  11.749   7.332  0.1737  0.7044 -0.0821
  922MOL0     C24362   2.521  11.740   7.387 -0.4993 -0.5774  0.2407
  922MOL0     C24363   2.622  11.650   7.336 -0.8332 -0.6292 -0.2930
  922MOL0     C24364   2.751  11.628   7.399  0.4632  0.0035  0.2418
  922MOL0     O24365   2.811  11.736   7.451  0.1782 -0.3526 -0.3686
  922MOL0     C24366   2.943  11.729   7.447  0.2122 -0.0729 -0.3894
  922MOL0     C24367   3.027  11.631   7.509  0.2535 -0.2212 -0.2068
  922MOL0     C24368   3.172  11.643   7.512 -0.0746 -0.0134 -0.8519
  922MOL0     C24369   3.234  11.741   7.430 -0.4952 -1.2162  0.1798
  922MOL0     O24370   3.375  11.747   7.428  0.4424  0.6773 -0.3409
  922MOL0     C24371   3.456  11.840   7.351 -0.3047  0.0314  0.5661
  922MOL0     C24372   3.517  11.917   7.466 -0.2956  0.4384  0.9529
  922MOL0     C24373   3.570  12.051   7.421 -0.3319  0.0729  0.0593
  922MOL0     C24374   3.682  12.027   7.321  0.3320  0.0893 -0.0210
  922MOL0     C24375   3.760  12.151   7.293 -0.6814  0.4639  0.3175
  922MOL0     C24376   3.877  12.126   7.202  0.0255  0.5925 -0.0914
  922MOL0     C24377   3.960  12.252   7.186  0.6110  0.4669 -0.2219
  922MOL0     C24378   4.090  12.235   7.103 -0.3050  0.4641  0.3671
  922MOL0    Cl24379   4.197  12.131   7.205  0.2509  0.7797 -0.1558
  922MOL0     C24380   3.147  11.834   7.366  0.4430  0.5667 -0.2467
  922MOL0     C24381   3.007  11.829   7.388  0.9076 -0.3271 -0.5691
  922MOL0     O24382   2.799  11.515   7.382  0.0406 -0.6783  0.2612
  922MOL0     C24383   2.586  11.569   7.226 -0.4634  0.4851 -0.8774
  922MOL0     C24384   2.467  11.582   7.176  0.6477 -0.8860  0.9830
  922MOL0     N24385   1.646  11.459   7.168 -0.4240  0.0694  0.2245
  922MOL0     N24386   1.582  11.399   7.266  0.8418 -0.4707  0.3453
  922MOL0     C24387   2.397  10.777   7.876 -0.4929 -0.3409  0.6444
  922MOL0     C24388   2.509  10.695   7.878  0.0073  0.7233  0.1635
  922MOL0     C24389   2.894  10.500   7.742  0.1881  0.0675  0.0465
  922MOL0     C24390   2.956  10.474   7.866 -0.1162 -0.7828  0.3607
  922MOL0     C24391   3.067  10.397   7.877 -0.4562 -0.6075  0.9761
  922MOL0     C24392   3.135  10.356   7.760  0.1188  0.0328 -0.1451
  922MOL0     O24393   3.263  10.307   7.761  0.7557 -0.4984 -0.0352
  922MOL0     C24394   3.283  10.176   7.813 -0.0284  0.0110  0.3055
  922MOL0     C24395   3.387  10.096   7.734 -0.2502 -0.1811  0.5265
  922MOL0     C24396   3.370  10.117   7.587 -0.3549 -0.0943  0.1631
  922MOL0     C24397   3.469  10.043   7.500  1.0705 -0.1334  0.0878
  922MOL0     C24398   3.424   9.907   7.475 -0.3862  0.9772 -0.2655
  922MOL0     C24399   3.391   9.794   7.440 -0.0560  0.8849  1.5076
  922MOL0     C24400   3.068  10.374   7.637 -0.3360 -0.6761 -0.2606
  922MOL0     C24401   2.956  10.442   7.626 -0.0568 -0.2092 -0.6094
  922MOL0     C24402   2.901  10.452   7.492 -0.9490  0.1374 -0.0441
  922MOL0     H24403   2.756  10.929   7.833 -1.1625  2.7847  1.8098
  922MOL0     H24404   2.557  11.081   7.851 -2.0053 -0.7331 -1.7267
  922MOL0     H24405   2.204  10.905   7.692 -2.0179  0.8160 -1.4498
  922MOL0     H24406   2.119  10.903   7.856 -0.7064  0.7854 -0.4415
  922MOL0     H24407   2.141  11.148   7.675 -0.8323 -1.1723 -1.7693
  922MOL0     H24408   2.038  11.126   7.812 -2.3297 -0.7350 -1.4403
  922MOL0     H24409   1.896  10.970   7.709  0.0580  2.8974  0.9008
  922MOL0     H24410   2.007  10.923   7.576 -2.8681  1.1183 -4.6425
  922MOL0     H24411   2.000  11.153   7.489 -3.3209 -0.3601 -3.3994
  922MOL0     H24412   1.854  11.057   7.486 -0.0940 -2.1901  1.6591
  922MOL0     H24413   1.781  11.172   7.705 -1.7038  1.5893  0.5152
  922MOL0     H24414   1.917  11.289   7.679 -2.4492  3.0448 -0.5552
  922MOL0     H24415   1.815  11.338   7.468 -1.3079  2.0661  1.4835
  922MOL0     H24416   1.691  11.210   7.496 -1.1976 -0.6153  3.1415
  922MOL0     H24417   1.713  11.478   7.640  2.8216 -2.4226  2.6024
  922MOL0     H24418   1.607  11.351   7.692 -3.9992  1.7512 -1.1990
  922MOL0     H24419   1.464  11.360   7.498 -1.2544  0.5762 -1.1955
  922MOL0     H24420   1.490  11.516   7.558  1.3389  0.4889  0.6408
  922MOL0     H24421   1.692  11.648   7.428 -2.1688  1.4803 -0.9396
  922MOL0     H24422   1.789  11.608   7.038 -2.1459 -3.0885  0.9281
  922MOL0     H24423   1.760  11.752   7.143  0.8152  0.0184 -1.7419
  922MOL0     H24424   1.955  11.655   7.289  1.3247  1.6902 -0.3611
  922MOL0     H24425   1.994  11.551   7.148 -2.0477 -1.0765  0.0437
  922MOL0     H24426   1.960  11.852   7.117  0.4031  0.6344  2.5502
  922MOL0     H24427   2.035  11.733   7.009  2.8499 -1.2132  1.5178
  922MOL0     H24428   2.156  11.836   7.258  0.5451  0.9554 -0.2371
  922MOL0     H24429   2.214  11.859   7.091 -1.0520 -0.1737 -0.8562
  922MOL0     H24430   2.318  11.809   7.377 -1.5651 -0.5143 -1.3349
  922MOL0     H24431   2.537  11.803   7.474  0.5217  0.6910 -0.8178
  922MOL0     H24432   2.992  11.553   7.576  0.0196 -1.4156 -1.6633
  922MOL0     H24433   3.212  11.576   7.587 -1.3787 -0.1449 -0.2557
  922MOL0     H24434   3.533  11.805   7.282 -1.5744  3.0027 -2.6433
  922MOL0     H24435   3.391  11.903   7.291 -0.6710 -0.2983  0.6112
  922MOL0     H24436   3.437  11.943   7.535 -0.7965  2.3338 -0.2532
  922MOL0     H24437   3.597  11.857   7.511  0.7618 -0.5179 -1.9359
  922MOL0     H24438   3.501  12.127   7.382 -0.8454 -0.9908 -1.1939
  922MOL0     H24439   3.612  12.103   7.508 -0.0637  1.2824 -0.7657
  922MOL0     H24440   3.640  12.002   7.224 -0.1502  1.5916 -0.2182
  922MOL0     H24441   3.750  11.947   7.351  1.0828  0.8328  0.3090
  922MOL0     H24442   3.799  12.194   7.385 -1.0898  2.3235 -0.3305
  922MOL0     H24443   3.691  12.228   7.257 -1.0160 -0.3912 -0.9744
  922MOL0     H24444   3.935  12.041   7.238  0.8253  0.5222 -1.4949
  922MOL0     H24445   3.843  12.100   7.102  5.1744 -0.4623 -1.8708
  922MOL0     H24446   3.977  12.297   7.284 -1.0554 -0.1222  0.3589
  922MOL0     H24447   3.903  12.328   7.131  1.1139  1.3316  0.4077
  922MOL0     H24448   4.076  12.182   7.008 -0.1615 -0.7079  0.9864
  922MOL0     H24449   4.143  12.330   7.088 -0.2753  0.8607  2.6170
  922MOL0     H24450   3.184  11.919   7.309 -1.4882  0.2578 -2.0848
  922MOL0     H24451   2.942  11.914   7.369 -2.4013 -2.4552  0.3437
  922MOL0     H24452   2.657  11.501   7.179  1.7296  3.2672 -1.9192
  922MOL0     H24453   2.434  11.505   7.108 -0.2514  1.3358 -1.2821
  922MOL0     H24454   2.296  10.737   7.878 -0.1516 -1.2297  1.4677
  922MOL0     H24455   2.495  10.589   7.858 -0.7477  0.9334 -0.4713
  922MOL0     H24456   2.914  10.503   7.962 -0.0145 -2.6234  0.9982
  922MOL0     H24457   3.117  10.385   7.973  1.0540  0.5862  0.3764
  922MOL0     H24458   3.188  10.123   7.808 -0.1819  0.3604 -2.0962
  922MOL0     H24459   3.320  10.173   7.916 -0.6609 -1.1397  0.5099
  922MOL0     H24460   3.399   9.994   7.772 -0.8225  0.5813  2.9311
  922MOL0     H24461   3.486  10.139   7.753  0.5612 -2.1324  0.9678
  922MOL0     H24462   3.374  10.223   7.560 -2.0170 -0.5818 -2.3266
  922MOL0     H24463   3.265  10.094   7.568 -0.9102  0.6189  2.0877
  922MOL0     H24464   3.472  10.090   7.401  0.8241  0.8906  0.5622
  922MOL0     H24465   3.570  10.063   7.537  0.8644  2.4661 -0.5439
  922MOL0     H24466   3.349   9.703   7.403 -1.6570  2.4866 -0.9541
  922MOL0     H24467   3.111  10.351   7.540 -1.5565  2.7202 -1.7872
  922MOL0     H24468   2.944  10.388   7.415 -4.5359 -0.4456 -1.7745
  922MOL0     H24469   2.795  10.426   7.496 -0.7754 -0.4258  1.7437
  922MOL0     H24470   2.899  10.557   7.459  0.3764 -0.4496 -2.1779
  923MOL0     O24471   1.117   1.900  11.007 -0.4397 -0.4987 -0.5055
  923MOL0     C24472   1.172   1.957  11.106  0.2803  0.6573  0.4751
  923MOL0     O24473   1.124   1.962  11.236  0.5375  1.3947 -0.2429
  923MOL0     C24474   1.005   1.904  11.270 -0.0193  0.9106  0.1970
  923MOL0     C24475   0.887   1.978  11.280  0.0797 -0.5266  0.6078
  923MOL0     C24476   0.769   1.908  11.302  0.8029 -0.0621 -0.3924
  923MOL0     C24477   0.768   1.771  11.342  0.4780  0.1011  0.0993
  923MOL0     O24478   0.657   1.697  11.382  0.1057  0.4781  0.0128
  923MOL0     C24479   0.515   1.728  11.343  0.0622  0.1594  0.0086
  923MOL0     C24480   0.433   1.603  11.353  0.2811  0.7152  0.6510
  923MOL0     C24481   0.286   1.637  11.385  0.6589  0.3237 -0.2877
  923MOL0     C24482   0.208   1.529  11.460  0.3577 -0.4919  0.4351
  923MOL0     C24483   0.067   1.568  11.498 -0.7357  0.2219  0.4224
  923MOL0     C24484  -0.027   1.584  11.380  0.5776  0.4106 -0.4742
  923MOL0     C24485  -0.180   1.581  11.423  0.1814  0.2073 -1.2413
  923MOL0     C24486  -0.215   1.697  11.510 -0.0425  0.4286  0.2675
  923MOL0     N24487  -0.359   1.695  11.547 -0.4187  0.6832  0.1249
  923MOL0     C24488  -0.463   1.687  11.458  0.0731  0.1980 -0.3187
  923MOL0     C24489  -0.565   1.684  11.538 -0.4752 -0.2791 -0.2147
  923MOL0     C24490  -0.710   1.682  11.508 -0.2937 -0.1884  0.7481
  923MOL0     C24491  -0.765   1.818  11.462  0.0905  0.4737  0.4538
  923MOL0     C24492  -0.695   1.874  11.333  0.0982  0.6785 -0.1611
  923MOL0     C24493  -0.712   1.791  11.207  0.9259 -0.3047  0.0167
  923MOL0     O24494  -0.618   1.679  11.193  1.3212 -0.0740  0.5025
  923MOL0     C24495  -0.608   1.605  11.079 -1.0871 -0.3091 -0.0175
  923MOL0     C24496  -0.712   1.586  10.983 -0.5439 -0.3697 -0.2604
  923MOL0     C24497  -0.684   1.521  10.859  1.7678 -0.9990 -0.5370
  923MOL0     C24498  -0.567   1.449  10.852 -0.9597  0.8867  0.8779
  923MOL0     C24499  -0.540   1.372  10.719 -0.4502 -0.0571  0.0822
  923MOL0     O24500  -0.643   1.363  10.625 -0.9118 -0.0967  0.3705
  923MOL0     C24501  -0.613   1.277  10.516  0.5085 -0.4442  0.7178
  923MOL0     C24502  -0.714   1.192  10.463  0.8482 -0.1045  0.0479
  923MOL0     C24503  -0.700   1.137  10.338  0.9383 -0.2294  0.6481
  923MOL0     C24504  -0.585   1.161  10.259 -0.5716  0.0926 -0.4202
  923MOL0     O24505  -0.586   1.117  10.123 -0.6917  0.5633 -0.4226
  923MOL0     C24506  -0.461   1.120  10.050 -0.0237  0.7571 -0.3954
  923MOL0     C24507  -0.464   1.042   9.918 -0.6906  0.1619 -0.0643
  923MOL0     C24508  -0.394   0.904   9.927 -0.0985 -0.2291  0.3269
  923MOL0     C24509  -0.431   0.817   9.800 -0.7360 -0.1505  0.3694
  923MOL0     C24510  -0.335   0.694   9.790 -0.2442  0.7396 -0.7213
  923MOL0     C24511  -0.390   0.604   9.678 -0.3709 -0.1180 -0.5761
  923MOL0     C24512  -0.285   0.496   9.631 -0.1435 -0.8127 -0.7138
  923MOL0     C24513  -0.347   0.381   9.551  0.3619  0.0457 -0.0298
  923MOL0    Cl24514  -0.422   0.274   9.679 -0.1326  0.1689 -0.1034
  923MOL0     C24515  -0.475   1.220  10.327 -0.5600 -0.6995 -0.1380
  923MOL0     C24516  -0.492   1.288  10.446 -0.3211 -0.5516 -0.6208
  923MOL0     O24517  -0.448   1.295  10.724 -0.0026  0.0194 -0.5001
  923MOL0     C24518  -0.466   1.448  10.953  0.5467  0.4333  1.1822
  923MOL0     C24519  -0.492   1.531  11.063 -0.2646  1.0409 -0.3746
  923MOL0     N24520  -0.520   1.691  11.668  0.7711 -1.1414 -0.7906
  923MOL0     N24521  -0.394   1.707  11.671  0.3052 -0.5113  0.2107
  923MOL0     C24522   0.896   1.704  11.351  0.8477 -0.8446 -0.3040
  923MOL0     C24523   1.010   1.769  11.314 -1.4755  0.1964 -0.4971
  923MOL0     C24524   1.300   2.014  11.076 -0.4829 -0.6099  0.0926
  923MOL0     C24525   1.335   2.136  11.145  0.0468 -0.3302  0.5375
  923MOL0     C24526   1.453   2.207  11.126 -1.1268 -0.6654  0.3349
  923MOL0     C24527   1.539   2.161  11.026  0.0906  0.0812  0.6041
  923MOL0     O24528   1.659   2.231  11.014  0.4993  0.6091  0.3825
  923MOL0     C24529   1.765   2.175  10.941 -0.2077 -0.2931  0.2532
  923MOL0     C24530   1.893   2.269  10.930  0.2885  0.1708 -0.2959
  923MOL0     C24531   1.860   2.395  10.856 -0.0485  0.4914  0.6293
  923MOL0     C24532   1.965   2.505  10.851 -0.0871  0.1196 -0.1901
  923MOL0     C24533   2.087   2.465  10.778  0.7831 -0.8691  0.7974
  923MOL0     C24534   2.192   2.435  10.738 -0.1572 -0.2266 -0.0027
  923MOL0     C24535   1.511   2.046  10.956 -0.2726 -0.8193 -0.0295
  923MOL0     C24536   1.393   1.972  10.988  0.6933 -0.0573  0.1081
  923MOL0     C24537   1.388   1.834  10.910 -0.3882 -0.0655 -0.5943
  923MOL0     H24538   0.890   2.079  11.242  0.6984 -1.0623 -0.8487
  923MOL0     H24539   0.675   1.961  11.310 -0.0271 -1.5323 -0.0750
  923MOL0     H24540   0.473   1.794  11.419 -4.3254  0.2478 -2.1657
  923MOL0     H24541   0.507   1.773  11.243 -1.1476  0.1075  0.0740
  923MOL0     H24542   0.481   1.539  11.428  1.4768  1.3859  0.4936
  923MOL0     H24543   0.431   1.548  11.258  2.2552  0.4062  0.7407
  923MOL0     H24544   0.225   1.651  11.295 -1.4534 -2.1133  0.6305
  923MOL0     H24545   0.281   1.734  11.435  0.9571  0.1715  0.0466
  923MOL0     H24546   0.199   1.440  11.396 -1.7408  0.7504 -1.1464
  923MOL0     H24547   0.268   1.491  11.542  1.2001  0.2962  0.2022
  923MOL0     H24548   0.027   1.484  11.557 -1.2887  0.8536  0.9652
  923MOL0     H24549   0.070   1.657  11.562 -1.4920 -0.9616  2.2031
  923MOL0     H24550  -0.016   1.676  11.322 -0.7331 -1.1604 -3.4280
  923MOL0     H24551  -0.013   1.500  11.312 -2.4359 -1.3505  0.8370
  923MOL0     H24552  -0.201   1.489  11.480 -1.7115  0.1372 -2.0014
  923MOL0     H24553  -0.246   1.572  11.337  0.8858  1.8134 -1.9899
  923MOL0     H24554  -0.151   1.688  11.598 -0.5122 -1.1560  0.4769
  923MOL0     H24555  -0.195   1.794  11.463  0.2841  0.0314 -0.4382
  923MOL0     H24556  -0.459   1.680  11.350  0.3164  1.7027 -0.4268
  923MOL0     H24557  -0.736   1.615  11.425  2.5870 -0.2229 -0.2049
  923MOL0     H24558  -0.765   1.630  11.588 -2.0886 -2.1006 -1.5732
  923MOL0     H24559  -0.871   1.807  11.438  0.0417 -1.8386  1.4445
  923MOL0     H24560  -0.740   1.884  11.546  1.3925  1.1394 -0.4243
  923MOL0     H24561  -0.588   1.892  11.352  0.3530 -0.9744  0.1556
  923MOL0     H24562  -0.739   1.973  11.321  1.0983  1.6046  2.8631
  923MOL0     H24563  -0.704   1.858  11.121 -0.1392 -0.4595 -0.2205
  923MOL0     H24564  -0.816   1.757  11.210  0.5728  0.7103 -0.2775
  923MOL0     H24565  -0.805   1.639  11.001 -0.5815 -0.8221  0.9794
  923MOL0     H24566  -0.755   1.528  10.777 -1.6965  1.3002  2.3579
  923MOL0     H24567  -0.814   1.192  10.504  1.3442  1.2558  1.3239
  923MOL0     H24568  -0.786   1.089  10.293  0.3744  0.3291  1.1020
  923MOL0     H24569  -0.435   1.223  10.025  1.4379  1.2057  2.5276
  923MOL0     H24570  -0.378   1.091  10.115 -1.0140 -1.1794  0.0747
  923MOL0     H24571  -0.573   1.032   9.909 -0.6433  0.1551 -0.7048
  923MOL0     H24572  -0.428   1.112   9.842  0.1858  1.0881  1.1588
  923MOL0     H24573  -0.286   0.918   9.939 -0.0748 -1.3475  1.7076
  923MOL0     H24574  -0.425   0.858  10.021 -0.4414 -1.1554 -0.2268
  923MOL0     H24575  -0.408   0.883   9.715  0.6168 -1.1832 -0.1100
  923MOL0     H24576  -0.537   0.790   9.800 -0.3565 -1.8250 -1.0795
  923MOL0     H24577  -0.326   0.651   9.890 -3.1717  0.0629 -0.6655
  923MOL0     H24578  -0.234   0.719   9.758  1.1019 -2.0374  0.9847
  923MOL0     H24579  -0.476   0.544   9.710 -0.9206  1.0722  0.2471
  923MOL0     H24580  -0.421   0.675   9.601 -1.1639  0.5326  0.3144
  923MOL0     H24581  -0.219   0.476   9.716  0.0576 -1.6180 -1.0544
  923MOL0     H24582  -0.213   0.534   9.559  0.2507 -2.1285 -1.0401
  923MOL0     H24583  -0.425   0.402   9.477  0.9894 -0.9244 -1.0101
  923MOL0     H24584  -0.266   0.324   9.503  0.7524  0.2518  0.3751
  923MOL0     H24585  -0.381   1.228  10.274 -0.4207  1.0459  0.3215
  923MOL0     H24586  -0.428   1.361  10.493 -2.1073  0.2088  0.7717
  923MOL0     H24587  -0.380   1.382  10.947 -0.8763 -1.3389 -1.6684
  923MOL0     H24588  -0.424   1.525  11.147 -2.3873 -0.0875  1.3722
  923MOL0     H24589   0.903   1.600  11.381  1.3043 -1.2326 -1.6845
  923MOL0     H24590   1.098   1.705  11.320 -1.9263 -0.3547  0.6479
  923MOL0     H24591   1.263   2.167  11.221 -1.0896  0.3713 -0.7670
  923MOL0     H24592   1.475   2.300  11.177  0.6729 -1.4749  1.1360
  923MOL0     H24593   1.750   2.141  10.838  3.9242 -1.9837  0.0135
  923MOL0     H24594   1.792   2.084  10.995 -1.0546  0.5412  2.1568
  923MOL0     H24595   1.981   2.227  10.880  2.0088 -0.2767  2.8514
  923MOL0     H24596   1.928   2.293  11.031  0.7545  1.0969 -0.6683
  923MOL0     H24597   1.771   2.446  10.895 -0.2154  2.8723 -2.4546
  923MOL0     H24598   1.832   2.360  10.756  0.1633 -0.1099  0.7769
  923MOL0     H24599   1.913   2.585  10.796 -1.0503  1.0744  1.9856
  923MOL0     H24600   1.982   2.541  10.953 -2.3129 -2.0022  1.0260
  923MOL0     H24601   2.283   2.399  10.694  0.0256  0.0071  0.1829
  923MOL0     H24602   1.583   2.001  10.887 -2.6942 -3.1742 -1.1923
  923MOL0     H24603   1.491   1.801  10.893  0.4622  3.3365 -3.0679
  923MOL0     H24604   1.334   1.757  10.966  0.2442 -0.5630 -0.6575
  923MOL0     H24605   1.333   1.853  10.818 -1.5604  0.2145  0.1331
  924MOL0     O24606   2.137   7.939   0.481  0.4105  0.1380 -0.0438
  924MOL0     C24607   2.172   7.884   0.376  0.5422 -0.0211  0.0726
  924MOL0     O24608   2.291   7.888   0.321  0.2626  0.1791  0.5872
  924MOL0     C24609   2.388   7.954   0.389  0.1176 -0.3540  0.7681
  924MOL0     C24610   2.427   8.084   0.343  0.7371  0.8244 -0.3035
  924MOL0     C24611   2.538   8.144   0.400 -0.3912  0.8968  0.2836
  924MOL0     C24612   2.608   8.075   0.498  0.4261 -1.2998 -1.2608
  924MOL0     O24613   2.730   8.130   0.559  0.6548  0.9602  0.1516
  924MOL0     C24614   2.789   8.243   0.507 -0.4154 -0.6844 -0.5313
  924MOL0     C24615   2.885   8.298   0.621  0.0994 -0.3223  0.3235
  924MOL0     C24616   3.004   8.211   0.643  0.0036  0.1857  0.0686
  924MOL0     C24617   3.128   8.303   0.706  0.7484  0.6224  0.0298
  924MOL0     C24618   3.213   8.219   0.806 -0.2445  0.0659  0.9920
  924MOL0     C24619   3.277   8.108   0.722  0.0128 -0.0881 -0.0128
  924MOL0     C24620   3.385   8.160   0.622 -0.2590 -0.4018 -0.4082
  924MOL0     C24621   3.493   8.254   0.672  0.6607 -0.2445 -0.2435
  924MOL0     N24622   3.560   8.328   0.566 -0.0737 -0.7675 -0.4988
  924MOL0     C24623   3.671   8.289   0.504  0.5829  0.0373  0.4235
  924MOL0     C24624   3.685   8.368   0.395 -0.0913  1.6503  0.3899
  924MOL0     C24625   3.796   8.362   0.285  0.2708  0.1380  0.5910
  924MOL0     C24626   3.934   8.420   0.317 -0.1367 -0.5668  0.3548
  924MOL0     C24627   3.928   8.576   0.306 -0.0550  0.6162 -0.4716
  924MOL0     C24628   4.049   8.634   0.379 -0.4032  0.2080  0.3181
  924MOL0     O24629   4.154   8.583   0.304 -0.3299  0.5422 -0.6271
  924MOL0     C24630   4.265   8.597   0.377  0.2323 -0.8467 -0.5458
  924MOL0     C24631   4.311   8.498   0.460  0.2434  0.2252 -0.1251
  924MOL0     C24632   4.441   8.511   0.525  0.2487  0.3843  0.5312
  924MOL0     C24633   4.513   8.628   0.509 -0.5562 -0.1016  0.1434
  924MOL0     C24634   4.650   8.639   0.565  0.7001  0.8098  0.0420
  924MOL0     O24635   4.729   8.748   0.527 -0.9388  0.4038 -0.4348
  924MOL0     C24636   4.860   8.753   0.554 -0.0260  0.0892  0.2301
  924MOL0     C24637   4.948   8.769   0.452 -0.3911  1.1550  0.0475
  924MOL0     C24638   5.076   8.791   0.487  0.1515  0.4020  0.5999
  924MOL0     C24639   5.123   8.782   0.618  0.3309  0.4799 -0.1294
  924MOL0     O24640   5.252   8.780   0.654 -0.9476 -0.9668 -0.0760
  924MOL0     C24641   5.342   8.743   0.549 -0.4350 -0.3178 -0.2503
  924MOL0     C24642   5.483   8.734   0.618  0.2060 -0.4780 -0.2735
  924MOL0     C24643   5.601   8.709   0.522 -0.6586 -0.3542 -0.0158
  924MOL0     C24644   5.729   8.716   0.607 -0.2937  0.8663  0.5324
  924MOL0     C24645   5.729   8.608   0.717  0.6686 -0.5824 -0.6372
  924MOL0     C24646   5.872   8.605   0.785  0.1968 -0.4464 -0.4671
  924MOL0     C24647   5.985   8.550   0.690  0.2942 -0.9866  0.2962
  924MOL0     C24648   6.106   8.645   0.684  1.1824 -0.1837  0.5263
  924MOL0    Cl24649   6.139   8.699   0.848  0.0880  0.2048  0.6777
  924MOL0     C24650   5.031   8.760   0.716  1.0235  0.2592 -0.3402
  924MOL0     C24651   4.896   8.754   0.686  0.2835 -0.3234  0.7560
  924MOL0     O24652   4.679   8.560   0.654  0.7760  0.0802 -0.1371
  924MOL0     C24653   4.455   8.731   0.431  0.8370  0.0288  0.4157
  924MOL0     C24654   4.330   8.721   0.368 -0.2123 -0.3617  0.1631
  924MOL0     N24655   3.576   8.460   0.402 -0.1882 -0.9816  0.8883
  924MOL0     N24656   3.499   8.428   0.494 -0.5229  1.3988  0.1740
  924MOL0     C24657   2.571   7.954   0.541  0.9056  0.0205  0.1299
  924MOL0     C24658   2.465   7.889   0.485 -0.4507 -0.1276  0.5752
  924MOL0     C24659   2.066   7.812   0.283  0.4201 -0.7491  0.2848
  924MOL0     C24660   1.931   7.816   0.324  0.1235 -1.6916  0.4893
  924MOL0     C24661   1.833   7.770   0.225  0.0321 -0.1311  0.0638
  924MOL0     C24662   1.869   7.716   0.101 -0.5317  0.2663 -1.0460
  924MOL0     O24663   1.765   7.681   0.023 -0.9036 -0.1597 -0.6835
  924MOL0     C24664   1.710   7.548   0.040  0.1406 -0.7652 -0.4511
  924MOL0     C24665   1.610   7.535   0.163  0.1564  0.5869 -0.5801
  924MOL0     C24666   1.500   7.628   0.142  0.3378 -0.1279 -0.1130
  924MOL0     C24667   1.411   7.651   0.261 -0.0291  0.2953 -0.7363
  924MOL0     C24668   1.361   7.534   0.332  0.0039  0.2498 -0.6182
  924MOL0     C24669   1.306   7.449   0.403  0.5446 -1.0583 -0.1816
  924MOL0     C24670   2.000   7.701   0.066 -0.8605  0.2169 -0.5090
  924MOL0     C24671   2.102   7.753   0.151  0.5939  0.2806 -0.2803
  924MOL0     C24672   2.237   7.757   0.089  0.8356 -0.0832 -0.5234
  924MOL0     H24673   2.376   8.122   0.254 -2.3402  1.4859  1.5840
  924MOL0     H24674   2.559   8.246   0.371 -2.5251  0.3850 -3.7707
  924MOL0     H24675   2.848   8.196   0.428 -1.1349 -0.8542 -0.9786
  924MOL0     H24676   2.722   8.318   0.464  0.3099  0.1584 -0.2268
  924MOL0     H24677   2.818   8.297   0.708 -1.1326 -3.2165 -0.5171
  924MOL0     H24678   2.927   8.395   0.594  0.6393 -0.4632  0.6349
  924MOL0     H24679   3.032   8.157   0.552  3.3663  1.9560 -0.0968
  924MOL0     H24680   2.969   8.141   0.719  1.6572  2.5262  3.2131
  924MOL0     H24681   3.190   8.342   0.625  1.0887  0.3785  0.1686
  924MOL0     H24682   3.092   8.388   0.764  1.9210  1.4697 -0.4497
  924MOL0     H24683   3.288   8.278   0.860  0.2294  2.0091 -1.5817
  924MOL0     H24684   3.147   8.181   0.884  0.0715  0.8018  1.6237
  924MOL0     H24685   3.324   8.032   0.785  0.1300  0.1717  0.2201
  924MOL0     H24686   3.201   8.047   0.673 -0.6691  1.4374 -0.9535
  924MOL0     H24687   3.336   8.212   0.540  3.1241  0.0405 -2.3428
  924MOL0     H24688   3.438   8.071   0.586  1.5106  0.1102  0.8099
  924MOL0     H24689   3.452   8.322   0.746  1.9598 -2.6238  2.8949
  924MOL0     H24690   3.566   8.196   0.730  0.6484  0.8583  0.9067
  924MOL0     H24691   3.728   8.200   0.532 -0.8091 -0.8374  0.5731
  924MOL0     H24692   3.807   8.258   0.252  0.4912  0.6302 -0.9706
  924MOL0     H24693   3.757   8.417   0.199 -0.7338  1.5388  1.8890
  924MOL0     H24694   3.976   8.394   0.414 -0.2880  0.0787  0.6018
  924MOL0     H24695   3.996   8.384   0.235 -1.1032 -2.8480  0.5467
  924MOL0     H24696   3.844   8.615   0.365  1.3838  0.7713  1.5625
  924MOL0     H24697   3.923   8.614   0.204 -0.1754 -0.8534 -1.0377
  924MOL0     H24698   4.044   8.612   0.486  1.4291  0.3350  0.4527
  924MOL0     H24699   4.046   8.743   0.375 -3.6004  0.2818  1.7112
  924MOL0     H24700   4.253   8.407   0.472 -1.3004  1.0435 -1.0938
  924MOL0     H24701   4.486   8.431   0.583 -0.7045 -1.2846 -0.9226
  924MOL0     H24702   4.917   8.770   0.349 -0.4766  0.4761  0.0612
  924MOL0     H24703   5.144   8.807   0.403 -1.9058  0.4978 -1.1432
  924MOL0     H24704   5.313   8.648   0.503  0.6899 -1.3000  1.0127
  924MOL0     H24705   5.356   8.817   0.470  2.1495 -1.2390 -0.7475
  924MOL0     H24706   5.506   8.831   0.662 -0.0908 -1.2700  1.7458
  924MOL0     H24707   5.468   8.659   0.696 -1.4079  0.7144  0.6114
  924MOL0     H24708   5.583   8.610   0.478 -0.8625 -0.2357 -0.2025
  924MOL0     H24709   5.615   8.789   0.450 -1.3956  0.5333  0.7915
  924MOL0     H24710   5.731   8.815   0.654 -0.3834  0.3613  1.6251
  924MOL0     H24711   5.817   8.702   0.543  0.9826 -0.7657  2.4959
  924MOL0     H24712   5.707   8.509   0.676 -2.0240 -0.0302 -0.6918
  924MOL0     H24713   5.654   8.624   0.796  2.4182  2.4607  0.5920
  924MOL0     H24714   5.898   8.704   0.824 -2.9764  0.1073  0.5084
  924MOL0     H24715   5.860   8.539   0.871 -1.6984 -0.4952 -0.7196
  924MOL0     H24716   5.959   8.530   0.586 -0.8914  1.5818  0.0117
  924MOL0     H24717   6.010   8.452   0.731  4.3213  0.1713  1.0498
  924MOL0     H24718   6.193   8.593   0.643  0.9525  0.8738 -1.4064
  924MOL0     H24719   6.090   8.732   0.621  2.7789 -1.0714 -1.2151
  924MOL0     H24720   5.054   8.741   0.821 -3.6487  0.2066  0.9033
  924MOL0     H24721   4.820   8.753   0.763 -0.7436  0.6750 -0.2130
  924MOL0     H24722   4.516   8.820   0.421  0.6444  0.0656 -0.4576
  924MOL0     H24723   4.290   8.799   0.304  0.4995 -0.1622 -0.0549
  924MOL0     H24724   2.630   7.892   0.608 -0.2992  0.9953  2.1963
  924MOL0     H24725   2.440   7.788   0.515  1.5168 -0.2721  1.9553
  924MOL0     H24726   1.906   7.855   0.422  0.2873  0.4635 -0.2659
  924MOL0     H24727   1.727   7.783   0.245 -0.3015 -1.0160 -1.0002
  924MOL0     H24728   1.797   7.481   0.050 -1.3585 -2.5643  1.5028
  924MOL0     H24729   1.656   7.525  -0.052 -2.2161 -3.4039  1.4088
  924MOL0     H24730   1.657   7.566   0.257 -0.1761 -0.9698  0.1303
  924MOL0     H24731   1.582   7.430   0.170  0.3165  0.5678 -0.2175
  924MOL0     H24732   1.431   7.599   0.062  0.3465 -1.6077  0.3963
  924MOL0     H24733   1.544   7.724   0.115  5.8135 -2.5117 -1.0156
  924MOL0     H24734   1.462   7.715   0.334 -0.1974 -0.7965  0.3679
  924MOL0     H24735   1.326   7.713   0.232  0.1178  0.7322 -0.2494
  924MOL0     H24736   1.237   7.392   0.461  0.0047 -1.7641 -1.4720
  924MOL0     H24737   2.033   7.646  -0.022  0.0036  0.4424 -0.3424
  924MOL0     H24738   2.240   7.715  -0.012 -0.1788 -0.4627 -0.3997
  924MOL0     H24739   2.266   7.861   0.068  3.0386  0.3583  3.6816
  924MOL0     H24740   2.308   7.714   0.160  0.7635  2.5756  1.3354
  925MOL0     O24741   0.781   8.561   4.304 -0.2970  0.9347 -0.2849
  925MOL0     C24742   0.737   8.500   4.401  0.8948  0.2562 -0.3789
  925MOL0     O24743   0.638   8.399   4.404 -0.4468 -0.0199  0.6498
  925MOL0     C24744   0.555   8.394   4.290  0.3282 -0.8408  0.2060
  925MOL0     C24745   0.503   8.504   4.227 -0.6460 -1.3207 -0.4164
  925MOL0     C24746   0.416   8.491   4.121  0.2583  0.3264 -0.4772
  925MOL0     C24747   0.355   8.362   4.086  0.6753 -0.8813 -0.1872
  925MOL0     O24748   0.253   8.363   3.984  0.0261 -0.3092  0.3699
  925MOL0     C24749   0.192   8.238   3.944  0.3504  0.6024  0.2269
  925MOL0     C24750   0.117   8.276   3.810 -0.5402 -0.9945  0.6498
  925MOL0     C24751   0.200   8.262   3.677  0.2603  0.9655  0.0200
  925MOL0     C24752   0.343   8.300   3.687 -0.5594 -0.1659 -0.0541
  925MOL0     C24753   0.432   8.255   3.565 -0.5766 -0.0526 -1.1517
  925MOL0     C24754   0.505   8.381   3.502  0.0317  0.5525 -0.0956
  925MOL0     C24755   0.604   8.332   3.390  0.4545  0.2492 -0.4123
  925MOL0     C24756   0.685   8.449   3.339  1.2298  0.0010  0.1527
  925MOL0     N24757   0.807   8.417   3.257  0.0226 -0.1916 -0.0056
  925MOL0     C24758   0.811   8.324   3.155  0.6978 -0.6650  1.1378
  925MOL0     C24759   0.937   8.282   3.136  0.3632 -0.1004  0.1378
  925MOL0     C24760   0.980   8.157   3.059  0.5160  0.2656  1.0528
  925MOL0     C24761   0.992   8.029   3.140  1.6534 -1.0441 -1.0634
  925MOL0     C24762   1.093   8.053   3.249  0.0555  0.8312 -0.3200
  925MOL0     C24763   1.083   7.949   3.359 -0.7073 -0.5665 -0.0991
  925MOL0     O24764   0.957   7.949   3.430  0.4819 -0.5469 -0.3012
  925MOL0     C24765   0.958   7.884   3.551 -0.0847 -0.1780  0.4640
  925MOL0     C24766   0.874   7.927   3.643  0.6547 -0.2337  0.3354
  925MOL0     C24767   0.871   7.868   3.771  0.2624  0.5325 -0.4853
  925MOL0     C24768   0.953   7.759   3.808 -0.3853 -0.4815 -0.8111
  925MOL0     C24769   0.951   7.693   3.936  0.1714  0.4000 -0.7623
  925MOL0     O24770   1.036   7.595   3.964 -0.0077  0.5379 -0.6355
  925MOL0     C24771   1.063   7.543   4.088 -0.1006 -0.3160 -0.5781
  925MOL0     C24772   1.127   7.413   4.082 -0.7890 -0.0613 -0.6190
  925MOL0     C24773   1.133   7.340   4.213  0.2623  0.8486 -0.8552
  925MOL0     C24774   1.112   7.398   4.331  0.9546  0.6012  0.0778
  925MOL0     O24775   1.128   7.326   4.444  0.2871  0.6285 -0.5215
  925MOL0     C24776   1.096   7.382   4.570 -0.3238  0.5336 -0.5458
  925MOL0     C24777   1.129   7.288   4.684  0.8115  0.4505 -0.2004
  925MOL0     C24778   1.040   7.161   4.696  0.7689  0.2574  0.5288
  925MOL0     C24779   0.893   7.191   4.686  0.1076  0.0304  0.2941
  925MOL0     C24780   0.845   7.302   4.784 -0.1674 -0.0588  0.0137
  925MOL0     C24781   0.691   7.305   4.784  0.6142 -0.5765 -0.5958
  925MOL0     C24782   0.634   7.419   4.871  0.1293 -0.3100 -0.0760
  925MOL0     C24783   0.671   7.553   4.811 -0.4356 -0.5220 -0.3326
  925MOL0    Cl24784   0.600   7.565   4.643 -0.2416  0.2453 -0.2795
  925MOL0     C24785   1.081   7.537   4.331 -0.2272 -0.5826  0.0140
  925MOL0     C24786   1.053   7.608   4.207  0.5014  0.4944 -0.9839
  925MOL0     O24787   0.852   7.726   4.004 -0.0804  0.3156 -0.1441
  925MOL0     C24788   1.045   7.719   3.712  1.1441  0.5752  0.8484
  925MOL0     C24789   1.048   7.787   3.589 -0.7703  0.4295 -0.4109
  925MOL0     N24790   1.011   8.349   3.228 -0.0896 -0.2566  0.5402
  925MOL0     N24791   0.935   8.430   3.301 -0.4894 -0.3012  0.4321
  925MOL0     C24792   0.400   8.253   4.157 -0.3774 -0.7321  0.7283
  925MOL0     C24793   0.496   8.263   4.256  0.1468  0.0440 -0.3333
  925MOL0     C24794   0.793   8.524   4.535  0.4355 -0.2721 -0.0368
  925MOL0     C24795   0.827   8.410   4.614 -0.0839  0.1293 -0.4613
  925MOL0     C24796   0.890   8.428   4.738 -0.3685  0.2733 -1.1043
  925MOL0     C24797   0.925   8.558   4.785  0.2615 -0.0552 -0.7255
  925MOL0     O24798   0.993   8.571   4.902 -0.3283  0.5939 -0.1362
  925MOL0     C24799   1.025   8.699   4.959  0.3290  0.6255  0.1334
  925MOL0     C24800   1.145   8.682   5.058 -0.4139 -0.5589  0.1795
  925MOL0     C24801   1.266   8.630   4.981 -0.1561  0.0498  0.5174
  925MOL0     C24802   1.386   8.615   5.077 -0.0467 -0.2932  0.0409
  925MOL0     C24803   1.480   8.507   5.044 -0.2896 -0.1411 -0.4241
  925MOL0     C24804   1.543   8.403   5.023  0.3512  0.5432 -1.0495
  925MOL0     C24805   0.886   8.666   4.705 -0.1108  0.6749  0.5204
  925MOL0     C24806   0.813   8.649   4.584  0.9038  0.0436 -0.5004
  925MOL0     C24807   0.777   8.783   4.501  0.1277  0.0077 -0.8507
  925MOL0     H24808   0.542   8.605   4.222 -0.9310 -1.2598 -1.9573
  925MOL0     H24809   0.396   8.579   4.062  1.6745  2.3676  1.9143
  925MOL0     H24810   0.261   8.155   3.925 -0.0022  0.7246 -1.8208
  925MOL0     H24811   0.113   8.206   4.012  0.2783  0.3742  0.0339
  925MOL0     H24812   0.079   8.378   3.810  3.3983  0.6378  1.1747
  925MOL0     H24813   0.032   8.206   3.804 -0.9681 -0.4023 -0.2968
  925MOL0     H24814   0.153   8.317   3.594  2.0764  0.2852 -1.5385
  925MOL0     H24815   0.192   8.158   3.646 -0.9844  1.4901 -1.6167
  925MOL0     H24816   0.351   8.409   3.697  0.5495 -0.4265  2.7751
  925MOL0     H24817   0.392   8.254   3.773 -1.4541 -0.1829  0.4593
  925MOL0     H24818   0.504   8.183   3.604 -1.8203 -0.3010  0.7816
  925MOL0     H24819   0.369   8.209   3.488 -3.3488  0.8776  0.4285
  925MOL0     H24820   0.419   8.441   3.470 -1.3767  0.8440  3.7177
  925MOL0     H24821   0.558   8.435   3.581  4.4406  0.0529 -2.4480
  925MOL0     H24822   0.559   8.263   3.317  0.0267 -2.4203  2.2095
  925MOL0     H24823   0.682   8.265   3.428  1.3814  0.8747 -1.1580
  925MOL0     H24824   0.622   8.505   3.270 -0.0330  1.4242  2.3455
  925MOL0     H24825   0.706   8.510   3.427  0.3616  1.5933 -0.7070
  925MOL0     H24826   0.730   8.278   3.100  1.7737 -1.1740 -0.0534
  925MOL0     H24827   0.903   8.131   2.985  0.7299 -1.2973  1.3386
  925MOL0     H24828   1.065   8.169   2.992 -0.8080  0.3771 -0.6858
  925MOL0     H24829   0.895   8.012   3.188  1.3024 -2.6251 -2.2580
  925MOL0     H24830   1.011   7.953   3.064  0.7182 -1.1255 -1.2312
  925MOL0     H24831   1.075   8.147   3.302  0.0820  1.0330 -0.6688
  925MOL0     H24832   1.185   8.047   3.190  0.6705 -3.5168  0.7373
  925MOL0     H24833   1.166   7.959   3.430  0.4410 -0.8135 -1.3555
  925MOL0     H24834   1.102   7.855   3.306 -0.1805 -0.3358 -0.3275
  925MOL0     H24835   0.807   8.010   3.625  0.4347 -0.6885 -1.0861
  925MOL0     H24836   0.795   7.910   3.836 -1.5692 -0.6454 -1.7766
  925MOL0     H24837   1.156   7.376   3.984  2.9294  1.1016 -0.1083
  925MOL0     H24838   1.186   7.246   4.209  1.9166  1.6831  0.1599
  925MOL0     H24839   1.166   7.462   4.597  2.2879 -1.9002  0.3229
  925MOL0     H24840   0.991   7.414   4.572 -0.0945  1.5755 -2.4140
  925MOL0     H24841   1.233   7.257   4.674  1.2049  1.4620  0.5441
  925MOL0     H24842   1.132   7.346   4.778  2.3512 -0.3771  0.2995
  925MOL0     H24843   1.067   7.095   4.613  0.3461  1.1440 -0.3492
  925MOL0     H24844   1.059   7.107   4.789 -1.0464 -0.1276  0.7150
  925MOL0     H24845   0.833   7.102   4.704 -1.3999  1.5196  3.4727
  925MOL0     H24846   0.864   7.214   4.583  1.1922  0.5303  0.0886
  925MOL0     H24847   0.891   7.398   4.761  0.2848 -0.5222 -1.0993
  925MOL0     H24848   0.888   7.280   4.882 -0.4397 -0.7893 -0.0197
  925MOL0     H24849   0.665   7.317   4.678  5.3672 -3.1930 -2.3443
  925MOL0     H24850   0.653   7.208   4.817  0.3900 -0.3507 -0.1709
  925MOL0     H24851   0.672   7.416   4.973 -1.8413 -0.0481  0.7086
  925MOL0     H24852   0.524   7.417   4.871  0.0506 -1.0241  3.3101
  925MOL0     H24853   0.623   7.634   4.867 -4.4474 -1.4680 -2.0452
  925MOL0     H24854   0.780   7.566   4.811 -0.5003  0.0832  0.4936
  925MOL0     H24855   1.086   7.598   4.421 -0.9393 -0.2567 -0.1642
  925MOL0     H24856   1.015   7.708   4.225 -1.6401 -0.7722  2.4381
  925MOL0     H24857   1.105   7.632   3.735 -0.1980  0.5015  4.9599
  925MOL0     H24858   1.124   7.750   3.520  1.5182 -0.9996  2.6706
  925MOL0     H24859   0.354   8.155   4.144 -1.8435 -0.0195  0.2711
  925MOL0     H24860   0.537   8.173   4.302 -2.5515 -2.2017 -2.0097
  925MOL0     H24861   0.823   8.310   4.573 -0.2642 -0.7366  1.5635
  925MOL0     H24862   0.925   8.345   4.800 -0.7260 -0.3959 -1.7856
  925MOL0     H24863   0.943   8.754   5.006  3.3459  4.4490  1.4963
  925MOL0     H24864   1.070   8.762   4.881 -0.2235  1.8717  0.8016
  925MOL0     H24865   1.116   8.604   5.128 -1.6337  0.5058  0.9139
  925MOL0     H24866   1.159   8.777   5.111  0.0001 -0.2875 -0.3976
  925MOL0     H24867   1.300   8.695   4.899  0.8968 -1.6863 -0.4785
  925MOL0     H24868   1.244   8.537   4.928  0.8212  1.3994 -2.4960
  925MOL0     H24869   1.429   8.716   5.078 -2.0477  0.6180  0.6968
  925MOL0     H24870   1.354   8.590   5.179 -0.2014  1.0120  0.3371
  925MOL0     H24871   1.596   8.311   5.018  0.0528  0.0840  1.9466
  925MOL0     H24872   0.922   8.765   4.734 -0.1610  0.4418  1.4138
  925MOL0     H24873   0.732   8.770   4.403 -0.4333 -0.3102 -0.5525
  925MOL0     H24874   0.713   8.846   4.564  0.7714  0.9378 -1.0982
  925MOL0     H24875   0.874   8.834   4.502  0.8665 -1.2240  1.9895
  926MOL0     O24876   2.322   6.033   4.903  0.2055 -0.5679  0.0205
  926MOL0     C24877   2.360   5.931   4.951 -0.7591 -0.0307 -0.2726
  926MOL0     O24878   2.278   5.831   4.999 -0.2374 -0.4013 -0.0371
  926MOL0     C24879   2.146   5.834   4.961  0.1778  0.5073 -0.4324
  926MOL0     C24880   2.100   5.868   4.832 -1.1965 -0.4995 -0.4540
  926MOL0     C24881   1.968   5.877   4.808  0.0332 -0.9731  0.0997
  926MOL0     C24882   1.862   5.857   4.899 -0.2391  0.5433 -0.1091
  926MOL0     O24883   1.729   5.875   4.857  0.3663  0.0415  0.3704
  926MOL0     C24884   1.622   5.877   4.951  0.0785 -0.7415 -1.0485
  926MOL0     C24885   1.483   5.857   4.891 -0.2947  1.0040  0.7667
  926MOL0     C24886   1.368   5.904   4.973 -0.4636 -0.3691  0.1038
  926MOL0     C24887   1.232   5.857   4.930 -0.4709  0.0518 -0.6952
  926MOL0     C24888   1.114   5.920   5.014 -0.1643 -0.0411  1.4176
  926MOL0     C24889   1.040   6.029   4.941 -0.1053 -0.0480  1.1447
  926MOL0     C24890   0.957   6.107   5.043 -0.5639 -0.4208 -0.0525
  926MOL0     C24891   0.830   6.027   5.081  0.1335  0.2993 -0.1561
  926MOL0     N24892   0.842   5.945   5.207  0.1760  0.0394 -1.0392
  926MOL0     C24893   0.835   5.998   5.341 -0.4921  1.1088 -0.2420
  926MOL0     C24894   0.834   5.885   5.425  0.0029  1.2083 -0.0267
  926MOL0     C24895   0.841   5.870   5.578 -0.1986  0.1505  0.7617
  926MOL0     C24896   0.968   5.796   5.627 -0.1167  0.4103  0.0569
  926MOL0     C24897   1.084   5.892   5.617 -0.2330 -0.2685 -0.0015
  926MOL0     C24898   1.212   5.841   5.680 -0.2586 -0.1794  1.3597
  926MOL0     O24899   1.300   5.952   5.706  0.6980 -0.3438  0.1261
  926MOL0     C24900   1.421   5.915   5.746  0.5003 -0.0545 -1.1654
  926MOL0     C24901   1.456   5.793   5.804 -0.2364 -0.1439  0.0300
  926MOL0     C24902   1.583   5.762   5.853  0.0370 -0.0141  0.2358
  926MOL0     C24903   1.683   5.863   5.847  0.3383 -0.9288  0.1169
  926MOL0     C24904   1.826   5.836   5.886 -0.8170 -0.3514  0.0632
  926MOL0     O24905   1.908   5.950   5.898  0.1446  0.6363  0.7457
  926MOL0     C24906   2.044   5.945   5.924 -0.8031  0.4520  0.3189
  926MOL0     C24907   2.129   6.026   5.847 -0.4442 -0.8101  1.1671
  926MOL0     C24908   2.271   5.998   5.839  0.1151 -0.6109 -0.4493
  926MOL0     C24909   2.327   5.894   5.912  0.0137  0.0974  0.3463
  926MOL0     O24910   2.455   5.851   5.899  0.0113 -0.0929 -0.2526
  926MOL0     C24911   2.541   5.917   5.808 -0.2711  0.2854  0.3154
  926MOL0     C24912   2.684   5.840   5.824  0.8242 -1.0415  0.0437
  926MOL0     C24913   2.664   5.695   5.775 -0.5122  0.9196 -0.6897
  926MOL0     C24914   2.792   5.617   5.813  0.4934  0.4882 -0.2466
  926MOL0     C24915   2.787   5.463   5.789 -0.7647 -0.3555 -1.5026
  926MOL0     C24916   2.907   5.393   5.867  0.4572  0.7112  0.2626
  926MOL0     C24917   2.876   5.250   5.870  0.9704 -0.3964  0.1498
  926MOL0     C24918   2.976   5.177   5.961  0.6116 -0.1639 -0.4485
  926MOL0    Cl24919   3.014   5.255   6.125  0.5082 -0.4037 -0.2204
  926MOL0     C24920   2.246   5.828   5.999  0.0934 -0.0501 -0.0465
  926MOL0     C24921   2.111   5.844   6.001 -0.0013 -0.9899  0.2879
  926MOL0     O24922   1.854   5.719   5.919  0.5875 -0.1607  0.3080
  926MOL0     C24923   1.644   5.991   5.784 -0.5122 -0.7326  0.1454
  926MOL0     C24924   1.507   6.022   5.749 -0.3445 -0.0176 -0.6624
  926MOL0     N24925   0.842   5.775   5.333  0.4503 -0.6197 -1.0782
  926MOL0     N24926   0.848   5.813   5.207  0.1634 -0.3127 -0.5561
  926MOL0     C24927   1.913   5.807   5.022  0.0230  0.7012  0.6150
  926MOL0     C24928   2.045   5.795   5.053 -0.5188  0.4478 -0.3060
  926MOL0     C24929   2.514   5.909   4.967 -0.3565  0.6744  0.2105
  926MOL0     C24930   2.561   5.778   4.994  0.5730 -0.3712 -0.8638
  926MOL0     C24931   2.693   5.735   4.978  0.0747  0.0340  0.0816
  926MOL0     C24932   2.789   5.830   4.956  0.7335  0.0588 -0.2823
  926MOL0     O24933   2.927   5.813   4.965 -0.2205  0.1542  0.0784
  926MOL0     C24934   2.977   5.683   5.007  0.1826 -0.8371 -0.3479
  926MOL0     C24935   3.119   5.673   4.978  0.6189  0.0386  0.1868
  926MOL0     C24936   3.179   5.529   5.019 -1.2405 -0.0270  0.4806
  926MOL0     C24937   3.323   5.506   4.976  0.4935 -1.2668  0.2177
  926MOL0     C24938   3.343   5.520   4.831 -1.0693  0.3482 -0.2513
  926MOL0     C24939   3.362   5.527   4.711  0.0296 -0.2996  0.2844
  926MOL0     C24940   2.746   5.959   4.931 -0.9765 -0.1727  0.3766
  926MOL0     C24941   2.612   6.002   4.917  0.2275 -0.0082  0.4505
  926MOL0     C24942   2.583   6.154   4.873  0.2572  0.5665  0.0816
  926MOL0     H24943   2.169   5.899   4.754  3.1480  1.5205  3.6487
  926MOL0     H24944   1.938   5.917   4.711 -0.3333 -1.0015  0.1996
  926MOL0     H24945   1.633   5.802   5.030  1.7175 -1.1247 -1.6189
  926MOL0     H24946   1.624   5.974   5.002  0.3483 -1.3274  0.0819
  926MOL0     H24947   1.472   5.750   4.871 -2.6688  1.1059  1.1694
  926MOL0     H24948   1.469   5.905   4.794  1.3451 -6.2380 -3.8006
  926MOL0     H24949   1.384   6.012   4.969  1.6388 -0.6169  0.3841
  926MOL0     H24950   1.378   5.880   5.079  1.9709 -0.7242 -0.1493
  926MOL0     H24951   1.221   5.864   4.821  1.2235  1.0136 -0.8306
  926MOL0     H24952   1.214   5.757   4.970 -2.1380  1.0802  1.2842
  926MOL0     H24953   1.039   5.842   5.026  1.3774 -2.0878 -1.2899
  926MOL0     H24954   1.151   5.951   5.112  1.8739  1.2871  0.3031
  926MOL0     H24955   1.124   6.081   4.892 -0.1891 -1.0220 -0.1023
  926MOL0     H24956   0.983   5.979   4.862  0.9527  0.6284 -0.1055
  926MOL0     H24957   0.923   6.201   4.998 -0.4134 -0.8249 -1.0287
  926MOL0     H24958   1.023   6.132   5.128 -2.4808 -0.1769  1.4366
  926MOL0     H24959   0.750   6.097   5.106 -0.5390 -0.8871  1.1787
  926MOL0     H24960   0.781   5.969   5.003 -2.3401  0.0910  1.4294
  926MOL0     H24961   0.851   6.097   5.381 -2.2799  0.7238  1.5507
  926MOL0     H24962   0.836   5.970   5.623  0.3506 -0.6255  2.6397
  926MOL0     H24963   0.750   5.811   5.591 -0.4643 -0.1562 -1.9678
  926MOL0     H24964   0.964   5.782   5.736 -1.3861 -3.3194 -0.3120
  926MOL0     H24965   0.994   5.699   5.582 -1.5908 -0.7443  1.5536
  926MOL0     H24966   1.063   5.986   5.668 -0.7574 -1.2746  1.7366
  926MOL0     H24967   1.100   5.914   5.511 -1.2289  1.5378  0.1915
  926MOL0     H24968   1.257   5.754   5.632 -0.2989 -0.0540  1.0919
  926MOL0     H24969   1.188   5.798   5.777 -1.5193 -0.0011  1.1514
  926MOL0     H24970   1.384   5.713   5.816 -0.5325  0.4758  3.2886
  926MOL0     H24971   1.612   5.661   5.880 -0.8581 -0.3058  0.1427
  926MOL0     H24972   2.091   6.096   5.774 -0.4382 -0.6580  1.3077
  926MOL0     H24973   2.334   6.062   5.778 -1.2283  0.5195 -0.6990
  926MOL0     H24974   2.500   5.912   5.707 -1.5105  1.9402  0.6896
  926MOL0     H24975   2.553   6.022   5.836 -1.2961  0.7905 -1.0523
  926MOL0     H24976   2.753   5.893   5.757 -0.2934  0.0896 -0.2622
  926MOL0     H24977   2.717   5.835   5.928 -1.1772  2.7650  1.0456
  926MOL0     H24978   2.572   5.646   5.809 -1.7995  2.0196 -2.4096
  926MOL0     H24979   2.652   5.687   5.667 -0.1096  0.1504 -0.6859
  926MOL0     H24980   2.806   5.635   5.920 -1.5626  2.8078 -0.2785
  926MOL0     H24981   2.879   5.655   5.759  1.2699 -1.4539 -0.4403
  926MOL0     H24982   2.783   5.450   5.681 -0.7719 -0.6305 -1.4693
  926MOL0     H24983   2.690   5.423   5.820 -0.1369 -1.5592 -1.0210
  926MOL0     H24984   3.006   5.413   5.827  1.2769  1.0247  2.3350
  926MOL0     H24985   2.894   5.436   5.967 -0.1831  2.9223 -0.7069
  926MOL0     H24986   2.901   5.206   5.773  2.6173 -0.8071  0.7342
  926MOL0     H24987   2.774   5.230   5.904  0.6783  1.4711  0.4449
  926MOL0     H24988   2.937   5.077   5.982 -0.0760  0.6605  2.6086
  926MOL0     H24989   3.068   5.156   5.906 -0.0101  0.4205 -1.7559
  926MOL0     H24990   2.293   5.748   6.055 -0.4375  1.1900  2.2913
  926MOL0     H24991   2.051   5.777   6.060 -0.3660 -1.8559 -1.0276
  926MOL0     H24992   1.722   6.066   5.793 -0.4916 -0.8070  0.5707
  926MOL0     H24993   1.478   6.126   5.745  4.0430  1.5491  1.5919
  926MOL0     H24994   1.838   5.776   5.094 -1.7185  0.6939 -1.1367
  926MOL0     H24995   2.072   5.755   5.150 -1.9354  1.3944  0.5094
  926MOL0     H24996   2.487   5.709   5.032 -0.0944  0.7721 -0.0309
  926MOL0     H24997   2.712   5.633   5.008  0.8819  0.7222  2.0740
  926MOL0     H24998   2.922   5.602   4.960  2.4682 -1.7302 -1.6504
  926MOL0     H24999   2.961   5.669   5.114  1.8568  2.4634  0.4810
  926MOL0     H25000   3.171   5.754   5.029 -0.3937  0.8360 -0.0033
  926MOL0     H25001   3.137   5.678   4.870  0.5691 -2.5627 -0.0115
  926MOL0     H25002   3.113   5.450   4.982 -3.4245  1.2501  1.4273
  926MOL0     H25003   3.173   5.529   5.128 -0.8489  3.6383  0.6458
  926MOL0     H25004   3.384   5.583   5.024  0.7292 -1.7845  0.7621
  926MOL0     H25005   3.362   5.412   5.016  1.7767 -0.7232  0.2857
  926MOL0     H25006   3.373   5.535   4.605  2.4805 -3.7236  0.1386
  926MOL0     H25007   2.831   6.025   4.920  1.0757 -2.4275  1.7156
  926MOL0     H25008   2.544   6.161   4.771  0.9561  1.0266 -0.1612
  926MOL0     H25009   2.511   6.206   4.936 -0.2407  2.2454 -1.7842
  926MOL0     H25010   2.678   6.208   4.878  0.6199  0.2858 -2.2516
  927MOL0     O25011   5.223   3.120   8.132 -0.0468  0.6510 -0.3498
  927MOL0     C25012   5.248   3.126   8.017 -0.9687  0.5797  0.0224
  927MOL0     O25013   5.173   3.092   7.908 -0.3919 -0.4445 -0.2715
  927MOL0     C25014   5.043   3.065   7.940 -1.1794 -0.7324  0.9088
  927MOL0     C25015   4.998   2.935   7.966  0.0086  0.6836  0.2135
  927MOL0     C25016   4.863   2.898   8.000 -0.4940 -0.3601  0.0684
  927MOL0     C25017   4.774   2.998   8.004  0.6171 -0.4191  0.3185
  927MOL0     O25018   4.650   2.954   8.039 -0.1019 -0.4408  0.0636
  927MOL0     C25019   4.591   3.041   8.144  0.3490  0.0341  1.6017
  927MOL0     C25020   4.457   2.975   8.191  0.2403 -0.2703  0.9920
  927MOL0     C25021   4.357   2.935   8.082 -0.3023  0.9655  0.0948
  927MOL0     C25022   4.346   2.781   8.101  0.4331 -0.3868 -0.9542
  927MOL0     C25023   4.267   2.714   7.988  0.3518  0.4457 -0.1814
  927MOL0     C25024   4.307   2.744   7.846 -0.8256 -0.6837  0.1820
  927MOL0     C25025   4.251   2.635   7.751 -0.3611 -0.7575  0.0447
  927MOL0     C25026   4.274   2.682   7.603  0.2183  0.2554  0.1977
  927MOL0     N25027   4.421   2.686   7.571  0.4428  0.2611  0.2081
  927MOL0     C25028   4.496   2.797   7.564  0.4098  0.5355  0.5605
  927MOL0     C25029   4.611   2.761   7.529  0.6899 -1.1290 -0.6257
  927MOL0     C25030   4.719   2.858   7.505  0.2069 -0.1648 -0.2162
  927MOL0     C25031   4.859   2.803   7.523  0.6036 -0.0865  0.9939
  927MOL0     C25032   4.964   2.890   7.457  0.0555 -0.8051  0.1617
  927MOL0     C25033   5.109   2.851   7.489  0.2321  1.4426 -0.4129
  927MOL0     O25034   5.125   2.708   7.479 -0.2975 -0.6057 -0.7040
  927MOL0     C25035   5.188   2.640   7.577  0.1576  0.3248  0.0971
  927MOL0     C25036   5.270   2.686   7.684  0.8869  0.1680 -0.5403
  927MOL0     C25037   5.305   2.603   7.796  0.9020  0.5988 -0.0280
  927MOL0     C25038   5.267   2.468   7.785 -0.4474  0.1200 -0.0070
  927MOL0     C25039   5.313   2.367   7.892 -0.2863 -0.2720 -0.6871
  927MOL0     O25040   5.327   2.417   8.016  0.6731  0.4055  0.1776
  927MOL0     C25041   5.358   2.328   8.117 -0.4416 -0.1220  0.6186
  927MOL0     C25042   5.272   2.224   8.149 -0.3592  0.1865  0.0943
  927MOL0     C25043   5.319   2.128   8.249 -0.2198 -0.4507 -0.1015
  927MOL0     C25044   5.449   2.138   8.297 -0.1010  0.1432 -0.4177
  927MOL0     O25045   5.500   2.039   8.383  0.0192 -0.6477  0.1393
  927MOL0     C25046   5.445   1.905   8.374  0.6963  0.7869  0.4164
  927MOL0     C25047   5.527   1.820   8.466 -0.3747 -0.2861  0.2254
  927MOL0     C25048   5.493   1.669   8.452 -0.0729 -0.1744  0.5151
  927MOL0     C25049   5.588   1.585   8.541 -0.5390 -0.3947 -0.1259
  927MOL0     C25050   5.527   1.443   8.536  0.6869  0.0096 -0.4744
  927MOL0     C25051   5.608   1.339   8.610  0.7844 -0.3460 -0.2350
  927MOL0     C25052   5.663   1.370   8.757 -0.5196  0.5763  0.4568
  927MOL0     C25053   5.739   1.243   8.810 -0.6199 -0.4801  0.1722
  927MOL0    Cl25054   5.888   1.229   8.718 -0.0709  0.1151 -0.7474
  927MOL0     C25055   5.532   2.251   8.273  0.5919 -0.5368  0.4149
  927MOL0     C25056   5.485   2.341   8.175 -0.6462 -0.3113 -0.4178
  927MOL0     O25057   5.334   2.252   7.868  0.1914  0.3934 -0.3235
  927MOL0     C25058   5.187   2.413   7.670  0.5872  0.1368 -0.3212
  927MOL0     C25059   5.154   2.498   7.568  0.0841  0.9996 -0.5304
  927MOL0     N25060   4.623   2.631   7.526 -0.5042  0.3022 -0.7282
  927MOL0     N25061   4.506   2.579   7.552  0.5194 -0.4757  0.6129
  927MOL0     C25062   4.808   3.123   7.955 -0.7503 -0.5503  0.2865
  927MOL0     C25063   4.941   3.160   7.931 -0.3243  0.1090  0.4564
  927MOL0     C25064   5.367   3.191   7.988 -0.0627  0.6594 -0.6905
  927MOL0     C25065   5.353   3.304   7.904 -0.3819  0.2091  0.2889
  927MOL0     C25066   5.470   3.377   7.866 -0.4548 -0.2000 -0.1508
  927MOL0     C25067   5.591   3.350   7.921  0.4797  0.4590 -0.6785
  927MOL0     O25068   5.676   3.440   7.887 -0.2399  0.5710  0.2858
  927MOL0     C25069   5.807   3.440   7.945 -0.3360  0.1945 -0.6663
  927MOL0     C25070   5.850   3.591   7.931  0.1161  0.3728  0.3922
  927MOL0     C25071   5.990   3.604   7.998  0.3564 -0.2022  0.6545
  927MOL0     C25072   5.991   3.624   8.151  0.7895 -0.2516  0.0741
  927MOL0     C25073   5.899   3.723   8.205  0.2103 -0.2601  0.3874
  927MOL0     C25074   5.802   3.789   8.241  0.0812  1.3981 -0.5934
  927MOL0     C25075   5.605   3.237   8.006 -0.0416  0.0899 -0.7965
  927MOL0     C25076   5.494   3.158   8.043 -0.0290 -0.0588  0.3564
  927MOL0     C25077   5.529   3.036   8.127 -0.5268 -0.3239 -0.6402
  927MOL0     H25078   5.072   2.856   7.966 -1.3117 -0.7124  2.9046
  927MOL0     H25079   4.839   2.799   8.039  1.5242 -0.6811  0.6293
  927MOL0     H25080   4.654   3.055   8.233  0.4467 -2.5802  2.0189
  927MOL0     H25081   4.564   3.138   8.101  1.1483 -1.5398 -3.0303
  927MOL0     H25082   4.410   3.058   8.245  0.1306  1.1603 -1.1970
  927MOL0     H25083   4.477   2.907   8.274  2.3756  0.5786  1.2505
  927MOL0     H25084   4.393   2.967   7.984 -0.4094 -0.6353 -0.5037
  927MOL0     H25085   4.262   2.981   8.109 -1.6830 -1.1379 -0.8830
  927MOL0     H25086   4.447   2.740   8.107 -0.0512 -1.3381  1.4773
  927MOL0     H25087   4.301   2.755   8.197  0.9768 -2.6441 -1.2517
  927MOL0     H25088   4.291   2.615   8.026 -2.3344  1.5221  5.2800
  927MOL0     H25089   4.158   2.721   7.995  0.2462 -0.4658 -0.7821
  927MOL0     H25090   4.256   2.838   7.825 -2.1426 -0.6823  2.9818
  927MOL0     H25091   4.413   2.745   7.819 -0.6585  2.2457  0.5877
  927MOL0     H25092   4.142   2.629   7.766 -0.8092 -1.4249 -2.8785
  927MOL0     H25093   4.291   2.536   7.773  1.4126  0.2444  1.6878
  927MOL0     H25094   4.221   2.612   7.538 -3.1415  0.8609  2.0735
  927MOL0     H25095   4.233   2.783   7.592 -0.4835  0.0241  0.6179
  927MOL0     H25096   4.473   2.902   7.577 -1.0620  0.7329 -2.6540
  927MOL0     H25097   4.699   2.898   7.406  0.6456 -1.6158 -0.9100
  927MOL0     H25098   4.703   2.935   7.582 -1.3425 -0.1039 -0.5742
  927MOL0     H25099   4.876   2.785   7.629 -0.3725  3.1236  1.8189
  927MOL0     H25100   4.868   2.706   7.473 -0.8860  1.3478 -2.4028
  927MOL0     H25101   4.943   2.993   7.486  2.1649 -0.5123  0.7882
  927MOL0     H25102   4.952   2.891   7.348  0.3413 -0.8950  0.1305
  927MOL0     H25103   5.121   2.896   7.588 -4.2379 -2.1753  2.2234
  927MOL0     H25104   5.194   2.887   7.430  0.3821 -0.8079 -1.6796
  927MOL0     H25105   5.296   2.792   7.686  2.5151 -0.0963 -2.7767
  927MOL0     H25106   5.348   2.648   7.884 -0.9445  1.7023  0.3602
  927MOL0     H25107   5.179   2.204   8.098  0.1012 -3.8912  0.4759
  927MOL0     H25108   5.255   2.049   8.285 -1.3479 -0.3596 -1.7863
  927MOL0     H25109   5.339   1.899   8.400  0.7895 -1.2224  0.5077
  927MOL0     H25110   5.449   1.869   8.271 -2.2514  0.3975  0.3620
  927MOL0     H25111   5.634   1.844   8.464 -0.9614  2.7328  0.6505
  927MOL0     H25112   5.502   1.851   8.568  1.7018 -0.2092  0.7602
  927MOL0     H25113   5.386   1.658   8.472 -0.2662  0.3421 -0.2136
  927MOL0     H25114   5.521   1.644   8.350  1.0400  1.9723  0.2476
  927MOL0     H25115   5.593   1.627   8.641 -2.4107 -1.7545  0.5864
  927MOL0     H25116   5.685   1.606   8.495 -1.4172  0.1491 -1.8142
  927MOL0     H25117   5.519   1.407   8.433  1.3983 -0.5126 -0.3518
  927MOL0     H25118   5.428   1.446   8.582  0.0403  1.1453 -1.8458
  927MOL0     H25119   5.545   1.249   8.611  0.1886  0.0593  0.9687
  927MOL0     H25120   5.697   1.325   8.549 -0.2374  0.1003 -1.8985
  927MOL0     H25121   5.587   1.398   8.830 -0.5955  3.9194 -0.7206
  927MOL0     H25122   5.743   1.445   8.754 -0.0078  0.0289  0.1374
  927MOL0     H25123   5.757   1.253   8.917  0.6384 -1.5158  0.0786
  927MOL0     H25124   5.687   1.147   8.803 -0.0937 -1.1212  3.5898
  927MOL0     H25125   5.627   2.260   8.325 -0.6588  3.2983  2.4624
  927MOL0     H25126   5.557   2.414   8.139 -1.2156 -0.3735 -1.7574
  927MOL0     H25127   5.164   2.307   7.667 -0.8957  0.4534 -1.7351
  927MOL0     H25128   5.107   2.454   7.480 -2.9528  0.1252  1.3802
  927MOL0     H25129   4.738   3.205   7.950  0.7433  0.7822  0.3844
  927MOL0     H25130   4.964   3.258   7.891 -0.3816 -0.2511 -0.4800
  927MOL0     H25131   5.253   3.331   7.872 -0.7631 -0.8321  0.5718
  927MOL0     H25132   5.451   3.450   7.787 -0.4562 -1.7275 -1.6080
  927MOL0     H25133   5.873   3.373   7.890 -0.7051  0.7521 -1.7982
  927MOL0     H25134   5.806   3.419   8.053  2.1380  0.5342 -0.5387
  927MOL0     H25135   5.770   3.644   7.984 -0.5557  0.6965 -0.9130
  927MOL0     H25136   5.864   3.633   7.832  0.8992 -2.0236 -0.5936
  927MOL0     H25137   6.034   3.694   7.955  2.0421 -1.4112 -0.2955
  927MOL0     H25138   6.067   3.534   7.966 -0.3004 -2.0954  2.9026
  927MOL0     H25139   5.961   3.529   8.196  0.1204 -0.2573 -0.3781
  927MOL0     H25140   6.092   3.656   8.178  0.7193 -0.3761  0.4896
  927MOL0     H25141   5.722   3.843   8.288 -0.1628  0.8160 -0.3286
  927MOL0     H25142   5.701   3.214   8.052 -0.5077  0.1058  0.2200
  927MOL0     H25143   5.469   2.945   8.117  2.4330 -2.3207 -1.6472
  927MOL0     H25144   5.631   3.007   8.099  0.4410  0.2392  2.0471
  927MOL0     H25145   5.529   3.066   8.232 -0.2708  1.3989 -1.1084
  928MOL0     O25146   6.038   3.966   2.310  0.6598  0.3021 -0.1690
  928MOL0     C25147   6.056   3.923   2.423 -0.8803  0.8843 -0.3693
  928MOL0     O25148   6.143   3.819   2.451  0.3443 -0.2662  0.7511
  928MOL0     C25149   6.203   3.747   2.349  0.2832 -0.3013 -0.0397
  928MOL0     C25150   6.332   3.710   2.374  0.5593 -0.0797 -0.1562
  928MOL0     C25151   6.397   3.624   2.285 -0.8346  0.4308  0.3396
  928MOL0     C25152   6.338   3.567   2.169  1.0853 -0.4419 -0.5064
  928MOL0     O25153   6.410   3.471   2.104  0.2977 -0.6197 -0.3961
  928MOL0     C25154   6.365   3.429   1.967 -0.7411  0.3881 -1.5509
  928MOL0     C25155   6.479   3.343   1.892  0.3053 -1.0060  0.1498
  928MOL0     C25156   6.429   3.285   1.764 -0.0513  0.5877  0.0129
  928MOL0     C25157   6.526   3.202   1.681  0.7790 -0.7420  0.0705
  928MOL0     C25158   6.643   3.290   1.623 -0.2626 -0.1831  0.3364
  928MOL0     C25159   6.716   3.205   1.525  0.1759 -0.2464 -0.5279
  928MOL0     C25160   6.833   3.270   1.455 -0.7715 -0.5618  0.3108
  928MOL0     C25161   6.910   3.187   1.355  0.0807 -0.7015 -0.8248
  928MOL0     N25162   6.834   3.166   1.234  0.9241  0.8703  0.0815
  928MOL0     C25163   6.703   3.126   1.206  0.3322  0.9079 -0.3223
  928MOL0     C25164   6.696   3.131   1.067 -0.1913  0.6058 -0.3346
  928MOL0     C25165   6.567   3.094   0.985 -0.9352  0.2595  0.8323
  928MOL0     C25166   6.437   3.073   1.063 -0.8134  0.0158 -0.4429
  928MOL0     C25167   6.326   3.023   0.965 -0.7285 -0.7714 -0.9193
  928MOL0     C25168   6.203   2.967   1.035 -0.1596 -0.4502 -0.9570
  928MOL0     O25169   6.137   2.884   0.939 -0.2809  0.0777 -0.0835
  928MOL0     C25170   6.023   2.816   0.975  0.2864 -0.2464 -0.4396
  928MOL0     C25171   5.980   2.827   1.110 -0.4142  0.6489  0.5775
  928MOL0     C25172   5.879   2.736   1.159 -0.1580  0.4724  0.7192
  928MOL0     C25173   5.810   2.650   1.071 -0.1669 -1.0016  0.3694
  928MOL0     C25174   5.694   2.574   1.119 -0.9226 -0.0190 -0.5275
  928MOL0     O25175   5.645   2.481   1.038 -0.2334 -0.2390  0.5930
  928MOL0     C25176   5.539   2.410   1.084  0.5337  0.3695  0.2947
  928MOL0     C25177   5.419   2.489   1.099  0.1393 -0.1856  0.5020
  928MOL0     C25178   5.299   2.427   1.146 -0.4252  0.8708 -0.3077
  928MOL0     C25179   5.309   2.295   1.194  0.5346  0.6570 -0.2372
  928MOL0     O25180   5.203   2.219   1.249  0.3208  0.2246 -0.1818
  928MOL0     C25181   5.067   2.264   1.257 -0.3589 -0.4999 -0.0007
  928MOL0     C25182   4.995   2.147   1.325  0.2701  0.5256  0.4121
  928MOL0     C25183   4.955   2.036   1.225  0.5269 -0.2493  0.9315
  928MOL0     C25184   4.882   1.918   1.290 -0.4426 -0.4798  0.1391
  928MOL0     C25185   4.842   1.817   1.189 -0.3961 -0.1414  0.3193
  928MOL0     C25186   4.810   1.680   1.249  0.2317 -0.1705 -0.8868
  928MOL0     C25187   4.666   1.674   1.324 -0.2133 -0.6530  0.3973
  928MOL0     C25188   4.653   1.551   1.409  0.6675 -0.0300  0.3405
  928MOL0    Cl25189   4.632   1.421   1.281 -0.2157  0.7779  0.4649
  928MOL0     C25190   5.432   2.226   1.182  0.1596  0.7341  0.0650
  928MOL0     C25191   5.541   2.278   1.125 -0.8467 -0.9305 -0.0425
  928MOL0     O25192   5.654   2.608   1.233  1.1973 -0.3742 -0.2073
  928MOL0     C25193   5.858   2.655   0.932  0.2470  0.3437 -0.3804
  928MOL0     C25194   5.957   2.734   0.884 -0.6916  0.1858 -0.6533
  928MOL0     N25195   6.818   3.179   1.019 -0.5987  1.4006 -0.5879
  928MOL0     N25196   6.894   3.202   1.118  1.0408  0.5083 -0.1348
  928MOL0     C25197   6.199   3.610   2.144  0.4362  1.0947 -0.2490
  928MOL0     C25198   6.143   3.701   2.237  0.4601  0.3495  0.2388
  928MOL0     C25199   5.989   3.996   2.539  0.3191  0.1319 -0.9990
  928MOL0     C25200   5.954   3.924   2.653  0.3836 -0.2241 -0.6300
  928MOL0     C25201   5.884   3.975   2.761  0.2285 -1.3513  0.5880
  928MOL0     C25202   5.850   4.113   2.768 -0.9089  0.8296  1.0835
  928MOL0     O25203   5.784   4.156   2.880 -0.4702  0.0235  0.4470
  928MOL0     C25204   5.670   4.236   2.853 -0.2377 -0.1683 -0.5540
  928MOL0     C25205   5.576   4.233   2.975  0.1192 -0.2433  0.4219
  928MOL0     C25206   5.500   4.104   2.993  0.6511  0.9661 -0.5869
  928MOL0     C25207   5.406   4.114   3.120  1.3154 -0.4568 -0.5411
  928MOL0     C25208   5.315   3.999   3.114 -0.8066  0.9100  0.5178
  928MOL0     C25209   5.240   3.908   3.118  0.5354 -0.0532  0.1074
  928MOL0     C25210   5.883   4.189   2.653 -1.0985 -0.3772 -0.4901
  928MOL0     C25211   5.958   4.136   2.544  0.0565 -0.0990  0.5387
  928MOL0     C25212   5.988   4.214   2.412 -0.6065 -0.4261 -0.0144
  928MOL0     H25213   6.381   3.754   2.461 -0.8338 -1.5355  1.4506
  928MOL0     H25214   6.481   3.577   2.335 -0.7357  0.0629 -0.1681
  928MOL0     H25215   6.266   3.387   1.985 -0.9744  0.9617 -1.4793
  928MOL0     H25216   6.357   3.527   1.920  0.4902  2.1930  1.7000
  928MOL0     H25217   6.508   3.261   1.958  1.2133 -1.9771 -1.3881
  928MOL0     H25218   6.564   3.410   1.876 -0.2825 -0.5445 -1.2413
  928MOL0     H25219   6.396   3.373   1.708 -1.9686 -1.2082 -1.8851
  928MOL0     H25220   6.341   3.221   1.779  0.6103 -0.5362 -0.7746
  928MOL0     H25221   6.571   3.120   1.738  3.0053 -0.2293 -0.8142
  928MOL0     H25222   6.464   3.158   1.602 -0.7885 -0.3610  1.0389
  928MOL0     H25223   6.608   3.383   1.579  0.1023  0.3278  1.1033
  928MOL0     H25224   6.709   3.333   1.699 -0.4662  1.0459 -0.1689
  928MOL0     H25225   6.759   3.122   1.582  1.9517 -0.2601 -1.7890
  928MOL0     H25226   6.644   3.170   1.449 -0.6140 -0.8098  0.4590
  928MOL0     H25227   6.906   3.296   1.532 -0.1994 -0.8946 -0.1196
  928MOL0     H25228   6.811   3.369   1.415 -1.1617  1.2200  4.3840
  928MOL0     H25229   7.011   3.222   1.335 -0.4188 -0.7505 -3.9586
  928MOL0     H25230   6.914   3.087   1.399 -1.0133 -0.4719 -0.1439
  928MOL0     H25231   6.621   3.101   1.272 -1.8401  2.3814 -2.2907
  928MOL0     H25232   6.561   3.174   0.911  0.9262  1.4917  1.9550
  928MOL0     H25233   6.590   3.000   0.933 -0.3668  0.8226  0.0547
  928MOL0     H25234   6.459   2.990   1.131  1.0958  2.9003  2.7836
  928MOL0     H25235   6.405   3.161   1.120  1.3739  0.9738 -0.5874
  928MOL0     H25236   6.366   2.948   0.896 -0.7447  0.3503 -2.2148
  928MOL0     H25237   6.293   3.109   0.906  3.9826  0.7585 -1.8091
  928MOL0     H25238   6.138   3.050   1.061 -0.4967 -1.3398  1.2166
  928MOL0     H25239   6.234   2.912   1.124 -2.1391  1.7675  1.2301
  928MOL0     H25240   6.026   2.892   1.183 -1.4855  2.1507 -0.0474
  928MOL0     H25241   5.843   2.749   1.261 -0.0658  0.0630  0.8025
  928MOL0     H25242   5.406   2.591   1.064 -3.3192 -0.8713 -0.6204
  928MOL0     H25243   5.202   2.475   1.153 -0.1751  1.3376 -0.0132
  928MOL0     H25244   5.069   2.357   1.313  0.0009  0.7624 -1.9984
  928MOL0     H25245   5.034   2.282   1.154  1.3280 -1.9292 -0.8355
  928MOL0     H25246   5.053   2.103   1.406  1.2160  0.7193 -0.1518
  928MOL0     H25247   4.904   2.183   1.374  0.0376 -2.8939  2.7823
  928MOL0     H25248   4.894   2.085   1.148  1.4495 -2.1550 -1.1119
  928MOL0     H25249   5.040   2.007   1.163 -0.7391 -0.4976 -0.7854
  928MOL0     H25250   4.805   1.942   1.364 -1.5553  0.4027 -1.2596
  928MOL0     H25251   4.965   1.868   1.342  2.8326  3.4189 -0.8202
  928MOL0     H25252   4.932   1.803   1.129  1.1676  3.5062  1.5140
  928MOL0     H25253   4.761   1.859   1.129  0.2077  0.3631 -0.1575
  928MOL0     H25254   4.802   1.611   1.165  0.0311 -0.6494 -0.4765
  928MOL0     H25255   4.893   1.637   1.305  0.4394  1.3305  0.0112
  928MOL0     H25256   4.581   1.681   1.256 -0.5080  1.9569  0.9202
  928MOL0     H25257   4.658   1.759   1.392  1.5629  2.0591 -2.4963
  928MOL0     H25258   4.744   1.530   1.466 -0.5886 -1.9913  1.7521
  928MOL0     H25259   4.568   1.559   1.478 -0.1503 -0.6802 -0.5641
  928MOL0     H25260   5.441   2.126   1.223  2.8344  0.5093 -0.9084
  928MOL0     H25261   5.634   2.223   1.119  0.8896  1.6865  0.7915
  928MOL0     H25262   5.816   2.581   0.864  3.1939 -0.3688 -1.5596
  928MOL0     H25263   5.979   2.732   0.778 -0.2533 -0.1361 -0.5568
  928MOL0     H25264   6.150   3.577   2.053  2.2506 -0.0033 -0.8883
  928MOL0     H25265   6.037   3.717   2.226  0.9822  3.5342 -1.1773
  928MOL0     H25266   5.986   3.821   2.661 -0.2135 -0.6742 -3.2646
  928MOL0     H25267   5.848   3.912   2.843  0.6163  0.3848  2.1554
  928MOL0     H25268   5.621   4.198   2.763 -2.2061  1.0256 -0.0493
  928MOL0     H25269   5.688   4.341   2.829 -5.6696  0.9101 -1.1988
  928MOL0     H25270   5.502   4.314   2.978 -1.1234 -1.1026 -2.9701
  928MOL0     H25271   5.637   4.247   3.065 -0.6718  0.6137  0.8403
  928MOL0     H25272   5.571   4.021   2.997  0.0801  0.4942 -0.1749
  928MOL0     H25273   5.434   4.090   2.907  2.3282 -2.7555 -1.4585
  928MOL0     H25274   5.471   4.113   3.208  0.3323 -2.4487  0.2178
  928MOL0     H25275   5.337   4.197   3.102 -0.9331 -2.6659 -3.0686
  928MOL0     H25276   5.170   3.827   3.120 -2.4650  2.3562  1.9805
  928MOL0     H25277   5.864   4.296   2.659 -0.1203 -0.0643 -2.3032
  928MOL0     H25278   5.976   4.322   2.427  0.8027 -0.3218  0.4457
  928MOL0     H25279   6.093   4.195   2.389 -0.1919  0.1231  1.3177
  928MOL0     H25280   5.925   4.190   2.326 -0.1564  0.7457 -0.6876
  929MOL0     O25281   0.157   5.183   6.422  0.1712 -0.6787 -0.4204
  929MOL0     C25282   0.216   5.273   6.481 -0.5239  0.2146  0.3693
  929MOL0     O25283   0.153   5.391   6.532 -0.3397  0.2858  0.2034
  929MOL0     C25284   0.018   5.397   6.546  0.3796  0.1422 -0.2014
  929MOL0     C25285  -0.035   5.525   6.552 -0.0542  0.1813 -0.0768
  929MOL0     C25286  -0.168   5.544   6.555  0.3951  0.3268  0.0515
  929MOL0     C25287  -0.260   5.442   6.550  0.4136  0.0334 -0.4596
  929MOL0     O25288  -0.396   5.457   6.552  0.1245 -0.7827  0.3633
  929MOL0     C25289  -0.455   5.575   6.614 -0.5327 -0.3764  0.8769
  929MOL0     C25290  -0.586   5.543   6.694 -0.6144 -0.5585  0.7640
  929MOL0     C25291  -0.641   5.669   6.756  0.2254 -0.0679  0.1204
  929MOL0     C25292  -0.757   5.639   6.849  0.5458 -0.3478 -0.3967
  929MOL0     C25293  -0.850   5.763   6.880  0.2658 -0.5903 -0.6153
  929MOL0     C25294  -0.972   5.738   6.961  0.1353  0.0404 -0.2672
  929MOL0     C25295  -1.046   5.865   7.016  0.2327  0.5910 -0.4976
  929MOL0     C25296  -1.165   5.812   7.100  0.6346  0.7223 -0.3765
  929MOL0     N25297  -1.248   5.931   7.136 -0.0585 -1.1635  0.5577
  929MOL0     C25298  -1.276   5.985   7.264  0.0411 -0.0402  0.9370
  929MOL0     C25299  -1.363   6.085   7.251  0.6000  0.6053 -0.5684
  929MOL0     C25300  -1.435   6.183   7.347 -1.1040  0.1746 -0.3029
  929MOL0     C25301  -1.577   6.134   7.370  0.5026 -0.2196 -0.7327
  929MOL0     C25302  -1.662   6.222   7.464  0.1041 -0.5087  0.0722
  929MOL0     C25303  -1.788   6.156   7.521  0.7148 -0.0660 -0.1181
  929MOL0     O25304  -1.875   6.128   7.408  0.0836  0.2662 -0.2650
  929MOL0     C25305  -1.999   6.185   7.407 -1.3504 -0.7483 -0.9472
  929MOL0     C25306  -2.011   6.324   7.408  1.8036 -0.7760 -0.9900
  929MOL0     C25307  -2.132   6.387   7.408  0.4242  0.3984 -1.0564
  929MOL0     C25308  -2.250   6.308   7.424 -0.0055 -0.4626  0.8483
  929MOL0     C25309  -2.378   6.378   7.430  0.2693 -0.5480 -0.2488
  929MOL0     O25310  -2.380   6.512   7.445 -0.6447 -0.0176 -0.4801
  929MOL0     C25311  -2.499   6.579   7.426  0.4880 -0.1942 -0.7308
  929MOL0     C25312  -2.568   6.638   7.536  0.0891 -1.1242 -1.2016
  929MOL0     C25313  -2.691   6.702   7.517 -0.9453 -0.3908 -0.3639
  929MOL0     C25314  -2.747   6.701   7.389 -0.0431 -0.6827  0.3290
  929MOL0     O25315  -2.872   6.762   7.392 -0.0680 -0.0014 -0.3597
  929MOL0     C25316  -2.944   6.724   7.276  0.0743 -0.0281 -0.1409
  929MOL0     C25317  -3.081   6.772   7.309 -0.7109  0.5152 -0.6104
  929MOL0     C25318  -3.186   6.739   7.201 -0.0671 -0.3070 -0.0231
  929MOL0     C25319  -3.271   6.618   7.245  0.0777 -0.1570 -0.4761
  929MOL0     C25320  -3.396   6.588   7.161  0.0061 -0.5313  0.3547
  929MOL0     C25321  -3.446   6.446   7.191  0.8899  0.8458  0.2856
  929MOL0     C25322  -3.544   6.409   7.088 -0.6101 -0.2940 -0.2717
  929MOL0     C25323  -3.613   6.280   7.121 -0.0923  0.1657 -0.0539
  929MOL0    Cl25324  -3.704   6.209   6.974  0.0120 -0.4920  0.1168
  929MOL0     C25325  -2.677   6.647   7.277 -0.2038  0.5466  0.3568
  929MOL0     C25326  -2.556   6.585   7.303  0.0348 -0.7204 -0.3196
  929MOL0     O25327  -2.478   6.312   7.430  0.3576 -0.3399 -0.0946
  929MOL0     C25328  -2.233   6.175   7.412 -0.4180  0.2587 -0.0521
  929MOL0     C25329  -2.111   6.112   7.394 -0.5629 -0.0818 -0.7990
  929MOL0     N25330  -1.383   6.108   7.116  0.7341  1.1897  0.7344
  929MOL0     N25331  -1.317   6.018   7.050  0.0259 -0.3520  0.5601
  929MOL0     C25332  -0.210   5.314   6.570  0.0283  0.7738 -0.2246
  929MOL0     C25333  -0.069   5.296   6.574  0.3125  0.2192  0.7125
  929MOL0     C25334   0.364   5.279   6.469  0.1431  0.0943 -1.0470
  929MOL0     C25335   0.434   5.372   6.545  0.6025 -0.4780  0.6971
  929MOL0     C25336   0.560   5.406   6.512  0.0541 -0.5017 -0.4910
  929MOL0     C25337   0.641   5.325   6.441  0.8929 -1.0335 -0.1191
  929MOL0     O25338   0.778   5.354   6.424  0.2245 -0.1112  0.1334
  929MOL0     C25339   0.825   5.339   6.281  0.3943 -0.7764 -0.6463
  929MOL0     C25340   0.777   5.441   6.181  0.4615  0.3979  0.7818
  929MOL0     C25341   0.828   5.432   6.034 -0.2231  0.1334  0.5044
  929MOL0     C25342   0.723   5.483   5.939 -0.3381  0.0033 -0.8212
  929MOL0     C25343   0.723   5.630   5.926  0.2330 -0.8595 -0.5383
  929MOL0     C25344   0.721   5.750   5.914 -0.6941  0.2699  0.4132
  929MOL0     C25345   0.581   5.213   6.385 -0.2471 -0.4385  0.3260
  929MOL0     C25346   0.440   5.194   6.387  1.1893  0.0604 -0.2238
  929MOL0     C25347   0.385   5.080   6.316  0.3986  0.5190  0.9784
  929MOL0     H25348   0.016   5.621   6.545 -3.4875  2.0997 -1.3212
  929MOL0     H25349  -0.214   5.642   6.551 -4.4052 -1.6078  1.6077
  929MOL0     H25350  -0.393   5.615   6.695 -1.5622  1.8175  0.6369
  929MOL0     H25351  -0.472   5.655   6.542  0.0388 -1.1846 -0.1690
  929MOL0     H25352  -0.550   5.477   6.773  0.8653 -1.1694 -0.3658
  929MOL0     H25353  -0.657   5.502   6.622 -1.2379  3.7117 -1.3933
  929MOL0     H25354  -0.679   5.724   6.670  0.7547  0.8730  0.4714
  929MOL0     H25355  -0.570   5.736   6.806  0.9865 -0.8017  0.0571
  929MOL0     H25356  -0.818   5.560   6.805  0.4532  1.1273 -3.1491
  929MOL0     H25357  -0.722   5.610   6.948 -1.7574  1.0683  0.9381
  929MOL0     H25358  -0.791   5.845   6.922 -2.6082  1.9334 -1.1324
  929MOL0     H25359  -0.892   5.802   6.787 -2.6132 -1.4042  0.2239
  929MOL0     H25360  -1.045   5.675   6.909  1.8086 -2.0923 -0.1552
  929MOL0     H25361  -0.935   5.677   7.043 -0.5222  1.4558  1.1418
  929MOL0     H25362  -1.079   5.928   6.934 -0.0648  0.9965 -0.0712
  929MOL0     H25363  -0.979   5.918   7.085  1.0321 -0.1604 -0.6850
  929MOL0     H25364  -1.221   5.733   7.048  1.8689 -0.6001  0.2061
  929MOL0     H25365  -1.130   5.769   7.194 -1.8511  1.5025  0.9867
  929MOL0     H25366  -1.245   5.947   7.360 -2.4015 -1.1048  1.3924
  929MOL0     H25367  -1.382   6.192   7.442 -0.7450  0.9654 -0.5744
  929MOL0     H25368  -1.444   6.283   7.303  3.1693  0.9096  0.0645
  929MOL0     H25369  -1.642   6.129   7.282 -1.4041  0.9440  0.5550
  929MOL0     H25370  -1.571   6.037   7.421  2.8283 -0.4995 -1.4284
  929MOL0     H25371  -1.695   6.310   7.406  3.1512  0.2679 -0.6398
  929MOL0     H25372  -1.598   6.258   7.545  0.8056 -4.5493  1.5210
  929MOL0     H25373  -1.846   6.222   7.587 -0.4132 -0.5061 -0.6375
  929MOL0     H25374  -1.763   6.064   7.575 -0.2868  0.3345  1.0877
  929MOL0     H25375  -1.917   6.377   7.397  0.4978  1.5462 -1.4870
  929MOL0     H25376  -2.130   6.494   7.390  0.3765 -0.0134 -3.9317
  929MOL0     H25377  -2.525   6.638   7.635  0.4947 -1.1509 -1.3748
  929MOL0     H25378  -2.738   6.742   7.607 -1.7203 -0.4395 -0.7403
  929MOL0     H25379  -2.908   6.755   7.178  0.0824 -2.1998 -0.8899
  929MOL0     H25380  -2.939   6.615   7.262 -0.8293  0.0272 -1.0188
  929MOL0     H25381  -3.111   6.738   7.408  1.1407  0.2489 -0.0999
  929MOL0     H25382  -3.077   6.881   7.315 -1.0890  0.5734 -1.3352
  929MOL0     H25383  -3.252   6.824   7.180  0.9082  0.5601  0.3615
  929MOL0     H25384  -3.139   6.707   7.107  0.5030 -0.2717  0.2482
  929MOL0     H25385  -3.290   6.645   7.350 -1.9759 -1.7952 -0.3496
  929MOL0     H25386  -3.205   6.530   7.240  2.3748  1.4134  0.6387
  929MOL0     H25387  -3.365   6.591   7.056 -1.4954  1.2430 -0.0954
  929MOL0     H25388  -3.479   6.658   7.176  0.8163  0.4617  0.3055
  929MOL0     H25389  -3.371   6.367   7.203 -0.8854 -1.0258 -0.3443
  929MOL0     H25390  -3.501   6.460   7.285  3.3545  2.1110  1.6502
  929MOL0     H25391  -3.494   6.404   6.991 -2.7575  0.4673 -1.4833
  929MOL0     H25392  -3.610   6.496   7.084  1.2406  1.2877  1.3860
  929MOL0     H25393  -3.539   6.200   7.123  0.9311  1.0400  3.4665
  929MOL0     H25394  -3.669   6.272   7.214  0.9009 -0.5697  0.4985
  929MOL0     H25395  -2.715   6.640   7.176 -0.7342 -0.7178  0.6240
  929MOL0     H25396  -2.525   6.531   7.214 -1.8627  0.5041 -1.8135
  929MOL0     H25397  -2.318   6.110   7.399 -1.6250  1.6233  0.6464
  929MOL0     H25398  -2.101   6.003   7.394  0.0452 -0.0439  0.8971
  929MOL0     H25399  -0.277   5.229   6.580 -1.1160  1.7559  0.7904
  929MOL0     H25400  -0.035   5.193   6.587 -0.3631  0.0313  1.0134
  929MOL0     H25401   0.388   5.438   6.618  0.1154  2.1046 -1.7552
  929MOL0     H25402   0.586   5.507   6.544 -2.1173  0.0710 -0.3908
  929MOL0     H25403   0.809   5.234   6.257  3.8064 -1.6246  0.2062
  929MOL0     H25404   0.934   5.353   6.281  0.3701 -0.2420 -2.5847
  929MOL0     H25405   0.812   5.540   6.212 -0.1319  0.9062 -0.1207
  929MOL0     H25406   0.668   5.436   6.179  0.5106 -1.0144  0.3249
  929MOL0     H25407   0.845   5.326   6.011 -3.2835 -0.5604  1.0252
  929MOL0     H25408   0.924   5.483   6.025 -0.4010  0.2907 -0.6816
  929MOL0     H25409   0.736   5.427   5.846 -1.9441  0.6089 -1.4402
  929MOL0     H25410   0.629   5.447   5.982  0.9599 -0.3240  1.9745
  929MOL0     H25411   0.711   5.857   5.917  2.2317  0.7263 -1.5201
  929MOL0     H25412   0.640   5.133   6.340  1.0206 -0.1802  1.4478
  929MOL0     H25413   0.348   5.004   6.384  2.4211 -0.3881  1.1536
  929MOL0     H25414   0.312   5.111   6.241  0.8167 -0.8659 -0.0514
  929MOL0     H25415   0.462   5.040   6.249 -0.5107 -2.1519  1.4304
  930MOL0     O25416   2.963   6.487   0.569 -0.4921  0.2687 -0.5816
  930MOL0     C25417   2.879   6.505   0.482  0.0535 -0.1874  0.4917
  930MOL0     O25418   2.910   6.527   0.348  1.0031 -0.3388 -0.3716
  930MOL0     C25419   3.007   6.612   0.306  0.1200 -0.4083  0.4921
  930MOL0     C25420   3.072   6.703   0.385 -0.7518 -1.0054 -0.4265
  930MOL0     C25421   3.167   6.790   0.326  0.7741 -0.8706  0.2086
  930MOL0     C25422   3.201   6.778   0.186  0.4237 -0.1927 -0.5342
  930MOL0     O25423   3.305   6.848   0.123 -0.0755  0.1156  0.1953
  930MOL0     C25424   3.385   6.938   0.201 -0.4865 -0.4300 -0.1344
  930MOL0     C25425   3.492   7.009   0.119  0.5011 -0.2020  0.5691
  930MOL0     C25426   3.617   7.068   0.198 -0.7185  0.0160 -0.5719
  930MOL0     C25427   3.584   7.166   0.318  0.1014 -0.7817  0.5662
  930MOL0     C25428   3.708   7.223   0.381 -0.0532 -0.2596  0.5541
  930MOL0     C25429   3.802   7.294   0.291  0.6748 -0.5098 -0.1477
  930MOL0     C25430   3.891   7.379   0.382  0.1316  0.2168 -0.1034
  930MOL0     C25431   3.849   7.508   0.460  0.5594  0.1141 -0.1378
  930MOL0     N25432   3.813   7.612   0.359 -0.9682 -0.2951 -0.3604
  930MOL0     C25433   3.691   7.627   0.295  0.0094  0.7893 -0.1991
  930MOL0     C25434   3.714   7.720   0.201 -0.6000  0.2000  0.6128
  930MOL0     C25435   3.603   7.772   0.103 -0.0646 -0.0165  0.1873
  930MOL0     C25436   3.563   7.913   0.143 -0.1245  0.3858  0.1760
  930MOL0     C25437   3.474   7.905   0.268 -0.3530  0.2307  0.4871
  930MOL0     C25438   3.404   8.039   0.298  0.7324  0.0463 -0.1427
  930MOL0     O25439   3.339   8.074   0.180  0.1529 -0.0912  0.1137
  930MOL0     C25440   3.247   8.167   0.201 -0.3339  0.3507  0.7730
  930MOL0     C25441   3.112   8.132   0.200 -0.0062 -0.2398 -1.1528
  930MOL0     C25442   3.017   8.234   0.213  0.3378 -0.9339  0.2546
  930MOL0     C25443   3.046   8.370   0.230 -0.1703 -0.2882  0.4043
  930MOL0     C25444   2.934   8.470   0.229 -0.4158  0.0594  1.2672
  930MOL0     O25445   2.821   8.417   0.193  0.2524 -0.4192  0.7908
  930MOL0     C25446   2.697   8.474   0.220  0.2446  0.2388  0.0014
  930MOL0     C25447   2.661   8.549   0.337 -0.8700  0.3508  0.2053
  930MOL0     C25448   2.530   8.590   0.350  0.9308 -0.3820 -0.1572
  930MOL0     C25449   2.425   8.556   0.257  0.3309 -0.2806 -0.0403
  930MOL0     O25450   2.293   8.595   0.259  0.7402 -0.0041  0.1127
  930MOL0     C25451   2.226   8.638   0.374  0.1508 -0.2496 -0.0573
  930MOL0     C25452   2.088   8.703   0.337 -0.3320  0.6763  0.3609
  930MOL0     C25453   1.978   8.599   0.285  0.6598  0.2848  0.3294
  930MOL0     C25454   1.846   8.668   0.292 -0.0305  0.3097 -0.4858
  930MOL0     C25455   1.741   8.611   0.187  0.3262  0.5203 -0.4137
  930MOL0     C25456   1.619   8.696   0.196 -0.6629  0.9192 -0.9796
  930MOL0     C25457   1.523   8.684   0.076 -0.7376 -0.0051  0.1591
  930MOL0     C25458   1.571   8.774  -0.046  0.1568 -0.0576 -0.2478
  930MOL0    Cl25459   1.453   8.780  -0.173 -0.0371 -0.1081  0.0983
  930MOL0     C25460   2.459   8.482   0.154 -0.3169  0.8578 -0.0519
  930MOL0     C25461   2.599   8.430   0.142  0.7617 -0.5735  0.6530
  930MOL0     O25462   2.960   8.586   0.267 -0.0408  0.1187 -0.0697
  930MOL0     C25463   3.190   8.400   0.227  0.4313 -0.0905 -0.7311
  930MOL0     C25464   3.282   8.300   0.205  0.5681 -1.6194  0.5005
  930MOL0     N25465   3.846   7.766   0.203 -0.4266 -0.0238 -0.3755
  930MOL0     N25466   3.904   7.703   0.305  0.4121  0.9904 -0.3516
  930MOL0     C25467   3.129   6.687   0.108 -1.2175 -0.4501  0.1366
  930MOL0     C25468   3.030   6.615   0.167 -0.8333 -0.1565 -0.1836
  930MOL0     C25469   2.740   6.510   0.519 -0.9390  0.9356  0.3802
  930MOL0     C25470   2.657   6.591   0.441  0.6907 -0.0159  0.5782
  930MOL0     C25471   2.516   6.605   0.458  0.4577  0.5026 -0.7084
  930MOL0     C25472   2.454   6.525   0.560 -0.3507 -0.1405  0.4477
  930MOL0     O25473   2.317   6.528   0.590 -0.7529 -0.3824  0.2461
  930MOL0     C25474   2.230   6.583   0.499  0.5109  0.0069  0.3302
  930MOL0     C25475   2.204   6.728   0.527  0.9235  0.4194  0.8084
  930MOL0     C25476   2.111   6.744   0.655 -0.4825 -0.0562 -0.1142
  930MOL0     C25477   1.965   6.708   0.624 -0.3548 -0.2818 -0.2451
  930MOL0     C25478   1.903   6.685   0.758  0.0874 -0.1502 -0.0841
  930MOL0     C25479   1.840   6.696   0.857 -0.9466 -1.3160  0.1737
  930MOL0     C25480   2.542   6.448   0.640  0.0225  0.8761  0.0627
  930MOL0     C25481   2.676   6.444   0.633  0.4830 -0.2698 -0.3309
  930MOL0     C25482   2.752   6.360   0.728 -0.2879  0.1239 -0.3027
  930MOL0     H25483   3.072   6.705   0.493  0.0450 -0.4284 -0.4250
  930MOL0     H25484   3.228   6.864   0.376  2.4423 -0.4127 -2.2976
  930MOL0     H25485   3.324   7.017   0.247  2.3774  1.0444  1.4593
  930MOL0     H25486   3.429   6.882   0.284  1.7309 -2.5668 -2.5551
  930MOL0     H25487   3.444   7.095   0.070  1.3520 -0.2071 -0.3088
  930MOL0     H25488   3.512   6.935   0.042 -0.8458  0.3294 -0.3349
  930MOL0     H25489   3.689   7.116   0.132  0.7495 -1.7748 -0.3605
  930MOL0     H25490   3.679   6.986   0.235  1.1385  1.5764 -0.0965
  930MOL0     H25491   3.523   7.255   0.297  2.2113  2.0127  4.7168
  930MOL0     H25492   3.527   7.110   0.393 -1.2714 -0.0115  0.1173
  930MOL0     H25493   3.677   7.297   0.456 -1.6739 -0.2294 -0.1144
  930MOL0     H25494   3.769   7.146   0.430  1.1326  2.5228  3.9227
  930MOL0     H25495   3.861   7.222   0.233  0.8350 -1.5041  1.1927
  930MOL0     H25496   3.744   7.364   0.230  1.3353  1.5186  1.4485
  930MOL0     H25497   3.985   7.402   0.331  1.6302  0.3103  2.4758
  930MOL0     H25498   3.917   7.312   0.464 -2.0183  2.0877  2.3217
  930MOL0     H25499   3.776   7.484   0.537  1.3775 -1.5331  0.1543
  930MOL0     H25500   3.937   7.538   0.518  1.2884  1.7418 -1.9528
  930MOL0     H25501   3.601   7.569   0.313 -0.1598  1.2519  0.5032
  930MOL0     H25502   3.645   7.781   0.003 -2.9184  0.9405 -1.0265
  930MOL0     H25503   3.524   7.697   0.096  2.9422 -3.2880 -3.0949
  930MOL0     H25504   3.652   7.970   0.172  0.6045 -1.9813  3.0312
  930MOL0     H25505   3.509   7.958   0.059 -0.3843 -1.6161 -0.7896
  930MOL0     H25506   3.534   7.860   0.347 -1.5718 -0.9378  0.7877
  930MOL0     H25507   3.400   7.830   0.239  0.1939 -0.2874  0.4121
  930MOL0     H25508   3.478   8.115   0.324  0.5891 -0.2492  1.1679
  930MOL0     H25509   3.326   8.035   0.375  2.2501  0.9070  1.5126
  930MOL0     H25510   3.084   8.028   0.187 -0.4080 -0.4576  1.0686
  930MOL0     H25511   2.915   8.199   0.197  0.0851 -0.3043  0.4295
  930MOL0     H25512   2.737   8.575   0.409 -0.8724 -0.5184  0.5395
  930MOL0     H25513   2.512   8.654   0.436 -1.8152 -0.6640 -0.4560
  930MOL0     H25514   2.232   8.553   0.442 -0.5913  1.6743  2.5887
  930MOL0     H25515   2.284   8.712   0.430 -1.4908  0.3925  0.8754
  930MOL0     H25516   2.051   8.747   0.430 -0.4231  0.5168  0.4008
  930MOL0     H25517   2.106   8.780   0.261 -1.4227  0.9198  0.3306
  930MOL0     H25518   1.989   8.581   0.178 -2.2447 -0.1149 -0.0001
  930MOL0     H25519   1.981   8.505   0.340 -0.6140  0.9676  1.6465
  930MOL0     H25520   1.874   8.769   0.262  0.1272  0.9796  1.7095
  930MOL0     H25521   1.806   8.680   0.394 -2.6658 -0.2554 -1.3847
  930MOL0     H25522   1.707   8.510   0.211 -2.4438  1.8142  1.6286
  930MOL0     H25523   1.782   8.615   0.086  2.8869  0.7394  0.5537
  930MOL0     H25524   1.555   8.682   0.283  0.2802 -0.3401 -0.4549
  930MOL0     H25525   1.648   8.801   0.192 -0.6832  1.2174  2.9102
  930MOL0     H25526   1.424   8.715   0.112 -2.3714 -2.0892 -2.2008
  930MOL0     H25527   1.504   8.581   0.046 -1.3515 -0.2144  1.2354
  930MOL0     H25528   1.587   8.874  -0.004  2.0933 -0.5895  0.3696
  930MOL0     H25529   1.658   8.735  -0.101 -1.6749  2.9750 -6.1595
  930MOL0     H25530   2.385   8.452   0.081 -0.5177  1.2659 -0.0157
  930MOL0     H25531   2.615   8.347   0.073  1.0391 -0.0406  0.0676
  930MOL0     H25532   3.223   8.503   0.228  2.5135 -0.5704  3.6713
  930MOL0     H25533   3.385   8.333   0.207  0.1392 -0.1385 -0.1466
  930MOL0     H25534   3.162   6.698   0.005  0.3192  0.7701  0.7214
  930MOL0     H25535   2.966   6.557   0.101 -1.0273  0.0402 -0.1696
  930MOL0     H25536   2.696   6.660   0.367 -0.1258 -1.9181 -1.7588
  930MOL0     H25537   2.459   6.673   0.396  1.6073 -0.4426 -2.9166
  930MOL0     H25538   2.132   6.536   0.505  0.0348  1.0949  4.1762
  930MOL0     H25539   2.264   6.567   0.397  0.5273 -3.1343  0.7493
  930MOL0     H25540   2.165   6.763   0.431  0.8650 -0.6039  0.4388
  930MOL0     H25541   2.304   6.767   0.545  0.6489  0.4325  2.5500
  930MOL0     H25542   2.109   6.841   0.704 -0.6227 -1.6089  3.2130
  930MOL0     H25543   2.144   6.680   0.737 -1.1092  2.2266  2.0091
  930MOL0     H25544   1.913   6.791   0.578 -0.1316  0.8306  1.4235
  930MOL0     H25545   1.947   6.615   0.569  0.3112 -1.3812  1.2826
  930MOL0     H25546   1.789   6.729   0.945 -1.3453 -0.2049 -0.4562
  930MOL0     H25547   2.488   6.402   0.722 -2.0658  1.6090 -0.8290
  930MOL0     H25548   2.699   6.355   0.824  1.7710  1.5320  1.0124
  930MOL0     H25549   2.765   6.259   0.688  0.6338  1.4246 -3.6007
  930MOL0     H25550   2.852   6.395   0.756 -0.4451 -0.8297  1.6134
  931MOL0     O25551   1.876   0.169   2.771  0.2092 -0.5431 -0.1510
  931MOL0     C25552   1.873   0.154   2.647 -0.7219  0.7992 -1.0420
  931MOL0     O25553   1.893   0.244   2.548 -0.6844  0.3449  0.1679
  931MOL0     C25554   1.912   0.379   2.563  0.0467  0.0598  0.9331
  931MOL0     C25555   1.973   0.440   2.669 -0.1197 -0.3760  0.2868
  931MOL0     C25556   1.971   0.582   2.678  0.0554  0.5620  0.5838
  931MOL0     C25557   1.916   0.663   2.573 -0.0298  0.3133 -0.2224
  931MOL0     O25558   1.907   0.801   2.590 -0.2834 -0.2066  0.3923
  931MOL0     C25559   1.858   0.873   2.478 -0.7165 -0.5047 -0.1146
  931MOL0     C25560   1.829   1.021   2.494  0.2599  0.5532  0.1253
  931MOL0     C25561   1.807   1.102   2.370  0.1050 -0.3154 -0.5814
  931MOL0     C25562   1.761   1.253   2.400  0.1577 -0.1783 -0.0033
  931MOL0     C25563   1.778   1.335   2.274 -0.9345 -0.0157  0.9982
  931MOL0     C25564   1.757   1.480   2.292 -0.5398 -0.3916 -1.2375
  931MOL0     C25565   1.879   1.553   2.359 -0.3797  0.2326 -0.5594
  931MOL0     C25566   2.006   1.543   2.283 -0.6798 -0.0224 -0.4445
  931MOL0     N25567   2.013   1.661   2.186  0.2997  0.7470 -0.5798
  931MOL0     C25568   1.911   1.725   2.115 -0.3005  0.5448 -0.3429
  931MOL0     C25569   1.966   1.844   2.083  0.2708 -0.3138  0.6675
  931MOL0     C25570   1.892   1.967   2.016  0.5760  0.6235 -0.2060
  931MOL0     C25571   1.897   1.960   1.856  0.6544  0.1156 -0.0601
  931MOL0     C25572   1.836   1.832   1.808 -0.9903  0.2300  0.3884
  931MOL0     C25573   1.804   1.837   1.657  0.4817 -0.3368 -0.2195
  931MOL0     O25574   1.753   1.708   1.621 -0.2416  0.2579  0.9214
  931MOL0     C25575   1.691   1.715   1.498  0.7479 -0.0728 -0.4284
  931MOL0     C25576   1.551   1.730   1.488  0.5766 -0.0355  0.5993
  931MOL0     C25577   1.482   1.745   1.366  0.1024  0.5019  0.9161
  931MOL0     C25578   1.559   1.733   1.244 -0.5592 -0.0487 -0.0127
  931MOL0     C25579   1.493   1.747   1.110  0.2541  0.7413 -0.7881
  931MOL0     O25580   1.571   1.767   1.006 -0.2626  0.2096 -0.6272
  931MOL0     C25581   1.521   1.757   0.876 -0.4414  0.2097  0.7248
  931MOL0     C25582   1.459   1.636   0.832 -0.1456  0.1854 -0.3090
  931MOL0     C25583   1.407   1.636   0.699  0.0215  0.1550  0.4534
  931MOL0     C25584   1.428   1.741   0.612  0.4441 -1.1886  0.4041
  931MOL0     O25585   1.369   1.735   0.487  0.4101  0.2088  0.2538
  931MOL0     C25586   1.221   1.742   0.480  0.1669  0.2660  1.0536
  931MOL0     C25587   1.173   1.793   0.338  0.7782  0.0984  0.5140
  931MOL0     C25588   1.028   1.848   0.331  0.4630  0.8471  0.6904
  931MOL0     C25589   0.925   1.756   0.393  0.2044  0.1326 -0.0321
  931MOL0     C25590   0.794   1.831   0.399  0.0961 -0.4216 -0.7596
  931MOL0     C25591   0.697   1.738   0.329  0.0927  0.5644  0.1082
  931MOL0     C25592   0.554   1.793   0.343 -0.3519  0.9812 -0.0460
  931MOL0     C25593   0.444   1.694   0.289 -0.5271 -0.1544  0.8294
  931MOL0    Cl25594   0.283   1.768   0.310 -0.0899  0.1049 -0.0816
  931MOL0     C25595   1.493   1.862   0.654 -0.0290 -0.4769  0.2292
  931MOL0     C25596   1.533   1.869   0.791 -0.0624  0.2318 -0.9459
  931MOL0     O25597   1.369   1.741   1.111 -0.2682  0.3437 -0.3023
  931MOL0     C25598   1.700   1.716   1.252  0.1578  0.0599 -0.3544
  931MOL0     C25599   1.766   1.705   1.376 -0.2465 -0.3390 -0.2984
  931MOL0     N25600   2.091   1.853   2.138 -1.1341 -0.3518  0.1631
  931MOL0     N25601   2.130   1.736   2.182  0.1153  0.4134 -0.5325
  931MOL0     C25602   1.863   0.601   2.464  0.1564  0.7295  0.1594
  931MOL0     C25603   1.864   0.459   2.459 -0.0040 -0.8558 -0.1998
  931MOL0     C25604   1.865   0.008   2.590 -0.1007 -0.4342  0.0025
  931MOL0     C25605   1.895  -0.007   2.450 -0.5661 -0.9161  0.6902
  931MOL0     C25606   1.908  -0.124   2.382 -0.3937 -0.9677  0.0946
  931MOL0     C25607   1.897  -0.244   2.452  0.9508 -0.4081 -0.5540
  931MOL0     O25608   1.930  -0.356   2.389 -0.0568  0.9778  0.3416
  931MOL0     C25609   1.853  -0.478   2.407 -0.3074 -0.1255 -0.4710
  931MOL0     C25610   1.945  -0.604   2.386  0.2957  0.3388  0.2728
  931MOL0     C25611   2.034  -0.592   2.257  0.2468 -0.2258  0.4015
  931MOL0     C25612   2.098  -0.724   2.207  0.5661 -0.6056  0.5937
  931MOL0     C25613   2.204  -0.764   2.299 -0.2313  0.2208 -0.5382
  931MOL0     C25614   2.287  -0.802   2.393 -0.0706 -0.5653 -0.4539
  931MOL0     C25615   1.858  -0.237   2.588  0.3655 -0.4171  0.8687
  931MOL0     C25616   1.841  -0.111   2.655  1.2143  1.3579  0.0553
  931MOL0     C25617   1.778  -0.097   2.801 -0.4950  0.5114  0.5187
  931MOL0     H25618   2.000   0.373   2.750  2.1102  0.0611 -0.0125
  931MOL0     H25619   2.008   0.619   2.773 -0.6892  0.5803  0.8715
  931MOL0     H25620   1.927   0.868   2.393 -1.1282  1.3145 -0.5881
  931MOL0     H25621   1.762   0.823   2.462 -1.9513  1.5531  0.5712
  931MOL0     H25622   1.917   1.056   2.549  0.7336 -2.3372  1.4195
  931MOL0     H25623   1.744   1.039   2.560  1.8765  2.1710  1.9285
  931MOL0     H25624   1.727   1.055   2.312 -1.0685  1.5018 -0.5186
  931MOL0     H25625   1.892   1.086   2.303  0.8876  1.3291 -0.0268
  931MOL0     H25626   1.656   1.252   2.430  0.3973  0.0138  0.8935
  931MOL0     H25627   1.816   1.300   2.482 -0.9475  1.3868 -0.1192
  931MOL0     H25628   1.879   1.311   2.237 -0.9139 -0.0262  1.0610
  931MOL0     H25629   1.711   1.302   2.194  2.9984 -3.4993 -1.3329
  931MOL0     H25630   1.740   1.526   2.194 -0.4932 -0.5497 -1.3197
  931MOL0     H25631   1.662   1.499   2.342 -0.1755 -3.1784  0.7000
  931MOL0     H25632   1.896   1.513   2.460  2.4948 -0.0337 -1.0467
  931MOL0     H25633   1.855   1.659   2.371 -1.5993 -0.0343 -0.5665
  931MOL0     H25634   2.089   1.545   2.354 -0.6508 -0.0679 -0.4769
  931MOL0     H25635   2.029   1.447   2.235 -2.3961 -0.8435  0.2888
  931MOL0     H25636   1.807   1.701   2.100  0.1238 -1.1955 -0.7584
  931MOL0     H25637   1.790   1.962   2.055  0.2894 -0.8558 -1.0647
  931MOL0     H25638   1.953   2.047   2.058  2.9805 -0.2394 -1.8710
  931MOL0     H25639   1.836   2.042   1.816 -0.7180 -0.3662  0.9954
  931MOL0     H25640   1.998   1.976   1.818  0.6634  0.5280  0.1251
  931MOL0     H25641   1.738   1.811   1.850 -0.6579 -2.6401 -0.0575
  931MOL0     H25642   1.903   1.750   1.834 -2.0574 -0.2218  1.8670
  931MOL0     H25643   1.884   1.862   1.587  0.7002  1.4503  0.6183
  931MOL0     H25644   1.726   1.911   1.636 -0.6303 -1.3285  0.2615
  931MOL0     H25645   1.485   1.739   1.574 -1.9146  2.6271 -1.4002
  931MOL0     H25646   1.375   1.741   1.349  0.5502 -0.8702 -2.2169
  931MOL0     H25647   1.444   1.561   0.909  3.4110  0.7413  1.1447
  931MOL0     H25648   1.353   1.549   0.664  1.7559 -1.1357  0.8302
  931MOL0     H25649   1.179   1.646   0.510  0.0583  0.5768  1.9136
  931MOL0     H25650   1.185   1.820   0.547 -4.1287 -0.2729 -0.2836
  931MOL0     H25651   1.237   1.880   0.324 -0.3792  1.4107  2.8297
  931MOL0     H25652   1.178   1.717   0.260  0.7851  1.2739 -0.6515
  931MOL0     H25653   1.010   1.939   0.389 -2.5462  0.4537  0.5333
  931MOL0     H25654   1.000   1.875   0.229  2.1540 -0.2090 -0.0912
  931MOL0     H25655   0.935   1.731   0.499 -2.3721 -0.0146  0.2476
  931MOL0     H25656   0.921   1.667   0.329  1.7492  0.1945 -0.2498
  931MOL0     H25657   0.793   1.936   0.366  1.0253  0.2811  1.3182
  931MOL0     H25658   0.766   1.844   0.504 -1.1013  2.3656 -1.3229
  931MOL0     H25659   0.731   1.736   0.225  0.9489 -2.1486  0.3665
  931MOL0     H25660   0.703   1.637   0.370 -2.3868 -0.1529 -1.0869
  931MOL0     H25661   0.552   1.889   0.291  0.2777  0.9636 -0.1172
  931MOL0     H25662   0.532   1.810   0.449  1.5085 -3.7664  1.4023
  931MOL0     H25663   0.464   1.673   0.184 -0.4253 -0.6340  0.9375
  931MOL0     H25664   0.464   1.594   0.330  0.0442 -1.1272 -1.6441
  931MOL0     H25665   1.503   1.952   0.594 -2.0538 -0.7507 -0.5981
  931MOL0     H25666   1.579   1.956   0.837  0.8269 -0.6846 -0.0505
  931MOL0     H25667   1.755   1.711   1.159  0.8923 -0.8097  0.1041
  931MOL0     H25668   1.874   1.709   1.384 -0.2313  0.0931 -0.6629
  931MOL0     H25669   1.832   0.653   2.375  0.9919 -0.1044 -0.6386
  931MOL0     H25670   1.815   0.408   2.377  2.1317 -2.9763 -0.2701
  931MOL0     H25671   1.916   0.076   2.384 -1.1014  0.0153  1.6625
  931MOL0     H25672   1.940  -0.115   2.278 -0.0728  0.9038  0.3047
  931MOL0     H25673   1.777  -0.479   2.328 -0.5282  2.6797 -0.3855
  931MOL0     H25674   1.794  -0.483   2.499 -0.8510 -0.0106 -0.8114
  931MOL0     H25675   1.886  -0.692   2.361 -0.6926  0.3280  2.3930
  931MOL0     H25676   1.995  -0.635   2.479 -1.3559 -0.8390  0.8240
  931MOL0     H25677   2.122  -0.528   2.270  1.1130 -1.2258 -0.3354
  931MOL0     H25678   1.963  -0.546   2.188 -0.1092 -3.0939 -1.2917
  931MOL0     H25679   2.020  -0.800   2.201  0.8647 -0.9309  0.7715
  931MOL0     H25680   2.134  -0.707   2.105 -0.0160  1.7121  0.7202
  931MOL0     H25681   2.365  -0.803   2.466 -0.4543  0.5137 -0.0129
  931MOL0     H25682   1.844  -0.329   2.642  2.1622 -1.2894 -0.0740
  931MOL0     H25683   1.845  -0.072   2.884 -2.1613  2.2498  1.4397
  931MOL0     H25684   1.693  -0.029   2.794 -1.0126 -0.1152  0.5981
  931MOL0     H25685   1.744  -0.199   2.824  4.3775 -1.8447 -1.4055
  932MOL0     O25686  10.612   9.625   0.479 -0.2331 -0.3114  0.0810
  932MOL0     C25687  10.532   9.585   0.397  0.3881 -0.1740 -0.5475
  932MOL0     O25688  10.542   9.603   0.257  0.1293 -0.3415 -0.1031
  932MOL0     C25689  10.662   9.657   0.224  0.1568 -0.0624 -0.1806
  932MOL0     C25690  10.681   9.793   0.233  0.0670  0.3163 -0.2316
  932MOL0     C25691  10.794   9.846   0.176 -0.0517  0.4448  0.8157
  932MOL0     C25692  10.888   9.764   0.111 -0.3180 -0.1217 -0.1229
  932MOL0     O25693  11.003   9.828   0.064 -0.3051 -0.2952  0.0827
  932MOL0     C25694  11.121   9.743   0.041  0.2580  0.7259 -0.1751
  932MOL0     C25695  11.232   9.834   0.010 -0.5724 -0.9327  0.6010
  932MOL0     C25696  11.339   9.741  -0.044 -0.4971  0.5661  0.3126
  932MOL0     C25697  11.467   9.834  -0.055  0.3489  0.0080 -0.3907
  932MOL0     C25698  11.577   9.749  -0.111 -0.2289  0.9984 -0.1476
  932MOL0     C25699  11.629   9.646  -0.014  0.3695 -0.1159  0.2024
  932MOL0     C25700  11.778   9.635  -0.017 -0.5269 -0.5064  0.3309
  932MOL0     C25701  11.830   9.542   0.086 -0.4258  0.5955  0.0649
  932MOL0     N25702  11.984   9.532   0.075  0.6266  0.2348 -0.1506
  932MOL0     C25703  12.068   9.503   0.176  0.8794  0.3515 -0.2911
  932MOL0     C25704  12.194   9.501   0.130 -0.0052  1.4204  0.4472
  932MOL0     C25705  12.318   9.489   0.205  0.0145  0.0152 -0.0329
  932MOL0     C25706  12.385   9.619   0.251 -1.2868 -1.3692 -1.1936
  932MOL0     C25707  12.314   9.708   0.354 -0.5138  0.4747  0.3858
  932MOL0     C25708  12.298   9.638   0.490 -0.8881 -0.1374  0.2165
  932MOL0     O25709  12.234   9.725   0.588 -0.5013 -0.0696  0.1245
  932MOL0     C25710  12.243   9.685   0.719  0.1424  0.4478 -0.2220
  932MOL0     C25711  12.345   9.624   0.773 -0.1584 -0.4131  0.7957
  932MOL0     C25712  12.350   9.582   0.902  0.0524  0.4481 -0.3971
  932MOL0     C25713  12.253   9.607   1.001 -0.2307  0.2354 -0.1590
  932MOL0     C25714  12.256   9.554   1.136  0.1239 -0.3806 -0.4887
  932MOL0     O25715  12.145   9.572   1.222  0.0502  0.0072  0.3005
  932MOL0     C25716  12.171   9.536   1.353  0.1468  0.0895  0.1191
  932MOL0     C25717  12.239   9.612   1.451 -0.6292  0.5786  0.1726
  932MOL0     C25718  12.264   9.556   1.574  0.9742  0.1194  0.4161
  932MOL0     C25719  12.194   9.436   1.608  0.2999 -0.8340 -0.3129
  932MOL0     O25720  12.199   9.375   1.730  0.5456 -0.5157  0.8085
  932MOL0     C25721  12.320   9.405   1.804  0.1063 -1.0383 -0.2522
  932MOL0     C25722  12.353   9.316   1.921  0.3040  0.0806 -0.4249
  932MOL0     C25723  12.247   9.294   2.030 -0.0354  0.4515 -0.0349
  932MOL0     C25724  12.299   9.247   2.170 -0.7805 -0.6057 -0.5255
  932MOL0     C25725  12.332   9.101   2.186  0.5152  0.6433  0.3650
  932MOL0     C25726  12.469   9.072   2.135 -0.4132 -0.7781  0.7346
  932MOL0     C25727  12.490   8.913   2.144  0.4283 -1.0992 -0.0678
  932MOL0     C25728  12.617   8.870   2.082  0.7338 -0.5276 -0.3591
  932MOL0    Cl25729  12.642   8.700   2.123  0.3264 -0.2718  0.1212
  932MOL0     C25730  12.120   9.368   1.518  0.8514  0.7910  0.1584
  932MOL0     C25731  12.114   9.410   1.391 -0.9930  0.8723  0.9783
  932MOL0     O25732  12.364   9.497   1.167 -0.1614  0.2588  0.4012
  932MOL0     C25733  12.142   9.676   0.942  0.5676 -0.0885  0.3371
  932MOL0     C25734  12.138   9.718   0.807 -0.0132 -0.5928 -0.0575
  932MOL0     N25735  12.186   9.506  -0.012  0.6045 -0.1885  0.6280
  932MOL0     N25736  12.063   9.537  -0.043 -0.3661  0.5414 -0.2912
  932MOL0     C25737  10.870   9.626   0.106  0.4461 -0.7864  0.3390
  932MOL0     C25738  10.753   9.581   0.158 -0.0039  0.5291  0.3903
  932MOL0     C25739  10.444   9.482   0.455  0.4920  0.1148 -0.3781
  932MOL0     C25740  10.391   9.384   0.369  0.3611  0.1698 -0.1614
  932MOL0     C25741  10.285   9.300   0.414 -0.5925  0.2990  0.1245
  932MOL0     C25742  10.244   9.284   0.540 -0.1382  0.0526 -0.1562
  932MOL0     O25743  10.142   9.187   0.567 -1.0641 -0.8390 -0.2272
  932MOL0     C25744  10.058   9.207   0.674 -0.2034 -1.2182 -0.0589
  932MOL0     C25745   9.930   9.263   0.630  0.4843  0.8122 -0.2101
  932MOL0     C25746   9.858   9.159   0.532  0.6584 -0.6502 -0.4267
  932MOL0     C25747   9.733   9.223   0.487 -0.2372 -0.7622  0.4453
  932MOL0     C25748   9.661   9.144   0.383 -1.0422  0.2160  0.3071
  932MOL0     C25749   9.587   9.081   0.316 -0.3820  0.3629  0.1973
  932MOL0     C25750  10.318   9.361   0.633  0.5500  0.4179  0.4689
  932MOL0     C25751  10.413   9.456   0.596  0.7530  0.0366 -1.1434
  932MOL0     C25752  10.473   9.550   0.703  0.4142  0.3104 -0.3915
  932MOL0     H25753  10.616   9.865   0.281  0.9932  0.7247  0.4580
  932MOL0     H25754  10.820   9.951   0.172  2.5639 -0.1390 -0.2567
  932MOL0     H25755  11.157   9.691   0.130 -0.6943  0.3097 -0.0217
  932MOL0     H25756  11.079   9.679  -0.037 -0.0414  1.5113 -0.6666
  932MOL0     H25757  11.268   9.882   0.102 -0.7323 -0.2349  0.3019
  932MOL0     H25758  11.204   9.921  -0.050  1.8416 -1.5016 -1.5267
  932MOL0     H25759  11.316   9.697  -0.141  1.5974 -1.5398  0.6946
  932MOL0     H25760  11.360   9.659   0.026  1.0016 -2.4618 -3.3576
  932MOL0     H25761  11.442   9.912  -0.128 -0.1662  0.0947 -0.1253
  932MOL0     H25762  11.502   9.879   0.038 -0.1323  1.3202 -0.8257
  932MOL0     H25763  11.549   9.698  -0.204 -4.0240  1.1126  0.7845
  932MOL0     H25764  11.660   9.814  -0.141 -0.1329  2.2471  2.5455
  932MOL0     H25765  11.588   9.683   0.081  0.2818 -1.5725  0.7585
  932MOL0     H25766  11.593   9.545  -0.036  0.1250  0.1936 -0.8718
  932MOL0     H25767  11.821   9.733   0.005  2.5389 -1.3259 -1.4749
  932MOL0     H25768  11.808   9.601  -0.116 -1.5959  1.3252 -0.6814
  932MOL0     H25769  11.801   9.568   0.188  2.2358  0.5942  0.9161
  932MOL0     H25770  11.790   9.441   0.089 -2.8181  1.4156  4.4598
  932MOL0     H25771  12.043   9.504   0.282  0.8912 -0.5657 -0.2658
  932MOL0     H25772  12.299   9.428   0.293  0.4763  1.2736  0.9698
  932MOL0     H25773  12.395   9.441   0.144 -1.8921 -3.1421 -0.1411
  932MOL0     H25774  12.476   9.589   0.304  0.1411  0.4578 -2.4597
  932MOL0     H25775  12.416   9.677   0.164  1.4956  2.1580  1.8314
  932MOL0     H25776  12.216   9.738   0.316 -2.0532 -0.9235  2.9751
  932MOL0     H25777  12.368   9.801   0.375 -1.6513  1.5550 -1.2348
  932MOL0     H25778  12.397   9.602   0.518 -0.6912  1.6200  2.0507
  932MOL0     H25779  12.238   9.550   0.469  0.3893 -0.6809 -1.3624
  932MOL0     H25780  12.428   9.598   0.708 -0.5299 -0.0635  0.1661
  932MOL0     H25781  12.433   9.514   0.916 -1.3502 -1.4838 -0.9798
  932MOL0     H25782  12.298   9.697   1.418  2.3049 -1.4081  0.0001
  932MOL0     H25783  12.311   9.608   1.657 -1.1375  2.0247  0.5109
  932MOL0     H25784  12.409   9.409   1.740 -1.6054 -1.9618 -2.8853
  932MOL0     H25785  12.304   9.506   1.842 -1.5378 -0.7735 -1.4988
  932MOL0     H25786  12.377   9.218   1.878  0.2016 -0.0348 -0.2200
  932MOL0     H25787  12.439   9.356   1.976  1.7073 -1.8252 -1.1031
  932MOL0     H25788  12.191   9.387   2.045 -1.9585 -0.5554 -0.5494
  932MOL0     H25789  12.175   9.225   1.984  0.0997  0.6044 -0.4762
  932MOL0     H25790  12.232   9.255   2.256  1.0047  0.0257  0.8696
  932MOL0     H25791  12.382   9.313   2.195 -0.0396 -0.9114 -2.1086
  932MOL0     H25792  12.252   9.045   2.136 -1.0134  3.9396 -1.1976
  932MOL0     H25793  12.327   9.071   2.291 -0.5665  1.4277  0.5502
  932MOL0     H25794  12.481   9.117   2.036  2.8556 -0.8196  0.9946
  932MOL0     H25795  12.544   9.127   2.193 -3.1123  2.4001  1.5135
  932MOL0     H25796  12.402   8.864   2.102 -0.7102  0.7784  0.0258
  932MOL0     H25797  12.498   8.881   2.248 -1.0900  1.2083  0.8196
  932MOL0     H25798  12.625   8.894   1.976 -0.4389  0.0524 -0.3267
  932MOL0     H25799  12.692   8.935   2.130  1.8950 -1.6367 -0.6175
  932MOL0     H25800  12.072   9.275   1.546  1.0218  0.1495 -1.5890
  932MOL0     H25801  12.065   9.337   1.327  2.3230 -0.3235 -0.4496
  932MOL0     H25802  12.058   9.713   0.999 -0.5096 -1.2055 -0.4981
  932MOL0     H25803  12.056   9.774   0.762 -0.8342  1.3938  3.4856
  932MOL0     H25804  10.949   9.560   0.072  0.6062  0.2415 -1.4757
  932MOL0     H25805  10.722   9.477   0.158  0.0918  0.5016  0.1126
  932MOL0     H25806  10.421   9.382   0.264  0.3591  2.7825 -0.2781
  932MOL0     H25807  10.232   9.236   0.344 -1.0316  2.1406 -1.3055
  932MOL0     H25808  10.102   9.273   0.750 -1.0245 -1.2163  0.4274
  932MOL0     H25809  10.031   9.115   0.728  2.5554 -2.9956 -1.4456
  932MOL0     H25810   9.946   9.361   0.582  0.2514 -0.1448 -2.3839
  932MOL0     H25811   9.872   9.275   0.722  1.2498 -2.3426  0.7778
  932MOL0     H25812   9.838   9.063   0.579 -4.0326  0.5979  0.6121
  932MOL0     H25813   9.933   9.134   0.457  1.1151 -2.5882  0.6066
  932MOL0     H25814   9.665   9.232   0.573  0.4543  0.3014  0.9053
  932MOL0     H25815   9.746   9.326   0.453 -1.1119 -0.0009  2.2533
  932MOL0     H25816   9.524   9.027   0.249 -1.0013 -1.4732  2.1434
  932MOL0     H25817  10.317   9.334   0.739  4.2088 -0.2346  0.4628
  932MOL0     H25818  10.440   9.653   0.686  0.1328  0.7370  2.3057
  932MOL0     H25819  10.441   9.522   0.804 -0.0644  1.3329 -0.2494
  932MOL0     H25820  10.580   9.532   0.704  0.0928 -1.9638 -1.3739
  933MOL0     O25821   4.130  10.737   8.142  0.1202 -0.3763  0.3408
  933MOL0     C25822   4.042  10.815   8.179  0.2474 -0.0965  0.0032
  933MOL0     O25823   3.954  10.784   8.278  0.7542  0.0065 -0.5419
  933MOL0     C25824   3.973  10.680   8.365 -0.6974  0.0724 -0.1637
  933MOL0     C25825   3.868  10.614   8.429 -1.0693 -0.3752  0.3137
  933MOL0     C25826   3.888  10.522   8.525 -0.2194  0.7157  0.1147
  933MOL0     C25827   4.016  10.495   8.578  0.6251  0.1152 -0.7731
  933MOL0     O25828   4.045  10.394   8.668 -0.1280 -0.4746 -0.4014
  933MOL0     C25829   3.953  10.289   8.691  0.4707 -0.7040  0.4962
  933MOL0     C25830   4.005  10.198   8.806  0.3418  0.7544  0.6896
  933MOL0     C25831   4.020  10.285   8.938 -0.4441  0.3515 -0.4181
  933MOL0     C25832   4.000  10.190   9.062  0.1095 -0.2154  0.4602
  933MOL0     C25833   4.117  10.086   9.083  0.2496  0.0666  0.2673
  933MOL0     C25834   4.094   9.989   9.197  0.0766  0.0508 -0.3594
  933MOL0     C25835   4.189   9.869   9.208 -1.0598  0.1279  0.5015
  933MOL0     C25836   4.321   9.921   9.240 -1.1761 -0.0134 -1.4432
  933MOL0     N25837   4.411   9.833   9.325  0.4389  1.2573  1.3113
  933MOL0     C25838   4.495   9.743   9.264  0.3603 -0.8978  0.2093
  933MOL0     C25839   4.549   9.669   9.358  0.5584  0.1197  0.3616
  933MOL0     C25840   4.660   9.571   9.357 -0.2409 -0.5439  0.3506
  933MOL0     C25841   4.777   9.618   9.265 -0.7076  0.8389 -0.7684
  933MOL0     C25842   4.858   9.741   9.309 -0.1259  0.4053  0.3105
  933MOL0     C25843   4.924   9.740   9.443 -0.4307 -1.2318  0.5384
  933MOL0     O25844   5.002   9.619   9.464 -1.0582  0.0056 -0.4532
  933MOL0     C25845   5.101   9.622   9.561  0.5718  0.8693  0.9703
  933MOL0     C25846   5.066   9.609   9.693  0.1077  0.1498  0.1165
  933MOL0     C25847   5.166   9.601   9.788  0.2507 -0.0592 -0.3329
  933MOL0     C25848   5.305   9.613   9.746  0.7748  0.2831 -0.4743
  933MOL0     C25849   5.407   9.615   9.846  0.4372 -0.3934 -0.1525
  933MOL0     O25850   5.372   9.589   9.977  0.5150  0.1340  0.4981
  933MOL0     C25851   5.445   9.601  10.088  0.2240 -0.4700  0.1600
  933MOL0     C25852   5.564   9.677  10.102 -0.4884  0.6412 -0.1072
  933MOL0     C25853   5.635   9.693  10.230 -0.9157 -0.6330 -0.2331
  933MOL0     C25854   5.590   9.636  10.344  0.7711 -0.0528 -0.7301
  933MOL0     O25855   5.659   9.624  10.461  0.2134 -0.1991  0.1863
  933MOL0     C25856   5.741   9.741  10.501 -0.7956  0.1317  0.1557
  933MOL0     C25857   5.802   9.717  10.642 -0.2160  0.7803  0.5423
  933MOL0     C25858   5.900   9.599  10.655 -0.4164 -0.5271 -0.3656
  933MOL0     C25859   5.934   9.579  10.801 -0.2223  0.3429 -0.3120
  933MOL0     C25860   6.031   9.453  10.798 -0.0365 -0.0432  0.0207
  933MOL0     C25861   6.058   9.405  10.931 -0.1745 -0.3444 -0.2189
  933MOL0     C25862   6.132   9.278  10.930 -0.4564 -1.0819  0.5292
  933MOL0     C25863   6.160   9.245  11.080  0.4261  0.5120  0.7014
  933MOL0    Cl25864   6.222   9.383  11.186  0.1765 -0.4204 -0.3166
  933MOL0     C25865   5.464   9.566  10.339  0.6556 -0.5538 -0.1778
  933MOL0     C25866   5.397   9.540  10.214  0.7603 -0.6244  0.0461
  933MOL0     O25867   5.520   9.643   9.808  0.4681  0.1230 -0.1020
  933MOL0     C25868   5.335   9.639   9.610 -0.3562 -1.3219 -0.3583
  933MOL0     C25869   5.229   9.631   9.519  0.4477 -0.3520  0.3357
  933MOL0     N25870   4.499   9.720   9.486 -1.2588 -0.5739 -0.3040
  933MOL0     N25871   4.418   9.818   9.453 -0.3241  0.3325  0.3580
  933MOL0     C25872   4.126  10.566   8.519  0.1312  0.0912 -0.1703
  933MOL0     C25873   4.103  10.655   8.425 -0.3420  0.2751  0.3200
  933MOL0     C25874   4.014  10.939   8.100 -0.9024  0.7962 -0.2043
  933MOL0     C25875   3.899  11.016   8.130 -0.3268  0.9342  0.6515
  933MOL0     C25876   3.867  11.129   8.053 -0.0726  0.3730 -0.1592
  933MOL0     C25877   3.951  11.171   7.951  0.2739 -1.1374  0.0652
  933MOL0     O25878   3.906  11.283   7.890 -0.1063  0.6798  0.5981
  933MOL0     C25879   4.000  11.346   7.799  1.1242 -0.0797 -0.0397
  933MOL0     C25880   3.916  11.466   7.745 -0.0608  0.1324 -0.3829
  933MOL0     C25881   3.813  11.421   7.645  1.6489  0.0992 -0.4136
  933MOL0     C25882   3.705  11.529   7.620 -1.0316 -0.4530 -0.4014
  933MOL0     C25883   3.767  11.664   7.600 -0.3768 -0.7486 -0.6831
  933MOL0     C25884   3.820  11.771   7.580  0.9501 -0.6913  0.2739
  933MOL0     C25885   4.074  11.108   7.932 -0.2774 -0.9937  0.0435
  933MOL0     C25886   4.101  10.987   8.002 -0.4179 -0.4710  0.7846
  933MOL0     C25887   4.224  10.918   7.950 -0.4658  0.7397  0.0861
  933MOL0     H25888   3.766  10.620   8.391 -0.6697 -4.5742 -1.9737
  933MOL0     H25889   3.800  10.478   8.571 -0.7137  2.3474  0.8024
  933MOL0     H25890   3.855  10.319   8.729  1.2967  2.7827  0.2261
  933MOL0     H25891   3.950  10.237   8.595  0.8688 -0.0986  0.1471
  933MOL0     H25892   4.096  10.150   8.770  1.4016  2.2848  1.2441
  933MOL0     H25893   3.930  10.121   8.830 -2.5069  2.7308 -1.1519
  933MOL0     H25894   3.950  10.369   8.943 -1.2435 -0.3675  1.2159
  933MOL0     H25895   4.122  10.326   8.940 -1.1217  2.2574 -1.8554
  933MOL0     H25896   3.979  10.256   9.147 -1.5412  2.4198 -1.8288
  933MOL0     H25897   3.903  10.139   9.051  0.6497 -0.9533 -1.3457
  933MOL0     H25898   4.133  10.030   8.991  1.4031  0.9956 -0.1357
  933MOL0     H25899   4.211  10.141   9.089  1.1100 -1.2443 -0.5851
  933MOL0     H25900   4.098  10.061   9.279  1.2230  0.3897 -0.6929
  933MOL0     H25901   3.991   9.951   9.198 -1.0855  2.8839 -0.3908
  933MOL0     H25902   4.195   9.813   9.114  1.4774 -1.2753  1.4178
  933MOL0     H25903   4.151   9.795   9.279 -0.9473 -2.6713 -2.1287
  933MOL0     H25904   4.375   9.948   9.149  1.5350  1.3866  0.4624
  933MOL0     H25905   4.323  10.018   9.290  3.5723 -0.6382  0.1249
  933MOL0     H25906   4.525   9.749   9.160 -2.2958  1.3980 -0.5447
  933MOL0     H25907   4.689   9.550   9.460 -1.0651 -0.9796  0.4953
  933MOL0     H25908   4.616   9.479   9.318 -1.8019  0.5001 -0.4721
  933MOL0     H25909   4.845   9.533   9.253 -1.4129  0.0403  0.6835
  933MOL0     H25910   4.740   9.648   9.166  0.9453 -0.7688 -1.9411
  933MOL0     H25911   4.787   9.824   9.307  0.2357  0.7658  1.5426
  933MOL0     H25912   4.938   9.766   9.238  0.8524 -0.2653  1.1414
  933MOL0     H25913   4.848   9.745   9.521 -0.1288 -2.2916  0.9216
  933MOL0     H25914   5.002   9.815   9.462  0.4483 -2.6413  2.9551
  933MOL0     H25915   4.958   9.596   9.695 -0.0020 -0.5707 -3.5108
  933MOL0     H25916   5.126   9.588   9.888 -1.1081  2.2014 -0.5092
  933MOL0     H25917   5.610   9.728  10.018  1.2253  0.6358  0.7983
  933MOL0     H25918   5.728   9.749  10.223 -0.7322 -0.8545  0.4077
  933MOL0     H25919   5.820   9.759  10.427 -0.9410  0.7682  0.1481
  933MOL0     H25920   5.678   9.830  10.497  2.8008  2.9532  0.7484
  933MOL0     H25921   5.854   9.811  10.665 -1.2271  1.6652 -0.6115
  933MOL0     H25922   5.726   9.720  10.720  1.3663  0.2947  2.1555
  933MOL0     H25923   5.868   9.510  10.599 -0.5529 -0.0466 -1.0637
  933MOL0     H25924   5.994   9.638  10.614 -1.8048  1.0664 -2.2426
  933MOL0     H25925   5.844   9.561  10.860 -1.3113  0.4316 -1.8752
  933MOL0     H25926   5.988   9.662  10.847  0.9874 -0.9267  0.6393
  933MOL0     H25927   6.122   9.488  10.750 -0.4428  1.7776  0.4804
  933MOL0     H25928   5.991   9.376  10.732  0.0617  0.5022 -0.6902
  933MOL0     H25929   6.106   9.487  10.985 -0.4044 -1.0966  1.1647
  933MOL0     H25930   5.962   9.377  10.974  1.0117 -2.3622  1.2751
  933MOL0     H25931   6.217   9.302  10.865 -0.6174 -0.4007  0.5660
  933MOL0     H25932   6.082   9.198  10.874 -0.0528  0.0678 -1.5871
  933MOL0     H25933   6.065   9.211  11.120 -0.0954  2.2564  1.0199
  933MOL0     H25934   6.233   9.164  11.087  2.5318  2.2839  0.6887
  933MOL0     H25935   5.427   9.523  10.432 -1.9005  0.2017 -0.7435
  933MOL0     H25936   5.300   9.493  10.225  1.0359 -1.1688  0.1993
  933MOL0     H25937   5.440   9.643   9.582 -0.7554  1.4235 -1.8062
  933MOL0     H25938   5.254   9.644   9.414 -1.1801 -0.9535 -0.1607
  933MOL0     H25939   4.229  10.563   8.553  1.4018  2.8037 -3.2819
  933MOL0     H25940   4.186  10.720   8.398 -1.1791  0.6432 -1.5162
  933MOL0     H25941   3.836  10.979   8.211  0.4471 -1.4768  0.2101
  933MOL0     H25942   3.780  11.187   8.084 -1.8868 -1.5277 -1.4898
  933MOL0     H25943   4.024  11.283   7.712 -0.5918  1.3236 -1.6008
  933MOL0     H25944   4.091  11.379   7.851  1.9739 -1.3981 -0.6281
  933MOL0     H25945   3.986  11.531   7.692  1.3293 -0.0457  1.1492
  933MOL0     H25946   3.877  11.515   7.834  0.7098 -1.4405  0.8640
  933MOL0     H25947   3.764  11.331   7.680 -1.9675  2.0166 -0.0877
  933MOL0     H25948   3.866  11.400   7.551  0.7964  2.6399 -1.5731
  933MOL0     H25949   3.652  11.496   7.530  0.7305 -1.9079 -0.9794
  933MOL0     H25950   3.624  11.538   7.693 -1.5594 -2.4177 -0.6749
  933MOL0     H25951   3.870  11.864   7.562  1.7356 -1.5120 -2.1769
  933MOL0     H25952   4.143  11.141   7.855 -0.5402  2.6708  1.1920
  933MOL0     H25953   4.283  10.884   8.036 -2.7901 -0.1024  1.4295
  933MOL0     H25954   4.200  10.832   7.887 -1.4655  2.7392 -2.4348
  933MOL0     H25955   4.281  10.982   7.881 -1.3687  3.5332  1.7787
  934MOL0     O25956   0.704   2.355   5.610 -0.0504 -0.2741 -0.3439
  934MOL0     C25957   0.729   2.250   5.547 -0.4141 -0.2768 -0.1970
  934MOL0     O25958   0.640   2.171   5.473  0.0737  0.2597  0.2752
  934MOL0     C25959   0.508   2.194   5.470  0.6998  0.3693 -0.4530
  934MOL0     C25960   0.438   2.256   5.572  0.6150  0.3200 -0.2966
  934MOL0     C25961   0.304   2.301   5.552  0.0588  0.2880 -0.1313
  934MOL0     C25962   0.239   2.271   5.434  0.4093  0.4708  0.4683
  934MOL0     O25963   0.113   2.314   5.418  0.3362  0.0584 -0.3534
  934MOL0     C25964   0.056   2.407   5.504  1.8387 -0.3565  0.3157
  934MOL0     C25965  -0.076   2.444   5.438 -0.7740  0.1086  0.3486
  934MOL0     C25966  -0.174   2.517   5.533 -0.2759 -0.0923 -0.4390
  934MOL0     C25967  -0.308   2.545   5.469  0.0264  0.5505 -0.0182
  934MOL0     C25968  -0.426   2.556   5.565  0.6383  0.4880 -0.6548
  934MOL0     C25969  -0.410   2.677   5.658  0.1631 -0.4976 -0.0415
  934MOL0     C25970  -0.524   2.675   5.758  0.2009 -0.1148 -0.0606
  934MOL0     C25971  -0.528   2.807   5.837  0.5570 -0.1518  0.9056
  934MOL0     N25972  -0.401   2.849   5.893 -0.0005 -0.0674 -0.3635
  934MOL0     C25973  -0.363   2.823   6.027  0.4656  0.2625  0.2048
  934MOL0     C25974  -0.266   2.911   6.048 -0.2046 -0.9906 -0.8039
  934MOL0     C25975  -0.200   2.924   6.185  2.0330  0.5016  0.0060
  934MOL0     C25976  -0.098   2.820   6.203  0.2769  0.2713  0.8876
  934MOL0     C25977   0.036   2.843   6.128 -0.0379 -0.3710  0.8392
  934MOL0     C25978   0.119   2.958   6.191  0.3508 -0.2454 -0.2742
  934MOL0     O25979   0.212   2.913   6.289 -0.5659  0.2524  0.1691
  934MOL0     C25980   0.341   2.889   6.244 -0.3838  0.2010  0.3881
  934MOL0     C25981   0.388   2.879   6.111 -0.4265  0.4681  0.3006
  934MOL0     C25982   0.520   2.863   6.073  0.2098  0.4495 -2.0264
  934MOL0     C25983   0.612   2.839   6.178 -0.6294 -0.4802 -1.1396
  934MOL0     C25984   0.758   2.797   6.149 -0.0995 -0.2925  1.1304
  934MOL0     O25985   0.797   2.755   6.027 -0.3000  0.0234 -0.0498
  934MOL0     C25986   0.929   2.706   6.004 -0.0588 -0.6880 -0.7229
  934MOL0     C25987   0.956   2.719   5.865 -0.4746  0.5784  0.4060
  934MOL0     C25988   1.080   2.684   5.822  0.0791  0.1709 -0.3963
  934MOL0     C25989   1.180   2.623   5.901 -0.0216 -0.0083  0.8629
  934MOL0     O25990   1.303   2.582   5.859 -0.1604  0.1163 -0.6083
  934MOL0     C25991   1.379   2.666   5.767  1.2356 -0.5376  0.2635
  934MOL0     C25992   1.506   2.699   5.837 -0.1121 -0.0918  0.2359
  934MOL0     C25993   1.598   2.572   5.861 -0.2324 -0.3960 -0.2914
  934MOL0     C25994   1.646   2.502   5.727 -0.0758  0.3962  0.2339
  934MOL0     C25995   1.742   2.375   5.755 -0.2384 -0.0896  0.1971
  934MOL0     C25996   1.768   2.305   5.630 -0.2147  0.1191 -0.1958
  934MOL0     C25997   1.819   2.392   5.515 -0.1294 -0.1632  0.0669
  934MOL0     C25998   1.947   2.464   5.551 -0.8661  0.0813 -0.4641
  934MOL0    Cl25999   2.075   2.344   5.579  0.1302  0.5148  0.0831
  934MOL0     C26000   1.149   2.601   6.036  0.5036  0.6443  0.1743
  934MOL0     C26001   1.019   2.642   6.087  0.4842 -0.1719  0.1709
  934MOL0     O26002   0.825   2.809   6.249  0.5711 -0.2156 -0.1527
  934MOL0     C26003   0.570   2.854   6.318 -0.2238  0.4903  0.0847
  934MOL0     C26004   0.432   2.869   6.346  0.1043  0.1527 -0.1376
  934MOL0     N26005  -0.234   2.980   5.932 -0.1443 -0.2645 -0.3291
  934MOL0     N26006  -0.314   2.935   5.841 -0.5478 -0.1702 -0.1412
  934MOL0     C26007   0.297   2.189   5.342 -0.9143  0.2223  0.1308
  934MOL0     C26008   0.432   2.154   5.366 -0.4745  0.0925  0.3146
  934MOL0     C26009   0.868   2.200   5.564  0.5053  0.0815  0.1844
  934MOL0     C26010   0.904   2.082   5.488 -0.0813 -0.0937  0.2495
  934MOL0     C26011   1.041   2.036   5.483  0.8896 -0.8300  0.2505
  934MOL0     C26012   1.139   2.105   5.555  0.9306 -0.7540  1.0504
  934MOL0     O26013   1.272   2.081   5.548  0.5013  0.6099 -0.8379
  934MOL0     C26014   1.324   2.079   5.411  0.0638  0.5786 -0.1310
  934MOL0     C26015   1.335   2.208   5.336 -0.2163  0.0278 -0.6115
  934MOL0     C26016   1.396   2.323   5.424  0.6469 -0.2894  0.6286
  934MOL0     C26017   1.419   2.457   5.350 -0.0887 -1.1866 -0.2812
  934MOL0     C26018   1.528   2.442   5.255  0.3282 -0.6725  0.8629
  934MOL0     C26019   1.617   2.435   5.175 -1.1807 -0.1924  0.5793
  934MOL0     C26020   1.097   2.203   5.643  0.1734 -0.6392 -0.3734
  934MOL0     C26021   0.967   2.249   5.651 -0.4223 -0.0976 -0.9026
  934MOL0     C26022   0.953   2.366   5.750  0.2389  0.4316  0.5812
  934MOL0     H26023   0.486   2.278   5.667 -4.9039  2.5210  2.4548
  934MOL0     H26024   0.255   2.340   5.641 -1.6312 -2.6252  0.3276
  934MOL0     H26025   0.037   2.367   5.604  0.4109  2.6577  1.3776
  934MOL0     H26026   0.117   2.497   5.517  1.7944 -0.4438  1.2367
  934MOL0     H26027  -0.127   2.355   5.401 -0.0485 -0.3183  0.3545
  934MOL0     H26028  -0.054   2.504   5.349 -0.5342  0.7074  0.8039
  934MOL0     H26029  -0.124   2.614   5.543  0.6494 -0.2937 -2.4876
  934MOL0     H26030  -0.179   2.474   5.633 -0.2031 -1.3544 -0.9588
  934MOL0     H26031  -0.291   2.643   5.423  1.3645  1.0889  1.5350
  934MOL0     H26032  -0.321   2.476   5.386  1.7499  1.3576 -1.0212
  934MOL0     H26033  -0.510   2.566   5.496  0.2753 -0.8042 -0.4253
  934MOL0     H26034  -0.465   2.474   5.626 -0.1429  1.0534 -0.3808
  934MOL0     H26035  -0.311   2.681   5.704  0.5499 -1.9389 -0.7252
  934MOL0     H26036  -0.414   2.760   5.586  0.9720  1.2756  1.8332
  934MOL0     H26037  -0.506   2.590   5.825  0.5355  0.7376  0.9743
  934MOL0     H26038  -0.625   2.668   5.717  0.1378 -0.8603  0.2117
  934MOL0     H26039  -0.555   2.880   5.760 -4.1159 -0.3064  2.1177
  934MOL0     H26040  -0.605   2.801   5.915  0.0832 -2.0457  0.3200
  934MOL0     H26041  -0.424   2.767   6.097 -0.9230 -0.1042 -1.2441
  934MOL0     H26042  -0.155   3.021   6.206  0.7577  0.7701  1.7526
  934MOL0     H26043  -0.278   2.912   6.261  2.8586  0.4311  0.8551
  934MOL0     H26044  -0.078   2.811   6.311 -1.2516  0.8140  1.2397
  934MOL0     H26045  -0.125   2.719   6.173  0.1398  0.2894  0.9478
  934MOL0     H26046   0.018   2.866   6.023 -0.5467  0.6990  1.1485
  934MOL0     H26047   0.101   2.754   6.132  0.2986 -0.2024 -0.6011
  934MOL0     H26048   0.057   3.022   6.253 -1.0395 -2.1919  0.4614
  934MOL0     H26049   0.160   3.023   6.113  0.2050  2.2050  1.5878
  934MOL0     H26050   0.313   2.888   6.033 -2.0308  2.2556  1.9512
  934MOL0     H26051   0.549   2.851   5.969 -0.3466 -1.0290 -2.0410
  934MOL0     H26052   0.877   2.761   5.804  1.0748  0.7528 -1.6133
  934MOL0     H26053   1.119   2.696   5.722  4.6782 -2.7412  0.7405
  934MOL0     H26054   1.380   2.617   5.670  3.4800 -1.4795  0.7131
  934MOL0     H26055   1.322   2.757   5.745  1.6605 -1.1050 -3.8438
  934MOL0     H26056   1.560   2.778   5.785 -0.0120  1.5276  2.6154
  934MOL0     H26057   1.484   2.743   5.935  0.5170  0.1776  0.2601
  934MOL0     H26058   1.686   2.606   5.916  0.5005 -2.4857 -0.0810
  934MOL0     H26059   1.542   2.509   5.930 -0.6167 -0.3905 -0.5966
  934MOL0     H26060   1.701   2.578   5.672  0.3833 -0.3140 -0.3102
  934MOL0     H26061   1.555   2.467   5.678  1.2549 -2.5953 -0.3331
  934MOL0     H26062   1.689   2.303   5.819  0.2477 -0.8283 -0.2203
  934MOL0     H26063   1.835   2.399   5.807 -0.7350  2.2065  0.1438
  934MOL0     H26064   1.842   2.228   5.653 -1.0731 -0.0139  2.3654
  934MOL0     H26065   1.673   2.262   5.595 -0.2517 -0.8464  1.0315
  934MOL0     H26066   1.745   2.472   5.501  0.7149  0.7016  0.4783
  934MOL0     H26067   1.818   2.331   5.424 -0.9538 -2.2393  1.3911
  934MOL0     H26068   1.981   2.520   5.463  0.5988 -1.9324 -1.2432
  934MOL0     H26069   1.931   2.517   5.646  0.7559  1.0146 -0.6782
  934MOL0     H26070   1.221   2.550   6.098 -0.4527 -2.6107 -1.1837
  934MOL0     H26071   0.997   2.633   6.193  1.6712  1.1829  0.5642
  934MOL0     H26072   0.643   2.841   6.398  0.8172 -1.8278 -1.1327
  934MOL0     H26073   0.399   2.865   6.450 -0.0446 -0.6251 -0.2046
  934MOL0     H26074   0.237   2.173   5.253  1.7681  1.3968 -2.0610
  934MOL0     H26075   0.495   2.100   5.296 -0.2145  2.3100 -1.2636
  934MOL0     H26076   0.829   2.022   5.438 -0.8804 -0.3219  1.6674
  934MOL0     H26077   1.075   1.952   5.423  2.4481  0.5389 -0.8747
  934MOL0     H26078   1.255   2.019   5.351 -1.3798  1.2647  0.8064
  934MOL0     H26079   1.425   2.037   5.416 -0.8660 -1.7221  3.5482
  934MOL0     H26080   1.234   2.229   5.302 -0.4725 -0.3330 -0.0857
  934MOL0     H26081   1.401   2.186   5.251 -1.3992 -4.8316 -0.5796
  934MOL0     H26082   1.490   2.284   5.465  0.9675 -1.7674 -1.3390
  934MOL0     H26083   1.329   2.343   5.508 -1.0595 -1.2213 -0.4640
  934MOL0     H26084   1.332   2.505   5.303  0.6173  0.8250  0.3877
  934MOL0     H26085   1.450   2.520   5.433  0.2430 -2.8540  0.9132
  934MOL0     H26086   1.682   2.402   5.096 -1.0528  0.8775  0.2172
  934MOL0     H26087   1.165   2.263   5.703 -1.8918  0.4979  0.9357
  934MOL0     H26088   1.031   2.362   5.827 -0.2187  2.3840  1.2258
  934MOL0     H26089   0.967   2.463   5.700  0.2609 -0.3515 -0.9964
  934MOL0     H26090   0.856   2.379   5.798 -0.1672 -2.6159  0.7241
  935MOL0     O26091   8.700   0.819   6.016 -0.2489 -0.6180  0.3014
  935MOL0     C26092   8.590   0.847   5.970  0.4805  0.3531 -0.3104
  935MOL0     O26093   8.476   0.774   5.992  0.7240 -0.0391  0.1668
  935MOL0     C26094   8.493   0.636   6.023  0.1322 -0.7927 -0.0877
  935MOL0     C26095   8.419   0.578   6.118  0.4366 -0.1757 -1.1497
  935MOL0     C26096   8.441   0.447   6.167  0.0395  0.5834  0.4239
  935MOL0     C26097   8.548   0.372   6.120 -0.4142  0.2638 -0.5554
  935MOL0     O26098   8.552   0.235   6.150  0.3364  0.4676 -0.2192
  935MOL0     C26099   8.661   0.157   6.099  0.6051 -0.2824 -0.0049
  935MOL0     C26100   8.681   0.035   6.194 -0.2409 -0.3563  0.2119
  935MOL0     C26101   8.554  -0.045   6.233 -0.7524 -0.6461  0.1941
  935MOL0     C26102   8.581  -0.177   6.290  0.4918 -0.1162  0.6326
  935MOL0     C26103   8.446  -0.262   6.305 -0.9870 -0.4212 -0.2774
  935MOL0     C26104   8.479  -0.407   6.353  0.3105  0.3242 -0.1046
  935MOL0     C26105   8.365  -0.509   6.351  0.4740 -0.1401  0.7428
  935MOL0     C26106   8.246  -0.457   6.438  0.7826  0.1592  0.1713
  935MOL0     N26107   8.275  -0.464   6.581  0.4454 -0.0269 -0.1422
  935MOL0     C26108   8.291  -0.584   6.645  0.4937  0.5881 -0.3463
  935MOL0     C26109   8.312  -0.551   6.774  0.0399 -0.3918 -0.7157
  935MOL0     C26110   8.331  -0.646   6.890  0.5356  0.0739 -0.5996
  935MOL0     C26111   8.440  -0.749   6.868 -0.8927 -0.1306  0.7532
  935MOL0     C26112   8.582  -0.717   6.915  0.8685  1.2009 -0.0338
  935MOL0     C26113   8.663  -0.618   6.832 -0.2401 -0.6935 -0.6614
  935MOL0     O26114   8.686  -0.641   6.688  0.3942 -0.7125  0.1138
  935MOL0     C26115   8.747  -0.542   6.611  0.0888 -1.4929  0.7606
  935MOL0     C26116   8.783  -0.576   6.478  0.1360  0.4019  0.7464
  935MOL0     C26117   8.851  -0.486   6.397  0.0978  0.4811  0.6871
  935MOL0     C26118   8.887  -0.363   6.444  0.1891 -0.7561  0.7880
  935MOL0     C26119   8.962  -0.262   6.356  1.1399 -0.0723  0.0821
  935MOL0     O26120   8.969  -0.128   6.386 -0.1484 -0.1714 -0.3951
  935MOL0     C26121   9.043  -0.046   6.318 -0.1755 -0.9044 -0.7022
  935MOL0     C26122   9.006   0.090   6.316 -0.2236 -0.6741  0.8726
  935MOL0     C26123   9.089   0.188   6.257  0.0671  0.1193 -0.2887
  935MOL0     C26124   9.214   0.154   6.193  0.4222 -0.0531 -0.3878
  935MOL0     O26125   9.296   0.238   6.130 -0.0441 -0.1421  0.1815
  935MOL0     C26126   9.299   0.378   6.163 -0.2291  0.1306 -0.8592
  935MOL0     C26127   9.409   0.451   6.074 -0.3568 -1.3482 -0.1486
  935MOL0     C26128   9.459   0.579   6.145 -0.0007  0.5428 -0.1431
  935MOL0     C26129   9.521   0.681   6.047  0.4216 -0.7578 -0.3589
  935MOL0     C26130   9.629   0.780   6.111 -0.1799 -0.2121  0.4570
  935MOL0     C26131   9.683   0.869   6.008 -0.2118 -0.6133  0.2072
  935MOL0     C26132   9.773   0.985   6.047  0.4651 -0.3129 -0.2316
  935MOL0     C26133   9.914   0.991   5.990 -0.4502  0.7497  0.1803
  935MOL0    Cl26134  10.000   0.841   6.038 -0.1757 -0.1904 -0.2228
  935MOL0     C26135   9.264   0.023   6.208  0.6049  0.1415 -0.1657
  935MOL0     C26136   9.177  -0.072   6.276  0.3895 -0.1240 -0.3828
  935MOL0     O26137   9.007  -0.318   6.259 -0.1205 -0.1719  1.5539
  935MOL0     C26138   8.859  -0.332   6.574  0.0299 -0.2219  0.1330
  935MOL0     C26139   8.791  -0.418   6.657 -0.1465 -0.2094  0.2736
  935MOL0     N26140   8.321  -0.408   6.786 -0.0012 -0.2439  0.9266
  935MOL0     N26141   8.299  -0.358   6.671 -0.2197  0.3441  0.0474
  935MOL0     C26142   8.622   0.425   6.017  0.0458  0.1677  0.8237
  935MOL0     C26143   8.591   0.554   5.964 -0.8836  0.2600 -0.7840
  935MOL0     C26144   8.573   0.979   5.895  0.0416  0.1366 -0.2210
  935MOL0     C26145   8.666   1.021   5.815 -0.2393 -0.1521 -0.1711
  935MOL0     C26146   8.663   1.137   5.747 -0.3953 -0.9552  0.2356
  935MOL0     C26147   8.555   1.232   5.756  0.4074  0.2357  0.1294
  935MOL0     O26148   8.558   1.357   5.695 -1.0228  0.4651  0.7073
  935MOL0     C26149   8.657   1.369   5.595  0.0852  0.6142  0.1851
  935MOL0     C26150   8.666   1.513   5.550 -0.0175 -0.3441  0.6158
  935MOL0     C26151   8.548   1.549   5.453 -0.4087  0.3018  1.0255
  935MOL0     C26152   8.553   1.698   5.409 -0.4797  0.3835 -0.0430
  935MOL0     C26153   8.652   1.710   5.295  0.5434 -0.6236 -1.2424
  935MOL0     C26154   8.732   1.715   5.202  0.2346  0.3542 -0.4346
  935MOL0     C26155   8.445   1.187   5.828  1.1324  0.8857 -0.6696
  935MOL0     C26156   8.452   1.058   5.904  0.0008  0.2076 -0.2595
  935MOL0     C26157   8.321   1.004   5.960 -0.4027  0.5637 -0.0625
  935MOL0     H26158   8.338   0.630   6.168 -0.6570 -1.7176 -1.2682
  935MOL0     H26159   8.373   0.405   6.240 -0.9624 -1.0278 -1.3346
  935MOL0     H26160   8.634   0.114   6.002 -3.2088 -1.7942  1.5130
  935MOL0     H26161   8.758   0.207   6.105  1.1205 -0.9877 -1.7688
  935MOL0     H26162   8.707   0.092   6.284  1.1683  1.6984 -1.4007
  935MOL0     H26163   8.754  -0.039   6.159 -0.5842 -1.0884  1.0011
  935MOL0     H26164   8.490  -0.041   6.144  0.0198  2.4337 -0.3510
  935MOL0     H26165   8.491   0.002   6.309 -0.5505 -1.4856  0.8862
  935MOL0     H26166   8.646  -0.225   6.217 -0.3936 -0.1655 -0.1418
  935MOL0     H26167   8.623  -0.160   6.390 -1.9206  3.0316  1.2853
  935MOL0     H26168   8.375  -0.207   6.369 -1.4290 -0.1029 -1.0321
  935MOL0     H26169   8.398  -0.268   6.207 -0.4469  0.7108 -0.6287
  935MOL0     H26170   8.553  -0.451   6.286 -0.9207 -2.5244  0.2753
  935MOL0     H26171   8.537  -0.387   6.444  1.5914  4.0366 -1.5336
  935MOL0     H26172   8.418  -0.602   6.371 -0.6626 -1.1009 -0.5024
  935MOL0     H26173   8.325  -0.514   6.249 -0.6522 -0.4515  1.1842
  935MOL0     H26174   8.222  -0.353   6.415  0.9047 -0.2694 -2.1508
  935MOL0     H26175   8.166  -0.527   6.412  1.8972 -0.3710 -2.1704
  935MOL0     H26176   8.269  -0.683   6.606  0.8788  0.3209  0.1082
  935MOL0     H26177   8.352  -0.575   6.970 -2.3567  2.3487 -1.6984
  935MOL0     H26178   8.236  -0.697   6.905 -0.3075  1.7926  0.1070
  935MOL0     H26179   8.414  -0.839   6.924  0.2506  0.5350  2.4329
  935MOL0     H26180   8.443  -0.784   6.765 -1.3521  0.1887  0.6270
  935MOL0     H26181   8.636  -0.811   6.926  2.1172  1.8927  0.0374
  935MOL0     H26182   8.579  -0.677   7.017 -1.2629  1.7655 -0.2672
  935MOL0     H26183   8.762  -0.605   6.878 -0.7358 -1.6255  0.7174
  935MOL0     H26184   8.608  -0.524   6.842  0.5559 -0.2636 -0.1654
  935MOL0     H26185   8.754  -0.674   6.440  1.1399  0.0520  0.8536
  935MOL0     H26186   8.875  -0.528   6.300  1.0788 -1.8810  1.8436
  935MOL0     H26187   8.925   0.125   6.379 -1.8886 -0.6568 -1.1496
  935MOL0     H26188   9.067   0.294   6.244 -1.0475 -0.0310  0.2744
  935MOL0     H26189   9.208   0.439   6.162  0.9859  2.3013  2.4434
  935MOL0     H26190   9.342   0.393   6.263 -0.1059  1.1536 -1.0527
  935MOL0     H26191   9.496   0.385   6.066  2.4033  1.7624  1.7870
  935MOL0     H26192   9.370   0.490   5.979  1.5413  0.8222 -0.1358
  935MOL0     H26193   9.388   0.638   6.204 -0.8730  0.2784 -0.9111
  935MOL0     H26194   9.529   0.541   6.221 -0.0513  0.7933  0.0308
  935MOL0     H26195   9.436   0.739   6.011  0.4682 -0.2466  0.3318
  935MOL0     H26196   9.577   0.625   5.971  0.1138 -1.7467  0.1166
  935MOL0     H26197   9.703   0.706   6.145  0.5193  0.5548  0.6200
  935MOL0     H26198   9.584   0.839   6.191  2.2430  3.3974 -0.6122
  935MOL0     H26199   9.727   0.813   5.925 -1.8508 -1.6053 -0.0349
  935MOL0     H26200   9.593   0.916   5.966 -0.7189 -0.7723  1.0842
  935MOL0     H26201   9.793   0.990   6.154  4.2424  2.7409 -0.8587
  935MOL0     H26202   9.728   1.077   6.009  0.4535 -1.5000 -3.3880
  935MOL0     H26203   9.926   0.986   5.881  2.8823  0.0494  0.4842
  935MOL0     H26204   9.965   1.086   6.008 -1.3120  1.3392 -0.3756
  935MOL0     H26205   9.369   0.005   6.186  0.4456 -0.1347 -0.7133
  935MOL0     H26206   9.213  -0.174   6.285  0.4863  0.0690  1.9482
  935MOL0     H26207   8.886  -0.234   6.612 -0.6973  0.3570 -0.8025
  935MOL0     H26208   8.774  -0.395   6.762 -1.4218 -1.4305  0.3656
  935MOL0     H26209   8.690   0.372   5.952  0.4881  1.1835  0.4283
  935MOL0     H26210   8.640   0.595   5.876  1.5268  0.4599  0.5561
  935MOL0     H26211   8.759   0.965   5.814  0.2782  0.6822  0.1047
  935MOL0     H26212   8.756   1.157   5.694 -0.3176  0.1317  0.7402
  935MOL0     H26213   8.633   1.301   5.513 -2.0514 -0.0116  1.2629
  935MOL0     H26214   8.760   1.336   5.615 -0.8265 -2.3298  0.5028
  935MOL0     H26215   8.760   1.542   5.501 -0.5375  3.7828  1.7148
  935MOL0     H26216   8.649   1.585   5.630 -1.4541  0.2602 -0.2069
  935MOL0     H26217   8.464   1.538   5.523 -1.0897 -0.5232  0.0977
  935MOL0     H26218   8.544   1.478   5.370 -1.1459  2.1843 -0.6024
  935MOL0     H26219   8.451   1.715   5.373 -0.1006 -2.4115 -2.9481
  935MOL0     H26220   8.585   1.763   5.491 -1.2090 -0.5159  0.9788
  935MOL0     H26221   8.798   1.731   5.119  1.0670 -1.7519 -0.2391
  935MOL0     H26222   8.351   1.241   5.823  0.6855  0.1156 -0.7374
  935MOL0     H26223   8.252   1.088   5.951 -0.3088  0.6095 -0.3976
  935MOL0     H26224   8.293   0.914   5.904  1.7195 -1.0523  1.3211
  935MOL0     H26225   8.330   0.971   6.063  1.1705  1.4339  0.1112
  936MOL0     O26226   6.104  11.194  11.284 -0.3253 -0.8645  0.3806
  936MOL0     C26227   5.988  11.230  11.280  0.3073 -0.4286  0.4890
  936MOL0     O26228   5.942  11.340  11.209  0.5338 -0.5679  0.1307
  936MOL0     C26229   6.035  11.420  11.148 -0.5186 -0.2591  0.1123
  936MOL0     C26230   6.068  11.387  11.013  0.5631  0.1255 -0.3569
  936MOL0     C26231   6.164  11.463  10.952 -0.0145  0.2036  0.4411
  936MOL0     C26232   6.228  11.573  11.018  0.0163 -0.4624 -0.7468
  936MOL0     O26233   6.333  11.637  10.960 -0.3356 -0.2626 -0.9186
  936MOL0     C26234   6.333  11.650  10.827 -0.3765 -0.0026 -0.4663
  936MOL0     C26235   6.461  11.728  10.786  0.2230  0.0292 -0.1709
  936MOL0     C26236   6.476  11.746  10.632 -0.4827  0.1996  0.4405
  936MOL0     C26237   6.589  11.651  10.586  0.2949 -0.6870 -1.1867
  936MOL0     C26238   6.604  11.635  10.432  0.2756 -0.6657 -1.1644
  936MOL0     C26239   6.662  11.763  10.383 -0.9533  0.2509  0.4462
  936MOL0     C26240   6.811  11.762  10.397  0.5360  0.2787  0.6520
  936MOL0     C26241   6.867  11.894  10.336  0.5048  0.7466  0.5961
  936MOL0     N26242   7.013  11.887  10.319  0.2110 -1.0610 -0.3571
  936MOL0     C26243   7.080  11.856  10.208 -0.6553  0.4968  0.6660
  936MOL0     C26244   7.199  11.920  10.223 -0.2572 -0.6378  0.0483
  936MOL0     C26245   7.313  11.927  10.131 -0.1586 -1.1229  0.0665
  936MOL0     C26246   7.292  12.045  10.041 -0.4416  1.2799 -0.4956
  936MOL0     C26247   7.355  12.016   9.903  0.5481  0.2721 -0.1735
  936MOL0     C26248   7.510  12.001   9.911 -0.3014 -0.6657 -0.1925
  936MOL0     O26249   7.577  12.047   9.794  0.5813 -0.6839  0.0911
  936MOL0     C26250   7.621  12.182   9.800  0.5962  0.3343  0.6172
  936MOL0     C26251   7.741  12.213   9.728 -0.1159 -1.1029 -0.3945
  936MOL0     C26252   7.785  12.346   9.728  0.5356  0.1164 -0.5565
  936MOL0     C26253   7.723  12.446   9.806  0.2539  0.2131 -0.0182
  936MOL0     C26254   7.777  12.589   9.820  0.7038  0.3986 -0.1421
  936MOL0     O26255   7.692  12.684   9.877 -0.3158 -0.1367 -0.2514
  936MOL0     C26256   7.712  12.819   9.859  0.4471 -0.1522  0.0136
  936MOL0     C26257   7.687  12.859   9.732  0.4046 -0.2495  0.3501
  936MOL0     C26258   7.731  12.989   9.704  0.0786  0.3374 -0.4292
  936MOL0     C26259   7.779  13.082   9.800  0.4850 -0.1756  0.0919
  936MOL0     O26260   7.818  13.203   9.753 -0.2827 -0.2576 -0.2287
  936MOL0     C26261   7.956  13.210   9.723 -0.5109 -0.1086  0.7327
  936MOL0     C26262   8.010  13.355   9.730  0.8249  0.2829  1.0669
  936MOL0     C26263   8.168  13.359   9.715 -0.0962 -0.2089  0.6883
  936MOL0     C26264   8.228  13.496   9.741  0.1656 -0.9529 -0.6458
  936MOL0     C26265   8.366  13.505   9.678  0.5943  0.2416 -1.1877
  936MOL0     C26266   8.456  13.608   9.739  0.2021 -0.0733 -0.2127
  936MOL0     C26267   8.440  13.747   9.682  0.4240  0.1342  0.0462
  936MOL0     C26268   8.569  13.838   9.701  1.0093 -0.2250 -0.0757
  936MOL0    Cl26269   8.565  13.920   9.851 -0.4394  0.3389 -0.2888
  936MOL0     C26270   7.785  13.031   9.928  0.2186 -0.2979 -0.9174
  936MOL0     C26271   7.753  12.904   9.958 -0.2635  0.2389 -0.8889
  936MOL0     O26272   7.888  12.611   9.770  0.6748 -0.7849  0.5794
  936MOL0     C26273   7.597  12.417   9.863  0.1137  0.0026  0.6630
  936MOL0     C26274   7.554  12.287   9.867  0.3015  0.0152  0.6020
  936MOL0     N26275   7.204  11.994  10.345 -0.7953 -0.3022  0.0613
  936MOL0     N26276   7.095  11.969  10.399  0.1186  0.4232  0.0526
  936MOL0     C26277   6.191  11.609  11.147 -1.0463 -0.3055  0.1341
  936MOL0     C26278   6.088  11.538  11.208 -0.1526 -0.2076 -0.4455
  936MOL0     C26279   5.876  11.147  11.339  0.1561  0.3991  1.3288
  936MOL0     C26280   5.748  11.206  11.342  0.7459 -0.7999  0.9450
  936MOL0     C26281   5.635  11.134  11.383  1.0331 -0.5220  0.3394
  936MOL0     C26282   5.636  11.001  11.430  0.1791  0.5790  0.3146
  936MOL0     O26283   5.520  10.939  11.479  0.3444 -0.5661 -0.2969
  936MOL0     C26284   5.530  10.796  11.494 -0.2836 -1.2902 -1.1103
  936MOL0     C26285   5.394  10.745  11.522 -0.8413  0.3978  0.2934
  936MOL0     C26286   5.317  10.735  11.390  0.4595  0.4390  0.2060
  936MOL0     C26287   5.184  10.656  11.405 -0.2570 -0.1090 -0.1394
  936MOL0     C26288   5.109  10.680  11.284 -0.0679 -1.0232  0.6409
  936MOL0     C26289   5.038  10.685  11.189  1.2358  0.5636  0.4292
  936MOL0     C26290   5.761  10.937  11.401  0.6958 -0.0545 -0.5816
  936MOL0     C26291   5.872  11.003  11.356 -0.7761  0.0097 -0.7253
  936MOL0     C26292   5.984  10.911  11.310 -0.1609 -0.0078  1.4698
  936MOL0     H26293   6.030  11.303  10.956  0.5100  1.6337 -2.6844
  936MOL0     H26294   6.192  11.438  10.850 -0.7849 -2.3381  0.7904
  936MOL0     H26295   6.342  11.552  10.779  3.2155 -0.8008  1.5290
  936MOL0     H26296   6.245  11.702  10.788 -1.1252 -0.6085  0.3743
  936MOL0     H26297   6.536  11.660  10.826 -0.0767 -2.0955 -2.9696
  936MOL0     H26298   6.458  11.825  10.837 -0.0100  0.3856 -0.8472
  936MOL0     H26299   6.483  11.850  10.596 -3.3135 -0.3472 -2.1596
  936MOL0     H26300   6.381  11.711  10.590  0.0181  0.3846 -0.8798
  936MOL0     H26301   6.680  11.698  10.625 -0.7548 -0.1722  0.7413
  936MOL0     H26302   6.587  11.552  10.632  3.5695 -0.3672 -0.0863
  936MOL0     H26303   6.666  11.550  10.404  1.6330  1.2212 -4.3853
  936MOL0     H26304   6.504  11.632  10.388 -1.0602  4.5953  0.7570
  936MOL0     H26305   6.630  11.781  10.280 -1.3799  1.4929  0.7890
  936MOL0     H26306   6.633  11.854  10.435 -0.5119  0.7210 -0.1047
  936MOL0     H26307   6.851  11.673  10.347 -1.2317 -0.3018  0.2104
  936MOL0     H26308   6.849  11.744  10.498  1.3691 -3.6660 -0.1839
  936MOL0     H26309   6.827  11.913  10.236  3.1684 -3.4579 -1.5699
  936MOL0     H26310   6.837  11.971  10.407 -0.1594  1.5839 -0.5621
  936MOL0     H26311   7.054  11.807  10.115  1.7956  2.7070 -1.3456
  936MOL0     H26312   7.412  11.937  10.177  0.3278  0.7404 -1.2842
  936MOL0     H26313   7.303  11.835  10.073  0.8021 -0.7597 -0.7154
  936MOL0     H26314   7.186  12.073  10.039 -0.6969  0.7653  2.2663
  936MOL0     H26315   7.342  12.133  10.081 -0.6911 -0.2262  3.5554
  936MOL0     H26316   7.337  12.096   9.830  3.9140  2.2972  0.9961
  936MOL0     H26317   7.321  11.918   9.867  2.1364  0.0214 -1.0759
  936MOL0     H26318   7.525  11.899   9.948 -0.7870 -0.4477  0.6330
  936MOL0     H26319   7.556  12.060   9.990 -1.4956  1.1822 -0.7908
  936MOL0     H26320   7.793  12.140   9.665  0.4647 -3.1116  2.2290
  936MOL0     H26321   7.874  12.371   9.671  1.5803 -2.4696 -0.2325
  936MOL0     H26322   7.650  12.795   9.653 -1.0136  1.5247 -0.4918
  936MOL0     H26323   7.733  13.033   9.605  0.2870 -0.8596 -0.9813
  936MOL0     H26324   8.025  13.161   9.792  0.0403  1.0477  1.0279
  936MOL0     H26325   7.980  13.172   9.624  1.6915  0.0447  1.1531
  936MOL0     H26326   7.968  13.416   9.649 -0.6520  0.2331  1.7547
  936MOL0     H26327   7.970  13.390   9.826  1.1435  1.3408  0.8329
  936MOL0     H26328   8.212  13.286   9.784 -1.0244 -1.2855  0.1620
  936MOL0     H26329   8.190  13.336   9.610 -1.0972 -0.0820  0.4395
  936MOL0     H26330   8.230  13.514   9.848  0.6677 -0.5293 -0.7237
  936MOL0     H26331   8.157  13.562   9.690  2.8445  1.9847 -0.8455
  936MOL0     H26332   8.343  13.516   9.571 -0.3564  0.6445 -0.9557
  936MOL0     H26333   8.415  13.409   9.694 -2.2677 -1.0961  0.1592
  936MOL0     H26334   8.443  13.602   9.847 -1.2451 -0.4905 -0.3829
  936MOL0     H26335   8.558  13.576   9.718  1.5831  2.4703  1.9925
  936MOL0     H26336   8.357  13.801   9.727  2.2424  1.9600  1.4191
  936MOL0     H26337   8.412  13.732   9.577 -0.0293 -2.0059  0.4408
  936MOL0     H26338   8.663  13.783   9.685  1.1209 -0.4202  1.1826
  936MOL0     H26339   8.564  13.912   9.620  0.5808  1.3571  1.3429
  936MOL0     H26340   7.821  13.110   9.993  0.2177  1.9945 -3.5693
  936MOL0     H26341   7.750  12.877  10.063  0.5366 -1.0206 -1.1639
  936MOL0     H26342   7.526  12.496   9.885  0.2450  0.7976 -1.5482
  936MOL0     H26343   7.464  12.245   9.910  0.7129  0.0867  1.5624
  936MOL0     H26344   6.253  11.686  11.192 -1.0567  0.1111 -0.5470
  936MOL0     H26345   6.042  11.574  11.299 -0.1721  0.9157 -0.8949
  936MOL0     H26346   5.738  11.313  11.328  3.0239 -0.6964 -0.3280
  936MOL0     H26347   5.554  11.204  11.401 -0.6365 -1.8082 -1.8281
  936MOL0     H26348   5.594  10.761  11.575  0.6480  3.5292  0.5820
  936MOL0     H26349   5.566  10.748  11.403  2.1588  1.9264 -2.0455
  936MOL0     H26350   5.342  10.791  11.606 -1.1933 -0.5800  0.6219
  936MOL0     H26351   5.415  10.641  11.550  2.7330  0.8621 -0.1669
  936MOL0     H26352   5.368  10.676  11.313 -4.6440 -0.0683 -3.2526
  936MOL0     H26353   5.302  10.834  11.347  1.7809  2.4447  3.9086
  936MOL0     H26354   5.185  10.548  11.424 -5.3614 -0.4200 -0.1319
  936MOL0     H26355   5.131  10.693  11.493 -0.9766 -1.6856  0.1318
  936MOL0     H26356   4.963  10.687  11.112 -2.2335 -1.7129  3.4114
  936MOL0     H26357   5.768  10.830  11.415  4.4118  0.1115 -0.3562
  936MOL0     H26358   6.050  10.960  11.237 -0.3100  0.4933  1.6704
  936MOL0     H26359   6.048  10.887  11.395  0.3614 -1.1107  0.7910
  936MOL0     H26360   5.955  10.811  11.277  0.0660  0.1060  0.9125
  937MOL0     O26361   9.349   1.528   5.964 -0.0197 -0.4087  0.4196
  937MOL0     C26362   9.326   1.411   5.972  0.0205 -0.5243 -0.1159
  937MOL0     O26363   9.411   1.307   5.943 -1.0297 -0.1635 -0.1210
  937MOL0     C26364   9.544   1.344   5.901  0.3302 -0.1564 -0.3834
  937MOL0     C26365   9.579   1.351   5.768  0.0527 -0.3446  0.2843
  937MOL0     C26366   9.710   1.395   5.729  0.0835 -0.2352  0.9209
  937MOL0     C26367   9.807   1.416   5.831 -0.3514 -0.6916  0.8191
  937MOL0     O26368   9.933   1.455   5.793  0.1178  0.5640 -0.1514
  937MOL0     C26369  10.039   1.401   5.866  0.5714 -0.2105  0.5088
  937MOL0     C26370  10.167   1.414   5.784  0.2076  0.6014 -1.2530
  937MOL0     C26371  10.201   1.289   5.698 -0.0760  0.2526  0.8289
  937MOL0     C26372  10.093   1.250   5.599  0.4401  0.0448 -0.3036
  937MOL0     C26373  10.125   1.117   5.540  1.3817  0.9594  0.4758
  937MOL0     C26374  10.022   1.073   5.433 -0.2718 -0.5551 -0.4610
  937MOL0     C26375  10.043   0.925   5.405 -0.1426 -0.0447 -0.1107
  937MOL0     C26376   9.933   0.894   5.308  0.0480  0.0670 -0.1222
  937MOL0     N26377   9.815   0.826   5.367  0.3175  0.1470 -0.0766
  937MOL0     C26378   9.739   0.855   5.481 -0.3748 -0.4382 -0.6259
  937MOL0     C26379   9.655   0.745   5.502 -0.0942  0.2973  0.4584
  937MOL0     C26380   9.554   0.732   5.608  0.1679 -0.3655  0.2638
  937MOL0     C26381   9.532   0.589   5.655  0.1250  0.5117  0.1851
  937MOL0     C26382   9.424   0.525   5.567  0.1792 -0.9090 -0.5765
  937MOL0     C26383   9.383   0.390   5.625 -0.0495  0.5716  0.7714
  937MOL0     O26384   9.501   0.306   5.620  0.2990 -0.5496  0.4561
  937MOL0     C26385   9.491   0.193   5.694 -0.4526  0.0596 -0.3482
  937MOL0     C26386   9.539   0.077   5.638 -0.0116 -1.2168 -0.3710
  937MOL0     C26387   9.519  -0.052   5.692 -0.2613  0.7690  0.3651
  937MOL0     C26388   9.470  -0.057   5.820  0.2594 -0.1746 -0.7918
  937MOL0     C26389   9.461  -0.187   5.888 -0.8478 -0.1159  0.6798
  937MOL0     O26390   9.447  -0.179   6.026  0.1345 -0.2934  0.0838
  937MOL0     C26391   9.419  -0.290   6.101  0.7335 -0.5133 -0.4163
  937MOL0     C26392   9.292  -0.354   6.093 -0.8072 -1.0517 -0.6906
  937MOL0     C26393   9.278  -0.479   6.155 -0.1832 -0.1828 -0.9014
  937MOL0     C26394   9.377  -0.543   6.228  0.7389 -0.0375  0.1997
  937MOL0     O26395   9.357  -0.655   6.302 -0.0155  0.1592  0.0787
  937MOL0     C26396   9.227  -0.715   6.336 -0.5528 -0.3578 -0.2417
  937MOL0     C26397   9.219  -0.743   6.482  0.3022 -0.6562  0.5985
  937MOL0     C26398   9.106  -0.842   6.509  0.6945  0.8966  0.0607
  937MOL0     C26399   9.071  -0.833   6.656  0.6945  0.3182 -0.1159
  937MOL0     C26400   9.165  -0.925   6.745  0.2696  0.2327 -0.3428
  937MOL0     C26401   9.127  -1.068   6.753  0.0152 -0.1371 -0.2853
  937MOL0     C26402   9.221  -1.165   6.819  0.1285 -0.3855 -1.0457
  937MOL0     C26403   9.145  -1.289   6.870 -0.0072 -0.7315 -0.3003
  937MOL0    Cl26404   9.080  -1.248   7.016 -0.1446 -0.0958 -0.0237
  937MOL0     C26405   9.499  -0.480   6.229 -0.5831  0.5577  0.2716
  937MOL0     C26406   9.525  -0.354   6.165  0.1840  0.4967 -0.1502
  937MOL0     O26407   9.471  -0.291   5.818  0.1525  0.1866  0.2689
  937MOL0     C26408   9.426   0.061   5.885  0.9542 -0.2870  0.1816
  937MOL0     C26409   9.439   0.183   5.821  0.1719  0.1162  0.0974
  937MOL0     N26410   9.678   0.653   5.400 -0.2583 -0.1108  0.5168
  937MOL0     N26411   9.778   0.700   5.334 -0.2655 -0.0316 -1.1364
  937MOL0     C26412   9.764   1.414   5.972 -0.1168  0.1089  0.2932
  937MOL0     C26413   9.637   1.372   6.003 -0.5854 -0.4879  0.8281
  937MOL0     C26414   9.193   1.383   6.030 -0.2788 -0.1121  0.6333
  937MOL0     C26415   9.166   1.435   6.154  0.1791 -0.5246  0.4709
  937MOL0     C26416   9.046   1.394   6.214 -0.1004  0.4820 -0.5360
  937MOL0     C26417   8.946   1.311   6.156 -0.0786 -0.6468  0.9718
  937MOL0     O26418   8.830   1.277   6.228 -0.2064 -0.7969  0.8982
  937MOL0     C26419   8.740   1.172   6.191  0.1622  0.0494  0.3790
  937MOL0     C26420   8.686   1.123   6.316 -0.4791  0.1523  0.1371
  937MOL0     C26421   8.584   1.215   6.386  0.2629 -0.1371  0.1596
  937MOL0     C26422   8.459   1.249   6.294  0.2636 -0.6294 -0.0135
  937MOL0     C26423   8.468   1.374   6.217 -0.7607  0.5280 -0.2472
  937MOL0     C26424   8.456   1.477   6.154 -0.1672  0.7936  0.5517
  937MOL0     C26425   8.971   1.265   6.024 -0.5450 -0.3336 -0.3232
  937MOL0     C26426   9.095   1.296   5.967 -0.1228  0.5447  0.3008
  937MOL0     C26427   9.124   1.218   5.840 -0.1129 -0.0909 -0.4144
  937MOL0     H26428   9.505   1.319   5.696  1.2233 -0.6852 -0.7911
  937MOL0     H26429   9.738   1.430   5.630  0.6768  1.5866  1.7001
  937MOL0     H26430  10.058   1.465   5.953  0.5433  0.7557 -0.1783
  937MOL0     H26431  10.011   1.301   5.901  0.0605  0.1163  1.0654
  937MOL0     H26432  10.247   1.437   5.856 -2.5413  0.5197  2.1028
  937MOL0     H26433  10.159   1.507   5.726  0.8411  3.0710  2.2919
  937MOL0     H26434  10.214   1.209   5.772  0.9072 -0.1572  0.2193
  937MOL0     H26435  10.292   1.307   5.641 -0.9851  3.0444  0.0896
  937MOL0     H26436   9.993   1.239   5.641  0.4324  0.4048 -0.2221
  937MOL0     H26437  10.085   1.326   5.520 -0.9896 -2.1875 -2.4236
  937MOL0     H26438  10.219   1.117   5.486  0.8686 -0.8395 -0.4872
  937MOL0     H26439  10.121   1.048   5.625 -1.1018  3.1177  2.3026
  937MOL0     H26440   9.925   1.079   5.483 -0.5059 -0.5598 -0.9046
  937MOL0     H26441  10.023   1.145   5.350  3.1187  1.7056  1.3038
  937MOL0     H26442  10.044   0.863   5.494 -1.2311 -0.6938 -0.5307
  937MOL0     H26443  10.138   0.914   5.352  1.1795 -1.2561  2.3413
  937MOL0     H26444   9.904   0.985   5.254 -0.6581  1.5435  2.5901
  937MOL0     H26445   9.980   0.829   5.233 -0.7354 -2.3293  1.3585
  937MOL0     H26446   9.758   0.934   5.553  0.0950  0.0179 -1.2393
  937MOL0     H26447   9.585   0.798   5.690 -0.0060 -1.3659  1.1739
  937MOL0     H26448   9.461   0.780   5.576 -0.5500 -2.3268 -0.7436
  937MOL0     H26449   9.623   0.529   5.665  0.4591  0.7449 -1.1982
  937MOL0     H26450   9.485   0.587   5.754  0.9335  0.3032  0.5708
  937MOL0     H26451   9.465   0.499   5.469  0.9305  1.5142 -0.9593
  937MOL0     H26452   9.340   0.595   5.556 -0.2962 -0.7813  2.8475
  937MOL0     H26453   9.309   0.348   5.555 -0.7606 -0.4351  2.0728
  937MOL0     H26454   9.327   0.401   5.719 -0.3727  3.2672  0.3415
  937MOL0     H26455   9.589   0.089   5.543  2.4590 -4.1859  0.3997
  937MOL0     H26456   9.556  -0.137   5.635  1.8329 -0.1318  2.8741
  937MOL0     H26457   9.216  -0.317   6.026  0.6771 -0.9642 -2.4094
  937MOL0     H26458   9.177  -0.518   6.144 -0.7033  0.8122  0.2289
  937MOL0     H26459   9.143  -0.650   6.309  0.7877  1.8961  0.6878
  937MOL0     H26460   9.221  -0.806   6.276  1.4622 -0.8547  0.2141
  937MOL0     H26461   9.315  -0.779   6.520 -0.2126  0.4901  3.2045
  937MOL0     H26462   9.196  -0.642   6.516  1.7085 -0.6236  1.5201
  937MOL0     H26463   9.018  -0.821   6.447  1.8341  0.8913 -1.6372
  937MOL0     H26464   9.144  -0.941   6.484 -1.6420  0.2363 -1.1101
  937MOL0     H26465   8.967  -0.864   6.670  1.0961 -0.4768  1.3064
  937MOL0     H26466   9.068  -0.732   6.698  3.1345  1.4266 -2.3268
  937MOL0     H26467   9.158  -0.885   6.847 -1.3938  0.0922 -0.3810
  937MOL0     H26468   9.271  -0.914   6.718  0.5456  0.6866  0.8367
  937MOL0     H26469   9.023  -1.073   6.785  0.3479 -0.0945  0.8213
  937MOL0     H26470   9.127  -1.104   6.649 -1.2883 -0.7563 -0.0771
  937MOL0     H26471   9.269  -1.119   6.906  0.2690  0.6623 -1.6618
  937MOL0     H26472   9.307  -1.178   6.752  0.3331  1.2224 -1.1278
  937MOL0     H26473   9.077  -1.319   6.790  1.3544  0.0414 -1.8180
  937MOL0     H26474   9.218  -1.369   6.885 -0.6941 -1.2731  0.1557
  937MOL0     H26475   9.580  -0.534   6.276 -0.0238 -0.7923 -2.0949
  937MOL0     H26476   9.623  -0.306   6.166 -0.0152  0.9550 -1.1588
  937MOL0     H26477   9.384   0.068   5.985 -1.0144  1.2323 -0.6952
  937MOL0     H26478   9.405   0.274   5.871  0.4719 -0.6542  1.7740
  937MOL0     H26479   9.834   1.457   6.043  0.2317  1.4243 -0.8085
  937MOL0     H26480   9.607   1.378   6.107 -0.7953  2.1618  0.6758
  937MOL0     H26481   9.227   1.516   6.193 -1.5842  1.5350 -0.7637
  937MOL0     H26482   9.030   1.417   6.319  1.2859 -0.7151 -0.0210
  937MOL0     H26483   8.795   1.086   6.150  2.3841  1.6737 -0.2366
  937MOL0     H26484   8.677   1.211   6.111 -0.5055  0.4297  1.0890
  937MOL0     H26485   8.755   1.094   6.396  0.5888  2.2661  0.0392
  937MOL0     H26486   8.628   1.036   6.282 -2.2118  1.0399  0.6691
  937MOL0     H26487   8.632   1.309   6.417  2.6092 -1.8842  2.2367
  937MOL0     H26488   8.549   1.163   6.475  0.9739  3.8387  3.0303
  937MOL0     H26489   8.430   1.173   6.222  0.9671  0.4976 -1.5508
  937MOL0     H26490   8.378   1.259   6.366  1.0950  0.4390  0.8203
  937MOL0     H26491   8.433   1.567   6.100 -2.9838 -0.0938  0.1222
  937MOL0     H26492   8.889   1.210   5.981 -1.1015  1.9871 -2.4754
  937MOL0     H26493   9.043   1.224   5.767 -0.2234 -3.3185 -0.7048
  937MOL0     H26494   9.222   1.238   5.796  0.6572 -0.6855  0.9635
  937MOL0     H26495   9.126   1.110   5.855  3.3668  0.0078  0.7212
  938MOL0     O26496   4.824   0.670   6.571  0.0285  0.9100  0.2212
  938MOL0     C26497   4.832   0.699   6.692  0.4850  0.6330 -0.5026
  938MOL0     O26498   4.727   0.715   6.773 -0.5351  0.8278 -0.0822
  938MOL0     C26499   4.607   0.664   6.722 -0.2878  0.3937  1.1484
  938MOL0     C26500   4.562   0.543   6.785 -0.5417 -0.6139 -0.1620
  938MOL0     C26501   4.445   0.491   6.739 -0.0070 -0.5238 -0.1404
  938MOL0     C26502   4.353   0.572   6.662 -0.1925 -0.1624  0.1915
  938MOL0     O26503   4.226   0.531   6.637  0.6328  0.1867 -0.9225
  938MOL0     C26504   4.181   0.397   6.668  0.4944  0.1993  0.2533
  938MOL0     C26505   4.029   0.384   6.622 -1.5782 -0.7106  0.1495
  938MOL0     C26506   3.983   0.244   6.629  0.1874 -0.3663  0.0716
  938MOL0     C26507   3.974   0.174   6.762 -0.1934 -0.2158 -0.2255
  938MOL0     C26508   3.895   0.039   6.747 -0.1622 -0.4925  0.2457
  938MOL0     C26509   3.904  -0.037   6.878  0.5997 -1.0588  0.3872
  938MOL0     C26510   3.810  -0.152   6.889 -0.0910  0.1845 -0.5024
  938MOL0     C26511   3.826  -0.216   7.026  0.4926 -0.2476 -0.7713
  938MOL0     N26512   3.943  -0.304   7.037  0.3442  0.4826  0.4283
  938MOL0     C26513   4.069  -0.255   7.064  0.6868  0.4551 -0.8256
  938MOL0     C26514   4.160  -0.347   7.048 -1.1514 -0.4668  0.0931
  938MOL0     C26515   4.311  -0.340   7.059 -0.1671 -0.4009 -0.1460
  938MOL0     C26516   4.362  -0.301   6.922  0.0006 -0.3523 -0.4622
  938MOL0     C26517   4.497  -0.236   6.936 -0.5926  0.8254 -0.1106
  938MOL0     C26518   4.557  -0.196   6.801  0.0441  0.3947 -0.0259
  938MOL0     O26519   4.602  -0.318   6.727  0.5692  0.4078  0.2823
  938MOL0     C26520   4.628  -0.317   6.593 -0.5645 -0.4950 -0.9167
  938MOL0     C26521   4.609  -0.439   6.528 -0.9898  0.2638  0.7837
  938MOL0     C26522   4.638  -0.444   6.388 -0.1517  0.0956  0.4958
  938MOL0     C26523   4.702  -0.337   6.317 -0.4140 -0.3682 -0.5498
  938MOL0     C26524   4.753  -0.363   6.182 -0.0279  0.8530  0.2696
  938MOL0     O26525   4.718  -0.482   6.122  0.7887 -0.2496 -0.2707
  938MOL0     C26526   4.768  -0.521   5.999  0.1914  0.4227  0.3533
  938MOL0     C26527   4.778  -0.661   5.975  0.9093 -0.9725 -0.4753
  938MOL0     C26528   4.827  -0.723   5.862 -0.3287  0.4011  1.0732
  938MOL0     C26529   4.869  -0.645   5.760  0.1401 -0.5195 -0.1307
  938MOL0     O26530   4.901  -0.711   5.647  0.8185 -0.3622  0.6278
  938MOL0     C26531   5.015  -0.665   5.571  0.2440  0.7579 -0.4564
  938MOL0     C26532   5.079  -0.781   5.493 -0.7953  0.5824  0.2142
  938MOL0     C26533   5.148  -0.884   5.583  0.1114  0.3441 -0.1404
  938MOL0     C26534   5.241  -0.994   5.531  0.1376  0.2564  0.4439
  938MOL0     C26535   5.183  -1.087   5.430 -0.8069 -0.1191  0.0737
  938MOL0     C26536   5.174  -1.027   5.286  0.8121  0.2992 -0.2267
  938MOL0     C26537   5.081  -1.108   5.195  0.3474  0.3552  0.4851
  938MOL0     C26538   5.103  -1.070   5.044  0.1601  0.4270 -0.1927
  938MOL0    Cl26539   4.964  -1.130   4.957 -0.1927 -0.6739  0.1179
  938MOL0     C26540   4.880  -0.502   5.781 -0.8380 -0.2220 -0.0356
  938MOL0     C26541   4.830  -0.440   5.901  0.3627  0.4797  0.1099
  938MOL0     O26542   4.833  -0.281   6.134 -0.0617 -0.6859  0.2993
  938MOL0     C26543   4.718  -0.220   6.387 -0.6823  0.4198 -0.4365
  938MOL0     C26544   4.680  -0.207   6.522  0.7315  0.4856  0.3609
  938MOL0     N26545   4.079  -0.451   7.005  0.1870  0.1911 -0.4774
  938MOL0     N26546   3.952  -0.434   6.996 -0.9438 -0.7123  0.2235
  938MOL0     C26547   4.395   0.690   6.606 -0.9552 -0.7282  0.3048
  938MOL0     C26548   4.531   0.734   6.621  0.2994  0.0618 -0.1146
  938MOL0     C26549   4.956   0.740   6.755 -0.5685  0.5090  0.2350
  938MOL0     C26550   4.965   0.818   6.874 -0.0444  0.1583  0.8837
  938MOL0     C26551   5.082   0.854   6.935 -0.5186 -0.2180 -0.6671
  938MOL0     C26552   5.200   0.794   6.890  0.9092 -0.6932 -0.4466
  938MOL0     O26553   5.319   0.804   6.959 -0.3007 -0.0326 -0.3841
  938MOL0     C26554   5.364   0.926   7.020 -0.3256 -0.2711 -0.7086
  938MOL0     C26555   5.429   1.016   6.915  0.5332 -0.9723  0.1175
  938MOL0     C26556   5.480   1.153   6.974  0.1882  0.5974 -0.1986
  938MOL0     C26557   5.563   1.241   6.882 -0.2776 -0.0764  0.1453
  938MOL0     C26558   5.594   1.370   6.936 -0.3149  0.5622 -0.9257
  938MOL0     C26559   5.612   1.478   6.988 -0.3581 -0.4083 -0.2472
  938MOL0     C26560   5.196   0.716   6.774  0.9441 -0.3069  0.7084
  938MOL0     C26561   5.083   0.692   6.698  0.1128 -0.0221 -0.3062
  938MOL0     C26562   5.090   0.619   6.559 -0.2024 -0.5518 -0.0040
  938MOL0     H26563   4.623   0.498   6.862  1.6335 -1.3026 -2.1678
  938MOL0     H26564   4.416   0.402   6.794 -2.0405  0.2042  0.0723
  938MOL0     H26565   4.234   0.327   6.602 -3.1691 -3.0351  0.4291
  938MOL0     H26566   4.188   0.358   6.769  2.5216 -3.0828 -0.9872
  938MOL0     H26567   4.015   0.419   6.519 -0.0936 -0.7481 -0.0926
  938MOL0     H26568   3.966   0.444   6.689  1.0222  0.1595  1.9793
  938MOL0     H26569   4.039   0.174   6.566  1.0014 -2.6339  3.0907
  938MOL0     H26570   3.880   0.249   6.591  0.1313 -2.6011 -0.2142
  938MOL0     H26571   4.073   0.155   6.804  0.1416  1.8617  0.0109
  938MOL0     H26572   3.928   0.234   6.842  0.1745 -1.1810  0.7392
  938MOL0     H26573   3.792   0.053   6.713 -0.8878 -0.5086  2.3101
  938MOL0     H26574   3.950  -0.031   6.683  1.0734 -1.3172  2.1025
  938MOL0     H26575   4.003  -0.077   6.900  0.9944 -1.2179 -1.5107
  938MOL0     H26576   3.879   0.036   6.956  1.0143  0.5840 -0.9430
  938MOL0     H26577   3.809  -0.230   6.811  2.2073 -1.2584  0.7998
  938MOL0     H26578   3.710  -0.109   6.876 -0.7644 -1.3672 -0.6540
  938MOL0     H26579   3.824  -0.145   7.110  0.8017 -0.7430 -0.3421
  938MOL0     H26580   3.736  -0.276   7.037  0.2908  0.2312  0.3387
  938MOL0     H26581   4.097  -0.156   7.099  0.7451  0.8012 -1.8051
  938MOL0     H26582   4.321  -0.266   7.139 -1.5965 -0.9079  0.5267
  938MOL0     H26583   4.355  -0.435   7.088 -2.5944 -1.5348  0.0576
  938MOL0     H26584   4.368  -0.381   6.848  1.5752  0.1998 -0.9803
  938MOL0     H26585   4.302  -0.223   6.873 -1.4891 -1.8421 -1.0911
  938MOL0     H26586   4.570  -0.293   6.995 -0.6257  0.8843 -0.0112
  938MOL0     H26587   4.484  -0.137   6.982  0.6979  0.4011  1.2904
  938MOL0     H26588   4.645  -0.135   6.825  0.9943 -0.7137 -0.6217
  938MOL0     H26589   4.488  -0.136   6.740 -0.0978  0.6349  0.3660
  938MOL0     H26590   4.576  -0.528   6.581 -1.5492  0.4948  0.8290
  938MOL0     H26591   4.633  -0.539   6.336  3.9501  0.0772 -0.2093
  938MOL0     H26592   4.723  -0.730   6.037  2.1318 -1.6113 -0.0663
  938MOL0     H26593   4.820  -0.831   5.853  0.4435  0.2378  2.1855
  938MOL0     H26594   4.981  -0.604   5.488  2.6692  0.8512 -1.4466
  938MOL0     H26595   5.082  -0.609   5.636 -0.0015  0.6449 -0.1010
  938MOL0     H26596   4.997  -0.835   5.443 -1.4126  1.8103 -0.1372
  938MOL0     H26597   5.153  -0.746   5.420 -0.5750 -0.2994 -0.0064
  938MOL0     H26598   5.209  -0.822   5.649  0.0375 -0.0968  0.3471
  938MOL0     H26599   5.072  -0.938   5.640 -0.6599 -0.7132 -2.0799
  938MOL0     H26600   5.283  -1.052   5.613  0.8888 -2.2271 -1.6042
  938MOL0     H26601   5.322  -0.935   5.488  0.6058 -0.4271  0.3855
  938MOL0     H26602   5.089  -1.119   5.476  0.5904 -1.8312  1.8806
  938MOL0     H26603   5.250  -1.172   5.420 -0.9175 -0.1023 -1.0283
  938MOL0     H26604   5.133  -0.925   5.286  2.0989  0.8380  0.9345
  938MOL0     H26605   5.272  -1.022   5.239  0.7249 -1.2113 -0.6205
  938MOL0     H26606   4.981  -1.088   5.233  0.7227  1.9385  0.6990
  938MOL0     H26607   5.092  -1.215   5.215  0.3737  0.4253  0.8457
  938MOL0     H26608   5.117  -0.962   5.032 -2.0737  0.6506 -1.3034
  938MOL0     H26609   5.190  -1.124   5.004  0.6184 -1.6578  3.1799
  938MOL0     H26610   4.936  -0.433   5.721 -0.3309  0.7638  1.5143
  938MOL0     H26611   4.847  -0.333   5.909  1.9733  0.2286  0.3404
  938MOL0     H26612   4.773  -0.137   6.344  0.8830  1.0846  2.5397
  938MOL0     H26613   4.683  -0.111   6.572 -1.9516  1.4614 -1.1628
  938MOL0     H26614   4.326   0.734   6.534 -1.8955  0.1517  1.6921
  938MOL0     H26615   4.556   0.825   6.567 -0.3473 -0.3006 -1.0519
  938MOL0     H26616   4.877   0.854   6.927 -0.8612  0.8469 -0.8565
  938MOL0     H26617   5.076   0.926   7.016  3.4432  2.2540 -2.2379
  938MOL0     H26618   5.436   0.909   7.100 -1.3208  2.6057  0.9284
  938MOL0     H26619   5.287   0.979   7.077  0.0390  0.7295 -1.1069
  938MOL0     H26620   5.351   1.025   6.839  2.3673 -0.5868 -1.7930
  938MOL0     H26621   5.510   0.960   6.868  1.0997 -0.0535 -0.0424
  938MOL0     H26622   5.547   1.126   7.056  0.0611 -0.8335 -0.5409
  938MOL0     H26623   5.394   1.207   7.014  1.0470 -0.2794  3.1717
  938MOL0     H26624   5.656   1.186   6.863  0.1367 -0.8693  3.6370
  938MOL0     H26625   5.510   1.250   6.787  1.4641  3.6314 -0.6322
  938MOL0     H26626   5.643   1.570   7.035  1.5167  0.1545 -2.4160
  938MOL0     H26627   5.291   0.677   6.738  0.5224 -0.6970 -0.0241
  938MOL0     H26628   5.038   0.685   6.489 -1.9456 -1.2301  0.6120
  938MOL0     H26629   5.191   0.600   6.520 -0.3178 -1.8835  0.3023
  938MOL0     H26630   5.048   0.519   6.574 -1.4236  0.2590  2.5508
  939MOL0     O26631   4.014   8.078   6.306  0.2185 -0.2319 -0.0259
  939MOL0     C26632   4.094   8.130   6.227  0.4162  0.0822  0.2865
  939MOL0     O26633   4.204   8.205   6.260  0.2818  0.4226 -0.4029
  939MOL0     C26634   4.235   8.228   6.389  0.0244 -0.1875  0.1353
  939MOL0     C26635   4.136   8.304   6.461  0.8433  0.8558  0.0481
  939MOL0     C26636   4.162   8.334   6.596  0.0071  0.3591 -0.5117
  939MOL0     C26637   4.287   8.303   6.656  0.6063  0.0787 -0.4342
  939MOL0     O26638   4.324   8.328   6.785 -0.0795  0.2806  0.2249
  939MOL0     C26639   4.305   8.455   6.846 -0.1608  0.0260 -0.7323
  939MOL0     C26640   4.212   8.439   6.971 -0.5001  0.0365  1.3919
  939MOL0     C26641   4.275   8.371   7.089 -1.2679 -0.5623  0.0425
  939MOL0     C26642   4.204   8.374   7.227  0.5346  0.5813 -0.5450
  939MOL0     C26643   4.057   8.337   7.233  0.6345  0.1284  0.3810
  939MOL0     C26644   4.034   8.193   7.168  0.0618 -0.0523 -0.9454
  939MOL0     C26645   3.904   8.132   7.224 -0.2168 -0.7976  1.1196
  939MOL0     C26646   3.873   8.012   7.141 -0.9141  0.4525  0.7057
  939MOL0     N26647   3.933   7.884   7.190  0.7433  0.3689  0.7260
  939MOL0     C26648   4.023   7.806   7.123  0.0663 -0.0423  0.2809
  939MOL0     C26649   4.022   7.685   7.192  0.0104  0.0516  0.6632
  939MOL0     C26650   4.107   7.575   7.139  0.0832 -0.4267 -0.5244
  939MOL0     C26651   4.055   7.432   7.167  1.0725 -0.6363  0.4773
  939MOL0     C26652   3.928   7.394   7.090  0.3841  0.2652 -0.4310
  939MOL0     C26653   3.892   7.255   7.127 -0.2423  0.0713 -0.5041
  939MOL0     O26654   3.792   7.201   7.041 -0.1384  0.3853  0.9863
  939MOL0     C26655   3.662   7.232   7.054  0.6078  0.7972  0.2666
  939MOL0     C26656   3.582   7.180   6.954  0.0583  0.3029 -0.4725
  939MOL0     C26657   3.446   7.203   6.948  0.2649  0.2410  0.4999
  939MOL0     C26658   3.380   7.282   7.045 -0.6125  0.1259  0.5009
  939MOL0     C26659   3.240   7.319   7.024 -0.7573  0.0187  0.1424
  939MOL0     O26660   3.208   7.450   7.067 -0.3957  0.6492  0.1474
  939MOL0     C26661   3.079   7.486   7.050  0.0612  1.1607 -0.3657
  939MOL0     C26662   3.046   7.561   6.931 -0.3630 -0.4332 -0.2647
  939MOL0     C26663   2.920   7.611   6.910 -0.6764 -0.4725 -0.1931
  939MOL0     C26664   2.827   7.602   7.019 -0.4321  0.2548 -0.1119
  939MOL0     O26665   2.704   7.657   7.031  0.4804  0.0503 -0.3843
  939MOL0     C26666   2.683   7.779   6.963  0.1765  0.7404  0.6795
  939MOL0     C26667   2.525   7.792   6.954 -0.4357  0.3495  0.2250
  939MOL0     C26668   2.485   7.903   6.845 -0.0188 -0.1056  0.1497
  939MOL0     C26669   2.350   7.976   6.880  0.4134 -0.9882  0.5817
  939MOL0     C26670   2.335   8.083   6.992  0.1948 -0.2377  0.2133
  939MOL0     C26671   2.455   8.177   7.009  0.0001 -1.0662 -0.1341
  939MOL0     C26672   2.477   8.264   6.889  0.0105  0.0067 -0.5974
  939MOL0     C26673   2.582   8.373   6.909  0.0553  0.0519 -1.3413
  939MOL0    Cl26674   2.743   8.313   6.965 -0.4648  0.1777  0.0813
  939MOL0     C26675   2.858   7.519   7.125  0.8261  0.7016  0.1982
  939MOL0     C26676   2.984   7.464   7.148  0.5752  0.4225 -0.1367
  939MOL0     O26677   3.162   7.244   6.956 -0.1825 -0.0467 -0.0213
  939MOL0     C26678   3.462   7.336   7.146  0.2372  0.0672  1.0366
  939MOL0     C26679   3.599   7.305   7.161  1.0216  0.0338  1.1823
  939MOL0     N26680   3.940   7.701   7.307  0.2360 -0.7540 -0.4515
  939MOL0     N26681   3.886   7.814   7.298 -0.0404 -0.6694  0.6810
  939MOL0     C26682   4.371   8.228   6.580 -0.1266 -0.5967 -0.3089
  939MOL0     C26683   4.353   8.191   6.450 -0.4839  0.1897  0.2627
  939MOL0     C26684   4.054   8.116   6.083 -0.1201  0.1030  0.2617
  939MOL0     C26685   4.079   8.229   6.005  0.4687 -0.3565  0.5382
  939MOL0     C26686   4.032   8.260   5.887 -0.7923  0.6267  0.7572
  939MOL0     C26687   3.957   8.161   5.811  0.5586  0.7049 -0.5960
  939MOL0     O26688   3.914   8.182   5.686 -0.0929 -0.3368  0.5727
  939MOL0     C26689   3.769   8.166   5.666  1.0655  0.6098  0.0791
  939MOL0     C26690   3.727   8.187   5.525  0.4187 -0.4545 -0.1466
  939MOL0     C26691   3.576   8.185   5.500  0.1531 -0.1072  0.3485
  939MOL0     C26692   3.547   8.238   5.356  0.8228  0.7987 -0.2727
  939MOL0     C26693   3.407   8.223   5.320  0.4031  0.5335  0.6272
  939MOL0     C26694   3.298   8.208   5.268  0.1949 -0.4221  0.1277
  939MOL0     C26695   3.936   8.041   5.884 -0.2613 -0.1770  0.2496
  939MOL0     C26696   3.980   8.013   6.017 -0.1676 -0.5762 -0.6857
  939MOL0     C26697   3.936   7.885   6.081 -0.0598  0.2213  0.2154
  939MOL0     H26698   4.038   8.328   6.420  1.4545  3.7507  0.0564
  939MOL0     H26699   4.084   8.387   6.650  0.1077 -0.4655  0.4894
  939MOL0     H26700   4.404   8.496   6.864 -0.1146  1.8007 -4.0981
  939MOL0     H26701   4.258   8.524   6.775 -0.6716  0.4733  0.0321
  939MOL0     H26702   4.132   8.377   6.930  0.9881  0.0865 -1.9943
  939MOL0     H26703   4.172   8.538   6.995  0.4907  1.2568 -1.4677
  939MOL0     H26704   4.369   8.422   7.115  0.1032 -2.4639 -0.9133
  939MOL0     H26705   4.303   8.268   7.067 -0.4320 -0.2369 -0.4850
  939MOL0     H26706   4.246   8.309   7.304 -3.3676  1.4964  2.7434
  939MOL0     H26707   4.211   8.475   7.269  3.7751 -1.1939  4.0443
  939MOL0     H26708   4.018   8.339   7.335  0.1563  0.8149  0.1886
  939MOL0     H26709   3.992   8.400   7.171 -2.0818 -3.3217 -0.5582
  939MOL0     H26710   4.033   8.203   7.059 -1.7176  0.6975 -0.9022
  939MOL0     H26711   4.125   8.139   7.195 -0.1323 -0.1612 -0.4897
  939MOL0     H26712   3.822   8.206   7.218 -2.4243 -3.1700 -0.1201
  939MOL0     H26713   3.918   8.098   7.327  1.6964 -1.5736  0.6387
  939MOL0     H26714   3.766   7.994   7.127 -1.2843  3.1697 -0.4531
  939MOL0     H26715   3.900   8.030   7.037 -3.6261 -3.7424 -0.9886
  939MOL0     H26716   4.074   7.819   7.028 -1.2010 -0.0508 -0.4192
  939MOL0     H26717   4.110   7.584   7.030 -3.1771  0.4491 -0.6564
  939MOL0     H26718   4.210   7.585   7.173  0.0619  1.1899 -0.9042
  939MOL0     H26719   4.135   7.368   7.132 -1.3067 -2.7021 -1.5475
  939MOL0     H26720   4.029   7.413   7.272 -3.4218 -2.6827 -0.7720
  939MOL0     H26721   3.953   7.392   6.983  2.8124 -3.3692  0.0184
  939MOL0     H26722   3.846   7.465   7.102  1.7562  1.7190  0.9783
  939MOL0     H26723   3.860   7.258   7.231  1.5636 -0.8699  0.1174
  939MOL0     H26724   3.982   7.192   7.124  0.1685  0.6602 -0.8491
  939MOL0     H26725   3.613   7.118   6.870  0.7293 -0.3021  0.2161
  939MOL0     H26726   3.382   7.167   6.869 -0.0472 -1.5235  1.4992
  939MOL0     H26727   3.124   7.594   6.862 -0.5641  0.5260 -0.0473
  939MOL0     H26728   2.902   7.654   6.813  1.9792 -1.9568 -1.4490
  939MOL0     H26729   2.716   7.863   7.024 -0.2265  0.6079  1.0870
  939MOL0     H26730   2.722   7.779   6.861  2.2403 -2.5840  1.3093
  939MOL0     H26731   2.475   7.696   6.937 -0.5685  0.0772  1.9683
  939MOL0     H26732   2.499   7.818   7.057  2.2123 -0.0114  1.0493
  939MOL0     H26733   2.575   7.965   6.837  0.0524  0.2307  2.7007
  939MOL0     H26734   2.470   7.848   6.751 -2.7822  3.2243 -1.5825
  939MOL0     H26735   2.264   7.913   6.903 -1.7930  1.8069  0.6470
  939MOL0     H26736   2.328   8.023   6.784  0.9658 -0.9912  0.4531
  939MOL0     H26737   2.329   8.034   7.089  1.8360 -1.7735 -0.4024
  939MOL0     H26738   2.248   8.141   6.961  4.0336  4.7142 -2.8249
  939MOL0     H26739   2.439   8.246   7.092  0.8668 -1.1720  0.1319
  939MOL0     H26740   2.551   8.128   7.029 -0.0868 -0.6783  1.2946
  939MOL0     H26741   2.381   8.311   6.865  0.1355 -0.9444 -3.4171
  939MOL0     H26742   2.513   8.199   6.808 -0.1137  0.0219 -0.6651
  939MOL0     H26743   2.596   8.443   6.826  1.1036  1.2637 -0.1922
  939MOL0     H26744   2.542   8.432   6.992  0.8738  0.9846 -1.5811
  939MOL0     H26745   2.782   7.504   7.202 -0.0318  2.1098 -0.3261
  939MOL0     H26746   2.991   7.392   7.229 -4.0554  0.4283  0.5459
  939MOL0     H26747   3.423   7.388   7.233  2.3039  1.8844  0.9544
  939MOL0     H26748   3.659   7.348   7.241  1.5139 -1.6746  1.7834
  939MOL0     H26749   4.471   8.208   6.617  1.3902 -1.8962 -4.4851
  939MOL0     H26750   4.425   8.131   6.396 -1.2785  1.4370 -2.3748
  939MOL0     H26751   4.133   8.312   6.050  1.3051 -0.6413  0.0938
  939MOL0     H26752   4.051   8.352   5.833 -2.4843 -0.0779 -1.1505
  939MOL0     H26753   3.706   8.232   5.727 -1.7267 -0.8799 -0.9778
  939MOL0     H26754   3.733   8.063   5.680 -4.8728  2.3589  0.2917
  939MOL0     H26755   3.770   8.106   5.466  3.0919  1.4402 -1.0197
  939MOL0     H26756   3.767   8.287   5.505 -2.1956  0.7723  0.4102
  939MOL0     H26757   3.525   8.237   5.581  2.3451 -2.1205  3.2431
  939MOL0     H26758   3.543   8.082   5.517  0.0461 -0.1725 -0.2457
  939MOL0     H26759   3.571   8.344   5.368 -3.3858  1.6207  4.0127
  939MOL0     H26760   3.620   8.199   5.284  3.0721  1.8023  1.3297
  939MOL0     H26761   3.196   8.210   5.236 -0.3391  0.9767  1.7422
  939MOL0     H26762   3.894   7.959   5.826  1.0346 -0.8376  0.2112
  939MOL0     H26763   3.836   7.893   6.125  0.8235 -0.8386  2.5763
  939MOL0     H26764   3.936   7.808   6.004 -1.5769  0.0337  0.3769
  939MOL0     H26765   4.009   7.865   6.160  2.3105  0.3882 -1.8066
  940MOL0     O26766   5.560   5.423   1.715  0.1561  0.1986  0.3056
  940MOL0     C26767   5.611   5.316   1.677  0.6977 -0.7150  0.0630
  940MOL0     O26768   5.725   5.307   1.610  0.6451 -0.1588  0.3421
  940MOL0     C26769   5.821   5.401   1.578  0.0509 -0.0382  1.2887
  940MOL0     C26770   5.851   5.523   1.629 -0.2734  0.5156 -0.2566
  940MOL0     C26771   5.944   5.608   1.573  0.7327 -0.3667  1.2410
  940MOL0     C26772   6.029   5.570   1.469  0.0985  1.0539 -0.1078
  940MOL0     O26773   6.133   5.637   1.417 -0.3993 -0.1224  0.1221
  940MOL0     C26774   6.173   5.764   1.472  0.0282 -0.1876 -0.5522
  940MOL0     C26775   6.247   5.741   1.594 -0.2778 -1.2901 -0.3697
  940MOL0     C26776   6.283   5.878   1.647 -0.1696  0.0552 -0.4079
  940MOL0     C26777   6.341   5.869   1.790 -0.5253 -0.1831 -0.3358
  940MOL0     C26778   6.402   6.005   1.829  0.2590 -1.0137  0.0681
  940MOL0     C26779   6.535   6.036   1.748  0.3918  0.3913  0.3345
  940MOL0     C26780   6.597   6.163   1.797 -0.6160  0.2038 -0.7491
  940MOL0     C26781   6.501   6.276   1.822  0.1584  0.2585 -0.5035
  940MOL0     N26782   6.571   6.402   1.870 -0.7144 -0.0349  0.4424
  940MOL0     C26783   6.605   6.512   1.785 -0.5856  0.6294 -0.2661
  940MOL0     C26784   6.661   6.597   1.872 -0.4281 -0.3238  0.8238
  940MOL0     C26785   6.697   6.744   1.846  0.4862  0.9639 -0.6287
  940MOL0     C26786   6.852   6.768   1.843 -1.1543 -0.4628 -0.4356
  940MOL0     C26787   6.915   6.714   1.975 -0.0795 -0.2299  0.7741
  940MOL0     C26788   7.058   6.747   1.994  0.0671 -0.0578 -0.3463
  940MOL0     O26789   7.115   6.658   2.098 -0.1237  0.1694  0.0815
  940MOL0     C26790   7.244   6.682   2.147 -0.0790  0.3018  0.5593
  940MOL0     C26791   7.324   6.793   2.105 -0.7897  0.3781 -0.6001
  940MOL0     C26792   7.452   6.805   2.160 -0.2976 -0.7066  0.2776
  940MOL0     C26793   7.497   6.720   2.258 -0.8664 -1.3506 -0.3271
  940MOL0     C26794   7.635   6.735   2.315  0.4103  0.0421 -0.0788
  940MOL0     O26795   7.728   6.807   2.241 -1.0093  0.0755  0.2872
  940MOL0     C26796   7.844   6.838   2.297 -0.3167  0.6059  0.0852
  940MOL0     C26797   7.926   6.745   2.363 -0.2803 -0.4912 -0.7259
  940MOL0     C26798   8.060   6.764   2.395 -0.8021  0.1620  1.0601
  940MOL0     C26799   8.114   6.896   2.375  0.4633  0.3811 -0.0471
  940MOL0     O26800   8.245   6.932   2.395  1.1066  0.7555  0.3879
  940MOL0     C26801   8.327   6.827   2.439 -0.0861  0.1677  0.8392
  940MOL0     C26802   8.464   6.884   2.478 -0.5563 -0.7599  0.4821
  940MOL0     C26803   8.546   6.939   2.364  0.4074 -0.4045  0.5977
  940MOL0     C26804   8.677   6.984   2.430  0.8681  0.3572 -0.2783
  940MOL0     C26805   8.735   7.097   2.343 -0.5449  0.0859 -0.4519
  940MOL0     C26806   8.768   7.047   2.204  0.2739 -0.5779  0.4670
  940MOL0     C26807   8.867   7.142   2.132 -0.0715  0.3785  0.4598
  940MOL0     C26808   8.840   7.104   1.984 -0.5887  0.6750 -0.5043
  940MOL0    Cl26809   8.921   6.952   1.957  0.1957 -0.1043 -0.4979
  940MOL0     C26810   8.030   6.989   2.310 -0.5915  1.0110  1.0114
  940MOL0     C26811   7.901   6.963   2.267  0.0492 -0.5923 -0.1973
  940MOL0     O26812   7.661   6.671   2.422 -0.0316  0.0249 -0.4115
  940MOL0     C26813   7.422   6.608   2.294 -0.2082  0.3269 -0.7958
  940MOL0     C26814   7.300   6.587   2.237 -0.5080 -0.4082  0.3702
  940MOL0     N26815   6.651   6.540   1.999  0.0193 -1.1409 -0.6651
  940MOL0     N26816   6.605   6.423   1.997  0.5409 -0.7687 -0.4038
  940MOL0     C26817   6.001   5.439   1.425 -0.0914  0.0319 -0.5347
  940MOL0     C26818   5.904   5.357   1.483 -0.8976  0.8486 -0.2234
  940MOL0     C26819   5.535   5.192   1.693 -0.1364 -0.4919 -0.6446
  940MOL0     C26820   5.523   5.107   1.582 -0.1641  0.7875 -0.0387
  940MOL0     C26821   5.441   5.000   1.590 -1.0094  0.8371 -0.2452
  940MOL0     C26822   5.380   4.969   1.717 -0.0523  0.3491  0.7317
  940MOL0     O26823   5.309   4.849   1.725 -0.3587  0.1685 -0.2497
  940MOL0     C26824   5.332   4.772   1.846 -0.1901 -0.6332  0.4308
  940MOL0     C26825   5.453   4.680   1.827  0.7807  0.5727 -0.6304
  940MOL0     C26826   5.583   4.758   1.827  0.8369 -0.3880 -0.1828
  940MOL0     C26827   5.715   4.674   1.847  0.1091 -0.2794  0.7735
  940MOL0     C26828   5.743   4.561   1.752  0.2592  0.2007 -0.0443
  940MOL0     C26829   5.760   4.460   1.688  0.1163  0.9037  0.2332
  940MOL0     C26830   5.364   5.064   1.806 -0.6664  0.1943 -0.5043
  940MOL0     C26831   5.445   5.172   1.809 -0.7487  0.3143  1.1831
  940MOL0     C26832   5.437   5.249   1.929  0.5673 -0.7253 -1.0843
  940MOL0     H26833   5.800   5.562   1.717  1.7050 -2.1720  2.2938
  940MOL0     H26834   5.964   5.705   1.619  0.3055  1.2754 -1.7857
  940MOL0     H26835   6.230   5.819   1.396 -1.2640  1.6057 -0.3012
  940MOL0     H26836   6.086   5.827   1.492  0.9572  0.8479  0.3248
  940MOL0     H26837   6.338   5.684   1.573  0.2572 -2.4783  4.2571
  940MOL0     H26838   6.179   5.692   1.663 -1.0798 -0.7860 -0.7805
  940MOL0     H26839   6.191   5.936   1.658 -1.1613 -1.4407 -0.5571
  940MOL0     H26840   6.354   5.932   1.584 -1.3236  2.7989  0.4796
  940MOL0     H26841   6.262   5.833   1.856 -1.1800  1.2250 -0.3031
  940MOL0     H26842   6.417   5.792   1.783  0.5559  0.8527 -0.2853
  940MOL0     H26843   6.321   6.076   1.812  1.1441  0.2552  0.9730
  940MOL0     H26844   6.420   6.003   1.937  0.8802  1.9157  0.0813
  940MOL0     H26845   6.608   5.955   1.763  2.2718  2.2464  1.7364
  940MOL0     H26846   6.518   6.042   1.640 -0.9790 -2.2112  0.3328
  940MOL0     H26847   6.672   6.200   1.726  0.7625  1.9921  1.4698
  940MOL0     H26848   6.651   6.154   1.893  1.0468  0.2078 -1.6431
  940MOL0     H26849   6.442   6.291   1.731 -1.1153  0.8109  0.3825
  940MOL0     H26850   6.431   6.262   1.905 -1.5989  4.2070 -1.0876
  940MOL0     H26851   6.593   6.521   1.678  0.5557  0.2276 -0.4418
  940MOL0     H26852   6.639   6.787   1.764 -2.8071 -1.7858 -0.0242
  940MOL0     H26853   6.658   6.791   1.937 -0.4484  0.0961 -0.5592
  940MOL0     H26854   6.893   6.734   1.748  0.7466  0.3241  0.0542
  940MOL0     H26855   6.877   6.875   1.838  0.4055 -0.7515  0.4889
  940MOL0     H26856   6.899   6.606   1.962 -0.5112  0.0459 -1.4457
  940MOL0     H26857   6.858   6.747   2.062 -2.9842 -1.5903 -0.4573
  940MOL0     H26858   7.065   6.853   2.019 -1.5306  0.5052 -2.0557
  940MOL0     H26859   7.115   6.746   1.901  0.0604  0.0462 -0.3521
  940MOL0     H26860   7.296   6.859   2.023 -1.2000  0.1813 -0.6222
  940MOL0     H26861   7.522   6.878   2.120  0.0075  0.1234  2.2059
  940MOL0     H26862   7.893   6.643   2.382 -1.6804  0.1737  0.6748
  940MOL0     H26863   8.115   6.683   2.441  0.3773  0.5529  0.4084
  940MOL0     H26864   8.281   6.799   2.534 -1.1639  1.2768  0.6745
  940MOL0     H26865   8.346   6.744   2.370 -0.8922 -0.3251  1.2023
  940MOL0     H26866   8.449   6.965   2.549  3.8322 -0.3403  1.2417
  940MOL0     H26867   8.520   6.804   2.529 -0.1574 -1.7235 -1.3815
  940MOL0     H26868   8.554   6.873   2.276 -0.2580 -2.8492  2.2745
  940MOL0     H26869   8.489   7.027   2.333  0.3810 -0.5390  0.2530
  940MOL0     H26870   8.733   6.891   2.445 -0.3344 -0.2494  0.6384
  940MOL0     H26871   8.659   7.027   2.529  3.0119  2.8600 -0.8539
  940MOL0     H26872   8.830   7.108   2.395 -0.7966 -1.4370  0.3774
  940MOL0     H26873   8.671   7.185   2.355 -2.6992 -1.3660 -0.8292
  940MOL0     H26874   8.804   6.944   2.219  2.6203  0.3160  1.5200
  940MOL0     H26875   8.665   7.054   2.171  1.1958  2.4917 -2.2481
  940MOL0     H26876   8.966   7.105   2.162 -1.0403  0.8187  4.9046
  940MOL0     H26877   8.851   7.245   2.164  2.7785  1.2232 -0.4607
  940MOL0     H26878   8.733   7.099   1.965 -0.9377 -0.9279  1.4861
  940MOL0     H26879   8.890   7.175   1.917 -0.5137  3.5045  2.3053
  940MOL0     H26880   8.069   7.090   2.295  1.2279  0.5552  2.2778
  940MOL0     H26881   7.831   7.032   2.220 -0.7792 -1.9989 -1.1027
  940MOL0     H26882   7.460   6.541   2.370 -2.3657 -0.9364 -0.7494
  940MOL0     H26883   7.237   6.500   2.245 -0.2882 -0.4973  1.1331
  940MOL0     H26884   6.057   5.397   1.342  1.2941 -0.5889  0.6626
  940MOL0     H26885   5.879   5.261   1.440 -0.6688  0.5744  0.2582
  940MOL0     H26886   5.583   5.121   1.493  2.7270  1.1927  1.8198
  940MOL0     H26887   5.428   4.937   1.503 -1.3068  2.5578 -1.5003
  940MOL0     H26888   5.237   4.719   1.860 -0.2384 -0.6183  0.1814
  940MOL0     H26889   5.339   4.838   1.933 -1.2321 -0.8307  0.6839
  940MOL0     H26890   5.446   4.625   1.733  1.7262 -0.2070 -0.2664
  940MOL0     H26891   5.439   4.605   1.906 -0.3076  2.2558  0.8480
  940MOL0     H26892   5.578   4.833   1.906  0.1145 -1.0866  0.4551
  940MOL0     H26893   5.596   4.808   1.731 -0.9567 -3.7471 -2.3470
  940MOL0     H26894   5.808   4.732   1.847 -0.9202  1.4292  0.6201
  940MOL0     H26895   5.713   4.627   1.945 -0.3679 -0.3798  0.7175
  940MOL0     H26896   5.790   4.363   1.655 -4.0209 -0.1464 -0.8999
  940MOL0     H26897   5.286   5.062   1.881  0.5543  2.4602  0.9546
  940MOL0     H26898   5.453   5.186   2.016 -1.4897  0.0493 -0.0813
  940MOL0     H26899   5.520   5.320   1.935 -0.9179  1.1163 -1.4237
  940MOL0     H26900   5.344   5.305   1.942  0.0046 -1.9444  0.3056
  941MOL0     O26901   4.194   9.597   1.786 -0.4469 -0.4811  0.3822
  941MOL0     C26902   4.126   9.657   1.711  0.5373 -0.0092  0.1995
  941MOL0     O26903   4.159   9.756   1.618  0.0605  0.3793 -0.3178
  941MOL0     C26904   4.280   9.786   1.593 -0.9075 -0.2376  0.5863
  941MOL0     C26905   4.287   9.918   1.547 -1.1789 -0.2537 -0.3452
  941MOL0     C26906   4.411   9.970   1.513 -0.3192 -0.8925  0.2059
  941MOL0     C26907   4.531   9.894   1.526  0.1077 -0.0313 -0.4631
  941MOL0     O26908   4.658   9.943   1.503 -0.3091 -0.4451  0.2490
  941MOL0     C26909   4.682  10.081   1.536 -0.3631 -0.7111  0.8592
  941MOL0     C26910   4.831  10.112   1.521 -0.0499 -0.2889 -0.5567
  941MOL0     C26911   4.875  10.243   1.594  0.3256 -0.2346  0.0392
  941MOL0     C26912   4.817  10.368   1.536 -1.0203 -0.0878  0.8114
  941MOL0     C26913   4.907  10.499   1.525 -0.7782  0.9756  0.0288
  941MOL0     C26914   5.004  10.521   1.640  0.4016 -1.0013 -0.4735
  941MOL0     C26915   4.937  10.555   1.775 -0.7809  0.1642 -0.5205
  941MOL0     C26916   5.050  10.573   1.886  0.2668  0.1265  0.7441
  941MOL0     N26917   4.987  10.588   2.013  0.1549 -0.8129 -0.9346
  941MOL0     C26918   5.008  10.500   2.122  0.3334 -0.5945  0.7384
  941MOL0     C26919   4.967  10.576   2.229 -0.1873  0.2886 -0.3529
  941MOL0     C26920   4.958  10.548   2.379 -0.0253  0.0395  0.2834
  941MOL0     C26921   4.824  10.491   2.410  0.1521 -0.1520 -0.6303
  941MOL0     C26922   4.766  10.393   2.314  0.0333 -0.4048  0.3483
  941MOL0     C26923   4.835  10.257   2.320 -0.3285  0.4341 -0.1449
  941MOL0     O26924   4.845  10.189   2.448  0.0385 -0.1750 -0.1960
  941MOL0     C26925   4.866  10.053   2.436  0.2404  0.0661  0.7333
  941MOL0     C26926   4.995  10.022   2.410 -0.1828  0.5041 -0.0044
  941MOL0     C26927   5.032   9.889   2.395 -0.1456 -0.2082  0.3557
  941MOL0     C26928   4.938   9.784   2.406 -0.0746  0.8730 -1.3295
  941MOL0     C26929   4.973   9.639   2.392 -0.0841  0.0801 -0.3670
  941MOL0     O26930   5.089   9.619   2.323 -0.9046  0.4574  0.5131
  941MOL0     C26931   5.123   9.494   2.287 -1.2583  0.5052  0.1447
  941MOL0     C26932   5.230   9.438   2.365  0.0041  0.3158 -1.3361
  941MOL0     C26933   5.284   9.310   2.336  0.5352  0.0998  0.0728
  941MOL0     C26934   5.222   9.233   2.236  0.8528 -0.5149  0.4913
  941MOL0     O26935   5.287   9.121   2.203  0.1128  0.1604  0.0015
  941MOL0     C26936   5.209   9.004   2.190  0.6539  0.4155 -0.1709
  941MOL0     C26937   5.135   8.963   2.324  0.3650  0.4585  0.4486
  941MOL0     C26938   5.237   8.907   2.424  0.4956 -0.1167  0.2269
  941MOL0     C26939   5.195   8.906   2.573 -0.5375 -0.0903  0.0482
  941MOL0     C26940   5.306   8.894   2.676  0.1931 -0.2495  0.1471
  941MOL0     C26941   5.245   8.915   2.807  0.0051  0.3091  0.2083
  941MOL0     C26942   5.345   8.904   2.917  0.1533  0.1552 -0.6694
  941MOL0     C26943   5.282   8.886   3.055  0.1127  0.0532  0.4781
  941MOL0    Cl26944   5.407   8.878   3.178 -0.2059  0.0729 -0.1600
  941MOL0     C26945   5.123   9.289   2.151  0.1168  0.2284 -0.7675
  941MOL0     C26946   5.078   9.422   2.181 -0.8476 -0.3673 -0.0154
  941MOL0     O26947   4.901   9.548   2.431 -0.7224 -0.3110  0.0575
  941MOL0     C26948   4.800   9.825   2.444 -0.4387 -1.5559 -0.3168
  941MOL0     C26949   4.774   9.960   2.465  0.1072 -1.0375  0.2213
  941MOL0     N26950   4.924  10.698   2.175 -0.3185 -0.1697 -0.7641
  941MOL0     N26951   4.926  10.702   2.048 -0.9356  0.0310 -0.1925
  941MOL0     C26952   4.515   9.759   1.559  0.2416  0.3050 -0.4612
  941MOL0     C26953   4.392   9.697   1.597  0.6728 -0.3322  0.8349
  941MOL0     C26954   3.975   9.619   1.713 -0.7337  0.3015 -0.7292
  941MOL0     C26955   3.929   9.538   1.819  0.1819 -0.4064 -0.5029
  941MOL0     C26956   3.789   9.517   1.836  0.0924  0.3481 -0.0132
  941MOL0     C26957   3.699   9.576   1.751  0.0577 -0.0267 -0.7040
  941MOL0     O26958   3.562   9.582   1.763 -0.5042  0.1538  0.0705
  941MOL0     C26959   3.507   9.501   1.864  0.2707  0.3791 -1.3307
  941MOL0     C26960   3.495   9.582   1.996  0.4729 -0.6587 -1.5452
  941MOL0     C26961   3.420   9.487   2.107 -0.8222  0.3823 -0.4504
  941MOL0     C26962   3.353   9.561   2.220  0.1234 -0.3013  0.1010
  941MOL0     C26963   3.252   9.476   2.287  0.3127 -0.4418  0.1980
  941MOL0     C26964   3.163   9.406   2.333 -0.1007  0.3946  0.0376
  941MOL0     C26965   3.747   9.648   1.649  0.8042  0.2374 -0.1599
  941MOL0     C26966   3.877   9.670   1.619 -0.2345 -0.0050 -0.4606
  941MOL0     C26967   3.905   9.736   1.483  0.0011 -0.7496  0.7947
  941MOL0     H26968   4.201   9.981   1.527 -0.7560  0.1151 -1.0633
  941MOL0     H26969   4.424  10.073   1.481  2.8023 -1.2592  0.0008
  941MOL0     H26970   4.637  10.147   1.462  3.8171  2.0965  0.4282
  941MOL0     H26971   4.641  10.111   1.633  1.8265  1.3929  1.2375
  941MOL0     H26972   4.858  10.129   1.416 -2.2335  1.2443 -0.9436
  941MOL0     H26973   4.888  10.030   1.564 -2.0198 -1.2913  0.2306
  941MOL0     H26974   4.984  10.246   1.587  0.2742  2.3292 -0.7535
  941MOL0     H26975   4.836  10.234   1.696  0.9986 -0.1791  0.3040
  941MOL0     H26976   4.792  10.334   1.435  2.6068  1.4191 -0.7530
  941MOL0     H26977   4.726  10.395   1.591 -0.8191 -0.5782  1.3834
  941MOL0     H26978   4.977  10.474   1.445 -2.2594 -0.9582 -0.7584
  941MOL0     H26979   4.846  10.589   1.513  1.6244  2.6122 -0.5725
  941MOL0     H26980   5.078  10.441   1.650  2.6422  1.2173  3.2254
  941MOL0     H26981   5.064  10.609   1.611  0.6720 -2.1578 -3.8218
  941MOL0     H26982   4.875  10.472   1.808  1.8901 -0.6266  3.1303
  941MOL0     H26983   4.883  10.649   1.760  0.0803  1.0084  1.2901
  941MOL0     H26984   5.113  10.483   1.888  0.1077 -0.1201 -1.6366
  941MOL0     H26985   5.120  10.655   1.871  1.3589 -0.6040  1.7217
  941MOL0     H26986   5.052  10.401   2.112  1.5870  0.1616 -2.4333
  941MOL0     H26987   5.037  10.476   2.403 -2.7802 -2.6011  2.2338
  941MOL0     H26988   4.976  10.640   2.436 -1.5183  0.9925 -0.7233
  941MOL0     H26989   4.844  10.444   2.507 -0.4640  1.3533  0.2553
  941MOL0     H26990   4.752  10.566   2.444  0.6675 -0.5208  1.4565
  941MOL0     H26991   4.753  10.440   2.216  0.9696 -0.7160  0.0686
  941MOL0     H26992   4.665  10.365   2.347  0.4836 -1.2667  1.0407
  941MOL0     H26993   4.933  10.265   2.272  0.0468  3.1427  0.8942
  941MOL0     H26994   4.777  10.189   2.258 -0.2104  0.8346 -0.6992
  941MOL0     H26995   5.059  10.105   2.384 -0.0655 -0.1045 -1.8035
  941MOL0     H26996   5.137   9.875   2.371 -1.0157 -3.0008 -2.4838
  941MOL0     H26997   5.278   9.496   2.443 -0.6533  1.1401 -1.5357
  941MOL0     H26998   5.363   9.258   2.391 -0.9010 -1.0659  1.1344
  941MOL0     H26999   5.137   9.025   2.111  1.6913  4.0886 -0.3019
  941MOL0     H27000   5.284   8.928   2.167  2.3171  0.3121  4.4262
  941MOL0     H27001   5.087   9.050   2.371 -0.8495  0.3879 -0.5983
  941MOL0     H27002   5.058   8.889   2.298 -0.5416  2.2563 -2.4428
  941MOL0     H27003   5.279   8.811   2.393 -0.1221 -0.1675 -0.4876
  941MOL0     H27004   5.317   8.981   2.431 -1.4308  2.0317  0.6426
  941MOL0     H27005   5.120   8.827   2.583  0.3600 -1.2893 -1.9622
  941MOL0     H27006   5.142   9.001   2.584  0.4982  0.4689  0.3475
  941MOL0     H27007   5.390   8.962   2.656 -0.9736  1.0562 -0.4908
  941MOL0     H27008   5.352   8.795   2.668  1.7975  0.5295 -0.6980
  941MOL0     H27009   5.191   9.011   2.804 -1.2194 -0.3073  1.5057
  941MOL0     H27010   5.165   8.842   2.821 -0.0369  0.6249  1.8504
  941MOL0     H27011   5.394   9.002   2.910 -0.7372  0.5863 -1.2087
  941MOL0     H27012   5.426   8.836   2.894  2.9067  1.3564  4.1446
  941MOL0     H27013   5.212   8.969   3.066 -1.0499 -0.5970 -1.4396
  941MOL0     H27014   5.227   8.792   3.061 -0.7108  0.3986 -1.0778
  941MOL0     H27015   5.076   9.230   2.072  0.5044 -1.3329  0.1314
  941MOL0     H27016   4.994   9.461   2.125 -0.7039  0.0882  0.0780
  941MOL0     H27017   4.721   9.752   2.459 -1.0223 -1.1803 -1.4250
  941MOL0     H27018   4.679   9.999   2.501 -0.3926  0.8261 -2.7428
  941MOL0     H27019   4.596   9.688   1.570 -2.7702 -3.0081  3.5858
  941MOL0     H27020   4.385   9.592   1.620 -1.8378  0.0964  2.3183
  941MOL0     H27021   3.995   9.498   1.896  2.3694 -0.6511 -2.3946
  941MOL0     H27022   3.749   9.457   1.917 -0.3812  0.6263 -0.0376
  941MOL0     H27023   3.551   9.403   1.888 -2.5910 -0.4897  1.0101
  941MOL0     H27024   3.403   9.480   1.839 -1.4627  2.7386  2.8118
  941MOL0     H27025   3.438   9.674   1.980  2.0361  1.0534  1.8046
  941MOL0     H27026   3.593   9.607   2.038  0.1899 -1.1886 -0.5398
  941MOL0     H27027   3.488   9.414   2.152 -3.5038 -2.9213 -1.3440
  941MOL0     H27028   3.342   9.428   2.060 -1.2764  0.6632 -0.0527
  941MOL0     H27029   3.420   9.606   2.293 -0.3043  1.2538 -0.4069
  941MOL0     H27030   3.302   9.647   2.176 -0.9771 -1.3141 -0.6811
  941MOL0     H27031   3.075   9.352   2.359 -0.3071 -0.2983 -1.9262
  941MOL0     H27032   3.681   9.688   1.573  2.4442 -0.6717 -2.1794
  941MOL0     H27033   3.898   9.844   1.495  4.8548 -0.1208  0.0626
  941MOL0     H27034   4.008   9.710   1.455  0.2477  0.3050  0.6845
  941MOL0     H27035   3.830   9.708   1.409 -1.0884  0.1644  1.5225
  942MOL0     O27036   5.212   7.781   8.171 -0.2564  0.5042  0.7074
  942MOL0     C27037   5.122   7.864   8.193 -0.5535 -1.4436  0.1684
  942MOL0     O27038   5.142   7.967   8.284 -0.2029  0.5395  0.4195
  942MOL0     C27039   5.247   7.952   8.362  0.1132 -0.4610 -0.4674
  942MOL0     C27040   5.355   8.028   8.326 -0.1454 -0.2611 -0.0240
  942MOL0     C27041   5.476   8.017   8.382  0.9655 -0.0520  0.3116
  942MOL0     C27042   5.497   7.923   8.494  0.3039 -0.4375 -0.6253
  942MOL0     O27043   5.615   7.909   8.567  0.4527  0.1625 -0.4210
  942MOL0     C27044   5.724   7.989   8.516 -0.5446  0.8439  0.2756
  942MOL0     C27045   5.851   7.970   8.602 -0.7312 -0.1744  0.2835
  942MOL0     C27046   5.950   7.864   8.559  0.5767  1.0926  0.4886
  942MOL0     C27047   6.097   7.891   8.608  0.4000  0.2152  0.1124
  942MOL0     C27048   6.178   7.776   8.556 -1.2133  1.1001 -0.2537
  942MOL0     C27049   6.320   7.792   8.601 -0.3858  0.4052 -0.2799
  942MOL0     C27050   6.402   7.671   8.542 -0.6567  0.6749 -0.2917
  942MOL0     C27051   6.366   7.534   8.606  1.4697 -0.1256  0.9638
  942MOL0     N27052   6.464   7.429   8.594 -0.5179 -0.8086  0.3657
  942MOL0     C27053   6.574   7.435   8.513  0.7273  0.4622  0.0324
  942MOL0     C27054   6.645   7.318   8.534  0.2479 -0.4388 -0.6422
  942MOL0     C27055   6.776   7.262   8.480 -0.4228  0.2160  0.4589
  942MOL0     C27056   6.900   7.321   8.544  0.5599  0.5231  0.1436
  942MOL0     C27057   6.907   7.278   8.692  0.9002 -0.5522  0.0907
  942MOL0     C27058   7.021   7.344   8.775 -0.6878  0.2557  0.2468
  942MOL0     O27059   7.149   7.298   8.728  0.2150 -0.1403 -0.2491
  942MOL0     C27060   7.265   7.328   8.793  0.1891 -0.3942 -0.0598
  942MOL0     C27061   7.387   7.288   8.739  0.7989 -0.6169 -0.1624
  942MOL0     C27062   7.508   7.325   8.801 -0.3287  0.8320  0.1097
  942MOL0     C27063   7.509   7.385   8.927  1.3625  0.4849 -0.1092
  942MOL0     C27064   7.637   7.448   8.983 -0.9371  0.3962  0.0971
  942MOL0     O27065   7.745   7.435   8.897 -0.6803  0.0211 -0.3414
  942MOL0     C27066   7.862   7.471   8.946 -0.2523 -0.4616 -0.9037
  942MOL0     C27067   7.939   7.384   9.026 -0.5860 -0.2567  0.2406
  942MOL0     C27068   8.066   7.416   9.062 -0.6909 -0.0158  0.0518
  942MOL0     C27069   8.122   7.538   9.020 -0.4284  0.7452 -0.9674
  942MOL0     O27070   8.248   7.579   9.043 -0.1160 -0.1502  0.1590
  942MOL0     C27071   8.334   7.486   9.106 -0.2325  0.8344 -1.1041
  942MOL0     C27072   8.476   7.529   9.125  0.6297 -0.0954 -0.1109
  942MOL0     C27073   8.559   7.435   9.216  0.3884 -0.2856  1.1653
  942MOL0     C27074   8.705   7.492   9.221  0.3757 -0.7935  0.5021
  942MOL0     C27075   8.801   7.371   9.222 -0.5939  0.6859  0.2883
  942MOL0     C27076   8.813   7.292   9.090  0.2426  0.4724 -0.8346
  942MOL0     C27077   8.898   7.352   8.983 -1.0905 -0.8509 -0.3080
  942MOL0     C27078   9.045   7.314   8.991  0.3372  0.4939  0.2879
  942MOL0    Cl27079   9.134   7.389   8.858 -0.0125  0.3046  0.3325
  942MOL0     C27080   8.045   7.630   8.944 -0.2909 -0.0121 -1.0531
  942MOL0     C27081   7.918   7.587   8.899 -0.0995 -0.9442  0.0696
  942MOL0     O27082   7.645   7.503   9.094 -0.1701 -0.8965 -0.1369
  942MOL0     C27083   7.389   7.415   8.990 -0.4659 -0.2207 -0.3599
  942MOL0     C27084   7.264   7.384   8.923 -0.6422  0.0238 -0.0586
  942MOL0     N27085   6.568   7.247   8.621 -0.8284  0.4974 -0.2916
  942MOL0     N27086   6.459   7.306   8.652 -0.3439 -0.7030 -0.1618
  942MOL0     C27087   5.385   7.849   8.535 -0.4147 -0.4366 -0.5639
  942MOL0     C27088   5.261   7.866   8.473  0.2716  0.4527 -0.2429
  942MOL0     C27089   4.992   7.852   8.129  0.0460  0.2603  0.1842
  942MOL0     C27090   4.891   7.937   8.174  0.3301  0.0680 -0.3079
  942MOL0     C27091   4.774   7.954   8.111 -0.0695 -0.5531  0.0360
  942MOL0     C27092   4.739   7.867   8.003 -0.2293 -0.9760 -0.3780
  942MOL0     O27093   4.615   7.885   7.952  1.0160 -0.1206  0.0238
  942MOL0     C27094   4.566   7.791   7.854 -0.0152 -0.6178 -0.2444
  942MOL0     C27095   4.421   7.830   7.826 -0.9061  0.2051 -0.1219
  942MOL0     C27096   4.401   7.979   7.786 -0.4788  1.0427 -0.6890
  942MOL0     C27097   4.257   8.030   7.777  0.7076 -0.1188  0.4883
  942MOL0     C27098   4.173   7.975   7.660 -0.3555  0.4501 -0.1160
  942MOL0     C27099   4.088   7.939   7.574  0.6487  0.2943 -0.0803
  942MOL0     C27100   4.835   7.778   7.960 -0.2695 -0.2979 -0.0374
  942MOL0     C27101   4.966   7.771   8.017 -0.3508 -0.0585 -0.6489
  942MOL0     C27102   5.065   7.668   7.965 -0.0899 -0.0177  0.8491
  942MOL0     H27103   5.329   8.109   8.258  2.2776 -0.5800 -1.4504
  942MOL0     H27104   5.549   8.087   8.344  2.2738 -1.6624 -0.2582
  942MOL0     H27105   5.736   7.966   8.410  1.1836 -0.0797  0.6425
  942MOL0     H27106   5.692   8.093   8.533 -1.6967  0.0770  3.6750
  942MOL0     H27107   5.824   7.962   8.707  1.9352 -2.3595  0.9156
  942MOL0     H27108   5.898   8.067   8.583 -4.4498  1.6780 -0.2937
  942MOL0     H27109   5.936   7.837   8.454 -0.2317 -0.1581  0.9037
  942MOL0     H27110   5.918   7.772   8.609 -0.1911  1.3792  0.5363
  942MOL0     H27111   6.136   7.978   8.554  1.6389 -0.1420  0.3813
  942MOL0     H27112   6.109   7.906   8.716 -1.3137  0.9521  0.2227
  942MOL0     H27113   6.130   7.691   8.606 -0.3461  0.5781 -0.2909
  942MOL0     H27114   6.173   7.756   8.448 -0.9581 -2.5221  0.2755
  942MOL0     H27115   6.370   7.882   8.563  1.0269  0.4403  1.5117
  942MOL0     H27116   6.335   7.793   8.710  3.7108  2.2539 -0.6740
  942MOL0     H27117   6.508   7.687   8.563 -1.2039  0.1811  3.4649
  942MOL0     H27118   6.373   7.666   8.436  2.0385 -0.9161 -1.0558
  942MOL0     H27119   6.350   7.557   8.712 -1.0300  0.5729  0.5081
  942MOL0     H27120   6.267   7.497   8.576  2.0093 -0.5334 -0.3834
  942MOL0     H27121   6.604   7.514   8.446  0.3577  0.9495  0.4326
  942MOL0     H27122   6.771   7.153   8.492  1.9933  0.0080  0.1926
  942MOL0     H27123   6.789   7.276   8.372 -2.4287 -0.6841  0.0509
  942MOL0     H27124   6.974   7.274   8.479 -1.2009  0.1791 -1.7491
  942MOL0     H27125   6.913   7.429   8.534 -0.5402  0.4925 -2.4124
  942MOL0     H27126   6.916   7.169   8.686 -0.7700 -0.6487 -1.2108
  942MOL0     H27127   6.823   7.308   8.756  0.6168 -2.0581  0.4780
  942MOL0     H27128   7.004   7.321   8.880 -0.7755 -1.9452 -0.2000
  942MOL0     H27129   7.023   7.453   8.764  1.8753  0.6186  3.1364
  942MOL0     H27130   7.397   7.255   8.636 -0.4840 -0.5835 -0.3182
  942MOL0     H27131   7.600   7.325   8.743 -0.8433  0.5007 -0.7361
  942MOL0     H27132   7.894   7.291   9.057 -1.6459  0.3851  0.6998
  942MOL0     H27133   8.107   7.342   9.130 -4.0620 -2.2888 -0.1472
  942MOL0     H27134   8.297   7.467   9.207 -0.3109 -0.1745 -1.3128
  942MOL0     H27135   8.318   7.386   9.065 -8.8266  1.0601 -0.1246
  942MOL0     H27136   8.501   7.530   9.018 -1.7729  1.3829 -0.7234
  942MOL0     H27137   8.477   7.631   9.166 -1.8564 -0.8070  1.9742
  942MOL0     H27138   8.516   7.437   9.316 -0.8009 -0.5687  0.6706
  942MOL0     H27139   8.547   7.331   9.185  1.7807  0.3658 -1.9170
  942MOL0     H27140   8.732   7.557   9.304 -0.7228  1.4309 -0.7791
  942MOL0     H27141   8.728   7.548   9.130  0.1425  1.7386  1.9205
  942MOL0     H27142   8.765   7.306   9.302  2.2043 -1.5959 -0.1422
  942MOL0     H27143   8.901   7.404   9.251  0.0392 -0.3008 -0.7379
  942MOL0     H27144   8.865   7.205   9.130  4.2139  1.6765 -2.8150
  942MOL0     H27145   8.712   7.282   9.051 -1.3752  2.6140  2.3970
  942MOL0     H27146   8.901   7.461   8.984  1.6193 -0.7545 -3.8233
  942MOL0     H27147   8.862   7.312   8.888  0.2010 -1.3306 -0.6119
  942MOL0     H27148   9.094   7.337   9.086 -1.3847  0.1161  1.3126
  942MOL0     H27149   9.027   7.206   8.988 -2.4706  0.8517  0.9969
  942MOL0     H27150   8.093   7.725   8.924  0.3552  1.4304  5.1014
  942MOL0     H27151   7.861   7.639   8.823 -2.8211 -0.0064  2.5579
  942MOL0     H27152   7.399   7.459   9.089  2.1783  0.1177 -0.7158
  942MOL0     H27153   7.172   7.420   8.967  0.0361  2.2666 -0.3642
  942MOL0     H27154   5.404   7.797   8.629 -1.0780 -0.8330 -0.6414
  942MOL0     H27155   5.182   7.800   8.506  1.1557  0.1776  1.3831
  942MOL0     H27156   4.909   7.992   8.266  0.3587  1.0941 -0.9146
  942MOL0     H27157   4.698   8.018   8.154  0.3443 -0.4034  0.5521
  942MOL0     H27158   4.579   7.687   7.886  2.1492 -0.4501 -0.4232
  942MOL0     H27159   4.634   7.805   7.770 -1.9703 -1.6708 -2.0798
  942MOL0     H27160   4.361   7.814   7.916  1.3544 -0.3167  1.3819
  942MOL0     H27161   4.389   7.759   7.749  0.2769 -2.2275  1.5104
  942MOL0     H27162   4.414   7.973   7.678 -1.9117 -1.0601 -0.8024
  942MOL0     H27163   4.469   8.040   7.846  2.8317 -2.8907  0.0512
  942MOL0     H27164   4.196   8.018   7.867 -3.9710 -0.6009 -2.4013
  942MOL0     H27165   4.256   8.135   7.745  3.1194 -0.0573  0.4629
  942MOL0     H27166   4.019   7.918   7.495  1.4579  0.0898 -0.7428
  942MOL0     H27167   4.817   7.722   7.868 -1.5100  1.1417 -0.7117
  942MOL0     H27168   5.007   7.608   7.893  2.1872 -2.1721  0.6824
  942MOL0     H27169   5.143   7.721   7.910 -3.5575  1.7203 -2.9570
  942MOL0     H27170   5.106   7.609   8.047 -0.9008  1.6842  2.5584
  943MOL0     O27171   4.935   2.088   6.682 -0.3596 -0.3099 -0.4719
  943MOL0     C27172   5.027   2.127   6.611 -0.1877 -0.5025 -1.0678
  943MOL0     O27173   5.057   2.086   6.492 -1.0429  0.1698  0.4064
  943MOL0     C27174   5.018   1.959   6.451  0.4781 -0.2515  0.1035
  943MOL0     C27175   5.111   1.855   6.422  0.6791 -0.3168  0.2040
  943MOL0     C27176   5.070   1.720   6.385  0.5578  1.1730 -0.4280
  943MOL0     C27177   4.929   1.694   6.376 -0.4910  0.2298 -0.5313
  943MOL0     O27178   4.896   1.563   6.381 -0.2733  0.9435  0.0522
  943MOL0     C27179   4.759   1.523   6.419  0.5322  0.8491 -0.3345
  943MOL0     C27180   4.744   1.368   6.415 -0.4762  0.3007 -0.1386
  943MOL0     C27181   4.733   1.299   6.557 -0.4693  0.1925  0.1741
  943MOL0     C27182   4.700   1.153   6.560  0.2668 -0.7356 -0.1586
  943MOL0     C27183   4.764   1.079   6.680 -0.8461 -0.8356  0.3809
  943MOL0     C27184   4.698   1.109   6.814 -1.2345 -0.0674  0.4712
  943MOL0     C27185   4.560   1.038   6.804  0.4032  0.1233  0.2064
  943MOL0     C27186   4.484   1.046   6.936 -0.6843  0.1004  0.0656
  943MOL0     N27187   4.535   0.938   7.019  0.6062 -0.4708 -0.3862
  943MOL0     C27188   4.511   0.805   7.016 -0.3293  0.7357  0.2532
  943MOL0     C27189   4.600   0.749   7.108  1.2669  0.2208  0.1181
  943MOL0     C27190   4.595   0.602   7.149 -0.2495  0.2509 -0.0797
  943MOL0     C27191   4.580   0.584   7.298 -0.3063 -0.3001 -0.7011
  943MOL0     C27192   4.494   0.457   7.317 -0.0643  0.6306  0.8700
  943MOL0     C27193   4.569   0.340   7.393 -0.4721 -0.7489 -0.6697
  943MOL0     O27194   4.697   0.317   7.343  0.6179 -0.5675 -0.6290
  943MOL0     C27195   4.707   0.256   7.219 -0.2106  0.3739  0.3022
  943MOL0     C27196   4.829   0.265   7.166 -0.3688 -0.6912  0.0213
  943MOL0     C27197   4.864   0.217   7.034 -0.1451 -0.0437  0.8483
  943MOL0     C27198   4.744   0.182   6.955  0.3544  0.3430  0.1240
  943MOL0     C27199   4.764   0.145   6.814 -0.5899  0.2595 -0.5621
  943MOL0     O27200   4.876   0.183   6.748 -1.1498  0.1103 -0.4606
  943MOL0     C27201   4.870   0.188   6.610  0.2813 -0.4351 -0.2530
  943MOL0     C27202   4.837   0.314   6.555 -0.6580 -1.5256  1.5471
  943MOL0     C27203   4.848   0.316   6.414  0.2800  0.7533 -0.5136
  943MOL0     C27204   4.896   0.210   6.337  0.0850 -0.4791 -0.3704
  943MOL0     O27205   4.913   0.226   6.206  0.4160  0.1783  0.5355
  943MOL0     C27206   4.948   0.111   6.120  0.2160  0.1389  0.2374
  943MOL0     C27207   4.943   0.161   5.974 -0.3657  0.4580  0.8319
  943MOL0     C27208   5.009   0.055   5.880 -0.2192  0.0766  0.4084
  943MOL0     C27209   5.023   0.113   5.741 -0.1536 -0.2021 -0.3989
  943MOL0     C27210   5.119   0.026   5.654  0.6506 -0.0032 -0.2179
  943MOL0     C27211   5.072  -0.116   5.628  0.0381 -0.0711 -0.2866
  943MOL0     C27212   5.144  -0.199   5.519 -0.2307 -0.3109  0.5664
  943MOL0     C27213   5.131  -0.138   5.378  0.7101  0.7575 -0.7514
  943MOL0    Cl27214   5.200  -0.234   5.251  0.0937  0.2031  0.0850
  943MOL0     C27215   4.945   0.091   6.406  1.3900 -0.5987  0.9816
  943MOL0     C27216   4.926   0.082   6.541 -0.5537  0.4515  1.1673
  943MOL0     O27217   4.675   0.085   6.758 -0.1143 -0.5081  0.2398
  943MOL0     C27218   4.615   0.178   7.011 -0.0498  0.1552 -0.3479
  943MOL0     C27219   4.596   0.216   7.143 -0.5934 -0.1850  0.9027
  943MOL0     N27220   4.666   0.854   7.166 -0.4585 -0.3860  0.0424
  943MOL0     N27221   4.634   0.965   7.107 -0.1249 -0.6728 -0.7366
  943MOL0     C27222   4.834   1.798   6.404 -0.0983  0.2164 -0.1654
  943MOL0     C27223   4.876   1.922   6.446 -0.4734  0.6643 -0.4367
  943MOL0     C27224   5.111   2.240   6.672  0.3278  0.0884 -0.2644
  943MOL0     C27225   5.045   2.351   6.736 -1.1986  0.9270  0.1687
  943MOL0     C27226   5.117   2.462   6.777 -0.6528  0.2274 -0.2596
  943MOL0     C27227   5.252   2.474   6.747  0.0654  0.4809  0.1806
  943MOL0     O27228   5.307   2.590   6.770  0.3360  0.1421 -0.2380
  943MOL0     C27229   5.379   2.574   6.887 -0.0796  0.5812  0.1559
  943MOL0     C27230   5.459   2.708   6.901  0.0297 -0.6403 -0.4330
  943MOL0     C27231   5.547   2.713   7.025 -0.3385 -0.3793  0.0002
  943MOL0     C27232   5.668   2.632   7.029 -0.1718  0.2357  0.5413
  943MOL0     C27233   5.776   2.671   6.933  0.6388  0.0054 -0.9398
  943MOL0     C27234   5.883   2.688   6.872  0.1127 -0.5352 -0.6112
  943MOL0     C27235   5.321   2.368   6.687  0.2378 -0.3656  0.0669
  943MOL0     C27236   5.250   2.248   6.652 -0.1789  0.4776  0.9670
  943MOL0     C27237   5.340   2.132   6.600  0.1451 -0.8912  0.0710
  943MOL0     H27238   5.216   1.883   6.432  0.1426  1.1146  2.3606
  943MOL0     H27239   5.140   1.638   6.375  0.0532  0.6613  0.1071
  943MOL0     H27240   4.725   1.556   6.517 -0.5374 -0.7619 -0.1222
  943MOL0     H27241   4.678   1.562   6.356 -0.4254 -2.5021 -1.3934
  943MOL0     H27242   4.826   1.314   6.367  0.0315  0.9909 -0.0606
  943MOL0     H27243   4.647   1.341   6.372 -0.2921 -2.7425  1.0894
  943MOL0     H27244   4.670   1.362   6.622  1.2403  0.1283  2.0047
  943MOL0     H27245   4.830   1.326   6.601 -0.4597  1.4579 -0.5741
  943MOL0     H27246   4.594   1.142   6.539 -0.3022  4.9240 -1.7581
  943MOL0     H27247   4.748   1.119   6.468 -2.4361  0.1922 -2.0229
  943MOL0     H27248   4.780   0.975   6.649  2.3294  0.1161 -1.7228
  943MOL0     H27249   4.866   1.116   6.673 -0.6025 -1.6438 -0.6789
  943MOL0     H27250   4.761   1.077   6.897 -0.1007  2.1220  0.5239
  943MOL0     H27251   4.674   1.215   6.814 -0.3733  0.1289  0.6548
  943MOL0     H27252   4.581   0.936   6.771 -1.0394  0.0043 -0.4411
  943MOL0     H27253   4.501   1.083   6.724  0.7955 -0.4703 -0.4196
  943MOL0     H27254   4.505   1.135   6.996 -1.6810  2.4280 -2.7864
  943MOL0     H27255   4.375   1.055   6.930 -0.8205 -0.5832  1.2178
  943MOL0     H27256   4.437   0.759   6.952  2.9827  0.0045 -3.5137
  943MOL0     H27257   4.515   0.551   7.094 -1.7155  0.9424  1.3443
  943MOL0     H27258   4.685   0.556   7.107 -1.2451 -3.3338  1.2890
  943MOL0     H27259   4.678   0.585   7.347 -1.0913  3.3646  1.1300
  943MOL0     H27260   4.527   0.672   7.337  2.0977 -0.0937  2.4755
  943MOL0     H27261   4.449   0.420   7.224  0.0818 -0.9685  1.4066
  943MOL0     H27262   4.407   0.485   7.378 -0.2758  0.6038  0.5865
  943MOL0     H27263   4.519   0.243   7.407 -4.6157  1.2119 -0.1729
  943MOL0     H27264   4.575   0.381   7.494 -0.2857 -4.3102  0.9034
  943MOL0     H27265   4.906   0.313   7.225  1.7605 -2.2070 -1.3738
  943MOL0     H27266   4.956   0.225   6.976 -1.7950 -2.6902 -2.5074
  943MOL0     H27267   4.799   0.390   6.623  0.0619  0.3796 -0.0967
  943MOL0     H27268   4.819   0.405   6.359 -0.3856  0.6713 -0.2999
  943MOL0     H27269   5.053   0.089   6.142  0.7439  3.6359  1.9769
  943MOL0     H27270   4.885   0.024   6.136 -0.0010  0.1182 -0.6428
  943MOL0     H27271   4.837   0.162   5.948 -0.1351 -1.1824 -0.3635
  943MOL0     H27272   4.979   0.261   5.951 -2.1055  1.0297  0.4261
  943MOL0     H27273   5.101   0.011   5.919  0.0539 -0.4267 -0.7458
  943MOL0     H27274   4.931  -0.021   5.866  1.2755 -1.4312 -0.1336
  943MOL0     H27275   5.058   0.216   5.738 -1.3814  0.2161 -2.2601
  943MOL0     H27276   4.923   0.121   5.695 -0.3186  2.8754  0.2783
  943MOL0     H27277   5.213   0.005   5.706  1.8185 -1.1966 -2.6457
  943MOL0     H27278   5.136   0.090   5.567 -2.3615  3.5957  1.5525
  943MOL0     H27279   5.081  -0.181   5.716 -3.2685 -1.2508 -0.6604
  943MOL0     H27280   4.966  -0.119   5.601 -0.2029 -0.7144  0.6793
  943MOL0     H27281   5.107  -0.302   5.521 -0.0942 -0.3551  0.7661
  943MOL0     H27282   5.248  -0.199   5.552 -0.1670  0.6230  0.3856
  943MOL0     H27283   5.027  -0.114   5.352  1.0631  1.6575 -1.4081
  943MOL0     H27284   5.192  -0.048   5.388 -0.4176  1.2480  3.7875
  943MOL0     H27285   4.988   0.007   6.352  1.1351  0.7999 -1.5666
  943MOL0     H27286   4.962  -0.007   6.593 -0.2481 -1.7083 -2.3722
  943MOL0     H27287   4.533   0.133   6.956 -0.0084 -2.5254  1.6097
  943MOL0     H27288   4.503   0.213   7.198 -0.2836  0.6155  1.4926
  943MOL0     H27289   4.728   1.778   6.399 -0.1522 -0.0866  1.5579
  943MOL0     H27290   4.808   2.004   6.469  1.8076  3.1854 -2.0954
  943MOL0     H27291   4.938   2.345   6.756 -0.7911 -1.4118  2.1845
  943MOL0     H27292   5.062   2.548   6.816 -1.8682  0.2028 -1.8460
  943MOL0     H27293   5.450   2.494   6.865 -0.2604  1.2764 -3.6113
  943MOL0     H27294   5.311   2.541   6.967 -1.1342  0.4318 -0.7845
  943MOL0     H27295   5.391   2.794   6.903  0.7080 -0.1100  0.0981
  943MOL0     H27296   5.511   2.725   6.807 -3.5045  0.0586 -2.4560
  943MOL0     H27297   5.474   2.686   7.102 -1.1927  1.0008 -0.2816
  943MOL0     H27298   5.584   2.815   7.042 -0.5791 -0.0067 -1.5388
  943MOL0     H27299   5.704   2.645   7.131 -3.0767  3.1389  1.3556
  943MOL0     H27300   5.637   2.527   7.019 -3.4848  1.0980  0.4718
  943MOL0     H27301   5.972   2.697   6.813  0.9651 -2.8625  0.1859
  943MOL0     H27302   5.425   2.361   6.657  0.7619 -2.5315  2.1148
  943MOL0     H27303   5.277   2.045   6.621 -0.2866 -0.1571  2.0957
  943MOL0     H27304   5.371   2.137   6.495  2.7900 -0.0791  0.7996
  943MOL0     H27305   5.435   2.133   6.654  1.8866  2.1101 -2.7393
  944MOL0     O27306  10.534   8.484  10.673  0.2535  0.2399 -0.0130
  944MOL0     C27307  10.463   8.429  10.586 -0.0610  0.1054  0.6963
  944MOL0     O27308  10.506   8.388  10.459  0.1035  0.6101  0.2852
  944MOL0     C27309  10.645   8.363  10.434  0.7909 -0.3050  0.1364
  944MOL0     C27310  10.719   8.290  10.523 -0.2200  0.2743 -0.1505
  944MOL0     C27311  10.852   8.263  10.494 -0.3823  0.3873  0.0241
  944MOL0     C27312  10.910   8.316  10.375 -0.5853 -0.0633  0.4367
  944MOL0     O27313  11.042   8.300  10.327 -0.0392  0.0207  0.0636
  944MOL0     C27314  11.128   8.265  10.437 -0.6278 -0.3153 -0.1886
  944MOL0     C27315  11.269   8.312  10.403 -1.0608 -0.2427  1.0766
  944MOL0     C27316  11.376   8.312  10.515  1.2260  0.4982 -0.7562
  944MOL0     C27317  11.479   8.414  10.478  0.4152  0.4741  0.1905
  944MOL0     C27318  11.603   8.402  10.569 -0.1465 -0.8739 -0.0960
  944MOL0     C27319  11.712   8.309  10.521 -0.8738 -0.0209  0.8443
  944MOL0     C27320  11.829   8.314  10.627 -0.7324  0.7696  0.6773
  944MOL0     C27321  11.941   8.416  10.593  0.7326  0.0538  0.3349
  944MOL0     N27322  12.037   8.430  10.701 -0.4816  0.7143  0.8264
  944MOL0     C27323  12.084   8.545  10.760 -1.0211 -0.0832 -0.9687
  944MOL0     C27324  12.207   8.513  10.807  0.7658  0.4018  1.1006
  944MOL0     C27325  12.308   8.585  10.905 -0.0536  0.0499  0.3806
  944MOL0     C27326  12.457   8.550  10.882  0.0168  0.1981  0.1948
  944MOL0     C27327  12.537   8.670  10.932 -0.2985 -0.1476  0.1019
  944MOL0     C27328  12.690   8.672  10.898  0.0756  0.2100  0.4336
  944MOL0     O27329  12.755   8.562  10.948  0.7043  0.6263 -0.1494
  944MOL0     C27330  12.893   8.558  10.953 -0.0195  0.1816 -0.2433
  944MOL0     C27331  12.981   8.596  10.850  0.3460 -0.8142  0.8074
  944MOL0     C27332  13.120   8.589  10.862  0.0788  0.9560 -0.0512
  944MOL0     C27333  13.174   8.511  10.971 -0.0536  0.1950 -0.7219
  944MOL0     C27334  13.320   8.490  10.992  0.8653 -1.1860  0.5416
  944MOL0     O27335  13.399   8.553  10.910 -0.1413  0.5357  0.2358
  944MOL0     C27336  13.533   8.537  10.911 -0.4894 -0.0394 -0.1534
  944MOL0     C27337  13.596   8.563  10.790 -0.7991 -0.1226 -0.1279
  944MOL0     C27338  13.735   8.576  10.788  0.5033  0.9077  0.3047
  944MOL0     C27339  13.813   8.535  10.902 -0.4903 -0.2983 -0.2952
  944MOL0     O27340  13.948   8.528  10.880  0.6008  0.0447 -0.0161
  944MOL0     C27341  14.039   8.504  10.989  0.7666 -0.0305  0.4628
  944MOL0     C27342  14.171   8.489  10.905  0.0521 -0.2866 -0.7923
  944MOL0     C27343  14.204   8.615  10.834 -0.9198  0.2298 -0.2969
  944MOL0     C27344  14.344   8.599  10.769  0.2643  1.0776 -0.6634
  944MOL0     C27345  14.364   8.696  10.650  0.8097 -0.2606 -0.1166
  944MOL0     C27346  14.514   8.692  10.623  0.0014  0.4998 -0.2059
  944MOL0     C27347  14.543   8.566  10.531 -0.0744 -0.0228 -0.3091
  944MOL0     C27348  14.674   8.559  10.460  0.4391  0.7880  0.2511
  944MOL0    Cl27349  14.683   8.686  10.331  0.2738 -0.0825 -0.8277
  944MOL0     C27350  13.745   8.499  11.020  0.5068  0.5753 -0.1919
  944MOL0     C27351  13.607   8.518  11.027  0.0378 -0.0597  0.0484
  944MOL0     O27352  13.346   8.400  11.076 -0.1435  1.2167 -0.8519
  944MOL0     C27353  13.080   8.464  11.071 -0.7746  0.9205  0.2238
  944MOL0     C27354  12.943   8.482  11.053 -0.2121 -0.3434  0.0403
  944MOL0     N27355  12.225   8.375  10.776 -0.3079 -0.2901 -0.3257
  944MOL0     N27356  12.129   8.328  10.707  0.6833  0.9180  0.5005
  944MOL0     C27357  10.835   8.397  10.295  0.5173  0.3115 -1.2602
  944MOL0     C27358  10.702   8.424  10.329  0.7548 -0.8380  0.1262
  944MOL0     C27359  10.319   8.418  10.621  0.3840 -0.6399 -0.3688
  944MOL0     C27360  10.231   8.369  10.517 -0.1394  0.1620 -0.3821
  944MOL0     C27361  10.094   8.339  10.537  0.0145  0.0105  0.9651
  944MOL0     C27362  10.038   8.368  10.661 -1.6035 -0.2082  0.1063
  944MOL0     O27363   9.910   8.342  10.706  0.1208 -0.1976 -0.2716
  944MOL0     C27364   9.814   8.266  10.632 -0.2537  0.3676 -0.0983
  944MOL0     C27365   9.858   8.113  10.620  0.1107  0.0405  0.9696
  944MOL0     C27366   9.840   8.054  10.758 -0.2487 -0.3799 -0.3369
  944MOL0     C27367   9.869   7.904  10.767  0.6363 -0.1010  0.3143
  944MOL0     C27368   9.827   7.866  10.903 -0.0414  0.2454  0.1703
  944MOL0     C27369   9.798   7.844  11.022 -0.2271 -0.5752  0.8619
  944MOL0     C27370  10.121   8.405  10.765  0.6477 -0.2459 -0.1178
  944MOL0     C27371  10.262   8.422  10.750 -1.2213  0.9060  0.1024
  944MOL0     C27372  10.344   8.460  10.874  0.2576 -0.8009 -0.0785
  944MOL0     H27373  10.684   8.242  10.614  1.8750 -0.2727  0.4346
  944MOL0     H27374  10.909   8.197  10.559 -0.7936 -2.2747 -2.1193
  944MOL0     H27375  11.093   8.296  10.536 -2.2647 -2.1960 -0.1132
  944MOL0     H27376  11.126   8.155  10.441  1.0713 -0.3748  4.0386
  944MOL0     H27377  11.247   8.415  10.373  0.2459  0.3606  2.0995
  944MOL0     H27378  11.303   8.247  10.321 -0.7879 -0.8178  1.6384
  944MOL0     H27379  11.419   8.214  10.539  2.2727  0.5386 -2.3514
  944MOL0     H27380  11.327   8.353  10.603  1.1161 -1.0178 -0.0777
  944MOL0     H27381  11.504   8.408  10.372  1.2685  0.0544  0.4106
  944MOL0     H27382  11.432   8.513  10.488 -1.1545 -0.1441 -0.7127
  944MOL0     H27383  11.642   8.502  10.588  4.3543 -2.5989  0.9543
  944MOL0     H27384  11.581   8.366  10.670  2.4562  1.8424  1.5952
  944MOL0     H27385  11.679   8.205  10.518 -1.6434  0.2083  1.1098
  944MOL0     H27386  11.746   8.325  10.418  1.2199 -3.0674  0.9481
  944MOL0     H27387  11.891   8.224  10.633  0.1193  1.2525 -0.4206
  944MOL0     H27388  11.788   8.347  10.723  0.4110 -0.3365  1.5851
  944MOL0     H27389  11.992   8.401  10.498  0.9227  3.7364 -0.2547
  944MOL0     H27390  11.887   8.510  10.579  2.7869  1.4877  1.5772
  944MOL0     H27391  12.041   8.644  10.770  2.1662  1.4683 -1.3382
  944MOL0     H27392  12.280   8.691  10.902 -3.0045 -0.6038 -3.3277
  944MOL0     H27393  12.289   8.549  11.006 -3.7371  0.7641  0.0508
  944MOL0     H27394  12.493   8.460  10.932 -1.7989 -0.8160 -0.2236
  944MOL0     H27395  12.475   8.548  10.774 -0.1498  0.5093  0.1588
  944MOL0     H27396  12.527   8.671  11.041 -1.7221  1.6310 -0.0035
  944MOL0     H27397  12.494   8.763  10.893  1.3705  0.2080 -0.9984
  944MOL0     H27398  12.714   8.767  10.946 -0.8672 -0.0286  1.4207
  944MOL0     H27399  12.715   8.678  10.792 -0.2764 -0.5731  0.2991
  944MOL0     H27400  12.939   8.628  10.755 -1.1068  3.4439  2.6075
  944MOL0     H27401  13.188   8.606  10.779  1.3787 -0.8858  0.6010
  944MOL0     H27402  13.528   8.577  10.707 -3.8471  4.8293  2.7089
  944MOL0     H27403  13.790   8.591  10.695 -0.8645 -0.3530 -0.7758
  944MOL0     H27404  14.028   8.598  11.043 -0.2260  1.3011 -1.9045
  944MOL0     H27405  14.017   8.429  11.066 -1.6020  1.8474  1.7692
  944MOL0     H27406  14.251   8.470  10.978  0.1570  0.4497 -0.7051
  944MOL0     H27407  14.170   8.405  10.835  0.0467  0.8529 -2.2129
  944MOL0     H27408  14.136   8.624  10.748 -0.4998  1.1109 -0.5480
  944MOL0     H27409  14.202   8.701  10.902  1.8106 -0.0464  0.2450
  944MOL0     H27410  14.364   8.497  10.735 -0.8817  1.0192 -1.2133
  944MOL0     H27411  14.418   8.623  10.846  0.7643 -0.8118 -0.5217
  944MOL0     H27412  14.342   8.799  10.680  2.8625 -0.4841  2.5958
  944MOL0     H27413  14.299   8.660  10.570  1.6722 -0.4200 -0.7508
  944MOL0     H27414  14.547   8.789  10.584  0.2587  1.3998  2.0960
  944MOL0     H27415  14.573   8.670  10.713 -0.3207  2.1627  0.4455
  944MOL0     H27416  14.464   8.552  10.457  0.1994 -4.4802 -0.0027
  944MOL0     H27417  14.545   8.480  10.598  2.4628 -2.1412 -2.8489
  944MOL0     H27418  14.764   8.567  10.522  0.6926 -0.2344  0.0404
  944MOL0     H27419  14.679   8.457  10.420  0.4675  0.9555 -0.1869
  944MOL0     H27420  13.798   8.471  11.110 -0.7273  0.2991  0.4704
  944MOL0     H27421  13.555   8.504  11.121  1.3108 -1.8703  0.5332
  944MOL0     H27422  13.119   8.416  11.160 -0.0431  0.0211 -0.5580
  944MOL0     H27423  12.865   8.454  11.123 -1.0552  2.2919  0.2732
  944MOL0     H27424  10.875   8.437  10.202  1.0712 -0.2341 -1.2639
  944MOL0     H27425  10.643   8.489  10.265 -0.1382  1.1154  2.7667
  944MOL0     H27426  10.266   8.350  10.416 -0.8083 -1.0666 -0.4032
  944MOL0     H27427  10.045   8.292  10.452  0.2800  0.2492  0.6760
  944MOL0     H27428   9.814   8.302  10.529  0.4862  1.1311  0.1572
  944MOL0     H27429   9.719   8.284  10.682  0.1682 -0.7436  1.1512
  944MOL0     H27430   9.951   8.096  10.565  0.8427 -0.3629  2.2936
  944MOL0     H27431   9.781   8.070  10.556  1.2151  0.8287 -0.9909
  944MOL0     H27432   9.734   8.070  10.783 -0.1920  1.2921 -1.0625
  944MOL0     H27433   9.897   8.108  10.834  1.6846 -1.1892 -1.1673
  944MOL0     H27434   9.826   7.844  10.686  0.6510 -1.0936  1.0303
  944MOL0     H27435   9.976   7.883  10.760  0.7357  0.7984 -1.4342
  944MOL0     H27436   9.744   7.817  11.110  0.4750  0.3334  1.5900
  944MOL0     H27437  10.073   8.432  10.858 -2.5999 -1.4422 -1.2997
  944MOL0     H27438  10.269   8.470  10.953 -2.0377  0.3778 -2.2836
  944MOL0     H27439  10.436   8.406  10.899  1.0276 -1.0050 -3.0011
  944MOL0     H27440  10.372   8.563  10.854 -0.8444 -0.2715  1.0085
  945MOL0     O27441   4.817   6.701   1.290  0.3742  0.0287  0.2887
  945MOL0     C27442   4.842   6.778   1.195 -0.5230  0.1596 -0.4050
  945MOL0     O27443   4.748   6.821   1.106  0.3279 -0.0418 -0.0778
  945MOL0     C27444   4.637   6.743   1.084  0.4060 -0.4040 -0.4291
  945MOL0     C27445   4.619   6.649   0.979  0.4063 -0.8983  0.0115
  945MOL0     C27446   4.495   6.586   0.958 -0.5999  0.3019 -0.0931
  945MOL0     C27447   4.386   6.629   1.037 -0.4109 -0.2573  0.8786
  945MOL0     O27448   4.259   6.572   1.016  0.6041 -0.3984 -0.3503
  945MOL0     C27449   4.233   6.451   1.089 -0.3310  0.3228 -0.3195
  945MOL0     C27450   4.254   6.320   1.012  0.2358 -0.1924 -0.0586
  945MOL0     C27451   4.143   6.233   1.047 -0.1927  0.5353  0.1029
  945MOL0     C27452   4.153   6.108   0.959  0.4599 -0.0559  0.5271
  945MOL0     C27453   4.033   6.004   0.978  0.4914 -0.1606 -0.8199
  945MOL0     C27454   4.037   5.899   0.860  0.3271 -0.4176 -0.3523
  945MOL0     C27455   3.931   5.952   0.756  0.3103 -0.1470  0.2400
  945MOL0     C27456   3.794   5.897   0.782 -0.4775 -0.2769 -0.9877
  945MOL0     N27457   3.700   5.933   0.665 -0.0318  0.6199  0.0733
  945MOL0     C27458   3.672   5.854   0.553 -0.2600  0.1059  0.2227
  945MOL0     C27459   3.590   5.935   0.477 -0.4639 -0.8313  0.8528
  945MOL0     C27460   3.514   5.887   0.360  0.1229  0.2841 -0.6902
  945MOL0     C27461   3.552   5.939   0.221 -0.3360 -0.2250 -0.6494
  945MOL0     C27462   3.544   6.091   0.205  1.1088 -0.7647 -0.4581
  945MOL0     C27463   3.397   6.144   0.218 -0.3161  0.0099 -0.3122
  945MOL0     O27464   3.326   6.135   0.094 -0.1879  0.4710  0.1022
  945MOL0     C27465   3.191   6.133   0.105  0.7493  1.0071  0.4788
  945MOL0     C27466   3.116   6.236   0.169  0.1243 -0.6715 -0.3727
  945MOL0     C27467   2.974   6.230   0.176 -0.0785  0.3386 -0.6315
  945MOL0     C27468   2.909   6.128   0.106 -0.5505  0.6174 -0.0148
  945MOL0     C27469   2.767   6.112   0.107  0.1741  1.2446 -0.7880
  945MOL0     O27470   2.699   6.202   0.184 -0.7501 -0.1816  0.0859
  945MOL0     C27471   2.563   6.187   0.215 -0.2712  0.0613  1.0647
  945MOL0     C27472   2.465   6.111   0.151  0.5942  0.1895  0.7015
  945MOL0     C27473   2.331   6.105   0.197 -0.3689 -0.1261  0.3434
  945MOL0     C27474   2.294   6.172   0.309  0.9789 -0.1928  0.1361
  945MOL0     O27475   2.160   6.182   0.364  0.1791  0.9504  0.0782
  945MOL0     C27476   2.070   6.068   0.354 -0.6737 -1.1644 -0.1669
  945MOL0     C27477   1.957   6.092   0.458 -0.3034  0.5063  0.4561
  945MOL0     C27478   1.865   5.973   0.461  0.1049 -0.3160 -0.8376
  945MOL0     C27479   1.748   5.991   0.556  0.3182 -0.0992 -0.5772
  945MOL0     C27480   1.798   5.969   0.700  0.0553  0.1769  0.3352
  945MOL0     C27481   1.686   5.946   0.804 -0.6606 -0.1410  0.5868
  945MOL0     C27482   1.609   5.806   0.783 -1.5127  0.2618 -0.1449
  945MOL0     C27483   1.702   5.683   0.797 -0.2353 -0.3382  0.2005
  945MOL0    Cl27484   1.721   5.603   0.639  0.0774  0.3352 -0.0896
  945MOL0     C27485   2.388   6.259   0.370 -0.5029 -0.4251 -0.3252
  945MOL0     C27486   2.522   6.273   0.316  0.2176  0.9115  0.0059
  945MOL0     O27487   2.725   6.008   0.060  0.0915 -0.4921  0.0052
  945MOL0     C27488   2.986   6.034   0.033  1.2442 -0.3123  0.1307
  945MOL0     C27489   3.119   6.035   0.037 -0.3493 -0.6734 -0.3847
  945MOL0     N27490   3.568   6.050   0.551 -0.1767 -0.7679  0.0704
  945MOL0     N27491   3.633   6.050   0.666  0.1223 -0.1650 -0.3662
  945MOL0     C27492   4.411   6.700   1.157  0.5229 -0.6555  0.6247
  945MOL0     C27493   4.534   6.764   1.176 -0.4779  0.3236 -0.8097
  945MOL0     C27494   4.972   6.836   1.176 -1.0039 -0.3515  0.8793
  945MOL0     C27495   4.975   6.958   1.108  0.1131 -0.1817  0.2086
  945MOL0     C27496   5.082   7.041   1.116 -0.5573 -1.1948 -0.0250
  945MOL0     C27497   5.203   7.006   1.182  0.0111 -0.7018 -0.0016
  945MOL0     O27498   5.315   7.081   1.178  0.0104  0.1059 -0.3778
  945MOL0     C27499   5.287   7.208   1.245  0.1183 -0.8661 -0.1546
  945MOL0     C27500   5.291   7.331   1.159 -0.1622 -0.3220  0.1274
  945MOL0     C27501   5.425   7.348   1.102 -0.5232  0.4019 -0.8373
  945MOL0     C27502   5.491   7.481   1.131  0.0778  0.8078  0.5001
  945MOL0     C27503   5.554   7.482   1.259  0.1923 -0.2965  0.0963
  945MOL0     C27504   5.595   7.483   1.367 -0.6293  1.1968 -0.3124
  945MOL0     C27505   5.209   6.882   1.248  0.6334  0.3427 -0.6048
  945MOL0     C27506   5.093   6.797   1.245  0.2326 -0.7927 -0.3157
  945MOL0     C27507   5.105   6.670   1.322  0.5058  0.7355 -0.0365
  945MOL0     H27508   4.718   6.627   0.940  1.4800  3.8979 -0.6246
  945MOL0     H27509   4.478   6.523   0.871  0.3545  0.3085 -0.3025
  945MOL0     H27510   4.314   6.437   1.161  2.3234  0.5321 -3.1014
  945MOL0     H27511   4.135   6.455   1.139  0.6206  1.7440  1.5798
  945MOL0     H27512   4.354   6.276   1.016 -0.6251 -2.3286 -0.6153
  945MOL0     H27513   4.245   6.354   0.908 -1.9082 -0.9066 -0.1537
  945MOL0     H27514   4.045   6.275   1.023 -0.9482 -1.1877 -0.0017
  945MOL0     H27515   4.147   6.215   1.154  0.6943  0.0298 -0.0034
  945MOL0     H27516   4.160   6.135   0.853 -1.3365 -1.4850 -0.0125
  945MOL0     H27517   4.249   6.063   0.985 -1.3000 -4.5536  0.1549
  945MOL0     H27518   4.050   5.955   1.074 -1.9263  1.2304  0.4063
  945MOL0     H27519   3.939   6.059   0.973  0.5968 -0.0308 -1.3978
  945MOL0     H27520   4.140   5.902   0.822 -0.3094 -1.2711 -2.2413
  945MOL0     H27521   4.003   5.802   0.897  0.6210 -0.5249 -0.3646
  945MOL0     H27522   3.953   5.928   0.652 -0.0396  3.8598 -0.8946
  945MOL0     H27523   3.918   6.060   0.756 -1.5571 -0.3457  0.5061
  945MOL0     H27524   3.799   5.789   0.796  0.8830  0.0415  1.8240
  945MOL0     H27525   3.754   5.938   0.875  1.4317 -1.6694  0.5397
  945MOL0     H27526   3.701   5.751   0.536 -1.3491  0.2899 -3.8536
  945MOL0     H27527   3.528   5.778   0.366  1.2327  0.4258 -0.4087
  945MOL0     H27528   3.409   5.901   0.385  0.3653 -0.5691  0.9750
  945MOL0     H27529   3.659   5.917   0.216 -0.5663 -1.9936  1.0655
  945MOL0     H27530   3.502   5.880   0.144  0.5608 -1.6108 -0.2106
  945MOL0     H27531   3.574   6.123   0.105 -0.9708  1.7774 -0.3724
  945MOL0     H27532   3.603   6.140   0.283 -2.0679 -3.1457  3.9179
  945MOL0     H27533   3.401   6.248   0.254 -0.0853 -0.4354  1.0103
  945MOL0     H27534   3.353   6.085   0.299 -2.0156  0.3649 -0.9275
  945MOL0     H27535   3.157   6.324   0.217 -2.2669  1.0473 -1.2926
  945MOL0     H27536   2.924   6.306   0.235  2.2494  1.3741  0.1109
  945MOL0     H27537   2.500   6.048   0.070  2.2642  1.6845  0.1973
  945MOL0     H27538   2.254   6.043   0.152  0.1613 -1.4917  1.2483
  945MOL0     H27539   2.043   6.056   0.249  1.2240  2.1179 -1.1727
  945MOL0     H27540   2.127   5.979   0.382 -3.4208 -2.9008  0.3166
  945MOL0     H27541   1.990   6.115   0.559  1.2733 -0.2628  0.1323
  945MOL0     H27542   1.890   6.173   0.424 -1.9732 -0.1073  2.0954
  945MOL0     H27543   1.841   5.954   0.356  5.2931 -1.9583 -1.9925
  945MOL0     H27544   1.923   5.886   0.493  0.9496  0.5236 -0.0411
  945MOL0     H27545   1.675   5.913   0.535  1.5980 -1.5292  0.0795
  945MOL0     H27546   1.697   6.088   0.555  0.5305  0.0149 -0.5117
  945MOL0     H27547   1.880   6.037   0.727  1.3118 -1.1435 -0.0369
  945MOL0     H27548   1.855   5.876   0.701  2.5281  1.5860  0.0124
  945MOL0     H27549   1.721   5.952   0.907  2.3224 -1.2539 -0.2455
  945MOL0     H27550   1.609   6.023   0.792 -0.1698  0.2858  0.1426
  945MOL0     H27551   1.564   5.793   0.684 -2.8068  1.0192  0.3061
  945MOL0     H27552   1.532   5.794   0.860  0.1341 -2.0394  1.2816
  945MOL0     H27553   1.801   5.709   0.834  0.2835 -2.2986  0.2745
  945MOL0     H27554   1.651   5.615   0.865 -0.1378 -3.4435 -2.5725
  945MOL0     H27555   2.367   6.312   0.462  3.3104  3.9323 -1.6112
  945MOL0     H27556   2.590   6.344   0.363  0.3041  1.8279 -1.4050
  945MOL0     H27557   2.954   5.944  -0.019  4.8349 -3.0628  2.1597
  945MOL0     H27558   3.173   5.952  -0.007  2.1755 -0.2773  1.7221
  945MOL0     H27559   4.326   6.718   1.224  0.6234  0.7336  0.4075
  945MOL0     H27560   4.536   6.835   1.257  2.7685 -0.6615  0.0996
  945MOL0     H27561   4.893   7.002   1.052  0.9040  3.7309  1.8277
  945MOL0     H27562   5.071   7.125   1.048  1.2107  1.5657  2.8125
  945MOL0     H27563   5.353   7.220   1.332 -0.4486 -1.3724  0.3498
  945MOL0     H27564   5.193   7.203   1.300  0.6656 -2.6482  0.6976
  945MOL0     H27565   5.252   7.418   1.213 -2.3843  0.2233 -2.1476
  945MOL0     H27566   5.226   7.310   1.073 -0.7334 -1.9939  0.9258
  945MOL0     H27567   5.430   7.340   0.993  1.3403 -1.4359 -0.6772
  945MOL0     H27568   5.489   7.268   1.140 -1.9204 -0.2813  0.1792
  945MOL0     H27569   5.561   7.495   1.049 -0.0163 -2.2956 -0.2343
  945MOL0     H27570   5.420   7.563   1.122  0.0775  0.7513 -0.0763
  945MOL0     H27571   5.638   7.491   1.465  1.3434 -0.4025 -0.9778
  945MOL0     H27572   5.296   6.842   1.300  0.5499  0.0771 -0.6696
  945MOL0     H27573   5.036   6.597   1.277  1.6409 -0.7448  0.5532
  945MOL0     H27574   5.200   6.621   1.344  0.9865  1.4234 -0.5725
  945MOL0     H27575   5.060   6.683   1.421 -0.2950  1.2140 -0.4496
  946MOL0     O27576   4.624   2.616   5.316  0.0241 -0.5112 -0.9183
  946MOL0     C27577   4.667   2.567   5.215 -0.1142 -0.8862  0.0229
  946MOL0     O27578   4.626   2.600   5.091  0.0654  0.2971 -0.2385
  946MOL0     C27579   4.576   2.717   5.059  0.3158 -0.2979  0.2277
  946MOL0     C27580   4.488   2.723   4.951  0.0764 -0.0842  0.1537
  946MOL0     C27581   4.426   2.841   4.916  0.2179 -0.0574 -0.6885
  946MOL0     C27582   4.467   2.970   4.981  0.0864  0.4256  0.3891
  946MOL0     O27583   4.425   3.094   4.936 -0.4088 -0.4426 -0.2808
  946MOL0     C27584   4.293   3.093   4.871 -0.4697 -0.3370 -0.2040
  946MOL0     C27585   4.178   3.045   4.951 -0.6140 -0.2201 -0.3915
  946MOL0     C27586   4.045   3.101   4.906  0.4879  0.1593  0.1373
  946MOL0     C27587   3.988   3.222   4.988 -0.1286  0.1933 -1.1330
  946MOL0     C27588   3.850   3.272   4.926 -0.4361 -0.0447 -0.7714
  946MOL0     C27589   3.831   3.302   4.776 -0.8499  0.2039  0.6170
  946MOL0     C27590   3.693   3.366   4.748 -0.2864 -0.6509  0.7633
  946MOL0     C27591   3.684   3.448   4.613 -0.1701  0.6900 -0.3787
  946MOL0     N27592   3.553   3.506   4.593  0.4442  0.5486  0.3259
  946MOL0     C27593   3.437   3.434   4.596 -0.5209  0.3072  0.5700
  946MOL0     C27594   3.346   3.523   4.560 -0.2323 -0.4478 -0.0588
  946MOL0     C27595   3.198   3.506   4.541 -0.1796 -0.0496 -0.6102
  946MOL0     C27596   3.154   3.478   4.396 -0.0760  0.2004 -0.0336
  946MOL0     C27597   3.198   3.591   4.298  0.2508 -0.1392  0.5598
  946MOL0     C27598   3.168   3.565   4.152  0.6743  0.1627 -0.9553
  946MOL0     O27599   3.237   3.459   4.080 -0.0571 -0.6562 -0.5500
  946MOL0     C27600   3.372   3.447   4.090 -1.1667 -0.2467 -0.4428
  946MOL0     C27601   3.452   3.513   3.998 -0.1044  0.4403  0.2028
  946MOL0     C27602   3.594   3.521   4.018  0.2233 -0.4005 -0.3369
  946MOL0     C27603   3.649   3.462   4.135 -0.7765 -0.6780  0.6385
  946MOL0     C27604   3.788   3.464   4.170 -0.2795  0.3708 -0.5459
  946MOL0     O27605   3.831   3.377   4.275  0.4877 -0.3219 -0.1004
  946MOL0     C27606   3.963   3.390   4.317  0.1095  0.4388 -0.3006
  946MOL0     C27607   3.999   3.467   4.430 -0.1261 -0.1753 -0.5305
  946MOL0     C27608   4.134   3.485   4.467  0.4441 -0.2693  0.3343
  946MOL0     C27609   4.230   3.421   4.399 -0.8082 -0.4154  0.1852
  946MOL0     O27610   4.370   3.421   4.436  0.2675 -0.9856  0.5442
  946MOL0     C27611   4.410   3.499   4.550  0.5797  0.2613 -0.1483
  946MOL0     C27612   4.376   3.417   4.680  0.5226 -0.4065 -0.3833
  946MOL0     C27613   4.453   3.464   4.800 -0.2371 -0.3253 -1.0504
  946MOL0     C27614   4.595   3.414   4.791  0.6118 -0.2784 -0.8010
  946MOL0     C27615   4.655   3.417   4.935 -0.0990 -0.6787 -0.2034
  946MOL0     C27616   4.794   3.364   4.950 -0.5416 -0.6984 -0.3280
  946MOL0     C27617   4.808   3.226   4.894  0.5125  0.8928  0.0036
  946MOL0     C27618   4.907   3.141   4.971  0.4915  0.3472  0.2759
  946MOL0    Cl27619   4.916   2.971   4.898 -0.0890 -0.1140 -0.0048
  946MOL0     C27620   4.196   3.335   4.289  0.3648 -0.6739  0.2114
  946MOL0     C27621   4.062   3.329   4.246  0.0729  0.3338 -0.0214
  946MOL0     O27622   3.854   3.542   4.108  0.2766 -0.4838  0.6614
  946MOL0     C27623   3.569   3.392   4.218 -0.2087  0.5219 -0.4573
  946MOL0     C27624   3.433   3.376   4.207  1.1464 -0.5871  0.4479
  946MOL0     N27625   3.401   3.646   4.541 -0.1477  1.0191 -0.6939
  946MOL0     N27626   3.524   3.636   4.570 -0.3973  0.1797 -0.3834
  946MOL0     C27627   4.557   2.963   5.081  0.7572  0.0401 -0.8306
  946MOL0     C27628   4.613   2.845   5.126 -0.1878  0.0840 -0.0585
  946MOL0     C27629   4.767   2.457   5.217  0.0683 -0.3425 -0.2223
  946MOL0     C27630   4.814   2.406   5.099  0.1245 -0.7241  0.2497
  946MOL0     C27631   4.928   2.326   5.080 -0.0844  0.0680 -0.3348
  946MOL0     C27632   4.992   2.284   5.199  0.9056  1.0078  0.6215
  946MOL0     O27633   5.106   2.204   5.188  0.2963  0.2464  1.6133
  946MOL0     C27634   5.179   2.178   5.308  0.6302 -0.2461  0.0558
  946MOL0     C27635   5.309   2.111   5.267 -0.5997  0.5520 -0.2230
  946MOL0     C27636   5.399   2.213   5.189  0.9390  0.3069 -0.1519
  946MOL0     C27637   5.431   2.175   5.045  0.4545  0.4867  0.4969
  946MOL0     C27638   5.493   2.044   5.013 -0.0226 -0.8298  0.4878
  946MOL0     C27639   5.544   1.935   4.993 -0.3646  0.9733 -0.2238
  946MOL0     C27640   4.935   2.319   5.322 -0.0102 -0.0043  0.6327
  946MOL0     C27641   4.835   2.417   5.335  0.0734 -0.0922  0.6012
  946MOL0     C27642   4.817   2.468   5.473  0.4622 -0.6537 -0.5424
  946MOL0     H27643   4.448   2.636   4.899 -0.5341 -0.0115  0.4926
  946MOL0     H27644   4.350   2.825   4.840  0.3156  1.5494 -1.1667
  946MOL0     H27645   4.257   3.196   4.859 -1.6043  0.0353  4.3913
  946MOL0     H27646   4.293   3.038   4.777 -0.5159  1.1195 -1.0917
  946MOL0     H27647   4.192   3.063   5.058  0.1994 -1.7039 -0.2137
  946MOL0     H27648   4.189   2.937   4.937  2.0526 -0.1106  0.2371
  946MOL0     H27649   3.984   3.011   4.917 -0.1969  0.4826 -0.8906
  946MOL0     H27650   4.041   3.128   4.800 -2.2925  1.0439  0.4136
  946MOL0     H27651   3.970   3.196   5.093  0.8479 -3.8609 -1.7999
  946MOL0     H27652   4.059   3.303   4.972  0.4363 -0.0264  0.1742
  946MOL0     H27653   3.782   3.193   4.959 -0.1324  0.5122  1.3507
  946MOL0     H27654   3.813   3.351   4.992 -0.9464 -2.7151  2.4230
  946MOL0     H27655   3.901   3.377   4.736 -0.1384 -0.4591  0.5955
  946MOL0     H27656   3.840   3.207   4.722  0.7773 -0.2170  1.5665
  946MOL0     H27657   3.687   3.439   4.829  2.2018  3.9585 -2.7757
  946MOL0     H27658   3.621   3.284   4.736 -3.1881  1.6932  1.1928
  946MOL0     H27659   3.763   3.523   4.617  0.6040 -0.1683  1.2560
  946MOL0     H27660   3.704   3.397   4.518  0.9042  1.2194 -0.4544
  946MOL0     H27661   3.442   3.326   4.601  3.9165  0.1294 -2.2071
  946MOL0     H27662   3.173   3.412   4.591  3.3844 -0.5939  0.4135
  946MOL0     H27663   3.144   3.585   4.593 -3.6155 -2.1287 -0.7240
  946MOL0     H27664   3.200   3.383   4.367  2.9088  2.0732 -1.8389
  946MOL0     H27665   3.045   3.470   4.392 -0.0306 -0.7149  0.2090
  946MOL0     H27666   3.305   3.612   4.303  0.2852 -0.4347  1.1034
  946MOL0     H27667   3.142   3.682   4.322  1.3107  0.4345  0.9035
  946MOL0     H27668   3.176   3.661   4.101 -0.3023  1.6068  1.4847
  946MOL0     H27669   3.062   3.536   4.155  0.8854 -0.6997  3.1742
  946MOL0     H27670   3.408   3.554   3.908 -2.5878 -0.1630  1.0529
  946MOL0     H27671   3.649   3.585   3.950  0.3351 -2.5123 -2.3627
  946MOL0     H27672   3.926   3.522   4.489  0.7362 -1.2231  1.6477
  946MOL0     H27673   4.155   3.544   4.556  1.4136  0.4664 -0.3654
  946MOL0     H27674   4.519   3.497   4.546  0.5535  0.9083 -1.8737
  946MOL0     H27675   4.365   3.599   4.555 -0.5642 -0.1879 -0.8963
  946MOL0     H27676   4.268   3.422   4.700  0.6103 -1.2637  0.3981
  946MOL0     H27677   4.407   3.313   4.668  0.1932 -0.5612  0.0447
  946MOL0     H27678   4.453   3.574   4.796 -1.0572 -0.3407 -3.3403
  946MOL0     H27679   4.415   3.426   4.895  0.3254  1.3891 -0.0862
  946MOL0     H27680   4.650   3.487   4.731  0.5833  0.5570  0.1664
  946MOL0     H27681   4.599   3.316   4.741  0.7356  0.0515 -1.4485
  946MOL0     H27682   4.594   3.369   5.013  2.3459 -2.5797  0.6530
  946MOL0     H27683   4.658   3.517   4.980  3.4470 -1.5147  1.7738
  946MOL0     H27684   4.861   3.439   4.906 -2.3960  0.3263 -1.5220
  946MOL0     H27685   4.824   3.353   5.055 -1.8168 -2.3421 -0.1131
  946MOL0     H27686   4.838   3.233   4.789 -0.9633  0.2105 -0.4941
  946MOL0     H27687   4.708   3.180   4.896  1.1386 -0.4933  1.0985
  946MOL0     H27688   5.003   3.192   4.961 -0.2235  1.3674 -2.2507
  946MOL0     H27689   4.885   3.131   5.078  1.6658 -0.0168  0.4968
  946MOL0     H27690   4.285   3.296   4.239  1.3936 -2.0364  2.8883
  946MOL0     H27691   4.031   3.275   4.158 -1.2886  2.0498 -0.6624
  946MOL0     H27692   3.612   3.344   4.306 -0.4504 -1.1887 -1.2245
  946MOL0     H27693   3.366   3.326   4.276 -0.5918  0.0174 -0.7294
  946MOL0     H27694   4.581   3.055   5.133 -0.9447 -1.3895  2.8433
  946MOL0     H27695   4.679   2.843   5.213  0.0500 -0.9981 -0.2569
  946MOL0     H27696   4.773   2.442   5.005 -0.2577 -0.0305  0.6732
  946MOL0     H27697   4.956   2.278   4.987 -3.2850  1.2388 -2.0652
  946MOL0     H27698   5.141   2.108   5.382 -1.2602 -2.0250 -2.4124
  946MOL0     H27699   5.199   2.271   5.362 -1.8935 -1.0359  2.6001
  946MOL0     H27700   5.290   2.024   5.204  0.2281  0.1356  0.0923
  946MOL0     H27701   5.355   2.087   5.363 -4.8314  0.2971  1.9629
  946MOL0     H27702   5.498   2.217   5.236  1.8251 -0.7871 -1.8518
  946MOL0     H27703   5.354   2.313   5.197  0.2218 -0.1383  1.9298
  946MOL0     H27704   5.341   2.178   4.983  2.7487  0.5986 -3.1491
  946MOL0     H27705   5.493   2.255   5.004  0.4620  0.7384  0.9889
  946MOL0     H27706   5.594   1.843   4.974 -1.3514  0.7688 -2.0402
  946MOL0     H27707   4.962   2.262   5.410 -0.9926  1.0624  1.6677
  946MOL0     H27708   4.712   2.443   5.494  1.1165 -1.0374  2.8231
  946MOL0     H27709   4.875   2.421   5.553 -2.8354 -2.2353  1.1293
  946MOL0     H27710   4.829   2.576   5.481 -0.5061 -0.5785  0.1382
  947MOL0     O27711   0.962   8.853   0.364 -1.1889  0.0162  0.7352
  947MOL0     C27712   0.905   8.739   0.366  0.2814 -0.0643  0.3720
  947MOL0     O27713   0.961   8.619   0.411  0.9519 -0.1053  0.5640
  947MOL0     C27714   1.093   8.613   0.467  0.6497  0.1941  0.5929
  947MOL0     C27715   1.206   8.691   0.427 -0.3351 -0.0952 -0.8026
  947MOL0     C27716   1.331   8.661   0.474 -0.8214  0.3261  0.7833
  947MOL0     C27717   1.350   8.560   0.563 -0.3682  0.8130  0.0006
  947MOL0     O27718   1.473   8.527   0.617  0.3209 -0.5670 -0.0592
  947MOL0     C27719   1.568   8.629   0.626  1.0090 -0.5901  0.4786
  947MOL0     C27720   1.686   8.573   0.706 -0.2875 -0.7950  0.7198
  947MOL0     C27721   1.806   8.673   0.714  0.6956  0.2583 -0.2435
  947MOL0     C27722   1.926   8.598   0.770  0.6128  0.2289  0.2313
  947MOL0     C27723   2.051   8.681   0.757  0.0538 -0.7926  0.1689
  947MOL0     C27724   2.181   8.609   0.804 -0.3097 -0.7856  0.2807
  947MOL0     C27725   2.303   8.708   0.812  0.1929 -0.1269 -0.7278
  947MOL0     C27726   2.310   8.798   0.929  0.5088 -0.5960  0.0246
  947MOL0     N27727   2.431   8.868   0.941 -0.5181 -0.1141  0.0915
  947MOL0     C27728   2.556   8.808   0.967  0.1549  0.1853 -0.0239
  947MOL0     C27729   2.637   8.911   0.975 -0.8720 -1.0044  0.1350
  947MOL0     C27730   2.788   8.901   1.008 -0.5236  0.5712  0.9317
  947MOL0     C27731   2.792   8.805   1.138 -0.1295 -1.1255  1.3915
  947MOL0     C27732   2.931   8.813   1.192  0.0781 -0.9354 -0.3584
  947MOL0     C27733   2.951   8.719   1.310 -0.0236 -0.1574  0.3981
  947MOL0     O27734   3.033   8.785   1.410  0.3854  0.2313  0.1847
  947MOL0     C27735   3.048   8.714   1.535 -0.1818  0.1606  0.6315
  947MOL0     C27736   3.143   8.762   1.633  0.6789 -0.4082  0.1778
  947MOL0     C27737   3.173   8.684   1.746  0.9324  0.0704  1.1984
  947MOL0     C27738   3.100   8.564   1.760 -0.4694  0.7795  0.3617
  947MOL0     C27739   3.114   8.488   1.886  0.7088  0.6325  0.6091
  947MOL0     O27740   3.246   8.488   1.938  0.6609  0.7810  0.3305
  947MOL0     C27741   3.251   8.483   2.076 -0.2133  0.0373 -0.0143
  947MOL0     C27742   3.195   8.580   2.161  0.2974  0.4970  0.1365
  947MOL0     C27743   3.217   8.576   2.301  0.5872 -0.2889 -0.1049
  947MOL0     C27744   3.289   8.474   2.359  0.3770  0.4526  0.8943
  947MOL0     O27745   3.300   8.463   2.495  1.0004 -0.4485  0.0060
  947MOL0     C27746   3.385   8.367   2.560 -0.4871 -0.0022  0.0067
  947MOL0     C27747   3.295   8.257   2.600  0.4616  0.5664 -0.8306
  947MOL0     C27748   3.338   8.205   2.730 -0.4596  0.1674  0.5170
  947MOL0     C27749   3.272   8.061   2.754  0.4685  0.4425  0.8508
  947MOL0     C27750   3.377   7.961   2.800 -0.5587  1.1836  0.3247
  947MOL0     C27751   3.430   7.989   2.942 -0.1692  0.0131  0.3580
  947MOL0     C27752   3.536   7.882   2.981  0.0208  0.0400  0.3659
  947MOL0     C27753   3.592   7.932   3.119  0.2570  0.4794  0.6268
  947MOL0    Cl27754   3.732   7.842   3.171  0.4081 -0.3270  0.3173
  947MOL0     C27755   3.347   8.378   2.265  0.0987  0.8709 -0.8660
  947MOL0     C27756   3.328   8.385   2.135 -0.3605  0.4703  0.4824
  947MOL0     O27757   3.015   8.428   1.933 -0.1221  0.7284 -0.3087
  947MOL0     C27758   3.009   8.512   1.665  0.7440 -0.6693  0.4686
  947MOL0     C27759   2.987   8.591   1.556 -0.3692 -0.3750  0.2010
  947MOL0     N27760   2.574   9.030   0.954 -0.6848  0.6027  0.1753
  947MOL0     N27761   2.450   9.002   0.928  0.1320 -0.1441  0.0996
  947MOL0     C27762   1.239   8.488   0.597  0.5384  0.0008 -0.5705
  947MOL0     C27763   1.111   8.510   0.555  0.5465 -0.3731  0.2118
  947MOL0     C27764   0.762   8.734   0.304  0.1461 -0.0111  0.6729
  947MOL0     C27765   0.664   8.657   0.372  0.4890 -0.7065 -0.3440
  947MOL0     C27766   0.536   8.638   0.332  0.2385  0.3722  0.3119
  947MOL0     C27767   0.500   8.684   0.212 -0.4694 -0.3185  0.0663
  947MOL0     O27768   0.378   8.638   0.173 -0.8382  0.4751 -0.3837
  947MOL0     C27769   0.362   8.600   0.039 -0.4942 -0.5781  0.0066
  947MOL0     C27770   0.253   8.510   0.002 -0.0935  0.6334  0.0764
  947MOL0     C27771   0.128   8.591   0.016 -1.3078  0.1276  0.6232
  947MOL0     C27772   0.009   8.494  -0.001 -0.6107 -0.5100  0.6873
  947MOL0     C27773  -0.123   8.558  -0.009  0.6883 -0.1162 -0.2361
  947MOL0     C27774  -0.224   8.628  -0.002 -1.3153 -0.7661  0.1220
  947MOL0     C27775   0.586   8.752   0.133  0.3819  0.5761  0.6716
  947MOL0     C27776   0.718   8.785   0.176  0.2809  0.4155 -0.2978
  947MOL0     C27777   0.816   8.846   0.078 -0.4463  0.5840 -0.7017
  947MOL0     H27778   1.201   8.771   0.355 -1.9079  1.7948  1.2672
  947MOL0     H27779   1.412   8.727   0.443 -0.0082  0.5315  3.1644
  947MOL0     H27780   1.605   8.655   0.527  1.5758  4.4826  1.7170
  947MOL0     H27781   1.532   8.720   0.676 -0.1409  1.2774 -3.3518
  947MOL0     H27782   1.723   8.487   0.649  2.2805  1.4879 -1.3665
  947MOL0     H27783   1.655   8.549   0.808 -2.2722  2.7978  1.1090
  947MOL0     H27784   1.780   8.752   0.785  0.7373  0.3752 -0.3586
  947MOL0     H27785   1.826   8.722   0.619 -0.7883 -0.2412 -0.8399
  947MOL0     H27786   1.903   8.563   0.872  2.9124 -0.0308  0.7196
  947MOL0     H27787   1.939   8.510   0.706  0.3966  1.1417 -1.1014
  947MOL0     H27788   2.064   8.717   0.654  1.2388 -1.2790  0.1355
  947MOL0     H27789   2.028   8.756   0.832 -0.2151 -2.8201  2.2241
  947MOL0     H27790   2.174   8.556   0.900 -0.7605 -3.4159 -1.1111
  947MOL0     H27791   2.209   8.523   0.743  0.3757 -0.2290 -0.2050
  947MOL0     H27792   2.313   8.755   0.714 -0.9273  0.4867 -0.5596
  947MOL0     H27793   2.394   8.649   0.825 -1.3067 -2.4526 -0.1040
  947MOL0     H27794   2.228   8.869   0.910  0.9895  0.3777  1.4285
  947MOL0     H27795   2.278   8.750   1.021 -0.3034 -0.6840 -0.2935
  947MOL0     H27796   2.585   8.704   0.976  1.7152  0.5971  0.1082
  947MOL0     H27797   2.837   8.862   0.919 -2.1541 -0.7136  0.5312
  947MOL0     H27798   2.834   8.995   1.038  1.3189  0.6177 -1.7251
  947MOL0     H27799   2.736   8.840   1.225  0.1012 -1.0374  1.5065
  947MOL0     H27800   2.775   8.702   1.105  0.6589 -0.2365 -2.2059
  947MOL0     H27801   2.973   8.913   1.199 -0.1576 -0.5111 -3.5729
  947MOL0     H27802   2.993   8.762   1.117  0.1511 -0.9886 -0.2635
  947MOL0     H27803   2.985   8.619   1.282 -4.8634 -1.6897 -1.0666
  947MOL0     H27804   2.853   8.707   1.356 -1.1391  3.9637 -0.5431
  947MOL0     H27805   3.188   8.859   1.617 -0.4561  0.2395  0.7845
  947MOL0     H27806   3.250   8.709   1.818  1.4460  2.2653 -0.0306
  947MOL0     H27807   3.146   8.670   2.124  2.1516  0.7676 -1.8530
  947MOL0     H27808   3.174   8.657   2.359 -2.5622 -0.7367 -1.5511
  947MOL0     H27809   3.462   8.330   2.491  0.5702 -2.0562  2.1367
  947MOL0     H27810   3.424   8.424   2.645  0.5318  2.8829 -2.2357
  947MOL0     H27811   3.191   8.289   2.596 -0.1522 -1.3442 -3.4526
  947MOL0     H27812   3.294   8.170   2.533  3.6525 -0.1871 -0.0662
  947MOL0     H27813   3.447   8.193   2.730 -0.3057  1.3944  1.0902
  947MOL0     H27814   3.307   8.276   2.807 -2.1991 -2.4409  2.3853
  947MOL0     H27815   3.239   8.019   2.659 -0.6078  0.4557  1.2116
  947MOL0     H27816   3.184   8.079   2.817  1.4259  1.2556  2.0217
  947MOL0     H27817   3.456   7.955   2.725  0.3928 -0.0965  1.3747
  947MOL0     H27818   3.319   7.868   2.792 -1.1654  1.4167  1.6610
  947MOL0     H27819   3.486   8.084   2.948  3.2159 -1.8794  1.4241
  947MOL0     H27820   3.343   7.999   3.007  0.3080 -1.6968  1.3120
  947MOL0     H27821   3.610   7.893   2.902 -1.3441  0.9317 -0.8402
  947MOL0     H27822   3.499   7.780   2.986 -0.1697  0.1663  3.0972
  947MOL0     H27823   3.607   8.040   3.113  1.2895  0.3235  0.0874
  947MOL0     H27824   3.522   7.925   3.203  0.9754  0.3064  1.2305
  947MOL0     H27825   3.405   8.294   2.300 -2.9115 -0.5104  1.2875
  947MOL0     H27826   3.356   8.304   2.069 -5.3459 -1.5395  0.3623
  947MOL0     H27827   2.953   8.419   1.671  0.5724 -1.2899 -5.3316
  947MOL0     H27828   2.911   8.547   1.492 -2.3301 -3.0399  3.9891
  947MOL0     H27829   1.254   8.407   0.668  1.4707 -0.9235 -1.7920
  947MOL0     H27830   1.020   8.469   0.596 -0.7529  2.4684  0.4286
  947MOL0     H27831   0.691   8.601   0.461 -0.2767 -0.5221  0.0133
  947MOL0     H27832   0.472   8.572   0.390  0.7602 -3.4214 -3.0232
  947MOL0     H27833   0.454   8.543   0.020 -1.0083 -1.2975 -0.3846
  947MOL0     H27834   0.362   8.688  -0.026  0.1205  0.1754  0.9996
  947MOL0     H27835   0.253   8.422   0.067  0.3592 -0.8723 -1.8531
  947MOL0     H27836   0.266   8.472  -0.100 -0.6964 -0.4809  0.3904
  947MOL0     H27837   0.129   8.670  -0.059  2.3052  2.3242  2.6724
  947MOL0     H27838   0.123   8.635   0.116 -3.0289 -1.0763  1.1101
  947MOL0     H27839   0.019   8.432  -0.090  0.1836 -2.5525  2.1439
  947MOL0     H27840   0.008   8.426   0.085  1.1399 -0.6122  0.6677
  947MOL0     H27841  -0.319   8.678  -0.004 -1.4028 -0.9294  0.1653
  947MOL0     H27842   0.553   8.765   0.030 -1.7096 -0.0417  1.2196
  947MOL0     H27843   0.788   8.857  -0.027  0.3316  1.0631 -0.8734
  947MOL0     H27844   0.836   8.948   0.112 -2.1672  0.5694  0.4905
  947MOL0     H27845   0.907   8.785   0.076 -1.3383 -0.8524  0.3346
  948MOL0     O27846   9.158   9.842  10.401  0.2991  0.3651  0.3861
  948MOL0     C27847   9.194   9.958  10.389 -0.0028 -0.4723 -0.0295
  948MOL0     O27848   9.321  10.004  10.414  0.5003  0.2516  0.1263
  948MOL0     C27849   9.402   9.925  10.488 -0.8746 -0.5468 -0.0745
  948MOL0     C27850   9.475   9.833  10.416 -0.3071  0.1055 -0.0657
  948MOL0     C27851   9.570   9.749  10.474  0.5604 -0.5221  0.5845
  948MOL0     C27852   9.595   9.748  10.608  1.4129 -0.2653  0.8289
  948MOL0     O27853   9.689   9.661  10.646 -0.3499  0.3991  0.0832
  948MOL0     C27854   9.692   9.594  10.778  1.0338 -0.1705 -0.1277
  948MOL0     C27855   9.733   9.444  10.759 -0.4672 -0.2147  0.1082
  948MOL0     C27856   9.882   9.428  10.722  0.0903  0.3041 -0.7504
  948MOL0     C27857   9.944   9.374  10.850  1.0993  0.1858  0.2347
  948MOL0     C27858  10.093   9.348  10.817  0.3809 -0.1885  0.1145
  948MOL0     C27859  10.138   9.236  10.719  0.6379  0.1135  0.1215
  948MOL0     C27860  10.288   9.229  10.704  0.1267 -0.4286  0.9328
  948MOL0     C27861  10.366   9.179  10.824 -0.3489  1.1839 -0.1660
  948MOL0     N27862  10.511   9.187  10.819 -0.6023 -0.1045  0.1813
  948MOL0     C27863  10.593   9.084  10.807 -0.2934  0.4744 -0.2006
  948MOL0     C27864  10.722   9.136  10.817  0.8167 -0.5487  0.2057
  948MOL0     C27865  10.850   9.050  10.839 -0.1538  0.2160 -0.2768
  948MOL0     C27866  10.985   9.124  10.789  0.1474 -0.3809 -0.3715
  948MOL0     C27867  11.095   9.012  10.777  1.0163  0.2915  0.1585
  948MOL0     C27868  11.229   9.069  10.770 -0.3416 -0.1910  0.0414
  948MOL0     O27869  11.316   8.967  10.831  0.1959  0.5030  1.0123
  948MOL0     C27870  11.439   8.952  10.782 -0.3933  1.0760  0.8749
  948MOL0     C27871  11.502   8.836  10.812  0.1609  0.5445  1.6798
  948MOL0     C27872  11.635   8.808  10.781 -0.3658 -0.2708  0.5267
  948MOL0     C27873  11.714   8.910  10.726 -0.2575  0.3960  1.3866
  948MOL0     C27874  11.852   8.882  10.692 -0.7690 -0.7259 -0.0880
  948MOL0     O27875  11.927   8.989  10.725  0.1582 -0.4023 -0.2202
  948MOL0     C27876  12.024   9.033  10.631 -0.3687 -0.2990  0.6954
  948MOL0     C27877  12.073   8.972  10.515 -0.0225 -0.0988 -1.0772
  948MOL0     C27878  12.176   9.025  10.435 -0.5655  1.4676  0.3462
  948MOL0     C27879  12.242   9.148  10.472 -0.3169 -0.0786  0.3750
  948MOL0     O27880  12.341   9.210  10.410  0.4371 -0.3937 -0.5416
  948MOL0     C27881  12.356   9.202  10.271  0.0141 -0.0588 -0.2164
  948MOL0     C27882  12.478   9.293  10.256  0.0429  0.2864  0.7042
  948MOL0     C27883  12.512   9.289  10.111 -0.4275 -1.4786  0.4803
  948MOL0     C27884  12.636   9.372  10.073  0.0725 -0.5532 -0.2902
  948MOL0     C27885  12.675   9.344   9.933  0.1590  0.3288  0.3530
  948MOL0     C27886  12.765   9.454   9.885  0.1304  0.2208 -0.1905
  948MOL0     C27887  12.808   9.415   9.745 -0.0363 -0.4421 -0.0698
  948MOL0     C27888  12.840   9.547   9.656 -0.3988  0.2602  0.7926
  948MOL0    Cl27889  12.877   9.501   9.478 -0.0633 -0.0303 -0.4491
  948MOL0     C27890  12.189   9.215  10.581 -0.7305  0.7976  0.1880
  948MOL0     C27891  12.088   9.154  10.661 -0.1320 -0.5010 -0.5079
  948MOL0     O27892  11.893   8.773  10.660  0.8332 -0.4465 -0.1480
  948MOL0     C27893  11.653   9.037  10.701 -0.0955  0.8315  0.8081
  948MOL0     C27894  11.520   9.055  10.730  0.4718 -0.1064  0.9145
  948MOL0     N27895  10.704   9.275  10.814 -0.3007 -0.1131  0.9490
  948MOL0     N27896  10.577   9.304  10.829 -0.6288  0.3293  1.4617
  948MOL0     C27897   9.516   9.842  10.682 -0.0639  0.0066  0.1896
  948MOL0     C27898   9.423   9.931  10.626  0.0505 -0.1902 -0.6068
  948MOL0     C27899   9.107  10.045  10.315 -0.0773  0.2446 -0.5542
  948MOL0     C27900   8.977  10.043  10.358  0.4040  0.4906  0.0015
  948MOL0     C27901   8.879  10.127  10.293  0.0260 -0.4766  0.2208
  948MOL0     C27902   8.911  10.221  10.195  0.9293 -0.8856  0.6714
  948MOL0     O27903   8.827  10.317  10.138  0.4069  0.5234  1.0521
  948MOL0     C27904   8.737  10.379  10.231  1.2547 -0.0940 -0.7275
  948MOL0     C27905   8.631  10.427  10.131  0.1357 -0.9919  0.0214
  948MOL0     C27906   8.541  10.315  10.090  0.7592 -0.1690  0.0738
  948MOL0     C27907   8.405  10.314  10.158 -1.1774 -0.1548  0.1065
  948MOL0     C27908   8.322  10.431  10.153  0.1900 -0.2848  0.0873
  948MOL0     C27909   8.247  10.532  10.169 -1.2651  1.3626  0.7997
  948MOL0     C27910   9.045  10.229  10.158  0.0016  0.0265  0.6009
  948MOL0     C27911   9.139  10.137  10.213  0.3397  0.1855 -0.8368
  948MOL0     C27912   9.277  10.133  10.156  0.4152 -0.4062  0.0052
  948MOL0     H27913   9.454   9.837  10.310 -4.3629  0.9955  0.6309
  948MOL0     H27914   9.634   9.680  10.419  1.3881 -0.1020  0.9993
  948MOL0     H27915   9.767   9.635  10.847  0.8715  0.0893 -0.1020
  948MOL0     H27916   9.596   9.611  10.827  0.5788 -2.0040 -0.3226
  948MOL0     H27917   9.666   9.401  10.684 -0.7684 -0.7646  0.6817
  948MOL0     H27918   9.710   9.392  10.853  2.3430  0.2908  1.1753
  948MOL0     H27919   9.925   9.524  10.692 -2.3888  0.9940 -2.3541
  948MOL0     H27920   9.884   9.357  10.639 -1.4521 -1.8922  0.9642
  948MOL0     H27921   9.940   9.438  10.939  2.1837 -0.0786  0.4924
  948MOL0     H27922   9.892   9.283  10.881 -0.9155 -1.0461 -5.5579
  948MOL0     H27923  10.128   9.446  10.782 -1.7328  0.4238 -0.4488
  948MOL0     H27924  10.137   9.332  10.916  1.8395  1.2910 -0.2479
  948MOL0     H27925  10.105   9.139  10.756 -0.9948  1.1625  1.6129
  948MOL0     H27926  10.089   9.243  10.621  0.4814  2.5195  0.3100
  948MOL0     H27927  10.316   9.330  10.676 -0.3899 -0.9963 -1.9256
  948MOL0     H27928  10.323   9.164  10.623  3.1499  0.4521  1.4207
  948MOL0     H27929  10.336   9.236  10.912  2.1164  0.9428  0.9231
  948MOL0     H27930  10.327   9.079  10.844 -0.0473  0.8646 -1.1268
  948MOL0     H27931  10.579   8.976  10.804  2.3517 -0.0056  1.2777
  948MOL0     H27932  10.870   9.025  10.943 -0.8014  2.5931  0.5034
  948MOL0     H27933  10.842   8.953  10.790 -0.8110 -0.1828  0.5801
  948MOL0     H27934  10.965   9.171  10.692 -2.7738  0.3872  0.4927
  948MOL0     H27935  11.002   9.205  10.860  0.0448  2.6213 -3.4940
  948MOL0     H27936  11.079   8.946  10.691 -0.1903 -0.2894  0.8097
  948MOL0     H27937  11.091   8.947  10.865  1.3624  0.9415  0.6624
  948MOL0     H27938  11.229   9.167  10.818  3.1324  0.2541 -0.5500
  948MOL0     H27939  11.267   9.087  10.669 -1.3823  2.5183  0.0661
  948MOL0     H27940  11.442   8.759  10.859 -0.0414 -0.3748 -0.0292
  948MOL0     H27941  11.673   8.708  10.803  1.7749  0.0465 -1.3242
  948MOL0     H27942  12.024   8.882  10.481  0.2029 -0.3940 -0.6384
  948MOL0     H27943  12.205   8.975  10.344 -2.2832  1.2076 -0.0939
  948MOL0     H27944  12.385   9.100  10.243 -0.2092 -0.4297  0.8529
  948MOL0     H27945  12.267   9.232  10.216 -0.2146 -0.5238 -0.1028
  948MOL0     H27946  12.457   9.393  10.297 -0.2500  0.5410 -0.0551
  948MOL0     H27947  12.556   9.245  10.316 -1.1159 -2.0623  0.4320
  948MOL0     H27948  12.528   9.186  10.078 -2.2185 -2.3758  2.2085
  948MOL0     H27949  12.432   9.326  10.047  0.0108 -2.4298 -0.6561
  948MOL0     H27950  12.725   9.355  10.134  0.8262 -0.5525 -1.3608
  948MOL0     H27951  12.602   9.475  10.083  0.2387 -0.5481  0.2254
  948MOL0     H27952  12.584   9.346   9.873  0.0520  1.2013  0.5367
  948MOL0     H27953  12.726   9.248   9.917  1.7565  1.4764 -2.0729
  948MOL0     H27954  12.701   9.541   9.865 -0.3987 -0.2758 -0.7386
  948MOL0     H27955  12.849   9.474   9.951 -2.3327  4.4751  2.0903
  948MOL0     H27956  12.725   9.369   9.691 -0.0622 -1.4167  0.7625
  948MOL0     H27957  12.895   9.348   9.745  1.0507  0.8829 -1.3853
  948MOL0     H27958  12.750   9.608   9.650 -0.5124  0.0069 -0.2181
  948MOL0     H27959  12.914   9.608   9.708 -2.7797  3.5476  0.6592
  948MOL0     H27960  12.233   9.310  10.611 -2.7937  1.9718 -0.2915
  948MOL0     H27961  12.064   9.190  10.761  2.7751 -2.2758  0.9415
  948MOL0     H27962  11.706   9.126  10.669 -0.5653  0.4771 -1.0611
  948MOL0     H27963  11.487   9.157  10.718  0.5101 -0.1919  0.0014
  948MOL0     H27964   9.535   9.841  10.788 -0.7367  1.9235  0.3726
  948MOL0     H27965   9.358   9.990  10.691 -1.7240 -2.3528 -0.2914
  948MOL0     H27966   8.950   9.983  10.444 -0.5383  0.8685 -0.0133
  948MOL0     H27967   8.779  10.113  10.330 -0.2191 -0.3365 -0.3780
  948MOL0     H27968   8.792  10.465  10.272 -0.0461  0.5029 -0.1868
  948MOL0     H27969   8.687  10.328  10.313 -1.2354  3.2173  0.0463
  948MOL0     H27970   8.680  10.467  10.042 -1.8577  0.0991 -0.6455
  948MOL0     H27971   8.569  10.510  10.167 -1.4219 -2.0657 -0.0865
  948MOL0     H27972   8.598  10.222  10.102  0.5851 -0.4833 -1.4242
  948MOL0     H27973   8.532  10.330   9.982  1.9246  2.3188  0.2573
  948MOL0     H27974   8.344  10.232  10.117 -1.0471  0.1300 -0.6787
  948MOL0     H27975   8.427  10.300  10.264  0.4154  0.2202 -0.1476
  948MOL0     H27976   8.183  10.617  10.171 -0.2355  2.2788 -1.5559
  948MOL0     H27977   9.075  10.301  10.082  2.9638  0.6337  2.2013
  948MOL0     H27978   9.305  10.030  10.133 -0.5795 -0.2888 -1.9292
  948MOL0     H27979   9.281  10.176  10.055 -1.7932 -0.7607 -0.2831
  948MOL0     H27980   9.351  10.176  10.225 -0.9756 -3.9152  4.0757
  949MOL0     O27981   2.023   9.665  11.083 -0.5121 -0.4438  0.0289
  949MOL0     C27982   1.950   9.756  11.059  0.7477 -0.4434 -0.6938
  949MOL0     O27983   1.979   9.883  11.039 -0.3003 -0.1198  0.3854
  949MOL0     C27984   2.100   9.948  11.073  0.4416  0.7863  0.6852
  949MOL0     C27985   2.224   9.888  11.063  0.1359  0.5545 -0.0269
  949MOL0     C27986   2.339   9.973  11.075  0.1976 -0.3537 -1.4340
  949MOL0     C27987   2.318  10.113  11.093 -0.5572 -0.7795  0.1775
  949MOL0     O27988   2.441  10.174  11.116  0.5104  0.0101 -0.1984
  949MOL0     C27989   2.450  10.321  11.132 -0.4170 -0.1224  0.6315
  949MOL0     C27990   2.593  10.359  11.117 -0.6981 -0.0698  0.3760
  949MOL0     C27991   2.606  10.485  11.014 -0.3335  1.1050 -0.6021
  949MOL0     C27992   2.755  10.527  10.982  0.5625  0.5732 -0.0904
  949MOL0     C27993   2.737  10.659  10.908 -0.5313 -0.4704  0.1360
  949MOL0     C27994   2.867  10.727  10.860 -0.8277 -0.7374  0.9441
  949MOL0     C27995   2.850  10.871  10.804 -0.4338 -0.8436  0.7033
  949MOL0     C27996   2.983  10.948  10.792  0.4927  0.0798  0.0213
  949MOL0     N27997   3.019  11.029  10.911  0.3814  0.8141  0.3975
  949MOL0     C27998   3.130  11.012  10.972 -0.7493 -0.2193 -0.0277
  949MOL0     C27999   3.141  11.114  11.064 -0.3101 -0.2403 -0.1392
  949MOL0     C28000   3.250  11.142  11.165 -0.4195 -0.2222  0.0002
  949MOL0     C28001   3.359  11.232  11.102 -0.9402  0.4889 -0.1970
  949MOL0     C28002   3.302  11.369  11.086 -0.0492 -0.9093  0.2842
  949MOL0     C28003   3.394  11.468  11.016  0.4080 -0.5362 -0.5032
  949MOL0     O28004   3.492  11.497  11.113 -0.3871  0.2003  0.7091
  949MOL0     C28005   3.586  11.597  11.082 -0.0142  0.0553 -0.6629
  949MOL0     C28006   3.686  11.611  11.182 -0.4070  0.3101  0.0907
  949MOL0     C28007   3.803  11.687  11.154 -0.1439 -0.8333 -0.8699
  949MOL0     C28008   3.796  11.781  11.044 -0.9209 -0.0568  0.6731
  949MOL0     C28009   3.919  11.860  11.004 -0.2736  0.1045  0.6027
  949MOL0     O28010   4.021  11.858  11.092 -0.4536  0.7366 -0.5486
  949MOL0     C28011   4.140  11.927  11.081 -0.8821 -0.2905  0.6691
  949MOL0     C28012   4.252  11.881  11.149  0.2882  0.0706 -1.1398
  949MOL0     C28013   4.376  11.947  11.139  0.3161 -0.0594  0.4108
  949MOL0     C28014   4.388  12.059  11.057 -0.3235 -0.5053  0.2721
  949MOL0     O28015   4.519  12.113  11.052  0.6145  0.8999  0.0010
  949MOL0     C28016   4.517  12.250  11.015  0.1255 -0.1379  0.0943
  949MOL0     C28017   4.660  12.293  11.003  0.9691  0.8974 -0.2042
  949MOL0     C28018   4.679  12.432  10.948  0.2784 -1.8574  0.1632
  949MOL0     C28019   4.792  12.513  11.024  0.1223  0.3003  0.4346
  949MOL0     C28020   4.786  12.653  10.972 -0.0082 -1.1260  1.1041
  949MOL0     C28021   4.920  12.726  11.004  0.1474 -0.2572  0.4544
  949MOL0     C28022   4.915  12.879  10.973  0.3802 -0.2863 -0.2288
  949MOL0     C28023   4.925  12.925  10.830  0.3785  0.4787  0.4033
  949MOL0    Cl28024   4.963  13.093  10.821 -0.3193  0.2428 -0.1994
  949MOL0     C28025   4.278  12.108  10.996  0.2361 -0.3581 -0.6927
  949MOL0     C28026   4.156  12.041  11.001  0.3745  0.7290  0.5725
  949MOL0     O28027   3.919  11.929  10.903 -0.1066  0.0463 -0.4447
  949MOL0     C28028   3.693  11.777  10.951  0.2728  1.1694 -0.1847
  949MOL0     C28029   3.598  11.675  10.969  0.7826  0.0721 -0.1018
  949MOL0     N28030   3.022  11.182  11.055  0.5205 -0.7657  0.4886
  949MOL0     N28031   2.945  11.131  10.965 -0.5483  0.2154  1.3519
  949MOL0     C28032   2.188  10.174  11.108 -0.2172 -0.8434  0.8054
  949MOL0     C28033   2.084  10.087  11.100 -0.4290  0.8406 -0.1906
  949MOL0     C28034   1.798   9.725  11.028  0.7239  0.1555 -0.6184
  949MOL0     C28035   1.704   9.822  11.042 -0.2651 -0.6319  1.0073
  949MOL0     C28036   1.566   9.807  11.020 -0.3974  0.4981 -0.3819
  949MOL0     C28037   1.514   9.684  10.982  1.2763  0.2470  0.0349
  949MOL0     O28038   1.389   9.651  10.935  0.4501 -0.1043  1.0071
  949MOL0     C28039   1.294   9.759  10.931 -0.0393 -0.0752 -1.0729
  949MOL0     C28040   1.166   9.699  10.870  1.0672  0.0902 -0.3126
  949MOL0     C28041   1.050   9.795  10.903 -0.6919 -0.7432 -0.1045
  949MOL0     C28042   0.912   9.745  10.868  0.1604  0.1528  0.0666
  949MOL0     C28043   0.861   9.646  10.967  0.4723  0.9227 -0.7245
  949MOL0     C28044   0.821   9.558  11.049  0.3523  0.6603  0.5956
  949MOL0     C28045   1.603   9.576  10.988 -0.4152 -0.5127  0.4907
  949MOL0     C28046   1.740   9.594  11.010  0.4732 -0.0217  0.8797
  949MOL0     C28047   1.827   9.460  11.010  0.1193 -0.1366  1.2431
  949MOL0     H28048   2.238   9.783  11.041 -1.8435  0.6903 -2.2701
  949MOL0     H28049   2.440   9.934  11.081  0.5290  0.1693 -3.1431
  949MOL0     H28050   2.392  10.372  11.055  2.4591  2.9761  0.2784
  949MOL0     H28051   2.411  10.357  11.228 -1.8402 -1.4740  0.5929
  949MOL0     H28052   2.667  10.287  11.079  0.9535  2.0933 -0.7234
  949MOL0     H28053   2.626  10.388  11.217 -2.4085 -2.0159  1.5931
  949MOL0     H28054   2.553  10.567  11.065 -0.5508 -0.2079  1.4150
  949MOL0     H28055   2.558  10.454  10.921 -1.1136  0.5225 -0.0171
  949MOL0     H28056   2.820  10.547  11.068  1.6495  0.9092 -0.9732
  949MOL0     H28057   2.803  10.453  10.917  1.2522  0.7063  0.2592
  949MOL0     H28058   2.690  10.639  10.812  2.4038 -1.2520 -1.2473
  949MOL0     H28059   2.690  10.741  10.964 -1.4052 -0.2619 -0.8733
  949MOL0     H28060   2.925  10.720  10.953  0.2562 -1.9842  0.2053
  949MOL0     H28061   2.911  10.658  10.788 -0.0466 -2.9030  3.3464
  949MOL0     H28062   2.787  10.932  10.868  2.4024  1.9836  1.0631
  949MOL0     H28063   2.805  10.869  10.704  0.9602 -1.9347  0.0638
  949MOL0     H28064   3.056  10.871  10.763  0.3655  0.4522 -1.3945
  949MOL0     H28065   2.975  11.020  10.710 -0.5621  0.8662  0.8051
  949MOL0     H28066   3.199  10.935  10.938 -0.3365 -0.1475  0.6345
  949MOL0     H28067   3.200  11.183  11.254 -1.8617 -1.5762 -0.1393
  949MOL0     H28068   3.295  11.049  11.200 -1.1575 -0.1520  1.2134
  949MOL0     H28069   3.449  11.237  11.164 -0.0048  3.7608 -1.6037
  949MOL0     H28070   3.376  11.191  11.002 -2.1638 -2.2014  0.5979
  949MOL0     H28071   3.279  11.399  11.189  0.2832 -0.1242  0.1352
  949MOL0     H28072   3.210  11.362  11.027 -0.0674 -0.7380  0.2927
  949MOL0     H28073   3.328  11.555  11.007 -1.4214 -1.5393  2.1358
  949MOL0     H28074   3.439  11.445  10.919 -0.1551  0.7832 -1.1001
  949MOL0     H28075   3.684  11.539  11.263  2.4641 -0.6776 -0.6023
  949MOL0     H28076   3.893  11.680  11.215  0.6265  1.4846 -1.6471
  949MOL0     H28077   4.233  11.790  11.206 -1.5146 -0.0157 -1.8085
  949MOL0     H28078   4.463  11.897  11.179  0.8664 -0.7925 -1.6212
  949MOL0     H28079   4.465  12.258  10.919 -0.9415 -1.7850  0.4864
  949MOL0     H28080   4.457  12.299  11.091 -1.8963 -1.0751 -0.8196
  949MOL0     H28081   4.701  12.290  11.104  1.5973 -1.6508 -0.4645
  949MOL0     H28082   4.721  12.220  10.950  2.1371  1.3525  0.4796
  949MOL0     H28083   4.708  12.430  10.843  1.4214 -2.6618  0.4786
  949MOL0     H28084   4.590  12.495  10.960  0.1157 -2.4542  2.7207
  949MOL0     H28085   4.887  12.464  11.000 -0.2951  0.0176 -0.6613
  949MOL0     H28086   4.766  12.507  11.131 -0.2323  0.1191  0.3398
  949MOL0     H28087   4.710  12.708  11.028  1.6222  1.9121  0.6079
  949MOL0     H28088   4.767  12.669  10.865 -0.8115 -1.0624  1.2538
  949MOL0     H28089   4.939  12.719  11.112  1.5539 -1.6346  0.1575
  949MOL0     H28090   5.008  12.683  10.957 -0.2002  0.6529 -1.0883
  949MOL0     H28091   4.998  12.927  11.027  1.2262 -2.9996  1.0465
  949MOL0     H28092   4.824  12.926  11.011  1.5635  1.0684  1.0786
  949MOL0     H28093   5.001  12.860  10.783 -0.3781 -0.6070  0.6532
  949MOL0     H28094   4.829  12.901  10.783  0.3023 -0.9203  1.2086
  949MOL0     H28095   4.278  12.193  10.929 -0.5133  0.8292  0.7585
  949MOL0     H28096   4.082  12.097  10.944  2.0331 -0.3258 -2.8933
  949MOL0     H28097   3.696  11.830  10.856  2.2652 -1.8817 -2.0339
  949MOL0     H28098   3.534  11.648  10.887  4.2789 -2.0240 -2.4260
  949MOL0     H28099   2.171  10.280  11.128  0.7622 -0.5293  0.0153
  949MOL0     H28100   1.983  10.120  11.123 -1.2548 -0.9576 -0.9762
  949MOL0     H28101   1.747   9.914  11.079 -1.8603 -0.1942  1.8670
  949MOL0     H28102   1.501   9.891  11.001 -0.1694  0.5892 -0.7701
  949MOL0     H28103   1.320   9.847  10.872 -1.4492  1.2102  0.1415
  949MOL0     H28104   1.274   9.792  11.033 -2.0036 -1.8306 -0.8254
  949MOL0     H28105   1.140   9.605  10.918 -0.3826  1.8123  2.5365
  949MOL0     H28106   1.184   9.690  10.762  0.8399  1.6575 -0.5089
  949MOL0     H28107   1.075   9.882  10.841  1.4887 -2.3467 -1.5833
  949MOL0     H28108   1.048   9.820  11.010 -2.0349 -1.0785 -0.0311
  949MOL0     H28109   0.847   9.832  10.852 -0.9079 -0.7823 -0.8965
  949MOL0     H28110   0.917   9.695  10.770 -0.9431 -0.0165  0.0872
  949MOL0     H28111   0.777   9.478  11.105  0.8984 -0.1398 -0.0972
  949MOL0     H28112   1.566   9.476  10.969  0.9584 -1.2051  1.2542
  949MOL0     H28113   1.863   9.446  11.112  0.8934  1.0070  1.1455
  949MOL0     H28114   1.762   9.377  10.981 -0.6691 -0.0234  2.6245
  949MOL0     H28115   1.913   9.453  10.942 -0.2020 -3.3003  0.9825
  950MOL0     O28116   0.871   3.933  10.803 -0.4951 -0.2769 -0.4043
  950MOL0     C28117   0.869   3.841  10.724  0.7661  0.0169 -0.4547
  950MOL0     O28118   0.957   3.820  10.629 -0.3012 -0.4748  0.2063
  950MOL0     C28119   1.084   3.872  10.625 -0.4621 -0.2001  0.3973
  950MOL0     C28120   1.167   3.908  10.732  0.2319 -0.4163  0.3588
  950MOL0     C28121   1.293   3.953  10.709  0.1187  1.0143 -0.5440
  950MOL0     C28122   1.345   3.970  10.581  0.9203  0.4457 -0.7341
  950MOL0     O28123   1.460   4.043  10.573  0.0532 -0.4043 -0.5777
  950MOL0     C28124   1.571   3.975  10.515  0.0728  0.8405 -0.6000
  950MOL0     C28125   1.688   3.989  10.621  0.0928 -0.5606 -1.1327
  950MOL0     C28126   1.799   4.085  10.581  0.3669 -0.5278 -0.0650
  950MOL0     C28127   1.906   4.078  10.686 -0.1698 -0.0670 -0.7476
  950MOL0     C28128   2.044   4.161  10.652  0.6463 -0.2352 -0.7701
  950MOL0     C28129   2.140   4.118  10.762  0.1230 -0.0515 -0.0227
  950MOL0     C28130   2.256   4.221  10.798 -0.3210 -0.3020 -0.1572
  950MOL0     C28131   2.330   4.262  10.680 -0.6776 -0.4124  0.5140
  950MOL0     N28132   2.426   4.364  10.706 -0.4955 -0.1222 -0.3912
  950MOL0     C28133   2.527   4.386  10.612  0.3721  0.2737 -0.3658
  950MOL0     C28134   2.602   4.493  10.656  0.7757  0.8026 -0.4865
  950MOL0     C28135   2.715   4.561  10.586 -0.5351  1.0261 -0.7645
  950MOL0     C28136   2.851   4.489  10.595 -0.4344  0.6781  0.2006
  950MOL0     C28137   2.908   4.526  10.732  0.4859  0.2229 -0.1128
  950MOL0     C28138   3.054   4.532  10.725 -0.8669 -0.3138 -0.5087
  950MOL0     O28139   3.088   4.665  10.678 -0.1337  0.0127  0.8073
  950MOL0     C28140   3.212   4.694  10.620 -0.6265 -0.5887 -0.7037
  950MOL0     C28141   3.231   4.821  10.564  0.2958  0.3465 -0.3824
  950MOL0     C28142   3.353   4.858  10.510 -0.3463  0.1827  0.9810
  950MOL0     C28143   3.457   4.775  10.505 -0.0485  1.3422 -0.7421
  950MOL0     C28144   3.600   4.815  10.467 -0.1003 -1.0736  0.2974
  950MOL0     O28145   3.691   4.714  10.472 -0.2455  0.5642 -0.4599
  950MOL0     C28146   3.797   4.723  10.391 -0.7186  0.5465 -0.0770
  950MOL0     C28147   3.921   4.775  10.439  0.2791 -0.5112  0.6287
  950MOL0     C28148   4.029   4.778  10.356  0.5134 -0.9420  0.8926
  950MOL0     C28149   4.014   4.739  10.223 -0.6250  0.3243  0.0319
  950MOL0     O28150   4.140   4.736  10.149  0.2201  0.2010 -0.4819
  950MOL0     C28151   4.168   4.614  10.067 -0.7351 -0.6208  0.4090
  950MOL0     C28152   4.198   4.653   9.924  1.2321  0.3013  0.2169
  950MOL0     C28153   4.325   4.738   9.907 -0.2042  0.2925 -0.1648
  950MOL0     C28154   4.348   4.781   9.764 -0.1918  0.3956  0.1680
  950MOL0     C28155   4.475   4.869   9.760 -0.7229  0.3237 -0.8543
  950MOL0     C28156   4.499   4.907   9.607 -0.9132  0.4265 -0.0504
  950MOL0     C28157   4.635   4.975   9.575 -0.3976  0.4051  0.5536
  950MOL0     C28158   4.635   5.034   9.429  0.4535 -0.1754 -0.7787
  950MOL0    Cl28159   4.620   4.914   9.314 -0.1344 -0.0424  0.4251
  950MOL0     C28160   3.888   4.692  10.173 -0.4337 -0.4341 -0.5095
  950MOL0     C28161   3.777   4.697  10.257  0.1461 -0.5373 -0.3483
  950MOL0     O28162   3.625   4.927  10.426 -0.0062  0.2810  0.3117
  950MOL0     C28163   3.434   4.637  10.551  0.3260 -0.1664 -0.1023
  950MOL0     C28164   3.319   4.592  10.615 -0.4154  0.2059 -0.2916
  950MOL0     N28165   2.560   4.510  10.793 -0.1750  0.0738 -0.8231
  950MOL0     N28166   2.453   4.445  10.821 -0.3693  0.0426  0.5288
  950MOL0     C28167   1.268   3.937  10.469 -0.1956 -0.9638 -0.4318
  950MOL0     C28168   1.139   3.878  10.496  1.5609 -0.0134  0.5257
  950MOL0     C28169   0.756   3.734  10.728 -0.0094 -0.2608 -0.9752
  950MOL0     C28170   0.781   3.621  10.647  0.2398 -0.3615  0.1567
  950MOL0     C28171   0.683   3.519  10.640 -0.1778  0.0344 -1.0645
  950MOL0     C28172   0.573   3.518  10.722 -0.1241  0.2278  0.3990
  950MOL0     O28173   0.474   3.418  10.715  0.2386  0.0524  0.6895
  950MOL0     C28174   0.470   3.304  10.616  0.0316 -0.5812  0.0464
  950MOL0     C28175   0.362   3.210  10.657  0.2250 -0.3882  0.3285
  950MOL0     C28176   0.226   3.268  10.643  0.1738 -0.5225 -0.1050
  950MOL0     C28177   0.143   3.210  10.536  0.2019 -0.2737 -0.5131
  950MOL0     C28178   0.026   3.294  10.510 -1.0068  0.5115 -0.5313
  950MOL0     C28179  -0.079   3.362  10.504  0.0662  0.1813  0.3207
  950MOL0     C28180   0.553   3.620  10.809  0.6840 -0.6594  0.3144
  950MOL0     C28181   0.644   3.735  10.813 -0.1416 -0.1343 -0.2399
  950MOL0     C28182   0.614   3.849  10.918  0.2952  0.4071 -0.6693
  950MOL0     H28183   1.135   3.889  10.834 -1.9916  0.4365 -0.1194
  950MOL0     H28184   1.355   3.982  10.794  1.4974 -1.4414 -0.6187
  950MOL0     H28185   1.558   3.869  10.492  3.3305  0.1631  0.1623
  950MOL0     H28186   1.604   4.017  10.419 -1.5362 -1.9622 -2.5416
  950MOL0     H28187   1.734   3.892  10.643  3.4871  0.8409 -1.3860
  950MOL0     H28188   1.638   4.027  10.711  2.2032  0.3812 -0.2912
  950MOL0     H28189   1.760   4.187  10.575  0.1602 -0.6054 -0.0326
  950MOL0     H28190   1.853   4.061  10.488 -2.9935 -0.0266 -2.3205
  950MOL0     H28191   1.855   4.108  10.778 -0.4967  1.7757 -1.4927
  950MOL0     H28192   1.936   3.973  10.690 -1.6002 -0.5498 -2.1944
  950MOL0     H28193   2.081   4.144  10.551 -3.2053 -1.8069 -2.1164
  950MOL0     H28194   2.015   4.266  10.661 -1.1232 -0.7575  0.0900
  950MOL0     H28195   2.082   4.104  10.854 -0.3908  2.4025  0.1197
  950MOL0     H28196   2.182   4.019  10.742 -1.6776 -1.0329  0.7926
  950MOL0     H28197   2.313   4.169  10.875 -2.0409 -2.5738 -0.3120
  950MOL0     H28198   2.219   4.317  10.837  1.5007  0.7505 -0.8726
  950MOL0     H28199   2.386   4.178  10.638 -0.3625  0.3746 -0.6597
  950MOL0     H28200   2.266   4.293  10.597  0.0841 -1.0518 -0.3288
  950MOL0     H28201   2.536   4.322  10.525 -1.1700 -2.3879  1.2955
  950MOL0     H28202   2.699   4.578  10.479  3.5758  0.7459 -1.5943
  950MOL0     H28203   2.720   4.662  10.630  0.3168  0.7773 -0.2732
  950MOL0     H28204   2.856   4.383  10.572  1.5034  0.9598 -0.8085
  950MOL0     H28205   2.910   4.528  10.512 -0.3498 -1.5417 -0.8356
  950MOL0     H28206   2.871   4.446  10.798 -0.0789  0.8531  0.3516
  950MOL0     H28207   2.873   4.626  10.757 -3.1704 -0.6028 -1.2867
  950MOL0     H28208   3.083   4.448  10.660 -2.9349  1.2026 -3.6558
  950MOL0     H28209   3.093   4.523  10.827 -1.3559 -0.0754 -0.2950
  950MOL0     H28210   3.145   4.888  10.563 -0.0253 -0.0620 -1.2308
  950MOL0     H28211   3.368   4.956  10.465  1.7965  0.2969  1.8070
  950MOL0     H28212   3.932   4.794  10.545  0.0540  0.7175  0.4351
  950MOL0     H28213   4.124   4.820  10.386 -0.1959  1.1465  0.4082
  950MOL0     H28214   4.249   4.558  10.114 -2.3579 -3.3759  0.1499
  950MOL0     H28215   4.085   4.542  10.066 -1.5076  0.1328  2.7217
  950MOL0     H28216   4.211   4.558   9.873 -0.3036  0.3785 -0.3862
  950MOL0     H28217   4.103   4.703   9.899 -0.2246 -1.0149  2.7688
  950MOL0     H28218   4.305   4.819   9.977 -3.1188  0.5004 -1.1195
  950MOL0     H28219   4.414   4.691   9.951  1.4752  3.1809 -0.1872
  950MOL0     H28220   4.265   4.848   9.739  0.8562  2.5474  2.1278
  950MOL0     H28221   4.347   4.698   9.692 -3.0272  1.5493 -1.2867
  950MOL0     H28222   4.562   4.814   9.799 -1.6741 -2.2115 -2.0865
  950MOL0     H28223   4.477   4.959   9.823  0.7269  0.3166 -0.8415
  950MOL0     H28224   4.483   4.820   9.543  0.6134  0.0827 -0.0069
  950MOL0     H28225   4.431   4.990   9.588 -2.1069 -0.7649 -1.1003
  950MOL0     H28226   4.719   4.905   9.578  0.4290  1.4156  1.9811
  950MOL0     H28227   4.651   5.060   9.641 -0.9549 -1.1144  2.7700
  950MOL0     H28228   4.554   5.103   9.406  0.4355  0.3201  0.7037
  950MOL0     H28229   4.734   5.079   9.412  0.4711  0.1256  0.1031
  950MOL0     H28230   3.871   4.662  10.070  1.0149  0.6695 -1.1040
  950MOL0     H28231   3.681   4.655  10.229 -1.0134 -2.8838  5.7147
  950MOL0     H28232   3.516   4.566  10.546  0.2741 -0.1801 -1.0647
  950MOL0     H28233   3.308   4.489  10.646 -1.2540  0.4840  0.3848
  950MOL0     H28234   1.283   3.958  10.364 -0.7785 -1.6872 -0.6754
  950MOL0     H28235   1.086   3.831  10.414  0.7173 -0.1823  1.1485
  950MOL0     H28236   0.849   3.625  10.562 -1.4677  0.3417 -1.2453
  950MOL0     H28237   0.691   3.445  10.561  0.1742  0.6341 -1.6000
  950MOL0     H28238   0.561   3.243  10.615 -1.5399 -3.1256 -1.9892
  950MOL0     H28239   0.453   3.350  10.519 -0.9174  0.5282  0.7207
  950MOL0     H28240   0.379   3.182  10.761  0.4362 -1.5451  0.0005
  950MOL0     H28241   0.365   3.114  10.604 -0.6363  0.2262 -0.8736
  950MOL0     H28242   0.218   3.377  10.632 -3.7198 -0.5549  1.0021
  950MOL0     H28243   0.166   3.242  10.730  1.3867 -1.1384  0.5787
  950MOL0     H28244   0.201   3.208  10.443 -1.0198  0.4152 -1.3168
  950MOL0     H28245   0.117   3.107  10.562  2.7200 -0.4517  1.7541
  950MOL0     H28246  -0.162   3.429  10.495  0.0629  0.4355  1.9368
  950MOL0     H28247   0.474   3.617  10.883  0.2224  1.1533 -0.0605
  950MOL0     H28248   0.512   3.853  10.958  0.8001 -4.1167  1.6859
  950MOL0     H28249   0.665   3.819  11.010  1.2923 -0.3214 -1.4358
  950MOL0     H28250   0.651   3.946  10.885  1.3358 -0.2284 -1.4378
  951MOL0     O28251   8.222   3.931   6.407 -0.5399 -0.2573 -0.1248
  951MOL0     C28252   8.196   4.045   6.456  0.1377  0.2305 -0.3733
  951MOL0     O28253   8.075   4.108   6.440  0.4479 -0.0910  0.7132
  951MOL0     C28254   7.953   4.044   6.419 -1.0678 -0.2324  1.2012
  951MOL0     C28255   7.927   3.914   6.455  0.4471  0.1904  0.7644
  951MOL0     C28256   7.805   3.852   6.415  0.8406  0.2169 -0.6521
  951MOL0     C28257   7.701   3.932   6.362  0.2218  0.9916 -0.0605
  951MOL0     O28258   7.572   3.898   6.353  0.0077 -0.2566  0.5694
  951MOL0     C28259   7.513   3.777   6.402  0.0240  0.5868 -0.6264
  951MOL0     C28260   7.399   3.724   6.320  0.9222  0.1332 -0.2266
  951MOL0     C28261   7.280   3.827   6.334 -0.2040 -0.6049 -0.1360
  951MOL0     C28262   7.165   3.783   6.232  0.9526 -0.6656 -0.2496
  951MOL0     C28263   7.037   3.873   6.243  0.2746  0.0596  0.1861
  951MOL0     C28264   6.955   3.854   6.372  0.1863 -0.9909  0.0641
  951MOL0     C28265   6.912   3.712   6.399  0.1234 -0.2893  0.4182
  951MOL0     C28266   6.766   3.717   6.436  0.1535 -0.5378  0.2218
  951MOL0     N28267   6.711   3.589   6.464  0.6120 -0.1486 -1.2553
  951MOL0     C28268   6.774   3.469   6.445 -0.1343  0.1951  0.0463
  951MOL0     C28269   6.701   3.384   6.522  0.1943  1.3749 -0.3920
  951MOL0     C28270   6.713   3.237   6.542  1.3113  1.3355 -0.0926
  951MOL0     C28271   6.732   3.171   6.412 -0.6805  0.4167  0.4352
  951MOL0     C28272   6.755   3.011   6.422  0.3677  0.4908 -0.5116
  951MOL0     C28273   6.899   2.983   6.434  0.2031  0.1531 -0.3528
  951MOL0     O28274   6.967   3.022   6.316 -0.5102  0.0949 -0.3941
  951MOL0     C28275   7.098   2.979   6.298 -1.1005 -0.2265  0.0195
  951MOL0     C28276   7.163   2.876   6.370  0.9220  0.1472  0.0750
  951MOL0     C28277   7.294   2.840   6.349 -0.8019 -0.2472  0.4973
  951MOL0     C28278   7.376   2.905   6.259  0.6634 -0.7057  0.4761
  951MOL0     C28279   7.518   2.873   6.236  0.0328 -1.0424 -0.1260
  951MOL0     O28280   7.590   2.977   6.183 -0.7247  0.6374  0.0916
  951MOL0     C28281   7.731   2.960   6.168  0.1691 -0.3665  0.3842
  951MOL0     C28282   7.786   3.054   6.083 -0.4601  0.5765 -0.9014
  951MOL0     C28283   7.920   3.069   6.073 -0.7758  0.3764  0.5139
  951MOL0     C28284   8.012   2.990   6.150  0.3299 -0.5447 -0.0248
  951MOL0     O28285   8.144   3.005   6.126  0.2137  0.1344  0.2298
  951MOL0     C28286   8.193   3.014   5.991  0.1002 -0.5768 -0.1337
  951MOL0     C28287   8.344   2.992   5.996  0.2919  0.7831 -1.1839
  951MOL0     C28288   8.387   2.866   6.060  0.5596 -0.7397  0.0838
  951MOL0     C28289   8.348   2.739   5.975  0.0607 -0.3448 -0.1290
  951MOL0     C28290   8.351   2.617   6.065 -0.1568  0.0416 -0.4310
  951MOL0     C28291   8.317   2.499   5.968  0.9721  0.1657 -0.8913
  951MOL0     C28292   8.165   2.479   5.955  0.3905 -0.6905 -1.4103
  951MOL0     C28293   8.104   2.349   5.886  0.0188  0.4575 -0.5155
  951MOL0    Cl28294   8.161   2.331   5.724 -0.6126  0.5637 -0.1993
  951MOL0     C28295   7.965   2.890   6.225  0.1090 -0.0485 -0.8860
  951MOL0     C28296   7.827   2.868   6.224 -0.4625  0.0992 -0.7127
  951MOL0     O28297   7.562   2.758   6.253 -0.2278  0.4252  0.0144
  951MOL0     C28298   7.308   2.999   6.174  0.3818  0.3787 -1.2027
  951MOL0     C28299   7.175   3.040   6.205 -0.1266 -0.8544  0.1694
  951MOL0     N28300   6.590   3.446   6.572 -0.4175  0.0793 -0.9126
  951MOL0     N28301   6.613   3.571   6.558  0.6138 -0.1900  0.2384
  951MOL0     C28302   7.732   4.065   6.326 -0.2177 -0.4362 -0.7467
  951MOL0     C28303   7.856   4.120   6.357  0.9633  0.5470  0.1177
  951MOL0     C28304   8.300   4.118   6.531  0.2489  0.6126  1.1662
  951MOL0     C28305   8.261   4.219   6.620  0.0937 -0.9445 -0.1374
  951MOL0     C28306   8.351   4.303   6.681 -0.8556  0.1062  0.5038
  951MOL0     C28307   8.481   4.259   6.672 -0.2365  0.6152 -0.4827
  951MOL0     O28308   8.585   4.314   6.748  0.0898  0.4955 -0.1452
  951MOL0     C28309   8.554   4.381   6.871 -0.4047 -0.5158  0.8772
  951MOL0     C28310   8.668   4.357   6.958  0.0514 -0.2985  1.1671
  951MOL0     C28311   8.665   4.451   7.078  0.3442  0.2527  0.4453
  951MOL0     C28312   8.808   4.453   7.144 -0.9773 -0.3223  0.2600
  951MOL0     C28313   8.840   4.323   7.204 -0.5386  0.2495  0.1155
  951MOL0     C28314   8.873   4.217   7.264 -0.3586  0.8292  0.9492
  951MOL0     C28315   8.527   4.158   6.596  0.3613  0.1153  0.9657
  951MOL0     C28316   8.441   4.090   6.509  0.4064  0.2072  0.2812
  951MOL0     C28317   8.502   3.981   6.422 -0.7246 -0.5379 -0.4983
  951MOL0     H28318   8.002   3.846   6.493  0.8910  0.4978  0.4517
  951MOL0     H28319   7.786   3.751   6.450 -3.2482  0.0780 -2.6992
  951MOL0     H28320   7.585   3.696   6.395  0.2428  0.8222 -1.1209
  951MOL0     H28321   7.473   3.789   6.504  0.0551 -0.8030 -0.4372
  951MOL0     H28322   7.374   3.624   6.356 -1.2982  0.0611 -1.7529
  951MOL0     H28323   7.421   3.708   6.214 -1.7800 -1.4120 -0.6518
  951MOL0     H28324   7.333   3.919   6.308 -0.5473 -0.0108  1.1882
  951MOL0     H28325   7.236   3.827   6.434 -2.2953  3.1151 -0.8611
  951MOL0     H28326   7.189   3.788   6.125 -2.1766 -2.1422 -1.1685
  951MOL0     H28327   7.134   3.678   6.241 -0.7923 -0.3822 -2.0529
  951MOL0     H28328   7.061   3.979   6.234 -0.7156  0.1218 -2.5943
  951MOL0     H28329   6.971   3.841   6.162  0.9630 -0.8913 -0.0233
  951MOL0     H28330   7.018   3.880   6.458  1.9026 -0.4273 -1.2899
  951MOL0     H28331   6.874   3.927   6.368  2.7131  2.4432  3.5699
  951MOL0     H28332   6.964   3.680   6.490 -0.4165 -0.8772  0.5253
  951MOL0     H28333   6.926   3.662   6.303 -2.5531  1.7668 -1.1761
  951MOL0     H28334   6.746   3.791   6.514 -2.6487 -0.1521 -0.7507
  951MOL0     H28335   6.702   3.759   6.358 -0.0270  1.5994  1.4382
  951MOL0     H28336   6.869   3.443   6.399  0.4075  3.1427 -0.6744
  951MOL0     H28337   6.802   3.217   6.602  2.8287  5.5126 -0.6359
  951MOL0     H28338   6.628   3.190   6.593  1.1215  1.7053 -0.0602
  951MOL0     H28339   6.647   3.178   6.344  1.0826 -0.7005 -2.0525
  951MOL0     H28340   6.818   3.209   6.355  0.3805 -0.0714  1.6637
  951MOL0     H28341   6.719   2.967   6.329  0.8065  3.2758 -2.1199
  951MOL0     H28342   6.714   2.964   6.512  1.7170 -1.8018 -1.0274
  951MOL0     H28343   6.922   2.878   6.453  0.2562  0.2501  0.1384
  951MOL0     H28344   6.939   3.045   6.515  1.4859  1.0684 -1.6335
  951MOL0     H28345   7.115   2.822   6.451 -0.4621  0.1910 -0.6899
  951MOL0     H28346   7.326   2.753   6.406  0.6518 -2.3367 -3.1453
  951MOL0     H28347   7.714   3.117   6.032 -0.6256  1.2500  0.1132
  951MOL0     H28348   7.960   3.147   6.009  0.4836  1.6637  2.7466
  951MOL0     H28349   8.143   2.935   5.933 -0.6428  0.4497 -0.9371
  951MOL0     H28350   8.169   3.113   5.951 -1.2155  0.5257  3.0744
  951MOL0     H28351   8.388   3.005   5.896 -2.8909  0.6497 -2.7392
  951MOL0     H28352   8.367   3.073   6.065  0.1501  1.0044 -1.3910
  951MOL0     H28353   8.495   2.876   6.057  0.3270  3.3038 -2.1748
  951MOL0     H28354   8.351   2.855   6.163  0.0481 -0.4836 -0.0598
  951MOL0     H28355   8.422   2.731   5.894  0.8760  0.1533  0.5521
  951MOL0     H28356   8.248   2.753   5.932 -1.4112 -0.2785  3.0057
  951MOL0     H28357   8.267   2.625   6.135  1.2026  2.0022  1.0595
  951MOL0     H28358   8.452   2.615   6.107 -0.6483  0.8370  0.8506
  951MOL0     H28359   8.370   2.505   5.873  1.0508 -1.2058 -0.9558
  951MOL0     H28360   8.346   2.402   6.010 -1.4152 -0.5221 -0.6715
  951MOL0     H28361   8.118   2.565   5.907 -0.5788 -0.1853  0.3579
  951MOL0     H28362   8.122   2.485   6.055  1.4339  0.3496 -0.9977
  951MOL0     H28363   8.133   2.260   5.942 -2.0797  0.1802  0.2362
  951MOL0     H28364   7.994   2.346   5.891 -0.0103 -2.1454 -1.4036
  951MOL0     H28365   8.030   2.836   6.293  1.8664  3.4829  0.4763
  951MOL0     H28366   7.795   2.788   6.289 -0.1637 -0.1797 -0.9037
  951MOL0     H28367   7.364   3.050   6.096  1.6458 -1.0369 -1.2682
  951MOL0     H28368   7.138   3.120   6.141  1.2996 -1.6729 -1.7874
  951MOL0     H28369   7.657   4.133   6.287  2.3096  2.2648 -1.2805
  951MOL0     H28370   7.874   4.226   6.338 -0.4603  0.3341 -2.9631
  951MOL0     H28371   8.163   4.261   6.636  1.3694  1.2973  2.6106
  951MOL0     H28372   8.323   4.392   6.737 -1.9253 -0.1339  0.3787
  951MOL0     H28373   8.467   4.333   6.918  0.5512 -1.6821  1.4946
  951MOL0     H28374   8.535   4.488   6.856  0.8077 -0.1375  1.9036
  951MOL0     H28375   8.757   4.365   6.895 -1.1366 -3.0903 -1.1141
  951MOL0     H28376   8.672   4.251   6.987  0.6791 -0.7785 -0.5742
  951MOL0     H28377   8.585   4.419   7.145  0.8713 -2.5967 -0.1608
  951MOL0     H28378   8.641   4.549   7.035  1.0457 -0.3515 -1.4529
  951MOL0     H28379   8.881   4.481   7.068 -1.3141  2.9702  1.0098
  951MOL0     H28380   8.805   4.532   7.219  0.4032  0.2770 -0.2867
  951MOL0     H28381   8.908   4.129   7.314 -1.9253 -1.0088 -1.0051
  951MOL0     H28382   8.635   4.144   6.599  0.2245 -1.7766 -0.8551
  951MOL0     H28383   8.506   3.885   6.474 -0.5876 -0.1891  0.1473
  951MOL0     H28384   8.453   3.967   6.325 -1.7838 -0.9309  0.0807
  951MOL0     H28385   8.604   4.008   6.394 -1.3310  1.6484 -0.8088
  952MOL0     O28386   2.437   7.117   8.565 -0.5006  0.3479  0.2286
  952MOL0     C28387   2.504   7.211   8.517  0.3604  1.7695  0.0918
  952MOL0     O28388   2.456   7.297   8.427  0.8956 -0.6932 -0.2607
  952MOL0     C28389   2.322   7.288   8.387  0.0344  0.4376 -0.6017
  952MOL0     C28390   2.232   7.354   8.456  0.6620 -0.6640  0.4059
  952MOL0     C28391   2.097   7.360   8.420 -0.6795 -1.3203 -0.9445
  952MOL0     C28392   2.053   7.262   8.331  1.3204  0.1613 -0.1131
  952MOL0     O28393   1.918   7.248   8.311  1.0802 -0.2568 -0.1062
  952MOL0     C28394   1.876   7.289   8.185 -0.2294 -0.0654  0.3028
  952MOL0     C28395   1.722   7.302   8.181 -0.2644  0.0290  0.3286
  952MOL0     C28396   1.662   7.207   8.085 -0.6315  0.8269  0.5149
  952MOL0     C28397   1.647   7.069   8.132 -0.0474  0.2707  0.0487
  952MOL0     C28398   1.581   6.982   8.039 -0.2027  0.0955  1.1425
  952MOL0     C28399   1.518   6.863   8.102 -0.1317  0.9271 -0.0792
  952MOL0     C28400   1.475   6.748   8.005  0.3848 -0.4340  0.0321
  952MOL0     C28401   1.422   6.636   8.082  0.3898  0.6222  0.0848
  952MOL0     N28402   1.381   6.527   7.990 -0.1675  0.4634 -0.6228
  952MOL0     C28403   1.466   6.446   7.914  0.6540 -0.1086  0.3233
  952MOL0     C28404   1.371   6.385   7.834 -0.3003  0.3895  0.4132
  952MOL0     C28405   1.397   6.285   7.721 -0.4028  0.8125 -0.2000
  952MOL0     C28406   1.540   6.257   7.682 -0.0920 -0.0514  0.0884
  952MOL0     C28407   1.603   6.157   7.788  0.2160 -0.1550 -0.7514
  952MOL0     C28408   1.724   6.090   7.728 -0.8119 -0.4938 -0.2690
  952MOL0     O28409   1.809   6.028   7.824 -0.1270  0.5341 -0.4261
  952MOL0     C28410   1.889   5.941   7.762 -0.4799 -0.4175  0.7386
  952MOL0     C28411   1.992   5.994   7.690  0.2111  0.7138 -0.1645
  952MOL0     C28412   2.079   5.905   7.629  1.3000 -0.9226  0.2603
  952MOL0     C28413   2.062   5.763   7.634 -0.0247 -0.3424 -0.6400
  952MOL0     C28414   2.167   5.679   7.556 -0.3185 -0.6333 -0.3935
  952MOL0     O28415   2.161   5.542   7.565 -0.1363 -0.4354 -0.4227
  952MOL0     C28416   2.273   5.469   7.522  0.1045  0.2045 -0.3097
  952MOL0     C28417   2.242   5.355   7.456  0.0879 -0.3332 -0.1689
  952MOL0     C28418   2.345   5.270   7.412  1.2248  0.1830 -0.2281
  952MOL0     C28419   2.483   5.305   7.436  0.0591  0.3741  0.2129
  952MOL0     O28420   2.583   5.225   7.393  0.3934  1.1351  0.1152
  952MOL0     C28421   2.708   5.288   7.360  1.7724  0.9787 -0.0311
  952MOL0     C28422   2.806   5.180   7.313 -0.5304  0.5624 -0.4401
  952MOL0     C28423   2.840   5.078   7.419  0.4725 -0.8222  0.0566
  952MOL0     C28424   2.949   4.986   7.372 -0.1771 -0.7944 -0.3136
  952MOL0     C28425   2.988   4.865   7.460  0.1316  0.1150  0.9573
  952MOL0     C28426   3.105   4.907   7.539  0.9245 -0.8679  0.4836
  952MOL0     C28427   3.138   4.799   7.634  0.3755 -0.2611 -0.4369
  952MOL0     C28428   3.011   4.777   7.733 -0.5772  0.1575  0.2791
  952MOL0    Cl28429   3.072   4.652   7.837 -0.0211  0.2780  0.0678
  952MOL0     C28430   2.509   5.419   7.515  1.0280  0.8545 -0.3008
  952MOL0     C28431   2.403   5.498   7.563  0.0233  0.2326 -0.3891
  952MOL0     O28432   2.242   5.737   7.481  0.1776  0.1420  0.5327
  952MOL0     C28433   1.956   5.716   7.705  0.7509  0.8550  0.8280
  952MOL0     C28434   1.860   5.804   7.763  0.3068  0.8274  0.7541
  952MOL0     N28435   1.239   6.405   7.871  0.2722 -0.3442 -0.4579
  952MOL0     N28436   1.250   6.495   7.958  0.5015 -0.5746 -0.3845
  952MOL0     C28437   2.144   7.192   8.255  1.0851  0.2462 -0.5783
  952MOL0     C28438   2.282   7.208   8.277 -0.2800 -0.3009  0.6145
  952MOL0     C28439   2.651   7.213   8.555 -0.0802  0.2906  0.1990
  952MOL0     C28440   2.736   7.294   8.477 -0.0056 -0.2941  0.6357
  952MOL0     C28441   2.869   7.303   8.493 -0.0423  0.5362  0.8216
  952MOL0     C28442   2.927   7.217   8.586 -1.2037  0.2557 -0.6878
  952MOL0     O28443   3.062   7.210   8.604  0.5378 -0.5112 -0.6034
  952MOL0     C28444   3.126   7.345   8.624 -0.0529  0.6983  0.7587
  952MOL0     C28445   3.198   7.410   8.492 -0.2756 -0.2575 -0.0127
  952MOL0     C28446   3.297   7.317   8.417 -0.7719  0.7342  0.7568
  952MOL0     C28447   3.427   7.314   8.495  0.6009  0.9731  0.4721
  952MOL0     C28448   3.531   7.231   8.422 -0.0550  0.3624  0.2010
  952MOL0     C28449   3.612   7.166   8.360 -0.6350  0.1456 -0.2938
  952MOL0     C28450   2.850   7.142   8.673  0.1269 -0.9335 -0.6763
  952MOL0     C28451   2.712   7.138   8.653  1.5542  1.0770  0.5475
  952MOL0     C28452   2.637   7.039   8.747 -0.3549  0.8436 -0.4206
  952MOL0     H28453   2.247   7.425   8.538 -0.4428  1.0579 -0.8011
  952MOL0     H28454   2.033   7.415   8.488 -0.2207 -0.2598 -1.3520
  952MOL0     H28455   1.920   7.386   8.158 -0.5593 -0.3266 -1.2240
  952MOL0     H28456   1.895   7.218   8.105 -4.0463  0.7107 -1.4959
  952MOL0     H28457   1.696   7.402   8.146  0.6179 -0.8614 -3.2160
  952MOL0     H28458   1.671   7.297   8.278  0.1123 -0.6890  0.5026
  952MOL0     H28459   1.721   7.220   7.994 -2.6151 -1.5460 -1.2492
  952MOL0     H28460   1.559   7.240   8.071 -2.1803 -2.0816  3.6030
  952MOL0     H28461   1.745   7.023   8.146  0.5087  0.9749 -1.3597
  952MOL0     H28462   1.587   7.080   8.223  1.5157 -0.7438  1.2473
  952MOL0     H28463   1.500   7.027   7.980  1.4913  1.8415  0.0521
  952MOL0     H28464   1.652   6.952   7.962 -2.1631  2.6959 -1.9151
  952MOL0     H28465   1.587   6.823   8.177  1.2391  1.2094 -1.1675
  952MOL0     H28466   1.429   6.891   8.160 -1.2232 -1.9378 -0.2264
  952MOL0     H28467   1.557   6.718   7.939 -0.2915 -0.1837 -0.9510
  952MOL0     H28468   1.394   6.783   7.940  1.1761  0.5245 -0.4703
  952MOL0     H28469   1.494   6.600   8.156  1.0348 -1.7382 -1.5382
  952MOL0     H28470   1.336   6.671   8.140  1.3845 -0.2529  2.1937
  952MOL0     H28471   1.574   6.444   7.911  0.6413  0.1510 -0.5118
  952MOL0     H28472   1.346   6.193   7.748 -0.3484  0.4425 -1.3157
  952MOL0     H28473   1.337   6.303   7.632 -0.7831  0.8651  0.0605
  952MOL0     H28474   1.519   6.211   7.585 -1.8558 -0.7670  0.7595
  952MOL0     H28475   1.596   6.349   7.662  0.1079  0.4654  2.6404
  952MOL0     H28476   1.527   6.082   7.809  0.1094  0.0323 -0.4555
  952MOL0     H28477   1.616   6.202   7.888 -1.3358  1.3855 -1.1896
  952MOL0     H28478   1.785   6.161   7.673 -0.5586  1.1345  1.9669
  952MOL0     H28479   1.699   6.013   7.654  3.0704 -0.9431 -1.3492
  952MOL0     H28480   2.022   6.098   7.695 -2.2831  1.4732  0.5184
  952MOL0     H28481   2.161   5.961   7.586 -0.0713 -0.4193 -1.8331
  952MOL0     H28482   2.141   5.321   7.434 -0.2407 -0.6376  1.6677
  952MOL0     H28483   2.322   5.177   7.362 -0.6870  0.6502 -0.2927
  952MOL0     H28484   2.688   5.357   7.278  3.0709 -2.1508 -3.2302
  952MOL0     H28485   2.758   5.333   7.446  0.3094  0.4422  1.1475
  952MOL0     H28486   2.755   5.126   7.232  0.9436 -1.3196 -0.1736
  952MOL0     H28487   2.886   5.233   7.262 -0.8640  2.5761  1.0141
  952MOL0     H28488   2.880   5.131   7.506  1.6200 -0.0753 -0.8929
  952MOL0     H28489   2.744   5.029   7.440  0.0577 -0.6150 -1.2726
  952MOL0     H28490   3.036   5.050   7.354 -2.2330  3.7818  3.6913
  952MOL0     H28491   2.916   4.948   7.275 -2.0255  3.5302 -1.6020
  952MOL0     H28492   3.016   4.786   7.389 -3.2668  0.4960 -1.0273
  952MOL0     H28493   2.896   4.840   7.513 -0.1254 -2.0382 -0.3827
  952MOL0     H28494   3.191   4.929   7.475  0.0230 -1.0141 -0.8223
  952MOL0     H28495   3.090   5.005   7.585  3.1456  0.9005 -2.2118
  952MOL0     H28496   3.236   4.822   7.679  1.4398  1.3528 -3.3440
  952MOL0     H28497   3.143   4.702   7.584 -1.6300  0.3316 -1.9110
  952MOL0     H28498   2.981   4.872   7.778  0.5793  1.3452 -1.3211
  952MOL0     H28499   2.927   4.735   7.678 -1.1137  1.1024  0.3522
  952MOL0     H28500   2.604   5.467   7.538  0.0468  1.7439  2.1184
  952MOL0     H28501   2.423   5.574   7.639  2.7722 -1.7041  1.0386
  952MOL0     H28502   1.942   5.609   7.700  3.0133  0.4718  1.5348
  952MOL0     H28503   1.775   5.763   7.817  1.1669 -1.1131  0.7182
  952MOL0     H28504   2.110   7.136   8.167  2.4083 -1.2652 -0.1853
  952MOL0     H28505   2.347   7.154   8.209  2.9475  0.3081  2.9656
  952MOL0     H28506   2.683   7.356   8.405 -1.6064 -2.3643 -0.0422
  952MOL0     H28507   2.925   7.358   8.419 -2.8720  1.2699 -0.9515
  952MOL0     H28508   3.201   7.328   8.701  2.1305  0.9777 -1.2155
  952MOL0     H28509   3.054   7.419   8.661  0.9358  2.4120 -0.5998
  952MOL0     H28510   3.251   7.496   8.534 -0.1122 -1.1475  1.7009
  952MOL0     H28511   3.124   7.448   8.421  0.8083  2.1970  0.0625
  952MOL0     H28512   3.317   7.366   8.321  0.1230  3.1930  2.1024
  952MOL0     H28513   3.245   7.224   8.394 -2.8832  1.8871  0.5252
  952MOL0     H28514   3.473   7.413   8.498 -1.4098  2.0700 -1.9430
  952MOL0     H28515   3.403   7.271   8.593  0.0369 -1.5895 -0.6864
  952MOL0     H28516   3.685   7.111   8.304  1.8738  1.6511  1.2715
  952MOL0     H28517   2.906   7.084   8.745 -1.4828  0.5799  1.9547
  952MOL0     H28518   2.570   6.975   8.687  1.5218 -0.1778 -1.5250
  952MOL0     H28519   2.712   6.973   8.792 -2.4559  0.1437  2.3370
  952MOL0     H28520   2.582   7.087   8.828  0.8025 -0.9912  1.5560
  953MOL0     O28521  10.196   5.285   7.980 -0.0089  0.5861 -0.5639
  953MOL0     C28522  10.279   5.302   8.069 -0.6531 -0.2537  0.6952
  953MOL0     O28523  10.397   5.379   8.052 -0.3552 -0.6204 -0.4762
  953MOL0     C28524  10.432   5.434   7.929  0.6431  1.0416 -0.8063
  953MOL0     C28525  10.570   5.423   7.879  0.0796  0.5503 -0.7171
  953MOL0     C28526  10.598   5.472   7.753 -0.3867 -0.2494 -0.4937
  953MOL0     C28527  10.502   5.543   7.681 -0.4656 -0.3200 -0.3697
  953MOL0     O28528  10.521   5.600   7.561 -0.0591  0.9991  1.1874
  953MOL0     C28529  10.628   5.540   7.477 -0.0691 -0.1930  0.6418
  953MOL0     C28530  10.617   5.586   7.332 -0.3963 -0.4561 -0.3407
  953MOL0     C28531  10.727   5.526   7.246  1.0817  0.0367  0.0000
  953MOL0     C28532  10.839   5.616   7.221  0.2636  0.0020  0.1114
  953MOL0     C28533  10.937   5.553   7.117  0.7210  0.3566  0.3003
  953MOL0     C28534  11.027   5.661   7.068 -0.7216  0.3119 -0.2348
  953MOL0     C28535  11.138   5.595   6.983  1.0075  0.2489  0.0366
  953MOL0     C28536  11.234   5.692   6.913  0.1874 -0.8391  0.3469
  953MOL0     N28537  11.305   5.780   7.001  0.2387  0.0051  0.5349
  953MOL0     C28538  11.345   5.748   7.120  0.2667 -0.6486 -0.5472
  953MOL0     C28539  11.451   5.830   7.144  0.0750 -0.9848 -0.0796
  953MOL0     C28540  11.523   5.851   7.276  0.1466 -0.1297  0.2174
  953MOL0     C28541  11.680   5.827   7.271  0.1420  0.1075  0.4206
  953MOL0     C28542  11.746   5.906   7.141 -0.6382  1.2266 -0.9104
  953MOL0     C28543  11.896   5.905   7.157 -0.0396 -0.2301  0.3543
  953MOL0     O28544  11.939   5.780   7.215  0.2598 -0.2815 -0.1092
  953MOL0     C28545  12.070   5.787   7.274 -0.3018  0.0330  0.1548
  953MOL0     C28546  12.154   5.898   7.256 -0.3236  0.3129  0.6034
  953MOL0     C28547  12.280   5.902   7.308 -0.5476  0.3005 -0.4823
  953MOL0     C28548  12.329   5.797   7.383 -0.6930  0.0529  0.3923
  953MOL0     C28549  12.470   5.793   7.424  0.3041  0.0736 -0.0252
  953MOL0     O28550  12.556   5.875   7.365  0.3605 -0.2324 -0.0151
  953MOL0     C28551  12.682   5.843   7.379 -0.8851 -0.0694  0.1605
  953MOL0     C28552  12.772   5.951   7.398  0.4077 -0.9827 -0.6520
  953MOL0     C28553  12.910   5.937   7.405 -0.2439 -0.4014 -0.4938
  953MOL0     C28554  12.962   5.810   7.388  0.3327  0.1347  0.2578
  953MOL0     O28555  13.099   5.788   7.370 -0.0178 -0.3237 -0.3672
  953MOL0     C28556  13.184   5.900   7.359 -0.2718  0.7514  0.1054
  953MOL0     C28557  13.311   5.841   7.293  0.3467  0.7444 -0.0989
  953MOL0     C28558  13.297   5.788   7.151 -1.1922 -0.2381 -0.9307
  953MOL0     C28559  13.426   5.705   7.115  0.5408  0.4719 -0.7348
  953MOL0     C28560  13.485   5.591   7.211  0.2963 -0.7138  0.1051
  953MOL0     C28561  13.375   5.486   7.214 -0.6937 -0.2606  0.5560
  953MOL0     C28562  13.329   5.411   7.087 -0.7978 -0.4000  0.2218
  953MOL0     C28563  13.430   5.328   7.002 -0.3218 -0.2177  0.2470
  953MOL0    Cl28564  13.335   5.192   6.921  0.1649  0.0108 -0.0217
  953MOL0     C28565  12.884   5.700   7.373  0.7217  0.8977 -0.8715
  953MOL0     C28566  12.743   5.710   7.367 -0.6294 -0.3705 -0.1235
  953MOL0     O28567  12.495   5.705   7.506  0.4377  0.5907  0.3027
  953MOL0     C28568  12.245   5.688   7.406  0.0606  0.2812 -0.2674
  953MOL0     C28569  12.117   5.686   7.353  0.5912  0.1892  0.1144
  953MOL0     N28570  11.470   5.914   7.032 -0.5207  0.6444 -0.8298
  953MOL0     N28571  11.377   5.884   6.955 -0.0822  0.4910  0.2025
  953MOL0     C28572  10.380   5.570   7.743 -0.8460 -0.4958 -0.4779
  953MOL0     C28573  10.350   5.526   7.871  0.5397 -1.0599 -0.1345
  953MOL0     C28574  10.255   5.236   8.207 -0.2274  0.6884  0.2307
  953MOL0     C28575  10.354   5.254   8.298 -0.5726 -1.0321 -0.4224
  953MOL0     C28576  10.345   5.189   8.422  0.1506  0.7028 -0.0321
  953MOL0     C28577  10.238   5.095   8.448 -0.4817 -0.2776 -0.4472
  953MOL0     O28578  10.235   5.038   8.571 -0.3386 -0.0441  0.2885
  953MOL0     C28579  10.153   4.931   8.625 -0.0424 -0.1022  0.3857
  953MOL0     C28580  10.227   4.864   8.740  0.8249  0.0138 -0.7696
  953MOL0     C28581  10.282   4.963   8.849 -0.0949  0.0300  0.5453
  953MOL0     C28582  10.184   5.059   8.909  0.2216  0.1496  0.2185
  953MOL0     C28583  10.248   5.135   9.015  0.3357 -0.3614 -0.2646
  953MOL0     C28584  10.294   5.191   9.116 -1.4533  0.5663  0.5338
  953MOL0     C28585  10.137   5.077   8.358  0.2212 -0.0509  0.3865
  953MOL0     C28586  10.143   5.142   8.233  0.3885  0.1292  0.1831
  953MOL0     C28587  10.035   5.114   8.125 -0.1374 -1.1056 -0.5206
  953MOL0     H28588  10.639   5.363   7.937 -2.2072 -0.5982  0.9965
  953MOL0     H28589  10.701   5.467   7.718  0.2202  0.1426  1.1429
  953MOL0     H28590  10.721   5.569   7.527  1.4776  0.2576 -2.3008
  953MOL0     H28591  10.625   5.430   7.478  0.6440 -0.2243  0.2124
  953MOL0     H28592  10.632   5.692   7.310  1.1068 -0.6886 -0.5329
  953MOL0     H28593  10.518   5.559   7.293 -1.1771 -1.9227  2.4065
  953MOL0     H28594  10.681   5.495   7.151  2.5771 -0.8355 -0.4825
  953MOL0     H28595  10.762   5.432   7.288  0.2352 -0.9755 -1.4380
  953MOL0     H28596  10.805   5.715   7.192 -0.4341 -0.3309 -0.2233
  953MOL0     H28597  10.895   5.614   7.315  1.0966  2.8606 -0.2528
  953MOL0     H28598  11.001   5.476   7.160  0.6528  1.2652  2.0958
  953MOL0     H28599  10.893   5.499   7.032 -0.3691  0.5928  0.7020
  953MOL0     H28600  10.988   5.738   7.002 -0.3986  0.6604 -0.0276
  953MOL0     H28601  11.077   5.714   7.150  3.6835  0.1461 -2.4661
  953MOL0     H28602  11.085   5.550   6.898 -2.5573  2.7236  0.7558
  953MOL0     H28603  11.190   5.518   7.040  0.0461  0.0727  0.6967
  953MOL0     H28604  11.310   5.626   6.871 -1.9562 -3.5068  0.4365
  953MOL0     H28605  11.185   5.742   6.829  0.6356  0.3330  0.7598
  953MOL0     H28606  11.300   5.686   7.198 -0.7944  0.9328  0.1442
  953MOL0     H28607  11.508   5.957   7.297  1.7761 -0.1544  1.7308
  953MOL0     H28608  11.478   5.780   7.346 -1.1692 -1.5537 -1.9490
  953MOL0     H28609  11.716   5.864   7.368 -2.1945 -1.3300  1.9516
  953MOL0     H28610  11.696   5.719   7.272 -4.4782 -0.8087 -0.5398
  953MOL0     H28611  11.702   6.006   7.132 -1.0666  1.1187 -0.1819
  953MOL0     H28612  11.730   5.843   7.054  0.9946 -1.0819  0.3589
  953MOL0     H28613  11.930   5.993   7.212  3.8002 -2.1905  1.5060
  953MOL0     H28614  11.950   5.925   7.064  3.8117  0.9695  2.6253
  953MOL0     H28615  12.127   5.992   7.209 -2.0472 -1.3187 -1.8814
  953MOL0     H28616  12.337   5.990   7.280 -2.4330  2.3356  1.5899
  953MOL0     H28617  12.730   6.051   7.397  0.3784 -0.9974 -1.3802
  953MOL0     H28618  12.973   6.023   7.424 -1.5877  0.1244  2.0925
  953MOL0     H28619  13.145   5.979   7.294 -0.4477  0.1529 -0.5296
  953MOL0     H28620  13.205   5.940   7.459  0.4887  0.9831 -0.1337
  953MOL0     H28621  13.384   5.922   7.300  1.6247 -0.0539 -2.7864
  953MOL0     H28622  13.340   5.765   7.365 -1.9067  0.1858  0.3039
  953MOL0     H28623  13.202   5.738   7.131  0.2105 -1.5001 -5.8287
  953MOL0     H28624  13.287   5.875   7.085 -0.6569 -0.1926 -0.9539
  953MOL0     H28625  13.518   5.760   7.093  2.2257 -0.5221  2.9476
  953MOL0     H28626  13.406   5.657   7.019 -2.5556  0.3154 -0.1340
  953MOL0     H28627  13.493   5.630   7.313 -1.6817 -0.8633  0.3466
  953MOL0     H28628  13.576   5.545   7.169  0.3749  0.3427 -0.9209
  953MOL0     H28629  13.402   5.405   7.281  1.4441 -0.8464 -0.8992
  953MOL0     H28630  13.288   5.537   7.257 -0.4162  0.2211  0.5660
  953MOL0     H28631  13.287   5.487   7.021 -1.1190 -0.7209  0.0543
  953MOL0     H28632  13.241   5.353   7.115  2.0581 -3.4117  4.0832
  953MOL0     H28633  13.479   5.382   6.920  1.4285 -1.6607  0.2877
  953MOL0     H28634  13.499   5.285   7.075 -0.9954  0.6093  1.4046
  953MOL0     H28635  12.926   5.601   7.355 -4.8849 -1.8938 -0.6432
  953MOL0     H28636  12.690   5.621   7.334  0.7549 -1.5290  0.6636
  953MOL0     H28637  12.276   5.604   7.467 -0.4737 -0.2216 -0.6652
  953MOL0     H28638  12.044   5.608   7.373 -0.0448  0.5712 -0.6253
  953MOL0     H28639  10.304   5.632   7.697 -1.5800 -0.1868  1.0818
  953MOL0     H28640  10.259   5.556   7.923  1.2926  1.6291 -0.2368
  953MOL0     H28641  10.440   5.318   8.282 -0.3636 -1.2469 -0.1501
  953MOL0     H28642  10.418   5.208   8.501 -1.3037 -1.7055  2.0245
  953MOL0     H28643  10.131   4.862   8.544  0.0804  3.1170 -2.6301
  953MOL0     H28644  10.056   4.962   8.666 -0.8802 -0.6913 -1.0973
  953MOL0     H28645  10.314   4.808   8.702  1.3505 -0.5269  1.1129
  953MOL0     H28646  10.161   4.788   8.782  1.2008  0.3898  0.5586
  953MOL0     H28647  10.358   5.027   8.804  0.4754 -1.8873 -1.3715
  953MOL0     H28648  10.318   4.895   8.927 -1.6112  0.5095  1.7159
  953MOL0     H28649  10.141   5.137   8.844 -1.9461  0.6169  2.1149
  953MOL0     H28650  10.097   5.000   8.938  1.7705 -0.6516  3.6426
  953MOL0     H28651  10.339   5.210   9.212  0.7914 -0.1120 -0.2989
  953MOL0     H28652  10.059   5.003   8.376 -0.7014  0.5414 -1.0294
  953MOL0     H28653   9.957   5.047   8.160 -1.0171  0.9389  1.7184
  953MOL0     H28654   9.993   5.210   8.093  1.1300 -0.8819 -1.5917
  953MOL0     H28655  10.067   5.069   8.031  2.1834  0.6456 -0.6673
  954MOL0     O28656   4.886  10.076   0.903  0.2762  0.3952  0.1844
  954MOL0     C28657   4.972  10.093   0.813  0.1921 -0.5570 -0.2759
  954MOL0     O28658   5.105  10.117   0.834 -0.4900 -0.4705  0.9002
  954MOL0     C28659   5.144  10.189   0.945 -0.4873 -0.0840 -0.1163
  954MOL0     C28660   5.069  10.277   1.029 -0.0499 -0.3794  0.1160
  954MOL0     C28661   5.132  10.340   1.136 -0.5013  0.4875 -0.0321
  954MOL0     C28662   5.272  10.315   1.160 -0.2087 -0.1171 -0.1032
  954MOL0     O28663   5.343  10.401   1.240  0.5070 -0.3340 -0.0904
  954MOL0     C28664   5.278  10.441   1.362  0.4252  0.1570 -0.2677
  954MOL0     C28665   5.377  10.520   1.458 -0.2855  0.2775  0.2536
  954MOL0     C28666   5.496  10.435   1.497 -0.0229 -0.3955  0.8380
  954MOL0     C28667   5.505  10.379   1.644 -0.5434  0.4737  0.4169
  954MOL0     C28668   5.636  10.301   1.673  0.5967  0.2690  0.2756
  954MOL0     C28669   5.629  10.228   1.814 -0.4585 -0.4452  0.5244
  954MOL0     C28670   5.756  10.151   1.849 -0.6742  0.3088 -0.9691
  954MOL0     C28671   5.755  10.016   1.784  0.1797  0.6032 -0.3261
  954MOL0     N28672   5.852   9.918   1.833  0.1214 -0.5684  0.3713
  954MOL0     C28673   5.982   9.909   1.785 -0.2883 -1.1005 -0.4195
  954MOL0     C28674   6.056   9.847   1.883  0.6751 -0.0159 -0.0900
  954MOL0     C28675   6.207   9.830   1.875 -0.7632 -0.1237  0.4498
  954MOL0     C28676   6.247   9.696   1.916 -0.5790  0.2095  0.2695
  954MOL0     C28677   6.397   9.706   1.941  0.0656 -0.0539 -1.0262
  954MOL0     C28678   6.448   9.576   1.996 -0.1230 -0.6102 -0.0366
  954MOL0     O28679   6.590   9.584   2.018 -0.9687  0.4911 -0.0136
  954MOL0     C28680   6.656   9.470   2.056  0.2240  1.0085  0.1321
  954MOL0     C28681   6.788   9.454   2.034 -0.5621  0.1948  0.6840
  954MOL0     C28682   6.854   9.336   2.071 -0.2605 -0.0587 -0.2978
  954MOL0     C28683   6.783   9.224   2.130  0.3938  0.6592  0.4046
  954MOL0     C28684   6.835   9.088   2.163  1.3055 -0.5965 -0.0778
  954MOL0     O28685   6.758   8.971   2.156  0.3137 -0.0037 -1.0820
  954MOL0     C28686   6.816   8.848   2.166  0.6751  0.0359 -0.5371
  954MOL0     C28687   6.741   8.735   2.216  0.2823 -1.0079 -0.1962
  954MOL0     C28688   6.794   8.610   2.230  0.8713  0.5062  0.2558
  954MOL0     C28689   6.924   8.580   2.184 -0.2346  0.1214 -0.2806
  954MOL0     O28690   6.983   8.456   2.175  0.1085 -0.5262  0.5849
  954MOL0     C28691   6.920   8.333   2.190  0.1726  0.7373 -1.3092
  954MOL0     C28692   6.880   8.294   2.332  0.8947 -0.2265 -0.4906
  954MOL0     C28693   6.830   8.142   2.330 -0.5313 -0.0156 -0.5512
  954MOL0     C28694   6.820   8.083   2.462  0.6004  0.1304 -0.3279
  954MOL0     C28695   6.746   7.945   2.461 -0.4773 -0.8300 -0.0630
  954MOL0     C28696   6.808   7.824   2.387  0.2137 -0.3745 -0.1239
  954MOL0     C28697   6.717   7.696   2.359 -0.1055  0.8437  0.4162
  954MOL0     C28698   6.789   7.597   2.272  0.0863  0.9326  0.0798
  954MOL0    Cl28699   6.671   7.474   2.223  0.3565  0.2998 -0.0044
  954MOL0     C28700   7.000   8.683   2.127  0.0766  0.5059 -0.7191
  954MOL0     C28701   6.941   8.816   2.111  0.3104 -0.4011  0.0991
  954MOL0     O28702   6.946   9.096   2.218  0.1970 -0.8966  0.2666
  954MOL0     C28703   6.649   9.240   2.142 -0.8539  0.2412 -0.0411
  954MOL0     C28704   6.580   9.363   2.106 -0.6760 -0.2855 -1.0953
  954MOL0     N28705   5.963   9.818   1.987 -0.7309  0.7465  0.0703
  954MOL0     N28706   5.837   9.853   1.946  0.1854  0.3939 -0.9629
  954MOL0     C28707   5.343  10.229   1.077 -0.4547  0.6231 -0.6256
  954MOL0     C28708   5.280  10.180   0.965 -0.3328  0.4578  0.3994
  954MOL0     C28709   4.921  10.087   0.677  0.3206 -0.2199 -0.2521
  954MOL0     C28710   4.781  10.088   0.663 -1.4027  0.1244  0.1072
  954MOL0     C28711   4.727  10.090   0.539 -0.5653  1.0741  0.3709
  954MOL0     C28712   4.805  10.107   0.422 -0.3247  0.3249  0.2194
  954MOL0     O28713   4.760  10.114   0.295 -0.2165  0.6910 -0.1301
  954MOL0     C28714   4.640  10.050   0.255  0.2887 -0.3714 -0.7424
  954MOL0     C28715   4.640   9.902   0.252 -1.0504  0.2776 -0.4409
  954MOL0     C28716   4.512   9.850   0.195  0.3191 -1.0703 -0.2962
  954MOL0     C28717   4.535   9.723   0.110 -0.6560  0.3107 -0.0233
  954MOL0     C28718   4.595   9.762  -0.021 -0.2203 -0.4165  0.3211
  954MOL0     C28719   4.652   9.807  -0.121  0.3712  0.1619 -1.1514
  954MOL0     C28720   4.943  10.120   0.437 -0.4010  1.0794  0.5570
  954MOL0     C28721   4.999  10.096   0.560 -0.6254 -0.2852  0.4041
  954MOL0     C28722   5.146  10.073   0.559  0.1576 -0.2877  0.3627
  954MOL0     H28723   4.967  10.300   1.000 -0.3140 -0.1290  1.2026
  954MOL0     H28724   5.073  10.420   1.179 -4.1071 -1.4611 -0.9777
  954MOL0     H28725   5.198  10.513   1.339 -1.5667 -1.5771  0.8482
  954MOL0     H28726   5.236  10.351   1.408  1.6462 -1.0042 -1.3649
  954MOL0     H28727   5.329  10.566   1.545  0.8320 -0.6411  1.3711
  954MOL0     H28728   5.411  10.599   1.389 -0.5423  0.0679 -0.1178
  954MOL0     H28729   5.579  10.505   1.483  1.4197 -1.8369  1.8389
  954MOL0     H28730   5.520  10.356   1.426  0.0359 -0.3138  0.7682
  954MOL0     H28731   5.485  10.457   1.718  2.8443  3.1715 -1.2584
  954MOL0     H28732   5.432  10.301   1.668  2.1743 -1.6022  2.7004
  954MOL0     H28733   5.643  10.228   1.591  0.6837  0.6086 -0.0225
  954MOL0     H28734   5.733  10.352   1.665  2.1964 -2.7809 -1.6174
  954MOL0     H28735   5.603  10.294   1.897  3.9670  0.2729  1.5718
  954MOL0     H28736   5.543  10.163   1.795  0.0943 -1.1904  0.5183
  954MOL0     H28737   5.778  10.138   1.956  1.1959  4.4528 -0.6598
  954MOL0     H28738   5.847  10.206   1.823  1.2508 -0.9411  2.4952
  954MOL0     H28739   5.652   9.981   1.781 -0.6525  2.4633  2.5229
  954MOL0     H28740   5.788  10.028   1.680  5.4811 -2.1817  0.6850
  954MOL0     H28741   6.007   9.967   1.697 -1.1525  1.0750  0.6880
  954MOL0     H28742   6.249   9.853   1.777  1.6080  0.0794  1.4320
  954MOL0     H28743   6.264   9.905   1.931  1.8315 -1.9444  0.4602
  954MOL0     H28744   6.200   9.664   2.009 -2.1272  2.4138  0.3351
  954MOL0     H28745   6.209   9.627   1.840 -1.0736  2.9137 -2.1230
  954MOL0     H28746   6.412   9.771   2.028 -1.2816 -2.4605  1.1564
  954MOL0     H28747   6.458   9.732   1.855  2.4632 -0.4856  0.4433
  954MOL0     H28748   6.421   9.500   1.923  1.3922 -0.0944 -1.1897
  954MOL0     H28749   6.412   9.550   2.096  0.7458 -3.2357 -0.3428
  954MOL0     H28750   6.836   9.532   1.976 -0.9849  0.2096  0.3526
  954MOL0     H28751   6.959   9.320   2.048  0.4821  0.4277  2.3676
  954MOL0     H28752   6.643   8.749   2.259  0.6406 -0.4753  0.4650
  954MOL0     H28753   6.741   8.527   2.276 -1.9244  1.9003 -0.2630
  954MOL0     H28754   6.832   8.318   2.128 -0.6109 -0.1070 -0.0468
  954MOL0     H28755   6.994   8.256   2.169  1.5733  0.9515  2.1804
  954MOL0     H28756   6.969   8.308   2.393  0.6797  0.1527 -0.2561
  954MOL0     H28757   6.795   8.358   2.360 -0.2111 -1.2979 -1.2705
  954MOL0     H28758   6.741   8.127   2.268  0.9660 -0.3817 -2.7029
  954MOL0     H28759   6.904   8.075   2.286 -1.7849  0.5717 -3.8426
  954MOL0     H28760   6.762   8.142   2.534 -1.4515 -2.2368  0.0670
  954MOL0     H28761   6.921   8.072   2.504  0.1142  2.3367  1.6900
  954MOL0     H28762   6.648   7.972   2.420 -0.1875 -1.5416 -1.2641
  954MOL0     H28763   6.739   7.910   2.565 -2.4115  0.6695  0.3760
  954MOL0     H28764   6.827   7.874   2.291 -0.9016 -2.0616 -1.2766
  954MOL0     H28765   6.896   7.788   2.442 -0.0966  1.6696  1.8551
  954MOL0     H28766   6.629   7.730   2.303  3.3150  1.5303 -5.3350
  954MOL0     H28767   6.687   7.654   2.455 -1.6191  0.9686  0.0251
  954MOL0     H28768   6.813   7.652   2.181 -2.4754 -0.7637 -1.7589
  954MOL0     H28769   6.878   7.545   2.311 -1.0421 -0.7605  0.4962
  954MOL0     H28770   7.097   8.663   2.083  0.0731  0.6794 -0.8049
  954MOL0     H28771   6.999   8.890   2.057  0.4170 -0.3531  0.2771
  954MOL0     H28772   6.582   9.165   2.183 -1.0894  0.1873 -0.5117
  954MOL0     H28773   6.472   9.352   2.111 -0.7019  0.3607  1.2209
  954MOL0     H28774   5.451  10.226   1.092 -0.4814  1.0018 -0.3604
  954MOL0     H28775   5.334  10.121   0.891  0.6622 -0.4795  1.8253
  954MOL0     H28776   4.706  10.088   0.742 -1.9382 -0.1466 -0.3902
  954MOL0     H28777   4.619  10.094   0.532 -0.6545 -1.3713 -0.3508
  954MOL0     H28778   4.614  10.097   0.159  1.9856  1.9401 -0.1676
  954MOL0     H28779   4.562  10.079   0.326 -0.8700  0.1218 -2.1564
  954MOL0     H28780   4.662   9.853   0.347 -2.4367  0.6580  0.1042
  954MOL0     H28781   4.736   9.890   0.201  0.9908  3.0438  2.4213
  954MOL0     H28782   4.467   9.924   0.128  0.5251 -0.4700  0.2178
  954MOL0     H28783   4.434   9.833   0.269 -0.0941  0.1372 -0.4270
  954MOL0     H28784   4.586   9.646   0.168  1.2038 -0.2040 -2.1768
  954MOL0     H28785   4.438   9.688   0.075 -0.6819  1.0141 -0.6935
  954MOL0     H28786   4.691   9.839  -0.215  2.7442  0.0228 -0.3070
  954MOL0     H28787   5.004  10.133   0.348 -1.6461  1.1142 -0.3151
  954MOL0     H28788   5.191  10.165   0.599  1.1421 -0.5715 -0.0644
  954MOL0     H28789   5.178   9.989   0.621  2.2773 -0.7885 -1.2816
  954MOL0     H28790   5.194  10.060   0.462  1.8535  0.6209  1.0284
  955MOL0     O28791   0.981  10.421   2.458 -0.5228 -0.3941 -0.4389
  955MOL0     C28792   0.937  10.472   2.557 -0.5360  0.0801 -0.0814
  955MOL0     O28793   0.911  10.601   2.572  0.1751  0.1925 -0.2974
  955MOL0     C28794   0.953  10.709   2.502  0.7066  0.2946 -0.2844
  955MOL0     C28795   0.872  10.821   2.494  0.4444 -0.9123 -0.3786
  955MOL0     C28796   0.927  10.929   2.429 -0.1001 -0.3013 -0.3318
  955MOL0     C28797   1.058  10.929   2.368  0.1542  0.3674  0.2592
  955MOL0     O28798   1.104  11.041   2.303 -0.1040  0.3261  0.3250
  955MOL0     C28799   1.015  11.076   2.195  0.1672 -0.0083 -0.9375
  955MOL0     C28800   1.004  11.227   2.191  0.2456  1.0570  0.1027
  955MOL0     C28801   0.914  11.285   2.079 -0.4880  0.2823  0.0747
  955MOL0     C28802   0.774  11.236   2.109  0.1379  0.1007 -0.6699
  955MOL0     C28803   0.667  11.321   2.029 -0.1318 -0.7398  0.6249
  955MOL0     C28804   0.531  11.243   2.023  0.8133  0.3691  0.8491
  955MOL0     C28805   0.424  11.314   1.945  0.6058  0.8526  0.4364
  955MOL0     C28806   0.303  11.336   2.025  0.6758  0.1060 -0.2220
  955MOL0     N28807   0.337  11.407   2.144 -0.1011  0.7500 -0.3890
  955MOL0     C28808   0.366  11.541   2.133  0.1470  0.7020 -0.2569
  955MOL0     C28809   0.408  11.577   2.256 -0.6422  0.1419 -0.1454
  955MOL0     C28810   0.454  11.706   2.304 -0.7718 -0.6267  0.4752
  955MOL0     C28811   0.599  11.713   2.325 -0.7189 -0.5021 -0.2265
  955MOL0     C28812   0.703  11.680   2.213 -0.4810 -0.1608  0.0494
  955MOL0     C28813   0.660  11.746   2.079 -0.0642  0.0226 -0.1150
  955MOL0     O28814   0.738  11.698   1.964 -0.4308 -0.8779  0.7948
  955MOL0     C28815   0.863  11.757   1.943  0.5638  0.9754 -0.7639
  955MOL0     C28816   0.920  11.725   1.824 -1.1534 -0.8088  0.4624
  955MOL0     C28817   1.042  11.773   1.782  0.1942  0.6524  0.1131
  955MOL0     C28818   1.107  11.874   1.863  0.4049 -0.4691 -0.4121
  955MOL0     C28819   1.235  11.936   1.819 -0.4577  0.0126 -0.4347
  955MOL0     O28820   1.286  12.022   1.913 -0.6872  0.0828 -0.2912
  955MOL0     C28821   1.398  12.104   1.882 -0.1418 -0.1104  0.0682
  955MOL0     C28822   1.477  12.130   1.989 -0.3677 -0.2611  0.3309
  955MOL0     C28823   1.587  12.210   1.976  0.6180  0.2749  0.4949
  955MOL0     C28824   1.617  12.279   1.856  0.5752 -0.3003  0.4278
  955MOL0     O28825   1.713  12.379   1.838  0.6842 -0.4672  0.0715
  955MOL0     C28826   1.810  12.396   1.937  0.0206  0.8599 -0.3183
  955MOL0     C28827   1.905  12.498   1.878  0.3996 -0.0026 -0.6146
  955MOL0     C28828   2.008  12.566   1.970 -0.8346  1.2175  0.5924
  955MOL0     C28829   2.067  12.452   2.059 -0.8517  0.2760 -1.0786
  955MOL0     C28830   2.182  12.508   2.158  0.0459  0.6250  0.2517
  955MOL0     C28831   2.173  12.410   2.281 -1.0179 -0.5486  0.7972
  955MOL0     C28832   2.207  12.262   2.239 -0.1850  0.3943  0.3774
  955MOL0     C28833   2.192  12.157   2.346 -0.4316 -0.1342  0.1104
  955MOL0    Cl28834   2.264  12.202   2.490  0.0088 -0.1974 -0.1057
  955MOL0     C28835   1.540  12.248   1.742  0.0058 -0.5222 -0.2676
  955MOL0     C28836   1.427  12.161   1.757  0.5701  0.0948  0.7792
  955MOL0     O28837   1.283  11.909   1.712  0.3523 -0.4473  0.0468
  955MOL0     C28838   1.047  11.906   1.990 -0.8553  1.1903  0.4627
  955MOL0     C28839   0.928  11.844   2.029 -0.4170 -0.6042 -0.1065
  955MOL0     N28840   0.391  11.470   2.343 -0.0860 -0.7013 -0.4753
  955MOL0     N28841   0.360  11.368   2.269 -0.5798  0.6215  0.5298
  955MOL0     C28842   1.135  10.813   2.380  0.8630  0.4994  0.1615
  955MOL0     C28843   1.088  10.702   2.445  0.1089  0.2335 -0.5813
  955MOL0     C28844   0.910  10.384   2.678  0.5410  0.1617  0.0252
  955MOL0     C28845   0.934  10.444   2.801  0.4344 -0.3782 -0.2017
  955MOL0     C28846   0.911  10.377   2.924  0.1654  0.1503  1.0526
  955MOL0     C28847   0.855  10.245   2.916  0.0118 -0.7416  0.2087
  955MOL0     O28848   0.837  10.176   3.031 -0.3741  0.6911 -0.7360
  955MOL0     C28849   0.939  10.075   3.060  0.8980  0.7573  0.3296
  955MOL0     C28850   0.917  10.024   3.195  0.1313  0.3372 -0.2579
  955MOL0     C28851   0.771   9.964   3.211  0.5368  0.0429 -0.3327
  955MOL0     C28852   0.762   9.873   3.334  0.1547 -0.3529  0.1180
  955MOL0     C28853   0.719   9.739   3.307  0.2547  0.0507  0.5796
  955MOL0     C28854   0.686   9.624   3.269 -0.1702 -0.2888 -0.6318
  955MOL0     C28855   0.842  10.189   2.792  0.4744  0.1786  0.7930
  955MOL0     C28856   0.873  10.247   2.673 -0.7066 -0.5016  0.1537
  955MOL0     C28857   0.844  10.168   2.539 -0.4543  0.3338 -0.2701
  955MOL0     H28858   0.782  10.831   2.554 -0.1539  2.7628 -1.6308
  955MOL0     H28859   0.866  11.018   2.422 -4.5157 -2.7077  2.6292
  955MOL0     H28860   1.052  11.058   2.094 -2.5095  0.8126 -2.1516
  955MOL0     H28861   0.912  11.039   2.204  0.6559 -0.9229  2.7174
  955MOL0     H28862   1.104  11.271   2.181  0.0406  1.5935  0.3659
  955MOL0     H28863   0.974  11.267   2.289  3.0354 -0.7395  1.8308
  955MOL0     H28864   0.948  11.260   1.978 -2.3827 -0.5087 -0.4108
  955MOL0     H28865   0.910  11.394   2.082 -4.8472  0.3553 -1.2147
  955MOL0     H28866   0.779  11.129   2.083 -0.9182 -0.1606  0.1006
  955MOL0     H28867   0.752  11.250   2.215 -0.2126  2.2387 -0.9880
  955MOL0     H28868   0.644  11.418   2.075 -4.7150 -2.0286  1.6224
  955MOL0     H28869   0.694  11.335   1.924 -1.1716 -3.0885 -0.0281
  955MOL0     H28870   0.557  11.148   1.975 -0.0213  0.1980  0.7105
  955MOL0     H28871   0.493  11.213   2.121 -1.2474  1.7993  0.5505
  955MOL0     H28872   0.404  11.258   1.853  0.9244  3.2823 -1.2089
  955MOL0     H28873   0.462  11.409   1.908 -1.0465  1.6016  0.5827
  955MOL0     H28874   0.226  11.394   1.973  0.7268 -0.2107 -0.6490
  955MOL0     H28875   0.260  11.241   2.058  1.2063 -0.3961 -0.9771
  955MOL0     H28876   0.368  11.610   2.049 -2.0427  3.3832  1.7073
  955MOL0     H28877   0.398  11.779   2.245 -0.6794 -1.2777 -0.4299
  955MOL0     H28878   0.413  11.731   2.403  3.6586  0.2252  2.3824
  955MOL0     H28879   0.609  11.819   2.349  2.3791 -0.7049 -0.2333
  955MOL0     H28880   0.632  11.658   2.414  1.3831 -1.3373 -1.4416
  955MOL0     H28881   0.716  11.572   2.201  0.2264 -0.0228 -0.5111
  955MOL0     H28882   0.799  11.719   2.247 -1.0593  0.4994  0.9639
  955MOL0     H28883   0.651  11.855   2.088  0.6252  0.0513  0.3111
  955MOL0     H28884   0.555  11.721   2.065 -0.1239 -0.9785  1.8158
  955MOL0     H28885   0.865  11.667   1.751 -1.3340 -0.2197  0.1254
  955MOL0     H28886   1.081  11.748   1.684 -2.4535 -0.2714 -0.8042
  955MOL0     H28887   1.464  12.082   2.085  2.9710 -1.6454  0.2129
  955MOL0     H28888   1.640  12.216   2.071 -0.3743 -0.1037  1.0891
  955MOL0     H28889   1.764  12.426   2.032 -0.1748 -1.7815  0.5060
  955MOL0     H28890   1.863  12.302   1.958  1.1070  1.6540  0.6275
  955MOL0     H28891   1.961  12.448   1.798 -2.3992 -0.2927 -2.5390
  955MOL0     H28892   1.836  12.576   1.845 -3.0193 -1.3742  2.5329
  955MOL0     H28893   2.087  12.621   1.918  0.5083 -0.8128  0.4076
  955MOL0     H28894   1.959  12.642   2.032  1.6175  2.2068  1.4342
  955MOL0     H28895   2.109  12.368   2.004  2.3495 -0.2194  1.7599
  955MOL0     H28896   1.988  12.414   2.124  0.7560 -1.5804 -0.1092
  955MOL0     H28897   2.147  12.606   2.192 -2.4916 -0.3857  0.7658
  955MOL0     H28898   2.281  12.520   2.114 -0.1298 -1.2460 -0.7511
  955MOL0     H28899   2.259  12.448   2.337  2.3898 -1.3824 -3.3047
  955MOL0     H28900   2.077  12.420   2.332 -1.7677 -0.5640 -0.5464
  955MOL0     H28901   2.312  12.254   2.212  1.0524 -0.0608  4.6170
  955MOL0     H28902   2.135  12.220   2.168  0.2293 -1.6262  1.0654
  955MOL0     H28903   2.085  12.156   2.368 -0.2589  0.3877  1.0274
  955MOL0     H28904   2.229  12.057   2.319  0.7796 -0.2672  2.0341
  955MOL0     H28905   1.553  12.296   1.645 -2.6967 -1.0934 -1.0046
  955MOL0     H28906   1.356  12.138   1.678  1.9533  0.6883 -0.6937
  955MOL0     H28907   1.088  11.981   2.057  1.3819  0.7565 -0.3379
  955MOL0     H28908   0.891  11.882   2.123 -0.9346  3.3926 -1.7095
  955MOL0     H28909   1.231  10.821   2.329 -0.5425  2.3388 -2.4661
  955MOL0     H28910   1.152  10.615   2.455 -0.0076  0.2977  1.0669
  955MOL0     H28911   0.981  10.542   2.804  2.0841 -0.9885 -3.0454
  955MOL0     H28912   0.937  10.417   3.022  3.5105 -1.9407  1.1764
  955MOL0     H28913   1.039  10.118   3.052  2.0647 -1.7898  0.2267
  955MOL0     H28914   0.930   9.993   2.988  0.0574 -1.2423  2.5752
  955MOL0     H28915   0.916  10.102   3.271 -3.8405 -1.9944  2.5274
  955MOL0     H28916   1.004   9.963   3.221  0.1705  0.1457 -0.8268
  955MOL0     H28917   0.743   9.899   3.128 -0.4213 -1.8199  1.3561
  955MOL0     H28918   0.701  10.047   3.223  1.8297  1.2160 -0.5746
  955MOL0     H28919   0.857   9.869   3.388  0.2177 -0.4903 -0.0003
  955MOL0     H28920   0.696   9.926   3.403  1.6226  1.9882 -0.1793
  955MOL0     H28921   0.666   9.523   3.238 -1.0030 -0.8993  1.7098
  955MOL0     H28922   0.807  10.086   2.781  0.3684  0.3320 -0.3520
  955MOL0     H28923   0.795  10.234   2.466  1.1686 -1.3456 -3.0734
  955MOL0     H28924   0.940  10.138   2.497  0.4404  1.0845  1.1557
  955MOL0     H28925   0.789  10.077   2.564 -0.1841 -0.3517 -2.0397
  956MOL0     O28926   7.027  10.588   7.263  0.5806 -0.2936  0.0392
  956MOL0     C28927   7.070  10.704   7.262  0.9813  0.6602  1.6576
  956MOL0     O28928   7.178  10.751   7.194 -0.0178 -0.0493  1.0026
  956MOL0     C28929   7.288  10.672   7.176  0.8066 -1.3928 -0.2278
  956MOL0     C28930   7.309  10.545   7.231 -0.5235 -0.0528 -0.9425
  956MOL0     C28931   7.433  10.481   7.222 -0.3669 -0.4955  0.0432
  956MOL0     C28932   7.539  10.539   7.146  0.1128  0.9217  0.3194
  956MOL0     O28933   7.651  10.458   7.129  0.3099  0.6281 -0.7381
  956MOL0     C28934   7.772  10.539   7.111  0.1375  0.6188 -0.1868
  956MOL0     C28935   7.879  10.470   7.197  0.1103 -0.1586 -0.0414
  956MOL0     C28936   8.019  10.523   7.172  0.0566  0.3747  0.5154
  956MOL0     C28937   8.098  10.536   7.304 -0.5213 -0.2103  0.0203
  956MOL0     C28938   8.241  10.578   7.264 -0.2382 -0.6313  0.1993
  956MOL0     C28939   8.336  10.461   7.244 -0.3547 -0.8920  0.0154
  956MOL0     C28940   8.483  10.513   7.241 -0.1683  0.5975  0.2638
  956MOL0     C28941   8.611  10.422   7.270  0.0943  0.1317  0.8787
  956MOL0     N28942   8.610  10.376   7.410 -0.5664 -0.1400  0.1655
  956MOL0     C28943   8.596  10.463   7.516 -0.1974  0.3691 -0.0351
  956MOL0     C28944   8.618  10.385   7.618  0.1534 -0.3201 -0.2450
  956MOL0     C28945   8.609  10.407   7.763 -0.0360  0.6169  0.2667
  956MOL0     C28946   8.735  10.335   7.831 -0.9382 -0.0600  0.1860
  956MOL0     C28947   8.866  10.373   7.768 -0.2695  0.0063 -0.5024
  956MOL0     C28948   8.902  10.526   7.781 -0.2828  0.2112 -0.2098
  956MOL0     O28949   9.000  10.556   7.680 -0.1701 -0.1492 -0.1820
  956MOL0     C28950   9.086  10.668   7.689 -0.7009 -0.2515 -0.3270
  956MOL0     C28951   9.065  10.787   7.761 -0.9409 -0.3812 -1.2037
  956MOL0     C28952   9.160  10.894   7.750  0.4182 -0.7908  0.9562
  956MOL0     C28953   9.267  10.890   7.661 -0.7467 -0.1402 -0.4278
  956MOL0     C28954   9.349  11.010   7.641 -0.1197 -0.4733 -1.1614
  956MOL0     O28955   9.318  11.129   7.711 -0.1612 -0.6207  0.2494
  956MOL0     C28956   9.406  11.230   7.696  0.8796 -1.3968  0.0369
  956MOL0     C28957   9.505  11.241   7.797 -0.2116  0.4896 -0.2358
  956MOL0     C28958   9.593  11.343   7.793 -0.0024 -0.0231 -0.4348
  956MOL0     C28959   9.592  11.436   7.695  0.3694  0.1405  0.2208
  956MOL0     O28960   9.680  11.535   7.692 -0.4158  0.2497  0.5387
  956MOL0     C28961   9.809  11.489   7.661  0.2243  0.5025 -0.0975
  956MOL0     C28962   9.908  11.599   7.651 -0.2400  0.3723  0.9163
  956MOL0     C28963   9.937  11.683   7.773  0.5855 -0.1221  0.3565
  956MOL0     C28964  10.087  11.750   7.765  1.2879  0.4182  1.1071
  956MOL0     C28965  10.110  11.831   7.882 -0.4212  0.1022  0.6661
  956MOL0     C28966  10.254  11.888   7.895  0.5132  0.4965  0.2249
  956MOL0     C28967  10.251  12.010   7.997 -0.4341  0.6146  0.2499
  956MOL0     C28968  10.374  12.100   8.005 -0.3311  1.3512  0.0831
  956MOL0    Cl28969  10.423  12.163   7.842  0.2956  0.0303  0.2040
  956MOL0     C28970   9.506  11.422   7.580 -0.0677 -0.5936  0.1489
  956MOL0     C28971   9.402  11.321   7.593  1.0184 -0.4462 -0.1140
  956MOL0     O28972   9.448  11.001   7.569  0.5062 -0.0800 -0.3548
  956MOL0     C28973   9.288  10.773   7.585 -0.3812 -0.3489 -0.8552
  956MOL0     C28974   9.199  10.666   7.613  0.1839 -0.1345 -0.2939
  956MOL0     N28975   8.653  10.254   7.571 -0.0390 -0.5529 -0.6858
  956MOL0     N28976   8.645  10.250   7.441 -0.3678  1.0487  0.0800
  956MOL0     C28977   7.516  10.664   7.081 -0.5024 -0.3215  0.7986
  956MOL0     C28978   7.386  10.730   7.097  0.5775 -0.1403 -0.4743
  956MOL0     C28979   6.986  10.813   7.327  0.3231 -0.0785 -0.4159
  956MOL0     C28980   7.001  10.947   7.289 -0.8594  0.8040 -0.1188
  956MOL0     C28981   6.936  11.058   7.345  0.3800 -0.0805 -1.1510
  956MOL0     C28982   6.861  11.039   7.466 -0.8518 -0.1046  0.9608
  956MOL0     O28983   6.805  11.148   7.517 -0.6433  0.0405  0.6675
  956MOL0     C28984   6.702  11.142   7.622  0.5602  0.0842  1.1977
  956MOL0     C28985   6.632  11.270   7.640 -0.5872  0.7919 -0.3533
  956MOL0     C28986   6.684  11.360   7.747  0.1908 -0.4703 -0.0064
  956MOL0     C28987   6.581  11.479   7.770 -0.8542  0.6909 -0.3232
  956MOL0     C28988   6.559  11.583   7.667 -0.4150 -0.0168 -0.2409
  956MOL0     C28989   6.522  11.678   7.591  0.6445  0.0382 -0.2379
  956MOL0     C28990   6.843  10.909   7.504 -0.0414  0.2323 -0.6589
  956MOL0     C28991   6.903  10.793   7.441  0.7931 -0.6602  0.4543
  956MOL0     C28992   6.883  10.662   7.503  0.5977  1.0028  0.0853
  956MOL0     H28993   7.239  10.495   7.298 -0.5384  2.4076  0.9843
  956MOL0     H28994   7.440  10.380   7.260  1.3313 -0.9220 -1.2582
  956MOL0     H28995   7.798  10.552   7.005 -3.5710  2.0687 -1.0788
  956MOL0     H28996   7.753  10.644   7.136 -1.8399  0.4856 -0.9335
  956MOL0     H28997   7.873  10.361   7.198 -0.7187 -0.1712 -2.1174
  956MOL0     H28998   7.853  10.492   7.301 -0.4170 -0.1877 -0.1662
  956MOL0     H28999   8.014  10.614   7.111  0.2824 -0.6221 -1.0442
  956MOL0     H29000   8.080  10.459   7.108  2.4268  3.9915 -1.1536
  956MOL0     H29001   8.049  10.611   7.367  1.0109  1.9644 -1.2436
  956MOL0     H29002   8.101  10.445   7.366  0.1251 -0.4673 -0.3764
  956MOL0     H29003   8.236  10.642   7.175 -2.6021 -1.9194 -0.6827
  956MOL0     H29004   8.286  10.637   7.344 -0.4308 -0.5203  0.2242
  956MOL0     H29005   8.318  10.382   7.317 -0.2002  0.8560  2.0292
  956MOL0     H29006   8.313  10.420   7.145 -1.4829  0.4810 -0.3251
  956MOL0     H29007   8.490  10.594   7.314  1.2288  1.5724 -0.9122
  956MOL0     H29008   8.490  10.552   7.139 -1.0953 -0.0236 -0.0625
  956MOL0     H29009   8.623  10.336   7.204 -0.3029 -0.7959  1.9905
  956MOL0     H29010   8.704  10.479   7.256 -0.3282  0.5062 -0.5915
  956MOL0     H29011   8.592  10.571   7.528 -1.1984  0.0533  3.6957
  956MOL0     H29012   8.591  10.513   7.785 -0.1583 -0.0627  4.1109
  956MOL0     H29013   8.521  10.358   7.804  0.3125 -2.0239 -1.8518
  956MOL0     H29014   8.738  10.379   7.931  0.4001  2.8475 -1.0178
  956MOL0     H29015   8.728  10.226   7.824 -3.5510 -0.0046  0.8629
  956MOL0     H29016   8.871  10.345   7.662 -0.2909  3.5123 -1.5562
  956MOL0     H29017   8.947  10.311   7.808 -0.6296 -1.0440 -1.3326
  956MOL0     H29018   8.946  10.539   7.880 -1.7040 -0.7115  0.5766
  956MOL0     H29019   8.816  10.593   7.775 -0.0024  1.0017  2.8980
  956MOL0     H29020   8.988  10.795   7.837  0.9375 -1.1939  0.9076
  956MOL0     H29021   9.155  10.982   7.814  1.5501  1.2781 -1.6284
  956MOL0     H29022   9.504  11.163   7.873  1.8896 -1.0767 -1.6894
  956MOL0     H29023   9.661  11.368   7.874  0.0105  2.0085 -1.0096
  956MOL0     H29024   9.845  11.421   7.739 -1.1720 -3.2465 -2.4860
  956MOL0     H29025   9.812  11.428   7.570 -0.4883 -0.4853  0.5154
  956MOL0     H29026   9.996  11.553   7.606  0.3072  1.9827  0.2783
  956MOL0     H29027   9.866  11.673   7.581  1.7945  0.0582 -0.7281
  956MOL0     H29028   9.854  11.753   7.788  1.4689  1.1639 -0.5602
  956MOL0     H29029   9.948  11.630   7.868 -0.1502  0.4679  0.7794
  956MOL0     H29030  10.102  11.818   7.681  2.0103  0.6971  1.4552
  956MOL0     H29031  10.169  11.678   7.765 -0.0338 -1.2426 -1.5289
  956MOL0     H29032  10.090  11.774   7.973 -1.2766 -1.4451 -0.4478
  956MOL0     H29033  10.034  11.910   7.877 -1.6759 -1.0167  1.4368
  956MOL0     H29034  10.331  11.815   7.923  1.0984  1.5539  1.4264
  956MOL0     H29035  10.289  11.913   7.794  1.3573 -0.0762  0.3674
  956MOL0     H29036  10.247  11.975   8.100  1.9608  2.5638  1.1052
  956MOL0     H29037  10.160  12.068   7.984 -1.4337 -0.7462  0.9434
  956MOL0     H29038  10.365  12.177   8.082 -2.0614  1.1610  0.1080
  956MOL0     H29039  10.457  12.040   8.045  0.5961  3.2463  1.1249
  956MOL0     H29040   9.518  11.481   7.489 -0.1807 -1.3690 -0.3840
  956MOL0     H29041   9.319  11.310   7.523  0.8463  2.1735 -0.4244
  956MOL0     H29042   9.376  10.769   7.522  1.0342  2.6278  0.7467
  956MOL0     H29043   9.217  10.574   7.559 -0.0884 -0.2703 -0.1529
  956MOL0     H29044   7.589  10.719   7.022  0.6978 -0.4981  2.0544
  956MOL0     H29045   7.368  10.824   7.046  1.9201 -0.6011 -1.8834
  956MOL0     H29046   7.071  10.958   7.206  0.1815  0.0432  0.6332
  956MOL0     H29047   6.954  11.161   7.314  1.7467  0.1159  0.1431
  956MOL0     H29048   6.726  11.119   7.726 -1.3893  0.9292  1.8771
  956MOL0     H29049   6.626  11.069   7.595  2.2958 -1.6981  0.9014
  956MOL0     H29050   6.531  11.250   7.679  1.0800 -1.3959  3.4240
  956MOL0     H29051   6.628  11.326   7.546  2.4347  1.1827 -0.3214
  956MOL0     H29052   6.783  11.400   7.723  0.2203 -0.1028  0.7148
  956MOL0     H29053   6.686  11.312   7.845  0.6877  2.4782  1.5516
  956MOL0     H29054   6.486  11.430   7.794 -0.6198 -0.3987 -1.5290
  956MOL0     H29055   6.611  11.542   7.854 -2.6814  1.0301  0.1252
  956MOL0     H29056   6.480  11.762   7.540 -0.1930 -0.2281  0.0069
  956MOL0     H29057   6.772  10.887   7.583 -0.2799 -6.0664 -2.1626
  956MOL0     H29058   6.970  10.595   7.502 -2.8979 -4.1090 -0.9012
  956MOL0     H29059   6.857  10.673   7.609 -0.8182 -0.5354 -0.0608
  956MOL0     H29060   6.804  10.602   7.457  0.8345 -0.9978  2.1010
  957MOL0     O29061   3.474   3.841   7.811  0.0073 -0.0193 -0.2380
  957MOL0     C29062   3.525   3.745   7.876  0.0121 -0.0537  0.3623
  957MOL0     O29063   3.655   3.706   7.875 -0.6657 -1.3559  0.0623
  957MOL0     C29064   3.760   3.766   7.796  0.3623 -0.1403  0.8502
  957MOL0     C29065   3.764   3.905   7.755  0.9209 -0.6964  0.0999
  957MOL0     C29066   3.880   3.964   7.695  1.0545 -0.9137  0.0621
  957MOL0     C29067   3.998   3.887   7.684 -0.8732  0.6338 -0.5935
  957MOL0     O29068   4.110   3.930   7.620  0.1088 -0.0181  0.3178
  957MOL0     C29069   4.107   4.050   7.550 -0.5434 -1.0311  0.0881
  957MOL0     C29070   4.252   4.090   7.510 -0.4883 -0.0876  0.1222
  957MOL0     C29071   4.354   4.067   7.625 -0.0227 -0.0799 -0.7738
  957MOL0     C29072   4.309   4.140   7.753 -0.9921  0.3548  0.2600
  957MOL0     C29073   4.410   4.135   7.863  0.1857  0.1281  0.6867
  957MOL0     C29074   4.550   4.183   7.821 -0.1205 -0.4230 -0.1175
  957MOL0     C29075   4.651   4.189   7.942  0.1919 -0.0099  0.7616
  957MOL0     C29076   4.773   4.259   7.889 -0.1195 -1.0009  0.6240
  957MOL0     N29077   4.885   4.260   7.985 -0.4365 -0.3928 -0.1213
  957MOL0     C29078   5.018   4.300   7.966  0.1228 -0.7486  0.2080
  957MOL0     C29079   5.074   4.304   8.093  0.1275 -0.8208  0.4748
  957MOL0     C29080   5.223   4.317   8.122 -0.3099 -0.0955  0.5634
  957MOL0     C29081   5.303   4.197   8.083  0.2829  0.5420 -0.4805
  957MOL0     C29082   5.453   4.231   8.049 -0.8374 -0.5266  0.3355
  957MOL0     C29083   5.497   4.200   7.906 -0.3290  0.6574  0.2511
  957MOL0     O29084   5.575   4.074   7.891 -0.0872 -0.0039 -0.1451
  957MOL0     C29085   5.706   4.077   7.927  0.2169 -0.0947 -0.7754
  957MOL0     C29086   5.769   4.182   7.988 -0.5168 -0.2122  0.3537
  957MOL0     C29087   5.905   4.174   8.018 -0.0846 -0.3938  0.3777
  957MOL0     C29088   5.983   4.061   7.994  0.4954 -0.0397 -0.0227
  957MOL0     C29089   6.120   4.045   8.039 -0.4581 -0.6171  0.4449
  957MOL0     O29090   6.174   3.926   8.012 -0.0912 -0.1364  1.2423
  957MOL0     C29091   6.309   3.899   8.038  0.3330  0.6591  0.3030
  957MOL0     C29092   6.422   3.983   8.063 -0.5198 -0.1935 -0.8060
  957MOL0     C29093   6.543   3.930   8.080  0.7546  1.4179 -1.1788
  957MOL0     C29094   6.559   3.785   8.081 -0.4748 -0.8140 -0.1651
  957MOL0     O29095   6.682   3.724   8.102  0.3905 -0.3482  0.2439
  957MOL0     C29096   6.793   3.818   8.136  0.2726 -0.0743 -0.0992
  957MOL0     C29097   6.907   3.734   8.189  0.1230 -0.3301  0.2510
  957MOL0     C29098   6.989   3.663   8.081  0.3334  0.5295  0.1540
  957MOL0     C29099   7.112   3.586   8.142 -1.1848 -0.3430 -0.4448
  957MOL0     C29100   7.187   3.521   8.020  1.2391  0.6068  0.2826
  957MOL0     C29101   7.295   3.429   8.074  0.0448  0.3189  0.1915
  957MOL0     C29102   7.411   3.399   7.971 -0.5457  0.0079  0.2287
  957MOL0     C29103   7.499   3.521   7.937  0.0547 -0.2703 -0.5944
  957MOL0    Cl29104   7.639   3.458   7.850 -0.1292  0.4088  0.0670
  957MOL0     C29105   6.449   3.700   8.072 -0.6533  0.6782  0.3711
  957MOL0     C29106   6.332   3.763   8.038  0.2789 -0.3193 -0.0035
  957MOL0     O29107   6.181   4.149   8.083 -0.2531 -0.5018 -0.1486
  957MOL0     C29108   5.918   3.961   7.929 -0.5047  0.0135  0.6547
  957MOL0     C29109   5.783   3.969   7.889  0.0771  0.7333  0.0603
  957MOL0     N29110   4.982   4.265   8.187 -0.0299  0.1185  0.2955
  957MOL0     N29111   4.866   4.242   8.120 -0.2591 -1.1068  0.4138
  957MOL0     C29112   4.006   3.755   7.737  0.6984 -0.8547  0.1662
  957MOL0     C29113   3.889   3.693   7.784 -0.0020  0.2147  0.3096
  957MOL0     C29114   3.452   3.672   7.974 -0.2286 -0.5647  0.9781
  957MOL0     C29115   3.475   3.532   7.980 -0.8283  0.0085  0.2074
  957MOL0     C29116   3.394   3.452   8.055 -0.4144 -0.1672 -0.1687
  957MOL0     C29117   3.292   3.501   8.135  0.3581  0.0092  0.3796
  957MOL0     O29118   3.221   3.419   8.217  0.3207 -0.0473  0.0401
  957MOL0     C29119   3.251   3.276   8.238  0.4572  0.6453  0.2618
  957MOL0     C29120   3.144   3.249   8.336  0.2862  0.2681 -0.5077
  957MOL0     C29121   3.125   3.091   8.356  0.2691  0.1554  0.0375
  957MOL0     C29122   3.090   3.070   8.502 -0.5002  0.8883 -1.4128
  957MOL0     C29123   3.077   2.928   8.542  1.2721 -0.9130  0.3040
  957MOL0     C29124   3.061   2.817   8.590  0.5386 -0.8763  0.7172
  957MOL0     C29125   3.274   3.639   8.149  1.1334 -0.0711  0.1897
  957MOL0     C29126   3.350   3.727   8.058 -0.3428  0.0823  0.3631
  957MOL0     C29127   3.328   3.873   8.068  0.4879 -0.5204 -0.7305
  957MOL0     H29128   3.687   3.979   7.774 -2.4262 -4.1311  1.2203
  957MOL0     H29129   3.860   4.051   7.633 -0.8044 -1.8927 -0.7916
  957MOL0     H29130   4.044   4.050   7.461 -3.5174  3.0086  1.8819
  957MOL0     H29131   4.070   4.134   7.609 -0.0092 -0.4350 -0.4173
  957MOL0     H29132   4.263   4.193   7.474  0.7623 -0.7412 -1.4928
  957MOL0     H29133   4.266   4.024   7.423  2.3021 -0.3209  0.6505
  957MOL0     H29134   4.448   4.106   7.584 -1.7041  1.1011 -3.7631
  957MOL0     H29135   4.376   3.963   7.649  0.4196  0.8283  3.6924
  957MOL0     H29136   4.286   4.247   7.741  1.5924  0.8939 -0.4749
  957MOL0     H29137   4.211   4.098   7.780 -0.1603 -1.0049  1.2859
  957MOL0     H29138   4.378   4.205   7.941  3.6711  1.1940  1.3387
  957MOL0     H29139   4.432   4.034   7.899 -0.3322 -0.1301  0.2780
  957MOL0     H29140   4.578   4.113   7.742  1.0638  2.7583 -2.7702
  957MOL0     H29141   4.549   4.284   7.778  4.2677 -0.4183 -0.5989
  957MOL0     H29142   4.670   4.085   7.967  0.2272 -0.7528 -2.0349
  957MOL0     H29143   4.607   4.244   8.026 -0.4495  1.2213 -0.3345
  957MOL0     H29144   4.804   4.224   7.790 -1.6090 -0.6883  0.0286
  957MOL0     H29145   4.742   4.363   7.878  1.3358 -0.7662 -2.0983
  957MOL0     H29146   5.066   4.337   7.875  1.0941 -0.7712  0.6986
  957MOL0     H29147   5.252   4.400   8.057 -1.5535  0.8510  1.1724
  957MOL0     H29148   5.236   4.348   8.226  2.1006 -2.5204  1.0994
  957MOL0     H29149   5.285   4.124   8.162 -1.2213  1.4082  0.0194
  957MOL0     H29150   5.248   4.156   7.998 -0.2026 -0.9551  0.5107
  957MOL0     H29151   5.524   4.185   8.118 -1.4098 -2.7974 -0.4979
  957MOL0     H29152   5.461   4.340   8.053  1.4160 -0.5730 -0.8407
  957MOL0     H29153   5.541   4.287   7.856  0.0427  0.9913  1.1422
  957MOL0     H29154   5.397   4.188   7.863  0.0049  0.7941 -0.5908
  957MOL0     H29155   5.716   4.274   8.012 -0.1717  0.4994 -1.5038
  957MOL0     H29156   5.954   4.262   8.058 -0.5431  0.9673 -1.8391
  957MOL0     H29157   6.412   4.090   8.047 -0.5447 -0.0341  0.2590
  957MOL0     H29158   6.625   4.001   8.078  3.3584 -1.3558 -0.5112
  957MOL0     H29159   6.821   3.871   8.045  1.7667  0.0960  0.4434
  957MOL0     H29160   6.763   3.889   8.214 -1.4720  1.6066 -2.1771
  957MOL0     H29161   6.979   3.793   8.246  1.0475 -1.8836  0.7702
  957MOL0     H29162   6.870   3.654   8.255 -1.4356  0.7704  0.7703
  957MOL0     H29163   6.921   3.593   8.032 -1.9663  2.0577  1.0289
  957MOL0     H29164   7.024   3.741   8.012  0.7658 -0.9461 -1.3621
  957MOL0     H29165   7.079   3.503   8.205  0.4458 -1.4994 -1.0322
  957MOL0     H29166   7.186   3.637   8.204 -0.9828 -3.0667  1.7410
  957MOL0     H29167   7.236   3.586   7.948  1.2867 -3.2845 -3.5925
  957MOL0     H29168   7.127   3.458   7.954  3.5940 -0.0653 -1.3129
  957MOL0     H29169   7.339   3.482   8.158 -1.4914  1.4193  0.3463
  957MOL0     H29170   7.245   3.340   8.115 -4.3940  1.5805 -1.7607
  957MOL0     H29171   7.380   3.363   7.872  3.2352  0.4775 -1.2851
  957MOL0     H29172   7.464   3.314   8.016 -2.2889 -1.0204  0.4616
  957MOL0     H29173   7.441   3.578   7.863 -1.0396 -1.0720 -0.3678
  957MOL0     H29174   7.528   3.570   8.030 -2.6405  0.1360  0.0862
  957MOL0     H29175   6.467   3.594   8.059 -0.6347  0.7184  0.0592
  957MOL0     H29176   6.252   3.692   8.021 -0.6718  0.9409 -0.9662
  957MOL0     H29177   5.976   3.871   7.912 -0.7038  0.2145 -1.2454
  957MOL0     H29178   5.719   3.892   7.848 -0.4810  1.3598 -0.2575
  957MOL0     H29179   4.098   3.700   7.720  0.5357  0.0646 -5.1623
  957MOL0     H29180   3.890   3.593   7.825  1.4221  0.2514  0.4247
  957MOL0     H29181   3.546   3.489   7.910  1.8484  3.2372  0.6998
  957MOL0     H29182   3.400   3.343   8.050  1.0947 -0.2440  2.0205
  957MOL0     H29183   3.347   3.252   8.284  0.4030 -0.7538 -0.2870
  957MOL0     H29184   3.246   3.222   8.143 -1.2365 -0.5137  0.9389
  957MOL0     H29185   3.041   3.275   8.309 -1.0598 -2.0318  1.9813
  957MOL0     H29186   3.164   3.302   8.429  5.3533 -0.9887 -0.6034
  957MOL0     H29187   3.219   3.040   8.333 -0.3073 -1.2335  0.6689
  957MOL0     H29188   3.044   3.047   8.298  1.3043  0.2907 -1.5629
  957MOL0     H29189   3.175   3.107   8.560 -0.4736  0.4273 -1.1559
  957MOL0     H29190   2.998   3.126   8.522 -1.1044  0.4340 -2.7738
  957MOL0     H29191   3.047   2.723   8.641 -1.5132  1.0446  4.0456
  957MOL0     H29192   3.194   3.684   8.207  1.8780  0.8893  0.5018
  957MOL0     H29193   3.224   3.901   8.089  1.0572  0.8637  0.3969
  957MOL0     H29194   3.386   3.902   8.156 -2.2845 -1.3847  1.5230
  957MOL0     H29195   3.339   3.937   7.980 -0.0994 -1.6638 -1.6684
  958MOL0     O29196   8.260   1.054   0.528  0.4734  0.1184 -0.6119
  958MOL0     C29197   8.153   1.090   0.588 -0.6545 -0.1938 -0.2506
  958MOL0     O29198   8.132   1.192   0.669 -0.2959  0.0616  0.2777
  958MOL0     C29199   8.239   1.279   0.671  0.3189 -0.5281  0.0033
  958MOL0     C29200   8.360   1.237   0.722  0.2920 -0.0876  0.0471
  958MOL0     C29201   8.465   1.336   0.742  0.2938  0.2534  0.3778
  958MOL0     C29202   8.442   1.467   0.706 -0.9204 -0.4839  0.0604
  958MOL0     O29203   8.535   1.555   0.710 -0.2085 -1.2257 -0.2347
  958MOL0     C29204   8.641   1.541   0.805  0.7092  0.6107 -0.3957
  958MOL0     C29205   8.677   1.687   0.837  0.0695  0.5898  0.7877
  958MOL0     C29206   8.829   1.702   0.817 -0.3957 -0.4362 -0.8021
  958MOL0     C29207   8.881   1.849   0.848 -0.0510 -0.0766 -0.1029
  958MOL0     C29208   9.034   1.848   0.824 -0.3929 -0.9884 -1.1125
  958MOL0     C29209   9.093   1.975   0.864 -0.3425  0.0765  0.4278
  958MOL0     C29210   9.221   2.001   0.782 -0.2279  0.1242  0.2370
  958MOL0     C29211   9.241   2.148   0.776  0.1950  0.6266 -0.6703
  958MOL0     N29212   9.375   2.192   0.752 -0.3091  0.6469  0.1273
  958MOL0     C29213   9.448   2.174   0.630 -0.2476  0.1550 -0.6794
  958MOL0     C29214   9.573   2.222   0.645 -1.2410 -0.9593  0.2773
  958MOL0     C29215   9.680   2.219   0.530  0.6721 -0.1649  0.3233
  958MOL0     C29216   9.799   2.132   0.578 -0.2068  0.0216 -0.3657
  958MOL0     C29217   9.920   2.119   0.480  0.2346 -0.4622 -0.4426
  958MOL0     C29218  10.019   2.009   0.535  0.3669  0.8065  0.4898
  958MOL0     O29219   9.968   1.872   0.528  0.3762 -0.4958  0.3681
  958MOL0     C29220  10.028   1.784   0.447 -0.5037  0.0420  0.1288
  958MOL0     C29221  10.142   1.715   0.486 -0.0064 -0.1491 -0.3263
  958MOL0     C29222  10.186   1.613   0.401 -0.3798  0.1997  0.4996
  958MOL0     C29223  10.124   1.579   0.279  0.0387 -0.7032 -0.0995
  958MOL0     C29224  10.187   1.492   0.182  0.2687 -0.0996  0.0395
  958MOL0     O29225  10.320   1.455   0.202  1.4202  0.2446 -0.4448
  958MOL0     C29226  10.390   1.410   0.100 -0.0545  0.0885  0.8457
  958MOL0     C29227  10.442   1.280   0.114 -0.0870  0.1053 -0.4894
  958MOL0     C29228  10.523   1.231   0.009 -0.5697  0.4961  0.2189
  958MOL0     C29229  10.543   1.305  -0.107 -0.0240 -0.8298 -0.1230
  958MOL0     O29230  10.625   1.251  -0.199  0.5940 -0.9208 -0.5278
  958MOL0     C29231  10.584   1.283  -0.338  0.5506  0.0931  0.1632
  958MOL0     C29232  10.652   1.185  -0.425 -0.5225  0.9166  0.2907
  958MOL0     C29233  10.577   1.051  -0.402  0.3235  1.1323 -0.2353
  958MOL0     C29234  10.481   1.015  -0.518 -0.1723  0.1683 -0.4455
  958MOL0     C29235  10.416   0.875  -0.506 -0.6979 -0.2198 -0.3595
  958MOL0     C29236  10.306   0.849  -0.611 -0.4064  0.4226 -0.4349
  958MOL0     C29237  10.358   0.858  -0.756  0.6808 -0.1008  0.3197
  958MOL0     C29238  10.263   0.790  -0.852  0.6272 -0.6681  0.5579
  958MOL0    Cl29239  10.089   0.871  -0.845 -0.2944  0.3866  0.0599
  958MOL0     C29240  10.480   1.434  -0.118  0.1681  0.1763 -0.7019
  958MOL0     C29241  10.407   1.488  -0.016 -0.8169  0.0640 -0.0639
  958MOL0     O29242  10.114   1.460   0.083 -1.0191 -0.2497  0.7891
  958MOL0     C29243   9.995   1.633   0.252 -0.0979  0.5186  0.3782
  958MOL0     C29244   9.960   1.743   0.336 -0.0728  0.9795  0.3622
  958MOL0     N29245   9.586   2.239   0.780 -0.0268  0.0115 -0.1802
  958MOL0     N29246   9.470   2.231   0.844  0.1604  0.7049  0.3203
  958MOL0     C29247   8.324   1.508   0.641  0.1377  0.1045 -0.0779
  958MOL0     C29248   8.217   1.411   0.633  1.0960 -0.2916 -0.2510
  958MOL0     C29249   8.038   0.991   0.570 -0.3971  0.5175  0.7737
  958MOL0     C29250   7.925   1.009   0.653 -0.2076  0.3994 -0.3808
  958MOL0     C29251   7.820   0.922   0.642  1.2579  1.1228 -0.7948
  958MOL0     C29252   7.820   0.810   0.552  0.3255 -0.3073 -0.4863
  958MOL0     O29253   7.718   0.714   0.547  0.1665 -0.1504  0.2288
  958MOL0     C29254   7.586   0.753   0.598  0.1855 -0.0247 -0.2748
  958MOL0     C29255   7.476   0.673   0.541  0.2372 -0.6118 -0.4477
  958MOL0     C29256   7.344   0.713   0.614  0.4857  0.4239 -0.3166
  958MOL0     C29257   7.259   0.822   0.536 -0.3258 -0.8902 -0.7730
  958MOL0     C29258   7.194   0.760   0.424 -0.5957  0.1217  0.8555
  958MOL0     C29259   7.145   0.711   0.325 -0.3746  0.1892  0.0655
  958MOL0     C29260   7.935   0.795   0.474  0.2272 -0.6140  0.0868
  958MOL0     C29261   8.031   0.894   0.460  0.5603 -0.5610  0.3089
  958MOL0     C29262   8.123   0.893   0.342 -0.1983  0.2596 -1.0751
  958MOL0     H29263   8.385   1.134   0.746  2.2685  0.1368 -0.8258
  958MOL0     H29264   8.560   1.299   0.779  1.3511  0.2685 -2.1358
  958MOL0     H29265   8.605   1.488   0.894 -3.3417 -0.0478 -2.2181
  958MOL0     H29266   8.726   1.484   0.766  1.1314 -0.6183  2.0620
  958MOL0     H29267   8.637   1.716   0.934 -3.3677  0.2387 -0.3895
  958MOL0     H29268   8.637   1.749   0.756 -0.4675  0.1015  0.6776
  958MOL0     H29269   8.852   1.680   0.712 -0.2045 -0.3275 -0.7846
  958MOL0     H29270   8.883   1.634   0.884  1.4663  2.2798  0.6982
  958MOL0     H29271   8.829   1.909   0.772  1.5210 -2.0666 -2.9730
  958MOL0     H29272   8.868   1.869   0.954 -1.2045 -3.8956  0.6281
  958MOL0     H29273   9.074   1.778   0.898 -1.1912 -0.4275 -0.1340
  958MOL0     H29274   9.070   1.817   0.725  1.8114 -0.4169 -0.5575
  958MOL0     H29275   9.029   2.059   0.835  0.8480  0.5652 -0.9163
  958MOL0     H29276   9.110   1.988   0.971  2.9874  3.3075 -0.2551
  958MOL0     H29277   9.203   1.965   0.680 -1.2786 -2.9031  1.3842
  958MOL0     H29278   9.307   1.950   0.825  0.5007  1.2149  0.1108
  958MOL0     H29279   9.172   2.188   0.702  0.3904 -1.4080 -2.0458
  958MOL0     H29280   9.228   2.193   0.875 -0.4337  0.3929 -0.6417
  958MOL0     H29281   9.411   2.140   0.533 -0.8076  0.9016 -0.7282
  958MOL0     H29282   9.635   2.186   0.437  1.0267  0.0518  0.0724
  958MOL0     H29283   9.723   2.319   0.520  0.3392 -0.2907 -4.5323
  958MOL0     H29284   9.827   2.171   0.676 -1.1954 -0.1233 -0.0079
  958MOL0     H29285   9.761   2.031   0.597 -0.6271  0.6622  2.7311
  958MOL0     H29286   9.978   2.210   0.463 -2.0251  0.4707 -4.4337
  958MOL0     H29287   9.883   2.092   0.380 -3.1553  0.8856  0.3052
  958MOL0     H29288  10.053   2.028   0.637  2.3416 -2.8305  0.6683
  958MOL0     H29289  10.111   2.026   0.478  2.2517  0.7686  3.3330
  958MOL0     H29290  10.202   1.735   0.574 -0.4307 -1.6106  0.3364
  958MOL0     H29291  10.279   1.560   0.420 -1.6539 -1.7477  1.6637
  958MOL0     H29292  10.426   1.225   0.206  1.0982 -0.2968 -0.5133
  958MOL0     H29293  10.559   1.129   0.021  0.0294  0.4524 -1.6864
  958MOL0     H29294  10.476   1.274  -0.350  0.1285  0.9953  2.5978
  958MOL0     H29295  10.604   1.384  -0.373 -2.5199  0.3993 -0.9899
  958MOL0     H29296  10.652   1.215  -0.530 -0.1483 -1.7349 -0.5437
  958MOL0     H29297  10.759   1.172  -0.404 -0.9331 -1.9243  0.9702
  958MOL0     H29298  10.652   0.971  -0.396 -1.9071 -1.2261 -1.9155
  958MOL0     H29299  10.523   1.052  -0.307 -2.3435 -1.4257 -1.5663
  958MOL0     H29300  10.539   1.033  -0.608  1.9718 -0.5538  0.7193
  958MOL0     H29301  10.405   1.094  -0.511  0.8983  1.2015 -0.0525
  958MOL0     H29302  10.364   0.862  -0.410  0.3648  1.5050  0.4952
  958MOL0     H29303  10.492   0.797  -0.510  2.3277  2.4219  1.3150
  958MOL0     H29304  10.272   0.746  -0.596 -1.4510  1.0135  1.5893
  958MOL0     H29305  10.219   0.914  -0.596 -1.3536 -0.5848 -1.3832
  958MOL0     H29306  10.462   0.825  -0.770  0.9969  1.2771 -0.9118
  958MOL0     H29307  10.359   0.966  -0.774 -0.9582 -0.1386 -0.1772
  958MOL0     H29308  10.291   0.790  -0.958 -1.6569 -2.0559 -0.1334
  958MOL0     H29309  10.264   0.683  -0.827  0.2592  0.2977  5.5822
  958MOL0     H29310  10.480   1.483  -0.215  1.1834  1.7903  0.0650
  958MOL0     H29311  10.350   1.581  -0.022 -0.1477  0.5561  0.9704
  958MOL0     H29312   9.934   1.610   0.165  1.2788 -0.3226 -0.4093
  958MOL0     H29313   9.870   1.801   0.317  1.6927  3.0891 -2.3210
  958MOL0     H29314   8.298   1.606   0.600 -1.0648 -1.1616 -2.5959
  958MOL0     H29315   8.116   1.439   0.607  0.2091 -2.8572  0.1889
  958MOL0     H29316   7.933   1.070   0.742 -0.3703 -2.4663  1.7305
  958MOL0     H29317   7.729   0.926   0.701  0.2615 -1.7069 -1.9450
  958MOL0     H29318   7.564   0.859   0.580  0.3584  0.8673  3.6479
  958MOL0     H29319   7.597   0.743   0.707  1.6662  0.8682 -0.3025
  958MOL0     H29320   7.496   0.567   0.558  2.3863 -0.8251 -3.3846
  958MOL0     H29321   7.467   0.695   0.434  3.1509  3.2628 -0.1445
  958MOL0     H29322   7.374   0.751   0.713 -0.5017  0.3482  0.0183
  958MOL0     H29323   7.276   0.629   0.628  1.1467  0.1065  1.2593
  958MOL0     H29324   7.181   0.872   0.595 -0.1766 -0.7237 -0.7186
  958MOL0     H29325   7.330   0.886   0.484 -0.9364 -0.7290 -1.4284
  958MOL0     H29326   7.101   0.659   0.242 -2.9757  3.3894 -0.7645
  958MOL0     H29327   7.928   0.714   0.402 -2.3824 -0.9726  0.6473
  958MOL0     H29328   8.135   0.999   0.318  0.0339  0.5335  0.1411
  958MOL0     H29329   8.217   0.841   0.359  1.4885  2.9664 -1.4769
  958MOL0     H29330   8.073   0.853   0.254  0.2106 -0.6962 -0.8794
  959MOL0     O29331   6.214  10.217   6.236  0.2473  0.1832 -0.6671
  959MOL0     C29332   6.159  10.245   6.342 -0.4342 -0.8590  0.7555
  959MOL0     O29333   6.198  10.189   6.464  0.5544 -0.4908 -0.3113
  959MOL0     C29334   6.274  10.083   6.455 -0.7474  0.2422  1.1222
  959MOL0     C29335   6.415  10.089   6.444  0.0818 -0.3342 -0.8457
  959MOL0     C29336   6.490   9.982   6.426  0.4373 -0.2658 -0.3473
  959MOL0     C29337   6.422   9.860   6.424 -0.4745 -0.1175  0.3376
  959MOL0     O29338   6.497   9.751   6.422 -0.2355 -0.2580 -0.3309
  959MOL0     C29339   6.472   9.670   6.305  0.0812 -0.1733 -0.8350
  959MOL0     C29340   6.598   9.660   6.222 -0.3726  0.0913 -0.7025
  959MOL0     C29341   6.722   9.581   6.281 -0.1223 -0.5962  0.2131
  959MOL0     C29342   6.841   9.628   6.196 -0.2496 -0.0272 -0.4386
  959MOL0     C29343   6.948   9.516   6.198  0.1386 -0.1061 -0.4171
  959MOL0     C29344   7.052   9.558   6.094 -0.5026 -0.0373  0.0785
  959MOL0     C29345   7.193   9.485   6.101  0.2033  1.2560  0.2135
  959MOL0     C29346   7.186   9.339   6.163  0.9425 -0.7060  0.2213
  959MOL0     N29347   7.320   9.286   6.147  0.4408  0.1243  0.3493
  959MOL0     C29348   7.437   9.329   6.202  1.2629 -0.8749 -0.6700
  959MOL0     C29349   7.533   9.248   6.155 -0.0341  0.7933 -0.0429
  959MOL0     C29350   7.680   9.229   6.185 -0.1740  0.5442  1.4570
  959MOL0     C29351   7.767   9.313   6.089  0.4316  0.3490 -0.1670
  959MOL0     C29352   7.909   9.328   6.135 -0.4500  0.1464 -0.3480
  959MOL0     C29353   7.982   9.191   6.156  0.5228 -1.3039 -0.1045
  959MOL0     O29354   8.123   9.223   6.153 -0.5040  0.0991  0.1877
  959MOL0     C29355   8.181   9.250   6.036 -1.1794  0.3200 -0.1789
  959MOL0     C29356   8.288   9.334   6.041  0.1461  0.2886 -0.2736
  959MOL0     C29357   8.355   9.386   5.921 -0.4307  0.0602  0.1463
  959MOL0     C29358   8.319   9.327   5.794 -0.7361  0.1471 -0.2282
  959MOL0     C29359   8.389   9.362   5.666 -0.3129 -0.4735 -0.8254
  959MOL0     O29360   8.311   9.352   5.559  0.3808 -0.3793 -0.8868
  959MOL0     C29361   8.360   9.369   5.441 -1.1816  0.5583 -0.4447
  959MOL0     C29362   8.336   9.490   5.388 -0.2604 -1.1949  1.0352
  959MOL0     C29363   8.383   9.522   5.260 -1.1256 -0.6643  0.9231
  959MOL0     C29364   8.445   9.421   5.182  1.0778  0.1384  0.9943
  959MOL0     O29365   8.485   9.464   5.053  0.4193  0.4913 -0.3836
  959MOL0     C29366   8.502   9.359   4.955 -0.1023 -1.0997  0.2775
  959MOL0     C29367   8.553   9.418   4.820  0.2122  0.8182 -0.0906
  959MOL0     C29368   8.677   9.507   4.832 -0.1673  0.0619 -0.1012
  959MOL0     C29369   8.801   9.455   4.912  0.1340  0.1876 -1.0640
  959MOL0     C29370   8.908   9.560   4.894  1.1450  0.1539  0.4200
  959MOL0     C29371   9.037   9.533   4.969  0.4809  0.7742  0.3256
  959MOL0     C29372   9.139   9.648   4.954  0.3436  0.5665 -0.4678
  959MOL0     C29373   9.097   9.793   4.957  0.1430 -0.1510  0.1416
  959MOL0    Cl29374   9.001   9.840   5.105 -0.2146  0.3462  0.3870
  959MOL0     C29375   8.454   9.293   5.231 -1.3698  0.7124  0.1269
  959MOL0     C29376   8.410   9.267   5.357  0.4729 -0.1795 -1.7312
  959MOL0     O29377   8.501   9.408   5.672  0.8213  0.2909 -0.1858
  959MOL0     C29378   8.209   9.238   5.797 -0.2600  0.7078 -0.1095
  959MOL0     C29379   8.142   9.204   5.913  0.0712 -0.0700  0.1273
  959MOL0     N29380   7.479   9.169   6.053  0.1113 -0.5836  0.5547
  959MOL0     N29381   7.357   9.189   6.059 -0.3669  0.3590  0.0998
  959MOL0     C29382   6.282   9.847   6.440 -0.6589 -0.1565  0.8476
  959MOL0     C29383   6.208   9.961   6.453 -0.6351  0.5236 -0.2834
  959MOL0     C29384   6.047  10.338   6.346 -0.3032 -0.3428 -0.8350
  959MOL0     C29385   5.987  10.381   6.474  0.2047  0.6271 -0.1105
  959MOL0     C29386   5.875  10.464   6.485  0.4610 -0.5913 -0.2204
  959MOL0     C29387   5.825  10.519   6.370  0.7869 -0.5546  1.0493
  959MOL0     O29388   5.715  10.607   6.351  0.1508  0.3066 -0.3610
  959MOL0     C29389   5.693  10.685   6.467  0.2369  0.8763 -0.3795
  959MOL0     C29390   5.619  10.802   6.410  0.7826 -0.2658 -0.1003
  959MOL0     C29391   5.711  10.912   6.350  0.5712 -0.0849  0.6147
  959MOL0     C29392   5.641  11.050   6.336  0.4407 -0.2740  0.1602
  959MOL0     C29393   5.677  11.128   6.213  0.2867  0.0804  0.4773
  959MOL0     C29394   5.708  11.201   6.123  0.1327  0.8477  0.2856
  959MOL0     C29395   5.882  10.486   6.245 -0.5009  0.0184  0.7851
  959MOL0     C29396   5.987  10.394   6.229 -0.5231 -0.0621  0.1568
  959MOL0     C29397   6.036  10.363   6.084 -0.3562 -0.3018 -0.5957
  959MOL0     H29398   6.452  10.190   6.431 -3.7071  1.2851 -0.3816
  959MOL0     H29399   6.598   9.994   6.416  0.4086  1.8916  1.2274
  959MOL0     H29400   6.433   9.572   6.333 -2.3508  0.5816 -1.3443
  959MOL0     H29401   6.393   9.708   6.239  0.1878  1.8306  0.1081
  959MOL0     H29402   6.646   9.758   6.210  2.8726 -1.1022  1.1391
  959MOL0     H29403   6.559   9.614   6.131 -3.4058  0.3567  0.3618
  959MOL0     H29404   6.707   9.473   6.279  0.3129 -0.7253 -3.5910
  959MOL0     H29405   6.738   9.607   6.386  0.6519 -1.6828  0.3751
  959MOL0     H29406   6.817   9.651   6.091 -3.6005 -2.8406 -0.4779
  959MOL0     H29407   6.891   9.718   6.235  1.3543 -1.2741  0.5357
  959MOL0     H29408   6.995   9.511   6.296 -0.6008 -0.9147 -0.0872
  959MOL0     H29409   6.894   9.423   6.176 -0.8012  0.3833 -0.2135
  959MOL0     H29410   7.011   9.541   5.994 -2.3585  0.2330  0.7607
  959MOL0     H29411   7.072   9.666   6.099  1.1653 -0.0148 -3.5446
  959MOL0     H29412   7.260   9.556   6.152  0.0822  0.8524  0.9614
  959MOL0     H29413   7.237   9.483   6.001 -0.6534 -1.5739 -0.2033
  959MOL0     H29414   7.156   9.345   6.268 -3.6701  4.9621 -0.9082
  959MOL0     H29415   7.110   9.273   6.120 -0.2054  0.3778  0.5540
  959MOL0     H29416   7.440   9.409   6.275 -2.2099  0.7884 -2.1209
  959MOL0     H29417   7.701   9.259   6.288  0.1305 -2.8295  2.4669
  959MOL0     H29418   7.700   9.122   6.178 -0.6408  0.5469 -0.5867
  959MOL0     H29419   7.772   9.262   5.992  1.2225 -0.2267  0.1620
  959MOL0     H29420   7.723   9.412   6.075 -1.4315 -0.5436 -0.9812
  959MOL0     H29421   7.908   9.376   6.233  0.2495 -2.4109  1.0073
  959MOL0     H29422   7.965   9.388   6.062  2.1297 -3.4772 -1.6684
  959MOL0     H29423   7.949   9.111   6.088  1.2142 -0.4004 -1.5524
  959MOL0     H29424   7.943   9.155   6.252 -0.6971 -2.7974 -1.1063
  959MOL0     H29425   8.310   9.356   6.145  1.7022  3.6498 -1.1624
  959MOL0     H29426   8.452   9.435   5.919  0.9021 -2.2853 -4.0105
  959MOL0     H29427   8.280   9.567   5.439 -1.5219 -0.2781 -1.5357
  959MOL0     H29428   8.367   9.622   5.220  0.6633 -1.4858 -2.1188
  959MOL0     H29429   8.581   9.294   4.993  0.7533 -0.2651 -0.0486
  959MOL0     H29430   8.406   9.305   4.948 -0.1917 -1.0166  0.8138
  959MOL0     H29431   8.578   9.329   4.763  1.5924  0.1654  1.4691
  959MOL0     H29432   8.471   9.474   4.773 -0.8395 -1.9806 -1.8698
  959MOL0     H29433   8.710   9.540   4.733  1.3449  0.7402  0.5953
  959MOL0     H29434   8.636   9.597   4.878 -1.1044  0.2065 -1.1646
  959MOL0     H29435   8.832   9.358   4.872 -1.3876 -0.5496 -0.5442
  959MOL0     H29436   8.784   9.442   5.019  5.1526 -2.7834 -0.2891
  959MOL0     H29437   8.855   9.649   4.928 -1.1657 -1.0276  0.0789
  959MOL0     H29438   8.923   9.564   4.786  0.3695 -1.1284  0.2491
  959MOL0     H29439   9.005   9.511   5.072 -1.0004 -4.2136 -0.9591
  959MOL0     H29440   9.081   9.444   4.925  0.0912  0.4581  0.5722
  959MOL0     H29441   9.180   9.629   4.854 -1.3195 -3.8311 -0.5688
  959MOL0     H29442   9.227   9.639   5.017  3.4264  1.8400 -4.1803
  959MOL0     H29443   9.190   9.846   4.937 -0.4250  0.0130 -2.4772
  959MOL0     H29444   9.037   9.813   4.868  1.8893 -2.3046 -1.6548
  959MOL0     H29445   8.480   9.211   5.165 -1.3376  0.5910  0.2915
  959MOL0     H29446   8.393   9.172   5.406 -0.8950  0.0451 -1.7483
  959MOL0     H29447   8.187   9.184   5.705  1.5935  0.8796 -0.7162
  959MOL0     H29448   8.067   9.126   5.905 -0.1262 -0.1145  1.9626
  959MOL0     H29449   6.226   9.755   6.456  1.0325 -1.4050 -0.0362
  959MOL0     H29450   6.100   9.957   6.463 -0.9108 -0.4430 -2.7960
  959MOL0     H29451   6.025  10.342   6.568  1.1390  0.3350 -0.5905
  959MOL0     H29452   5.837  10.497   6.581  0.4929  0.9866 -0.7266
  959MOL0     H29453   5.780  10.714   6.528 -0.5109 -2.5640  2.6226
  959MOL0     H29454   5.625  10.635   6.535  0.0002  0.2423 -1.0694
  959MOL0     H29455   5.562  10.827   6.499 -0.2711 -2.9248  0.0659
  959MOL0     H29456   5.559  10.760   6.328  3.0366 -3.4493 -0.2905
  959MOL0     H29457   5.738  10.869   6.253  2.6933 -2.3142  2.0814
  959MOL0     H29458   5.801  10.920   6.412  0.6184  1.9887  0.3507
  959MOL0     H29459   5.535  11.026   6.347 -0.0061  1.4958  0.1057
  959MOL0     H29460   5.653  11.118   6.421 -1.2322  0.2453  0.0100
  959MOL0     H29461   5.747  11.276   6.057 -2.8282  2.2648 -0.0128
  959MOL0     H29462   5.851  10.538   6.155  0.4740 -0.5512  0.1029
  959MOL0     H29463   6.011  10.260   6.057  0.0995  0.0148 -2.3383
  959MOL0     H29464   5.978  10.422   6.013 -2.3213 -2.4888 -0.9111
  959MOL0     H29465   6.141  10.391   6.071 -0.1147 -0.3214  1.0269
  960MOL0     O29466   6.916   6.311   7.757 -0.3120  0.2975 -0.0520
  960MOL0     C29467   6.819   6.381   7.731 -0.3060  0.4042  0.0580
  960MOL0     O29468   6.800   6.433   7.605  0.1129 -0.3256  0.4489
  960MOL0     C29469   6.896   6.403   7.508  0.6895  0.6320  0.0528
  960MOL0     C29470   7.028   6.442   7.513 -0.5761 -0.3099 -1.0359
  960MOL0     C29471   7.124   6.415   7.409  0.6686 -0.7918 -0.4543
  960MOL0     C29472   7.080   6.352   7.285 -0.6454 -0.0920  0.1756
  960MOL0     O29473   7.167   6.314   7.176  0.5100  0.1073 -0.5552
  960MOL0     C29474   7.250   6.419   7.139 -0.0001  0.4940  0.2390
  960MOL0     C29475   7.347   6.374   7.027 -0.6034 -0.0981 -1.1030
  960MOL0     C29476   7.443   6.493   7.002 -0.5246 -0.5504 -0.0931
  960MOL0     C29477   7.496   6.499   6.859 -0.5191 -0.9070 -0.3383
  960MOL0     C29478   7.607   6.605   6.824  0.3943  0.3808  0.2655
  960MOL0     C29479   7.616   6.642   6.676 -0.7121  0.4632 -0.5330
  960MOL0     C29480   7.707   6.541   6.611  0.1370  0.1311 -0.0203
  960MOL0     C29481   7.756   6.561   6.467  0.5955 -0.7233  0.7321
  960MOL0     N29482   7.655   6.595   6.361 -0.8161 -0.7245 -0.2058
  960MOL0     C29483   7.555   6.699   6.353 -0.5584  0.5350 -0.3262
  960MOL0     C29484   7.494   6.670   6.236 -0.0109 -0.2080 -0.6289
  960MOL0     C29485   7.375   6.753   6.202  1.0540  1.6739  0.5108
  960MOL0     C29486   7.251   6.664   6.235  0.5022  0.1166  0.7868
  960MOL0     C29487   7.116   6.724   6.187  1.0652 -1.1762  1.0815
  960MOL0     C29488   7.000   6.649   6.256 -0.0845 -0.0618  0.5630
  960MOL0     O29489   6.871   6.714   6.229  0.4592 -0.6299 -0.6387
  960MOL0     C29490   6.758   6.665   6.297 -0.5435 -0.2772  0.3294
  960MOL0     C29491   6.646   6.709   6.236  0.5492  0.4010 -0.5753
  960MOL0     C29492   6.522   6.676   6.286  0.7399  0.3192 -0.2687
  960MOL0     C29493   6.507   6.597   6.403  0.3479 -0.4413 -0.4785
  960MOL0     C29494   6.369   6.555   6.451 -0.2266 -0.7295 -0.7491
  960MOL0     O29495   6.263   6.618   6.388  0.2692  0.2099  0.2656
  960MOL0     C29496   6.135   6.599   6.437  0.1952  0.0169  0.8635
  960MOL0     C29497   6.033   6.610   6.340 -0.6782  0.0204 -0.0407
  960MOL0     C29498   5.897   6.594   6.365 -0.9590 -0.7130  0.4933
  960MOL0     C29499   5.858   6.566   6.498  0.6271  0.2810 -0.4967
  960MOL0     O29500   5.729   6.566   6.551 -0.0726  0.2302 -0.3871
  960MOL0     C29501   5.615   6.600   6.471  0.4421 -0.4532  0.3686
  960MOL0     C29502   5.481   6.579   6.554  0.4304  0.9392 -0.1836
  960MOL0     C29503   5.439   6.439   6.594 -0.7531  0.4594  0.6938
  960MOL0     C29504   5.312   6.443   6.674  0.2869 -0.2150 -0.2260
  960MOL0     C29505   5.239   6.306   6.687  0.3498 -0.0908 -1.0074
  960MOL0     C29506   5.300   6.230   6.809  1.7334 -0.2456 -0.5403
  960MOL0     C29507   5.231   6.272   6.941  0.5742  0.0904 -0.0670
  960MOL0     C29508   5.313   6.202   7.053 -0.2299  0.3650 -0.0475
  960MOL0    Cl29509   5.216   6.196   7.206  0.1443  0.0962  0.1372
  960MOL0     C29510   5.957   6.533   6.585  0.2305 -0.2613 -0.7598
  960MOL0     C29511   6.087   6.568   6.568 -0.3102  0.8080  0.2430
  960MOL0     O29512   6.362   6.478   6.546  0.3732 -0.1371 -0.0439
  960MOL0     C29513   6.630   6.541   6.455 -0.2337  0.2640  0.4030
  960MOL0     C29514   6.750   6.567   6.393 -0.1759  0.8848  0.4055
  960MOL0     N29515   7.547   6.562   6.170 -0.4600 -0.4756  0.0929
  960MOL0     N29516   7.644   6.524   6.246 -0.1261 -0.9886  0.4053
  960MOL0     C29517   6.947   6.320   7.276  0.4239 -0.6419  0.4238
  960MOL0     C29518   6.857   6.351   7.387 -0.0101  0.1218  0.7212
  960MOL0     C29519   6.703   6.398   7.822  0.5540  0.9188 -0.1371
  960MOL0     C29520   6.603   6.486   7.797 -0.3861 -1.3211 -0.7795
  960MOL0     C29521   6.483   6.496   7.870 -0.5080 -0.1448 -1.3451
  960MOL0     C29522   6.471   6.411   7.982  0.5655 -1.3185 -0.5043
  960MOL0     O29523   6.355   6.412   8.056 -0.1244  0.0683  0.4325
  960MOL0     C29524   6.234   6.412   7.984 -0.0585  0.3635  0.0792
  960MOL0     C29525   6.102   6.431   8.072 -0.6194 -0.6857  1.3527
  960MOL0     C29526   6.063   6.312   8.154  0.5720 -0.7676 -0.3045
  960MOL0     C29527   5.927   6.320   8.235 -0.3978  0.2487  0.2047
  960MOL0     C29528   5.939   6.409   8.357  0.0631  0.1259 -1.0323
  960MOL0     C29529   5.968   6.493   8.444  0.2457  0.0586 -0.6124
  960MOL0     C29530   6.577   6.337   8.022  0.3206  0.5371  0.0335
  960MOL0     C29531   6.689   6.322   7.943  0.4745 -1.6446  0.2565
  960MOL0     C29532   6.778   6.217   7.986  0.0275  0.1863  0.1761
  960MOL0     H29533   7.045   6.499   7.604 -1.6833 -0.1031 -0.9542
  960MOL0     H29534   7.221   6.457   7.433 -0.3241  0.6133  1.3746
  960MOL0     H29535   7.193   6.506   7.103  2.9056  3.1483  1.5310
  960MOL0     H29536   7.316   6.456   7.218 -1.1922  4.0463 -0.2297
  960MOL0     H29537   7.299   6.343   6.934  1.1778 -0.8363 -1.8276
  960MOL0     H29538   7.412   6.291   7.058 -0.0145  0.2885 -1.2816
  960MOL0     H29539   7.530   6.495   7.068 -0.8195  0.8222  0.2937
  960MOL0     H29540   7.391   6.587   7.020 -2.0827 -1.9449  3.6714
  960MOL0     H29541   7.549   6.404   6.850 -0.4968 -1.0516  1.0719
  960MOL0     H29542   7.415   6.501   6.785  0.5836  1.3343 -1.6144
  960MOL0     H29543   7.573   6.695   6.878  1.2593  0.1544  1.2133
  960MOL0     H29544   7.706   6.573   6.855  1.8457  0.3558 -3.8378
  960MOL0     H29545   7.521   6.643   6.622  1.0529 -0.1656 -3.8963
  960MOL0     H29546   7.658   6.741   6.656 -0.3781  0.1570 -1.3841
  960MOL0     H29547   7.651   6.448   6.601 -0.0650  0.1007  1.2534
  960MOL0     H29548   7.799   6.518   6.665 -0.0120 -2.4889 -0.7672
  960MOL0     H29549   7.843   6.626   6.450  2.4120 -3.9146 -4.8812
  960MOL0     H29550   7.796   6.465   6.432  1.2232 -0.3277  0.3538
  960MOL0     H29551   7.539   6.777   6.427  0.4059  2.9783 -2.5783
  960MOL0     H29552   7.359   6.842   6.264  4.8736  2.1538  1.0251
  960MOL0     H29553   7.386   6.780   6.097  1.5709  0.6830  0.2927
  960MOL0     H29554   7.256   6.560   6.202  0.5467  0.2948  0.2233
  960MOL0     H29555   7.252   6.646   6.343  1.8932 -1.2579  0.5753
  960MOL0     H29556   7.099   6.732   6.080 -1.1791 -1.3698  1.3796
  960MOL0     H29557   7.100   6.825   6.226 -1.7458 -1.7867  1.7653
  960MOL0     H29558   7.006   6.657   6.365 -2.3955  0.8653  0.6665
  960MOL0     H29559   6.998   6.543   6.227 -0.5853  0.1562 -0.2193
  960MOL0     H29560   6.648   6.785   6.159 -2.9369  1.2423 -0.0182
  960MOL0     H29561   6.435   6.704   6.227 -1.2591 -2.3548  1.1841
  960MOL0     H29562   6.064   6.635   6.239 -1.2073 -0.5067 -0.3410
  960MOL0     H29563   5.828   6.617   6.285 -1.3140  1.1215  1.2637
  960MOL0     H29564   5.623   6.706   6.447 -0.5346 -0.2365  0.9671
  960MOL0     H29565   5.626   6.551   6.374  4.6954  1.4608 -0.3388
  960MOL0     H29566   5.480   6.643   6.642 -2.2382  1.1968 -0.3222
  960MOL0     H29567   5.393   6.612   6.499 -1.5731 -1.7130  1.1612
  960MOL0     H29568   5.422   6.385   6.500  1.2401 -0.8923  1.0422
  960MOL0     H29569   5.520   6.389   6.648  0.1965  0.8414 -0.3449
  960MOL0     H29570   5.238   6.518   6.643  0.8028  0.3364 -0.1417
  960MOL0     H29571   5.336   6.485   6.772  0.1110  1.2359 -0.7673
  960MOL0     H29572   5.252   6.259   6.589 -0.9864 -0.4690 -1.0289
  960MOL0     H29573   5.131   6.327   6.689  0.8257  2.8484 -1.6126
  960MOL0     H29574   5.287   6.122   6.799 -1.6261 -0.1555  1.2666
  960MOL0     H29575   5.404   6.262   6.806  0.8543  3.0981  0.0889
  960MOL0     H29576   5.127   6.238   6.940  0.7147 -0.3282 -0.1954
  960MOL0     H29577   5.231   6.380   6.964 -1.4554  0.0333  0.3975
  960MOL0     H29578   5.321   6.095   7.033 -1.9516  0.4194 -1.2572
  960MOL0     H29579   5.408   6.255   7.064  0.6325  0.2551 -4.9961
  960MOL0     H29580   5.931   6.494   6.683  1.9058 -2.2798 -1.0528
  960MOL0     H29581   6.156   6.554   6.650 -2.3906 -1.4594  1.7109
  960MOL0     H29582   6.630   6.482   6.545 -0.1370 -1.4177 -0.6597
  960MOL0     H29583   6.839   6.514   6.427 -1.1256  0.3308  2.1919
  960MOL0     H29584   6.918   6.261   7.190 -1.0536  0.2694  0.2554
  960MOL0     H29585   6.754   6.321   7.376 -0.7863  0.2320  5.4892
  960MOL0     H29586   6.611   6.554   7.712 -2.9794  0.3868  0.2012
  960MOL0     H29587   6.407   6.569   7.846  1.5076  2.0346 -1.4672
  960MOL0     H29588   6.225   6.315   7.935 -0.4286  1.2290 -1.6488
  960MOL0     H29589   6.236   6.498   7.915 -1.6611  0.9488  0.7238
  960MOL0     H29590   6.020   6.450   8.002 -3.0240 -1.6287  3.7485
  960MOL0     H29591   6.112   6.528   8.122  1.1469  0.4613 -1.0460
  960MOL0     H29592   6.138   6.300   8.232 -0.7402 -1.2465  0.9290
  960MOL0     H29593   6.055   6.220   8.094 -0.1280 -1.1791  0.3960
  960MOL0     H29594   5.859   6.370   8.165  0.2171  1.7652  0.6418
  960MOL0     H29595   5.896   6.218   8.260  0.4330 -0.0227  0.1767
  960MOL0     H29596   5.997   6.559   8.524 -0.2061 -0.2818 -0.1616
  960MOL0     H29597   6.557   6.259   8.095 -0.6968 -1.6506 -2.4233
  960MOL0     H29598   6.738   6.156   8.068  1.9486 -0.8856  0.3623
  960MOL0     H29599   6.793   6.145   7.905 -1.6039  1.8744 -1.7621
  960MOL0     H29600   6.877   6.255   8.010 -0.3271 -0.2145  2.5337
  961MOL0     O29601   4.692   1.094   5.125  0.5775 -0.2571  0.4274
  961MOL0     C29602   4.731   1.097   5.002  0.7222  0.8822  0.6738
  961MOL0     O29603   4.760   0.980   4.932  0.4521 -0.6177 -0.6867
  961MOL0     C29604   4.706   0.871   4.983 -0.3613  0.2728  0.1396
  961MOL0     C29605   4.791   0.768   5.020 -0.6762  0.4708 -0.3337
  961MOL0     C29606   4.735   0.641   5.055  0.0909  0.3166  0.2660
  961MOL0     C29607   4.597   0.622   5.056 -1.2492  0.0222 -0.3976
  961MOL0     O29608   4.557   0.497   5.097  0.3856 -0.1985 -0.1304
  961MOL0     C29609   4.420   0.448   5.088  0.3319  0.1973 -0.4292
  961MOL0     C29610   4.434   0.306   5.053 -0.2383  0.1712  0.6069
  961MOL0     C29611   4.510   0.285   4.914  0.2358  0.4888  0.1833
  961MOL0     C29612   4.412   0.258   4.798 -0.2092 -0.1833  0.0647
  961MOL0     C29613   4.485   0.261   4.663  0.6166 -0.7657 -0.4552
  961MOL0     C29614   4.393   0.209   4.551 -0.1480  0.7650  0.8079
  961MOL0     C29615   4.417   0.062   4.536 -0.4821  0.5407  0.0872
  961MOL0     C29616   4.322  -0.001   4.439 -0.2074  0.9646 -0.2734
  961MOL0     N29617   4.329   0.045   4.304  0.2238  0.1205  0.6535
  961MOL0     C29618   4.239   0.004   4.204 -1.0511 -0.1886 -0.5720
  961MOL0     C29619   4.281   0.073   4.092 -0.7921 -0.0144 -0.5300
  961MOL0     C29620   4.201   0.074   3.962 -0.7597 -0.7250 -0.0454
  961MOL0     C29621   4.245  -0.038   3.870 -0.4995 -0.8045 -0.5146
  961MOL0     C29622   4.258  -0.178   3.927 -0.7901 -0.4957 -0.3857
  961MOL0     C29623   4.264  -0.284   3.817  0.5027 -0.6358  0.6728
  961MOL0     O29624   4.131  -0.313   3.772  0.1226 -0.1510 -0.7461
  961MOL0     C29625   4.120  -0.313   3.637  0.7406  0.0377 -0.3900
  961MOL0     C29626   4.185  -0.222   3.548  0.4700 -0.6393 -0.2271
  961MOL0     C29627   4.145  -0.216   3.416  0.7240 -0.2934  0.5265
  961MOL0     C29628   4.046  -0.296   3.366  0.2277 -1.0660 -0.1485
  961MOL0     C29629   3.987  -0.272   3.233 -0.2222  0.4861  0.2472
  961MOL0     O29630   3.873  -0.340   3.201  0.2261 -0.6344 -0.3938
  961MOL0     C29631   3.832  -0.323   3.073 -0.4727 -1.0270  1.0197
  961MOL0     C29632   3.885  -0.408   2.973  0.6689 -0.3056 -0.3507
  961MOL0     C29633   3.824  -0.408   2.846 -0.2031  0.8629  1.2654
  961MOL0     C29634   3.723  -0.323   2.814 -0.1760 -0.9725 -1.3873
  961MOL0     O29635   3.657  -0.313   2.698 -0.3522 -0.4736 -0.6470
  961MOL0     C29636   3.681  -0.407   2.584  0.2428  0.2484 -0.2557
  961MOL0     C29637   3.573  -0.404   2.475  0.2972  0.2431  0.6439
  961MOL0     C29638   3.424  -0.406   2.516 -0.9458  0.1029  0.0450
  961MOL0     C29639   3.354  -0.277   2.554  1.0901  0.1215  1.3310
  961MOL0     C29640   3.222  -0.318   2.621  0.3720  0.2236 -0.0136
  961MOL0     C29641   3.141  -0.198   2.677  0.0917 -0.1589 -0.1204
  961MOL0     C29642   3.053  -0.137   2.563  0.9153  0.1533 -0.0706
  961MOL0     C29643   2.961  -0.024   2.609 -0.5633  0.1555  0.2657
  961MOL0    Cl29644   3.068   0.120   2.665  0.5572  0.2429 -0.3246
  961MOL0     C29645   3.666  -0.235   2.915  0.0210 -0.1010 -0.0500
  961MOL0     C29646   3.713  -0.241   3.042 -0.7390  0.8595 -0.1878
  961MOL0     O29647   4.039  -0.188   3.161 -0.5453  0.0571 -0.2760
  961MOL0     C29648   3.989  -0.404   3.448 -0.1491 -0.3085  0.1797
  961MOL0     C29649   4.024  -0.408   3.583  0.7673  0.3982  0.4713
  961MOL0     N29650   4.391   0.156   4.130 -0.4097  0.6350 -0.1037
  961MOL0     N29651   4.418   0.131   4.249 -0.0698 -0.2519 -0.1639
  961MOL0     C29652   4.515   0.726   5.012  0.3204 -0.4226  0.2255
  961MOL0     C29653   4.569   0.849   4.975  0.3248 -0.1672  0.0857
  961MOL0     C29654   4.744   1.223   4.922  0.6661 -0.2457  1.2085
  961MOL0     C29655   4.812   1.216   4.799 -0.5542  0.5573  0.2871
  961MOL0     C29656   4.830   1.337   4.708 -0.2341  1.2618 -1.0310
  961MOL0     C29657   4.786   1.457   4.758 -0.2643  0.9248 -0.2855
  961MOL0     O29658   4.773   1.569   4.679  0.2301  0.3511 -0.7963
  961MOL0     C29659   4.868   1.594   4.569 -0.3483 -0.0005  0.0698
  961MOL0     C29660   4.891   1.750   4.543 -0.4729  0.4840  1.2148
  961MOL0     C29661   4.947   1.814   4.665 -0.1848  0.1652 -0.3394
  961MOL0     C29662   4.990   1.963   4.655  0.8788  0.3928 -0.6123
  961MOL0     C29663   5.125   1.970   4.618  0.4544  0.2534 -0.1023
  961MOL0     C29664   5.244   1.981   4.593  0.2542  0.1658 -0.5987
  961MOL0     C29665   4.713   1.461   4.881  0.8999  0.2201  0.8703
  961MOL0     C29666   4.680   1.352   4.956 -0.0287 -0.1965 -0.5092
  961MOL0     C29667   4.596   1.379   5.078 -0.5135 -0.5423 -0.1870
  961MOL0     H29668   4.897   0.784   5.003 -0.7615 -1.3870 -3.1621
  961MOL0     H29669   4.787   0.554   5.095  0.3879  0.6915  0.7034
  961MOL0     H29670   4.378   0.443   5.189 -1.9182  0.8721 -1.2602
  961MOL0     H29671   4.369   0.511   5.015 -0.9896  0.5295  0.7413
  961MOL0     H29672   4.341   0.250   5.064 -1.1064  1.5246  0.3917
  961MOL0     H29673   4.503   0.264   5.127  1.7615  1.1177 -0.6096
  961MOL0     H29674   4.574   0.197   4.909 -0.6137 -0.0771 -1.3598
  961MOL0     H29675   4.572   0.373   4.896 -0.5612  0.7742 -1.3275
  961MOL0     H29676   4.366   0.161   4.816 -0.2923 -0.2522 -0.4942
  961MOL0     H29677   4.333   0.333   4.789 -0.0836 -0.2628 -2.1681
  961MOL0     H29678   4.505   0.366   4.641  1.6675 -0.1078  3.0741
  961MOL0     H29679   4.585   0.216   4.660  0.7452 -0.6179  1.0192
  961MOL0     H29680   4.286   0.209   4.575 -0.0959 -1.4209  1.2576
  961MOL0     H29681   4.414   0.260   4.456 -0.3949  0.3553  0.5271
  961MOL0     H29682   4.407   0.002   4.627 -2.5341  0.7343  0.0345
  961MOL0     H29683   4.518   0.037   4.501  0.1643  0.9794  1.5572
  961MOL0     H29684   4.348  -0.107   4.445  0.9386  1.2733  0.9686
  961MOL0     H29685   4.221   0.019   4.476  0.2510  2.7843  0.0855
  961MOL0     H29686   4.147  -0.051   4.222 -1.1699  0.9409  2.9158
  961MOL0     H29687   4.095   0.067   3.989 -1.0129 -1.7991 -1.2299
  961MOL0     H29688   4.225   0.171   3.918  1.0973 -1.2080 -0.1793
  961MOL0     H29689   4.163  -0.032   3.797 -1.3146 -1.1103  0.3511
  961MOL0     H29690   4.343  -0.005   3.835 -0.7299 -0.0358 -0.4628
  961MOL0     H29691   4.182  -0.206   4.000 -0.5547  0.9360  0.4561
  961MOL0     H29692   4.351  -0.169   3.985 -2.0595  0.0342  1.7023
  961MOL0     H29693   4.295  -0.385   3.847  2.1765 -0.4651 -0.3775
  961MOL0     H29694   4.338  -0.242   3.748 -1.2640  2.5005  0.5147
  961MOL0     H29695   4.264  -0.151   3.572 -0.7866  0.5095  0.5934
  961MOL0     H29696   4.189  -0.145   3.347 -1.4342  1.2277  0.6086
  961MOL0     H29697   3.959  -0.479   3.007  1.1697 -0.0862 -0.9624
  961MOL0     H29698   3.862  -0.476   2.770 -1.6001 -0.2477  1.5170
  961MOL0     H29699   3.778  -0.387   2.538  1.6034 -1.3478  1.7465
  961MOL0     H29700   3.675  -0.509   2.624  1.2172  0.8292  1.4718
  961MOL0     H29701   3.581  -0.304   2.431 -1.9574  1.3689  2.5710
  961MOL0     H29702   3.594  -0.478   2.397  1.5597 -0.0276  1.2220
  961MOL0     H29703   3.366  -0.461   2.442 -0.6179  0.1317 -0.2363
  961MOL0     H29704   3.436  -0.462   2.609 -2.6271  2.8954  2.0737
  961MOL0     H29705   3.334  -0.216   2.465  1.5690 -1.9830 -0.2925
  961MOL0     H29706   3.415  -0.220   2.624  1.0190  2.2729 -0.2375
  961MOL0     H29707   3.252  -0.381   2.705 -1.4909  1.9695  2.0707
  961MOL0     H29708   3.162  -0.375   2.550  0.4372  0.5315 -0.3234
  961MOL0     H29709   3.084  -0.224   2.766  1.0377 -1.4581  0.1313
  961MOL0     H29710   3.211  -0.128   2.725 -2.3473  2.0589  0.4626
  961MOL0     H29711   2.981  -0.215   2.535  0.6796  0.2314  0.3050
  961MOL0     H29712   3.111  -0.105   2.476  1.1063  2.5053  0.8616
  961MOL0     H29713   2.895  -0.002   2.525 -1.8651  2.2652  1.7226
  961MOL0     H29714   2.900  -0.060   2.692 -1.3450  0.9420  0.0483
  961MOL0     H29715   3.575  -0.178   2.904 -0.0633  0.3853  2.5219
  961MOL0     H29716   3.662  -0.182   3.117 -1.8387  1.3232 -1.2714
  961MOL0     H29717   3.904  -0.459   3.407 -0.3818  0.4217 -0.3610
  961MOL0     H29718   3.970  -0.477   3.647  0.7563 -1.4754 -1.4002
  961MOL0     H29719   4.411   0.702   4.994  0.1274  1.9252 -2.4855
  961MOL0     H29720   4.500   0.926   4.942  0.8767 -0.0482 -0.8257
  961MOL0     H29721   4.843   1.118   4.765  1.1970  1.4374 -0.8073
  961MOL0     H29722   4.875   1.336   4.609 -0.6286  2.3415 -1.2323
  961MOL0     H29723   4.835   1.552   4.474 -3.4425  3.7815 -0.7677
  961MOL0     H29724   4.964   1.554   4.604 -0.2744  1.5225  1.7850
  961MOL0     H29725   4.800   1.796   4.502  1.5579  1.3408 -2.9311
  961MOL0     H29726   4.962   1.766   4.461 -0.9971 -0.3076  0.5881
  961MOL0     H29727   5.028   1.747   4.693  1.1421  2.1540  0.8188
  961MOL0     H29728   4.884   1.800   4.754  0.7314 -1.9534  0.0306
  961MOL0     H29729   4.924   2.022   4.590 -2.1394  1.4513  3.0015
  961MOL0     H29730   4.987   1.999   4.758 -3.2210  1.8683 -1.0545
  961MOL0     H29731   5.350   1.989   4.579  0.1755  2.9308 -0.1688
  961MOL0     H29732   4.686   1.560   4.917  2.9681  2.1787 -2.3626
  961MOL0     H29733   4.521   1.301   5.091 -1.9739  0.6776 -0.9240
  961MOL0     H29734   4.655   1.385   5.170 -0.5238  1.0547 -0.2554
  961MOL0     H29735   4.549   1.477   5.068 -3.2655 -1.4925  2.0546
  962MOL0     O29736   9.998   1.759   6.022 -0.2556 -0.9385  0.5796
  962MOL0     C29737  10.002   1.866   6.086  0.3184  0.5757 -0.0998
  962MOL0     O29738  10.121   1.938   6.128  0.7071  0.0524  0.3346
  962MOL0     C29739  10.244   1.900   6.095  0.9468  0.6143 -0.6120
  962MOL0     C29740  10.342   1.917   6.197 -0.6248  0.4539 -0.0456
  962MOL0     C29741  10.478   1.886   6.166  0.1806 -0.2922  0.0028
  962MOL0     C29742  10.513   1.827   6.042  0.0368 -0.4982  0.3143
  962MOL0     O29743  10.645   1.801   6.013 -0.2323 -0.1175 -0.3890
  962MOL0     C29744  10.699   1.687   6.083  0.5087  0.3978 -0.2549
  962MOL0     C29745  10.729   1.568   5.984 -0.2415 -0.6551 -0.3692
  962MOL0     C29746  10.647   1.559   5.857  0.5626  1.0059  0.1731
  962MOL0     C29747  10.683   1.430   5.790  0.6319 -0.1624 -0.1774
  962MOL0     C29748  10.594   1.420   5.672  0.8555  0.1697 -0.3753
  962MOL0     C29749  10.616   1.283   5.595 -0.0159 -0.0379 -0.0018
  962MOL0     C29750  10.749   1.271   5.522  0.1224  0.3910 -0.7293
  962MOL0     C29751  10.789   1.387   5.432  0.5800  0.3871 -0.4882
  962MOL0     N29752  10.876   1.329   5.326 -0.4757  0.3329 -0.0189
  962MOL0     C29753  10.843   1.271   5.205  0.5475  1.0744  0.8748
  962MOL0     C29754  10.957   1.239   5.142  0.4480  0.5002 -0.5763
  962MOL0     C29755  10.972   1.175   5.005  0.1995  0.0419 -0.9759
  962MOL0     C29756  10.983   1.282   4.894  1.0426  0.5201 -0.2996
  962MOL0     C29757  11.006   1.215   4.760  0.3001  0.3498  0.1367
  962MOL0     C29758  11.155   1.168   4.738  0.0802 -0.2913  0.2448
  962MOL0     O29759  11.180   1.050   4.821  0.8443  0.3698 -0.5282
  962MOL0     C29760  11.307   1.012   4.848 -1.3286 -0.6633  0.7253
  962MOL0     C29761  11.322   0.896   4.930 -0.1152 -0.5323 -0.6899
  962MOL0     C29762  11.451   0.841   4.954 -0.1795 -0.1699 -0.0888
  962MOL0     C29763  11.567   0.909   4.897  0.1169  0.3596  0.0468
  962MOL0     C29764  11.702   0.853   4.920  0.5165  0.3269  0.2577
  962MOL0     O29765  11.708   0.744   5.016 -0.6936  0.1652  0.8092
  962MOL0     C29766  11.825   0.667   5.034  0.9173  0.5433  1.1659
  962MOL0     C29767  11.852   0.641   5.166 -0.2743 -0.0980  0.0149
  962MOL0     C29768  11.955   0.560   5.203 -0.5623  0.2426 -0.7073
  962MOL0     C29769  12.054   0.530   5.113 -0.4613  0.1530 -0.0804
  962MOL0     O29770  12.157   0.445   5.156 -0.6663 -0.0592  0.4492
  962MOL0     C29771  12.262   0.496   5.237 -0.1750 -0.1243 -0.2523
  962MOL0     C29772  12.373   0.387   5.246 -0.1467  0.4139 -0.1613
  962MOL0     C29773  12.452   0.373   5.116 -0.3481  0.4279  0.8276
  962MOL0     C29774  12.602   0.365   5.138  0.4736  0.4692 -0.0498
  962MOL0     C29775  12.668   0.333   4.999 -0.0881 -0.6799  0.1578
  962MOL0     C29776  12.815   0.338   5.023 -0.9722 -0.3282 -0.0794
  962MOL0     C29777  12.900   0.323   4.885  0.1865 -0.0538 -0.8407
  962MOL0     C29778  13.040   0.391   4.894  0.1111  0.2118 -0.4858
  962MOL0    Cl29779  13.182   0.297   4.981  0.1944 -0.1194  0.2617
  962MOL0     C29780  12.033   0.565   4.981 -0.4399 -0.1874 -0.2706
  962MOL0     C29781  11.916   0.641   4.934  0.4097 -0.2212  0.6195
  962MOL0     O29782  11.797   0.905   4.862 -0.0953 -0.2614  0.3925
  962MOL0     C29783  11.549   1.020   4.814 -0.7425 -0.9748  0.5932
  962MOL0     C29784  11.425   1.075   4.795 -0.0818 -0.5626  0.4172
  962MOL0     N29785  11.059   1.271   5.231  0.4763  0.3264 -0.3712
  962MOL0     N29786  11.012   1.317   5.336  0.3585 -0.0119  0.0955
  962MOL0     C29787  10.411   1.794   5.951  1.3829  0.8508  0.3608
  962MOL0     C29788  10.280   1.839   5.979 -0.8569 -0.8426  0.4579
  962MOL0     C29789   9.881   1.935   6.142  0.8895 -0.1171 -0.7461
  962MOL0     C29790   9.888   2.069   6.170  0.4141 -0.1634 -0.2708
  962MOL0     C29791   9.791   2.138   6.241  0.9696 -0.8775 -0.9094
  962MOL0     C29792   9.673   2.073   6.268  0.5426 -0.0393 -0.4965
  962MOL0     O29793   9.574   2.143   6.325  0.3264  0.2894  0.2279
  962MOL0     C29794   9.539   2.077   6.449 -0.3430 -0.5801  0.3536
  962MOL0     C29795   9.497   2.188   6.561 -0.4305 -0.0739  0.2313
  962MOL0     C29796   9.383   2.287   6.524 -0.6803  0.1758  0.4706
  962MOL0     C29797   9.253   2.217   6.468 -0.2878  0.1931 -0.4409
  962MOL0     C29798   9.130   2.299   6.494 -0.0048  0.1661 -0.0027
  962MOL0     C29799   9.022   2.350   6.529  0.9084 -0.0925 -0.4640
  962MOL0     C29800   9.659   1.939   6.228 -0.6919  0.7622  0.8090
  962MOL0     C29801   9.760   1.868   6.166  0.6089  0.5651  0.4376
  962MOL0     C29802   9.731   1.717   6.127  0.1554  0.2654  0.1547
  962MOL0     H29803  10.313   1.974   6.285  2.0316 -1.0522  1.9391
  962MOL0     H29804  10.556   1.914   6.235  0.9176 -2.4250  0.0929
  962MOL0     H29805  10.787   1.706   6.144  1.0622 -2.4386 -0.0801
  962MOL0     H29806  10.624   1.643   6.149  2.4060 -2.2480  0.2665
  962MOL0     H29807  10.705   1.480   6.043  2.9526 -2.1017 -1.0575
  962MOL0     H29808  10.835   1.556   5.962 -0.5749 -1.4418 -1.6864
  962MOL0     H29809  10.675   1.641   5.789 -0.0879  2.2518  1.3650
  962MOL0     H29810  10.539   1.559   5.874 -0.1504  4.1588 -3.0356
  962MOL0     H29811  10.788   1.431   5.760  0.9963 -0.6331  1.0610
  962MOL0     H29812  10.660   1.356   5.867 -1.2518  2.4106  1.9459
  962MOL0     H29813  10.489   1.421   5.705  1.1731 -0.6327  0.7325
  962MOL0     H29814  10.606   1.506   5.606  0.9606 -1.0306 -1.9789
  962MOL0     H29815  10.611   1.197   5.664  1.2135  0.5761  0.8976
  962MOL0     H29816  10.529   1.276   5.529 -3.0399  0.7827  3.5665
  962MOL0     H29817  10.758   1.175   5.469  1.4815 -0.4845  1.0014
  962MOL0     H29818  10.822   1.264   5.603  1.9265  1.9232 -2.1501
  962MOL0     H29819  10.701   1.425   5.379  2.0618  3.6852 -0.8099
  962MOL0     H29820  10.835   1.472   5.483  0.2961  0.5567 -0.5132
  962MOL0     H29821  10.744   1.261   5.160  0.5646  2.0197  0.6008
  962MOL0     H29822  11.060   1.110   5.002  1.5418  1.7138  0.1410
  962MOL0     H29823  10.882   1.124   4.970 -0.1457  2.0057 -3.2421
  962MOL0     H29824  10.884   1.327   4.892  1.4184  1.4046  0.1902
  962MOL0     H29825  11.057   1.360   4.912 -1.5620  2.5897  2.5233
  962MOL0     H29826  10.990   1.300   4.692  1.6062  4.0426  4.0150
  962MOL0     H29827  10.934   1.134   4.749 -0.0815  0.5271  1.2359
  962MOL0     H29828  11.222   1.248   4.773 -0.9828  0.7751 -0.0933
  962MOL0     H29829  11.177   1.152   4.632  2.1104 -0.6022  0.6706
  962MOL0     H29830  11.236   0.844   4.970  2.3849 -1.6462  3.9389
  962MOL0     H29831  11.458   0.751   5.014  0.1789 -1.7212 -2.3209
  962MOL0     H29832  11.795   0.691   5.244 -2.6810 -0.4750 -1.4286
  962MOL0     H29833  11.973   0.528   5.305 -0.3660  2.6998  0.1068
  962MOL0     H29834  12.292   0.595   5.202  0.1290 -0.1501 -0.0693
  962MOL0     H29835  12.218   0.518   5.334 -3.2017  1.2870 -1.7999
  962MOL0     H29836  12.438   0.423   5.327 -1.1784 -1.4478  1.5855
  962MOL0     H29837  12.332   0.289   5.274  2.1580 -0.3656  0.7105
  962MOL0     H29838  12.411   0.286   5.064  1.4484 -0.0355  0.1001
  962MOL0     H29839  12.429   0.464   5.059 -0.5423  0.2968  0.6928
  962MOL0     H29840  12.620   0.286   5.211  0.3986  1.9216  1.6005
  962MOL0     H29841  12.619   0.465   5.178 -3.9665  1.1582  0.5522
  962MOL0     H29842  12.650   0.409   4.922  1.1084 -2.6203 -2.1546
  962MOL0     H29843  12.629   0.244   4.951 -0.8092 -0.4202  0.2509
  962MOL0     H29844  12.831   0.433   5.075  0.2756 -1.4677  1.7675
  962MOL0     H29845  12.843   0.260   5.094 -0.2855  0.1891  0.2371
  962MOL0     H29846  12.840   0.380   4.814 -0.7852  0.0773  0.0451
  962MOL0     H29847  12.913   0.218   4.860 -0.9808 -1.1353  2.5615
  962MOL0     H29848  13.057   0.421   4.790 -1.9698  0.9075 -0.6763
  962MOL0     H29849  13.033   0.484   4.950 -0.5547 -1.2210  1.9797
  962MOL0     H29850  12.113   0.539   4.912  0.2300 -2.0829  1.1327
  962MOL0     H29851  11.909   0.672   4.830  0.8213 -0.6053  0.4737
  962MOL0     H29852  11.632   1.081   4.780 -3.5349  1.5447 -2.3569
  962MOL0     H29853  11.411   1.160   4.729 -0.5578  0.2575  1.5386
  962MOL0     H29854  10.434   1.760   5.850  0.6628  0.9931  0.1431
  962MOL0     H29855  10.216   1.825   5.893  0.9775 -0.0560 -1.0888
  962MOL0     H29856   9.979   2.126   6.153 -0.5559  0.9689 -1.9560
  962MOL0     H29857   9.791   2.242   6.272 -0.9752 -1.4499  1.2512
  962MOL0     H29858   9.609   2.011   6.500 -0.1700  0.4188  1.4656
  962MOL0     H29859   9.460   2.007   6.420 -0.0587 -0.7829  0.0720
  962MOL0     H29860   9.583   2.245   6.598  0.0313 -1.7002  1.7837
  962MOL0     H29861   9.465   2.130   6.648 -2.0606  1.5301  0.7450
  962MOL0     H29862   9.419   2.351   6.442 -4.2952  2.6347  0.5611
  962MOL0     H29863   9.357   2.342   6.615 -0.8492 -0.8544  1.0499
  962MOL0     H29864   9.257   2.211   6.358  2.8994 -1.7788 -0.3511
  962MOL0     H29865   9.245   2.113   6.500 -4.1748 -0.4903 -2.9300
  962MOL0     H29866   8.930   2.388   6.569  0.0513 -0.9033 -1.5953
  962MOL0     H29867   9.562   1.895   6.244 -1.0006  1.2813  0.4064
  962MOL0     H29868   9.632   1.679   6.155  0.5324 -0.8472  0.0172
  962MOL0     H29869   9.742   1.704   6.019 -2.4076  1.4234 -0.3213
  962MOL0     H29870   9.806   1.652   6.173  0.6346 -0.3894 -1.4737
  963MOL0     O29871   8.340   1.062   1.127 -0.6244  0.2033  0.2684
  963MOL0     C29872   8.264   1.072   1.223  0.7782 -0.4787 -0.7404
  963MOL0     O29873   8.283   1.036   1.355 -0.3712  0.2213  0.2227
  963MOL0     C29874   8.414   0.992   1.386 -0.1578 -0.4285 -0.8284
  963MOL0     C29875   8.460   0.862   1.368 -0.7023  0.3884 -1.0738
  963MOL0     C29876   8.595   0.839   1.410 -1.0721 -0.6353 -1.3825
  963MOL0     C29877   8.678   0.941   1.458  0.0218  0.8547 -0.0252
  963MOL0     O29878   8.818   0.901   1.471 -0.7170 -0.4567 -0.2578
  963MOL0     C29879   8.908   1.011   1.516 -0.3050 -0.1543  0.1839
  963MOL0     C29880   9.066   0.997   1.485  0.2495  0.0050 -0.3490
  963MOL0     C29881   9.130   0.853   1.522  0.2347 -0.1069 -0.5985
  963MOL0     C29882   9.282   0.854   1.530  0.2498  0.6170 -0.2196
  963MOL0     C29883   9.339   0.931   1.652 -0.2361 -0.0444  0.8155
  963MOL0     C29884   9.295   0.878   1.793 -0.1762  0.9331  0.2842
  963MOL0     C29885   9.314   0.727   1.815 -0.2465 -1.0856  0.4211
  963MOL0     C29886   9.465   0.678   1.786  0.0706  0.3561 -0.0794
  963MOL0     N29887   9.567   0.745   1.867 -0.1021 -0.0104 -0.8476
  963MOL0     C29888   9.604   0.712   1.998 -0.2682 -0.7153 -0.9183
  963MOL0     C29889   9.674   0.819   2.037 -0.3170  0.6374 -0.1432
  963MOL0     C29890   9.723   0.829   2.183  0.1104 -0.0801 -1.2261
  963MOL0     C29891   9.863   0.778   2.226  0.7925 -0.6815  0.5542
  963MOL0     C29892   9.984   0.859   2.177 -0.3140 -0.3777  0.1676
  963MOL0     C29893  10.116   0.803   2.235 -0.4306  0.2783 -0.3083
  963MOL0     O29894  10.224   0.890   2.196 -0.0025 -0.4581  0.2158
  963MOL0     C29895  10.350   0.876   2.254 -0.0993 -0.5900 -0.3132
  963MOL0     C29896  10.455   0.956   2.200  0.3062 -0.2861 -0.4199
  963MOL0     C29897  10.586   0.937   2.247  0.7281 -1.3154  0.1081
  963MOL0     C29898  10.613   0.840   2.342 -0.2987 -0.0622 -0.7814
  963MOL0     C29899  10.754   0.823   2.396 -0.4932 -0.6558 -0.1880
  963MOL0     O29900  10.848   0.905   2.330  0.0788  0.0273  0.3752
  963MOL0     C29901  10.979   0.924   2.374 -0.4826 -0.4956 -0.0593
  963MOL0     C29902  11.040   0.874   2.488  0.8260 -0.1520  0.2901
  963MOL0     C29903  11.182   0.897   2.509 -0.3673  0.9324 -0.2994
  963MOL0     C29904  11.254   0.981   2.424 -0.3342 -0.1879  0.5982
  963MOL0     O29905  11.386   1.009   2.468  0.0716  0.6121 -0.1978
  963MOL0     C29906  11.493   0.982   2.368 -0.2790 -0.4242  0.4818
  963MOL0     C29907  11.620   1.012   2.443 -0.2622  0.8436  0.8317
  963MOL0     C29908  11.632   1.162   2.479 -0.2347 -1.3916  0.8668
  963MOL0     C29909  11.773   1.206   2.520 -0.1870  0.7017 -0.1198
  963MOL0     C29910  11.788   1.357   2.551  0.0403  0.9680  0.4785
  963MOL0     C29911  11.919   1.389   2.636  1.0198  0.1215  0.7588
  963MOL0     C29912  11.936   1.302   2.759  1.3302  0.0079  0.7798
  963MOL0     C29913  12.067   1.325   2.839 -1.2050 -0.3991  0.0932
  963MOL0    Cl29914  12.209   1.275   2.742  0.0662  0.1047  0.5819
  963MOL0     C29915  11.190   1.038   2.305  0.3176  0.3242 -1.0728
  963MOL0     C29916  11.054   0.995   2.280 -0.2677 -0.3579  0.1141
  963MOL0     O29917  10.781   0.731   2.467 -0.1601  0.8696  0.3374
  963MOL0     C29918  10.508   0.761   2.398 -0.6402  0.3905 -0.2002
  963MOL0     C29919  10.380   0.777   2.350 -0.6478  0.1488  0.6424
  963MOL0     N29920   9.700   0.906   1.926 -0.5303 -0.5646  0.2673
  963MOL0     N29921   9.627   0.863   1.825  1.1777 -0.6843 -1.3571
  963MOL0     C29922   8.628   1.063   1.482 -0.2565  0.0746  0.0460
  963MOL0     C29923   8.499   1.085   1.440  0.7691 -0.3631 -0.4546
  963MOL0     C29924   8.135   1.140   1.184 -0.2532 -0.3718  0.5093
  963MOL0     C29925   8.123   1.202   1.055  0.0650  0.1795  0.7228
  963MOL0     C29926   8.011   1.278   1.023 -0.5079  0.1416 -0.3101
  963MOL0     C29927   7.901   1.276   1.103 -0.2604  0.1145  1.0254
  963MOL0     O29928   7.793   1.340   1.040 -0.4235  0.8968 -0.4263
  963MOL0     C29929   7.681   1.335   1.125  0.3504 -0.3050  0.6968
  963MOL0     C29930   7.574   1.419   1.054  0.7916 -0.3464 -0.2990
  963MOL0     C29931   7.610   1.570   1.037  0.5539 -0.2620 -0.3910
  963MOL0     C29932   7.527   1.660   0.952 -0.1544 -0.3838  0.0403
  963MOL0     C29933   7.436   1.593   0.859 -0.2359  0.4196 -0.4915
  963MOL0     C29934   7.361   1.552   0.774 -0.9416 -0.0266 -0.4987
  963MOL0     C29935   7.904   1.206   1.230 -1.6715  0.7239 -0.5599
  963MOL0     C29936   8.020   1.145   1.272  0.2064 -0.5836  0.1733
  963MOL0     C29937   8.012   1.091   1.416  0.0138 -0.6405  0.7367
  963MOL0     H29938   8.397   0.775   1.351 -1.3864 -0.0956  2.9108
  963MOL0     H29939   8.642   0.742   1.423 -1.1284 -0.2486  2.9653
  963MOL0     H29940   8.871   1.100   1.464  0.3806  1.6383  2.5625
  963MOL0     H29941   8.888   1.024   1.623  0.3309 -1.2077  0.4534
  963MOL0     H29942   9.123   1.074   1.537  1.8601 -1.7864  0.6881
  963MOL0     H29943   9.073   1.024   1.379  1.1132 -0.3139 -0.3836
  963MOL0     H29944   9.106   0.773   1.451 -2.3770  1.4688 -1.6097
  963MOL0     H29945   9.097   0.818   1.620  0.7024 -4.9506 -1.8770
  963MOL0     H29946   9.326   0.754   1.522 -1.2949  0.0579 -4.0262
  963MOL0     H29947   9.316   0.898   1.436 -0.4378 -0.9873 -1.2724
  963MOL0     H29948   9.446   0.930   1.631 -0.6826  0.1664 -1.6864
  963MOL0     H29949   9.294   1.031   1.647 -2.1666 -0.8849  0.5902
  963MOL0     H29950   9.356   0.929   1.869  1.9293 -3.3805  1.8293
  963MOL0     H29951   9.189   0.902   1.806 -0.0413  2.1409 -0.6901
  963MOL0     H29952   9.242   0.676   1.750 -1.7377  0.8514  0.4733
  963MOL0     H29953   9.290   0.704   1.919 -0.8988 -1.2149  0.2420
  963MOL0     H29954   9.466   0.569   1.796 -2.1626  0.3203  0.3029
  963MOL0     H29955   9.491   0.701   1.682  2.5731 -0.4223  0.3064
  963MOL0     H29956   9.566   0.625   2.049 -1.3902  0.2375 -0.0669
  963MOL0     H29957   9.721   0.937   2.200 -1.7413 -0.1477 -0.8175
  963MOL0     H29958   9.656   0.785   2.257  1.9458 -0.5746  0.2192
  963MOL0     H29959   9.864   0.766   2.335 -0.8286  0.4846  0.7404
  963MOL0     H29960   9.877   0.680   2.180  0.3749  0.6049 -2.5757
  963MOL0     H29961   9.972   0.961   2.214 -0.2677 -0.7311  1.1913
  963MOL0     H29962   9.984   0.848   2.068  2.4827  0.2293  0.0157
  963MOL0     H29963  10.131   0.698   2.208  0.6784  0.0144  1.2226
  963MOL0     H29964  10.111   0.813   2.344 -0.0699 -0.3037 -0.2337
  963MOL0     H29965  10.450   1.036   2.126  0.0471  2.6892  2.5939
  963MOL0     H29966  10.663   1.010   2.225  0.0231  0.0187  1.7758
  963MOL0     H29967  10.988   0.830   2.572 -1.2582  2.0704  0.2521
  963MOL0     H29968  11.235   0.851   2.591 -1.7248  3.8869  2.4433
  963MOL0     H29969  11.482   0.876   2.344  1.6109 -0.0575 -2.5480
  963MOL0     H29970  11.489   1.040   2.275 -2.6732  1.3449  1.5673
  963MOL0     H29971  11.621   0.952   2.534  0.5619 -1.6241 -0.6989
  963MOL0     H29972  11.706   0.966   2.394 -0.7310 -1.9419  2.4099
  963MOL0     H29973  11.594   1.227   2.400  0.7897 -1.6274  0.1557
  963MOL0     H29974  11.575   1.176   2.571  2.5446 -0.9373  2.6627
  963MOL0     H29975  11.832   1.188   2.430  0.0457 -0.7904  0.2990
  963MOL0     H29976  11.805   1.134   2.596  0.8235  1.4373  0.1620
  963MOL0     H29977  11.700   1.382   2.611  2.0705  2.8561  2.9233
  963MOL0     H29978  11.798   1.423   2.464  3.8092 -0.4303 -0.3389
  963MOL0     H29979  12.003   1.382   2.568  0.3957  1.3824 -0.1766
  963MOL0     H29980  11.928   1.496   2.658  0.3087  1.1177 -3.1047
  963MOL0     H29981  11.933   1.197   2.729 -1.5881  0.4776 -1.0429
  963MOL0     H29982  11.840   1.313   2.811 -0.7726 -1.0835 -2.5389
  963MOL0     H29983  12.077   1.430   2.870  2.4685 -1.1445  2.1282
  963MOL0     H29984  12.057   1.267   2.931 -2.6826  1.7765  1.3751
  963MOL0     H29985  11.240   1.112   2.244  2.8258 -1.9798 -2.0022
  963MOL0     H29986  11.010   1.027   2.186 -1.6066 -1.5053  0.3161
  963MOL0     H29987  10.538   0.673   2.453  1.5824  0.8155 -0.6452
  963MOL0     H29988  10.299   0.714   2.386 -2.4989  2.4469  0.7524
  963MOL0     H29989   8.688   1.145   1.521  2.6689 -1.1695 -1.5339
  963MOL0     H29990   8.463   1.188   1.443 -0.8319 -0.8049 -2.4599
  963MOL0     H29991   8.211   1.213   0.992  0.7024  0.2308  1.6071
  963MOL0     H29992   8.010   1.335   0.931 -0.3690  0.7166  0.0348
  963MOL0     H29993   7.713   1.383   1.218  1.5959 -0.1284  0.1980
  963MOL0     H29994   7.639   1.239   1.157  0.1652 -0.6239 -0.4716
  963MOL0     H29995   7.486   1.412   1.118  0.3299  0.8294 -0.7654
  963MOL0     H29996   7.548   1.366   0.962  1.1156 -3.8592  1.4702
  963MOL0     H29997   7.707   1.564   0.986  0.1645 -4.7290 -0.9416
  963MOL0     H29998   7.618   1.621   1.133  1.5334 -0.5560 -0.3089
  963MOL0     H29999   7.468   1.728   1.015 -0.4458 -2.5429  2.2311
  963MOL0     H30000   7.597   1.726   0.899  1.9673 -1.2790  1.5712
  963MOL0     H30001   7.295   1.520   0.696  0.1180 -0.3393 -1.2889
  963MOL0     H30002   7.811   1.206   1.286 -1.7900  0.1143 -0.7501
  963MOL0     H30003   7.906   1.076   1.439 -1.1155  1.1791 -2.5273
  963MOL0     H30004   8.053   0.990   1.429  2.8622  0.0341 -1.8473
  963MOL0     H30005   8.058   1.164   1.482  2.9409  0.6692 -2.4223
  964MOL0     O30006  10.769   4.996   8.012 -0.0221  0.2232 -0.2879
  964MOL0     C30007  10.759   5.096   8.089 -0.7568 -0.1407  0.6355
  964MOL0     O30008  10.662   5.116   8.178 -0.6029  0.3546  0.0697
  964MOL0     C30009  10.555   5.023   8.162 -0.1072  0.8650  0.0218
  964MOL0     C30010  10.474   5.041   8.047 -0.0872  0.8203 -0.7962
  964MOL0     C30011  10.368   4.958   8.016 -0.2236  0.6538  0.1620
  964MOL0     C30012  10.343   4.849   8.097  0.0530  0.6609  0.4039
  964MOL0     O30013  10.234   4.763   8.095 -0.2049 -0.5417 -0.1083
  964MOL0     C30014  10.141   4.773   7.988 -0.1898  0.3213  0.5565
  964MOL0     C30015  10.145   4.664   7.875  0.3006  0.0830  0.1366
  964MOL0     C30016  10.290   4.644   7.815  0.0307  0.0152  0.0881
  964MOL0     C30017  10.373   4.534   7.881 -0.5124  0.3529  0.2072
  964MOL0     C30018  10.518   4.546   7.833  0.2198  0.6836  0.1961
  964MOL0     C30019  10.592   4.663   7.901 -0.4930  0.1800 -0.1467
  964MOL0     C30020  10.743   4.677   7.872 -0.5587  0.3814 -0.7501
  964MOL0     C30021  10.785   4.747   7.744  0.2224 -0.0758 -0.2572
  964MOL0     N30022  10.930   4.767   7.737  0.3580  0.6171 -0.6221
  964MOL0     C30023  11.025   4.727   7.832 -0.5510  1.0814 -0.6192
  964MOL0     C30024  11.145   4.742   7.769  0.2056 -0.2176  0.3388
  964MOL0     C30025  11.277   4.728   7.847  0.1963  0.1150 -0.2591
  964MOL0     C30026  11.388   4.814   7.806  0.0278  0.2539 -1.4021
  964MOL0     C30027  11.368   4.963   7.821 -0.0597  0.2091 -0.3581
  964MOL0     C30028  11.409   5.035   7.698  0.0218  0.5061  0.8076
  964MOL0     O30029  11.389   5.176   7.713 -0.2388  0.0526  1.1278
  964MOL0     C30030  11.476   5.248   7.791 -0.3929 -0.6336  0.5906
  964MOL0     C30031  11.565   5.197   7.880 -0.5985 -0.6348  0.3351
  964MOL0     C30032  11.640   5.285   7.958 -0.2666  0.1207 -0.1358
  964MOL0     C30033  11.611   5.430   7.971 -0.3694 -0.0958  0.1885
  964MOL0     C30034  11.674   5.513   8.080  0.3268 -0.6892  0.1090
  964MOL0     O30035  11.675   5.647   8.061 -0.3796 -0.4912  0.3898
  964MOL0     C30036  11.791   5.705   8.118 -0.3897  0.3166  0.0312
  964MOL0     C30037  11.783   5.836   8.170 -0.2661  0.7678 -0.7767
  964MOL0     C30038  11.902   5.905   8.206  0.0752 -0.7038  0.3204
  964MOL0     C30039  12.027   5.846   8.188  0.2915  0.0598  0.5976
  964MOL0     O30040  12.147   5.910   8.215  0.3370  0.6332 -0.3602
  964MOL0     C30041  12.164   5.982   8.342 -0.3670  1.2405 -0.1485
  964MOL0     C30042  12.317   5.997   8.366  0.5649 -0.1466  0.5204
  964MOL0     C30043  12.385   6.071   8.248 -0.0596  0.0090  0.7202
  964MOL0     C30044  12.537   6.080   8.262  1.2540 -0.5502  0.1039
  964MOL0     C30045  12.587   6.195   8.183  0.5570  0.3253  0.5397
  964MOL0     C30046  12.729   6.172   8.152  0.2373 -1.1796 -0.1121
  964MOL0     C30047  12.828   6.190   8.280  1.3050 -0.4396  0.1784
  964MOL0     C30048  12.937   6.102   8.266 -0.2138  0.9666 -0.1020
  964MOL0    Cl30049  13.045   6.112   8.406 -0.1043  0.3618  0.1476
  964MOL0     C30050  12.029   5.720   8.145  0.2381 -0.6852 -0.3926
  964MOL0     C30051  11.922   5.651   8.106 -0.1926  0.5152 -0.4229
  964MOL0     O30052  11.715   5.455   8.178 -0.4350 -0.3828 -0.0545
  964MOL0     C30053  11.520   5.483   7.875  0.3035 -0.5601 -0.3053
  964MOL0     C30054  11.448   5.386   7.800 -0.7080 -0.1090 -0.2686
  964MOL0     N30055  11.126   4.780   7.640 -0.0672  0.5757  0.0610
  964MOL0     N30056  11.000   4.801   7.622 -0.4083  0.6067  0.4377
  964MOL0     C30057  10.436   4.825   8.205 -0.8948 -0.1858  0.0508
  964MOL0     C30058  10.533   4.912   8.240 -0.5071  0.0524  0.3014
  964MOL0     C30059  10.877   5.190   8.104 -1.0214  0.5584 -0.4056
  964MOL0     C30060  10.888   5.273   8.220 -0.3688 -0.4893 -0.6396
  964MOL0     C30061  10.997   5.354   8.234 -0.5185 -0.2033  0.1389
  964MOL0     C30062  11.099   5.367   8.140 -0.3756  0.4563  0.3044
  964MOL0     O30063  11.213   5.454   8.146 -0.1269  0.2150  0.5426
  964MOL0     C30064  11.244   5.526   8.261  0.3452 -0.0270 -0.6670
  964MOL0     C30065  11.390   5.579   8.240  0.6386 -0.2636 -0.5093
  964MOL0     C30066  11.469   5.627   8.373  1.4469  0.6444  0.4705
  964MOL0     C30067  11.529   5.503   8.445 -0.8859 -0.7326  0.1582
  964MOL0     C30068  11.451   5.437   8.547  0.3368  0.2501  0.4853
  964MOL0     C30069  11.374   5.400   8.635 -0.0346  0.8940  0.9455
  964MOL0     C30070  11.098   5.280   8.023  0.6610 -0.4999 -1.1080
  964MOL0     C30071  10.992   5.189   8.014 -1.1454  0.3235  0.0269
  964MOL0     C30072  10.997   5.111   7.887  0.3667  0.2895  0.5038
  964MOL0     H30073  10.492   5.127   7.982  2.3784  0.6215 -0.4910
  964MOL0     H30074  10.303   4.975   7.931  0.4689  1.1740 -0.2768
  964MOL0     H30075  10.044   4.750   8.033  0.1926 -0.8099  0.8256
  964MOL0     H30076  10.127   4.876   7.952 -0.0264 -0.0832 -0.6965
  964MOL0     H30077  10.069   4.695   7.803 -0.5457 -1.1153  0.4898
  964MOL0     H30078  10.100   4.573   7.916 -5.5871  2.7523  0.5764
  964MOL0     H30079  10.332   4.745   7.826 -1.1103  0.2993  2.2451
  964MOL0     H30080  10.272   4.606   7.714 -1.2890 -0.2312  0.4058
  964MOL0     H30081  10.371   4.546   7.990 -1.0295 -1.2091  0.3961
  964MOL0     H30082  10.329   4.441   7.844  2.4475 -0.8120 -0.6912
  964MOL0     H30083  10.579   4.456   7.845  0.4359  0.7306 -0.5216
  964MOL0     H30084  10.521   4.562   7.725  0.4401  0.1990  0.1283
  964MOL0     H30085  10.560   4.765   7.875  3.7977  1.3993 -1.4939
  964MOL0     H30086  10.593   4.657   8.010  2.0274  1.7241 -0.0018
  964MOL0     H30087  10.797   4.583   7.883 -1.4904 -0.3749 -2.3612
  964MOL0     H30088  10.770   4.744   7.954  0.6465  1.0027 -1.6090
  964MOL0     H30089  10.760   4.682   7.659  3.5843 -0.7415 -0.8707
  964MOL0     H30090  10.742   4.847   7.730  1.4846  0.4880 -0.2521
  964MOL0     H30091  11.011   4.695   7.935  1.2347  0.3555 -0.5676
  964MOL0     H30092  11.266   4.740   7.955 -0.1698 -0.0751 -0.2734
  964MOL0     H30093  11.319   4.631   7.820  0.9152  0.1856  0.5544
  964MOL0     H30094  11.470   4.793   7.876  1.0857  4.4687 -1.1025
  964MOL0     H30095  11.414   4.793   7.702  1.1124 -0.9204 -0.9216
  964MOL0     H30096  11.429   4.997   7.905 -0.9496 -0.7150  0.7084
  964MOL0     H30097  11.264   4.978   7.853 -1.5660 -1.1147 -4.0399
  964MOL0     H30098  11.348   5.000   7.614  0.9154  0.3627  0.2019
  964MOL0     H30099  11.512   5.006   7.672 -0.9150 -1.3790 -1.1331
  964MOL0     H30100  11.598   5.094   7.871  1.6467  0.0763 -0.2643
  964MOL0     H30101  11.728   5.253   8.013 -0.2932  1.3593  0.6807
  964MOL0     H30102  11.679   5.867   8.182 -1.3474 -2.2972 -1.4233
  964MOL0     H30103  11.882   6.007   8.239  2.5148  0.9842 -2.8232
  964MOL0     H30104  12.119   6.081   8.335 -1.0610  0.8246 -2.1271
  964MOL0     H30105  12.113   5.927   8.422 -0.2545 -1.3470 -1.7363
  964MOL0     H30106  12.334   6.054   8.458 -3.5704  2.3847 -0.0588
  964MOL0     H30107  12.373   5.903   8.372  3.2790  1.3081 -0.2774
  964MOL0     H30108  12.367   6.039   8.145  1.8476  2.0112 -0.3429
  964MOL0     H30109  12.362   6.177   8.258  1.2601  0.3368  0.4528
  964MOL0     H30110  12.574   5.988   8.215  0.4399  0.3494 -2.4688
  964MOL0     H30111  12.569   6.087   8.366 -0.2956  0.5298  0.5507
  964MOL0     H30112  12.584   6.286   8.243 -1.9012  0.2542  0.6298
  964MOL0     H30113  12.530   6.222   8.094 -0.0424 -0.1848  0.7610
  964MOL0     H30114  12.742   6.072   8.109  1.0879 -1.0256 -0.2442
  964MOL0     H30115  12.772   6.239   8.077  0.2683 -0.5843  0.4319
  964MOL0     H30116  12.778   6.163   8.373 -0.1120  1.7777  0.1295
  964MOL0     H30117  12.857   6.295   8.287  0.8282 -0.3775  1.4206
  964MOL0     H30118  12.897   6.000   8.275 -1.3079  1.4297  0.5365
  964MOL0     H30119  12.994   6.113   8.173  1.2310  0.7538  0.7334
  964MOL0     H30120  12.129   5.680   8.134 -0.2180 -1.8207 -0.5380
  964MOL0     H30121  11.944   5.552   8.066  2.5507  1.5774 -1.8035
  964MOL0     H30122  11.497   5.589   7.868  1.5394 -0.2208  0.4916
  964MOL0     H30123  11.372   5.441   7.744 -1.1014 -0.2744  0.0963
  964MOL0     H30124  10.423   4.742   8.274 -1.2769 -3.2776 -3.4270
  964MOL0     H30125  10.586   4.887   8.331  4.5285 -0.9656 -2.5858
  964MOL0     H30126  10.811   5.284   8.295  0.6765  2.5398  0.1447
  964MOL0     H30127  10.995   5.409   8.327  0.7309  2.3974 -1.2652
  964MOL0     H30128  11.256   5.462   8.349  2.6165  1.2154  0.0121
  964MOL0     H30129  11.163   5.595   8.287 -0.3108 -0.8783 -0.4249
  964MOL0     H30130  11.381   5.668   8.178  0.0108 -0.9417 -1.4190
  964MOL0     H30131  11.451   5.504   8.189  2.8997  1.9926 -1.3053
  964MOL0     H30132  11.407   5.683   8.444 -0.1095  1.0021 -1.1109
  964MOL0     H30133  11.538   5.706   8.344 -1.0449  2.6908 -0.2253
  964MOL0     H30134  11.553   5.427   8.370 -2.0436 -1.6264  0.6721
  964MOL0     H30135  11.622   5.523   8.498 -1.2980 -1.9794  1.4094
  964MOL0     H30136  11.310   5.370   8.715  0.7912  2.4949  2.2651
  964MOL0     H30137  11.172   5.273   7.944  3.1802 -4.6093  1.2351
  964MOL0     H30138  10.997   5.003   7.901  0.2412 -0.3740 -3.4529
  964MOL0     H30139  10.903   5.135   7.836 -0.3516  1.1665  2.1642
  964MOL0     H30140  11.075   5.140   7.817  0.1804  0.1805  0.2503
  965MOL0     O30141   1.672   1.231   2.747 -0.2566 -0.0130 -0.1361
  965MOL0     C30142   1.683   1.251   2.865  0.1966  0.0591  0.4315
  965MOL0     O30143   1.745   1.362   2.922 -0.7922  0.0676  0.6050
  965MOL0     C30144   1.757   1.473   2.838  0.2535 -0.0225 -0.5859
  965MOL0     C30145   1.856   1.569   2.876 -0.4121 -0.3726  0.5455
  965MOL0     C30146   1.886   1.685   2.804 -0.0945  0.3190 -0.3858
  965MOL0     C30147   1.809   1.717   2.694 -0.4799 -0.1513  0.5457
  965MOL0     O30148   1.807   1.842   2.639 -0.6692 -0.0599 -0.3883
  965MOL0     C30149   1.935   1.879   2.585  0.5660  0.8258 -0.5396
  965MOL0     C30150   1.947   2.026   2.536 -0.0255  0.5492 -0.1007
  965MOL0     C30151   2.073   2.077   2.473 -0.0775  0.0340 -0.0667
  965MOL0     C30152   2.157   2.155   2.583 -0.4651  0.1558  0.4173
  965MOL0     C30153   2.299   2.129   2.539  0.5577 -0.0314  0.4670
  965MOL0     C30154   2.403   2.225   2.591  0.3104 -0.4077 -0.3298
  965MOL0     C30155   2.542   2.216   2.532 -0.2937 -0.6623 -0.0986
  965MOL0     C30156   2.616   2.349   2.572 -0.1147  0.2219  0.0103
  965MOL0     N30157   2.735   2.369   2.483  0.3421 -0.9089 -0.3669
  965MOL0     C30158   2.821   2.475   2.496 -0.2533 -0.3430  0.1012
  965MOL0     C30159   2.933   2.457   2.420  0.5363 -0.0744  0.4206
  965MOL0     C30160   3.053   2.538   2.421  0.1150 -0.4787 -0.6637
  965MOL0     C30161   3.082   2.566   2.269  0.0993  0.0655 -0.1313
  965MOL0     C30162   3.210   2.651   2.250  0.0083 -0.1517  0.7311
  965MOL0     C30163   3.334   2.580   2.314 -0.8047  0.4822  0.1302
  965MOL0     O30164   3.456   2.645   2.271  0.1169  0.3103 -0.0663
  965MOL0     C30165   3.575   2.621   2.315 -0.0831 -1.8973 -0.0341
  965MOL0     C30166   3.610   2.555   2.431  0.3968  0.5285 -0.5458
  965MOL0     C30167   3.746   2.532   2.474  0.0652 -0.4780  0.4681
  965MOL0     C30168   3.853   2.587   2.391 -0.6350  0.1189 -0.0580
  965MOL0     C30169   3.992   2.547   2.419  0.2051  0.7123 -0.3537
  965MOL0     O30170   4.016   2.441   2.509  0.2909  0.4471 -0.4071
  965MOL0     C30171   4.131   2.385   2.556 -0.4722 -0.1143  0.5595
  965MOL0     C30172   4.262   2.399   2.501 -1.0443 -0.4791  0.3491
  965MOL0     C30173   4.373   2.355   2.575  0.4884  0.1242  0.3056
  965MOL0     C30174   4.361   2.279   2.688  0.1466  1.4072  0.1117
  965MOL0     O30175   4.477   2.218   2.735 -0.0863  0.1847 -0.3381
  965MOL0     C30176   4.477   2.117   2.845 -0.3905 -1.0479  0.1326
  965MOL0     C30177   4.622   2.062   2.855  0.4967 -0.0867 -0.6293
  965MOL0     C30178   4.634   1.984   2.982  0.0378  0.7851 -0.5609
  965MOL0     C30179   4.778   1.931   2.995  0.2445  0.0694 -1.1093
  965MOL0     C30180   4.772   1.808   3.080  0.9501 -0.0147  0.8791
  965MOL0     C30181   4.903   1.731   3.080 -0.1151 -0.1151 -0.6027
  965MOL0     C30182   4.941   1.694   2.931  0.1434 -0.7856 -0.1435
  965MOL0     C30183   5.070   1.613   2.924  0.3642  0.5640  0.2911
  965MOL0    Cl30184   5.080   1.484   3.058 -0.3038  0.6232 -0.1520
  965MOL0     C30185   4.238   2.253   2.742  0.9240 -0.7488  0.0127
  965MOL0     C30186   4.130   2.310   2.679  0.0377 -1.5069 -0.2712
  965MOL0     O30187   4.080   2.604   2.360  0.9902 -0.4388  0.1648
  965MOL0     C30188   3.815   2.653   2.271 -0.3805 -0.0028 -0.5864
  965MOL0     C30189   3.686   2.670   2.243  0.4485 -0.6533 -0.0838
  965MOL0     N30190   2.899   2.337   2.361 -0.3583  0.0040 -0.0155
  965MOL0     N30191   2.786   2.289   2.385  0.0040 -0.5215 -0.3571
  965MOL0     C30192   1.713   1.624   2.643 -0.8866 -0.4806 -0.0253
  965MOL0     C30193   1.681   1.512   2.722  0.7103 -0.1647 -0.2823
  965MOL0     C30194   1.629   1.145   2.960  0.3092  0.4452  1.0506
  965MOL0     C30195   1.566   1.185   3.075 -0.5512  0.6969 -1.4060
  965MOL0     C30196   1.492   1.104   3.170 -0.2533  0.2526 -0.3824
  965MOL0     C30197   1.484   0.969   3.146 -0.1376 -0.1676 -0.4428
  965MOL0     O30198   1.421   0.889   3.240  0.5861 -0.1713  0.1984
  965MOL0     C30199   1.469   0.906   3.381 -0.4272 -0.3951 -0.0129
  965MOL0     C30200   1.420   0.794   3.465  0.2960 -0.3900  0.7508
  965MOL0     C30201   1.449   0.658   3.400 -0.0364  0.3997  0.4050
  965MOL0     C30202   1.598   0.626   3.365  1.0057  0.0462 -0.5867
  965MOL0     C30203   1.686   0.666   3.474  0.3968 -0.5430 -0.1226
  965MOL0     C30204   1.771   0.707   3.554  0.5146 -0.9769 -0.2883
  965MOL0     C30205   1.542   0.917   3.024  0.4763 -0.5205 -0.3586
  965MOL0     C30206   1.612   1.001   2.927  0.0626  0.4873 -0.0788
  965MOL0     C30207   1.653   0.923   2.810  0.1689 -0.3463 -0.0183
  965MOL0     H30208   1.910   1.549   2.969  2.7594  2.6211 -0.4397
  965MOL0     H30209   1.957   1.757   2.844  1.9889 -2.1949  0.7614
  965MOL0     H30210   2.013   1.851   2.658  0.2193  0.5104 -0.2867
  965MOL0     H30211   1.956   1.820   2.496  1.2418 -3.7712  2.3041
  965MOL0     H30212   1.913   2.085   2.622 -0.5691 -0.3771  0.3260
  965MOL0     H30213   1.865   2.033   2.465  1.0628  0.6864 -1.3745
  965MOL0     H30214   2.029   2.144   2.398 -2.0275 -0.5102  0.5256
  965MOL0     H30215   2.123   1.992   2.427  0.1343  0.0845  0.0694
  965MOL0     H30216   2.129   2.261   2.575  2.1686  1.0159  1.5087
  965MOL0     H30217   2.147   2.117   2.685  1.2201 -1.0306  0.1821
  965MOL0     H30218   2.314   2.022   2.555 -2.4341 -0.4446  1.0883
  965MOL0     H30219   2.305   2.138   2.430  0.1677 -0.0677  0.4390
  965MOL0     H30220   2.361   2.324   2.570  1.7315 -0.1689 -2.2693
  965MOL0     H30221   2.413   2.201   2.697 -0.4298 -1.2761 -0.4412
  965MOL0     H30222   2.540   2.206   2.423  0.1544 -0.2021 -0.1501
  965MOL0     H30223   2.595   2.126   2.562 -1.8966 -1.1976  1.3248
  965MOL0     H30224   2.552   2.437   2.561  1.1296  1.2302  0.5980
  965MOL0     H30225   2.654   2.337   2.674  1.6267  1.0832 -0.4922
  965MOL0     H30226   2.793   2.556   2.562 -0.3605  1.5161 -2.1098
  965MOL0     H30227   3.034   2.623   2.488  3.3449 -1.2245  1.4411
  965MOL0     H30228   3.123   2.490   2.491 -1.0335  0.2602  1.0592
  965MOL0     H30229   3.084   2.470   2.218 -3.9505  0.8021 -2.0575
  965MOL0     H30230   2.995   2.617   2.225  0.0154 -1.4153 -1.7687
  965MOL0     H30231   3.189   2.746   2.301 -4.0396 -1.3209  1.6093
  965MOL0     H30232   3.214   2.658   2.141 -4.4043  0.6252  0.4123
  965MOL0     H30233   3.334   2.479   2.272 -0.1218  0.6105 -0.1961
  965MOL0     H30234   3.331   2.585   2.423  1.6433  0.6151  0.2518
  965MOL0     H30235   3.535   2.521   2.501  2.0010  0.6090  1.3203
  965MOL0     H30236   3.749   2.483   2.571 -1.2283  1.2840  1.4630
  965MOL0     H30237   4.277   2.469   2.420 -2.8724 -0.0839  0.3052
  965MOL0     H30238   4.471   2.376   2.532  0.0414  0.1371 -0.7393
  965MOL0     H30239   4.450   2.172   2.936  0.9439  1.8549 -1.0933
  965MOL0     H30240   4.403   2.037   2.830  1.9090 -4.0354  3.1483
  965MOL0     H30241   4.633   1.986   2.777 -0.5356 -1.5667  0.6033
  965MOL0     H30242   4.697   2.141   2.853  0.7017 -0.2890 -1.7345
  965MOL0     H30243   4.597   2.039   3.070 -2.0103 -2.8300  1.0753
  965MOL0     H30244   4.556   1.907   2.972 -1.0910  1.5761  1.4843
  965MOL0     H30245   4.844   2.006   3.039  2.4615 -2.9271  1.0979
  965MOL0     H30246   4.812   1.922   2.892  1.1058  1.8681 -1.0213
  965MOL0     H30247   4.696   1.740   3.041  0.8061  0.0694  1.0138
  965MOL0     H30248   4.741   1.827   3.183  1.0132  3.1007  0.4289
  965MOL0     H30249   4.984   1.792   3.122  0.6569  0.4327 -2.7200
  965MOL0     H30250   4.891   1.636   3.133  0.6598  2.0753  4.0046
  965MOL0     H30251   4.960   1.786   2.875  0.5264  0.6922  2.2325
  965MOL0     H30252   4.854   1.650   2.883 -0.6365  0.6318 -0.0751
  965MOL0     H30253   5.084   1.575   2.822  0.8947  0.3810  0.4330
  965MOL0     H30254   5.154   1.681   2.935  2.1637 -1.8041  2.0719
  965MOL0     H30255   4.229   2.201   2.837  2.6098  0.8244  1.0866
  965MOL0     H30256   4.035   2.309   2.731  0.7707  1.5172  1.3650
  965MOL0     H30257   3.884   2.699   2.201  0.2643 -1.9674 -1.3145
  965MOL0     H30258   3.660   2.724   2.152  0.7001  2.5176  1.5705
  965MOL0     H30259   1.674   1.646   2.544 -0.3779  1.3349  0.1480
  965MOL0     H30260   1.598   1.454   2.684  0.8271 -1.7736  1.7268
  965MOL0     H30261   1.579   1.290   3.099 -1.3103  0.6563 -0.7551
  965MOL0     H30262   1.437   1.154   3.249 -1.6456 -2.4972  0.4860
  965MOL0     H30263   1.425   0.995   3.427 -2.0493 -1.2953  0.2342
  965MOL0     H30264   1.579   0.906   3.385 -0.3624 -3.0864 -0.0762
  965MOL0     H30265   1.312   0.801   3.481  0.3896  1.7927  0.6552
  965MOL0     H30266   1.469   0.804   3.563  0.7648 -2.3568  0.7602
  965MOL0     H30267   1.394   0.640   3.308 -0.0373 -1.2456  0.6995
  965MOL0     H30268   1.407   0.594   3.478 -2.5100  1.0578 -0.2991
  965MOL0     H30269   1.608   0.520   3.340  1.8046  0.3803 -1.7475
  965MOL0     H30270   1.617   0.684   3.275  2.0706  0.4002 -0.1451
  965MOL0     H30271   1.824   0.750   3.636 -2.2055  2.5036 -0.1522
  965MOL0     H30272   1.534   0.810   3.008  6.8204 -1.0556 -2.7674
  965MOL0     H30273   1.569   0.918   2.739  0.2811  0.3596 -0.2011
  965MOL0     H30274   1.738   0.971   2.761 -0.1026  0.2334  0.0698
  965MOL0     H30275   1.684   0.823   2.843 -0.0662  0.0860  1.6019
  966MOL0     O30276   3.870   3.380   7.613 -0.0180  0.3730 -0.0696
  966MOL0     C30277   3.768   3.430   7.571  1.5899  0.7964  0.0766
  966MOL0     O30278   3.759   3.533   7.478 -0.1345 -0.0583 -0.5955
  966MOL0     C30279   3.868   3.557   7.405 -0.3877  0.1009 -0.1385
  966MOL0     C30280   3.912   3.683   7.399 -0.8808  0.1613 -0.5499
  966MOL0     C30281   4.006   3.728   7.309 -0.2841  0.2537 -0.2726
  966MOL0     C30282   4.062   3.636   7.224 -0.1818  0.7848 -0.7233
  966MOL0     O30283   4.164   3.692   7.146 -0.2417 -0.2199 -0.6773
  966MOL0     C30284   4.269   3.614   7.085  1.0965 -0.2817 -0.7547
  966MOL0     C30285   4.359   3.697   7.003  1.0455  0.2162  0.7663
  966MOL0     C30286   4.469   3.776   7.077  0.6597  0.7028 -0.4970
  966MOL0     C30287   4.561   3.854   6.984  0.4975 -0.4378 -0.2623
  966MOL0     C30288   4.637   3.967   7.061 -0.8129  0.1287 -0.5965
  966MOL0     C30289   4.543   4.095   7.082  0.2423  0.2126 -0.4479
  966MOL0     C30290   4.605   4.208   7.163  0.0804  1.1779 -0.3292
  966MOL0     C30291   4.595   4.180   7.319 -0.4433  0.4973 -0.4507
  966MOL0     N30292   4.667   4.295   7.390 -0.1696  0.1578  0.4787
  966MOL0     C30293   4.783   4.355   7.364  1.4583 -0.3250  0.7017
  966MOL0     C30294   4.786   4.451   7.454  0.6647 -0.9768 -0.5325
  966MOL0     C30295   4.880   4.570   7.471  0.2876  0.6288 -0.6370
  966MOL0     C30296   5.010   4.535   7.403 -1.1099 -0.5401 -0.0215
  966MOL0     C30297   5.102   4.656   7.399 -0.0964 -0.4644  0.1820
  966MOL0     C30298   5.218   4.631   7.308  1.0388  0.0055  0.7817
  966MOL0     O30299   5.309   4.527   7.360 -0.4875  0.0564  0.2499
  966MOL0     C30300   5.409   4.480   7.274 -0.3208 -0.3876 -0.0318
  966MOL0     C30301   5.436   4.538   7.148 -0.7907 -0.2559  0.1826
  966MOL0     C30302   5.536   4.494   7.070  0.7031 -0.1575 -0.3982
  966MOL0     C30303   5.604   4.378   7.111  0.7118 -1.0709  0.7085
  966MOL0     C30304   5.698   4.325   7.008 -0.3962 -0.4487 -1.2101
  966MOL0     O30305   5.720   4.404   6.894  0.1713 -0.0687  0.2239
  966MOL0     C30306   5.768   4.358   6.771 -0.5738  0.0803 -0.9431
  966MOL0     C30307   5.807   4.465   6.688  0.4217  0.4044  0.4582
  966MOL0     C30308   5.856   4.432   6.558  0.2347 -0.1004  0.1975
  966MOL0     C30309   5.869   4.307   6.511 -0.6917 -1.0167  0.0995
  966MOL0     O30310   5.915   4.272   6.387 -0.0594  0.2566 -0.4266
  966MOL0     C30311   5.963   4.372   6.298 -0.3827 -1.3225  0.1818
  966MOL0     C30312   5.999   4.312   6.158 -0.7241  0.4540 -0.0481
  966MOL0     C30313   6.143   4.243   6.161  0.1424  0.2703 -0.1204
  966MOL0     C30314   6.179   4.209   6.028 -0.3628  0.0414  0.5530
  966MOL0     C30315   6.310   4.125   6.026 -0.0716  0.5166 -0.8403
  966MOL0     C30316   6.357   4.091   5.893  0.2887  0.7245 -0.4000
  966MOL0     C30317   6.430   4.216   5.836  0.2101  0.3727  0.1548
  966MOL0     C30318   6.477   4.184   5.691 -0.0389 -0.4603 -0.3657
  966MOL0    Cl30319   6.342   4.117   5.589 -0.2591  0.3022 -0.2506
  966MOL0     C30320   5.853   4.201   6.606 -0.5914  0.3135 -0.6659
  966MOL0     C30321   5.801   4.222   6.734 -0.2975  0.0008  0.8900
  966MOL0     O30322   5.750   4.216   7.031 -0.1447  0.3074 -0.4977
  966MOL0     C30323   5.574   4.314   7.235 -0.7019 -0.2124 -0.1462
  966MOL0     C30324   5.483   4.372   7.317  0.6673 -0.1226 -1.2268
  966MOL0     N30325   4.683   4.442   7.547 -0.3168  1.0875  0.0889
  966MOL0     N30326   4.618   4.339   7.510 -0.4388  0.6743  1.0722
  966MOL0     C30327   4.035   3.499   7.240  1.6271 -0.0160  0.1251
  966MOL0     C30328   3.929   3.459   7.321  0.4001  0.0060  0.4101
  966MOL0     C30329   3.644   3.382   7.637 -0.4291  1.2410 -0.3175
  966MOL0     C30330   3.642   3.245   7.684 -1.0606 -0.1685  0.3252
  966MOL0     C30331   3.528   3.183   7.727  0.1351 -0.3570 -0.4075
  966MOL0     C30332   3.409   3.255   7.732  0.5114  0.7155 -0.9530
  966MOL0     O30333   3.300   3.195   7.781 -0.0204 -0.3093 -0.3000
  966MOL0     C30334   3.168   3.228   7.738  0.5233  0.6550  0.0965
  966MOL0     C30335   3.099   3.321   7.824  0.3774 -0.9463 -0.5223
  966MOL0     C30336   2.978   3.280   7.903  0.6671 -0.2730  0.4526
  966MOL0     C30337   2.911   3.386   7.990  0.3613  0.1604  0.5062
  966MOL0     C30338   2.859   3.501   7.913 -0.1084 -0.3897 -0.0852
  966MOL0     C30339   2.813   3.599   7.854 -0.0109  0.8897  0.2531
  966MOL0     C30340   3.410   3.389   7.708  0.8332  0.2579 -0.5954
  966MOL0     C30341   3.518   3.442   7.636 -0.2829 -0.5528  0.3869
  966MOL0     C30342   3.496   3.568   7.556  0.5041 -0.7391 -0.1927
  966MOL0     H30343   3.882   3.762   7.467  0.1124  0.5528 -0.5528
  966MOL0     H30344   4.029   3.834   7.311  1.8012 -0.1499  1.0431
  966MOL0     H30345   4.326   3.553   7.155  0.4497  3.0992  3.0955
  966MOL0     H30346   4.223   3.544   7.015  1.9820 -0.2576 -1.3767
  966MOL0     H30347   4.289   3.755   6.942  1.9309  0.0507 -0.4410
  966MOL0     H30348   4.420   3.637   6.934  1.8721 -0.6082  2.1596
  966MOL0     H30349   4.528   3.696   7.121  1.0033  2.5922  2.8268
  966MOL0     H30350   4.426   3.828   7.163  0.7644  2.3646 -1.3977
  966MOL0     H30351   4.630   3.778   6.946  2.6069 -0.4670  3.1815
  966MOL0     H30352   4.513   3.908   6.902  0.4143 -0.8147 -0.4607
  966MOL0     H30353   4.675   3.931   7.158  1.2265  3.3303 -0.0550
  966MOL0     H30354   4.719   4.002   6.998 -2.4549  1.2903 -2.1714
  966MOL0     H30355   4.502   4.135   6.989 -0.5180  0.1568 -0.1389
  966MOL0     H30356   4.458   4.060   7.141  2.2421 -3.0233  0.8088
  966MOL0     H30357   4.545   4.296   7.138 -0.3527  0.5631 -1.5369
  966MOL0     H30358   4.708   4.217   7.126  0.0925  4.1507  0.2026
  966MOL0     H30359   4.489   4.183   7.345 -0.5373 -1.5386 -0.4606
  966MOL0     H30360   4.645   4.087   7.348  3.3049  2.4249 -0.1437
  966MOL0     H30361   4.841   4.326   7.277  2.1036 -1.5067  1.4863
  966MOL0     H30362   4.840   4.667   7.438 -1.7494 -0.4834 -1.6617
  966MOL0     H30363   4.906   4.577   7.577 -1.9262 -0.5639  0.0563
  966MOL0     H30364   5.053   4.443   7.442  1.6719 -0.4619 -2.5362
  966MOL0     H30365   4.990   4.518   7.296 -3.5555  2.3972 -0.1779
  966MOL0     H30366   5.130   4.693   7.498 -0.0273  3.1333 -1.0530
  966MOL0     H30367   5.046   4.736   7.352 -3.0080 -3.3436 -1.6656
  966MOL0     H30368   5.269   4.724   7.282  2.4707 -1.0368 -0.2517
  966MOL0     H30369   5.176   4.600   7.212  1.9356  1.4691 -0.1218
  966MOL0     H30370   5.380   4.619   7.103  2.7046  0.0529 -4.3052
  966MOL0     H30371   5.551   4.544   6.975 -3.2953 -0.0009 -1.1393
  966MOL0     H30372   5.804   4.572   6.706  1.9834  0.4003  0.9271
  966MOL0     H30373   5.887   4.522   6.505 -1.2831  0.2934 -0.0996
  966MOL0     H30374   5.886   4.449   6.287 -0.7748 -1.2956  2.5469
  966MOL0     H30375   6.037   4.439   6.343  1.0158 -0.9764 -2.4854
  966MOL0     H30376   5.929   4.231   6.135  0.3504 -0.9788  1.4740
  966MOL0     H30377   5.993   4.386   6.077  1.6458 -1.1133 -1.8299
  966MOL0     H30378   6.214   4.313   6.207  0.3796  1.1765 -1.8153
  966MOL0     H30379   6.150   4.154   6.225  3.2549 -0.0124 -0.6958
  966MOL0     H30380   6.201   4.302   5.975  0.6347 -0.3987  0.1760
  966MOL0     H30381   6.097   4.158   5.977  0.2102  1.4178 -1.9387
  966MOL0     H30382   6.284   4.030   6.074 -0.0540  1.7439  1.7792
  966MOL0     H30383   6.393   4.155   6.090  0.0124 -0.9699 -0.2053
  966MOL0     H30384   6.426   4.006   5.904 -1.7000 -1.0478 -0.9913
  966MOL0     H30385   6.270   4.062   5.833 -0.2670  0.2244  0.6384
  966MOL0     H30386   6.513   4.242   5.902  3.0590 -1.8564 -2.2469
  966MOL0     H30387   6.356   4.297   5.832  1.3077  1.4217  0.7725
  966MOL0     H30388   6.518   4.272   5.640 -2.5154 -0.1230 -1.9503
  966MOL0     H30389   6.553   4.106   5.695 -0.9799 -1.3595  1.5113
  966MOL0     H30390   5.865   4.102   6.563 -0.6370 -0.1986  0.4719
  966MOL0     H30391   5.786   4.134   6.795 -1.0459  0.7328  1.7932
  966MOL0     H30392   5.636   4.233   7.273 -0.0991  0.6470  0.7452
  966MOL0     H30393   5.454   4.326   7.411  1.8973 -1.3965 -1.4253
  966MOL0     H30394   4.088   3.424   7.183 -1.6115 -0.5430 -2.4826
  966MOL0     H30395   3.904   3.354   7.334 -1.5119  0.3154 -0.4056
  966MOL0     H30396   3.725   3.178   7.661 -1.3766 -0.7155  0.7649
  966MOL0     H30397   3.516   3.080   7.758 -4.2137  0.2950  0.7884
  966MOL0     H30398   3.124   3.128   7.741  0.5767  0.6543  1.2000
  966MOL0     H30399   3.170   3.254   7.632  1.3140  0.2797  0.0066
  966MOL0     H30400   3.066   3.407   7.765  0.2236 -2.7081 -3.1663
  966MOL0     H30401   3.168   3.351   7.904 -0.2651  0.5345 -0.4848
  966MOL0     H30402   2.996   3.194   7.970 -2.3635 -1.0272  0.4484
  966MOL0     H30403   2.902   3.263   7.826 -1.5467  0.7185  2.2906
  966MOL0     H30404   2.831   3.337   8.047  1.7058 -2.8936 -0.0199
  966MOL0     H30405   2.981   3.428   8.062  0.1309  0.6830  0.4305
  966MOL0     H30406   2.748   3.674   7.814 -2.0636 -1.3471 -0.8980
  966MOL0     H30407   3.323   3.453   7.719  1.0146  0.2346  1.5757
  966MOL0     H30408   3.392   3.598   7.576  1.3084  1.8320  0.5555
  966MOL0     H30409   3.557   3.640   7.612 -2.5502 -0.7097  3.5300
  966MOL0     H30410   3.526   3.574   7.451  3.1764 -0.5464  0.5020
  967MOL0     O30411   3.000   8.156   3.206  0.2865  0.6307 -0.0125
  967MOL0     C30412   3.013   8.246   3.290 -0.1513  0.0232  0.3491
  967MOL0     O30413   2.954   8.235   3.417  0.4360  0.7768 -0.1989
  967MOL0     C30414   2.950   8.116   3.466  0.8569  0.6585  0.5629
  967MOL0     C30415   3.044   8.015   3.431 -0.8080 -0.3338 -0.9310
  967MOL0     C30416   3.024   7.886   3.488 -0.7648  0.3939  0.5723
  967MOL0     C30417   2.924   7.860   3.579 -0.0313  0.0974 -0.3219
  967MOL0     O30418   2.924   7.730   3.623  0.6481  0.1868  0.4090
  967MOL0     C30419   2.808   7.702   3.707 -0.0229  0.6690  0.0670
  967MOL0     C30420   2.823   7.562   3.752  0.0313  0.3140 -0.3615
  967MOL0     C30421   2.853   7.453   3.648  0.6766 -0.9665 -0.3508
  967MOL0     C30422   2.796   7.321   3.686 -0.6948 -0.2835 -0.6249
  967MOL0     C30423   2.853   7.205   3.602 -0.7422 -0.1577 -0.0686
  967MOL0     C30424   2.741   7.101   3.587 -0.0031 -0.1304 -0.3129
  967MOL0     C30425   2.762   6.967   3.515  0.0177 -0.2064 -0.1455
  967MOL0     C30426   2.638   6.920   3.435  0.1736 -0.7285 -0.1863
  967MOL0     N30427   2.518   6.888   3.511 -1.0037  0.2086 -0.1414
  967MOL0     C30428   2.408   6.961   3.519  0.6739 -0.1675 -0.4276
  967MOL0     C30429   2.338   6.905   3.629  0.0785 -1.1890  0.3223
  967MOL0     C30430   2.202   6.958   3.692 -0.6209 -0.0973  0.6241
  967MOL0     C30431   2.209   7.009   3.851 -0.5747 -0.3928  0.6878
  967MOL0     C30432   2.341   7.089   3.877 -1.0179  0.5394 -0.7055
  967MOL0     C30433   2.361   7.238   3.838  0.1186  0.4513 -1.0428
  967MOL0     O30434   2.387   7.241   3.700  0.6638 -0.1946  0.4991
  967MOL0     C30435   2.363   7.360   3.640  0.7750  0.0067  0.2066
  967MOL0     C30436   2.385   7.362   3.501 -0.3802 -0.1046  0.1749
  967MOL0     C30437   2.359   7.465   3.414 -0.4528  1.2289  0.0689
  967MOL0     C30438   2.291   7.577   3.476 -0.3165 -0.0460 -0.2868
  967MOL0     C30439   2.241   7.689   3.394 -1.2162 -0.0324  0.2376
  967MOL0     O30440   2.204   7.662   3.269  0.4130  0.0662  0.0994
  967MOL0     C30441   2.134   7.758   3.194 -0.7826  0.1340 -0.0208
  967MOL0     C30442   1.996   7.763   3.182  0.6750 -0.2984 -0.3824
  967MOL0     C30443   1.928   7.853   3.097  0.0676 -0.4153  0.4101
  967MOL0     C30444   2.005   7.935   3.016 -0.4171  0.1313  0.7247
  967MOL0     O30445   1.962   8.016   2.910 -0.4276 -0.3741 -0.1852
  967MOL0     C30446   1.826   8.006   2.866  0.1612  0.3868  0.4201
  967MOL0     C30447   1.796   7.866   2.798 -0.3164  0.0426  0.9234
  967MOL0     C30448   1.866   7.864   2.662  0.4088  0.0791  0.4782
  967MOL0     C30449   1.812   7.951   2.553 -0.0477 -1.0549 -0.0258
  967MOL0     C30450   1.673   7.913   2.507 -0.3143 -0.4261 -0.2064
  967MOL0     C30451   1.656   7.763   2.464 -0.0102 -0.1614  0.8035
  967MOL0     C30452   1.532   7.744   2.379 -0.6221  1.1484  1.4705
  967MOL0     C30453   1.398   7.767   2.452 -0.7393  0.8891 -0.7102
  967MOL0    Cl30454   1.365   7.945   2.441 -0.1734  0.1533  0.2671
  967MOL0     C30455   2.139   7.936   3.043  0.5018  0.3032  0.4663
  967MOL0     C30456   2.213   7.842   3.117  0.4021  0.8250 -0.9996
  967MOL0     O30457   2.212   7.799   3.454 -0.7709 -0.6174 -0.3362
  967MOL0     C30458   2.263   7.577   3.611 -0.3186  0.2898 -0.1970
  967MOL0     C30459   2.296   7.468   3.692 -0.7732 -0.8820 -0.3487
  967MOL0     N30460   2.413   6.806   3.679  0.3608  0.0933  0.5792
  967MOL0     N30461   2.515   6.789   3.616  0.0320 -0.4026  0.1030
  967MOL0     C30462   2.835   7.964   3.614  0.5547  1.1701  0.0319
  967MOL0     C30463   2.842   8.091   3.551 -0.3754  0.4739  0.2456
  967MOL0     C30464   3.065   8.384   3.247  0.0760 -0.5695  0.1106
  967MOL0     C30465   3.087   8.476   3.348  0.0828 -0.3673  0.4664
  967MOL0     C30466   3.125   8.610   3.324 -0.5661 -0.0626  1.1020
  967MOL0     C30467   3.143   8.654   3.189 -0.0910 -0.5108  0.1352
  967MOL0     O30468   3.165   8.787   3.179  0.0374 -0.4233 -0.1361
  967MOL0     C30469   3.092   8.857   3.078  0.2494  0.0950 -0.6929
  967MOL0     C30470   3.113   9.014   3.078  0.3403  0.1945  0.6527
  967MOL0     C30471   3.079   9.098   3.207  0.4208 -0.5047  0.3601
  967MOL0     C30472   3.069   9.250   3.182  0.0399 -0.7363 -0.0553
  967MOL0     C30473   3.004   9.331   3.286  0.7627  0.2905  0.1952
  967MOL0     C30474   2.938   9.403   3.362  1.1156  0.1648  0.7585
  967MOL0     C30475   3.142   8.562   3.091  0.7353  0.0061 -0.1063
  967MOL0     C30476   3.102   8.432   3.118 -0.2713  0.5567  0.8834
  967MOL0     C30477   3.088   8.341   3.003 -0.3464  1.0309  0.0740
  967MOL0     H30478   3.131   8.026   3.366  1.2434 -1.3918  1.4717
  967MOL0     H30479   3.103   7.813   3.472 -1.3820  0.1956 -1.9900
  967MOL0     H30480   2.816   7.758   3.801  1.6677  2.1935 -0.9117
  967MOL0     H30481   2.721   7.720   3.644  0.3276  0.1235 -0.5743
  967MOL0     H30482   2.733   7.538   3.809 -0.2195  0.4879 -0.6772
  967MOL0     H30483   2.897   7.573   3.832 -1.2978 -0.4427  1.0184
  967MOL0     H30484   2.960   7.442   3.625  0.3625 -1.8360 -1.4856
  967MOL0     H30485   2.805   7.480   3.553  0.7524  0.3186 -0.0399
  967MOL0     H30486   2.824   7.297   3.789  0.4469  0.3889 -0.7551
  967MOL0     H30487   2.688   7.317   3.698 -0.3955 -0.3052  3.0205
  967MOL0     H30488   2.890   7.248   3.509  1.4472  2.2271  1.7327
  967MOL0     H30489   2.939   7.164   3.656 -0.6608  0.7317  0.5013
  967MOL0     H30490   2.693   7.069   3.680  1.8536 -0.7440  0.4948
  967MOL0     H30491   2.667   7.151   3.524  2.1725 -0.2625 -3.1604
  967MOL0     H30492   2.803   6.894   3.586  0.7230  2.6230  2.5549
  967MOL0     H30493   2.839   6.982   3.439  2.2338  1.9100  2.3114
  967MOL0     H30494   2.604   6.995   3.363 -2.0414 -0.2791  1.2249
  967MOL0     H30495   2.669   6.827   3.387  2.2445 -0.2563  0.1270
  967MOL0     H30496   2.380   7.046   3.458 -0.4005 -0.3433 -0.2142
  967MOL0     H30497   2.177   7.049   3.637 -0.3441  0.2035  0.9869
  967MOL0     H30498   2.126   6.880   3.689  1.5837 -2.5063  2.4431
  967MOL0     H30499   2.124   7.068   3.886 -0.1866  1.4408 -1.2487
  967MOL0     H30500   2.221   6.922   3.917  1.2336  1.0329  2.3770
  967MOL0     H30501   2.421   7.030   3.831  0.6600  1.5320  0.8213
  967MOL0     H30502   2.363   7.091   3.984 -0.6912  0.1997 -0.7634
  967MOL0     H30503   2.450   7.272   3.892  0.4270 -0.4401 -0.9763
  967MOL0     H30504   2.279   7.300   3.876  0.6467 -0.0610  1.0629
  967MOL0     H30505   2.435   7.275   3.459  0.1875 -0.0796  0.7808
  967MOL0     H30506   2.376   7.449   3.308 -0.6239 -1.4630  0.3769
  967MOL0     H30507   1.931   7.693   3.233 -0.1624 -0.1040 -1.1752
  967MOL0     H30508   1.820   7.852   3.088  0.2746 -1.2200 -3.9708
  967MOL0     H30509   1.765   8.011   2.956  0.7878 -0.6798  0.9261
  967MOL0     H30510   1.795   8.085   2.798  1.1397  1.1811  0.8714
  967MOL0     H30511   1.831   7.786   2.863  1.6228 -0.8638 -1.0787
  967MOL0     H30512   1.689   7.842   2.791 -0.2160 -0.4772  1.1251
  967MOL0     H30513   1.963   7.902   2.697  0.6902 -1.3289  1.3026
  967MOL0     H30514   1.869   7.759   2.632 -3.4240 -0.1123  0.2665
  967MOL0     H30515   1.869   7.932   2.462 -0.2540 -1.3654 -0.0925
  967MOL0     H30516   1.812   8.056   2.582 -1.9823 -1.2867  0.9475
  967MOL0     H30517   1.647   7.988   2.432 -0.3824  2.7183  2.7015
  967MOL0     H30518   1.602   7.923   2.590 -1.9417 -1.5661 -1.4003
  967MOL0     H30519   1.744   7.730   2.408 -0.5482 -1.9480  0.9311
  967MOL0     H30520   1.644   7.695   2.549  1.3516 -2.0274 -0.4154
  967MOL0     H30521   1.535   7.640   2.345  4.9348  1.5513 -0.1776
  967MOL0     H30522   1.530   7.815   2.296 -0.2304  1.1714  1.4808
  967MOL0     H30523   1.318   7.712   2.403 -1.0509 -1.8965  2.5853
  967MOL0     H30524   1.397   7.740   2.557 -1.8464 -1.3831 -1.2568
  967MOL0     H30525   2.193   8.002   2.976 -0.1986 -3.1419 -3.9809
  967MOL0     H30526   2.319   7.853   3.141  0.5579  2.1118 -2.1372
  967MOL0     H30527   2.210   7.657   3.662  0.2272  1.5955 -1.5900
  967MOL0     H30528   2.257   7.484   3.792  1.8744  1.3385  0.4183
  967MOL0     H30529   2.758   7.960   3.690  1.9613  0.3721  1.4815
  967MOL0     H30530   2.770   8.167   3.580 -2.3380 -1.3728  0.4084
  967MOL0     H30531   3.048   8.462   3.448  2.9790 -1.9720  1.4842
  967MOL0     H30532   3.118   8.675   3.410 -0.9200 -0.7392  1.6012
  967MOL0     H30533   2.985   8.839   3.095  1.0642 -3.7075  1.7576
  967MOL0     H30534   3.123   8.822   2.979  0.2837  1.5135 -1.2011
  967MOL0     H30535   3.049   9.052   2.999  0.9109 -0.3461 -0.0838
  967MOL0     H30536   3.221   9.029   3.067  0.3429  0.6562  1.2360
  967MOL0     H30537   3.154   9.078   3.283 -0.8150  0.2767  1.8347
  967MOL0     H30538   2.979   9.070   3.240 -1.1430  0.5552 -2.9721
  967MOL0     H30539   3.172   9.282   3.162  0.6978 -1.8245  1.4331
  967MOL0     H30540   3.015   9.278   3.091 -2.1964  0.3219  1.5032
  967MOL0     H30541   2.885   9.466   3.430 -0.3962  0.0290 -0.2495
  967MOL0     H30542   3.157   8.600   2.990  1.0520  1.3307  0.4090
  967MOL0     H30543   3.180   8.282   3.006  0.0351  1.6094 -0.1405
  967MOL0     H30544   2.989   8.294   3.005 -0.0146  0.3320  0.3667
  967MOL0     H30545   3.102   8.390   2.906  3.0667 -1.0191 -0.6294
  968MOL0     O30546   7.539   9.714   7.778 -0.0832  0.0302 -0.2407
  968MOL0     C30547   7.460   9.723   7.874 -0.5708  0.4258  0.4114
  968MOL0     O30548   7.489   9.784   7.987  0.2337 -0.1292 -0.1546
  968MOL0     C30549   7.618   9.832   8.009  0.3462 -0.0322  0.2380
  968MOL0     C30550   7.631   9.966   8.037 -0.0382 -0.3605 -0.0479
  968MOL0     C30551   7.749  10.005   8.094 -0.1091  0.2237 -1.2123
  968MOL0     C30552   7.859   9.920   8.124  0.5487  0.5496  0.1266
  968MOL0     O30553   7.977   9.978   8.158 -0.1981  0.3196  0.0708
  968MOL0     C30554   8.100   9.914   8.116  0.2130 -0.2856 -0.5129
  968MOL0     C30555   8.211  10.020   8.130 -0.3227 -0.0603 -0.9255
  968MOL0     C30556   8.362   9.974   8.121  0.0010  0.1081  0.3504
  968MOL0     C30557   8.376   9.930   7.982  0.2167  0.9982 -0.3455
  968MOL0     C30558   8.523   9.879   7.961  0.6711 -0.2418  1.6195
  968MOL0     C30559   8.622   9.987   7.930 -0.3144 -0.4382  0.7699
  968MOL0     C30560   8.764   9.938   7.904 -0.0330  0.7661 -0.1652
  968MOL0     C30561   8.850   9.938   8.031  0.2225 -0.2844 -0.0224
  968MOL0     N30562   8.963  10.027   8.016 -0.1406 -0.0862 -0.2603
  968MOL0     C30563   8.976  10.153   8.058  0.1132  0.3850 -0.1448
  968MOL0     C30564   9.091  10.205   8.016 -0.6317  0.0139  0.0107
  968MOL0     C30565   9.160  10.334   8.047 -0.2804  0.4796 -0.0647
  968MOL0     C30566   9.239  10.333   8.179  0.0588 -0.3111 -0.1853
  968MOL0     C30567   9.379  10.258   8.155  0.1019  0.4447 -0.8144
  968MOL0     C30568   9.487  10.257   8.261  0.3255  0.2516 -0.7233
  968MOL0     O30569   9.616  10.244   8.209  0.6779  0.0639 -0.7675
  968MOL0     C30570   9.716  10.311   8.272  0.7059  0.6517  0.2002
  968MOL0     C30571   9.823  10.330   8.183 -0.6369 -0.9803 -0.4811
  968MOL0     C30572   9.931  10.407   8.233  0.3751  0.7560  0.0204
  968MOL0     C30573   9.935  10.451   8.365 -0.4655 -0.2140 -0.0343
  968MOL0     C30574  10.054  10.528   8.410  0.2437  0.3127 -0.7137
  968MOL0     O30575  10.077  10.541   8.541  0.4340 -0.1866 -0.3965
  968MOL0     C30576  10.190  10.591   8.605  1.1543  0.2708  0.3903
  968MOL0     C30577  10.202  10.562   8.737 -0.4188 -0.5551  0.4286
  968MOL0     C30578  10.307  10.626   8.819 -0.0182  0.2356  1.2364
  968MOL0     C30579  10.395  10.721   8.768  0.0315 -0.7160  0.2686
  968MOL0     O30580  10.504  10.785   8.828  0.1116 -0.0381  0.0159
  968MOL0     C30581  10.535  10.738   8.965 -0.2583  0.1579 -0.1374
  968MOL0     C30582  10.652  10.821   9.023 -0.3068  0.2614 -0.0274
  968MOL0     C30583  10.637  10.845   9.180  0.2397 -0.9059 -0.0602
  968MOL0     C30584  10.759  10.924   9.235 -0.0356  0.2088 -0.0893
  968MOL0     C30585  10.717  10.967   9.380  0.1263 -0.2740 -0.3713
  968MOL0     C30586  10.838  11.008   9.473  0.8890 -0.9557 -0.7027
  968MOL0     C30587  10.795  11.102   9.585 -0.6777 -0.3868  0.0131
  968MOL0     C30588  10.741  11.235   9.545  0.4082 -0.1640  0.1244
  968MOL0    Cl30589  10.836  11.337   9.429  0.1642  0.1664 -0.0206
  968MOL0     C30590  10.379  10.751   8.636 -0.3282  0.0121  0.6515
  968MOL0     C30591  10.278  10.692   8.556  0.6325  0.2162  0.1436
  968MOL0     O30592  10.135  10.557   8.319 -0.2392 -1.9886  0.4107
  968MOL0     C30593   9.831  10.419   8.453 -0.5199 -0.7639 -0.1715
  968MOL0     C30594   9.711  10.363   8.408 -0.0960  0.2311 -0.2699
  968MOL0     N30595   9.146  10.108   7.940  0.5269 -0.3204  0.3362
  968MOL0     N30596   9.067  10.001   7.938  0.6595 -0.6806 -0.2705
  968MOL0     C30597   7.838   9.775   8.093 -0.9208 -0.2914  0.0528
  968MOL0     C30598   7.718   9.736   8.036 -0.2045 -0.4411  0.5226
  968MOL0     C30599   7.363   9.616   7.869  0.8787 -0.5338 -0.2419
  968MOL0     C30600   7.318   9.567   7.988  0.0244  0.2240  0.0912
  968MOL0     C30601   7.222   9.470   8.006  0.6490  0.3960 -0.6098
  968MOL0     C30602   7.158   9.418   7.889 -0.9030 -0.7073  1.0616
  968MOL0     O30603   7.046   9.339   7.891 -0.0435 -0.1035 -0.7900
  968MOL0     C30604   6.997   9.311   8.028  0.8698 -0.0621  1.1504
  968MOL0     C30605   6.876   9.211   8.023 -0.7337  0.2798  0.4224
  968MOL0     C30606   6.736   9.264   8.011  0.6248 -0.7156 -0.1307
  968MOL0     C30607   6.687   9.310   7.878  0.1647  0.2986  1.0965
  968MOL0     C30608   6.539   9.289   7.865  0.0411 -0.7462 -0.2500
  968MOL0     C30609   6.416   9.276   7.883 -0.4110  0.7872  1.5114
  968MOL0     C30610   7.212   9.462   7.768  0.0060  1.0460  0.0554
  968MOL0     C30611   7.310   9.555   7.758  0.7444  0.0616 -1.1891
  968MOL0     C30612   7.365   9.590   7.622  0.7164 -0.3314 -0.4935
  968MOL0     H30613   7.557  10.042   8.014  0.1140  0.2385  1.3407
  968MOL0     H30614   7.765  10.112   8.101 -2.5365  0.6488 -1.0773
  968MOL0     H30615   8.128   9.830   8.180 -0.6026 -0.0004  0.2516
  968MOL0     H30616   8.091   9.879   8.013 -5.7604 -1.2949  0.0028
  968MOL0     H30617   8.193  10.057   8.232  4.4863  0.0891  0.1279
  968MOL0     H30618   8.185  10.109   8.071  0.4387  2.5229  2.2842
  968MOL0     H30619   8.381   9.893   8.193  2.9300  2.3185  2.2831
  968MOL0     H30620   8.442  10.045   8.145 -0.4913  0.0291  2.4109
  968MOL0     H30621   8.313   9.846   7.951  2.0676 -0.4887 -0.2583
  968MOL0     H30622   8.363  10.016   7.915 -1.3402  0.9629 -0.1406
  968MOL0     H30623   8.555   9.819   8.046 -0.3190 -0.3105  1.9620
  968MOL0     H30624   8.522   9.817   7.870  0.9337 -0.7071  1.9290
  968MOL0     H30625   8.596  10.037   7.836 -0.3163 -0.0976  0.9508
  968MOL0     H30626   8.635  10.070   8.001  2.0429  1.4343 -1.6210
  968MOL0     H30627   8.797  10.001   7.822 -0.2743  0.9393 -0.1295
  968MOL0     H30628   8.766   9.842   7.851  0.0267 -0.0185  1.2087
  968MOL0     H30629   8.790   9.975   8.114  0.1663 -0.2453 -0.0803
  968MOL0     H30630   8.880   9.835   8.054  0.4326 -0.0097  0.9814
  968MOL0     H30631   8.906  10.198   8.128  1.1023  2.2048 -0.2546
  968MOL0     H30632   9.231  10.353   7.966  1.7148  2.5002  2.0398
  968MOL0     H30633   9.082  10.411   8.049 -1.6968 -0.9041  0.6619
  968MOL0     H30634   9.256  10.437   8.207 -2.2443 -0.1426  0.8334
  968MOL0     H30635   9.178  10.285   8.257 -2.0745  0.5371 -1.2515
  968MOL0     H30636   9.423  10.311   8.070 -0.1826  2.5552  0.2834
  968MOL0     H30637   9.356  10.155   8.129  0.7071 -0.9168  3.4039
  968MOL0     H30638   9.476  10.178   8.336 -0.5498  0.2035 -0.8920
  968MOL0     H30639   9.486  10.355   8.311  0.7286  0.5820 -1.3455
  968MOL0     H30640   9.820  10.291   8.082  0.5188 -0.5427 -0.6995
  968MOL0     H30641  10.007  10.418   8.157 -1.1715 -2.3080 -2.1496
  968MOL0     H30642  10.125  10.498   8.779 -1.4344 -3.2749 -4.7662
  968MOL0     H30643  10.326  10.593   8.921  1.8223 -0.9565  0.5548
  968MOL0     H30644  10.453  10.749   9.037 -0.1514 -2.6559  0.5392
  968MOL0     H30645  10.570  10.635   8.955  5.8226  1.7587  0.9716
  968MOL0     H30646  10.744  10.765   9.006 -0.5253 -0.2330  0.3905
  968MOL0     H30647  10.661  10.916   8.969 -2.0745  0.5777  0.1600
  968MOL0     H30648  10.545  10.902   9.194  0.0005 -0.9536 -1.3361
  968MOL0     H30649  10.642  10.749   9.233  3.1415 -0.7871  0.0735
  968MOL0     H30650  10.767  11.011   9.169  0.2601  0.3413  0.1220
  968MOL0     H30651  10.851  10.866   9.229  0.3053  0.7749 -0.2921
  968MOL0     H30652  10.682  10.883   9.442  2.9318 -0.7406  0.7644
  968MOL0     H30653  10.636  11.037   9.360 -0.2857 -1.1282 -1.8872
  968MOL0     H30654  10.891  10.922   9.513  1.2133 -1.5967 -2.4088
  968MOL0     H30655  10.910  11.062   9.411 -2.2738  1.2161 -2.7795
  968MOL0     H30656  10.883  11.117   9.648 -0.0622 -1.4551 -0.5657
  968MOL0     H30657  10.721  11.049   9.646  0.5035 -1.5467  0.5000
  968MOL0     H30658  10.635  11.217   9.526 -0.0509  0.8552  1.4854
  968MOL0     H30659  10.747  11.303   9.631  0.3547 -0.2606  0.2057
  968MOL0     H30660  10.450  10.818   8.588 -3.1464  0.9458 -2.5906
  968MOL0     H30661  10.271  10.741   8.459  2.7323 -0.4371 -0.3916
  968MOL0     H30662   9.843  10.461   8.552  1.0036  0.7059 -0.9189
  968MOL0     H30663   9.623  10.341   8.468  0.1743  1.7481  0.7581
  968MOL0     H30664   7.915   9.702   8.116  0.1699  0.0455 -2.2920
  968MOL0     H30665   7.706   9.630   8.016  1.9439 -0.4148 -1.2377
  968MOL0     H30666   7.336   9.614   8.084 -0.3191  0.6016 -0.0275
  968MOL0     H30667   7.201   9.462   8.112  2.4712  1.1934 -0.1526
  968MOL0     H30668   6.944   9.391   8.082 -1.0527 -0.5044  0.0129
  968MOL0     H30669   7.076   9.263   8.087  2.6349 -1.9261 -2.4208
  968MOL0     H30670   6.884   9.163   8.121  1.1921  2.7699  1.6133
  968MOL0     H30671   6.897   9.135   7.947  1.0954 -2.2112  3.1831
  968MOL0     H30672   6.712   9.350   8.074 -0.4482 -1.4533  0.4980
  968MOL0     H30673   6.668   9.196   8.063 -1.4800 -0.5151 -2.4263
  968MOL0     H30674   6.710   9.416   7.860  3.5833 -0.6247 -0.8784
  968MOL0     H30675   6.748   9.262   7.801  0.1460  0.0266  1.2519
  968MOL0     H30676   6.309   9.265   7.882 -0.6924  2.2013 -2.6546
  968MOL0     H30677   7.161   9.434   7.677 -1.6140  2.6326  0.4242
  968MOL0     H30678   7.462   9.544   7.600  0.1761 -0.5336 -2.6592
  968MOL0     H30679   7.288   9.565   7.548  1.2796  2.7669 -2.2569
  968MOL0     H30680   7.368   9.697   7.601  1.4734 -0.8239 -3.3075
  969MOL0     O30681   2.578   7.070   6.885 -0.0586  0.1351  0.0326
  969MOL0     C30682   2.624   7.154   6.957  0.3222  0.1456 -0.8218
  969MOL0     O30683   2.577   7.272   6.975 -0.5421 -0.2036 -0.6360
  969MOL0     C30684   2.477   7.308   6.896 -0.1871 -0.2904  0.3497
  969MOL0     C30685   2.496   7.392   6.789  0.0267  0.1756 -0.5054
  969MOL0     C30686   2.387   7.444   6.718  0.2832 -0.0301  0.5644
  969MOL0     C30687   2.255   7.410   6.757 -0.1141  0.1202 -0.3958
  969MOL0     O30688   2.154   7.463   6.682  0.3383 -0.3624 -0.4812
  969MOL0     C30689   2.133   7.390   6.558 -0.4866  0.8632 -0.6638
  969MOL0     C30690   2.015   7.281   6.567 -0.8461 -0.3831  0.1872
  969MOL0     C30691   1.966   7.267   6.424 -0.5480 -0.8564  0.2819
  969MOL0     C30692   1.879   7.385   6.377 -0.2773  0.6545 -0.1908
  969MOL0     C30693   1.777   7.336   6.273  0.2550 -0.2829 -0.2168
  969MOL0     C30694   1.673   7.441   6.245 -0.2676 -0.7820  0.5601
  969MOL0     C30695   1.550   7.442   6.337 -0.0892 -0.8232  0.6997
  969MOL0     C30696   1.508   7.584   6.370  0.4110 -0.5384  0.5829
  969MOL0     N30697   1.610   7.676   6.433 -0.2249 -0.2224 -0.6970
  969MOL0     C30698   1.662   7.675   6.561 -0.0614  0.7415 -0.5579
  969MOL0     C30699   1.761   7.768   6.568  0.5359  0.1674 -0.0057
  969MOL0     C30700   1.859   7.795   6.682  0.4862  0.9763  0.2150
  969MOL0     C30701   2.000   7.762   6.653 -0.5003 -0.4366 -0.2667
  969MOL0     C30702   2.063   7.847   6.541  0.1205 -0.3304  0.4642
  969MOL0     C30703   2.209   7.817   6.514  0.3819 -0.6989  0.1899
  969MOL0     O30704   2.261   7.914   6.428 -0.1778 -0.3941  0.1118
  969MOL0     C30705   2.394   7.905   6.397  0.7969  0.3185 -0.0205
  969MOL0     C30706   2.486   7.809   6.439  0.8857 -0.4365  0.8026
  969MOL0     C30707   2.620   7.792   6.387  0.4818  0.1524  0.3247
  969MOL0     C30708   2.668   7.883   6.296 -0.5213 -0.9472 -0.4972
  969MOL0     C30709   2.808   7.872   6.242  0.5898  0.5032  0.0613
  969MOL0     O30710   2.845   7.969   6.152  0.1756 -0.2021 -0.0808
  969MOL0     C30711   2.959   7.940   6.076  0.7577 -0.3042  0.9459
  969MOL0     C30712   2.959   7.973   5.935 -1.4903  1.3308  0.7619
  969MOL0     C30713   3.083   7.974   5.865  0.2067 -0.2253 -0.2794
  969MOL0     C30714   3.210   7.942   5.922  0.7236  0.2655  0.3041
  969MOL0     O30715   3.321   7.932   5.850  0.3004 -1.1761  0.4800
  969MOL0     C30716   3.390   7.812   5.876 -0.2941  0.2050  0.4092
  969MOL0     C30717   3.484   7.782   5.764  0.4186  0.7689  0.6555
  969MOL0     C30718   3.406   7.756   5.639  0.1814  0.1364 -0.6669
  969MOL0     C30719   3.491   7.726   5.513  0.0263 -0.2373  0.3468
  969MOL0     C30720   3.380   7.696   5.403 -0.8476  0.2263 -0.3037
  969MOL0     C30721   3.458   7.635   5.276  0.6634 -0.3729 -0.7138
  969MOL0     C30722   3.372   7.595   5.165 -0.2870  0.3507 -0.3232
  969MOL0     C30723   3.259   7.486   5.193 -0.9253 -0.4605 -0.6083
  969MOL0    Cl30724   3.316   7.346   5.293  0.7041  0.5933 -0.7758
  969MOL0     C30725   3.210   7.925   6.062  0.5639  0.1492  0.7591
  969MOL0     C30726   3.087   7.924   6.130  0.1159 -0.1757 -0.2352
  969MOL0     O30727   2.866   7.763   6.265 -0.8480 -0.2514 -1.0222
  969MOL0     C30728   2.581   7.988   6.266  0.4879 -1.0256 -0.8774
  969MOL0     C30729   2.449   8.003   6.310  0.6089 -0.3044 -0.1965
  969MOL0     N30730   1.751   7.831   6.450 -0.3666  0.4082  0.0867
  969MOL0     N30731   1.670   7.781   6.367  0.5176 -0.5010 -0.1830
  969MOL0     C30732   2.230   7.313   6.857 -0.1717  0.2188 -0.1234
  969MOL0     C30733   2.344   7.271   6.931 -0.8146  0.7786  0.5127
  969MOL0     C30734   2.734   7.128   7.045 -1.0706 -0.2411  0.2286
  969MOL0     C30735   2.728   7.143   7.183 -0.1077 -0.2560 -1.0883
  969MOL0     C30736   2.841   7.114   7.269 -0.2526  0.6663 -0.1897
  969MOL0     C30737   2.959   7.064   7.221  0.6717 -0.7917  0.0873
  969MOL0     O30738   3.057   7.041   7.313  0.2015 -0.0607  0.4414
  969MOL0     C30739   3.191   7.008   7.262 -0.5067  0.8765  0.4671
  969MOL0     C30740   3.283   6.970   7.386  0.0793 -0.4946 -0.4774
  969MOL0     C30741   3.421   6.917   7.353 -0.3334 -0.9711 -0.4536
  969MOL0     C30742   3.400   6.777   7.306  0.6136  0.8546  0.1088
  969MOL0     C30743   3.367   6.687   7.417  0.0152  0.2807  0.5270
  969MOL0     C30744   3.325   6.625   7.509  0.1806  0.0648  0.6725
  969MOL0     C30745   2.963   7.040   7.083  0.0950 -0.9108 -0.1133
  969MOL0     C30746   2.864   7.081   6.998  0.4810  0.7464  0.2603
  969MOL0     C30747   2.880   7.074   6.855 -0.2959  0.7947  0.3215
  969MOL0     H30748   2.596   7.422   6.759 -0.4311  1.6602 -0.6245
  969MOL0     H30749   2.403   7.511   6.634 -0.8217 -2.3097 -1.5910
  969MOL0     H30750   2.106   7.466   6.484  1.7865  1.6614 -0.7522
  969MOL0     H30751   2.225   7.339   6.527 -1.1367 -1.0824  0.4494
  969MOL0     H30752   1.935   7.317   6.632 -1.4575 -3.0882  1.0416
  969MOL0     H30753   2.056   7.188   6.609 -3.5409 -1.9325 -0.4147
  969MOL0     H30754   1.900   7.180   6.423 -1.7242 -0.0061 -1.3139
  969MOL0     H30755   2.047   7.234   6.358 -1.8804 -0.5354 -1.6334
  969MOL0     H30756   1.831   7.416   6.470  0.9159 -0.7130  0.9334
  969MOL0     H30757   1.933   7.472   6.339  0.8224  0.6455  1.2430
  969MOL0     H30758   1.837   7.304   6.186 -0.2941 -0.0613 -0.6820
  969MOL0     H30759   1.723   7.247   6.305 -2.2117  0.6787 -1.4091
  969MOL0     H30760   1.716   7.541   6.238 -0.8981 -0.6026 -1.3631
  969MOL0     H30761   1.634   7.424   6.144  0.3863 -0.7021  0.2944
  969MOL0     H30762   1.578   7.393   6.431  0.0251 -1.2775  0.4316
  969MOL0     H30763   1.471   7.382   6.291  0.1595 -0.9387  0.4206
  969MOL0     H30764   1.473   7.634   6.279 -2.5376  0.9000  2.3432
  969MOL0     H30765   1.422   7.567   6.435 -1.2321 -2.1331 -1.8367
  969MOL0     H30766   1.634   7.598   6.633 -1.0641 -0.4866 -2.1847
  969MOL0     H30767   1.849   7.902   6.701  0.6709  1.5108 -2.3947
  969MOL0     H30768   1.823   7.742   6.771  4.0090 -1.1590  0.5764
  969MOL0     H30769   2.050   7.776   6.749 -4.9224 -1.8248  2.5483
  969MOL0     H30770   2.013   7.659   6.617 -0.0051 -1.3416  2.2771
  969MOL0     H30771   2.046   7.954   6.556 -1.3292 -0.1777 -1.8330
  969MOL0     H30772   2.001   7.828   6.452 -2.9586 -0.3363  2.4514
  969MOL0     H30773   2.209   7.716   6.473  0.3140 -0.5300 -0.2256
  969MOL0     H30774   2.271   7.821   6.605 -0.9105  1.7766  1.0511
  969MOL0     H30775   2.465   7.730   6.510 -2.1160  1.3811  2.0869
  969MOL0     H30776   2.689   7.724   6.436  3.5172  2.7627 -0.0776
  969MOL0     H30777   2.870   7.977   5.873  0.0377 -4.2296 -2.4263
  969MOL0     H30778   3.081   8.000   5.760 -1.8983 -0.0303 -0.2201
  969MOL0     H30779   3.451   7.819   5.967 -2.6663 -0.7968  2.1775
  969MOL0     H30780   3.329   7.721   5.882 -0.5338  0.4431  1.9167
  969MOL0     H30781   3.559   7.861   5.763  0.1219  1.1854 -2.8302
  969MOL0     H30782   3.536   7.689   5.789 -0.8857 -0.2502 -0.2627
  969MOL0     H30783   3.349   7.664   5.654 -2.5518  1.8340  0.1459
  969MOL0     H30784   3.339   7.836   5.609 -0.7472  0.0276  1.0050
  969MOL0     H30785   3.552   7.637   5.531 -2.4598 -1.9735  0.6746
  969MOL0     H30786   3.556   7.811   5.490  2.4969 -1.9644  0.6442
  969MOL0     H30787   3.322   7.788   5.386  0.4572  1.3765  1.1511
  969MOL0     H30788   3.321   7.613   5.441  1.2865 -2.3276 -2.1821
  969MOL0     H30789   3.526   7.715   5.245  0.4977 -0.7519 -2.1334
  969MOL0     H30790   3.497   7.536   5.304  0.3447 -1.0022 -2.3929
  969MOL0     H30791   3.428   7.562   5.077 -0.5459  0.1130 -0.3971
  969MOL0     H30792   3.330   7.691   5.133  1.3863  0.5120 -2.2230
  969MOL0     H30793   3.169   7.515   5.249  0.1975 -1.5465  1.8463
  969MOL0     H30794   3.211   7.452   5.100  0.7700 -1.3077 -1.2080
  969MOL0     H30795   3.304   7.931   6.115  0.0210  1.3505  1.6275
  969MOL0     H30796   3.076   7.914   6.237  0.7464 -2.4467 -0.3354
  969MOL0     H30797   2.615   8.074   6.210  0.8531 -0.3421  0.3426
  969MOL0     H30798   2.376   8.078   6.281  0.1351 -1.2747 -1.6542
  969MOL0     H30799   2.125   7.292   6.878  0.0234 -2.9279 -1.6269
  969MOL0     H30800   2.314   7.208   7.013 -0.6025  0.1350  0.1051
  969MOL0     H30801   2.637   7.176   7.232  0.8366 -0.6253  1.0264
  969MOL0     H30802   2.836   7.109   7.377 -0.5951 -3.1984 -0.2408
  969MOL0     H30803   3.229   7.088   7.197  3.2400 -3.6136 -3.6092
  969MOL0     H30804   3.193   6.921   7.196  2.0262  2.1036 -1.2624
  969MOL0     H30805   3.227   6.912   7.460  0.1024 -0.9729 -0.8350
  969MOL0     H30806   3.285   7.066   7.439 -1.5822 -0.7076  0.0118
  969MOL0     H30807   3.477   6.933   7.446 -1.9065 -0.6010  0.4687
  969MOL0     H30808   3.464   6.982   7.276  1.3845 -3.5150 -1.8030
  969MOL0     H30809   3.332   6.772   7.220  1.8071  1.1570 -0.8814
  969MOL0     H30810   3.493   6.741   7.260  0.8072  0.5105  0.7619
  969MOL0     H30811   3.307   6.571   7.599  1.7946  0.3325  1.1759
  969MOL0     H30812   3.056   7.018   7.033 -1.4940 -4.0310 -1.9451
  969MOL0     H30813   2.984   7.049   6.833  0.3592  2.5082  1.2609
  969MOL0     H30814   2.807   7.006   6.810 -1.1891  1.6266  0.4697
  969MOL0     H30815   2.875   7.174   6.810  0.6655 -0.7782 -3.7094
  970MOL0     O30816   1.454   7.351   6.682 -0.3862 -0.3931 -0.7042
  970MOL0     C30817   1.376   7.269   6.731  0.5924 -0.6067  0.2076
  970MOL0     O30818   1.379   7.141   6.701  0.3526 -0.4186  0.1721
  970MOL0     C30819   1.473   7.093   6.620  0.5103  0.4308  0.2643
  970MOL0     C30820   1.427   7.060   6.487  0.9787 -0.8336 -0.1494
  970MOL0     C30821   1.519   7.016   6.391  0.8205 -0.9106  0.2861
  970MOL0     C30822   1.659   7.010   6.418  0.9003 -0.5468  0.3814
  970MOL0     O30823   1.763   6.976   6.338  0.3528 -0.2482  0.2632
  970MOL0     C30824   1.750   6.928   6.210  0.3830 -0.1520 -0.0805
  970MOL0     C30825   1.897   6.878   6.169 -0.0173  0.3064  0.5666
  970MOL0     C30826   1.938   6.745   6.214  0.2539  0.3097 -0.3760
  970MOL0     C30827   2.068   6.698   6.153 -0.8320  0.9041  0.0345
  970MOL0     C30828   2.169   6.639   6.256  0.7336 -0.3703  0.0991
  970MOL0     C30829   2.290   6.592   6.178 -0.5937  0.8854  0.1277
  970MOL0     C30830   2.408   6.568   6.275  0.8199 -0.1341  0.3803
  970MOL0     C30831   2.538   6.514   6.205  0.8869 -0.2788 -0.2553
  970MOL0     N30832   2.528   6.377   6.156 -0.2287  0.5603  0.4843
  970MOL0     C30833   2.503   6.282   6.251 -0.1463  0.1009  0.6690
  970MOL0     C30834   2.487   6.169   6.181 -0.1678 -0.7340  0.1267
  970MOL0     C30835   2.475   6.027   6.235  0.9477  0.4706  0.5044
  970MOL0     C30836   2.600   5.948   6.246  0.3805  0.0575  0.5441
  970MOL0     C30837   2.708   6.026   6.328  0.4243  0.2381  0.4157
  970MOL0     C30838   2.830   5.951   6.354  0.4339  1.3251  0.1427
  970MOL0     O30839   2.920   5.953   6.246  0.3381 -0.2084  0.8729
  970MOL0     C30840   3.012   5.859   6.252  0.5213  0.7492  0.0232
  970MOL0     C30841   3.089   5.833   6.371  1.0486  0.9604 -0.9921
  970MOL0     C30842   3.182   5.731   6.376 -0.1514  0.0508 -0.1656
  970MOL0     C30843   3.192   5.644   6.267 -0.3011 -0.1301  0.0959
  970MOL0     C30844   3.271   5.518   6.285  0.8025 -0.6616 -0.3159
  970MOL0     O30845   3.335   5.457   6.181  0.0692 -0.0086  0.0476
  970MOL0     C30846   3.399   5.338   6.185  0.3184 -0.2389 -1.1621
  970MOL0     C30847   3.343   5.220   6.238 -0.5789 -0.4175 -0.4516
  970MOL0     C30848   3.417   5.104   6.225 -1.2761  0.2645 -0.2791
  970MOL0     C30849   3.542   5.100   6.150 -0.4153  0.2342 -0.4134
  970MOL0     O30850   3.604   4.979   6.150 -0.5095 -0.1163 -0.0906
  970MOL0     C30851   3.749   4.993   6.133  0.6342 -0.7623  0.5700
  970MOL0     C30852   3.799   4.856   6.155  0.0242 -0.4460 -0.4552
  970MOL0     C30853   3.949   4.839   6.126  0.0807 -0.1266 -0.9101
  970MOL0     C30854   3.996   4.686   6.146 -0.3187  0.2398 -0.0737
  970MOL0     C30855   4.146   4.673   6.122  0.5192  0.6859  1.2365
  970MOL0     C30856   4.204   4.550   6.188  0.3595 -0.9965 -0.7130
  970MOL0     C30857   4.160   4.416   6.127 -0.8893  0.0734 -0.7183
  970MOL0     C30858   4.178   4.299   6.220  0.4459  0.2687 -0.9662
  970MOL0    Cl30859   4.037   4.266   6.321 -0.0041 -0.2395  0.1803
  970MOL0     C30860   3.584   5.222   6.090  0.3513 -0.2485 -0.7236
  970MOL0     C30861   3.513   5.337   6.113 -0.1692  0.5308  0.2664
  970MOL0     O30862   3.281   5.474   6.401 -0.0304 -0.5520  0.5184
  970MOL0     C30863   3.129   5.673   6.147 -0.6875 -0.5688  0.0559
  970MOL0     C30864   3.037   5.785   6.138 -1.0523 -0.4267 -0.2895
  970MOL0     N30865   2.482   6.198   6.048  0.7013 -0.2618 -0.2646
  970MOL0     N30866   2.503   6.326   6.031  1.0656  0.0387  0.5758
  970MOL0     C30867   1.699   7.050   6.543 -0.1936 -0.3939  0.1050
  970MOL0     C30868   1.612   7.094   6.641  0.0651 -0.1964  0.5543
  970MOL0     C30869   1.276   7.326   6.833  0.8379  0.4084  0.1709
  970MOL0     C30870   1.294   7.462   6.879  0.8306  0.4289 -0.0864
  970MOL0     C30871   1.205   7.520   6.959  0.1260 -0.9536 -0.9707
  970MOL0     C30872   1.091   7.454   7.013  0.3485  0.0624  0.3451
  970MOL0     O30873   1.015   7.525   7.100 -0.1480  0.2531  0.1434
  970MOL0     C30874   0.895   7.465   7.143 -0.6379 -0.1562  0.2993
  970MOL0     C30875   0.817   7.571   7.222 -1.0795 -0.1625  0.6649
  970MOL0     C30876   0.729   7.666   7.137  0.1247 -0.9402 -0.8784
  970MOL0     C30877   0.672   7.781   7.232 -0.0636 -0.7751  0.3452
  970MOL0     C30878   0.593   7.719   7.334  0.5966 -0.5086  0.1631
  970MOL0     C30879   0.527   7.668   7.421  0.6645 -0.9422  0.6264
  970MOL0     C30880   1.070   7.326   6.971  0.1538  0.0608  1.4585
  970MOL0     C30881   1.161   7.260   6.887  0.2310  0.3869  0.4622
  970MOL0     C30882   1.127   7.114   6.864  0.1608  1.6747 -0.2257
  970MOL0     H30883   1.323   7.053   6.460  0.3421 -0.8588  2.0902
  970MOL0     H30884   1.471   6.986   6.298  1.1908 -0.1386 -0.1636
  970MOL0     H30885   1.680   6.844   6.203  0.7355 -0.4747  0.1791
  970MOL0     H30886   1.700   7.006   6.152 -1.8149 -2.4021 -1.4095
  970MOL0     H30887   1.963   6.957   6.205 -1.3400  0.4146  2.9170
  970MOL0     H30888   1.910   6.879   6.060  0.4660 -0.2041  0.6122
  970MOL0     H30889   1.861   6.675   6.178  2.4076 -1.1551 -2.4088
  970MOL0     H30890   1.945   6.750   6.323  0.9369  2.5779 -0.4621
  970MOL0     H30891   2.044   6.622   6.078  0.0552  0.6854 -0.0404
  970MOL0     H30892   2.110   6.776   6.090  0.9280  0.0994  0.1499
  970MOL0     H30893   2.208   6.717   6.323 -1.6438 -0.7199  2.0101
  970MOL0     H30894   2.123   6.557   6.310  0.5966 -1.7256 -1.9853
  970MOL0     H30895   2.268   6.508   6.112  1.3789 -0.3756  0.9804
  970MOL0     H30896   2.311   6.674   6.110 -3.1363  3.2263  1.9189
  970MOL0     H30897   2.381   6.491   6.348  1.5679 -1.1077 -0.3488
  970MOL0     H30898   2.440   6.665   6.314  1.9627  0.5966 -2.1190
  970MOL0     H30899   2.558   6.580   6.120 -0.5985 -2.9724 -2.8766
  970MOL0     H30900   2.626   6.518   6.270  0.6326 -0.6857  0.1254
  970MOL0     H30901   2.485   6.296   6.357 -3.0323 -0.5769  0.3438
  970MOL0     H30902   2.422   6.032   6.332  1.1995 -1.1574  0.7472
  970MOL0     H30903   2.408   5.974   6.166  1.2547  2.7144 -1.6541
  970MOL0     H30904   2.574   5.849   6.284  0.2404 -0.9522 -2.0021
  970MOL0     H30905   2.641   5.923   6.148 -1.9209 -0.2320 -0.4181
  970MOL0     H30906   2.661   6.046   6.425 -0.9581 -2.5400  0.4238
  970MOL0     H30907   2.729   6.126   6.289  0.3094 -0.1660 -0.7286
  970MOL0     H30908   2.803   5.846   6.373  1.6092  0.4235 -2.6508
  970MOL0     H30909   2.871   5.998   6.444 -0.0655  2.5968 -0.2829
  970MOL0     H30910   3.064   5.893   6.457 -0.1379 -0.3937 -0.3559
  970MOL0     H30911   3.229   5.700   6.468  0.5837 -4.1727 -1.7624
  970MOL0     H30912   3.257   5.201   6.301 -1.1617  0.9172 -0.8188
  970MOL0     H30913   3.394   5.014   6.281 -0.6732 -0.1556 -0.6767
  970MOL0     H30914   3.775   5.028   6.033 -2.0661  1.8278  0.6186
  970MOL0     H30915   3.788   5.076   6.192 -1.8453  0.7893  0.1895
  970MOL0     H30916   3.768   4.812   6.250  2.9609 -0.2507  0.6946
  970MOL0     H30917   3.755   4.774   6.096 -0.9422  0.3071 -0.8126
  970MOL0     H30918   3.969   4.871   6.023  1.1322  1.5855 -0.2221
  970MOL0     H30919   4.015   4.904   6.185  1.2672  0.1416 -2.4585
  970MOL0     H30920   3.949   4.612   6.081 -1.4689 -0.0126  1.0009
  970MOL0     H30921   3.966   4.650   6.245  0.3544 -2.4125 -0.7608
  970MOL0     H30922   4.203   4.762   6.152 -1.8710  1.7763  2.8466
  970MOL0     H30923   4.164   4.662   6.015 -1.6952  0.5721  0.8469
  970MOL0     H30924   4.313   4.550   6.177  0.4398 -0.0094 -0.0641
  970MOL0     H30925   4.181   4.552   6.295  0.3468  0.9922 -0.7220
  970MOL0     H30926   4.228   4.410   6.042 -1.7749 -2.5333 -1.3535
  970MOL0     H30927   4.057   4.411   6.091 -1.3056 -0.5935  0.4779
  970MOL0     H30928   4.194   4.208   6.162 -0.2876 -1.5939  1.5645
  970MOL0     H30929   4.265   4.324   6.283  0.4155  3.9869 -2.1735
  970MOL0     H30930   3.669   5.223   6.023  0.4516  0.1748 -0.5912
  970MOL0     H30931   3.549   5.430   6.072  2.1525 -0.9183 -1.1949
  970MOL0     H30932   3.153   5.617   6.057 -0.2159  1.6032 -1.2582
  970MOL0     H30933   2.981   5.800   6.046 -0.6296 -0.3099 -0.5305
  970MOL0     H30934   1.804   7.043   6.571  0.1762  0.0979 -1.1136
  970MOL0     H30935   1.644   7.126   6.740 -0.3521  1.1000  0.2878
  970MOL0     H30936   1.379   7.519   6.844 -0.7291  3.1945  0.3526
  970MOL0     H30937   1.220   7.621   6.994  0.2685 -1.0788 -0.6668
  970MOL0     H30938   0.905   7.369   7.195 -0.1081 -0.5736 -0.5537
  970MOL0     H30939   0.833   7.447   7.055 -0.3326  3.5215 -0.8302
  970MOL0     H30940   0.892   7.633   7.272 -1.1209 -0.4680  1.1063
  970MOL0     H30941   0.765   7.512   7.298  3.4864 -2.7589  2.1717
  970MOL0     H30942   0.655   7.608   7.081  1.0877 -1.2769 -1.8318
  970MOL0     H30943   0.800   7.716   7.071  0.7543  1.7984  1.6442
  970MOL0     H30944   0.764   7.826   7.272 -0.5667  0.3522  0.2444
  970MOL0     H30945   0.616   7.858   7.179 -0.1117  0.2352  1.8159
  970MOL0     H30946   0.482   7.613   7.502  0.5501  1.4598  2.2776
  970MOL0     H30947   0.980   7.275   7.005  1.4054 -3.0113  0.5375
  970MOL0     H30948   1.080   7.084   6.770  0.1558 -1.6741  0.7139
  970MOL0     H30949   1.216   7.050   6.869 -0.7206  0.4340 -0.2146
  970MOL0     H30950   1.072   7.082   6.953  0.6372  0.1520 -0.4535
  971MOL0     O30951   3.826  10.928   9.749  0.4846 -0.7467 -0.3104
  971MOL0     C30952   3.816  10.970   9.867  0.1340 -0.7254 -0.9866
  971MOL0     O30953   3.904  10.951   9.967  0.1420  0.4231  0.2013
  971MOL0     C30954   4.023  10.888   9.939  0.7158  0.2687 -0.3549
  971MOL0     C30955   4.110  10.894   9.824 -0.0297  0.4676 -1.0769
  971MOL0     C30956   4.209  10.801   9.794 -0.3007  0.3664  0.1394
  971MOL0     C30957   4.236  10.692   9.882 -0.5224 -0.3351 -0.0034
  971MOL0     O30958   4.333  10.599   9.869  0.3010  0.1859  0.1031
  971MOL0     C30959   4.376  10.586   9.736 -0.1170  0.9377 -0.2772
  971MOL0     C30960   4.451  10.452   9.731  0.4577 -0.4126  0.0992
  971MOL0     C30961   4.360  10.326   9.743  0.0208 -0.5749  0.3986
  971MOL0     C30962   4.415  10.200   9.676  0.7721  0.3643  0.1275
  971MOL0     C30963   4.351  10.062   9.713  0.2786  0.1233 -0.0833
  971MOL0     C30964   4.217  10.048   9.641 -0.5044  0.0465 -0.1253
  971MOL0     C30965   4.163   9.901   9.676 -0.0953  0.3266 -0.4928
  971MOL0     C30966   4.016   9.887   9.707  0.3536 -0.0171 -0.2918
  971MOL0     N30967   3.933   9.953   9.601 -0.1970  0.1975 -0.1727
  971MOL0     C30968   3.885   9.890   9.489  0.2266  0.5071 -0.2345
  971MOL0     C30969   3.803   9.979   9.436  0.0086 -0.7125  0.7686
  971MOL0     C30970   3.720   9.971   9.308 -0.9232  0.6954 -0.3853
  971MOL0     C30971   3.612   9.882   9.340  0.0216 -0.2964 -0.1950
  971MOL0     C30972   3.517   9.845   9.222  0.2288 -0.7173  0.2490
  971MOL0     C30973   3.429   9.959   9.175  0.0019  0.0667 -0.3563
  971MOL0     O30974   3.361   9.923   9.057  0.5741 -0.0954  0.5573
  971MOL0     C30975   3.247   9.851   9.059  0.0446  0.2688  0.3305
  971MOL0     C30976   3.204   9.780   9.168 -0.2971  0.1072  0.2690
  971MOL0     C30977   3.086   9.711   9.154 -0.1898 -0.2322 -0.9609
  971MOL0     C30978   3.011   9.701   9.038  0.5203  0.7452  0.0542
  971MOL0     C30979   2.881   9.626   9.021  0.5111 -0.7026 -0.6784
  971MOL0     O30980   2.862   9.526   9.119  0.3906  1.1218  0.3005
  971MOL0     C30981   2.750   9.445   9.103 -0.3825 -0.2362 -0.5907
  971MOL0     C30982   2.639   9.454   9.182  0.9876  0.5862  0.7013
  971MOL0     C30983   2.521   9.375   9.165  1.4925  0.4664  0.1328
  971MOL0     C30984   2.525   9.278   9.058  0.5174 -0.9347 -1.1554
  971MOL0     O30985   2.417   9.213   9.022  0.4468  0.2461  1.1475
  971MOL0     C30986   2.427   9.071   9.023 -0.4640 -0.3241  0.2244
  971MOL0     C30987   2.343   9.003   8.917 -0.1344  0.3331  0.0812
  971MOL0     C30988   2.374   8.856   8.892 -0.6952  0.4397  0.4064
  971MOL0     C30989   2.515   8.828   8.827 -0.6118  0.9837  0.7059
  971MOL0     C30990   2.550   8.693   8.764 -0.2981 -0.0183  0.2290
  971MOL0     C30991   2.690   8.702   8.707 -0.4950  0.9924  0.3144
  971MOL0     C30992   2.727   8.550   8.690  0.0731 -0.5697  0.5567
  971MOL0     C30993   2.874   8.542   8.650 -0.3088  0.3301 -0.9041
  971MOL0    Cl30994   2.891   8.637   8.503 -0.0108  0.0900 -0.2058
  971MOL0     C30995   2.644   9.262   8.978  1.7601 -0.8287 -0.6277
  971MOL0     C30996   2.749   9.349   8.996 -0.1502 -0.4211  0.2704
  971MOL0     O30997   2.828   9.634   8.911  0.5159 -0.0931 -0.6363
  971MOL0     C30998   3.058   9.774   8.931 -0.0414  0.2961  0.4330
  971MOL0     C30999   3.179   9.843   8.937  0.0457 -1.2064 -0.4614
  971MOL0     N31000   3.799  10.095   9.513 -0.6478  0.9180 -0.7517
  971MOL0     N31001   3.871  10.070   9.622  0.1002 -0.3745  0.4827
  971MOL0     C31002   4.155  10.690   9.996 -0.0148 -0.3066 -1.3789
  971MOL0     C31003   4.049  10.780  10.031 -0.2848  0.0981 -0.2597
  971MOL0     C31004   3.705  11.066   9.907  0.2899  0.1085 -0.5087
  971MOL0     C31005   3.735  11.199   9.973 -0.2649  0.0862  0.0507
  971MOL0     C31006   3.626  11.282   9.988  1.2617 -0.1384  0.5639
  971MOL0     C31007   3.490  11.242   9.970  0.5905  0.9908 -0.1885
  971MOL0     O31008   3.376  11.319   9.988 -0.0470  0.1532 -0.5715
  971MOL0     C31009   3.359  11.457  10.020  0.2625 -0.0321  0.7824
  971MOL0     C31010   3.383  11.494  10.167 -0.1462 -0.1899  0.0719
  971MOL0     C31011   3.376  11.638  10.178 -0.6390  0.4179  0.1213
  971MOL0     C31012   3.365  11.689  10.324  0.2107 -0.2173 -0.0646
  971MOL0     C31013   3.328  11.833  10.330  0.2513  0.2310 -0.5483
  971MOL0     C31014   3.314  11.952  10.328 -1.4430 -0.5460 -0.3898
  971MOL0     C31015   3.466  11.112   9.929  0.3942 -0.2411  0.2089
  971MOL0     C31016   3.564  11.024   9.896 -0.4307  0.2964  0.0744
  971MOL0     C31017   3.523  10.876   9.870  0.5451  0.6247 -0.8616
  971MOL0     H31018   4.089  10.970   9.750  1.1809  3.6177  1.5822
  971MOL0     H31019   4.262  10.819   9.700  1.6623  0.0507  1.1419
  971MOL0     H31020   4.295  10.582   9.662 -0.2747 -0.5058 -0.0564
  971MOL0     H31021   4.451  10.663   9.717 -0.6992  3.1817  4.8737
  971MOL0     H31022   4.530  10.452   9.806 -0.0843  0.4259  0.6794
  971MOL0     H31023   4.490  10.446   9.629 -1.8761 -0.2514 -0.8794
  971MOL0     H31024   4.258  10.346   9.711 -0.7572 -1.4583  2.1904
  971MOL0     H31025   4.351  10.312   9.851 -0.5044 -3.2375  0.0726
  971MOL0     H31026   4.396  10.200   9.568 -0.7584  0.7112  0.3706
  971MOL0     H31027   4.517  10.191   9.714 -0.5479  0.6745  4.3025
  971MOL0     H31028   4.416   9.980   9.682  0.4189  0.9596 -2.1234
  971MOL0     H31029   4.328  10.056   9.820  0.1542  1.7042 -0.0064
  971MOL0     H31030   4.153  10.128   9.679 -0.2568 -0.8308  2.2563
  971MOL0     H31031   4.226  10.060   9.532 -4.2578 -1.6182 -0.7672
  971MOL0     H31032   4.228   9.873   9.760 -0.8057  3.0800  1.0943
  971MOL0     H31033   4.190   9.833   9.594  1.5645  1.6348 -1.1050
  971MOL0     H31034   3.996   9.783   9.734 -1.8135  1.2098  3.6400
  971MOL0     H31035   4.008   9.949   9.797  1.6962  0.3551 -0.3989
  971MOL0     H31036   3.901   9.786   9.460 -0.4020 -0.4472  2.5441
  971MOL0     H31037   3.704  10.075   9.280  1.7705  0.9236 -1.3756
  971MOL0     H31038   3.778   9.925   9.227 -0.6939 -2.2762  1.3073
  971MOL0     H31039   3.658   9.792   9.383 -0.3850 -0.0756  0.7249
  971MOL0     H31040   3.548   9.928   9.415 -0.7719  0.2233 -1.1641
  971MOL0     H31041   3.458   9.760   9.258  0.5214 -0.3588  1.6749
  971MOL0     H31042   3.583   9.805   9.145 -0.3213  0.4946 -0.8742
  971MOL0     H31043   3.487  10.049   9.152  1.0066 -0.5922 -0.4738
  971MOL0     H31044   3.357   9.992   9.251 -1.1024  1.2634 -1.8637
  971MOL0     H31045   3.252   9.781   9.266  0.1013  0.3680  0.0746
  971MOL0     H31046   3.069   9.648   9.241  1.2158 -0.4195 -0.7966
  971MOL0     H31047   2.651   9.534   9.255  1.3126  1.1982 -0.0033
  971MOL0     H31048   2.434   9.386   9.230  1.3390 -1.1657  0.2379
  971MOL0     H31049   2.527   9.027   9.023 -0.8507 -1.2835  1.6642
  971MOL0     H31050   2.393   9.040   9.123  2.3451 -4.8456  0.0416
  971MOL0     H31051   2.238   8.994   8.947 -0.6623 -1.4794 -2.0521
  971MOL0     H31052   2.337   9.071   8.832  1.3700 -0.6653 -0.8745
  971MOL0     H31053   2.363   8.793   8.981  3.2736 -1.5400 -0.3263
  971MOL0     H31054   2.302   8.813   8.822  1.3850  0.4039 -1.7888
  971MOL0     H31055   2.584   8.843   8.911 -0.3453 -0.7955  0.8315
  971MOL0     H31056   2.533   8.908   8.754  3.1325  1.4884  1.9411
  971MOL0     H31057   2.477   8.673   8.684 -0.1058  1.3873 -0.3306
  971MOL0     H31058   2.548   8.615   8.840  4.5538 -1.5210 -0.8455
  971MOL0     H31059   2.698   8.752   8.610  2.8404 -0.7116 -0.4216
  971MOL0     H31060   2.760   8.744   8.780  1.2103 -1.1810  0.0315
  971MOL0     H31061   2.673   8.502   8.607  0.6963  2.1327 -1.5768
  971MOL0     H31062   2.724   8.497   8.785  3.8032  0.7264  1.5494
  971MOL0     H31063   2.941   8.559   8.734  0.4523  0.5302 -1.5393
  971MOL0     H31064   2.898   8.438   8.627  1.9504  0.9482 -1.6352
  971MOL0     H31065   2.652   9.189   8.898 -0.2207  0.2965 -1.9472
  971MOL0     H31066   2.844   9.347   8.944  0.0456  1.0497  0.5549
  971MOL0     H31067   2.994   9.778   8.844 -0.6637  1.3519  0.9195
  971MOL0     H31068   3.222   9.896   8.853 -1.1940 -2.4251 -1.9362
  971MOL0     H31069   4.172  10.610  10.067 -3.2892  2.6734  3.2854
  971MOL0     H31070   3.985  10.768  10.118  0.6533  3.1470  0.9835
  971MOL0     H31071   3.833  11.244   9.986 -0.9917  1.7463  0.1196
  971MOL0     H31072   3.642  11.387  10.012 -2.3281  0.2573  1.9097
  971MOL0     H31073   3.261  11.482   9.980  0.7115 -0.6223 -0.7897
  971MOL0     H31074   3.429  11.503   9.949  0.5492 -0.7332  0.6009
  971MOL0     H31075   3.483  11.455  10.190 -0.0590 -0.8796 -1.3306
  971MOL0     H31076   3.303  11.443  10.221 -0.3201 -1.1835 -1.0813
  971MOL0     H31077   3.284  11.670  10.127 -0.8355 -0.3888 -0.0422
  971MOL0     H31078   3.458  11.688  10.126  1.5712 -2.0020  1.0573
  971MOL0     H31079   3.296  11.627  10.382  1.7229 -1.7774  0.1563
  971MOL0     H31080   3.464  11.682  10.371 -0.7110  0.8621  2.1986
  971MOL0     H31081   3.309  12.058  10.313 -0.1353 -0.2002  1.3462
  971MOL0     H31082   3.368  11.067   9.917  1.6870 -3.6281  1.0266
  971MOL0     H31083   3.561  10.809   9.948 -0.3162  0.3298 -0.6849
  971MOL0     H31084   3.414  10.874   9.862  0.3513  0.7202  1.1604
  971MOL0     H31085   3.563  10.836   9.776  0.2204  0.1632 -0.8111
  972MOL0     O31086   0.253   8.839   2.901 -0.3746  1.0506  0.0932
  972MOL0     C31087   0.232   8.857   3.020 -0.0658  0.0042 -0.2291
  972MOL0     O31088   0.313   8.814   3.124  0.0029  0.5009 -0.3536
  972MOL0     C31089   0.434   8.766   3.084  0.6863 -0.5317 -0.0286
  972MOL0     C31090   0.443   8.634   3.031  0.1801 -0.5220 -1.6379
  972MOL0     C31091   0.569   8.592   2.986  0.6100 -0.4609 -0.2466
  972MOL0     C31092   0.697   8.664   3.001 -0.8745  0.1940 -0.0797
  972MOL0     O31093   0.802   8.608   2.938 -0.1970 -0.2888  0.1203
  972MOL0     C31094   0.933   8.648   2.979  0.5310 -0.6033  0.1753
  972MOL0     C31095   1.039   8.574   2.900  0.4117  0.3235 -0.3333
  972MOL0     C31096   1.176   8.635   2.934 -0.4561 -0.5264 -1.3122
  972MOL0     C31097   1.296   8.572   2.858 -0.3622  0.3430  0.2261
  972MOL0     C31098   1.305   8.417   2.893  0.1873 -0.2197  0.2694
  972MOL0     C31099   1.358   8.389   3.035  0.2897 -1.0005  0.0134
  972MOL0     C31100   1.382   8.239   3.061 -0.3269  0.3653 -0.5407
  972MOL0     C31101   1.477   8.218   3.179  1.4670  0.1802 -0.3906
  972MOL0     N31102   1.498   8.079   3.204  0.5522  0.1113  0.7738
  972MOL0     C31103   1.463   8.010   3.312  0.6422  0.2794  0.2536
  972MOL0     C31104   1.496   7.884   3.287  0.3328 -0.0321  0.2992
  972MOL0     C31105   1.453   7.773   3.386 -0.4138 -0.0425 -0.0865
  972MOL0     C31106   1.574   7.688   3.425 -0.7035 -0.7065 -0.2285
  972MOL0     C31107   1.610   7.564   3.342  0.1052 -0.3897 -0.8773
  972MOL0     C31108   1.510   7.453   3.343 -0.2619 -0.4183  0.1449
  972MOL0     O31109   1.565   7.344   3.270 -0.3334  0.4337 -0.1844
  972MOL0     C31110   1.479   7.245   3.238  0.1875  0.0734  0.0410
  972MOL0     C31111   1.546   7.140   3.175  0.2598  1.3704  0.6287
  972MOL0     C31112   1.472   7.024   3.130 -0.5037 -0.8545  0.4754
  972MOL0     C31113   1.335   7.018   3.157 -0.1699  1.3831  0.8420
  972MOL0     C31114   1.262   6.891   3.109  0.2567 -0.3483  0.1171
  972MOL0     O31115   1.336   6.820   3.017 -0.2910 -0.8775  0.6043
  972MOL0     C31116   1.277   6.723   2.950  0.7195 -0.7090  0.0508
  972MOL0     C31117   1.324   6.594   2.968 -0.3243 -0.0473  0.0518
  972MOL0     C31118   1.272   6.483   2.897  0.5273  0.4689 -0.6931
  972MOL0     C31119   1.172   6.510   2.797 -0.4702  0.3470 -0.5551
  972MOL0     O31120   1.115   6.392   2.745  0.4645  0.2611  0.2052
  972MOL0     C31121   1.011   6.399   2.646 -0.3577 -0.6561  0.1333
  972MOL0     C31122   0.984   6.260   2.591  0.5841  0.2452  0.6884
  972MOL0     C31123   0.911   6.170   2.698 -0.2344 -0.0405 -0.0843
  972MOL0     C31124   0.834   6.050   2.640 -0.5252  0.1891 -0.4037
  972MOL0     C31125   0.757   5.965   2.745  1.0591  1.3840 -0.1330
  972MOL0     C31126   0.642   6.049   2.806 -0.0430 -0.3507 -0.5448
  972MOL0     C31127   0.550   5.985   2.912  0.2297 -0.0786 -0.8058
  972MOL0     C31128   0.430   6.079   2.940 -0.3054  0.3149  0.4865
  972MOL0    Cl31129   0.474   6.241   3.006  0.0543 -0.6109 -0.0805
  972MOL0     C31130   1.126   6.633   2.788  0.4098  0.2112 -0.6758
  972MOL0     C31131   1.166   6.739   2.869  0.2627 -0.2782  0.1636
  972MOL0     O31132   1.148   6.871   3.144  0.6380 -1.2793  0.0590
  972MOL0     C31133   1.281   7.115   3.235  0.1367 -0.1815  0.6745
  972MOL0     C31134   1.340   7.238   3.267  0.5114  0.2596  0.3177
  972MOL0     N31135   1.535   7.876   3.154 -0.2550 -0.4974  0.2615
  972MOL0     N31136   1.558   7.994   3.112  0.5255  0.9279 -0.6519
  972MOL0     C31137   0.686   8.788   3.072 -0.4428  0.5839  0.3792
  972MOL0     C31138   0.558   8.836   3.113  0.2692 -0.8225  0.6945
  972MOL0     C31139   0.113   8.935   3.059  0.6509  0.7314  0.1412
  972MOL0     C31140   0.117   9.065   3.110 -0.2890 -0.3165  0.4811
  972MOL0     C31141   0.008   9.143   3.142 -0.8310  0.5444  0.5000
  972MOL0     C31142  -0.123   9.087   3.110 -0.5957 -0.3775  0.2448
  972MOL0     O31143  -0.237   9.159   3.121  0.8695  0.3506  0.4719
  972MOL0     C31144  -0.279   9.194   3.251  0.8466  0.5042 -0.2298
  972MOL0     C31145  -0.397   9.107   3.310 -0.8539 -0.2991  0.1774
  972MOL0     C31146  -0.341   8.983   3.385  1.2189  0.6328  0.0904
  972MOL0     C31147  -0.455   8.884   3.413 -0.7207  0.4610 -0.0967
  972MOL0     C31148  -0.481   8.809   3.297  1.0624  0.5956  0.1411
  972MOL0     C31149  -0.508   8.743   3.200  0.7866 -0.0838  0.1521
  972MOL0     C31150  -0.132   8.953   3.064 -0.0978  0.3076 -1.1199
  972MOL0     C31151  -0.017   8.870   3.048  0.8377 -0.4040  0.5730
  972MOL0     C31152  -0.035   8.729   3.005 -0.9329  0.3245 -0.1672
  972MOL0     H31153   0.352   8.578   3.011 -1.4505  1.2013  0.4364
  972MOL0     H31154   0.584   8.495   2.940  0.2460  0.3902 -2.2494
  972MOL0     H31155   0.930   8.754   2.955 -0.5592 -1.4376 -4.3865
  972MOL0     H31156   0.940   8.628   3.087  0.1573  1.0173  0.5143
  972MOL0     H31157   1.014   8.581   2.794 -1.8214 -0.3592  0.1006
  972MOL0     H31158   1.036   8.467   2.924 -2.0433  0.2837 -0.5160
  972MOL0     H31159   1.200   8.622   3.040 -0.4386  0.2370 -1.2144
  972MOL0     H31160   1.168   8.740   2.905 -0.5126  0.9504  3.2272
  972MOL0     H31161   1.289   8.589   2.750 -3.7309  0.8305  0.3955
  972MOL0     H31162   1.387   8.623   2.890 -1.6146  2.4999  0.5923
  972MOL0     H31163   1.214   8.367   2.857  0.7907 -1.3298  0.2220
  972MOL0     H31164   1.369   8.364   2.821 -1.3383 -0.1816 -1.1860
  972MOL0     H31165   1.456   8.437   3.042 -0.3563  0.6934 -1.7675
  972MOL0     H31166   1.291   8.430   3.111  1.1638  0.1191  0.1968
  972MOL0     H31167   1.433   8.194   2.976  1.6884  0.9644  0.2935
  972MOL0     H31168   1.283   8.198   3.084  0.3146 -1.0306 -0.1776
  972MOL0     H31169   1.574   8.252   3.141  0.7828  1.2464 -1.2382
  972MOL0     H31170   1.453   8.267   3.273  0.9987  1.4991 -1.1648
  972MOL0     H31171   1.426   8.054   3.404  1.0788 -1.8135  1.4959
  972MOL0     H31172   1.424   7.825   3.478 -0.9029 -0.8514  0.2278
  972MOL0     H31173   1.370   7.708   3.358 -0.1078 -0.4862  0.0254
  972MOL0     H31174   1.662   7.752   3.412  1.0010 -1.8952  3.9013
  972MOL0     H31175   1.569   7.669   3.532  3.6459  0.9203  0.4941
  972MOL0     H31176   1.704   7.526   3.382 -0.2176  0.9056  1.2885
  972MOL0     H31177   1.635   7.584   3.237 -0.7071 -1.3968 -1.2836
  972MOL0     H31178   1.423   7.497   3.293 -0.2320 -1.4417 -0.8248
  972MOL0     H31179   1.498   7.420   3.446  2.2622  1.1438  1.0466
  972MOL0     H31180   1.650   7.149   3.147  0.2515  0.0760  0.1062
  972MOL0     H31181   1.529   6.953   3.071  2.2992  2.9222 -1.7940
  972MOL0     H31182   1.402   6.584   3.042 -0.0607 -0.0384 -0.2239
  972MOL0     H31183   1.297   6.378   2.909  0.3052  0.3439 -1.3288
  972MOL0     H31184   0.920   6.431   2.699  0.8466  1.8285  0.8580
  972MOL0     H31185   1.041   6.469   2.568  1.5930  0.2285  1.5899
  972MOL0     H31186   0.913   6.279   2.510 -1.1479 -0.0530  2.0566
  972MOL0     H31187   1.074   6.216   2.550 -0.5774  0.7963 -2.7942
  972MOL0     H31188   0.987   6.132   2.767  2.5494 -0.8276 -3.2677
  972MOL0     H31189   0.848   6.229   2.764  0.8998 -0.0391  1.0386
  972MOL0     H31190   0.902   5.982   2.587  1.4974  0.2338  1.9266
  972MOL0     H31191   0.757   6.089   2.573 -0.6895  0.7609  0.1149
  972MOL0     H31192   0.815   5.944   2.835 -0.4977 -1.6351  0.3146
  972MOL0     H31193   0.724   5.869   2.704  0.6442  0.0091  3.0503
  972MOL0     H31194   0.692   6.133   2.856  0.3313 -1.9357  1.8863
  972MOL0     H31195   0.573   6.077   2.725 -1.1922  1.1738  0.8925
  972MOL0     H31196   0.601   5.960   3.006 -0.2763 -1.5721 -0.9062
  972MOL0     H31197   0.512   5.886   2.885  2.5928 -1.8313  1.7301
  972MOL0     H31198   0.382   6.085   2.842  0.9137 -0.7120 -0.2110
  972MOL0     H31199   0.364   6.020   3.004 -0.3586  0.5230  0.6239
  972MOL0     H31200   1.040   6.664   2.728  0.8988  1.3543 -0.8221
  972MOL0     H31201   1.124   6.838   2.858  4.9602  1.9407 -0.1458
  972MOL0     H31202   1.173   7.117   3.247 -0.0619  1.5077 -0.9936
  972MOL0     H31203   1.276   7.322   3.290 -1.0990 -0.4945 -1.1830
  972MOL0     H31204   0.775   8.845   3.096  0.1299 -1.5175  3.9064
  972MOL0     H31205   0.558   8.929   3.170  1.7439 -2.3428  3.3862
  972MOL0     H31206   0.209   9.123   3.115 -1.8297  2.4595 -0.7584
  972MOL0     H31207   0.036   9.245   3.167  1.3687 -0.1963  1.3450
  972MOL0     H31208  -0.320   9.295   3.247 -3.5158 -1.0523 -0.6857
  972MOL0     H31209  -0.193   9.199   3.318  3.7565 -0.1399 -3.6121
  972MOL0     H31210  -0.466   9.087   3.227 -0.3273 -1.0916 -0.0751
  972MOL0     H31211  -0.452   9.155   3.391 -1.5791  0.2584 -0.6222
  972MOL0     H31212  -0.306   9.009   3.485 -0.6152 -1.7804  1.4796
  972MOL0     H31213  -0.261   8.935   3.327 -0.8842  0.0930 -2.6011
  972MOL0     H31214  -0.427   8.821   3.497  1.2384  1.4667  0.0585
  972MOL0     H31215  -0.548   8.936   3.438  0.1857  2.4853 -0.7356
  972MOL0     H31216  -0.547   8.681   3.121 -0.5822 -2.0143  2.2281
  972MOL0     H31217  -0.232   8.912   3.064 -0.5564  1.0042  2.8572
  972MOL0     H31218  -0.053   8.708   2.900 -0.5022 -0.9708  0.0037
  972MOL0     H31219   0.051   8.668   3.036 -0.9131 -0.3213 -1.4497
  972MOL0     H31220  -0.124   8.695   3.059  0.1357  1.2612  2.3824
  973MOL0     O31221   4.784   4.821   1.163  0.4151 -0.5931  0.0645
  973MOL0     C31222   4.679   4.818   1.226 -0.1841  0.5175  0.7394
  973MOL0     O31223   4.639   4.914   1.327 -0.2139  0.4092  0.0376
  973MOL0     C31224   4.734   4.996   1.385 -0.8725  0.5078  0.1026
  973MOL0     C31225   4.853   4.938   1.433  0.2708 -0.1815  0.1297
  973MOL0     C31226   4.947   5.029   1.490 -0.5750  0.0649  0.1861
  973MOL0     C31227   4.925   5.156   1.508  0.2246 -0.6105  0.4319
  973MOL0     O31228   5.014   5.229   1.578  0.3594 -0.5885 -0.2485
  973MOL0     C31229   5.141   5.252   1.519  0.5457  0.2143  0.2663
  973MOL0     C31230   5.212   5.372   1.580  0.5013  0.2880  0.3662
  973MOL0     C31231   5.146   5.499   1.542  1.1427 -0.7137  0.3915
  973MOL0     C31232   5.230   5.620   1.582  0.6439  0.6269  0.0600
  973MOL0     C31233   5.230   5.629   1.738 -0.0331 -0.4994  0.0687
  973MOL0     C31234   5.284   5.771   1.783  0.2218  0.1099  0.0777
  973MOL0     C31235   5.438   5.777   1.786 -0.1151 -1.1473 -0.2382
  973MOL0     C31236   5.489   5.810   1.931 -0.2926  0.6538  0.5297
  973MOL0     N31237   5.637   5.832   1.941  0.4485  1.0142  0.7886
  973MOL0     C31238   5.692   5.941   2.002  0.7764  0.4221  0.4936
  973MOL0     C31239   5.823   5.946   1.966  0.2116  0.5358 -0.0367
  973MOL0     C31240   5.915   6.053   2.003  0.3939  0.1007  0.5032
  973MOL0     C31241   5.978   6.043   2.146 -0.7336 -0.0846 -0.2161
  973MOL0     C31242   6.099   6.133   2.153  0.7686  0.1777 -0.6300
  973MOL0     C31243   6.141   6.157   2.299  0.0661  0.4390 -0.7891
  973MOL0     O31244   6.265   6.224   2.302 -0.5299 -0.6947 -0.2379
  973MOL0     C31245   6.315   6.256   2.422 -0.8576  1.2809  0.4881
  973MOL0     C31246   6.453   6.268   2.428 -1.2294  0.3103  0.4798
  973MOL0     C31247   6.523   6.315   2.541 -0.4517  0.5916 -0.6252
  973MOL0     C31248   6.453   6.348   2.656 -0.6233  0.9253  0.1224
  973MOL0     C31249   6.525   6.389   2.775  0.6081 -0.0191 -0.6800
  973MOL0     O31250   6.655   6.366   2.772  0.0224  1.4466 -0.8509
  973MOL0     C31251   6.733   6.424   2.870 -0.2573  0.8619  0.8753
  973MOL0     C31252   6.827   6.339   2.930  0.0978 -0.1500  0.1074
  973MOL0     C31253   6.939   6.397   2.993 -1.1564 -0.3173  0.6335
  973MOL0     C31254   6.950   6.533   3.001 -0.3960 -0.8330  0.5089
  973MOL0     O31255   7.058   6.570   3.071 -0.2221  0.1993 -0.3096
  973MOL0     C31256   7.147   6.667   3.015 -0.3629 -0.1074 -0.6251
  973MOL0     C31257   7.246   6.713   3.125 -0.0114 -0.1190 -0.4441
  973MOL0     C31258   7.389   6.713   3.075  0.0844 -0.6555  0.1837
  973MOL0     C31259   7.407   6.827   2.970 -0.2838  0.4241  0.2507
  973MOL0     C31260   7.553   6.854   2.926  0.7444  0.2592 -0.1660
  973MOL0     C31261   7.665   6.889   3.025  0.5944  0.3797  0.6229
  973MOL0     C31262   7.684   7.038   3.040  0.4481  0.1516 -0.6763
  973MOL0     C31263   7.790   7.056   3.151 -0.4059 -0.5425  0.0760
  973MOL0    Cl31264   7.702   7.101   3.311  0.1179 -0.0226 -0.0470
  973MOL0     C31265   6.851   6.621   2.944  0.2293  0.4078 -0.0879
  973MOL0     C31266   6.740   6.570   2.878  0.3185 -0.0843  1.0178
  973MOL0     O31267   6.457   6.435   2.871 -0.9526  0.7217  0.2511
  973MOL0     C31268   6.309   6.320   2.657 -0.6777 -0.0524 -0.3863
  973MOL0     C31269   6.237   6.274   2.543 -0.0937 -1.2272 -0.4571
  973MOL0     N31270   5.845   5.824   1.901  0.3541  0.0518  0.9861
  973MOL0     N31271   5.731   5.759   1.885 -0.9233  0.3242  0.7509
  973MOL0     C31272   4.802   5.210   1.476  0.3783 -0.0903 -0.0148
  973MOL0     C31273   4.709   5.131   1.408  0.6448  0.3080  0.0279
  973MOL0     C31274   4.577   4.717   1.198 -0.1318  0.4943 -0.0282
  973MOL0     C31275   4.445   4.741   1.247  0.0123  0.0236 -1.3356
  973MOL0     C31276   4.333   4.658   1.223  0.5836  0.4152  0.1847
  973MOL0     C31277   4.350   4.545   1.147  0.1537  0.9467  0.2557
  973MOL0     O31278   4.232   4.465   1.130  0.4785  0.0716 -0.4403
  973MOL0     C31279   4.241   4.345   1.051 -0.5391  0.2156 -0.7740
  973MOL0     C31280   4.104   4.304   0.996  0.0619 -0.5643 -0.1205
  973MOL0     C31281   4.017   4.279   1.123  0.4791 -0.2679 -0.2006
  973MOL0     C31282   3.875   4.231   1.094  0.1848 -0.1124 -0.8059
  973MOL0     C31283   3.867   4.102   1.032  0.1232  0.0918 -0.6051
  973MOL0     C31284   3.865   4.014   0.955  0.5744 -0.6489  0.4653
  973MOL0     C31285   4.484   4.520   1.094  0.4525  0.1080 -0.4283
  973MOL0     C31286   4.599   4.599   1.122  0.6061  0.2277 -0.2197
  973MOL0     C31287   4.723   4.546   1.060  0.7908 -0.1530 -0.0899
  973MOL0     H31288   4.861   4.829   1.433  0.7026 -0.1845 -1.6928
  973MOL0     H31289   5.051   5.001   1.505 -0.7182  0.2589  1.6787
  973MOL0     H31290   5.201   5.164   1.544  0.6760  0.8169  2.2729
  973MOL0     H31291   5.132   5.265   1.411 -2.6237 -0.5071  0.3471
  973MOL0     H31292   5.315   5.362   1.545  0.3473  0.8373 -0.2726
  973MOL0     H31293   5.214   5.364   1.689 -1.1441 -1.1938  0.3483
  973MOL0     H31294   5.042   5.512   1.572  1.4748  1.5078  0.7273
  973MOL0     H31295   5.142   5.500   1.433 -2.4155  0.5374  0.3989
  973MOL0     H31296   5.331   5.615   1.541  0.2263 -0.4971 -0.8863
  973MOL0     H31297   5.191   5.705   1.524 -0.7354  0.8239  1.2082
  973MOL0     H31298   5.137   5.600   1.788 -1.5810 -0.9347 -2.8715
  973MOL0     H31299   5.294   5.547   1.773 -1.5890 -0.1355  4.3938
  973MOL0     H31300   5.245   5.850   1.719  1.4568 -0.4549 -1.4121
  973MOL0     H31301   5.243   5.788   1.883 -0.6794  0.0575 -0.2745
  973MOL0     H31302   5.466   5.861   1.722 -0.2337 -0.0955  1.0553
  973MOL0     H31303   5.489   5.693   1.738 -0.4552 -1.4010 -0.1574
  973MOL0     H31304   5.432   5.892   1.977 -0.7805 -0.3955  1.8596
  973MOL0     H31305   5.461   5.729   1.999 -0.9974 -1.2028 -1.8414
  973MOL0     H31306   5.648   6.017   2.065  4.8209  5.3228 -1.8864
  973MOL0     H31307   5.997   6.055   1.930  0.2613 -1.2478  0.2770
  973MOL0     H31308   5.869   6.151   1.987  3.8771  1.5258 -2.2446
  973MOL0     H31309   5.903   6.067   2.222  0.8904 -1.7106  2.0234
  973MOL0     H31310   6.021   5.944   2.161  3.7001  1.4775 -1.2144
  973MOL0     H31311   6.072   6.233   2.119  1.0512  0.2936 -0.5185
  973MOL0     H31312   6.181   6.089   2.095 -1.3754 -0.3712 -3.5162
  973MOL0     H31313   6.155   6.063   2.354  3.0938  2.3214  2.0409
  973MOL0     H31314   6.068   6.217   2.353 -0.1934 -1.7564  1.4908
  973MOL0     H31315   6.513   6.248   2.340 -2.2468 -1.3171  0.1242
  973MOL0     H31316   6.631   6.321   2.535 -0.2562  1.5871  2.3002
  973MOL0     H31317   6.828   6.231   2.924 -1.0115 -0.3279  2.1232
  973MOL0     H31318   7.024   6.342   3.031  1.9875  0.8068 -3.8404
  973MOL0     H31319   7.184   6.619   2.925 -0.6405  1.7000 -1.7525
  973MOL0     H31320   7.093   6.756   2.981 -0.1746  0.2694  0.0408
  973MOL0     H31321   7.207   6.813   3.146 -2.4193 -1.4373  2.0899
  973MOL0     H31322   7.249   6.649   3.214 -1.7308  3.7852  2.7030
  973MOL0     H31323   7.457   6.719   3.160 -1.9125 -2.1719  1.9878
  973MOL0     H31324   7.423   6.615   3.040 -1.4767 -2.5875  3.5609
  973MOL0     H31325   7.381   6.926   3.010  0.8191  1.5812 -1.7430
  973MOL0     H31326   7.348   6.802   2.882  1.2636 -1.0249 -0.4110
  973MOL0     H31327   7.537   6.928   2.847  0.3924 -1.0542 -1.3865
  973MOL0     H31328   7.583   6.757   2.885 -1.6162 -1.4766  1.9347
  973MOL0     H31329   7.651   6.845   3.124 -0.0318 -1.6807 -0.3211
  973MOL0     H31330   7.752   6.833   2.990 -1.0556 -1.8574 -0.1219
  973MOL0     H31331   7.595   7.087   3.080  0.1256  1.1147 -2.4786
  973MOL0     H31332   7.718   7.087   2.948  2.0933  0.8902  0.2711
  973MOL0     H31333   7.852   6.967   3.164  2.1179  1.0782 -0.0305
  973MOL0     H31334   7.869   7.129   3.129  0.8042 -1.5212  1.0340
  973MOL0     H31335   6.853   6.726   2.973 -0.0101  0.1960  0.7402
  973MOL0     H31336   6.660   6.637   2.850 -1.9129 -1.2327  4.0924
  973MOL0     H31337   6.250   6.333   2.747 -1.5653 -0.1695 -0.9503
  973MOL0     H31338   6.129   6.278   2.535  0.0186 -1.5846 -3.0072
  973MOL0     H31339   4.782   5.316   1.492  1.1687  0.7367 -3.5689
  973MOL0     H31340   4.612   5.168   1.377  0.4772 -0.2016 -0.0629
  973MOL0     H31341   4.413   4.827   1.307  0.1640 -1.0472  0.3532
  973MOL0     H31342   4.236   4.692   1.259  0.6202  3.1007 -1.9236
  973MOL0     H31343   4.285   4.271   1.119  1.2935  1.3153 -0.6926
  973MOL0     H31344   4.308   4.365   0.967  2.3978 -0.3775  1.2730
  973MOL0     H31345   4.100   4.211   0.939 -4.7041 -1.3177  1.0568
  973MOL0     H31346   4.068   4.392   0.941 -1.4457 -0.1930  1.3750
  973MOL0     H31347   4.015   4.376   1.174 -3.5931  0.0281 -0.5523
  973MOL0     H31348   4.058   4.206   1.193  0.7811  1.4677  1.5394
  973MOL0     H31349   3.810   4.231   1.182 -2.4902 -1.9286 -2.6542
  973MOL0     H31350   3.832   4.301   1.022 -0.6351 -1.8416 -2.0705
  973MOL0     H31351   3.864   3.948   0.869  1.5131 -0.6868  0.4688
  973MOL0     H31352   4.485   4.427   1.040 -3.0162 -0.2510 -0.0947
  973MOL0     H31353   4.779   4.611   0.993 -1.5544  4.3416  1.8662
  973MOL0     H31354   4.786   4.500   1.136  1.8479  0.4338 -0.5853
  973MOL0     H31355   4.694   4.461   0.998  2.5556 -0.9487  0.1179
  974MOL0     O31356   1.067   1.910   7.664  0.3610  0.6171  0.2103
  974MOL0     C31357   1.014   1.847   7.574  0.6709 -0.3351 -0.6467
  974MOL0     O31358   1.066   1.832   7.453  0.4241 -0.4244 -0.5636
  974MOL0     C31359   1.197   1.851   7.450 -0.3389  0.6184  0.3278
  974MOL0     C31360   1.236   1.977   7.399 -0.1754 -0.5401  0.2434
  974MOL0     C31361   1.371   1.995   7.376 -0.4894 -0.2303 -0.5844
  974MOL0     C31362   1.467   1.893   7.397  0.2397 -0.1833 -0.2217
  974MOL0     O31363   1.594   1.928   7.359  0.5150  0.6952 -0.3426
  974MOL0     C31364   1.694   1.827   7.373  0.3003 -0.7524 -1.1164
  974MOL0     C31365   1.829   1.888   7.316 -0.7201  0.6959  0.6435
  974MOL0     C31366   1.959   1.817   7.332 -0.1881 -0.3860 -0.4490
  974MOL0     C31367   1.958   1.662   7.346  0.1679  0.0374  0.3916
  974MOL0     C31368   2.070   1.608   7.433 -0.4632  0.2120  0.3426
  974MOL0     C31369   2.208   1.663   7.383 -0.2681  0.7318  0.3947
  974MOL0     C31370   2.255   1.635   7.233 -1.2280  0.0881  0.4490
  974MOL0     C31371   2.327   1.498   7.202  0.2790 -0.5136 -0.7302
  974MOL0     N31372   2.224   1.393   7.224  1.1450 -0.4124  0.1184
  974MOL0     C31373   2.095   1.386   7.170 -0.4634 -0.1131 -0.4418
  974MOL0     C31374   2.041   1.281   7.234  0.1218  0.3609 -0.8092
  974MOL0     C31375   1.893   1.252   7.234 -0.0110  0.1408  0.0074
  974MOL0     C31376   1.847   1.110   7.233 -0.8217  0.0290 -0.0834
  974MOL0     C31377   1.896   1.040   7.109 -0.1623 -0.6131 -0.5478
  974MOL0     C31378   1.842   1.103   6.976  0.7309  0.0041  0.7203
  974MOL0     O31379   1.704   1.144   6.981  0.2986  0.2746  0.0275
  974MOL0     C31380   1.611   1.050   6.980  1.1929 -0.3192 -0.2040
  974MOL0     C31381   1.629   0.912   6.951 -0.8502 -0.3906 -0.1063
  974MOL0     C31382   1.519   0.824   6.952  0.6693  0.0537 -0.5771
  974MOL0     C31383   1.387   0.871   6.982 -0.0159  0.1921  1.0000
  974MOL0     C31384   1.267   0.782   6.989 -0.6204  0.7458 -0.3191
  974MOL0     O31385   1.172   0.814   7.089 -0.5612  0.0486  0.4374
  974MOL0     C31386   1.051   0.753   7.105 -0.5817  0.7773 -0.3696
  974MOL0     C31387   0.989   0.784   7.224 -0.8773 -0.9677  0.4898
  974MOL0     C31388   0.871   0.730   7.263 -0.6573  0.1375  0.7496
  974MOL0     C31389   0.805   0.648   7.165  1.2985 -1.0834 -0.7667
  974MOL0     O31390   0.684   0.596   7.185  1.7017  0.0648  1.1860
  974MOL0     C31391   0.587   0.660   7.275  0.1334  0.6522 -0.1733
  974MOL0     C31392   0.536   0.798   7.229  0.4188 -0.5866  0.0823
  974MOL0     C31393   0.443   0.796   7.107  0.0482  0.3708 -0.3277
  974MOL0     C31394   0.337   0.905   7.109  1.0282  0.8571 -0.0878
  974MOL0     C31395   0.214   0.869   7.023  0.7815  0.2491 -0.0852
  974MOL0     C31396   0.113   0.982   7.025 -0.3635  0.1936  0.3589
  974MOL0     C31397  -0.019   0.955   6.940 -0.5005 -0.0282  0.1108
  974MOL0     C31398  -0.118   1.069   6.951 -0.2578 -0.4776  0.2821
  974MOL0    Cl31399  -0.262   1.053   6.854  0.2624  0.2920  0.2921
  974MOL0     C31400   0.864   0.628   7.042 -0.2366  0.5385 -0.0168
  974MOL0     C31401   0.992   0.673   7.013  0.4299  0.8844  0.3152
  974MOL0     O31402   1.255   0.693   6.902  0.0808  0.2199  0.5986
  974MOL0     C31403   1.377   1.007   7.013  0.7449 -0.5102 -0.0739
  974MOL0     C31404   1.481   1.103   7.002 -0.2589 -0.4076 -0.1048
  974MOL0     N31405   2.139   1.222   7.307 -1.1165  0.5479 -0.6442
  974MOL0     N31406   2.247   1.291   7.300 -0.2570  0.4235 -0.0824
  974MOL0     C31407   1.420   1.770   7.445 -0.2663  1.0447 -0.5132
  974MOL0     C31408   1.284   1.749   7.473 -0.1468  0.0534  1.1904
  974MOL0     C31409   0.881   1.790   7.600 -0.3651  0.1283 -0.7400
  974MOL0     C31410   0.879   1.651   7.589 -0.1392  0.1687  0.0846
  974MOL0     C31411   0.766   1.570   7.590  0.1778  0.6431 -0.5496
  974MOL0     C31412   0.648   1.635   7.631  0.2696 -0.7475 -0.3294
  974MOL0     O31413   0.532   1.568   7.662 -0.1363  0.4556 -0.2707
  974MOL0     C31414   0.530   1.423   7.664  0.6210 -0.5481  0.3296
  974MOL0     C31415   0.403   1.362   7.743  1.1462  0.3091  0.9094
  974MOL0     C31416   0.282   1.333   7.636  0.2064 -0.6675 -0.2481
  974MOL0     C31417   0.181   1.235   7.696 -0.3250  0.4034  0.2154
  974MOL0     C31418   0.088   1.282   7.803 -0.1314  0.6318 -0.5633
  974MOL0     C31419   0.041   1.340   7.900 -0.1540  0.5054  0.3504
  974MOL0     C31420   0.650   1.773   7.648 -1.3007  0.0361  0.6644
  974MOL0     C31421   0.755   1.854   7.633 -0.4636 -0.8172  0.6362
  974MOL0     C31422   0.749   2.006   7.640  0.7674 -0.3243  0.0626
  974MOL0     H31423   1.152   2.042   7.379 -1.0223 -1.1520  1.6704
  974MOL0     H31424   1.402   2.092   7.338 -0.8303 -0.0624 -0.4315
  974MOL0     H31425   1.698   1.797   7.478 -0.7394 -1.5399 -1.2871
  974MOL0     H31426   1.668   1.746   7.304 -1.0735  0.3789 -1.9912
  974MOL0     H31427   1.855   1.988   7.352  1.3470  0.5085 -0.1914
  974MOL0     H31428   1.807   1.908   7.211 -0.0995 -0.2572  0.3235
  974MOL0     H31429   2.001   1.846   7.429  2.8959  0.1674 -1.8273
  974MOL0     H31430   2.041   1.839   7.263  0.5408 -0.3335  0.4066
  974MOL0     H31431   1.865   1.618   7.381 -0.2836  0.4027 -0.3270
  974MOL0     H31432   1.966   1.606   7.252 -1.5597  0.8380 -0.2547
  974MOL0     H31433   2.040   1.620   7.538 -0.8036  0.7318  0.1897
  974MOL0     H31434   2.080   1.500   7.423  0.5183  0.1233  1.9839
  974MOL0     H31435   2.218   1.771   7.395  2.8499  0.9465 -2.6593
  974MOL0     H31436   2.285   1.623   7.449  0.8837 -0.4599 -1.5686
  974MOL0     H31437   2.331   1.708   7.201 -0.1553 -2.0242 -2.2647
  974MOL0     H31438   2.178   1.643   7.155  0.6381  1.3122 -1.3960
  974MOL0     H31439   2.354   1.487   7.097  1.2332  0.0340 -0.5536
  974MOL0     H31440   2.418   1.481   7.259  0.7537 -0.7626 -1.5499
  974MOL0     H31441   2.052   1.458   7.101  1.3177  0.5110 -0.9592
  974MOL0     H31442   1.858   1.283   7.333  0.6728 -0.3183  0.4046
  974MOL0     H31443   1.839   1.307   7.157 -0.6081 -1.4740 -0.7843
  974MOL0     H31444   1.881   1.052   7.319  0.8396  4.0621  2.2446
  974MOL0     H31445   1.738   1.106   7.241 -0.6366 -2.5640  4.7834
  974MOL0     H31446   1.863   0.935   7.107 -1.3987 -0.3606  2.2216
  974MOL0     H31447   2.006   1.039   7.117 -0.1535 -2.2767 -0.4290
  974MOL0     H31448   1.865   1.028   6.900 -1.2233 -0.4391  0.5144
  974MOL0     H31449   1.902   1.191   6.948  0.7273 -0.4971 -0.9664
  974MOL0     H31450   1.728   0.869   6.938  1.8353  2.9030  5.5690
  974MOL0     H31451   1.521   0.716   6.936 -4.1499 -0.2239 -0.4830
  974MOL0     H31452   1.039   0.857   7.288 -0.4262 -1.9411  1.2916
  974MOL0     H31453   0.833   0.736   7.365 -0.4125 -2.8762  1.1166
  974MOL0     H31454   0.500   0.594   7.281 -0.6089  1.5829 -0.5385
  974MOL0     H31455   0.629   0.664   7.376  1.4125 -1.6607 -0.5369
  974MOL0     H31456   0.497   0.838   7.323 -1.5333 -0.2204 -0.8540
  974MOL0     H31457   0.622   0.854   7.190 -0.7144 -2.3094 -5.7553
  974MOL0     H31458   0.494   0.779   7.012  0.8294 -1.8978  0.4290
  974MOL0     H31459   0.375   0.711   7.119  0.1755  0.0833 -1.5662
  974MOL0     H31460   0.383   1.000   7.078  0.7373  1.2234  0.5739
  974MOL0     H31461   0.309   0.932   7.211  5.8599  1.0274  1.4324
  974MOL0     H31462   0.170   0.773   7.051  2.3666 -0.9689 -1.5853
  974MOL0     H31463   0.245   0.857   6.918 -1.5529  0.1979 -0.8359
  974MOL0     H31464   0.092   0.991   7.132 -3.2076 -4.0084  0.4147
  974MOL0     H31465   0.160   1.069   6.979  2.2407 -1.5360 -0.4519
  974MOL0     H31466  -0.066   0.865   6.981 -0.1719 -0.6668 -0.9000
  974MOL0     H31467   0.014   0.933   6.839  1.0574 -1.3454  0.8580
  974MOL0     H31468  -0.161   1.079   7.051 -2.4659 -0.0016 -0.6644
  974MOL0     H31469  -0.076   1.165   6.920 -3.6289  0.7233 -1.0832
  974MOL0     H31470   0.832   0.560   6.965 -0.3066 -0.1270  0.5902
  974MOL0     H31471   1.022   0.655   6.910 -0.1927  0.5399  0.1835
  974MOL0     H31472   1.280   1.049   7.038  0.0972 -1.8069 -0.3573
  974MOL0     H31473   1.480   1.209   7.024  1.5233 -0.4256  0.1535
  974MOL0     H31474   1.491   1.689   7.460 -1.0063  0.5722  0.5735
  974MOL0     H31475   1.252   1.652   7.511 -1.7724  0.0725 -0.0143
  974MOL0     H31476   0.976   1.608   7.566  0.4475  2.1937 -1.4720
  974MOL0     H31477   0.776   1.463   7.578 -0.5979  0.6758 -1.6051
  974MOL0     H31478   0.618   1.387   7.717  1.2084 -2.9564 -1.9934
  974MOL0     H31479   0.535   1.398   7.557 -1.9292  2.2655 -0.5763
  974MOL0     H31480   0.371   1.433   7.821 -0.6708  2.6410 -1.7516
  974MOL0     H31481   0.442   1.269   7.785  2.3072  0.2123 -0.3338
  974MOL0     H31482   0.319   1.284   7.546 -3.7749 -1.3363 -1.7521
  974MOL0     H31483   0.243   1.425   7.593  1.9143  1.5251  2.5425
  974MOL0     H31484   0.117   1.202   7.614 -0.6855  2.8913 -0.5900
  974MOL0     H31485   0.236   1.144   7.722 -1.2484 -0.1981  0.1303
  974MOL0     H31486  -0.019   1.370   7.984  3.3495  0.7410  2.9973
  974MOL0     H31487   0.554   1.816   7.676 -1.3710  0.2580  0.1008
  974MOL0     H31488   0.839   2.058   7.606 -0.0847  1.0539 -0.1388
  974MOL0     H31489   0.659   2.034   7.584  0.8095  0.4266  0.3640
  974MOL0     H31490   0.731   2.030   7.745  0.4459  0.9879 -0.2814
  975MOL0     O31491   2.903   5.416   1.028  0.0495 -0.1120  0.3659
  975MOL0     C31492   2.938   5.390   0.912  0.0005 -0.1695  0.6521
  975MOL0     O31493   2.892   5.281   0.845  0.3732 -0.1081 -0.5700
  975MOL0     C31494   2.782   5.213   0.898  0.4772  0.7168 -0.1021
  975MOL0     C31495   2.812   5.099   0.959  0.7877  0.1481  0.5022
  975MOL0     C31496   2.713   5.026   1.021 -0.1459  0.2853 -0.2841
  975MOL0     C31497   2.582   5.073   1.026  0.2744  0.9494 -0.2766
  975MOL0     O31498   2.482   4.987   1.076 -0.3183 -0.3935 -0.1175
  975MOL0     C31499   2.386   5.052   1.163  0.4709  0.4240 -0.5125
  975MOL0     C31500   2.246   4.980   1.153  0.3188  0.7666  0.3770
  975MOL0     C31501   2.214   4.911   1.014 -0.7466  0.1267 -0.8419
  975MOL0     C31502   2.084   4.837   1.022  0.3872  0.3597  0.7686
  975MOL0     C31503   2.043   4.814   0.871 -0.3190 -1.2371  0.0056
  975MOL0     C31504   1.910   4.737   0.872 -0.2193  0.2820  0.1651
  975MOL0     C31505   1.844   4.706   0.738  0.3799  0.6803 -0.2993
  975MOL0     C31506   1.915   4.588   0.669 -0.6233  0.0721  0.3376
  975MOL0     N31507   1.832   4.552   0.548 -0.8398 -0.2461  0.3051
  975MOL0     C31508   1.692   4.553   0.531  0.2614  0.2136  0.2194
  975MOL0     C31509   1.670   4.502   0.405 -0.4948  0.1692 -0.0154
  975MOL0     C31510   1.535   4.482   0.349  0.2828  1.2546  0.1343
  975MOL0     C31511   1.488   4.342   0.386  0.7602 -0.2053  0.0571
  975MOL0     C31512   1.409   4.338   0.518 -0.0148 -0.1874 -0.4764
  975MOL0     C31513   1.396   4.187   0.563  0.0001 -0.0195  1.1899
  975MOL0     O31514   1.288   4.152   0.647 -0.5798  0.0598 -0.4301
  975MOL0     C31515   1.161   4.150   0.595  0.3233 -0.5067 -0.5050
  975MOL0     C31516   1.125   4.166   0.457  0.2183 -0.0679 -0.1774
  975MOL0     C31517   0.991   4.155   0.415  0.1188 -0.0419 -0.4060
  975MOL0     C31518   0.885   4.138   0.505 -0.4796  1.0590 -0.0302
  975MOL0     C31519   0.744   4.131   0.461  0.0033 -0.5458  0.9813
  975MOL0     O31520   0.642   4.136   0.552 -0.0580 -0.2046  0.4238
  975MOL0     C31521   0.509   4.147   0.508  0.1590 -0.0415  0.3254
  975MOL0     C31522   0.458   4.059   0.412 -0.5680  0.1278 -0.8261
  975MOL0     C31523   0.327   4.070   0.369 -0.3021 -0.8961  0.4154
  975MOL0     C31524   0.240   4.160   0.427  0.0766 -0.4157  0.3467
  975MOL0     O31525   0.113   4.181   0.387  0.0155  0.6024  0.4996
  975MOL0     C31526   0.027   4.067   0.357 -0.5262  0.0642 -0.3643
  975MOL0     C31527  -0.106   4.107   0.314  0.4966 -1.1275 -0.1613
  975MOL0     C31528  -0.210   3.996   0.332  0.3012 -0.3784  0.4539
  975MOL0     C31529  -0.334   4.036   0.251 -0.2114  0.9727  0.1383
  975MOL0     C31530  -0.447   3.941   0.278  1.1644  0.2963 -0.0852
  975MOL0     C31531  -0.583   4.003   0.237 -0.2177 -1.5927  0.7104
  975MOL0     C31532  -0.684   3.893   0.238  0.3682 -0.0240 -0.5429
  975MOL0     C31533  -0.717   3.826   0.378 -0.5056 -0.3966  0.3842
  975MOL0    Cl31534  -0.843   3.714   0.361  0.2419  0.0269 -0.0576
  975MOL0     C31535   0.289   4.237   0.526  1.1528  0.0818 -0.9017
  975MOL0     C31536   0.425   4.241   0.558  0.5573  0.4756 -0.4024
  975MOL0     O31537   0.724   4.141   0.337 -0.3219  0.9742  0.0120
  975MOL0     C31538   0.924   4.129   0.644  0.5818  0.4297  1.0792
  975MOL0     C31539   1.061   4.128   0.685  0.1668 -0.3115 -0.0458
  975MOL0     N31540   1.801   4.472   0.354  0.6181 -0.7656  0.2895
  975MOL0     N31541   1.892   4.505   0.437 -0.6118  0.8495 -0.0537
  975MOL0     C31542   2.545   5.181   0.947  0.2842  0.2401 -0.2438
  975MOL0     C31543   2.651   5.264   0.897 -0.5281 -0.4958  0.7551
  975MOL0     C31544   3.025   5.496   0.854  0.1229 -0.0387  0.3776
  975MOL0     C31545   3.012   5.630   0.887 -1.2169 -0.4230 -0.4611
  975MOL0     C31546   3.108   5.720   0.848 -0.4111 -0.7777  0.3126
  975MOL0     C31547   3.224   5.689   0.766  0.0828  0.4963  0.0796
  975MOL0     O31548   3.321   5.779   0.726  0.5607  0.6273 -0.0098
  975MOL0     C31549   3.349   5.893   0.805 -0.6958  0.1290  0.2151
  975MOL0     C31550   3.447   5.866   0.913 -1.1628  0.7493 -0.3513
  975MOL0     C31551   3.411   5.755   0.999  0.9788  0.2225 -0.1254
  975MOL0     C31552   3.490   5.733   1.125  0.6461  0.0266  1.0110
  975MOL0     C31553   3.622   5.683   1.097 -0.3361  0.4553  0.8909
  975MOL0     C31554   3.732   5.668   1.052 -0.5611 -1.7883 -0.8978
  975MOL0     C31555   3.223   5.556   0.727  0.0732  0.0383 -0.3356
  975MOL0     C31556   3.127   5.464   0.763 -0.1500 -0.1166  0.2240
  975MOL0     C31557   3.143   5.326   0.707  0.0962 -0.5789 -0.2992
  975MOL0     H31558   2.915   5.067   0.973  0.6903 -1.8163 -2.4795
  975MOL0     H31559   2.733   4.932   1.070 -3.8158 -0.1268  0.7449
  975MOL0     H31560   2.413   5.041   1.268 -0.5819  1.2715 -0.1261
  975MOL0     H31561   2.385   5.161   1.152  2.4671  0.6340  0.8466
  975MOL0     H31562   2.168   5.043   1.196 -0.3242  1.9707 -2.3634
  975MOL0     H31563   2.242   4.889   1.214 -3.0885 -1.6272 -2.9345
  975MOL0     H31564   2.296   4.847   0.979  2.4685  2.5639  1.5412
  975MOL0     H31565   2.205   4.997   0.946 -0.2022  0.5982 -0.3325
  975MOL0     H31566   2.091   4.744   1.080 -2.7024 -0.9570 -0.7309
  975MOL0     H31567   2.003   4.896   1.067  1.6375  1.9815  0.9744
  975MOL0     H31568   2.023   4.903   0.811 -4.4297 -1.4050  0.8510
  975MOL0     H31569   2.118   4.747   0.828  0.6569 -0.2850  0.1705
  975MOL0     H31570   1.918   4.650   0.937 -0.3954  0.5276  0.5223
  975MOL0     H31571   1.840   4.803   0.925 -1.8399  1.9851 -3.7064
  975MOL0     H31572   1.829   4.789   0.668 -1.6857 -0.0043 -0.7592
  975MOL0     H31573   1.742   4.677   0.765  1.2282 -1.3407  1.0209
  975MOL0     H31574   2.019   4.603   0.638 -1.2672 -0.1697 -2.1028
  975MOL0     H31575   1.914   4.497   0.731  3.9801 -0.6376 -0.2273
  975MOL0     H31576   1.618   4.578   0.606  0.1261  0.8545 -0.1190
  975MOL0     H31577   1.467   4.563   0.376 -0.9007  0.2546  0.2605
  975MOL0     H31578   1.553   4.498   0.243  0.1047  2.8271  0.3211
  975MOL0     H31579   1.421   4.313   0.304  1.1466 -2.4556  0.4485
  975MOL0     H31580   1.578   4.279   0.395  1.3008  0.3596 -1.2288
  975MOL0     H31581   1.316   4.394   0.531  0.0119  0.0778 -1.3751
  975MOL0     H31582   1.472   4.392   0.589 -3.9235  3.1518  0.8760
  975MOL0     H31583   1.485   4.137   0.601 -0.5466 -2.6528 -0.7169
  975MOL0     H31584   1.377   4.130   0.471 -0.9076  0.7574  0.8765
  975MOL0     H31585   1.199   4.174   0.379  0.9828 -2.9187  0.1714
  975MOL0     H31586   0.966   4.165   0.310 -1.0767  4.1731  0.1219
  975MOL0     H31587   0.519   3.982   0.366 -2.0984 -0.5302 -1.8346
  975MOL0     H31588   0.285   4.023   0.281 -1.0754  0.1000  0.2371
  975MOL0     H31589   0.068   3.993   0.288 -1.0737 -2.5928  1.9870
  975MOL0     H31590   0.011   4.024   0.457  0.6533  0.9196  0.2229
  975MOL0     H31591  -0.146   4.193   0.369  0.5371 -0.3913 -1.2720
  975MOL0     H31592  -0.100   4.156   0.217  0.2608  0.5541  0.6272
  975MOL0     H31593  -0.171   3.896   0.311  0.2339 -0.2599 -0.2378
  975MOL0     H31594  -0.231   3.995   0.440  0.1174  2.6592  0.5456
  975MOL0     H31595  -0.306   4.040   0.145 -0.8123  2.0307  0.0019
  975MOL0     H31596  -0.371   4.135   0.279 -2.0918  0.1525  0.7688
  975MOL0     H31597  -0.456   3.917   0.384  1.0668  0.8307  0.0348
  975MOL0     H31598  -0.429   3.845   0.229 -0.8724 -1.1285  1.7630
  975MOL0     H31599  -0.607   4.079   0.312 -1.1582 -1.0148 -0.1489
  975MOL0     H31600  -0.565   4.057   0.144  2.3589 -1.2313  1.3515
  975MOL0     H31601  -0.652   3.818   0.166  0.0070 -0.8257  0.1191
  975MOL0     H31602  -0.782   3.927   0.202 -0.4157 -1.2968  0.3344
  975MOL0     H31603  -0.617   3.791   0.407  0.1971  1.4097  0.2424
  975MOL0     H31604  -0.737   3.911   0.442  2.3583 -0.9889  2.2541
  975MOL0     H31605   0.215   4.298   0.577  0.2315  0.2508 -2.3987
  975MOL0     H31606   0.458   4.319   0.626 -2.1489  3.0020 -1.7461
  975MOL0     H31607   0.848   4.116   0.720 -1.2354 -0.9176 -0.8854
  975MOL0     H31608   1.079   4.119   0.791 -3.0436 -1.4861  0.5186
  975MOL0     H31609   2.446   5.222   0.931 -0.0334 -1.5750 -3.8274
  975MOL0     H31610   2.619   5.359   0.855  1.6943  1.1198  2.4705
  975MOL0     H31611   2.928   5.673   0.942 -1.7710 -0.0744 -1.5406
  975MOL0     H31612   3.092   5.815   0.898 -1.5343 -1.3905  1.1407
  975MOL0     H31613   3.266   5.947   0.852  0.8013  4.8732 -1.9787
  975MOL0     H31614   3.392   5.971   0.742 -0.2606  0.4893  0.9394
  975MOL0     H31615   3.477   5.953   0.972  0.5777 -0.1562  0.1484
  975MOL0     H31616   3.537   5.830   0.863 -1.7548 -3.0875  1.0213
  975MOL0     H31617   3.412   5.664   0.938 -2.1546  1.1010 -1.7107
  975MOL0     H31618   3.308   5.767   1.034  2.1978  2.0723  3.3102
  975MOL0     H31619   3.502   5.830   1.174  1.8354  1.5161 -2.0123
  975MOL0     H31620   3.438   5.662   1.191 -0.9391 -0.3234 -0.5535
  975MOL0     H31621   3.834   5.650   1.025  0.0533 -0.3298  0.2840
  975MOL0     H31622   3.298   5.508   0.664 -0.4459  1.0197 -1.7485
  975MOL0     H31623   3.213   5.325   0.623  0.5352 -0.0639  0.0537
  975MOL0     H31624   3.151   5.256   0.791 -1.9038 -1.1263 -0.5173
  975MOL0     H31625   3.053   5.293   0.654  0.4181  0.5898 -1.6268
  976MOL0     O31626   2.547   1.523  10.259 -0.1190 -0.3588  0.2979
  976MOL0     C31627   2.521   1.625  10.201  0.7811 -0.1595  1.2669
  976MOL0     O31628   2.578   1.739  10.227 -0.3082 -0.0710  0.1826
  976MOL0     C31629   2.694   1.759  10.294  0.3741 -0.0945  0.1499
  976MOL0     C31630   2.779   1.665  10.351 -0.3336 -0.8052  0.0607
  976MOL0     C31631   2.884   1.709  10.422 -0.1787  0.8659  0.0189
  976MOL0     C31632   2.911   1.839  10.451  0.1680 -0.0503 -0.2131
  976MOL0     O31633   3.030   1.860  10.514  0.0124  0.7990  0.9583
  976MOL0     C31634   3.036   1.969  10.602  0.0866  0.1432  0.7217
  976MOL0     C31635   3.156   1.947  10.699 -0.3460  0.1292  0.7234
  976MOL0     C31636   3.295   1.959  10.623  1.1143 -0.0102 -0.5498
  976MOL0     C31637   3.369   2.090  10.668  0.4231  0.0167 -0.0805
  976MOL0     C31638   3.515   2.091  10.640  0.3409  0.9544 -0.1390
  976MOL0     C31639   3.592   2.214  10.696 -0.0812  0.4010  0.2954
  976MOL0     C31640   3.743   2.177  10.676 -0.1513 -0.2657  1.0017
  976MOL0     C31641   3.847   2.266  10.754  0.9360 -0.0585 -0.7813
  976MOL0     N31642   3.825   2.412  10.790  0.8373 -1.0181  0.2388
  976MOL0     C31643   3.912   2.517  10.764  0.3971  0.0197  0.5015
  976MOL0     C31644   3.847   2.623  10.822  0.8011 -0.4105 -0.8592
  976MOL0     C31645   3.921   2.745  10.860 -0.2198  0.4518  0.1957
  976MOL0     C31646   3.973   2.838  10.750 -0.0478 -0.1403  1.0830
  976MOL0     C31647   4.024   2.966  10.813  0.6283  0.0271  0.5038
  976MOL0     C31648   4.080   3.064  10.719 -1.7056 -0.5288 -0.2573
  976MOL0     O31649   4.125   3.185  10.788 -0.3671  0.6342  0.3761
  976MOL0     C31650   4.204   3.273  10.718 -0.0688 -0.4931 -0.1308
  976MOL0     C31651   4.264   3.258  10.591  0.4044  0.0109  0.2736
  976MOL0     C31652   4.368   3.340  10.556  0.5749  0.4808 -0.2436
  976MOL0     C31653   4.404   3.455  10.633  0.1760 -0.5676 -0.3799
  976MOL0     C31654   4.514   3.554  10.590 -0.0680  0.3010  0.1349
  976MOL0     O31655   4.589   3.516  10.489 -0.1723 -0.3330 -0.3220
  976MOL0     C31656   4.663   3.608  10.414  0.9148  0.3088  0.7213
  976MOL0     C31657   4.770   3.542  10.344 -0.3213  0.9857 -0.8715
  976MOL0     C31658   4.877   3.612  10.289  1.1645  0.7543  0.1333
  976MOL0     C31659   4.866   3.753  10.280  0.2422 -0.3863 -0.2900
  976MOL0     O31660   4.957   3.839  10.216 -0.5351 -0.3321  0.1873
  976MOL0     C31661   5.100   3.810  10.229  0.4605 -0.0845  0.2877
  976MOL0     C31662   5.140   3.753  10.094  0.3637  0.7584 -0.5629
  976MOL0     C31663   5.179   3.865   9.997  0.2865  0.3322  0.2023
  976MOL0     C31664   5.326   3.908  10.032  0.7342  0.2102 -0.2342
  976MOL0     C31665   5.355   4.036   9.951  0.7961  0.6061 -0.3141
  976MOL0     C31666   5.487   4.092   9.991  0.6588  0.1230 -0.9541
  976MOL0     C31667   5.538   4.208   9.905 -0.5293  0.5195  0.8981
  976MOL0     C31668   5.563   4.158   9.765 -0.8580 -0.9790  1.0848
  976MOL0    Cl31669   5.618   4.291   9.664 -0.3767  0.1003 -0.6126
  976MOL0     C31670   4.746   3.815  10.333 -0.6594  0.6627 -0.1238
  976MOL0     C31671   4.655   3.744  10.404 -0.1866  0.1309 -0.3113
  976MOL0     O31672   4.520   3.661  10.649  0.8398  0.4055  0.7385
  976MOL0     C31673   4.346   3.464  10.762 -0.4466  0.3415  0.1080
  976MOL0     C31674   4.247   3.375  10.806 -0.1635  0.4810  0.6921
  976MOL0     N31675   3.722   2.582  10.889 -0.3836  1.0878  0.5788
  976MOL0     N31676   3.717   2.457  10.862  0.5414 -0.5315  0.8855
  976MOL0     C31677   2.820   1.937  10.398 -0.6076  0.4330 -0.1181
  976MOL0     C31678   2.710   1.897  10.322  0.8899  0.0515  0.4567
  976MOL0     C31679   2.402   1.624  10.113 -0.4946  0.5295 -0.7229
  976MOL0     C31680   2.318   1.736  10.110  0.3097 -0.2888  0.3449
  976MOL0     C31681   2.188   1.728  10.052 -0.3194 -1.0783  0.0004
  976MOL0     C31682   2.144   1.612   9.986 -0.0833 -0.7485 -0.0520
  976MOL0     O31683   2.022   1.610   9.935  0.4401 -0.3004 -0.2091
  976MOL0     C31684   1.950   1.485   9.924 -0.1156  0.6406 -0.2420
  976MOL0     C31685   1.916   1.403  10.056  0.2400  0.1068  0.7096
  976MOL0     C31686   1.828   1.477  10.155  0.1891  0.1058 -0.7439
  976MOL0     C31687   1.809   1.407  10.291  0.4169 -0.2573  0.0618
  976MOL0     C31688   1.747   1.281  10.277  0.2726  0.5349 -0.6529
  976MOL0     C31689   1.700   1.168  10.278  0.4673 -0.1860 -0.1156
  976MOL0     C31690   2.232   1.502   9.992  0.6950 -0.5348 -0.4664
  976MOL0     C31691   2.361   1.507  10.055 -0.7344 -0.1231 -0.7336
  976MOL0     C31692   2.439   1.379  10.049  0.8744 -0.1107 -0.7193
  976MOL0     H31693   2.747   1.562  10.341 -1.3278 -0.9239  3.3562
  976MOL0     H31694   2.949   1.636  10.468  2.4883  2.1805 -1.4377
  976MOL0     H31695   3.048   2.063  10.548 -0.2650 -0.5323 -0.5759
  976MOL0     H31696   2.947   1.967  10.666 -1.2711  0.8902 -1.0559
  976MOL0     H31697   3.143   1.846  10.741  2.2764 -0.5568  0.0262
  976MOL0     H31698   3.152   2.017  10.783 -0.1871  2.7840 -1.3709
  976MOL0     H31699   3.276   1.970  10.516 -3.1111  3.3870  0.2466
  976MOL0     H31700   3.359   1.874  10.645  0.5127 -0.4896 -0.6358
  976MOL0     H31701   3.311   2.173  10.628 -1.5976 -1.3393 -0.0861
  976MOL0     H31702   3.358   2.097  10.777  2.8766 -1.0988  0.3219
  976MOL0     H31703   3.548   1.997  10.685 -1.4277  0.0592 -0.6361
  976MOL0     H31704   3.537   2.073  10.535  0.0423  0.5211 -0.1319
  976MOL0     H31705   3.558   2.304  10.644  2.1887  0.4602 -1.2123
  976MOL0     H31706   3.563   2.212  10.802  1.2299 -1.1113  0.6604
  976MOL0     H31707   3.768   2.187  10.569  3.1445 -3.4238  1.3033
  976MOL0     H31708   3.767   2.073  10.698 -1.4743 -0.3712  2.0515
  976MOL0     H31709   3.860   2.216  10.850  0.3970  0.0430 -0.6485
  976MOL0     H31710   3.943   2.246  10.707  2.0848 -1.7463  2.0052
  976MOL0     H31711   4.014   2.509  10.727  0.7716  1.9018  1.0239
  976MOL0     H31712   3.856   2.802  10.927  1.1563  0.8153  1.2628
  976MOL0     H31713   4.002   2.715  10.927 -0.4869  0.8689  0.7083
  976MOL0     H31714   4.050   2.777  10.703 -1.3564 -0.2241 -1.0916
  976MOL0     H31715   3.899   2.870  10.676  2.3001  1.0100 -0.9021
  976MOL0     H31716   4.101   2.924  10.878  1.0307 -0.2807 -0.1613
  976MOL0     H31717   3.944   3.024  10.861 -1.0962 -0.0886 -1.9814
  976MOL0     H31718   4.006   3.090  10.643 -0.5977 -0.4601 -1.3341
  976MOL0     H31719   4.162   3.014  10.667 -2.7176 -1.2670 -1.1625
  976MOL0     H31720   4.248   3.165  10.537 -0.6662  0.4736 -0.2347
  976MOL0     H31721   4.418   3.312  10.464  0.7322  4.1470 -1.4350
  976MOL0     H31722   4.788   3.435  10.346  2.2320  1.3338 -1.6146
  976MOL0     H31723   4.959   3.558  10.243  1.7965  0.2764  1.7717
  976MOL0     H31724   5.151   3.902  10.258  0.7734  0.8634 -2.9059
  976MOL0     H31725   5.127   3.732  10.301 -0.5936 -0.9387 -0.2267
  976MOL0     H31726   5.225   3.688  10.114  0.2673  1.8169  4.4873
  976MOL0     H31727   5.059   3.694  10.049 -0.8625  1.2893  0.8683
  976MOL0     H31728   5.174   3.827   9.895  1.4889  0.5574  0.0468
  976MOL0     H31729   5.119   3.957  10.003 -2.4353 -1.3235  0.0072
  976MOL0     H31730   5.400   3.829  10.021  0.0761 -1.0584  3.1772
  976MOL0     H31731   5.320   3.930  10.139 -0.1544 -4.0980  0.8066
  976MOL0     H31732   5.274   4.110   9.950 -1.9402 -2.0437  2.5851
  976MOL0     H31733   5.357   3.996   9.849 -0.9689 -0.3051 -0.0461
  976MOL0     H31734   5.461   4.136  10.088  0.7884 -1.8962  0.0586
  976MOL0     H31735   5.552   4.007  10.016 -1.3366 -0.9052  1.0585
  976MOL0     H31736   5.627   4.254   9.949  0.0409  0.1916  0.1075
  976MOL0     H31737   5.457   4.280   9.894 -0.3982  0.2339 -3.3296
  976MOL0     H31738   5.633   4.075   9.752  0.4451  0.1131  0.8198
  976MOL0     H31739   5.469   4.124   9.720 -1.2274 -0.6241  1.5803
  976MOL0     H31740   4.716   3.917  10.311 -2.4570  0.1545 -0.1870
  976MOL0     H31741   4.579   3.800  10.458  0.4938  2.3929 -1.5724
  976MOL0     H31742   4.360   3.545  10.833 -1.1444  0.2741  0.3234
  976MOL0     H31743   4.199   3.385  10.902 -1.4367 -2.9680  0.5480
  976MOL0     H31744   2.858   2.039  10.397  2.5869 -0.6687 -1.2278
  976MOL0     H31745   2.632   1.967  10.292  1.7384  1.2606  0.9944
  976MOL0     H31746   2.357   1.826  10.157  0.2197  0.0843 -0.2887
  976MOL0     H31747   2.142   1.825  10.041 -0.9784 -1.5867 -2.4584
  976MOL0     H31748   2.001   1.413   9.859  0.1900  0.6943 -0.0667
  976MOL0     H31749   1.859   1.498   9.865  0.3676  0.6838 -1.0016
  976MOL0     H31750   2.010   1.381  10.107 -0.7575  0.0216  2.5841
  976MOL0     H31751   1.866   1.312  10.022  1.1814  0.2661 -1.2470
  976MOL0     H31752   1.731   1.494  10.108  0.0771  1.4199 -0.0746
  976MOL0     H31753   1.880   1.568  10.185  2.2465 -1.8273  2.0261
  976MOL0     H31754   1.902   1.400  10.348 -0.3028  0.8431  1.4297
  976MOL0     H31755   1.746   1.471  10.354 -1.1350  3.0153 -4.3142
  976MOL0     H31756   1.657   1.070  10.287  0.0923 -0.2086 -1.7373
  976MOL0     H31757   2.202   1.406   9.951  0.4309  0.5204 -2.8817
  976MOL0     H31758   2.441   1.331  10.147 -4.0280  0.9300  0.1998
  976MOL0     H31759   2.398   1.307   9.977 -1.4306  0.5297 -0.1400
  976MOL0     H31760   2.543   1.395  10.021  0.8954  1.0967  0.0096
  977MOL0     O31761   1.785   1.244   5.952 -1.0967  0.0040 -0.4682
  977MOL0     C31762   1.807   1.125   5.965 -0.5053 -0.5186  0.3408
  977MOL0     O31763   1.727   1.041   6.031 -0.0473  0.5205 -0.4567
  977MOL0     C31764   1.595   1.064   6.020 -0.1635  0.0676 -0.3570
  977MOL0     C31765   1.524   1.096   5.905 -0.1303 -0.3541 -0.2567
  977MOL0     C31766   1.388   1.112   5.907 -0.0367 -0.7122  0.8798
  977MOL0     C31767   1.316   1.106   6.021 -0.3306  0.4602  1.0404
  977MOL0     O31768   1.185   1.149   6.014 -0.7740  0.2076  0.0298
  977MOL0     C31769   1.148   1.220   6.130 -0.5585  0.4278  0.8851
  977MOL0     C31770   1.015   1.285   6.094 -0.2529 -0.3529 -0.4479
  977MOL0     C31771   0.973   1.382   6.198 -0.3333 -0.7480  0.1788
  977MOL0     C31772   0.880   1.481   6.133  0.2567  0.8196 -0.2740
  977MOL0     C31773   0.738   1.470   6.185 -0.8242 -0.1020  0.5731
  977MOL0     C31774   0.717   1.566   6.300  0.0379  0.2951 -0.0525
  977MOL0     C31775   0.580   1.583   6.344 -0.1512  0.0893  0.2396
  977MOL0     C31776   0.511   1.459   6.415 -0.7959  0.3885  0.9624
  977MOL0     N31777   0.581   1.390   6.517  0.0115  0.3416 -0.2916
  977MOL0     C31778   0.670   1.283   6.507 -0.6204 -0.1607  0.9661
  977MOL0     C31779   0.687   1.243   6.634 -0.0603 -0.2728 -0.2977
  977MOL0     C31780   0.782   1.146   6.693  0.9533  1.1193 -0.5625
  977MOL0     C31781   0.887   1.217   6.788 -0.4013  0.0599  0.2466
  977MOL0     C31782   0.985   1.122   6.845 -0.7664 -0.3665 -0.3846
  977MOL0     C31783   1.077   1.044   6.750  0.4488  0.0089  0.3996
  977MOL0     O31784   1.150   1.134   6.681 -0.8992 -0.3672 -0.1496
  977MOL0     C31785   1.287   1.143   6.686  0.6071  0.2817 -0.5125
  977MOL0     C31786   1.352   1.264   6.696 -0.6456  0.0194  0.6183
  977MOL0     C31787   1.495   1.272   6.705  0.7095 -0.2081 -0.1190
  977MOL0     C31788   1.565   1.163   6.663  0.2407 -0.5626 -1.0255
  977MOL0     C31789   1.714   1.179   6.656 -0.6198  0.2242 -0.3967
  977MOL0     O31790   1.769   1.095   6.568  0.3785  0.6537 -0.0801
  977MOL0     C31791   1.890   1.108   6.512 -0.4863 -0.2871  0.3438
  977MOL0     C31792   1.911   1.202   6.409 -0.0574 -0.2014 -1.2547
  977MOL0     C31793   2.041   1.230   6.351 -0.1157 -0.0069 -0.6160
  977MOL0     C31794   2.137   1.142   6.384  0.3374 -0.4468  0.3329
  977MOL0     O31795   2.259   1.150   6.323 -0.2720  0.7027 -0.1417
  977MOL0     C31796   2.318   1.271   6.269  0.2467 -0.7550 -0.1169
  977MOL0     C31797   2.474   1.256   6.236  1.3817 -0.1043 -0.4080
  977MOL0     C31798   2.561   1.243   6.358  0.7889 -0.3362  0.7963
  977MOL0     C31799   2.667   1.358   6.373  1.5344  0.2352  0.2352
  977MOL0     C31800   2.712   1.379   6.507 -0.4023  0.7880  0.0556
  977MOL0     C31801   2.819   1.479   6.508  0.0638  0.3251  0.4071
  977MOL0     C31802   2.873   1.504   6.646  0.1312  0.3869 -0.3116
  977MOL0     C31803   3.012   1.578   6.640  0.4422  0.1322  0.0918
  977MOL0    Cl31804   2.981   1.754   6.614  0.0376 -0.0975  0.4163
  977MOL0     C31805   2.125   1.044   6.480  0.6337  0.8532  0.0307
  977MOL0     C31806   2.006   1.035   6.559 -0.5588 -0.2137  0.8765
  977MOL0     O31807   1.786   1.268   6.702  0.2263  0.2453  0.3677
  977MOL0     C31808   1.499   1.036   6.648 -1.2527  0.2703  0.4917
  977MOL0     C31809   1.365   1.029   6.673  0.9313 -0.3754  0.0583
  977MOL0     N31810   0.602   1.313   6.713  0.4112  0.4984  0.1198
  977MOL0     N31811   0.536   1.393   6.645 -0.0655  0.9434  0.5224
  977MOL0     C31812   1.385   1.065   6.138 -0.7308  0.2885  0.1852
  977MOL0     C31813   1.521   1.055   6.136  0.3619 -0.4991 -0.3439
  977MOL0     C31814   1.936   1.084   5.918 -0.0517  0.1675  0.3117
  977MOL0     C31815   1.979   1.117   5.789  0.8256 -0.1559 -0.6423
  977MOL0     C31816   2.114   1.085   5.751 -0.9011 -0.0062 -0.0746
  977MOL0     C31817   2.201   1.005   5.830 -0.2040 -1.1908  0.3088
  977MOL0     O31818   2.320   0.961   5.780  0.4066 -0.2347 -1.0519
  977MOL0     C31819   2.378   0.847   5.846 -0.8803  0.4753 -1.3105
  977MOL0     C31820   2.469   0.872   5.978 -0.8411  0.2690  0.3525
  977MOL0     C31821   2.589   0.974   5.959 -0.8515  0.4763 -0.1990
  977MOL0     C31822   2.676   0.933   5.842 -0.7132  0.1402 -0.0559
  977MOL0     C31823   2.761   0.827   5.893 -0.4661 -0.4481  0.1154
  977MOL0     C31824   2.820   0.734   5.941 -0.0516  0.3282  0.7968
  977MOL0     C31825   2.146   0.961   5.950 -0.2249 -0.8989 -0.5722
  977MOL0     C31826   2.021   1.000   5.995  1.0888  0.7702 -0.0470
  977MOL0     C31827   1.982   0.949   6.140  0.1920 -0.0443 -0.6791
  977MOL0     H31828   1.586   1.099   5.816  1.6379  1.5269  0.9320
  977MOL0     H31829   1.347   1.143   5.811  1.4035 -1.7886 -0.1235
  977MOL0     H31830   1.139   1.162   6.223  4.0449  1.8096  2.4447
  977MOL0     H31831   1.220   1.300   6.151  2.4755 -1.7328 -0.5549
  977MOL0     H31832   0.932   1.219   6.068 -1.3050 -0.2092  2.2107
  977MOL0     H31833   1.055   1.340   6.009  1.5708 -2.5379 -1.0982
  977MOL0     H31834   1.056   1.434   6.249 -1.3800 -1.5108  2.8354
  977MOL0     H31835   0.921   1.325   6.275  2.9811 -4.6292 -0.1110
  977MOL0     H31836   0.917   1.581   6.155  0.2155  0.4814  1.4850
  977MOL0     H31837   0.871   1.461   6.026 -1.9533 -0.4249  0.0943
  977MOL0     H31838   0.663   1.495   6.108 -0.8262 -0.9198  0.3067
  977MOL0     H31839   0.715   1.366   6.210  0.3765 -0.7379 -0.8238
  977MOL0     H31840   0.780   1.548   6.388 -0.4809 -0.0411  0.2493
  977MOL0     H31841   0.741   1.666   6.263 -2.0026  0.2610 -1.6845
  977MOL0     H31842   0.525   1.609   6.253 -0.9892  1.9785  1.2319
  977MOL0     H31843   0.553   1.668   6.407  2.1403  1.5466 -0.6137
  977MOL0     H31844   0.414   1.489   6.456 -3.4769 -1.4249 -3.3766
  977MOL0     H31845   0.476   1.392   6.337 -0.7493  0.3904  0.9392
  977MOL0     H31846   0.729   1.254   6.421 -2.5107  1.3230 -0.9252
  977MOL0     H31847   0.732   1.076   6.761  3.7164 -1.0449 -0.6164
  977MOL0     H31848   0.831   1.092   6.612  2.0319 -1.7271  1.7977
  977MOL0     H31849   0.938   1.299   6.737 -4.0803  1.3811 -1.6153
  977MOL0     H31850   0.839   1.261   6.876 -0.1953 -1.9205  1.4111
  977MOL0     H31851   0.925   1.054   6.906 -3.1377  1.1238 -0.9185
  977MOL0     H31852   1.061   1.171   6.907  1.7804 -0.8431 -2.9446
  977MOL0     H31853   1.018   0.991   6.675  1.0748  0.3072 -0.3157
  977MOL0     H31854   1.134   0.978   6.817 -3.2838 -0.2207  3.7214
  977MOL0     H31855   1.296   1.356   6.713 -4.2083 -2.0083  0.7971
  977MOL0     H31856   1.539   1.364   6.742 -3.0058  2.4835 -1.7974
  977MOL0     H31857   1.835   1.270   6.372  2.4123  2.1945 -2.3214
  977MOL0     H31858   2.056   1.314   6.283  0.9242 -1.5531 -2.4218
  977MOL0     H31859   2.261   1.289   6.178  0.9649 -6.5624 -2.1580
  977MOL0     H31860   2.294   1.354   6.336 -0.1206 -2.7099  2.3347
  977MOL0     H31861   2.497   1.171   6.172  0.4230 -1.9891  1.6143
  977MOL0     H31862   2.509   1.338   6.172 -3.0317  3.4230  1.1158
  977MOL0     H31863   2.497   1.250   6.447 -0.3824 -2.7753  0.2292
  977MOL0     H31864   2.606   1.144   6.362 -0.5360 -0.9606  0.5104
  977MOL0     H31865   2.634   1.444   6.313  0.2346 -1.6367 -1.8927
  977MOL0     H31866   2.738   1.322   6.298  3.2831  1.8784  1.0313
  977MOL0     H31867   2.749   1.281   6.537 -0.3854  0.7227 -0.1740
  977MOL0     H31868   2.630   1.417   6.569 -0.2029  0.4771  0.5089
  977MOL0     H31869   2.904   1.445   6.448  0.1517 -1.9388  1.7380
  977MOL0     H31870   2.786   1.576   6.469  0.4019  0.0713 -0.5445
  977MOL0     H31871   2.882   1.406   6.694 -0.2263  0.9931  1.0407
  977MOL0     H31872   2.798   1.572   6.688  0.0769 -0.8643  1.7535
  977MOL0     H31873   3.055   1.563   6.740 -1.4755  0.0685  0.9560
  977MOL0     H31874   3.074   1.549   6.555  0.9748  1.8088 -0.1138
  977MOL0     H31875   2.210   0.986   6.512  0.0250 -0.5504 -0.7974
  977MOL0     H31876   1.998   0.973   6.648 -1.8107 -1.6702 -0.1763
  977MOL0     H31877   1.562   0.949   6.634 -0.7307  0.7018  0.0762
  977MOL0     H31878   1.316   0.933   6.662  0.6870 -0.2580  0.1355
  977MOL0     H31879   1.320   1.061   6.224  1.0805  1.4949  1.6883
  977MOL0     H31880   1.568   1.019   6.227 -0.4299 -2.4900 -0.6539
  977MOL0     H31881   1.914   1.187   5.737 -1.7542 -0.5309  1.8423
  977MOL0     H31882   2.144   1.115   5.651 -1.8132  0.1227 -0.3243
  977MOL0     H31883   2.441   0.804   5.767 -2.5939 -1.2294 -1.8369
  977MOL0     H31884   2.301   0.771   5.862 -0.5316  0.3676 -0.0775
  977MOL0     H31885   2.509   0.779   6.020 -1.5843  1.0106  2.9198
  977MOL0     H31886   2.402   0.917   6.052  0.2646 -1.0210  2.2017
  977MOL0     H31887   2.653   0.983   6.047  0.6052 -0.9003 -1.0738
  977MOL0     H31888   2.543   1.069   5.931 -2.4402 -0.7176 -1.8770
  977MOL0     H31889   2.611   0.908   5.758 -1.5677  2.8977 -0.2997
  977MOL0     H31890   2.744   1.008   5.802  1.7597 -2.1879 -0.5607
  977MOL0     H31891   2.880   0.653   5.977  0.1231  0.2396  0.3114
  977MOL0     H31892   2.194   0.891   6.017 -1.5780  0.7179  2.2367
  977MOL0     H31893   1.926   1.014   6.208 -1.4034 -4.7585  3.0775
  977MOL0     H31894   1.937   0.850   6.139 -1.6923  0.7622 -1.4715
  977MOL0     H31895   2.076   0.938   6.196 -1.5243  0.4562  2.5223
  978MOL0     O31896   9.598   8.163   8.613 -0.3563  0.8527 -0.6162
  978MOL0     C31897   9.706   8.196   8.657  0.4676 -0.7331 -0.5680
  978MOL0     O31898   9.725   8.288   8.761 -0.6382 -0.0365  0.2669
  978MOL0     C31899   9.615   8.324   8.836  0.2679  0.0900  0.0789
  978MOL0     C31900   9.531   8.424   8.797 -0.1896 -0.2827  0.5958
  978MOL0     C31901   9.434   8.463   8.880 -0.3173  0.8259 -0.0753
  978MOL0     C31902   9.425   8.408   9.007 -0.4362  0.4894 -0.6502
  978MOL0     O31903   9.322   8.457   9.081  0.2277 -0.0420 -0.0690
  978MOL0     C31904   9.277   8.399   9.202  0.2744  0.1752  0.4145
  978MOL0     C31905   9.152   8.461   9.271 -0.3286  0.4260  1.0492
  978MOL0     C31906   9.028   8.456   9.179 -0.5290  0.4788  0.6744
  978MOL0     C31907   8.891   8.505   9.237 -0.1729 -0.8387 -1.2976
  978MOL0     C31908   8.883   8.461   9.388 -0.3187  0.5472 -0.1803
  978MOL0     C31909   8.876   8.305   9.396 -1.1513 -0.4917  0.6179
  978MOL0     C31910   8.854   8.259   9.543  0.2460 -0.0840 -0.1285
  978MOL0     C31911   8.823   8.107   9.545 -0.2591 -0.3726  0.8209
  978MOL0     N31912   8.829   8.069   9.678  0.0166  0.9436 -0.0217
  978MOL0     C31913   8.930   8.080   9.774 -0.2921 -0.0455 -0.4104
  978MOL0     C31914   8.893   8.010   9.886 -0.4032  0.8018  0.7607
  978MOL0     C31915   8.975   7.988  10.006  0.2168 -0.1591 -0.2742
  978MOL0     C31916   8.915   8.080  10.115  0.6527 -0.2862 -0.4667
  978MOL0     C31917   8.982   8.060  10.251 -0.6253 -0.3441 -0.2139
  978MOL0     C31918   9.132   8.093  10.254 -0.1078  0.7716  0.7070
  978MOL0     O31919   9.144   8.232  10.254 -0.1080  0.5112  0.1328
  978MOL0     C31920   9.250   8.283  10.187  0.3193 -0.8340 -0.4387
  978MOL0     C31921   9.367   8.214  10.137 -0.4794  0.4673  0.6602
  978MOL0     C31922   9.475   8.278  10.087  0.6067 -0.5212  0.9486
  978MOL0     C31923   9.477   8.412  10.081 -0.9130  1.0997  0.3205
  978MOL0     C31924   9.596   8.479  10.021 -0.0974 -0.3224  0.3237
  978MOL0     O31925   9.667   8.411   9.938 -0.0337 -0.2943 -0.5563
  978MOL0     C31926   9.773   8.456   9.866 -0.4862  0.0973 -0.2023
  978MOL0     C31927   9.864   8.561   9.903 -0.7199  0.0628 -0.1085
  978MOL0     C31928   9.990   8.583   9.838 -0.4065  0.2498 -0.3527
  978MOL0     C31929  10.019   8.506   9.727  0.4007  0.3187 -0.3132
  978MOL0     O31930  10.137   8.516   9.653 -0.6869 -0.4499  0.5793
  978MOL0     C31931  10.261   8.529   9.733  0.5755  0.0757 -0.2218
  978MOL0     C31932  10.379   8.575   9.653  0.0955 -0.5763  0.1863
  978MOL0     C31933  10.355   8.711   9.591 -0.1839 -0.9348  0.0118
  978MOL0     C31934  10.482   8.755   9.513 -0.5498 -0.3148  0.7286
  978MOL0     C31935  10.480   8.895   9.444  0.0773  0.7512 -0.1929
  978MOL0     C31936  10.482   9.005   9.549  0.4139 -0.1967  0.2959
  978MOL0     C31937  10.495   9.143   9.494  0.1466 -0.2965 -0.3605
  978MOL0     C31938  10.368   9.216   9.461  0.0060 -0.9666 -0.2059
  978MOL0    Cl31939  10.278   9.144   9.330 -0.3791  0.0070 -0.2184
  978MOL0     C31940   9.923   8.423   9.682 -0.3917  0.4880 -0.6222
  978MOL0     C31941   9.805   8.389   9.748  0.2507  0.4983 -0.8091
  978MOL0     O31942   9.609   8.595  10.052 -0.6033 -0.1354 -0.2307
  978MOL0     C31943   9.367   8.490  10.127  0.7833 -0.1566 -0.0356
  978MOL0     C31944   9.257   8.423  10.181 -0.5240 -0.0586  0.5603
  978MOL0     N31945   8.765   7.962   9.854  0.1412 -0.2590 -0.1277
  978MOL0     N31946   8.731   7.997   9.734  0.4407  0.1137 -0.4776
  978MOL0     C31947   9.507   8.307   9.052 -1.2292 -0.1159 -0.1428
  978MOL0     C31948   9.603   8.264   8.966 -0.1104 -0.6027  0.5698
  978MOL0     C31949   9.838   8.148   8.589 -0.3400  0.4149 -0.1561
  978MOL0     C31950   9.955   8.219   8.603 -0.5734  0.1999 -0.5403
  978MOL0     C31951  10.078   8.173   8.559  0.3147 -0.5186  0.5843
  978MOL0     C31952  10.087   8.057   8.492  0.6019 -0.2149 -0.0783
  978MOL0     O31953  10.199   8.015   8.434 -0.9272  0.0484 -0.5241
  978MOL0     C31954  10.269   7.909   8.507  0.1855 -0.8577 -0.4940
  978MOL0     C31955  10.383   7.980   8.583 -0.1606 -0.6696  1.4139
  978MOL0     C31956  10.483   7.882   8.625  0.2048 -0.3486 -0.8434
  978MOL0     C31957  10.441   7.790   8.741  0.2886  0.3970  0.0457
  978MOL0     C31958  10.341   7.684   8.708 -0.1236 -0.1382  0.5502
  978MOL0     C31959  10.252   7.603   8.675  0.9703 -0.4690  0.1630
  978MOL0     C31960   9.965   7.981   8.468  0.2527 -1.1308  0.4155
  978MOL0     C31961   9.847   8.022   8.525  0.5184 -0.2127 -0.0815
  978MOL0     C31962   9.729   7.928   8.507 -0.5030  0.1500 -0.0048
  978MOL0     H31963   9.535   8.472   8.699 -3.1461  0.0404  0.5471
  978MOL0     H31964   9.356   8.528   8.843 -1.0327 -0.3634 -0.7425
  978MOL0     H31965   9.242   8.298   9.180  0.3719  0.6890 -2.5218
  978MOL0     H31966   9.360   8.414   9.272  1.4640  3.9796 -1.5058
  978MOL0     H31967   9.172   8.563   9.304  0.9139 -0.7711  4.3304
  978MOL0     H31968   9.137   8.405   9.363 -0.3989 -0.1511  0.6953
  978MOL0     H31969   9.015   8.353   9.144 -2.2920  0.1615  2.1180
  978MOL0     H31970   9.053   8.515   9.091 -3.5847  0.7094 -0.1566
  978MOL0     H31971   8.878   8.614   9.235 -3.5920 -0.7970  3.6495
  978MOL0     H31972   8.805   8.455   9.192 -1.7684 -0.8541  1.5312
  978MOL0     H31973   8.970   8.502   9.441  2.7506 -1.3912 -3.3376
  978MOL0     H31974   8.791   8.491   9.439  0.9034  0.0487  2.5504
  978MOL0     H31975   8.799   8.264   9.331 -1.0106 -0.9118  0.7124
  978MOL0     H31976   8.968   8.271   9.349 -0.1979  0.4351  1.7323
  978MOL0     H31977   8.778   8.321   9.591 -2.3093 -2.0815 -1.2981
  978MOL0     H31978   8.949   8.272   9.596 -0.5932  0.3543  1.3213
  978MOL0     H31979   8.719   8.099   9.514 -0.4427  2.0385  0.6018
  978MOL0     H31980   8.887   8.051   9.477 -0.1722  1.9920 -1.1572
  978MOL0     H31981   9.027   8.126   9.762 -0.2585  0.5753  1.7688
  978MOL0     H31982   8.975   7.883  10.035 -1.3275 -0.4220 -1.1462
  978MOL0     H31983   9.080   8.019   9.996  0.1139  0.6383  0.8899
  978MOL0     H31984   8.927   8.185  10.088  0.0481  1.4925  4.8582
  978MOL0     H31985   8.807   8.065  10.119  0.7165 -1.1940 -1.8136
  978MOL0     H31986   8.968   7.958  10.288  3.2379 -0.6222  0.9316
  978MOL0     H31987   8.927   8.124  10.322  1.2314  0.9951  0.0807
  978MOL0     H31988   9.184   8.040  10.174 -1.3841  0.9421 -0.2682
  978MOL0     H31989   9.174   8.060  10.350 -1.4367 -0.0078  1.0399
  978MOL0     H31990   9.390   8.109  10.154  2.8631  1.2339  1.5218
  978MOL0     H31991   9.567   8.230  10.054 -0.5487 -1.9070 -0.4228
  978MOL0     H31992   9.857   8.625   9.991  1.5938 -0.6821  0.7079
  978MOL0     H31993  10.056   8.662   9.872  1.1402 -0.2088 -2.1278
  978MOL0     H31994  10.242   8.602   9.812 -0.9213  2.6759 -2.8034
  978MOL0     H31995  10.300   8.433   9.770  1.9008  0.4746 -0.5302
  978MOL0     H31996  10.464   8.594   9.719  1.8245  0.2499 -2.1513
  978MOL0     H31997  10.404   8.502   9.576 -3.2052  0.2428 -1.8914
  978MOL0     H31998  10.273   8.707   9.519 -0.9642  0.2591  0.7994
  978MOL0     H31999  10.332   8.780   9.672 -0.5994 -1.9435  0.7749
  978MOL0     H32000  10.504   8.688   9.430  2.2921  1.2808  0.0738
  978MOL0     H32001  10.565   8.749   9.583 -0.8799  0.8251  1.2516
  978MOL0     H32002  10.390   8.905   9.382 -0.2927 -1.6137 -0.1371
  978MOL0     H32003  10.567   8.905   9.379  1.1017  1.9161  1.2985
  978MOL0     H32004  10.388   8.992   9.604 -0.6665  0.3860 -1.3439
  978MOL0     H32005  10.557   8.984   9.625 -0.4114  2.1935  1.9034
  978MOL0     H32006  10.556   9.146   9.403  2.2309  2.5348  0.9740
  978MOL0     H32007  10.538   9.212   9.567 -0.6190  1.9434 -1.9163
  978MOL0     H32008  10.304   9.209   9.550 -0.1220 -2.6445 -0.3799
  978MOL0     H32009  10.379   9.324   9.456 -3.8256 -0.2275  2.4968
  978MOL0     H32010   9.937   8.375   9.586  0.1295 -0.9440  0.1316
  978MOL0     H32011   9.732   8.317   9.712  1.0926  0.2541 -2.0597
  978MOL0     H32012   9.358   8.597  10.116  1.2316 -0.2531 -1.6170
  978MOL0     H32013   9.186   8.498  10.214 -0.2229  1.6090 -2.2875
  978MOL0     H32014   9.487   8.271   9.153 -0.9036  0.8046  0.2548
  978MOL0     H32015   9.674   8.189   9.001 -0.8057 -0.2630  2.8389
  978MOL0     H32016   9.960   8.316   8.652  0.0647 -0.9814  1.8346
  978MOL0     H32017  10.173   8.222   8.578  1.7207 -1.7198 -2.6085
  978MOL0     H32018  10.309   7.836   8.437  0.9384 -1.7118  0.7764
  978MOL0     H32019  10.212   7.859   8.587  0.2796  0.3872  0.3884
  978MOL0     H32020  10.347   8.052   8.658 -0.0251  2.8244 -1.5975
  978MOL0     H32021  10.440   8.046   8.517  0.9333 -0.8886  2.1121
  978MOL0     H32022  10.569   7.946   8.650 -1.7260  1.5744  1.3829
  978MOL0     H32023  10.513   7.816   8.543 -2.8639 -1.6127 -1.0748
  978MOL0     H32024  10.518   7.724   8.779  1.7123  1.1341 -1.4190
  978MOL0     H32025  10.403   7.851   8.824 -0.5915  0.5269 -0.4342
  978MOL0     H32026  10.173   7.542   8.638  1.0232  0.2403 -1.1677
  978MOL0     H32027   9.964   7.899   8.396  0.5465 -0.8768  0.1150
  978MOL0     H32028   9.679   7.907   8.602 -0.3110 -0.2959  0.0001
  978MOL0     H32029   9.670   7.989   8.437  3.1986  0.9382 -2.7665
  978MOL0     H32030   9.767   7.835   8.463 -0.3837 -1.0198  2.4017
  979MOL0     O32031   7.561   5.351   0.563  0.1999 -0.0090 -0.2005
  979MOL0     C32032   7.469   5.364   0.634 -0.1867 -0.0608  0.2593
  979MOL0     O32033   7.409   5.262   0.703 -0.3723 -0.4684  0.0684
  979MOL0     C32034   7.472   5.140   0.705  0.0480  0.7974  0.2557
  979MOL0     C32035   7.528   5.091   0.828  0.6278 -0.3930 -0.5041
  979MOL0     C32036   7.609   4.975   0.833  0.0159  0.3739  0.5593
  979MOL0     C32037   7.641   4.899   0.714  1.1201 -0.4275  0.1458
  979MOL0     O32038   7.727   4.793   0.722 -0.6591 -0.2915  0.5698
  979MOL0     C32039   7.763   4.728   0.600 -0.1980  1.3836 -1.3357
  979MOL0     C32040   7.867   4.614   0.636  0.2129 -0.6563 -0.2617
  979MOL0     C32041   7.906   4.540   0.509 -0.6701  0.1848 -0.0247
  979MOL0     C32042   8.004   4.424   0.516 -0.2770 -0.2428  0.2916
  979MOL0     C32043   7.937   4.299   0.587 -0.9210 -1.1133 -0.3326
  979MOL0     C32044   8.011   4.161   0.559  1.0393 -0.6095 -0.0255
  979MOL0     C32045   8.162   4.156   0.588 -0.0864 -0.3835 -0.1772
  979MOL0     C32046   8.174   4.164   0.741  0.5192  0.3533  0.6515
  979MOL0     N32047   8.308   4.191   0.771 -0.5158  0.4650  0.2740
  979MOL0     C32048   8.389   4.295   0.726  0.2032 -0.2850 -0.3480
  979MOL0     C32049   8.507   4.287   0.800  0.5125 -0.4260  0.8999
  979MOL0     C32050   8.628   4.373   0.772  0.0588  0.6240 -0.0590
  979MOL0     C32051   8.772   4.308   0.766 -0.1625 -0.0076 -0.0619
  979MOL0     C32052   8.796   4.190   0.665  0.6438 -0.2670 -1.0231
  979MOL0     C32053   8.743   4.224   0.524  0.1443  0.4262  0.7967
  979MOL0     O32054   8.814   4.335   0.454  0.3444 -0.1332 -0.4635
  979MOL0     C32055   8.945   4.305   0.414  0.2491 -0.1985  0.2933
  979MOL0     C32056   9.021   4.412   0.359 -0.4685 -0.1777  0.4929
  979MOL0     C32057   9.156   4.388   0.326 -0.3946 -1.0501  1.3431
  979MOL0     C32058   9.219   4.265   0.333 -0.8140  0.0698  0.1295
  979MOL0     C32059   9.364   4.249   0.309  0.0650 -0.5325  0.2430
  979MOL0     O32060   9.411   4.128   0.334 -0.0935 -0.5045  0.2241
  979MOL0     C32061   9.545   4.104   0.322  0.2848 -0.8654 -0.4870
  979MOL0     C32062   9.601   4.015   0.238 -0.3939 -0.2787 -0.0613
  979MOL0     C32063   9.740   3.992   0.243 -0.1994 -0.4283  0.2206
  979MOL0     C32064   9.828   4.058   0.322 -0.1077 -0.0488 -0.0735
  979MOL0     O32065   9.965   4.028   0.316  0.4369 -0.8096  0.5857
  979MOL0     C32066  10.056   4.092   0.402  0.0283 -0.2640  0.2441
  979MOL0     C32067  10.203   4.060   0.366  0.1134 -0.9733 -0.5512
  979MOL0     C32068  10.219   3.906   0.358  0.7022 -1.0369  0.3972
  979MOL0     C32069  10.152   3.821   0.463  1.0264  0.5836  0.0255
  979MOL0     C32070  10.195   3.671   0.461 -0.0182 -0.3734  0.5419
  979MOL0     C32071  10.160   3.577   0.585  0.5993 -0.1192  0.1558
  979MOL0     C32072  10.017   3.607   0.643 -0.2232  0.4280  1.0277
  979MOL0     C32073   9.908   3.556   0.544 -0.1922 -0.1580  1.0772
  979MOL0    Cl32074   9.764   3.617   0.615  0.1994 -0.3595  0.4106
  979MOL0     C32075   9.771   4.151   0.413  0.5388 -0.3254  0.8809
  979MOL0     C32076   9.630   4.175   0.413  0.0117  0.7300 -0.1316
  979MOL0     O32077   9.428   4.342   0.268 -0.7816  0.2502  0.2486
  979MOL0     C32078   9.140   4.155   0.371 -0.3346  0.4754 -0.6520
  979MOL0     C32079   9.008   4.178   0.416 -0.7129 -0.0254 -0.0334
  979MOL0     N32080   8.497   4.174   0.886 -0.5921  0.2757 -0.4553
  979MOL0     N32081   8.386   4.114   0.859 -0.1886  0.1894  0.4511
  979MOL0     C32082   7.582   4.949   0.593  0.2602  0.7793 -0.2421
  979MOL0     C32083   7.494   5.062   0.593  0.1075  0.2606 -0.4002
  979MOL0     C32084   7.408   5.501   0.677  0.7597 -0.4357  0.1517
  979MOL0     C32085   7.288   5.496   0.757 -0.9768  0.6637 -0.3567
  979MOL0     C32086   7.234   5.612   0.813  0.8285  0.1090 -0.5008
  979MOL0     C32087   7.295   5.734   0.777 -0.2546 -0.7099 -0.3283
  979MOL0     O32088   7.262   5.850   0.837  0.1475 -0.1936  0.2342
  979MOL0     C32089   7.331   5.875   0.960  0.0214  0.3324  0.3278
  979MOL0     C32090   7.391   6.015   0.976  0.5527  0.5141 -0.5325
  979MOL0     C32091   7.504   6.037   0.873 -0.1721  0.1510  0.5417
  979MOL0     C32092   7.553   6.178   0.901 -0.6012 -0.7052 -0.4206
  979MOL0     C32093   7.689   6.179   0.859 -0.1502 -1.1326  0.8848
  979MOL0     C32094   7.807   6.176   0.833 -0.2998 -0.3138 -0.2692
  979MOL0     C32095   7.405   5.740   0.694  0.1429 -0.4317  0.1785
  979MOL0     C32096   7.459   5.628   0.634  0.4618 -0.7054 -1.6559
  979MOL0     C32097   7.576   5.650   0.544 -0.3455 -0.3951  0.1035
  979MOL0     H32098   7.517   5.146   0.921 -0.4262 -0.9436 -0.2790
  979MOL0     H32099   7.647   4.947   0.931 -1.3551 -2.8180  0.3028
  979MOL0     H32100   7.679   4.682   0.547 -1.9341  1.2719  1.3443
  979MOL0     H32101   7.808   4.809   0.542  1.2496  1.0322 -0.7359
  979MOL0     H32102   7.830   4.544   0.711  2.2342  2.2709  3.7984
  979MOL0     H32103   7.952   4.661   0.685 -0.8970 -0.9147  2.0261
  979MOL0     H32104   7.954   4.620   0.452  0.2002  1.5215  2.4291
  979MOL0     H32105   7.813   4.517   0.457 -0.6645  2.6426 -1.2481
  979MOL0     H32106   8.024   4.395   0.412 -0.4146  2.8117 -0.6906
  979MOL0     H32107   8.098   4.452   0.565 -0.5287  3.1520 -0.9490
  979MOL0     H32108   7.936   4.326   0.693 -1.3443  3.6504 -1.3071
  979MOL0     H32109   7.829   4.291   0.567 -1.1509 -0.4532  0.5922
  979MOL0     H32110   7.962   4.084   0.619 -0.5143  1.3684  1.3667
  979MOL0     H32111   7.987   4.134   0.456 -1.6676 -0.3332  0.4772
  979MOL0     H32112   8.211   4.242   0.542 -0.2396  1.0552  2.1803
  979MOL0     H32113   8.211   4.070   0.542 -1.1900  0.2422 -2.6982
  979MOL0     H32114   8.110   4.245   0.776 -0.3509  1.8310 -3.8094
  979MOL0     H32115   8.157   4.064   0.781 -0.4715 -0.0522 -0.7410
  979MOL0     H32116   8.353   4.358   0.645  2.5820 -0.9051 -1.9965
  979MOL0     H32117   8.612   4.424   0.677  1.6558  0.9890 -0.1566
  979MOL0     H32118   8.633   4.444   0.856 -0.8776 -1.1346  1.5694
  979MOL0     H32119   8.838   4.393   0.748 -1.6931  1.3417  0.4554
  979MOL0     H32120   8.792   4.270   0.866 -1.8535 -2.6147 -0.6093
  979MOL0     H32121   8.751   4.095   0.697 -1.3217  1.4165  1.6224
  979MOL0     H32122   8.901   4.162   0.660  0.7163  0.2394 -3.0091
  979MOL0     H32123   8.640   4.259   0.538  0.5398  1.3956  1.3600
  979MOL0     H32124   8.734   4.144   0.450 -0.7321  0.8776  0.3925
  979MOL0     H32125   8.986   4.513   0.339 -0.1175 -0.6217 -3.1418
  979MOL0     H32126   9.200   4.481   0.290  1.3611 -3.0075 -2.1542
  979MOL0     H32127   9.545   3.968   0.157  1.2213  0.6694 -1.8156
  979MOL0     H32128   9.787   3.932   0.166 -1.8805 -0.5132 -0.7795
  979MOL0     H32129  10.047   4.200   0.393  1.7579  0.2336  3.1713
  979MOL0     H32130  10.032   4.064   0.505  1.2486 -1.6974  0.1782
  979MOL0     H32131  10.226   4.098   0.267  0.1219 -0.4497 -0.3530
  979MOL0     H32132  10.268   4.106   0.441 -1.1036 -1.2122  0.6912
  979MOL0     H32133  10.165   3.866   0.271 -1.5867  0.6051  0.9637
  979MOL0     H32134  10.325   3.880   0.346  0.9785  0.3328 -0.3204
  979MOL0     H32135  10.044   3.834   0.451  0.9019  1.9947  2.2444
  979MOL0     H32136  10.172   3.864   0.561 -1.4050  2.8138 -0.3361
  979MOL0     H32137  10.304   3.662   0.450 -0.0972 -0.7765  0.0729
  979MOL0     H32138  10.158   3.635   0.365 -0.8566  0.6868  0.4505
  979MOL0     H32139  10.177   3.470   0.570 -1.5478 -0.5465  0.3902
  979MOL0     H32140  10.237   3.597   0.659 -0.8519 -0.4400  1.8111
  979MOL0     H32141  10.001   3.714   0.660 -0.7462  0.4255  0.5752
  979MOL0     H32142  10.001   3.552   0.736 -1.0376  1.3714  1.4617
  979MOL0     H32143   9.919   3.606   0.447  1.6449 -0.4033  1.1239
  979MOL0     H32144   9.902   3.449   0.526 -2.2899 -0.0403  0.9291
  979MOL0     H32145   9.836   4.201   0.484 -3.1170  3.1409  2.2413
  979MOL0     H32146   9.585   4.241   0.487 -3.3730 -0.0732 -1.2635
  979MOL0     H32147   9.173   4.052   0.367  1.3781  0.9655 -0.1288
  979MOL0     H32148   8.957   4.093   0.462  1.6175 -1.3789  0.2325
  979MOL0     H32149   7.588   4.893   0.501 -1.2014 -0.1115  0.1706
  979MOL0     H32150   7.446   5.085   0.499 -1.0584 -0.3955  0.0142
  979MOL0     H32151   7.249   5.400   0.790  1.6159 -0.8708 -1.4312
  979MOL0     H32152   7.155   5.598   0.887  0.0877  0.8419 -1.1296
  979MOL0     H32153   7.403   5.793   0.971  1.4064  0.7411 -3.8761
  979MOL0     H32154   7.265   5.862   1.046  1.2470  0.3780  1.3015
  979MOL0     H32155   7.427   6.026   1.079 -2.8019 -0.9872  0.9710
  979MOL0     H32156   7.311   6.087   0.955 -0.6592 -0.8472 -0.7575
  979MOL0     H32157   7.476   6.034   0.767  3.4692 -0.1881 -0.5622
  979MOL0     H32158   7.585   5.964   0.882 -1.5889 -1.3848  1.2593
  979MOL0     H32159   7.489   6.254   0.855  1.2520  0.5279 -1.0657
  979MOL0     H32160   7.558   6.205   1.007 -0.2348 -2.2239 -0.0195
  979MOL0     H32161   7.913   6.164   0.821  0.2909  2.2520  1.6062
  979MOL0     H32162   7.451   5.836   0.678 -1.3980  0.4095  0.5910
  979MOL0     H32163   7.551   5.626   0.440  1.0827 -4.1242  0.4439
  979MOL0     H32164   7.612   5.752   0.557  0.7318 -0.4725 -1.9534
  979MOL0     H32165   7.663   5.592   0.578  0.8650  1.4806  0.3551
  980MOL0     O32166   8.429   7.284   4.772  0.0359 -0.0592 -0.0949
  980MOL0     C32167   8.322   7.259   4.803  0.7440  0.5798  1.2169
  980MOL0     O32168   8.278   7.216   4.920  0.0015  0.6938 -0.0028
  980MOL0     C32169   8.371   7.173   5.015  0.4046 -0.8641 -0.3079
  980MOL0     C32170   8.419   7.260   5.109  0.5243 -1.2738  0.8694
  980MOL0     C32171   8.499   7.216   5.216  0.2253 -0.3514 -0.0658
  980MOL0     C32172   8.526   7.082   5.232  0.6473  0.3578  0.3188
  980MOL0     O32173   8.603   7.020   5.329 -1.4308 -0.4046  0.1304
  980MOL0     C32174   8.746   6.988   5.292 -0.2589  0.2198  0.5940
  980MOL0     C32175   8.851   7.082   5.360  0.6762 -0.6706 -0.7140
  980MOL0     C32176   8.994   7.043   5.336  0.4263 -0.0115  0.0954
  980MOL0     C32177   9.076   7.171   5.341  0.4063  0.0587 -0.0265
  980MOL0     C32178   9.220   7.136   5.361  0.8617 -0.0959  0.0289
  980MOL0     C32179   9.315   7.258   5.345  0.2118 -0.1705 -0.8176
  980MOL0     C32180   9.462   7.218   5.335  0.4852  0.6119  0.0246
  980MOL0     C32181   9.549   7.335   5.323 -0.3314  0.2729 -0.0183
  980MOL0     N32182   9.681   7.339   5.398  0.3299 -0.3916  0.7443
  980MOL0     C32183   9.702   7.315   5.528 -0.2201  0.7882 -0.6485
  980MOL0     C32184   9.837   7.320   5.531  0.1857 -0.1731 -0.0708
  980MOL0     C32185   9.922   7.294   5.654  0.5002  0.1746  0.1599
  980MOL0     C32186  10.001   7.425   5.681 -0.2198 -0.1610  0.9372
  980MOL0     C32187  10.054   7.422   5.822 -0.2815  0.2437  0.1632
  980MOL0     C32188  10.130   7.538   5.876 -0.3917  0.4104  0.4742
  980MOL0     O32189  10.040   7.648   5.872  0.7170 -0.4869  0.0272
  980MOL0     C32190  10.077   7.763   5.950 -0.0880  0.3969  0.5836
  980MOL0     C32191   9.982   7.856   5.995 -0.2297 -0.1047 -0.2620
  980MOL0     C32192  10.010   7.984   6.046 -0.1777  0.5894 -0.2253
  980MOL0     C32193  10.141   8.029   6.044  0.2506 -1.0952  0.3091
  980MOL0     C32194  10.174   8.164   6.099 -0.2929 -0.0559  0.0388
  980MOL0     O32195  10.085   8.236   6.169  0.5339 -0.4660 -0.0630
  980MOL0     C32196  10.092   8.370   6.205  0.5254  0.2329  0.4552
  980MOL0     C32197  10.197   8.454   6.171  0.1919 -0.4129  0.5727
  980MOL0     C32198  10.172   8.587   6.198  0.9371  0.5003 -0.2451
  980MOL0     C32199  10.049   8.641   6.239  0.1513 -0.7539 -0.2191
  980MOL0     O32200  10.027   8.778   6.226 -0.0886 -0.7578 -0.1713
  980MOL0     C32201   9.930   8.835   6.129 -0.1001 -0.2877 -0.6255
  980MOL0     C32202   9.937   8.989   6.132  0.1948 -0.4680 -0.1805
  980MOL0     C32203   9.896   9.058   6.254 -1.2826 -0.5557  0.1780
  980MOL0     C32204   9.969   9.193   6.272  0.0949 -0.6030 -0.5950
  980MOL0     C32205   9.923   9.300   6.169 -0.0019 -0.5960 -0.1059
  980MOL0     C32206  10.004   9.438   6.184  0.9705 -0.1291 -0.0569
  980MOL0     C32207   9.942   9.549   6.090  0.0811  0.0766  0.2530
  980MOL0     C32208  10.016   9.687   6.097  0.9188  1.3688 -0.3211
  980MOL0    Cl32209  10.161   9.679   6.003 -0.0701  0.3481 -0.4040
  980MOL0     C32210   9.945   8.557   6.270  0.6305  0.3799 -0.0134
  980MOL0     C32211   9.976   8.417   6.261 -0.1089  0.5772 -0.2337
  980MOL0     O32212  10.292   8.198   6.084 -0.2381 -0.3259 -0.1793
  980MOL0     C32213  10.234   7.944   5.990 -0.0204  0.8610 -0.2130
  980MOL0     C32214  10.206   7.814   5.938  0.6072  0.7217  0.0826
  980MOL0     N32215   9.893   7.358   5.407  0.4126  1.2354 -0.1716
  980MOL0     N32216   9.798   7.362   5.328 -0.0828  0.0619  0.0957
  980MOL0     C32217   8.474   6.993   5.139  0.6144  0.0273  0.2218
  980MOL0     C32218   8.406   7.037   5.030  0.5530 -0.1052 -0.8198
  980MOL0     C32219   8.230   7.313   4.716 -0.2621 -0.0871  0.1646
  980MOL0     C32220   8.140   7.407   4.768 -0.1434 -0.4867 -0.2573
  980MOL0     C32221   8.042   7.476   4.688  0.6136 -0.3327 -0.2456
  980MOL0     C32222   8.035   7.441   4.553  0.2878  0.1179 -0.4413
  980MOL0     O32223   7.943   7.498   4.474 -0.6543  0.0370 -0.4143
  980MOL0     C32224   7.806   7.458   4.507 -0.2000  0.3846  0.5742
  980MOL0     C32225   7.763   7.310   4.514 -1.2089 -0.1323  0.0286
  980MOL0     C32226   7.608   7.287   4.533 -0.4148 -0.6030 -0.2893
  980MOL0     C32227   7.572   7.162   4.615  0.1171  0.6823 -1.3086
  980MOL0     C32228   7.589   7.040   4.540 -0.8513  0.4856  0.0410
  980MOL0     C32229   7.606   6.934   4.478 -0.4548  0.0014  0.1136
  980MOL0     C32230   8.119   7.337   4.500 -0.5266  0.1784 -0.2390
  980MOL0     C32231   8.214   7.268   4.583  0.5135 -0.3449  0.1997
  980MOL0     C32232   8.298   7.167   4.515 -0.0468 -0.6236 -0.7526
  980MOL0     H32233   8.398   7.366   5.106  3.1508 -0.6229  2.3674
  980MOL0     H32234   8.535   7.271   5.302 -0.4270  1.3168 -0.8036
  980MOL0     H32235   8.773   6.885   5.315  0.1686 -0.0255 -0.9390
  980MOL0     H32236   8.750   6.989   5.183  4.1505  0.7072  0.5516
  980MOL0     H32237   8.830   7.082   5.467 -2.2560  0.1738 -1.2144
  980MOL0     H32238   8.828   7.184   5.327 -0.1590 -1.1473 -1.6489
  980MOL0     H32239   9.004   6.988   5.242  2.8694 -0.0271  0.3084
  980MOL0     H32240   9.031   6.977   5.415 -0.1683 -1.5265 -0.8597
  980MOL0     H32241   9.055   7.235   5.255  0.2579 -1.0324 -0.8341
  980MOL0     H32242   9.050   7.236   5.425 -0.5571  1.2429 -1.1924
  980MOL0     H32243   9.234   7.082   5.455 -0.0951 -2.2068 -0.9753
  980MOL0     H32244   9.251   7.066   5.283  0.2289 -3.3513  2.5236
  980MOL0     H32245   9.295   7.326   5.262 -0.5097  3.3502  1.9454
  980MOL0     H32246   9.316   7.325   5.432  1.6167 -2.2835  0.9120
  980MOL0     H32247   9.474   7.164   5.240 -3.0951 -0.5781  0.0997
  980MOL0     H32248   9.495   7.154   5.418  0.7521 -2.1139 -2.0476
  980MOL0     H32249   9.570   7.352   5.217 -0.1747 -2.6346 -0.5562
  980MOL0     H32250   9.506   7.431   5.352  0.8136  0.8363 -0.0913
  980MOL0     H32251   9.633   7.286   5.606  1.0675  0.5357  0.4425
  980MOL0     H32252   9.863   7.270   5.743 -1.9009 -1.1446 -1.6854
  980MOL0     H32253   9.988   7.208   5.641  1.3705  0.5853  1.4986
  980MOL0     H32254  10.085   7.418   5.612 -2.6868 -1.1760 -2.2137
  980MOL0     H32255   9.942   7.514   5.658  0.1328 -0.1234  0.1525
  980MOL0     H32256  10.117   7.334   5.836 -2.4426 -0.9920  3.4382
  980MOL0     H32257   9.966   7.420   5.888 -1.1423  2.0791 -0.8378
  980MOL0     H32258  10.219   7.559   5.817 -1.8388 -0.0461 -2.0312
  980MOL0     H32259  10.157   7.515   5.979  0.1654  2.0866  0.7429
  980MOL0     H32260   9.881   7.818   5.997 -1.5829  3.1983  1.5593
  980MOL0     H32261   9.921   8.041   6.068 -0.7898  0.2263 -1.6276
  980MOL0     H32262  10.298   8.429   6.142  1.8916  1.8727  3.8739
  980MOL0     H32263  10.244   8.664   6.175 -0.9057  3.0274  1.8907
  980MOL0     H32264   9.960   8.798   6.030 -0.5405 -2.2769 -0.0529
  980MOL0     H32265   9.833   8.786   6.140  0.1080 -1.1335 -2.2326
  980MOL0     H32266  10.045   9.001   6.122  0.5810 -2.5086  1.0122
  980MOL0     H32267   9.892   9.033   6.043  1.2332 -1.4138 -1.2123
  980MOL0     H32268   9.790   9.085   6.254 -1.4278 -1.1123 -0.2842
  980MOL0     H32269   9.921   8.994   6.338  3.8264  0.0793 -0.5358
  980MOL0     H32270  10.075   9.172   6.255  0.5123  0.0376  1.0436
  980MOL0     H32271   9.954   9.236   6.371 -0.8080 -1.0422 -0.5312
  980MOL0     H32272   9.818   9.321   6.189  0.6739  1.5892  1.5152
  980MOL0     H32273   9.921   9.269   6.064 -0.9435  0.9395 -0.5635
  980MOL0     H32274   9.996   9.457   6.292 -0.1402  0.2692 -0.1982
  980MOL0     H32275  10.110   9.431   6.158  1.3146  1.9975  0.5557
  980MOL0     H32276   9.836   9.549   6.116  0.7430 -2.2481  3.5180
  980MOL0     H32277   9.949   9.512   5.987  0.2253 -0.0508  0.3078
  980MOL0     H32278   9.945   9.759   6.054 -1.2239 -0.1840  0.4664
  980MOL0     H32279  10.039   9.718   6.199  0.6774  0.4723  0.0109
  980MOL0     H32280   9.846   8.592   6.295  1.4635  1.4226  2.0316
  980MOL0     H32281   9.899   8.342   6.279  0.8228 -0.8114 -1.6979
  980MOL0     H32282  10.340   7.966   5.982  0.6269 -1.9136 -0.3213
  980MOL0     H32283  10.280   7.743   5.901  0.9732  0.9272  0.4134
  980MOL0     H32284   8.488   6.887   5.157  1.1764 -0.0808 -0.8433
  980MOL0     H32285   8.358   6.972   4.957 -0.1468 -1.3427  0.6980
  980MOL0     H32286   8.164   7.439   4.869  1.1819  2.6725 -1.4468
  980MOL0     H32287   7.995   7.565   4.728  0.4001 -0.9508  0.9255
  980MOL0     H32288   7.743   7.516   4.439  0.8808  0.1179 -0.6811
  980MOL0     H32289   7.787   7.506   4.603  0.6671 -1.6596  1.8309
  980MOL0     H32290   7.816   7.254   4.592  0.1218  0.1043 -0.6755
  980MOL0     H32291   7.779   7.266   4.415 -3.4613  2.7940 -1.8317
  980MOL0     H32292   7.552   7.285   4.439 -0.5570  2.0006 -0.3452
  980MOL0     H32293   7.570   7.372   4.590 -0.3434 -1.6536  1.3763
  980MOL0     H32294   7.620   7.157   4.713  1.2932 -0.4031 -1.9179
  980MOL0     H32295   7.465   7.170   4.636 -0.7684 -4.8101 -2.0858
  980MOL0     H32296   7.641   6.847   4.427  2.0283  2.6146 -3.1104
  980MOL0     H32297   8.112   7.320   4.393 -2.3636  1.9994 -0.4605
  980MOL0     H32298   8.402   7.191   4.535  0.1671  0.5812 -2.9660
  980MOL0     H32299   8.278   7.065   4.548 -2.3853 -0.5094 -1.5747
  980MOL0     H32300   8.294   7.172   4.405  0.1538 -0.0307 -0.7377
  981MOL0     O32301   2.980   0.920   8.932  0.2581 -0.0950  0.2530
  981MOL0     C32302   3.076   0.969   8.998  0.7443 -1.0377  0.7535
  981MOL0     O32303   3.205   0.952   8.969  0.3244 -0.1219  0.5459
  981MOL0     C32304   3.242   0.887   8.854 -0.0148  0.1624  0.3841
  981MOL0     C32305   3.362   0.814   8.870  0.8902 -0.0905  0.3643
  981MOL0     C32306   3.413   0.751   8.749  0.1054 -0.1718  0.0919
  981MOL0     C32307   3.340   0.760   8.624  0.1175  0.0594 -0.2776
  981MOL0     O32308   3.397   0.718   8.504 -0.1182 -0.2342 -0.0610
  981MOL0     C32309   3.535   0.700   8.492  0.5569 -0.8086  0.6201
  981MOL0     C32310   3.588   0.721   8.343  0.4131 -0.3818 -0.2366
  981MOL0     C32311   3.623   0.592   8.274 -0.6190  0.5586 -0.7036
  981MOL0     C32312   3.768   0.558   8.263  0.1863 -0.3395 -0.2246
  981MOL0     C32313   3.833   0.533   8.406 -0.3648  0.1056 -0.3243
  981MOL0     C32314   3.979   0.494   8.383 -0.4307 -0.4688 -0.3981
  981MOL0     C32315   4.065   0.494   8.515  0.9518  0.1037  0.2319
  981MOL0     C32316   4.186   0.414   8.492 -0.5250  0.2304  0.4693
  981MOL0     N32317   4.311   0.457   8.553  0.4997  0.5959  0.7906
  981MOL0     C32318   4.375   0.587   8.541 -0.0728 -0.4043  0.6246
  981MOL0     C32319   4.478   0.567   8.633 -0.4850 -0.3665  0.0443
  981MOL0     C32320   4.588   0.669   8.637 -0.7546 -0.0180 -0.4652
  981MOL0     C32321   4.562   0.792   8.730  0.2264  0.6877 -0.2857
  981MOL0     C32322   4.670   0.894   8.703  0.4736  0.2905  0.1340
  981MOL0     C32323   4.621   1.015   8.781 -0.6642 -0.6436 -0.0982
  981MOL0     O32324   4.706   1.129   8.753  0.2503 -1.3973  0.6678
  981MOL0     C32325   4.793   1.161   8.849 -0.3257  0.1631  0.3102
  981MOL0     C32326   4.832   1.291   8.863 -0.6565 -0.4637 -0.5226
  981MOL0     C32327   4.915   1.333   8.969 -0.1969 -0.3611  0.2694
  981MOL0     C32328   4.970   1.237   9.054  0.1429  0.0656 -0.2131
  981MOL0     C32329   5.043   1.287   9.175  0.0765 -0.2025 -0.1162
  981MOL0     O32330   5.093   1.188   9.255  0.5717  0.7178 -0.0155
  981MOL0     C32331   5.142   1.227   9.376  0.7768  0.8160 -0.0170
  981MOL0     C32332   5.057   1.294   9.469  0.3319 -0.2311 -0.3807
  981MOL0     C32333   5.118   1.326   9.590 -0.2711 -0.5791 -0.2044
  981MOL0     C32334   5.254   1.305   9.619 -0.0236  0.7383  0.9267
  981MOL0     O32335   5.306   1.359   9.735 -0.2937 -0.1545  0.2407
  981MOL0     C32336   5.406   1.292   9.804 -0.3171  0.8293  0.6877
  981MOL0     C32337   5.374   1.142   9.837  0.3209 -0.7251 -0.3060
  981MOL0     C32338   5.309   1.115   9.972  0.3431 -0.3999 -0.0995
  981MOL0     C32339   5.153   1.125   9.971 -0.3092 -0.1458  0.0567
  981MOL0     C32340   5.082   1.097  10.106 -0.4676 -0.3671  0.6638
  981MOL0     C32341   5.128   0.971  10.172  0.8436 -0.0757 -0.1647
  981MOL0     C32342   5.038   0.924  10.286  0.4159  0.0292 -0.3192
  981MOL0     C32343   4.902   0.874  10.248  0.2863 -0.0300 -0.4296
  981MOL0    Cl32344   4.838   0.776  10.387  0.0525  0.0722 -0.1633
  981MOL0     C32345   5.336   1.240   9.519 -0.1088  0.6523  0.1069
  981MOL0     C32346   5.272   1.195   9.405  0.6444 -0.1243  0.2662
  981MOL0     O32347   5.055   1.408   9.191  0.4612  0.2724  0.1128
  981MOL0     C32348   4.941   1.104   9.034 -0.1138 -0.0974  0.1247
  981MOL0     C32349   4.850   1.067   8.930 -0.3837 -1.1290  0.1872
  981MOL0     N32350   4.482   0.453   8.690  0.4631 -0.1703 -0.5169
  981MOL0     N32351   4.382   0.383   8.643  0.6426 -0.7006  0.2427
  981MOL0     C32352   3.216   0.829   8.620 -0.0094  0.3857 -0.0707
  981MOL0     C32353   3.179   0.896   8.733 -0.5602  0.4442 -0.8439
  981MOL0     C32354   3.046   1.043   9.122  0.9223 -0.5235 -0.4319
  981MOL0     C32355   3.126   1.161   9.160 -0.0194  0.5725 -0.4109
  981MOL0     C32356   3.095   1.227   9.281 -0.6903 -0.1818 -0.7162
  981MOL0     C32357   2.992   1.188   9.366 -0.3987 -0.1221 -0.6766
  981MOL0     O32358   2.956   1.249   9.485 -0.5938 -0.4607 -0.1823
  981MOL0     C32359   3.068   1.300   9.562  0.8590  0.3254 -0.2318
  981MOL0     C32360   3.017   1.335   9.700  1.7574  0.5183 -0.3512
  981MOL0     C32361   3.132   1.369   9.793 -0.2011 -0.4165 -0.9152
  981MOL0     C32362   3.095   1.477   9.892 -0.5600  0.5297 -1.3239
  981MOL0     C32363   3.218   1.516   9.962  0.2888  0.4739 -0.5557
  981MOL0     C32364   3.319   1.534  10.024 -0.2328 -0.1355  0.3510
  981MOL0     C32365   2.918   1.077   9.327  0.6979  0.0458  0.8056
  981MOL0     C32366   2.940   1.004   9.208 -0.0853 -0.3710  0.6562
  981MOL0     C32367   2.852   0.890   9.185  0.3458  0.3839  0.8484
  981MOL0     H32368   3.406   0.807   8.969 -1.9308 -0.5109  1.7023
  981MOL0     H32369   3.501   0.693   8.776  3.0450  4.8349  2.6911
  981MOL0     H32370   3.586   0.776   8.551  2.3727 -1.4212 -0.0929
  981MOL0     H32371   3.559   0.602   8.535  1.8983 -0.0762  1.6443
  981MOL0     H32372   3.672   0.791   8.335  0.8978 -0.8834  0.3940
  981MOL0     H32373   3.503   0.772   8.296 -0.1100 -0.7162  0.3377
  981MOL0     H32374   3.580   0.602   8.174  0.1636  2.7790 -0.8677
  981MOL0     H32375   3.574   0.508   8.325  1.7645  0.1386  1.0460
  981MOL0     H32376   3.774   0.461   8.213  1.3240 -0.9914  1.0914
  981MOL0     H32377   3.804   0.646   8.208 -1.6606  0.9465  0.5432
  981MOL0     H32378   3.827   0.621   8.470  0.1730  0.7804 -1.1814
  981MOL0     H32379   3.784   0.456   8.466  2.1618  0.6127  2.6143
  981MOL0     H32380   3.984   0.387   8.358 -0.3368 -1.1811  2.3452
  981MOL0     H32381   4.032   0.549   8.305  0.4836 -0.0944  0.4731
  981MOL0     H32382   4.003   0.462   8.600  0.4563  0.8444  0.1687
  981MOL0     H32383   4.098   0.594   8.547  0.0004  1.4859 -2.7274
  981MOL0     H32384   4.158   0.310   8.513 -1.4175  0.2006 -0.7775
  981MOL0     H32385   4.203   0.419   8.385  1.5524  3.0442  0.8090
  981MOL0     H32386   4.355   0.669   8.474 -2.1368 -2.6984 -1.7908
  981MOL0     H32387   4.685   0.627   8.666 -0.5910 -1.4394 -2.7949
  981MOL0     H32388   4.595   0.705   8.534  2.6052  1.9239  0.2743
  981MOL0     H32389   4.461   0.831   8.716 -0.0424  0.4358  0.8775
  981MOL0     H32390   4.573   0.750   8.830  2.1990  0.3185 -0.6144
  981MOL0     H32391   4.666   0.928   8.599  0.4244  0.3630  0.1594
  981MOL0     H32392   4.768   0.858   8.733  0.4377 -0.4134 -0.5551
  981MOL0     H32393   4.612   0.988   8.886 -0.9818  1.1082  0.3599
  981MOL0     H32394   4.523   1.050   8.745  0.3656  0.7316 -1.7470
  981MOL0     H32395   4.774   1.354   8.796 -2.1796 -0.6895  0.5351
  981MOL0     H32396   4.935   1.440   8.971  4.0007 -1.0054  2.9112
  981MOL0     H32397   4.951   1.317   9.463  0.4327  0.3418 -0.0739
  981MOL0     H32398   5.057   1.387   9.656  0.7342  0.3492 -0.1133
  981MOL0     H32399   5.498   1.295   9.746 -0.9618  0.3557 -0.3903
  981MOL0     H32400   5.416   1.345   9.899 -2.4499  0.1000  1.3821
  981MOL0     H32401   5.313   1.085   9.766 -0.3236  3.7071 -3.7270
  981MOL0     H32402   5.469   1.089   9.854 -0.8542 -1.9159  3.6380
  981MOL0     H32403   5.343   1.014   9.995 -1.9024 -0.3484  4.2735
  981MOL0     H32404   5.344   1.178  10.055  3.3857  1.3458 -2.4504
  981MOL0     H32405   5.110   1.064   9.890 -0.7837  1.5737 -1.0269
  981MOL0     H32406   5.121   1.220   9.929 -2.9342 -1.8466 -2.1421
  981MOL0     H32407   4.974   1.105  10.089 -0.2145  1.3631 -0.4784
  981MOL0     H32408   5.108   1.176  10.177 -0.0882  1.1017 -1.0230
  981MOL0     H32409   5.131   0.886  10.103  0.2127  0.2964 -0.6595
  981MOL0     H32410   5.230   0.988  10.209  0.4283  0.8615  0.5864
  981MOL0     H32411   5.029   1.002  10.363  0.8262  2.3209 -2.4521
  981MOL0     H32412   5.102   0.844  10.325 -3.6269 -1.7609  3.4464
  981MOL0     H32413   4.837   0.959  10.223  0.3884 -0.2556 -1.4892
  981MOL0     H32414   4.900   0.807  10.161  2.1863  0.6725 -1.0491
  981MOL0     H32415   5.443   1.225   9.529  0.5588  2.6665 -2.7320
  981MOL0     H32416   5.338   1.142   9.337  1.2458  0.8705  0.0488
  981MOL0     H32417   4.973   1.023   9.098 -2.3823 -1.7109 -0.6663
  981MOL0     H32418   4.832   0.960   8.922 -3.0428 -0.7298 -0.1148
  981MOL0     H32419   3.178   0.846   8.520 -0.6293  0.4182  0.1702
  981MOL0     H32420   3.090   0.955   8.714 -3.2217 -2.3527  1.8117
  981MOL0     H32421   3.208   1.194   9.098 -0.8753  1.8877 -0.8890
  981MOL0     H32422   3.151   1.319   9.301  2.6848 -1.9393 -1.2995
  981MOL0     H32423   3.094   1.399   9.524 -2.0333  2.4066  2.6305
  981MOL0     H32424   3.153   1.232   9.568 -1.8858 -3.4910 -0.4459
  981MOL0     H32425   2.952   1.259   9.743  0.2052  1.3271 -1.1743
  981MOL0     H32426   2.960   1.428   9.686  0.6105  0.1404  1.4498
  981MOL0     H32427   3.226   1.391   9.740  2.5129 -2.6277  2.5715
  981MOL0     H32428   3.156   1.278   9.848 -0.1718  0.3327  0.3298
  981MOL0     H32429   3.057   1.563   9.838  0.5727  1.6634 -0.3713
  981MOL0     H32430   3.009   1.441   9.951 -1.7916  1.0515 -2.7508
  981MOL0     H32431   3.408   1.555  10.080 -1.1553 -0.1024  1.8507
  981MOL0     H32432   2.854   1.028   9.400  0.6021 -2.6707 -0.9621
  981MOL0     H32433   2.795   0.926   9.099  1.8393  2.8617  0.7791
  981MOL0     H32434   2.906   0.798   9.160  0.2964  0.3560  0.8441
  981MOL0     H32435   2.779   0.877   9.265 -1.1574  2.0763 -0.1622
  982MOL0     O32436  10.157   6.555   2.196 -0.5962 -1.2591  0.3221
  982MOL0     C32437  10.079   6.639   2.145 -0.4536 -0.6270 -0.7771
  982MOL0     O32438  10.107   6.770   2.145  0.4188  0.3985  0.0007
  982MOL0     C32439  10.225   6.828   2.175 -0.5508 -0.0017 -0.7368
  982MOL0     C32440  10.262   6.819   2.306  0.7875 -0.3632  0.8603
  982MOL0     C32441  10.364   6.906   2.356 -0.8956 -0.2561 -0.2523
  982MOL0     C32442  10.433   6.985   2.260 -1.4940 -0.0923 -1.1871
  982MOL0     O32443  10.527   7.075   2.295 -0.3009  0.2184  0.8275
  982MOL0     C32444  10.488   7.178   2.379  0.1868 -0.2342  1.0607
  982MOL0     C32445  10.391   7.264   2.292  0.0520  0.3803 -0.2382
  982MOL0     C32446  10.302   7.374   2.361  0.7177  0.5612  0.2473
  982MOL0     C32447  10.385   7.488   2.430  0.0265  0.3099  0.7182
  982MOL0     C32448  10.300   7.586   2.507  0.0283 -0.3066  0.0021
  982MOL0     C32449  10.387   7.688   2.586 -0.0261  0.1027  0.3978
  982MOL0     C32450  10.289   7.767   2.674  0.2711 -0.5637  0.5161
  982MOL0     C32451  10.375   7.860   2.762  0.1901  0.0496 -0.2063
  982MOL0     N32452  10.462   7.797   2.857 -0.3508  0.4070  0.2948
  982MOL0     C32453  10.432   7.732   2.979 -0.4456 -0.3976  0.0098
  982MOL0     C32454  10.553   7.694   3.027  0.5661 -0.3433 -0.8682
  982MOL0     C32455  10.568   7.607   3.139 -0.0752  0.9420  0.6257
  982MOL0     C32456  10.590   7.463   3.094  0.2604 -0.2445 -0.0918
  982MOL0     C32457  10.606   7.377   3.219  0.1295 -0.5062  0.7012
  982MOL0     C32458  10.592   7.228   3.200  0.3870  0.3041 -0.0322
  982MOL0     O32459  10.661   7.196   3.078 -0.1843  0.1822  0.0041
  982MOL0     C32460  10.792   7.167   3.082  0.7393  0.0741  0.1562
  982MOL0     C32461  10.841   7.122   2.963 -0.2664 -0.4620  0.1693
  982MOL0     C32462  10.973   7.092   2.950 -0.7830  0.6789 -0.4965
  982MOL0     C32463  11.057   7.089   3.059 -0.2202 -0.9282 -0.6548
  982MOL0     C32464  11.210   7.060   3.049 -0.9443 -0.0037  0.2195
  982MOL0     O32465  11.279   7.048   3.164 -0.1098  0.3782  1.0136
  982MOL0     C32466  11.416   7.036   3.149 -0.5876  0.3080 -0.2825
  982MOL0     C32467  11.469   6.948   3.050 -0.3662  0.3045 -0.6498
  982MOL0     C32468  11.608   6.949   3.039  1.3985 -0.1828  0.9422
  982MOL0     C32469  11.693   7.030   3.111 -0.5339  0.2278 -0.9832
  982MOL0     O32470  11.828   7.018   3.100  0.4461 -0.2442  0.1374
  982MOL0     C32471  11.911   7.126   3.127  0.4423 -0.7205 -0.1078
  982MOL0     C32472  12.042   7.110   3.058 -0.1523 -1.0165  0.6109
  982MOL0     C32473  12.156   7.187   3.131  1.2081 -0.8378  0.1369
  982MOL0     C32474  12.302   7.153   3.092 -0.8537  0.4645 -0.6255
  982MOL0     C32475  12.322   7.143   2.938 -0.1902  0.1014  0.1285
  982MOL0     C32476  12.466   7.119   2.904 -0.1122 -0.7316  0.5033
  982MOL0     C32477  12.517   7.149   2.755  0.3459  0.1062 -0.3480
  982MOL0     C32478  12.667   7.115   2.733  1.1820  0.4366  0.3843
  982MOL0    Cl32479  12.764   7.181   2.855  0.1685  0.2586  0.3289
  982MOL0     C32480  11.637   7.118   3.210 -0.0552  0.5962  0.4494
  982MOL0     C32481  11.497   7.123   3.232 -0.3644  0.1807 -0.6890
  982MOL0     O32482  11.253   7.067   2.934 -0.2591 -0.1398 -0.5787
  982MOL0     C32483  11.006   7.137   3.183  0.2410 -0.1880 -1.0048
  982MOL0     C32484  10.874   7.170   3.195 -0.0654 -0.3666 -0.2262
  982MOL0     N32485  10.647   7.730   2.938 -0.7142 -0.0549  0.7995
  982MOL0     N32486  10.594   7.791   2.838 -0.5352 -0.3444 -0.2739
  982MOL0     C32487  10.401   6.979   2.126  1.2098  0.4317  0.0296
  982MOL0     C32488  10.295   6.899   2.083  0.2876  0.0047  0.4341
  982MOL0     C32489   9.963   6.583   2.074  0.8301 -0.7140 -0.4582
  982MOL0     C32490   9.902   6.663   1.973  0.9217 -0.3498 -0.0724
  982MOL0     C32491   9.801   6.609   1.896  0.2199  0.9235  0.4174
  982MOL0     C32492   9.762   6.472   1.904  0.3501  0.2166 -0.0565
  982MOL0     O32493   9.675   6.394   1.825 -0.1489  0.1513  0.1578
  982MOL0     C32494   9.673   6.436   1.691 -0.3079  0.7573 -0.2069
  982MOL0     C32495   9.601   6.325   1.618  0.1605 -0.1569 -0.7483
  982MOL0     C32496   9.451   6.336   1.633  0.4590  0.1627  0.1878
  982MOL0     C32497   9.370   6.229   1.562 -0.6018 -0.0274 -1.3309
  982MOL0     C32498   9.361   6.101   1.641  0.0784 -0.6424 -0.0537
  982MOL0     C32499   9.359   6.016   1.727  0.6661  0.6609 -0.0011
  982MOL0     C32500   9.817   6.402   2.008 -0.3881  0.8028 -0.5765
  982MOL0     C32501   9.913   6.454   2.098 -0.6307  0.5454 -0.6969
  982MOL0     C32502   9.930   6.379   2.226  0.2552 -0.4961 -0.4413
  982MOL0     H32503  10.201   6.768   2.380 -0.6150 -0.5290 -0.3522
  982MOL0     H32504  10.389   6.918   2.461  1.5739 -0.3998 -0.7503
  982MOL0     H32505  10.438   7.141   2.469 -0.9143 -0.3201  0.4228
  982MOL0     H32506  10.580   7.233   2.402 -0.7828  1.3991  1.2325
  982MOL0     H32507  10.324   7.191   2.246 -1.0931  1.4948 -0.4230
  982MOL0     H32508  10.447   7.304   2.207 -3.5902  0.1225 -3.0249
  982MOL0     H32509  10.225   7.334   2.427  0.5131  0.7166  0.1067
  982MOL0     H32510  10.245   7.431   2.286  2.2093  2.1428  0.2464
  982MOL0     H32511  10.454   7.441   2.500 -0.4655  0.2694  1.1885
  982MOL0     H32512  10.432   7.543   2.347  1.4700 -0.5460  0.9407
  982MOL0     H32513  10.245   7.636   2.427  1.9942 -1.9818 -2.6037
  982MOL0     H32514  10.240   7.529   2.578  0.2942  0.3685  0.7900
  982MOL0     H32515  10.468   7.638   2.641  0.1864  0.7791  0.7090
  982MOL0     H32516  10.436   7.756   2.515 -0.0280 -2.5777 -2.3491
  982MOL0     H32517  10.212   7.714   2.729  0.4959 -2.5374 -0.9663
  982MOL0     H32518  10.236   7.811   2.589 -0.4751 -1.9680  0.2264
  982MOL0     H32519  10.436   7.912   2.688  1.5407 -0.2023  0.6861
  982MOL0     H32520  10.318   7.939   2.811  2.6838 -0.1934  3.5142
  982MOL0     H32521  10.328   7.713   3.002 -1.0255  0.8561 -1.3965
  982MOL0     H32522  10.651   7.634   3.205  0.9844  0.2330 -0.3686
  982MOL0     H32523  10.480   7.608   3.202  1.1536  1.6575  2.4073
  982MOL0     H32524  10.504   7.420   3.042  1.2951 -3.5454  0.7151
  982MOL0     H32525  10.680   7.460   3.031  0.8671 -4.0883  0.6962
  982MOL0     H32526  10.521   7.400   3.283  0.2222 -3.4196  2.0441
  982MOL0     H32527  10.708   7.396   3.252  0.1412 -1.1175  1.0316
  982MOL0     H32528  10.487   7.197   3.195 -0.8999  4.0025  0.5091
  982MOL0     H32529  10.621   7.181   3.294  0.4111  2.3708  1.0464
  982MOL0     H32530  10.773   7.121   2.878  0.4123 -1.3503 -0.3815
  982MOL0     H32531  11.006   7.069   2.849  0.3168 -2.0148  0.3813
  982MOL0     H32532  11.400   6.879   3.001 -0.4041 -0.7868  0.8661
  982MOL0     H32533  11.651   6.867   2.983  0.4328 -0.0671 -0.0011
  982MOL0     H32534  11.856   7.214   3.091  1.9182  0.4080  0.3320
  982MOL0     H32535  11.920   7.126   3.236  0.9043  1.5165 -0.0905
  982MOL0     H32536  12.074   7.005   3.056  0.3228 -0.8729  0.4163
  982MOL0     H32537  12.038   7.132   2.951  0.2500 -1.1302  0.5692
  982MOL0     H32538  12.150   7.295   3.121  0.3443 -0.8751  0.1992
  982MOL0     H32539  12.144   7.168   3.238  0.7650 -1.3553  0.0004
  982MOL0     H32540  12.323   7.062   3.149  0.0877  1.7922  1.2759
  982MOL0     H32541  12.367   7.229   3.136 -1.0129  2.0311 -2.9721
  982MOL0     H32542  12.290   7.237   2.892  0.7717  0.3435 -0.0640
  982MOL0     H32543  12.263   7.064   2.891 -1.5282  1.0949  0.0840
  982MOL0     H32544  12.515   7.184   2.977  0.2250  3.0006 -2.7098
  982MOL0     H32545  12.485   7.014   2.931 -1.5586 -0.9520  0.7505
  982MOL0     H32546  12.490   7.253   2.734 -1.3960 -0.8469 -3.3804
  982MOL0     H32547  12.452   7.085   2.695 -2.0669  0.6772  1.4828
  982MOL0     H32548  12.663   7.006   2.739  0.6489  0.4176 -0.1619
  982MOL0     H32549  12.703   7.139   2.632 -1.4712 -0.7046 -0.9450
  982MOL0     H32550  11.699   7.183   3.271 -1.7425  0.8640  1.9559
  982MOL0     H32551  11.456   7.184   3.312 -1.1618 -0.0941 -0.8808
  982MOL0     H32552  11.068   7.136   3.272  0.6326  3.2763 -1.0830
  982MOL0     H32553  10.835   7.209   3.289  0.1985  1.4749 -0.8289
  982MOL0     H32554  10.457   7.041   2.056  1.0040 -1.5977 -2.0644
  982MOL0     H32555  10.251   6.908   1.984  0.5258  0.0171  0.3290
  982MOL0     H32556   9.936   6.766   1.967  2.0512 -0.7077 -0.0177
  982MOL0     H32557   9.770   6.684   1.824 -3.6814 -2.2063 -1.6040
  982MOL0     H32558   9.775   6.446   1.653  0.5494  0.0364  1.7656
  982MOL0     H32559   9.638   6.538   1.704  0.1227  0.8217  0.5307
  982MOL0     H32560   9.632   6.224   1.647  0.5379 -1.2066 -4.2899
  982MOL0     H32561   9.631   6.333   1.513  0.7327 -1.8534 -0.7499
  982MOL0     H32562   9.426   6.439   1.605  0.7865  0.3177  0.4500
  982MOL0     H32563   9.427   6.319   1.739 -3.2786 -0.1397 -0.5473
  982MOL0     H32564   9.274   6.273   1.534 -0.3173  1.8555  0.4162
  982MOL0     H32565   9.424   6.209   1.469  4.1543  2.6305  0.4795
  982MOL0     H32566   9.373   5.940   1.802  1.8357  0.3243 -0.5310
  982MOL0     H32567   9.779   6.301   2.023  1.5835  0.2910  1.8409
  982MOL0     H32568   9.847   6.312   2.250  1.3304 -0.5254  4.0681
  982MOL0     H32569  10.016   6.312   2.218  0.7850  0.1639 -0.4235
  982MOL0     H32570   9.950   6.444   2.312 -1.2783  0.7401 -0.9624
  983MOL0     O32571   3.793   7.690   1.061 -0.5203 -0.9855 -0.0840
  983MOL0     C32572   3.731   7.666   1.163 -0.1666  0.0292  0.6272
  983MOL0     O32573   3.761   7.710   1.289  0.1102  0.4061 -0.1345
  983MOL0     C32574   3.868   7.800   1.305  0.5836  0.6372 -0.2477
  983MOL0     C32575   3.952   7.783   1.412 -0.1896  0.4078  0.0829
  983MOL0     C32576   4.061   7.864   1.441  0.9134  0.1014 -0.6536
  983MOL0     C32577   4.074   7.978   1.373  0.4720 -0.3161 -0.3437
  983MOL0     O32578   4.168   8.062   1.430  0.1310  0.7198 -0.1739
  983MOL0     C32579   4.221   8.165   1.349 -0.2324  0.0753 -0.5646
  983MOL0     C32580   4.298   8.280   1.415  1.5804  1.2212 -0.0545
  983MOL0     C32581   4.361   8.369   1.311 -0.0421  0.4381  0.4472
  983MOL0     C32582   4.456   8.465   1.379 -0.6480  0.0253 -0.1934
  983MOL0     C32583   4.485   8.598   1.307  0.4287 -0.1714 -0.3175
  983MOL0     C32584   4.520   8.589   1.160  0.1627  0.0741  0.3839
  983MOL0     C32585   4.648   8.511   1.132  0.3159  0.0759  0.5722
  983MOL0     C32586   4.688   8.533   0.982 -0.0318 -0.9404 -0.2330
  983MOL0     N32587   4.801   8.449   0.959 -0.3735 -0.1114  0.3311
  983MOL0     C32588   4.824   8.343   0.874  0.4518 -0.3756 -0.3660
  983MOL0     C32589   4.946   8.297   0.908 -0.2511  0.1193  0.5868
  983MOL0     C32590   4.990   8.166   0.860  0.3612  0.4470 -0.2772
  983MOL0     C32591   5.073   8.092   0.961 -0.2237  0.4185 -0.9453
  983MOL0     C32592   5.133   7.975   0.890  0.0732  1.2116  0.6877
  983MOL0     C32593   5.204   7.893   1.001  0.5854 -0.9028  0.1819
  983MOL0     O32594   5.314   7.823   0.940  0.1113 -0.4241  0.0762
  983MOL0     C32595   5.294   7.694   0.887  0.1232  0.1520 -0.2474
  983MOL0     C32596   5.404   7.643   0.816 -0.4808  0.9000 -0.3797
  983MOL0     C32597   5.390   7.518   0.744 -1.5005 -0.7581 -0.1968
  983MOL0     C32598   5.277   7.434   0.756  0.0279  0.6705 -0.2148
  983MOL0     C32599   5.259   7.307   0.684  0.0265  0.0804  0.0258
  983MOL0     O32600   5.340   7.278   0.589  0.2017  0.1322 -0.0764
  983MOL0     C32601   5.333   7.172   0.501  0.7763 -0.0179 -0.2594
  983MOL0     C32602   5.223   7.088   0.480 -0.9117 -0.0393  0.6105
  983MOL0     C32603   5.232   6.978   0.399 -0.1736  0.6698 -1.2409
  983MOL0     C32604   5.349   6.943   0.329 -0.2095 -0.0278  0.1595
  983MOL0     O32605   5.372   6.836   0.245  0.0567  0.4150 -0.2683
  983MOL0     C32606   5.274   6.736   0.261  0.6431  0.4729  0.6603
  983MOL0     C32607   5.310   6.603   0.198 -0.2164 -0.0073 -0.5901
  983MOL0     C32608   5.211   6.495   0.231 -0.3386  0.5198  1.2933
  983MOL0     C32609   5.057   6.526   0.223  1.5124 -0.5050  0.2844
  983MOL0     C32610   4.980   6.402   0.167  0.4337  0.4655 -0.2061
  983MOL0     C32611   4.984   6.277   0.258 -0.4208  0.0660  0.4018
  983MOL0     C32612   4.913   6.156   0.196 -0.2419 -0.0341  0.8724
  983MOL0     C32613   4.769   6.167   0.154 -0.8556 -0.5192 -0.3041
  983MOL0    Cl32614   4.662   6.234   0.278  0.2497  0.0738  0.2638
  983MOL0     C32615   5.458   7.027   0.352 -0.1274  0.2563 -0.8353
  983MOL0     C32616   5.453   7.142   0.432  0.2319 -0.1184  0.0735
  983MOL0     O32617   5.175   7.225   0.728 -0.3648 -0.0712  0.2207
  983MOL0     C32618   5.170   7.494   0.832  1.3201 -0.2864  0.0584
  983MOL0     C32619   5.180   7.616   0.893  0.0275  0.3147  0.2725
  983MOL0     N32620   4.997   8.375   1.005 -0.3322  0.2851 -0.8667
  983MOL0     N32621   4.915   8.470   1.032  0.8816  0.2037  1.3792
  983MOL0     C32622   3.987   8.001   1.273 -0.6456 -0.9968  0.2820
  983MOL0     C32623   3.885   7.915   1.236 -0.1774  0.2867 -0.2710
  983MOL0     C32624   3.608   7.580   1.165 -0.3757  0.6655 -0.1947
  983MOL0     C32625   3.552   7.534   1.293 -0.7642 -0.6948  0.1701
  983MOL0     C32626   3.442   7.458   1.315  0.3552 -0.5480  1.4854
  983MOL0     C32627   3.381   7.401   1.198  0.0731  0.7614 -0.2553
  983MOL0     O32628   3.289   7.296   1.201  0.4708 -0.3959 -0.2708
  983MOL0     C32629   3.240   7.243   1.331 -0.5024 -0.8909  0.4420
  983MOL0     C32630   3.148   7.118   1.324  0.0368 -0.0632 -0.8940
  983MOL0     C32631   3.091   7.060   1.453 -0.4308  0.0793 -0.7770
  983MOL0     C32632   2.984   7.148   1.518 -0.2760 -0.9428 -0.3817
  983MOL0     C32633   2.860   7.141   1.434 -0.8722  0.0293 -0.0402
  983MOL0     C32634   2.758   7.141   1.375  0.7100  0.1644 -0.0698
  983MOL0     C32635   3.435   7.430   1.073  0.5293  0.1724  0.4236
  983MOL0     C32636   3.541   7.516   1.050  0.2912 -0.9213 -0.5900
  983MOL0     C32637   3.578   7.561   0.910  0.8712  0.1847 -1.1848
  983MOL0     H32638   3.932   7.702   1.481 -0.2947  0.3962  0.0389
  983MOL0     H32639   4.123   7.836   1.525  0.8616  0.0736 -0.6243
  983MOL0     H32640   4.288   8.120   1.276 -0.4414  0.7685 -1.1968
  983MOL0     H32641   4.142   8.212   1.290 -1.2485  0.5459  1.0817
  983MOL0     H32642   4.382   8.249   1.477  2.4520 -0.2574 -1.9010
  983MOL0     H32643   4.227   8.343   1.470 -1.9575 -0.5332 -2.2074
  983MOL0     H32644   4.283   8.430   1.264 -0.6373  2.4226  3.6910
  983MOL0     H32645   4.410   8.313   1.231  0.4657  0.9246  0.4126
  983MOL0     H32646   4.417   8.488   1.479  0.2678 -3.5077  1.1185
  983MOL0     H32647   4.550   8.410   1.382 -0.9311 -0.4812 -0.4514
  983MOL0     H32648   4.388   8.649   1.312  0.0306 -1.0265  1.8191
  983MOL0     H32649   4.553   8.658   1.367  0.8961 -1.7276  0.7622
  983MOL0     H32650   4.432   8.539   1.118  0.2460  1.0871 -1.0632
  983MOL0     H32651   4.524   8.686   1.109 -2.5742 -0.6852 -1.4645
  983MOL0     H32652   4.634   8.404   1.146 -1.6970 -0.0092 -1.4651
  983MOL0     H32653   4.728   8.543   1.199  2.0990 -1.5197 -0.7038
  983MOL0     H32654   4.608   8.521   0.909 -2.7706  4.1841  1.4658
  983MOL0     H32655   4.707   8.640   0.972 -1.7968 -0.6107 -0.4045
  983MOL0     H32656   4.748   8.301   0.808  0.5958  0.4920 -1.0980
  983MOL0     H32657   4.903   8.105   0.835 -0.7478  2.0293 -0.4630
  983MOL0     H32658   5.054   8.174   0.772 -0.0120 -0.3107 -0.6209
  983MOL0     H32659   5.145   8.152   1.019 -0.0301  1.2608 -2.0236
  983MOL0     H32660   5.015   8.048   1.043  3.8123  1.7451  3.1006
  983MOL0     H32661   5.208   8.013   0.819 -1.5165  0.6778 -1.3606
  983MOL0     H32662   5.074   7.904   0.832  0.4407  1.3898  0.0836
  983MOL0     H32663   5.137   7.821   1.049 -1.5163  0.6944 -0.1895
  983MOL0     H32664   5.246   7.962   1.075  1.0008 -1.6371  0.6347
  983MOL0     H32665   5.499   7.693   0.800 -0.0139  0.6436  1.4242
  983MOL0     H32666   5.468   7.484   0.676 -2.8094 -3.2352 -0.5907
  983MOL0     H32667   5.126   7.103   0.526 -0.4109 -1.7570  2.3180
  983MOL0     H32668   5.143   6.918   0.383  0.6207 -0.4548 -1.5226
  983MOL0     H32669   5.261   6.712   0.367 -2.9543  1.6739  0.6218
  983MOL0     H32670   5.179   6.771   0.219  1.0744  3.8718  2.2332
  983MOL0     H32671   5.324   6.615   0.090  0.3237  0.3645 -0.4844
  983MOL0     H32672   5.407   6.567   0.235  0.0119 -2.0548 -2.9746
  983MOL0     H32673   5.234   6.412   0.163 -3.0907  1.1431 -0.5859
  983MOL0     H32674   5.232   6.455   0.331  0.9315  1.1639  1.2964
  983MOL0     H32675   5.043   6.606   0.150 -0.4582 -0.5559  0.5599
  983MOL0     H32676   5.021   6.557   0.321 -2.7838 -0.2310 -1.1673
  983MOL0     H32677   5.032   6.383   0.072  3.1428  1.5802  0.9535
  983MOL0     H32678   4.875   6.431   0.154  0.3076  0.0113 -0.2009
  983MOL0     H32679   5.090   6.252   0.271 -0.0296  0.6058 -1.4978
  983MOL0     H32680   4.947   6.306   0.357 -0.9678  0.0614  0.2017
  983MOL0     H32681   4.914   6.080   0.274  0.9560 -0.9552  0.0004
  983MOL0     H32682   4.963   6.116   0.107 -0.8144 -2.5404  1.5965
  983MOL0     H32683   4.768   6.232   0.066 -1.6462  0.9785  0.7701
  983MOL0     H32684   4.728   6.069   0.128  0.0384 -0.9625 -0.0606
  983MOL0     H32685   5.542   7.004   0.288  0.5288  0.6326 -0.1293
  983MOL0     H32686   5.539   7.209   0.434 -0.4208  0.7440 -0.0673
  983MOL0     H32687   5.085   7.431   0.856  2.1320 -0.5642  2.4946
  983MOL0     H32688   5.096   7.658   0.946 -0.2904  0.7117 -0.5279
  983MOL0     H32689   3.994   8.093   1.215  1.7133 -0.3057  1.5392
  983MOL0     H32690   3.832   7.916   1.141 -1.9830 -0.0604  0.6729
  983MOL0     H32691   3.600   7.572   1.383 -1.0601 -2.1521  0.9561
  983MOL0     H32692   3.414   7.426   1.415  2.3457 -0.4442  2.1222
  983MOL0     H32693   3.189   7.325   1.383 -1.3518 -0.7423 -0.5792
  983MOL0     H32694   3.327   7.226   1.395 -1.2007  2.9235  2.6747
  983MOL0     H32695   3.209   7.034   1.290  1.8278 -0.7181  3.2613
  983MOL0     H32696   3.068   7.130   1.251 -1.5898 -1.6713  0.5074
  983MOL0     H32697   3.181   7.054   1.514 -1.0873  1.1810  0.3660
  983MOL0     H32698   3.055   6.964   1.417  0.4025  0.5613 -3.0627
  983MOL0     H32699   2.955   7.123   1.620  1.3241 -2.2895 -0.2218
  983MOL0     H32700   3.036   7.244   1.516 -0.5392 -0.7204 -3.8167
  983MOL0     H32701   2.659   7.146   1.335  0.5195 -0.9757  0.2009
  983MOL0     H32702   3.392   7.385   0.985 -0.7772 -0.9304  1.5821
  983MOL0     H32703   3.679   7.526   0.885  1.1120 -0.3098  0.3728
  983MOL0     H32704   3.510   7.527   0.831  0.0480  3.8469 -2.2761
  983MOL0     H32705   3.584   7.670   0.900 -0.3028  0.2024 -1.8931
  984MOL0     O32706   7.799   3.079   5.176  0.0015 -0.0038  0.1621
  984MOL0     C32707   7.809   3.191   5.122  0.5205  0.5153 -0.6304
  984MOL0     O32708   7.724   3.304   5.143  0.8852  0.3610  0.0965
  984MOL0     C32709   7.592   3.289   5.190 -0.6528 -0.8204  0.1222
  984MOL0     C32710   7.490   3.310   5.108 -0.3477  0.1858  0.0913
  984MOL0     C32711   7.352   3.280   5.152 -0.9421 -0.2564  0.2166
  984MOL0     C32712   7.328   3.263   5.281  0.8811 -0.6828 -0.2442
  984MOL0     O32713   7.196   3.244   5.312  0.5870 -0.0979 -0.3083
  984MOL0     C32714   7.149   3.215   5.450 -1.1598 -0.3771  1.2701
  984MOL0     C32715   6.996   3.200   5.451  0.7778 -0.4275  0.4852
  984MOL0     C32716   6.929   3.128   5.552 -0.4068  0.9494  0.9509
  984MOL0     C32717   6.776   3.115   5.532 -0.4497 -0.1636 -0.3055
  984MOL0     C32718   6.716   3.021   5.636  0.3307 -0.1216 -0.2582
  984MOL0     C32719   6.761   2.867   5.608 -0.5624 -0.5711  0.0297
  984MOL0     C32720   6.669   2.770   5.675  0.0846  1.5101  0.2022
  984MOL0     C32721   6.528   2.751   5.614  0.1449  0.6428  0.0402
  984MOL0     N32722   6.432   2.676   5.705  0.5728  0.0109 -0.0025
  984MOL0     C32723   6.393   2.689   5.841 -0.7064 -0.8639  0.3483
  984MOL0     C32724   6.292   2.597   5.863 -0.8146  0.2229  0.0867
  984MOL0     C32725   6.210   2.596   5.987  0.2500 -0.7610 -0.7159
  984MOL0     C32726   6.079   2.678   5.979  0.0131 -0.2254  0.6190
  984MOL0     C32727   6.007   2.667   5.842  0.0436  0.1952  0.6194
  984MOL0     C32728   5.971   2.522   5.804 -0.2375  0.3332  0.0744
  984MOL0     O32729   5.869   2.474   5.899 -0.2453 -0.4502  0.3179
  984MOL0     C32730   5.852   2.342   5.898  0.8535 -1.0070 -0.7384
  984MOL0     C32731   5.907   2.246   5.815 -0.6397  0.9158  0.2342
  984MOL0     C32732   5.901   2.103   5.838  0.1377  0.1295 -0.0398
  984MOL0     C32733   5.817   2.053   5.939  0.6328  0.1931  0.2265
  984MOL0     C32734   5.780   1.910   5.956 -1.5881 -0.2385  0.1298
  984MOL0     O32735   5.812   1.820   5.851  0.5064 -0.4072 -0.3220
  984MOL0     C32736   5.766   1.693   5.856 -0.8217  0.1180 -0.3309
  984MOL0     C32737   5.833   1.597   5.928 -0.1062  0.2391  0.1884
  984MOL0     C32738   5.784   1.468   5.946 -0.1311  0.1958  0.5796
  984MOL0     C32739   5.680   1.431   5.863  0.1407  0.3217 -0.4008
  984MOL0     O32740   5.633   1.304   5.870 -0.2565 -0.6126  0.6257
  984MOL0     C32741   5.505   1.270   5.920 -0.4134 -0.2041  0.1299
  984MOL0     C32742   5.487   1.303   6.064  0.0538  0.0444  0.4904
  984MOL0     C32743   5.573   1.223   6.160 -0.3401  0.4667  0.3501
  984MOL0     C32744   5.582   1.076   6.132 -0.6013  1.1558 -0.5545
  984MOL0     C32745   5.448   0.997   6.147  0.1547  0.3247 -0.4323
  984MOL0     C32746   5.457   0.846   6.177 -0.2417 -0.3588  0.1447
  984MOL0     C32747   5.477   0.821   6.318  0.5357 -0.0472 -0.9480
  984MOL0     C32748   5.494   0.665   6.362  0.0546 -1.1591  0.4217
  984MOL0    Cl32749   5.520   0.656   6.536 -0.3977 -0.2039 -0.0944
  984MOL0     C32750   5.608   1.524   5.783 -0.3688 -0.4479  0.8562
  984MOL0     C32751   5.651   1.657   5.785  0.6273  0.6789 -0.1373
  984MOL0     O32752   5.705   1.872   6.042  0.5947 -0.4914 -0.4392
  984MOL0     C32753   5.755   2.146   6.023  1.2868  0.7993 -0.2077
  984MOL0     C32754   5.769   2.285   6.004 -0.4317  0.9916  0.3384
  984MOL0     N32755   6.282   2.523   5.743 -0.0844 -0.0863 -0.7549
  984MOL0     N32756   6.363   2.563   5.655 -0.2622 -0.3334 -0.0162
  984MOL0     C32757   7.435   3.273   5.373  0.3701  0.2982  0.0220
  984MOL0     C32758   7.560   3.277   5.325 -0.4158  0.2077 -0.0483
  984MOL0     C32759   7.919   3.225   5.036  0.2587  0.5239 -0.3951
  984MOL0     C32760   7.947   3.127   4.942  0.6187 -0.0929  0.9645
  984MOL0     C32761   8.054   3.138   4.854  0.2043 -0.4705 -0.1450
  984MOL0     C32762   8.138   3.244   4.869  0.2447 -0.6939  0.9706
  984MOL0     O32763   8.243   3.245   4.780 -0.3736  0.4660  0.1068
  984MOL0     C32764   8.344   3.352   4.784 -0.6841 -0.3032 -0.7245
  984MOL0     C32765   8.330   3.487   4.713 -0.3154  0.1427  0.2393
  984MOL0     C32766   8.297   3.454   4.563  0.3759 -0.5246 -0.2080
  984MOL0     C32767   8.419   3.420   4.467 -0.0770 -0.3186  0.0465
  984MOL0     C32768   8.416   3.506   4.345  0.5373 -0.8126 -1.4289
  984MOL0     C32769   8.413   3.574   4.241  0.3988  0.6847 -0.4256
  984MOL0     C32770   8.113   3.348   4.956  0.0572 -0.8144 -1.6928
  984MOL0     C32771   7.997   3.335   5.043  0.3613 -1.0468  0.0981
  984MOL0     C32772   7.972   3.446   5.153 -0.0138  0.1108  0.8840
  984MOL0     H32773   7.517   3.333   5.005 -2.6590 -2.4170 -1.2049
  984MOL0     H32774   7.276   3.300   5.078 -0.6927 -0.1411 -0.0106
  984MOL0     H32775   7.195   3.119   5.477 -1.1807 -0.0955  2.3705
  984MOL0     H32776   7.176   3.297   5.517 -1.4082 -0.9315  2.0755
  984MOL0     H32777   6.966   3.159   5.354 -0.4524 -1.1558  1.1414
  984MOL0     H32778   6.953   3.300   5.445 -2.0004 -1.6172 -3.2914
  984MOL0     H32779   6.946   3.162   5.654 -0.9206  0.1057  1.3287
  984MOL0     H32780   6.972   3.029   5.539  0.8481  1.6849 -0.9463
  984MOL0     H32781   6.736   3.215   5.554  0.8016 -0.1084  2.0607
  984MOL0     H32782   6.751   3.073   5.434 -1.6142 -0.4557  0.1063
  984MOL0     H32783   6.763   3.044   5.733 -2.6252 -0.5555  1.3950
  984MOL0     H32784   6.607   3.019   5.647  0.2654 -0.8911 -0.9288
  984MOL0     H32785   6.759   2.846   5.501 -2.1357 -2.8780  0.4340
  984MOL0     H32786   6.860   2.852   5.653 -0.8663  4.2538  3.0043
  984MOL0     H32787   6.651   2.798   5.780 -1.2761  1.4719 -0.0089
  984MOL0     H32788   6.725   2.677   5.672  0.6260  1.7216  2.1131
  984MOL0     H32789   6.488   2.847   5.580  0.7370  0.7145 -0.4665
  984MOL0     H32790   6.534   2.692   5.522 -2.0664 -0.1844  0.3672
  984MOL0     H32791   6.433   2.775   5.894  0.4768  1.0144 -3.2598
  984MOL0     H32792   6.196   2.491   6.016  2.0615 -0.2407  2.4960
  984MOL0     H32793   6.272   2.626   6.071 -0.8299 -3.1593  1.0696
  984MOL0     H32794   6.010   2.645   6.057  1.5308 -0.4011  1.9538
  984MOL0     H32795   6.098   2.783   6.001  1.2405  0.3098 -2.5236
  984MOL0     H32796   6.070   2.698   5.759 -2.1064 -0.6175 -1.4036
  984MOL0     H32797   5.919   2.731   5.841  1.1198  1.7223 -0.4942
  984MOL0     H32798   6.057   2.454   5.813 -0.9341 -0.6695 -0.6246
  984MOL0     H32799   5.949   2.515   5.697  2.5032 -0.4172 -0.5446
  984MOL0     H32800   5.978   2.271   5.737  1.0835 -0.6972  1.2261
  984MOL0     H32801   5.940   2.029   5.768 -1.8649 -0.8990 -0.1270
  984MOL0     H32802   5.915   1.626   5.993  1.4520 -1.3453 -0.9982
  984MOL0     H32803   5.819   1.399   6.021 -3.6334 -0.0427  2.1893
  984MOL0     H32804   5.428   1.324   5.864  0.8049  0.2052 -1.1980
  984MOL0     H32805   5.489   1.162   5.912  2.1649 -0.5679 -0.9820
  984MOL0     H32806   5.511   1.407   6.084 -1.1267 -0.1903  3.8382
  984MOL0     H32807   5.381   1.285   6.087  0.4556 -1.4649  1.3261
  984MOL0     H32808   5.673   1.266   6.160 -0.4443  0.7259 -0.8725
  984MOL0     H32809   5.531   1.240   6.260 -1.8589 -0.0666 -0.1591
  984MOL0     H32810   5.644   1.021   6.204  1.2978  0.0816 -2.8512
  984MOL0     H32811   5.632   1.048   6.038  0.9587 -0.9228  0.7886
  984MOL0     H32812   5.410   1.000   6.044  0.3745  0.2738 -0.5140
  984MOL0     H32813   5.374   1.053   6.206 -2.4517 -2.0731 -1.1688
  984MOL0     H32814   5.363   0.797   6.149 -0.5968  0.5221 -0.2317
  984MOL0     H32815   5.539   0.794   6.125  1.5729 -0.0287  2.5094
  984MOL0     H32816   5.385   0.850   6.369 -0.1013 -0.0118 -2.0926
  984MOL0     H32817   5.559   0.882   6.357 -1.0626  1.3248  0.4436
  984MOL0     H32818   5.400   0.612   6.342 -3.3246  3.7234  1.2743
  984MOL0     H32819   5.581   0.622   6.312  0.1107 -0.1972 -0.3431
  984MOL0     H32820   5.524   1.500   5.718  1.0754  1.0975 -1.7642
  984MOL0     H32821   5.595   1.737   5.740 -2.7461 -1.1008  0.5648
  984MOL0     H32822   5.683   2.106   6.093  2.4194 -0.6272  0.1836
  984MOL0     H32823   5.733   2.358   6.076 -1.8244 -1.1745  1.9706
  984MOL0     H32824   7.416   3.260   5.479  1.0689  3.6478  0.6746
  984MOL0     H32825   7.641   3.274   5.398 -2.1480  0.5497  1.9764
  984MOL0     H32826   7.884   3.038   4.939 -1.0951  1.0928 -0.1805
  984MOL0     H32827   8.091   3.054   4.796 -0.5014 -1.5814  0.9469
  984MOL0     H32828   8.431   3.304   4.740  0.6936 -1.1444  2.5940
  984MOL0     H32829   8.378   3.362   4.888 -1.7879 -0.2543 -0.3489
  984MOL0     H32830   8.427   3.537   4.712  0.1575 -0.7550 -0.4183
  984MOL0     H32831   8.259   3.544   4.774 -0.6217 -1.1163  1.0931
  984MOL0     H32832   8.247   3.541   4.519  1.3152 -0.2156 -0.6903
  984MOL0     H32833   8.225   3.371   4.570 -1.4876  0.8940 -1.3760
  984MOL0     H32834   8.517   3.434   4.513  0.2913 -2.0824 -0.1270
  984MOL0     H32835   8.417   3.315   4.434 -0.0458 -0.3179  0.0426
  984MOL0     H32836   8.413   3.629   4.150 -2.6112  0.1957 -0.8249
  984MOL0     H32837   8.163   3.445   4.959  0.3605 -0.9639  1.5764
  984MOL0     H32838   7.872   3.490   5.150  0.2057  0.7781  2.4091
  984MOL0     H32839   7.992   3.394   5.248 -2.5246  2.4334  2.8605
  984MOL0     H32840   8.039   3.529   5.129 -1.5741  0.7406 -1.7041
  985MOL0     O32841   5.117   1.711   7.265 -0.0399  0.1640  0.2252
  985MOL0     C32842   5.097   1.786   7.173 -0.0186 -0.3787 -0.4743
  985MOL0     O32843   5.010   1.889   7.170  0.3274  0.2670  0.7415
  985MOL0     C32844   4.888   1.886   7.232  0.4550  0.4972  0.2264
  985MOL0     C32845   4.844   1.795   7.333 -0.2041 -0.8152 -0.2680
  985MOL0     C32846   4.724   1.802   7.386  0.3354 -0.2993 -0.4463
  985MOL0     C32847   4.637   1.900   7.341  0.7302 -0.4232 -0.3563
  985MOL0     O32848   4.503   1.905   7.368 -0.1522 -0.0758  0.1871
  985MOL0     C32849   4.444   1.795   7.438 -1.0803 -0.2400 -0.8895
  985MOL0     C32850   4.293   1.811   7.441 -0.2388  0.5138  0.9102
  985MOL0     C32851   4.252   1.826   7.289  0.3716 -0.5463 -0.5724
  985MOL0     C32852   4.100   1.817   7.266 -0.0822  0.2053 -0.1528
  985MOL0     C32853   4.047   1.791   7.125  0.7410  0.6486  0.1198
  985MOL0     C32854   4.109   1.879   7.019 -0.1385  0.7313 -0.3847
  985MOL0     C32855   4.015   1.858   6.892  0.3215 -0.9469 -0.0136
  985MOL0     C32856   4.062   1.940   6.769 -0.4094 -0.3339  0.0122
  985MOL0     N32857   4.045   2.087   6.783 -0.5342 -0.3736 -0.1479
  985MOL0     C32858   4.106   2.178   6.706 -0.2351 -0.1280  0.3913
  985MOL0     C32859   4.088   2.302   6.755  0.1865  0.9277  0.2715
  985MOL0     C32860   4.156   2.428   6.723 -0.2803 -0.0132  0.7343
  985MOL0     C32861   4.282   2.443   6.816  0.8186 -0.5803 -0.1550
  985MOL0     C32862   4.351   2.583   6.770 -0.2288  0.0489  0.6067
  985MOL0     C32863   4.496   2.570   6.816  0.1072  0.3107  0.4190
  985MOL0     O32864   4.549   2.704   6.775  0.0353 -0.1839 -0.4428
  985MOL0     C32865   4.675   2.733   6.800  0.7530 -1.2238  0.0986
  985MOL0     C32866   4.749   2.679   6.903  0.4615 -0.3958 -0.0341
  985MOL0     C32867   4.880   2.720   6.934  0.0496  0.7097  0.4093
  985MOL0     C32868   4.946   2.818   6.857 -0.4477  0.0506 -0.4299
  985MOL0     C32869   5.083   2.851   6.884 -0.0670  1.4878 -0.7436
  985MOL0     O32870   5.143   2.939   6.800 -0.3894  0.1457 -0.2540
  985MOL0     C32871   5.268   2.990   6.825  0.3591 -0.4376 -0.3454
  985MOL0     C32872   5.339   3.019   6.702  0.8896 -0.8421 -0.6847
  985MOL0     C32873   5.470   3.072   6.706 -0.2392 -0.3075  0.2251
  985MOL0     C32874   5.533   3.095   6.826  0.1860 -0.0997 -0.3577
  985MOL0     O32875   5.646   3.174   6.830 -0.2356  0.9051 -0.4011
  985MOL0     C32876   5.755   3.126   6.743  0.2020 -0.5156 -0.3057
  985MOL0     C32877   5.865   3.232   6.741  0.3518 -0.1873  0.1894
  985MOL0     C32878   5.920   3.282   6.871  0.2796 -0.5798 -0.8344
  985MOL0     C32879   6.062   3.232   6.922  0.1294  0.2099  0.2495
  985MOL0     C32880   6.057   3.086   6.980  0.1270 -0.0245  0.9580
  985MOL0     C32881   6.198   3.030   7.016 -0.0723 -0.1354 -0.4311
  985MOL0     C32882   6.193   2.884   7.057  0.4163  0.0432  0.0682
  985MOL0     C32883   6.261   2.861   7.185  0.2492  0.5141  0.0660
  985MOL0    Cl32884   6.211   2.974   7.324 -0.1148  0.1834  0.4266
  985MOL0     C32885   5.462   3.082   6.944 -0.3559 -1.0337  0.0409
  985MOL0     C32886   5.331   3.029   6.944 -0.0762 -0.9028 -0.1075
  985MOL0     O32887   5.128   2.814   6.993 -0.5950 -0.1748 -0.2161
  985MOL0     C32888   4.871   2.882   6.752  0.3425 -0.4044 -0.3920
  985MOL0     C32889   4.740   2.835   6.720 -0.7423 -0.3134  0.3191
  985MOL0     N32890   3.996   2.286   6.860 -0.4620 -0.8576 -0.3326
  985MOL0     N32891   3.972   2.158   6.874  0.0196  0.1227 -0.5067
  985MOL0     C32892   4.675   1.991   7.238  0.5029 -0.4487  0.4256
  985MOL0     C32893   4.808   1.987   7.183  0.7141  0.0290 -0.9506
  985MOL0     C32894   5.203   1.800   7.064  0.1990  0.8053 -0.1484
  985MOL0     C32895   5.225   1.920   7.004 -0.2630 -0.4246 -0.0202
  985MOL0     C32896   5.312   1.942   6.901 -0.2197  0.6892  0.6721
  985MOL0     C32897   5.397   1.842   6.854 -0.1320 -0.3995 -0.2460
  985MOL0     O32898   5.482   1.870   6.757 -0.4407  0.6014 -0.4435
  985MOL0     C32899   5.596   1.784   6.733 -0.1113  0.0483  0.1093
  985MOL0     C32900   5.687   1.860   6.636  0.4598 -0.1822  0.1971
  985MOL0     C32901   5.620   1.888   6.499 -0.3234 -0.3926 -0.1960
  985MOL0     C32902   5.707   1.992   6.418  0.8300  0.3626 -0.3516
  985MOL0     C32903   5.839   1.933   6.392  0.0660 -0.0320 -0.7062
  985MOL0     C32904   5.944   1.887   6.379  0.5541 -0.0106 -0.5331
  985MOL0     C32905   5.378   1.716   6.910  0.7865  0.7088  0.4599
  985MOL0     C32906   5.287   1.691   7.017  0.1790 -0.3746 -0.7092
  985MOL0     C32907   5.272   1.551   7.068  0.4768  0.0193  0.2837
  985MOL0     H32908   4.912   1.715   7.360  1.3863 -0.3049 -2.4908
  985MOL0     H32909   4.696   1.739   7.471  1.2605 -0.4329 -0.2322
  985MOL0     H32910   4.459   1.705   7.377  0.1002 -0.7091  0.0524
  985MOL0     H32911   4.486   1.783   7.538  0.6856  3.4383 -1.0087
  985MOL0     H32912   4.267   1.896   7.504 -0.4024  0.6107  0.7110
  985MOL0     H32913   4.229   1.729   7.476 -2.2811  0.4928 -2.4765
  985MOL0     H32914   4.300   1.743   7.236  3.7962  0.9681 -0.0967
  985MOL0     H32915   4.290   1.919   7.249  1.8873 -0.0662  1.7785
  985MOL0     H32916   4.061   1.736   7.328  2.1437 -0.4045  0.5211
  985MOL0     H32917   4.060   1.912   7.303 -0.1874 -0.2339  0.8973
  985MOL0     H32918   4.058   1.685   7.101 -1.6236  0.0036  1.5958
  985MOL0     H32919   3.940   1.811   7.132  0.6047 -0.4799  1.6392
  985MOL0     H32920   4.118   1.985   7.048 -1.8411  0.6502  0.5834
  985MOL0     H32921   4.212   1.848   6.997 -0.0351  2.4280 -2.6598
  985MOL0     H32922   3.917   1.896   6.923  0.7199 -2.0872  2.9635
  985MOL0     H32923   4.015   1.750   6.877  2.5525 -1.8308  4.5029
  985MOL0     H32924   4.169   1.916   6.766  0.0502  1.3450  1.2305
  985MOL0     H32925   4.012   1.910   6.676  1.0514 -2.5942 -0.1318
  985MOL0     H32926   4.177   2.166   6.624 -1.3432 -2.5628 -0.2848
  985MOL0     H32927   4.179   2.440   6.617  0.7789  0.0022  0.9601
  985MOL0     H32928   4.083   2.507   6.745 -1.0884 -0.7603  0.7792
  985MOL0     H32929   4.259   2.446   6.923  0.7204 -0.8643 -0.1650
  985MOL0     H32930   4.349   2.358   6.802  1.8783  0.4606 -1.6691
  985MOL0     H32931   4.291   2.656   6.824 -1.2688 -0.6349  0.3871
  985MOL0     H32932   4.354   2.584   6.661 -0.7231 -4.1688  0.3877
  985MOL0     H32933   4.555   2.504   6.751  1.3831  0.0422  1.7975
  985MOL0     H32934   4.499   2.552   6.924  1.8162  1.1049  0.5357
  985MOL0     H32935   4.688   2.613   6.964  0.4040 -1.3815 -1.1162
  985MOL0     H32936   4.920   2.687   7.030  2.6531  4.0134  0.6352
  985MOL0     H32937   5.299   3.031   6.602 -1.7228 -1.0307  0.2590
  985MOL0     H32938   5.515   3.101   6.611 -0.5289 -1.9121 -0.4323
  985MOL0     H32939   5.786   3.030   6.786 -2.2465 -2.0827 -1.7702
  985MOL0     H32940   5.724   3.090   6.644  1.3036 -2.3082 -0.0607
  985MOL0     H32941   5.947   3.188   6.683 -0.0448  0.3328 -0.7712
  985MOL0     H32942   5.831   3.316   6.681 -0.7167 -1.0162 -0.3921
  985MOL0     H32943   5.918   3.391   6.866 -1.0738 -0.6683 -3.4746
  985MOL0     H32944   5.844   3.261   6.948  1.2496  1.2022  0.6988
  985MOL0     H32945   6.088   3.301   7.003  2.3135  1.4393 -1.3781
  985MOL0     H32946   6.142   3.244   6.849 -0.4016  2.0116 -0.0861
  985MOL0     H32947   6.022   3.021   6.899 -1.2006 -1.3144  2.4679
  985MOL0     H32948   5.981   3.099   7.057 -2.5880 -1.7338 -1.2358
  985MOL0     H32949   6.247   3.021   6.918 -1.6449 -1.4097 -1.1334
  985MOL0     H32950   6.256   3.093   7.085 -1.7333  1.1295 -0.1391
  985MOL0     H32951   6.234   2.821   6.978 -0.1372 -0.4464  0.1673
  985MOL0     H32952   6.091   2.849   7.072  0.6673 -0.9795 -0.5609
  985MOL0     H32953   6.261   2.765   7.236 -4.1900  1.8605  3.2593
  985MOL0     H32954   6.369   2.874   7.175  0.1505  2.1343  0.7565
  985MOL0     H32955   5.503   3.133   7.030 -1.2361  1.6173 -1.0084
  985MOL0     H32956   5.286   3.024   7.043  2.6546 -1.6267  1.2038
  985MOL0     H32957   4.896   2.967   6.690 -2.7646  1.0777  0.1848
  985MOL0     H32958   4.693   2.871   6.630  0.7116  1.2171  0.1242
  985MOL0     H32959   4.599   2.062   7.207 -0.1643 -2.1061 -2.0425
  985MOL0     H32960   4.831   2.049   7.098 -1.7147  1.8092 -0.4120
  985MOL0     H32961   5.174   2.012   7.030 -2.5404 -0.4446 -3.8058
  985MOL0     H32962   5.299   2.040   6.857  0.8476  0.4293 -0.2727
  985MOL0     H32963   5.566   1.687   6.691  1.3486  0.4401 -2.0363
  985MOL0     H32964   5.659   1.770   6.822 -1.6855 -0.0359  1.2432
  985MOL0     H32965   5.774   1.797   6.614 -0.4843 -0.7680 -2.2987
  985MOL0     H32966   5.726   1.951   6.682  1.7852 -0.4538 -0.3331
  985MOL0     H32967   5.522   1.933   6.516  0.4507  2.0205 -1.6300
  985MOL0     H32968   5.603   1.801   6.436  1.3346  0.2722 -1.6513
  985MOL0     H32969   5.658   2.016   6.323 -1.3614  3.1131  1.3029
  985MOL0     H32970   5.712   2.086   6.472 -0.0584  0.2727 -0.0956
  985MOL0     H32971   6.042   1.843   6.385 -0.3870 -2.3691 -1.1768
  985MOL0     H32972   5.432   1.629   6.873 -2.3695 -1.9415  1.6569
  985MOL0     H32973   5.336   1.515   7.149  0.2292 -0.0704  0.4374
  985MOL0     H32974   5.168   1.537   7.099  0.8666 -1.5516  0.9701
  985MOL0     H32975   5.290   1.480   6.986  0.8005  0.6382 -0.1969
  986MOL0     O32976   7.678   2.519  10.974  0.0070 -0.0407  1.2002
  986MOL0     C32977   7.603   2.550  10.881  0.1771 -0.4011 -0.0394
  986MOL0     O32978   7.653   2.622  10.771 -0.1214  0.3433  0.5041
  986MOL0     C32979   7.778   2.687  10.776  0.8570  0.8143 -0.6661
  986MOL0     C32980   7.886   2.636  10.703  1.0461 -0.1041 -0.3197
  986MOL0     C32981   8.015   2.696  10.703 -0.5930 -0.3330  0.4634
  986MOL0     C32982   8.035   2.807  10.787 -0.2668  0.6758 -0.3115
  986MOL0     O32983   8.155   2.869  10.800 -0.0572 -0.2221 -0.4831
  986MOL0     C32984   8.264   2.782  10.831  0.0725 -1.0775 -1.0963
  986MOL0     C32985   8.398   2.863  10.819  0.4927  1.9511  0.4133
  986MOL0     C32986   8.510   2.768  10.770  0.3922 -1.0444  0.3772
  986MOL0     C32987   8.498   2.703  10.636  0.7556 -0.0754  1.1758
  986MOL0     C32988   8.492   2.806  10.528  0.8541  0.1028  0.8809
  986MOL0     C32989   8.547   2.745  10.395  0.6302 -0.3173  0.1851
  986MOL0     C32990   8.455   2.639  10.337 -0.4187 -0.3764 -0.6559
  986MOL0     C32991   8.510   2.545  10.230 -0.2200 -0.0161 -0.1008
  986MOL0     N32992   8.634   2.489  10.282  0.0357 -0.5851  0.1458
  986MOL0     C32993   8.753   2.510  10.222  0.2793 -0.3366  0.9546
  986MOL0     C32994   8.849   2.449  10.286  0.2811  0.1741 -0.0113
  986MOL0     C32995   8.996   2.439  10.266 -0.6916  0.4533  0.2704
  986MOL0     C32996   9.076   2.478  10.393  0.1989  0.1985 -0.0574
  986MOL0     C32997   9.083   2.632  10.420 -0.7525  0.5140  1.0155
  986MOL0     C32998   9.175   2.671  10.530  0.1643  0.0771  0.5230
  986MOL0     O32999   9.313   2.626  10.514 -0.3037 -0.5114 -1.0346
  986MOL0     C33000   9.360   2.516  10.584  0.5255 -0.9852  0.7551
  986MOL0     C33001   9.497   2.507  10.581 -0.6786 -0.1655  0.0190
  986MOL0     C33002   9.561   2.408  10.651  0.2062 -0.4303 -0.1088
  986MOL0     C33003   9.487   2.303  10.711 -0.8624  0.7653 -0.2200
  986MOL0     C33004   9.563   2.195  10.778 -0.1072  0.5300 -0.1222
  986MOL0     O33005   9.493   2.120  10.866  0.7419  0.0987  0.3047
  986MOL0     C33006   9.553   2.025  10.941  0.3911 -1.1346 -0.9918
  986MOL0     C33007   9.472   1.925  10.984  0.9244  0.3985 -0.4400
  986MOL0     C33008   9.517   1.839  11.084  0.2848 -0.1587 -0.0734
  986MOL0     C33009   9.658   1.845  11.133  0.4232  0.3115 -0.2883
  986MOL0     O33010   9.715   1.739  11.204 -0.2211 -0.0174  0.3704
  986MOL0     C33011   9.667   1.612  11.161 -0.5415  0.3681 -0.5636
  986MOL0     C33012   9.761   1.501  11.199 -0.1156 -0.5750  0.1784
  986MOL0     C33013   9.670   1.373  11.212 -0.5753 -0.1683  1.9283
  986MOL0     C33014   9.630   1.329  11.068  0.1399  0.6803 -0.1193
  986MOL0     C33015   9.579   1.182  11.083 -0.6370 -0.0577  0.4787
  986MOL0     C33016   9.459   1.153  11.170  0.4730  0.3796  0.0211
  986MOL0     C33017   9.386   1.022  11.124 -0.0689  0.0661 -0.7725
  986MOL0     C33018   9.476   0.892  11.158  0.0822 -0.6634  0.9754
  986MOL0    Cl33019   9.543   0.885  11.332 -0.2741  0.0104  0.6172
  986MOL0     C33020   9.738   1.946  11.085  0.7441 -0.3805  0.8118
  986MOL0     C33021   9.680   2.041  10.992 -1.0748  0.4433 -0.6653
  986MOL0     O33022   9.678   2.176  10.744  0.3554 -0.0692 -0.8056
  986MOL0     C33023   9.355   2.306  10.697  0.7988 -0.4720 -0.9959
  986MOL0     C33024   9.285   2.418  10.655  0.7169  0.0725  0.5736
  986MOL0     N33025   8.781   2.400  10.390  0.2181  1.0169 -1.1964
  986MOL0     N33026   8.656   2.434  10.401  0.1048  0.0207 -0.5493
  986MOL0     C33027   7.937   2.852  10.869  0.7083  0.8942 -0.6931
  986MOL0     C33028   7.804   2.788  10.865  0.5292 -0.8748  0.1247
  986MOL0     C33029   7.461   2.514  10.887 -0.1379  0.2052  0.3246
  986MOL0     C33030   7.391   2.522  10.763  0.8687 -0.0232 -0.1961
  986MOL0     C33031   7.262   2.471  10.756 -0.3745  0.2337  0.2069
  986MOL0     C33032   7.200   2.430  10.875  0.1719  0.2247 -0.2018
  986MOL0     O33033   7.071   2.384  10.885  0.0315  0.6064 -0.1733
  986MOL0     C33034   6.965   2.453  10.948 -0.1679  0.0481 -0.8034
  986MOL0     C33035   6.837   2.410  10.885  0.1137  1.0817 -0.9238
  986MOL0     C33036   6.816   2.259  10.909 -0.3571 -0.2987 -0.0888
  986MOL0     C33037   6.796   2.218  11.057  0.3589 -0.1320 -0.1309
  986MOL0     C33038   6.683   2.287  11.112 -0.2991 -0.9329 -1.0919
  986MOL0     C33039   6.586   2.307  11.178  0.1423 -0.4198  0.5206
  986MOL0     C33040   7.275   2.406  10.988 -0.4686  0.7161  0.6245
  986MOL0     C33041   7.404   2.443  10.999 -0.2236 -0.2589  0.4386
  986MOL0     C33042   7.462   2.427  11.138  0.6220  0.1750  0.8876
  986MOL0     H33043   7.880   2.549  10.638  0.1956 -0.0815 -0.2768
  986MOL0     H33044   8.098   2.669  10.638 -1.0337 -1.0124  0.1700
  986MOL0     H33045   8.265   2.749  10.936 -2.3662 -2.1654 -1.3592
  986MOL0     H33046   8.264   2.688  10.776 -1.5087 -1.6485 -0.1909
  986MOL0     H33047   8.412   2.907  10.918  0.3177  0.4484  1.1340
  986MOL0     H33048   8.373   2.948  10.754 -1.1213  3.7621  3.1762
  986MOL0     H33049   8.510   2.695  10.852 -2.6097 -3.5295 -1.6068
  986MOL0     H33050   8.608   2.817  10.764  0.6868 -1.3014  2.3209
  986MOL0     H33051   8.591   2.649  10.618  0.7458  0.2913 -0.0565
  986MOL0     H33052   8.411   2.636  10.635  3.2394 -3.7222  4.0195
  986MOL0     H33053   8.388   2.837  10.516  1.0923  1.2495  1.6303
  986MOL0     H33054   8.560   2.887  10.556  0.3689 -0.2317  3.2290
  986MOL0     H33055   8.573   2.823  10.322  0.8741 -0.4705  0.1051
  986MOL0     H33056   8.644   2.698  10.413 -0.2942 -2.7630 -0.8157
  986MOL0     H33057   8.360   2.684  10.303 -1.9889 -1.7674  1.6123
  986MOL0     H33058   8.423   2.574  10.419 -1.4668  1.1963  0.2596
  986MOL0     H33059   8.433   2.473  10.203 -3.5798  3.0642  0.5432
  986MOL0     H33060   8.532   2.620  10.153 -1.5292  1.1737  0.6386
  986MOL0     H33061   8.769   2.571  10.133  0.1184  2.6154  2.8239
  986MOL0     H33062   9.022   2.333  10.255 -2.9539 -0.0776 -0.6258
  986MOL0     H33063   9.024   2.493  10.176 -1.2851 -1.6702 -1.2777
  986MOL0     H33064   9.029   2.420  10.473 -1.9926  0.2920 -1.1851
  986MOL0     H33065   9.173   2.436  10.365 -0.4130 -1.1559 -0.2646
  986MOL0     H33066   8.983   2.673  10.434 -2.0509 -2.1831  0.2550
  986MOL0     H33067   9.118   2.677  10.326 -0.5144  1.4095  1.5220
  986MOL0     H33068   9.135   2.637  10.626  2.0382 -0.2719  1.2177
  986MOL0     H33069   9.183   2.778  10.549 -1.7525 -0.2048  3.6313
  986MOL0     H33070   9.548   2.590  10.534 -5.1022  1.6860 -2.0617
  986MOL0     H33071   9.670   2.409  10.653  0.2333  1.4475  1.8939
  986MOL0     H33072   9.371   1.902  10.951 -0.5666  3.4159  1.6361
  986MOL0     H33073   9.462   1.756  11.129  0.3382 -0.8945 -1.3228
  986MOL0     H33074   9.566   1.597  11.199 -0.9806 -2.0588 -2.4564
  986MOL0     H33075   9.662   1.613  11.051  1.8328  0.1313 -0.7254
  986MOL0     H33076   9.824   1.506  11.110 -1.9293  0.3162 -1.1200
  986MOL0     H33077   9.820   1.512  11.291 -0.6534 -2.1763  0.7564
  986MOL0     H33078   9.740   1.300  11.253  2.1506  0.7625 -0.7143
  986MOL0     H33079   9.586   1.395  11.279 -1.9388 -0.9928  0.5286
  986MOL0     H33080   9.724   1.329  11.011 -1.1465  3.6608 -2.4976
  986MOL0     H33081   9.560   1.394  11.016  1.6959  1.9659 -0.7184
  986MOL0     H33082   9.657   1.109  11.109  1.6539  1.9172 -0.4303
  986MOL0     H33083   9.546   1.163  10.981  2.3373  2.7132 -1.1804
  986MOL0     H33084   9.497   1.152  11.273  0.8852 -0.6061 -0.1320
  986MOL0     H33085   9.378   1.225  11.151 -0.9086 -0.3997  2.4759
  986MOL0     H33086   9.363   1.016  11.018 -1.1477  3.0114 -0.7742
  986MOL0     H33087   9.296   1.001  11.182  0.8057  1.1613  1.0741
  986MOL0     H33088   9.409   0.809  11.134 -1.1123  0.5280  0.0316
  986MOL0     H33089   9.553   0.891  11.079 -1.1634 -1.5008 -0.2786
  986MOL0     H33090   9.842   1.941  11.115  0.8974  2.2535  0.9038
  986MOL0     H33091   9.752   2.114  10.956  1.5543 -1.8954 -0.5020
  986MOL0     H33092   9.310   2.216  10.736  1.5741  0.3944  2.1741
  986MOL0     H33093   9.178   2.416  10.670  0.6563 -1.3543  0.1320
  986MOL0     H33094   7.943   2.941  10.932  1.6897 -0.8587  1.8814
  986MOL0     H33095   7.717   2.833  10.912  0.2501 -1.2128 -0.0579
  986MOL0     H33096   7.423   2.574  10.673 -0.1869  1.3313  0.1636
  986MOL0     H33097   7.195   2.485  10.672 -2.4077  2.3120  2.0395
  986MOL0     H33098   6.977   2.558  10.923  1.2790 -0.6871 -3.7012
  986MOL0     H33099   6.962   2.443  11.057 -0.5794  1.1256 -0.7044
  986MOL0     H33100   6.848   2.430  10.778  0.2876 -1.5585 -1.4607
  986MOL0     H33101   6.763   2.473  10.935  0.1424 -1.4198  2.5995
  986MOL0     H33102   6.898   2.200  10.868 -0.0490 -0.7962  1.2097
  986MOL0     H33103   6.722   2.247  10.854 -0.3392  1.8434 -0.6820
  986MOL0     H33104   6.786   2.109  11.062  1.5451 -0.2934 -0.8193
  986MOL0     H33105   6.886   2.238  11.116 -0.8288 -1.6825  2.3772
  986MOL0     H33106   6.495   2.319  11.233 -1.0039 -3.9196 -0.3560
  986MOL0     H33107   7.241   2.337  11.064  1.1373 -4.0983 -2.5909
  986MOL0     H33108   7.560   2.380  11.127  0.6189  0.1947  0.7738
  986MOL0     H33109   7.469   2.522  11.192  0.9324  0.3918  0.4703
  986MOL0     H33110   7.410   2.358  11.205 -1.8494  0.1914 -0.8770
  987MOL0     O33111   6.793   1.977   0.482  0.4332 -0.0657 -0.2181
  987MOL0     C33112   6.919   1.978   0.479  1.3376 -0.1780 -0.5940
  987MOL0     O33113   7.000   2.094   0.459 -0.1914  0.3708 -0.6657
  987MOL0     C33114   6.944   2.208   0.493 -0.0573  0.1126 -0.6410
  987MOL0     C33115   6.889   2.242   0.620 -0.5805  0.1615  0.6199
  987MOL0     C33116   6.849   2.377   0.649  0.0071 -0.1585  0.1412
  987MOL0     C33117   6.865   2.484   0.557 -0.1455 -0.6904  0.8276
  987MOL0     O33118   6.834   2.617   0.588 -0.4036 -0.2159 -0.8951
  987MOL0     C33119   6.853   2.731   0.496 -0.5462  0.3632  0.3366
  987MOL0     C33120   6.914   2.836   0.586 -0.6284 -0.4702  0.1230
  987MOL0     C33121   7.068   2.820   0.614  0.0003  0.1545 -0.2630
  987MOL0     C33122   7.120   2.932   0.698 -0.1810  0.3954 -0.5715
  987MOL0     C33123   7.270   2.912   0.740  0.1451 -1.0539  0.4903
  987MOL0     C33124   7.280   2.803   0.847  0.3250 -0.1799 -0.4093
  987MOL0     C33125   7.422   2.775   0.894 -0.6656  1.1103  0.4587
  987MOL0     C33126   7.488   2.900   0.956  0.0831  0.4860  0.0783
  987MOL0     N33127   7.633   2.858   0.973  0.6640 -0.1999  0.5452
  987MOL0     C33128   7.723   2.845   0.865 -0.1227  0.5180 -0.3662
  987MOL0     C33129   7.822   2.784   0.924 -0.7350 -0.5850 -0.6062
  987MOL0     C33130   7.932   2.728   0.843  0.4918  0.6542  0.0662
  987MOL0     C33131   8.062   2.803   0.851  0.9946 -0.0277  0.5037
  987MOL0     C33132   8.168   2.717   0.789 -0.2210  0.0536 -1.1822
  987MOL0     C33133   8.291   2.795   0.752  0.0398  0.2372 -0.1263
  987MOL0     O33134   8.349   2.861   0.858  0.0268 -0.2645 -0.4217
  987MOL0     C33135   8.481   2.891   0.875  0.9454 -0.8359 -0.3187
  987MOL0     C33136   8.563   2.933   0.770 -1.1047  0.4996  1.1715
  987MOL0     C33137   8.694   2.956   0.779 -0.6506 -0.5732 -0.9142
  987MOL0     C33138   8.763   2.953   0.896  0.4483  0.2402 -0.9908
  987MOL0     C33139   8.912   2.979   0.904  0.5672 -0.2371 -0.8412
  987MOL0     O33140   8.968   2.953   1.030 -0.4480 -1.2003  0.2413
  987MOL0     C33141   9.111   2.957   1.046  1.1594  0.4956 -0.3131
  987MOL0     C33142   9.185   3.052   0.979  0.3184  0.9165  0.0583
  987MOL0     C33143   9.324   3.060   1.003 -0.0087 -0.3297 -0.0480
  987MOL0     C33144   9.388   2.969   1.089  0.0242 -0.2962  0.0686
  987MOL0     O33145   9.529   2.975   1.109 -0.1059 -0.0563  0.5804
  987MOL0     C33146   9.604   2.915   1.003 -0.0719 -0.2008 -0.1631
  987MOL0     C33147   9.565   2.771   0.988  0.4969  0.9523  0.3730
  987MOL0     C33148   9.654   2.695   0.880 -1.5465 -0.3567 -0.0309
  987MOL0     C33149   9.778   2.625   0.939 -0.1471  0.1786  0.3155
  987MOL0     C33150   9.853   2.539   0.834  0.1354  0.1801 -0.3271
  987MOL0     C33151   9.937   2.615   0.737  0.4085 -0.6419  0.0904
  987MOL0     C33152  10.018   2.530   0.639 -0.3381 -0.0266  0.3910
  987MOL0     C33153  10.146   2.602   0.602  0.2495 -0.6476  0.5926
  987MOL0    Cl33154  10.244   2.493   0.499  0.6743  0.0880 -0.1511
  987MOL0     C33155   9.312   2.868   1.148  1.5427  0.0702  0.2237
  987MOL0     C33156   9.174   2.857   1.127 -0.4017  1.0241  0.1611
  987MOL0     O33157   8.978   3.011   0.811  0.3964  0.8973 -0.0290
  987MOL0     C33158   8.678   2.925   1.007 -0.9735  1.0614  0.2102
  987MOL0     C33159   8.536   2.896   1.000  0.1071 -0.0384  0.8573
  987MOL0     N33160   7.805   2.773   1.066  0.2120  0.3825  0.7516
  987MOL0     N33161   7.681   2.811   1.090 -0.0482 -0.3886 -0.7015
  987MOL0     C33162   6.905   2.440   0.424  0.9540  0.4992 -0.6126
  987MOL0     C33163   6.941   2.312   0.394 -0.1879  0.2146  0.0769
  987MOL0     C33164   6.981   1.848   0.452 -0.9169  0.0289 -0.3865
  987MOL0     C33165   7.115   1.846   0.408  0.7584  0.0621  0.5434
  987MOL0     C33166   7.200   1.729   0.403  0.3939 -0.1706 -0.7184
  987MOL0     C33167   7.138   1.611   0.441 -0.3635  0.3850  0.2196
  987MOL0     O33168   7.194   1.490   0.417 -0.0621  0.3416 -0.1175
  987MOL0     C33169   7.126   1.362   0.440 -0.0909  0.0169 -0.4353
  987MOL0     C33170   7.208   1.247   0.443 -0.5131 -0.4667  0.1547
  987MOL0     C33171   7.286   1.223   0.313  0.3223  0.6289  0.6021
  987MOL0     C33172   7.198   1.219   0.189  0.1263 -0.0659  0.5554
  987MOL0     C33173   7.084   1.126   0.205  0.3330  0.1056  0.3886
  987MOL0     C33174   7.019   1.031   0.234  0.4064  0.3483 -0.2711
  987MOL0     C33175   7.005   1.616   0.493 -0.2499  1.1590  1.5563
  987MOL0     C33176   6.932   1.729   0.503  0.1353 -0.6342 -0.4469
  987MOL0     C33177   6.798   1.714   0.580 -0.6052 -0.1242 -0.1393
  987MOL0     H33178   6.891   2.157   0.686  3.3281  0.5844  1.3120
  987MOL0     H33179   6.795   2.389   0.742 -1.1407  0.1802 -0.5429
  987MOL0     H33180   6.924   2.711   0.416 -2.1025  1.7985 -1.5132
  987MOL0     H33181   6.762   2.769   0.447  2.1963  4.7854 -2.0217
  987MOL0     H33182   6.854   2.828   0.677 -0.1404 -0.7021  0.4244
  987MOL0     H33183   6.898   2.934   0.541 -0.4485  0.8011  2.6457
  987MOL0     H33184   7.125   2.816   0.521 -1.1839  0.9525 -1.0483
  987MOL0     H33185   7.085   2.723   0.661 -0.5604 -0.1944 -0.7635
  987MOL0     H33186   7.129   3.024   0.639  1.7745 -1.8567 -4.1636
  987MOL0     H33187   7.074   2.946   0.796  1.9800  0.5253  0.4779
  987MOL0     H33188   7.334   2.878   0.658 -2.8985 -2.1343 -1.6020
  987MOL0     H33189   7.309   3.006   0.781 -2.2937  0.2376  0.0332
  987MOL0     H33190   7.220   2.840   0.931  0.4013 -1.5529  0.2738
  987MOL0     H33191   7.237   2.709   0.813 -0.1133  0.1675 -0.8351
  987MOL0     H33192   7.473   2.730   0.808 -1.1620  3.0890 -0.9544
  987MOL0     H33193   7.421   2.695   0.968 -0.5343 -3.6339 -4.1099
  987MOL0     H33194   7.479   2.996   0.903 -0.5561  0.4752  0.1531
  987MOL0     H33195   7.441   2.909   1.054 -1.0889  2.2838 -0.5797
  987MOL0     H33196   7.709   2.859   0.758 -0.7050  0.0618 -0.3547
  987MOL0     H33197   7.949   2.622   0.864  1.3812  0.5613 -1.0389
  987MOL0     H33198   7.903   2.726   0.738 -2.0156 -0.1360  0.6944
  987MOL0     H33199   8.040   2.894   0.794 -3.2518  0.5280  2.6276
  987MOL0     H33200   8.089   2.825   0.955  1.2393  0.3689  0.3552
  987MOL0     H33201   8.127   2.670   0.699  2.7458  0.7398 -3.0140
  987MOL0     H33202   8.194   2.638   0.860  1.5783 -0.3857 -2.2789
  987MOL0     H33203   8.271   2.865   0.670 -1.1042  0.6469  0.4851
  987MOL0     H33204   8.366   2.725   0.715  1.2258  2.9414 -3.4123
  987MOL0     H33205   8.527   2.927   0.668 -0.2820 -0.7241  0.9347
  987MOL0     H33206   8.747   2.995   0.693  2.3278  0.0358  1.0074
  987MOL0     H33207   9.143   3.133   0.920 -1.3095  0.6279  0.7648
  987MOL0     H33208   9.388   3.126   0.945  0.9797 -1.4074 -0.2366
  987MOL0     H33209   9.586   2.955   0.903 -0.6299 -0.6512 -0.2514
  987MOL0     H33210   9.707   2.938   1.029  0.8785 -0.5425 -3.2553
  987MOL0     H33211   9.581   2.709   1.076 -0.0928 -2.9532 -2.0410
  987MOL0     H33212   9.463   2.770   0.950  1.7364 -2.6462 -3.6557
  987MOL0     H33213   9.586   2.622   0.836 -1.2015  0.1158 -1.3832
  987MOL0     H33214   9.686   2.747   0.790 -2.0958 -1.2691 -0.7736
  987MOL0     H33215   9.763   2.556   1.022 -3.1628 -1.1302 -1.1552
  987MOL0     H33216   9.852   2.698   0.974 -1.3759  1.6671 -0.0806
  987MOL0     H33217   9.792   2.474   0.771 -0.4309  0.4571 -0.0722
  987MOL0     H33218   9.915   2.467   0.889 -2.7324 -2.0434  0.2188
  987MOL0     H33219   9.865   2.666   0.672 -0.7563 -1.7152  0.4935
  987MOL0     H33220  10.008   2.676   0.793 -1.2144 -2.0401  3.9730
  987MOL0     H33221   9.960   2.508   0.549  0.5808 -0.2916 -0.1504
  987MOL0     H33222  10.045   2.439   0.693  0.2821 -1.1406 -1.6994
  987MOL0     H33223  10.130   2.697   0.550 -0.6931  0.1612  2.2669
  987MOL0     H33224  10.208   2.624   0.689 -1.2650  0.5185  1.4225
  987MOL0     H33225   9.369   2.796   1.207 -1.7286 -4.0066 -1.0908
  987MOL0     H33226   9.125   2.785   1.191  1.5034 -0.1841  0.3447
  987MOL0     H33227   8.719   2.902   1.105  0.2812 -1.0816 -0.7369
  987MOL0     H33228   8.464   2.866   1.075 -0.1920 -0.4053  0.4220
  987MOL0     H33229   6.902   2.518   0.348  0.2557  0.0192 -1.0853
  987MOL0     H33230   6.994   2.290   0.303 -1.7689 -2.8314 -0.2253
  987MOL0     H33231   7.159   1.941   0.382  0.2214  0.1071 -0.2618
  987MOL0     H33232   7.308   1.724   0.387  0.5073  1.3904 -0.6153
  987MOL0     H33233   7.047   1.361   0.364 -2.5280  1.0485  1.9240
  987MOL0     H33234   7.076   1.368   0.537  1.3935 -0.8014  0.4007
  987MOL0     H33235   7.161   1.151   0.468 -0.6541 -0.4893 -0.2035
  987MOL0     H33236   7.280   1.273   0.522 -0.3173  1.5083 -0.6191
  987MOL0     H33237   7.335   1.125   0.316 -0.0098  0.4382 -0.0422
  987MOL0     H33238   7.372   1.287   0.292  0.3283  0.4325 -0.0045
  987MOL0     H33239   7.159   1.319   0.169 -0.2647 -0.7973 -2.8237
  987MOL0     H33240   7.266   1.191   0.108 -0.9355  2.2386 -1.2739
  987MOL0     H33241   6.955   0.961   0.282  1.0002 -1.3489 -1.8139
  987MOL0     H33242   6.956   1.526   0.527  0.6180 -0.0367 -0.2138
  987MOL0     H33243   6.783   1.620   0.633  1.5427 -0.7897 -0.5938
  987MOL0     H33244   6.789   1.791   0.658  0.4739  0.6086 -0.7100
  987MOL0     H33245   6.727   1.723   0.497 -0.3797 -1.6439 -0.5123
  988MOL0     O33246   0.278   5.016  10.568 -0.2857  0.5926  0.7632
  988MOL0     C33247   0.268   5.015  10.690 -0.1042  1.3296 -0.7632
  988MOL0     O33248   0.340   5.082  10.781  0.0610 -0.0540 -0.7674
  988MOL0     C33249   0.446   5.151  10.738 -0.5535  1.2538 -0.8987
  988MOL0     C33250   0.427   5.279  10.704 -0.4912 -0.1540 -0.2057
  988MOL0     C33251   0.542   5.360  10.675 -0.2002  0.1736 -0.7207
  988MOL0     C33252   0.672   5.313  10.678  0.2296 -0.1549 -0.4452
  988MOL0     O33253   0.772   5.381  10.639 -0.1652 -0.0607 -0.1797
  988MOL0     C33254   0.878   5.400  10.734 -0.6405 -0.0584 -1.0823
  988MOL0     C33255   0.970   5.514  10.697  0.0474  0.1780 -0.2742
  988MOL0     C33256   1.112   5.503  10.766 -0.2325 -0.0960  0.0793
  988MOL0     C33257   1.219   5.553  10.678  0.3247 -0.2127 -0.1143
  988MOL0     C33258   1.357   5.553  10.750  0.1830  0.3253  0.7220
  988MOL0     C33259   1.422   5.413  10.746  0.2576  0.8844 -0.2476
  988MOL0     C33260   1.548   5.409  10.824 -0.8671 -0.8168  0.3643
  988MOL0     C33261   1.644   5.530  10.803 -0.5058  0.0131  0.8300
  988MOL0     N33262   1.760   5.526  10.897  0.9203 -0.1527 -0.4804
  988MOL0     C33263   1.865   5.433  10.895  0.6558  0.0907  1.0243
  988MOL0     C33264   1.960   5.487  10.983 -0.9674  0.5420  0.3170
  988MOL0     C33265   2.087   5.423  11.029  0.6525  0.1513 -0.7714
  988MOL0     C33266   2.195   5.495  10.957 -0.2587 -0.1737  0.4885
  988MOL0     C33267   2.334   5.429  10.979 -0.0000  1.1950  0.7393
  988MOL0     C33268   2.417   5.487  11.100  0.1184  0.6198 -0.5331
  988MOL0     O33269   2.341   5.476  11.222  0.0359 -0.1312  0.3114
  988MOL0     C33270   2.379   5.530  11.338 -0.5005 -0.4100 -0.1887
  988MOL0     C33271   2.297   5.528  11.445 -0.0836 -0.3423 -0.1827
  988MOL0     C33272   2.307   5.598  11.568  0.1276 -0.0757  0.9493
  988MOL0     C33273   2.430   5.674  11.582  1.4118 -0.0329 -0.7930
  988MOL0     C33274   2.450   5.740  11.714 -1.1148  0.5310  0.3577
  988MOL0     O33275   2.588   5.764  11.747  0.5861 -0.9645 -0.1731
  988MOL0     C33276   2.609   5.808  11.874  0.5505 -0.6556 -0.2878
  988MOL0     C33277   2.664   5.722  11.970  0.2961  0.0698 -0.0877
  988MOL0     C33278   2.703   5.781  12.085 -0.2324 -0.6298  0.0369
  988MOL0     C33279   2.684   5.915  12.117 -0.0036  1.0134 -0.6556
  988MOL0     O33280   2.709   5.970  12.237 -0.2725  0.8244  0.2124
  988MOL0     C33281   2.836   5.952  12.301 -0.3620  1.0420  0.8775
  988MOL0     C33282   2.871   6.082  12.380 -0.9496  0.9837  0.9303
  988MOL0     C33283   2.993   6.082  12.474  0.4017  0.6293 -0.5269
  988MOL0     C33284   2.994   6.017  12.614  1.0559 -0.5139 -0.1189
  988MOL0     C33285   3.065   5.887  12.632  0.4995  0.0769  0.1805
  988MOL0     C33286   3.031   5.841  12.771 -0.3115 -0.4235 -0.4800
  988MOL0     C33287   3.085   5.700  12.796 -0.5760  0.5790 -0.4295
  988MOL0     C33288   3.040   5.639  12.937  0.4160 -0.5829 -0.7957
  988MOL0    Cl33289   3.109   5.745  13.057 -0.1543  0.4135  0.3317
  988MOL0     C33290   2.622   5.996  12.029 -0.1463 -0.5935  0.7258
  988MOL0     C33291   2.584   5.944  11.906  0.3097  0.3964  0.0673
  988MOL0     O33292   2.358   5.763  11.789 -0.9406 -0.0600 -0.1747
  988MOL0     C33293   2.528   5.671  11.483  0.0575 -0.0449  0.3757
  988MOL0     C33294   2.496   5.610  11.361  0.8936  1.1508 -0.0761
  988MOL0     N33295   1.905   5.608  11.024  0.8225 -0.3332 -0.5593
  988MOL0     N33296   1.798   5.645  10.963 -0.0303 -0.6847  0.3994
  988MOL0     C33297   0.687   5.177  10.707 -0.2622 -0.5640  0.2995
  988MOL0     C33298   0.579   5.091  10.731 -0.4606 -0.5335 -0.4165
  988MOL0     C33299   0.148   4.944  10.743  0.0912  0.2897 -0.4444
  988MOL0     C33300   0.109   4.969  10.881 -0.3186 -0.6802  0.0325
  988MOL0     C33301   0.005   4.904  10.945  0.8798 -0.5954 -0.1385
  988MOL0     C33302  -0.076   4.812  10.875 -0.4840  0.3456  0.5028
  988MOL0     O33303  -0.188   4.751  10.924  0.5832  0.0875  0.1305
  988MOL0     C33304  -0.253   4.817  11.035 -0.6758 -0.0856 -1.0390
  988MOL0     C33305  -0.308   4.960  11.024 -0.2017 -0.2144  0.0535
  988MOL0     C33306  -0.453   4.976  10.970  0.7431  0.6491  0.5620
  988MOL0     C33307  -0.497   5.116  10.990  0.4026  0.3287 -0.9784
  988MOL0     C33308  -0.642   5.113  10.961  0.0781  0.3490  0.4837
  988MOL0     C33309  -0.762   5.100  10.940 -0.0062 -1.0677 -1.1210
  988MOL0     C33310  -0.041   4.792  10.745  0.9505  0.0660  1.1263
  988MOL0     C33311   0.067   4.845  10.681 -0.1586 -0.5897  0.3084
  988MOL0     C33312   0.089   4.793  10.540  0.0722 -0.4033 -0.0268
  988MOL0     H33313   0.332   5.331  10.702  1.0596  2.9888  0.7138
  988MOL0     H33314   0.531   5.466  10.654 -3.9184  0.4279  1.6028
  988MOL0     H33315   0.839   5.427  10.833 -1.6385 -1.5711 -1.0261
  988MOL0     H33316   0.942   5.312  10.736  2.4996  2.0758 -1.1679
  988MOL0     H33317   0.938   5.617  10.714 -2.7903 -0.7431  0.5833
  988MOL0     H33318   0.978   5.498  10.589  2.8806 -0.1025 -0.1030
  988MOL0     H33319   1.133   5.401  10.798 -0.1540 -0.7423 -1.8584
  988MOL0     H33320   1.106   5.575  10.848  0.1918  0.0096  0.0193
  988MOL0     H33321   1.223   5.499  10.584  0.1360  1.2840 -1.0194
  988MOL0     H33322   1.190   5.649  10.635  1.0453 -0.7932 -1.9930
  988MOL0     H33323   1.427   5.630  10.717  2.6690 -1.4901  1.4801
  988MOL0     H33324   1.336   5.586  10.852 -3.1954 -0.2169  0.3145
  988MOL0     H33325   1.347   5.342  10.781 -3.6266  5.1421  1.1717
  988MOL0     H33326   1.455   5.384  10.645  0.2545 -2.5783  0.6310
  988MOL0     H33327   1.613   5.323  10.804 -1.4597 -0.9995 -0.8471
  988MOL0     H33328   1.524   5.412  10.931  1.0537  0.8308  0.8149
  988MOL0     H33329   1.674   5.529  10.698  1.3853  0.3087  1.3170
  988MOL0     H33330   1.604   5.630  10.823  0.5902  0.5882  0.2735
  988MOL0     H33331   1.865   5.338  10.843 -3.4090 -0.5680  1.8672
  988MOL0     H33332   2.096   5.433  11.137  1.3696 -1.1038 -0.6986
  988MOL0     H33333   2.081   5.316  11.008  3.1192 -0.6160  1.8252
  988MOL0     H33334   2.172   5.497  10.850 -2.6200 -1.3153  0.8901
  988MOL0     H33335   2.194   5.601  10.981  0.7712 -0.0874  0.1723
  988MOL0     H33336   2.395   5.443  10.890  1.3482  1.1016  1.6132
  988MOL0     H33337   2.323   5.324  11.008 -0.1831  1.5692  2.0771
  988MOL0     H33338   2.448   5.589  11.076 -1.1597  1.1508 -0.0444
  988MOL0     H33339   2.506   5.426  11.116  1.1552  1.9764 -0.9974
  988MOL0     H33340   2.199   5.486  11.426 -0.8909  1.9646 -1.6360
  988MOL0     H33341   2.223   5.595  11.637 -0.8557  0.3487 -0.2029
  988MOL0     H33342   2.673   5.615  11.950  3.1505  0.0567  0.9040
  988MOL0     H33343   2.733   5.715  12.166 -1.4533 -2.3416 -0.8353
  988MOL0     H33344   2.827   5.857  12.356 -1.4291  0.2936 -0.5267
  988MOL0     H33345   2.912   5.936  12.223 -2.3640 -0.6588 -0.8656
  988MOL0     H33346   2.883   6.164  12.308 -0.6240  0.6849  0.6312
  988MOL0     H33347   2.792   6.111  12.449 -2.6646 -0.3754 -0.3680
  988MOL0     H33348   3.082   6.047  12.421  2.1139  4.8179 -0.8648
  988MOL0     H33349   3.008   6.190  12.490 -0.4870  0.6613  0.1195
  988MOL0     H33350   2.893   6.004  12.652  1.2251 -2.5520 -0.2285
  988MOL0     H33351   3.037   6.091  12.682 -2.4431  0.5205  1.1311
  988MOL0     H33352   3.172   5.911  12.625  0.4656 -0.1635 -1.6004
  988MOL0     H33353   3.041   5.820  12.549  0.8702  0.9452 -0.6518
  988MOL0     H33354   3.077   5.904  12.848 -1.3288 -1.1042  0.7162
  988MOL0     H33355   2.922   5.835  12.770 -0.6760  3.0646  1.3467
  988MOL0     H33356   3.194   5.695  12.790 -0.4893 -0.6767  1.3886
  988MOL0     H33357   3.045   5.630  12.722 -1.1531 -0.4535  0.8167
  988MOL0     H33358   2.931   5.637  12.932  0.3622 -0.4730  0.1590
  988MOL0     H33359   3.078   5.538  12.954  1.7014  0.1099  0.7347
  988MOL0     H33360   2.596   6.100  12.046  2.5606  0.4256 -0.6817
  988MOL0     H33361   2.561   6.001  11.816  2.8901 -1.4889 -1.9407
  988MOL0     H33362   2.629   5.710  11.488  0.0220  0.4617 -1.7953
  988MOL0     H33363   2.577   5.607  11.289  0.7316 -1.0990 -0.2309
  988MOL0     H33364   0.785   5.130  10.716  1.9910  3.5353 -0.6440
  988MOL0     H33365   0.621   4.991  10.737 -1.9144 -1.1601 -0.0386
  988MOL0     H33366   0.159   5.039  10.947 -2.4395  0.7361  0.2257
  988MOL0     H33367  -0.003   4.914  11.053  2.2854 -1.9714  0.1327
  988MOL0     H33368  -0.187   4.810  11.122  0.4394 -2.4252 -1.9624
  988MOL0     H33369  -0.333   4.743  11.048  1.5025 -2.4708 -0.2688
  988MOL0     H33370  -0.238   5.008  10.955  2.1178 -1.9317  1.0908
  988MOL0     H33371  -0.296   5.012  11.119  0.4315  1.1792 -0.7575
  988MOL0     H33372  -0.501   4.907  11.040  0.4717 -0.2752 -0.5070
  988MOL0     H33373  -0.462   4.946  10.865  0.8331 -3.7388  1.5927
  988MOL0     H33374  -0.473   5.158  11.088 -0.3797 -1.3032 -0.0552
  988MOL0     H33375  -0.448   5.181  10.916 -0.2854 -1.5636 -3.2008
  988MOL0     H33376  -0.868   5.094  10.931 -1.0392  0.1481  5.3382
  988MOL0     H33377  -0.088   4.714  10.687  1.3198 -0.7842  1.9436
  988MOL0     H33378   0.196   4.791  10.519  0.0379  0.4123 -0.3194
  988MOL0     H33379   0.049   4.693  10.521  2.0832 -1.4071  0.7369
  988MOL0     H33380   0.035   4.868  10.482 -0.0053 -0.1246  0.3984
  989MOL0     O33381   4.951   0.539   0.862  0.5562 -0.7553  0.2571
  989MOL0     C33382   4.944   0.418   0.879 -0.2031  0.3191  1.0563
  989MOL0     O33383   5.053   0.330   0.882  0.4870 -0.4031  0.1967
  989MOL0     C33384   5.160   0.377   0.813  0.3280 -0.8638  0.1669
  989MOL0     C33385   5.277   0.403   0.890 -0.5692  1.1069  0.5513
  989MOL0     C33386   5.403   0.441   0.832  0.0033  0.8141  0.0229
  989MOL0     C33387   5.412   0.450   0.692 -0.4492 -0.1412 -0.7155
  989MOL0     O33388   5.545   0.467   0.641  0.3006  0.4619 -0.7389
  989MOL0     C33389   5.559   0.440   0.499  0.0671 -1.2150 -0.2087
  989MOL0     C33390   5.698   0.477   0.450 -0.2112  0.1937 -0.6468
  989MOL0     C33391   5.793   0.353   0.485  0.6441  0.0715 -0.4862
  989MOL0     C33392   5.927   0.375   0.451 -0.0909  0.2478 -0.4834
  989MOL0     C33393   6.002   0.247   0.473 -0.7395  1.0202 -0.2325
  989MOL0     C33394   6.134   0.244   0.401  0.4848 -0.5635 -0.0407
  989MOL0     C33395   6.215   0.120   0.431  0.8312 -0.5168 -0.7236
  989MOL0     C33396   6.255   0.104   0.576 -0.0455  0.1569  0.3780
  989MOL0     N33397   6.363  -0.003   0.587  0.2354  0.8001  0.7139
  989MOL0     C33398   6.341  -0.129   0.542  0.3783  0.0956  0.4360
  989MOL0     C33399   6.470  -0.187   0.520 -1.2302 -0.2287  1.1558
  989MOL0     C33400   6.499  -0.318   0.442  0.7113  0.3126 -0.1212
  989MOL0     C33401   6.446  -0.437   0.527 -0.2799 -0.4980  0.0023
  989MOL0     C33402   6.469  -0.558   0.447 -0.5400  0.1052 -0.0091
  989MOL0     C33403   6.381  -0.672   0.498 -0.3803  0.1681  0.4631
  989MOL0     O33404   6.242  -0.640   0.476  0.2783  0.0308  0.1492
  989MOL0     C33405   6.175  -0.704   0.375 -0.5639 -0.0188  0.1217
  989MOL0     C33406   6.033  -0.712   0.397 -0.7521  0.4003  0.2763
  989MOL0     C33407   5.950  -0.781   0.306 -0.2100  0.2375 -0.7623
  989MOL0     C33408   6.002  -0.838   0.192 -0.1274  0.0213  0.4061
  989MOL0     C33409   5.918  -0.931   0.097 -0.1804  0.2302  0.2646
  989MOL0     O33410   5.783  -0.930   0.112  0.1879  0.0302  0.3633
  989MOL0     C33411   5.693  -0.978   0.017  0.6200  0.1550 -0.3552
  989MOL0     C33412   5.702  -0.959  -0.118 -0.4627  1.1265  1.1391
  989MOL0     C33413   5.595  -0.992  -0.217 -0.3145  0.0535  0.0851
  989MOL0     C33414   5.477  -1.040  -0.161  0.3080 -0.5614  0.1632
  989MOL0     O33415   5.361  -1.066  -0.232 -1.3163 -0.1844 -0.1164
  989MOL0     C33416   5.356  -1.049  -0.380 -0.4821 -0.3477 -0.4908
  989MOL0     C33417   5.237  -1.125  -0.437 -0.9482  0.0183 -0.8980
  989MOL0     C33418   5.126  -1.030  -0.471  0.0883  0.8649  0.2896
  989MOL0     C33419   4.997  -1.094  -0.518  0.1316 -0.7596 -0.1335
  989MOL0     C33420   4.881  -0.994  -0.533  0.7470  0.2921 -0.1184
  989MOL0     C33421   4.754  -1.050  -0.615 -0.0813  0.3606  0.7689
  989MOL0     C33422   4.621  -0.952  -0.613 -0.4767  0.9292 -0.2349
  989MOL0     C33423   4.596  -0.885  -0.749  0.8088 -0.5466 -0.6939
  989MOL0    Cl33424   4.535  -1.011  -0.850 -0.5045  0.8946  0.7910
  989MOL0     C33425   5.466  -1.058  -0.022 -0.9663  0.0588  0.7768
  989MOL0     C33426   5.573  -1.032   0.061 -0.0510 -0.3674 -0.5984
  989MOL0     O33427   5.983  -0.986   0.006  0.1981  0.5114  0.0014
  989MOL0     C33428   6.145  -0.817   0.156  0.6947 -0.0366 -0.4773
  989MOL0     C33429   6.229  -0.748   0.248 -0.4451  0.3174  0.5927
  989MOL0     N33430   6.555  -0.083   0.549 -0.0034  0.2185  0.3291
  989MOL0     N33431   6.491   0.023   0.588 -0.3566  0.3240 -0.2824
  989MOL0     C33432   5.295   0.431   0.617 -0.3036  0.0242  0.9020
  989MOL0     C33433   5.174   0.403   0.672 -0.8889  0.2518 -0.6360
  989MOL0     C33434   4.826   0.351   0.930  0.1362 -1.0511 -0.5556
  989MOL0     C33435   4.855   0.241   1.021  0.0549  0.0229 -0.9170
  989MOL0     C33436   4.759   0.146   1.069  0.7382  0.2499 -0.6646
  989MOL0     C33437   4.630   0.169   1.025  0.0585 -0.2500  0.0286
  989MOL0     O33438   4.522   0.094   1.064  0.2506 -0.6609 -0.6436
  989MOL0     C33439   4.542  -0.000   1.173 -0.1178 -0.1511 -0.2205
  989MOL0     C33440   4.423  -0.090   1.189  0.1954 -0.0604  0.1012
  989MOL0     C33441   4.305   0.004   1.232  0.4380  1.3279  0.7166
  989MOL0     C33442   4.169  -0.064   1.196  0.8126  0.3418  0.7858
  989MOL0     C33443   4.139  -0.180   1.277 -0.1210  0.2650  0.3231
  989MOL0     C33444   4.125  -0.278   1.343 -0.9899 -0.3386 -0.6416
  989MOL0     C33445   4.599   0.280   0.946 -0.8621  0.4118  0.1429
  989MOL0     C33446   4.693   0.369   0.907 -0.1656 -0.9145  0.2427
  989MOL0     C33447   4.644   0.486   0.816 -0.8679 -0.0312 -0.6699
  989MOL0     H33448   5.273   0.391   0.997  0.1607 -1.2966  0.3737
  989MOL0     H33449   5.479   0.465   0.906 -0.4698  3.6185 -0.2699
  989MOL0     H33450   5.524   0.341   0.468 -1.8627 -0.2666 -1.2745
  989MOL0     H33451   5.499   0.521   0.456  1.2188  1.7556  3.2439
  989MOL0     H33452   5.734   0.571   0.492 -0.8775 -0.9966  2.9799
  989MOL0     H33453   5.697   0.489   0.342 -2.0700 -1.5718 -0.9003
  989MOL0     H33454   5.756   0.262   0.438  3.1508 -1.4871  0.3480
  989MOL0     H33455   5.799   0.329   0.591 -0.0071 -4.4637 -1.2770
  989MOL0     H33456   5.952   0.407   0.350  3.5827  1.1778  0.5798
  989MOL0     H33457   5.979   0.452   0.509  0.4361 -1.5199  1.4945
  989MOL0     H33458   6.011   0.220   0.578 -1.8511  0.2210 -0.3316
  989MOL0     H33459   5.947   0.165   0.427  1.1067 -0.5571  0.2544
  989MOL0     H33460   6.107   0.249   0.295 -0.0040  0.2379  0.1128
  989MOL0     H33461   6.183   0.341   0.415  1.1844 -0.8357 -0.5678
  989MOL0     H33462   6.295   0.127   0.357 -1.3278  1.2912 -3.0197
  989MOL0     H33463   6.143   0.041   0.408 -0.3613 -0.1900  1.5651
  989MOL0     H33464   6.304   0.195   0.612  0.4129  0.2568 -0.4804
  989MOL0     H33465   6.166   0.073   0.632 -0.1393 -0.8734 -0.3119
  989MOL0     H33466   6.248  -0.181   0.521  1.2104 -1.7736  1.1217
  989MOL0     H33467   6.456  -0.321   0.342  1.0694 -0.7804 -0.2557
  989MOL0     H33468   6.606  -0.338   0.431  0.0021 -5.3865  0.3740
  989MOL0     H33469   6.509  -0.423   0.615 -0.0939 -0.5627 -0.1193
  989MOL0     H33470   6.341  -0.420   0.555 -0.7304 -1.3507 -1.1104
  989MOL0     H33471   6.574  -0.587   0.453 -0.8170 -1.1291 -0.6544
  989MOL0     H33472   6.443  -0.542   0.342  2.2985  1.3781 -0.5926
  989MOL0     H33473   6.408  -0.685   0.603  1.2108  2.3348  0.3715
  989MOL0     H33474   6.409  -0.761   0.441 -1.0183  0.2384  0.0334
  989MOL0     H33475   5.986  -0.675   0.487 -1.3979  0.2106  0.0214
  989MOL0     H33476   5.843  -0.792   0.319 -0.0985 -2.5767 -1.5193
  989MOL0     H33477   5.794  -0.933  -0.170 -1.9463  1.2244 -1.6345
  989MOL0     H33478   5.604  -0.968  -0.323  1.7787  2.7870  0.8021
  989MOL0     H33479   5.353  -0.944  -0.410  2.7602 -0.4596 -1.5037
  989MOL0     H33480   5.456  -1.086  -0.404  0.5550  0.5329  2.1025
  989MOL0     H33481   5.270  -1.176  -0.528  0.1914  2.4037 -1.8988
  989MOL0     H33482   5.201  -1.188  -0.356  0.4175  1.5472  1.0079
  989MOL0     H33483   5.096  -0.979  -0.379 -0.1551 -0.5918  1.0484
  989MOL0     H33484   5.178  -0.956  -0.533  2.1826  0.9128  1.9846
  989MOL0     H33485   4.967  -1.161  -0.436 -1.4193 -2.4671 -1.9812
  989MOL0     H33486   5.006  -1.163  -0.603  0.1011 -1.6922  0.5952
  989MOL0     H33487   4.911  -0.894  -0.568 -0.3374 -0.2816 -2.9811
  989MOL0     H33488   4.833  -0.977  -0.436 -1.6937  2.3903 -1.5656
  989MOL0     H33489   4.784  -1.085  -0.714 -1.6948  0.9576  0.0479
  989MOL0     H33490   4.716  -1.140  -0.565  2.4337 -2.4636 -1.9775
  989MOL0     H33491   4.631  -0.871  -0.541 -2.7101  1.7096 -0.7369
  989MOL0     H33492   4.536  -1.010  -0.577  0.2245 -0.1330 -0.2282
  989MOL0     H33493   4.523  -0.805  -0.733  3.8564  1.8739  2.5030
  989MOL0     H33494   4.689  -0.844  -0.790 -0.3592 -1.3304 -4.5263
  989MOL0     H33495   5.370  -1.083   0.022 -1.2037  1.5866  1.1818
  989MOL0     H33496   5.556  -1.042   0.168  1.7856  0.6092 -0.1815
  989MOL0     H33497   6.186  -0.871   0.071 -0.4150 -0.8118 -0.5441
  989MOL0     H33498   6.335  -0.733   0.227 -0.2580 -1.0592  0.4638
  989MOL0     H33499   5.316   0.437   0.511  1.2567 -0.1752  1.1701
  989MOL0     H33500   5.089   0.387   0.607 -0.2237 -2.2258 -0.9957
  989MOL0     H33501   4.951   0.202   1.053 -0.9134 -3.6403 -1.9159
  989MOL0     H33502   4.786   0.072   1.143 -0.3688 -0.5371 -1.0173
  989MOL0     H33503   4.560   0.059   1.263  1.0173  0.6799 -0.9718
  989MOL0     H33504   4.630  -0.064   1.160  0.0782  0.3989 -1.8642
  989MOL0     H33505   4.442  -0.169   1.263 -2.1931 -1.2685 -0.4585
  989MOL0     H33506   4.408  -0.140   1.093  0.4837 -0.6220  0.3424
  989MOL0     H33507   4.306   0.101   1.180 -3.2303  1.1831  0.1158
  989MOL0     H33508   4.309   0.011   1.341 -0.4609 -1.8135  1.0452
  989MOL0     H33509   4.086   0.004   1.217 -0.3482 -0.5376 -0.7497
  989MOL0     H33510   4.165  -0.094   1.091 -0.1056 -2.1369  1.4494
  989MOL0     H33511   4.108  -0.362   1.407  1.6221  0.3363  1.0912
  989MOL0     H33512   4.497   0.296   0.913 -1.0176 -1.7796 -0.5809
  989MOL0     H33513   4.663   0.588   0.850 -5.0385  1.5490 -2.3493
  989MOL0     H33514   4.689   0.471   0.717 -0.5094 -3.6838 -0.0636
  989MOL0     H33515   4.534   0.485   0.813 -1.1438 -3.1051  3.1889
  990MOL0     O33516   6.315   6.039   1.174 -0.1541  0.2156  0.2021
  990MOL0     C33517   6.291   5.987   1.064 -0.7786 -1.4498  0.1324
  990MOL0     O33518   6.327   6.042   0.938  0.5173  0.3197 -0.3927
  990MOL0     C33519   6.392   6.164   0.927 -0.1556  0.7223 -0.3839
  990MOL0     C33520   6.493   6.177   0.838  0.0420  0.0552  0.4395
  990MOL0     C33521   6.568   6.289   0.834  0.0380  0.1594  0.6916
  990MOL0     C33522   6.555   6.395   0.931 -0.9081  1.0865 -0.5079
  990MOL0     O33523   6.655   6.490   0.936  0.5442 -0.2859  0.0581
  990MOL0     C33524   6.626   6.598   1.025 -0.4588 -0.9188 -0.0557
  990MOL0     C33525   6.750   6.705   1.016  0.3666  0.1363  0.3232
  990MOL0     C33526   6.887   6.637   1.048 -0.1543  0.5393 -0.1279
  990MOL0     C33527   6.998   6.744   1.007 -0.2038  0.1881 -0.3633
  990MOL0     C33528   7.127   6.692   1.058 -0.5942  0.6437 -0.8531
  990MOL0     C33529   7.219   6.673   0.940 -0.9898 -0.2640 -0.0940
  990MOL0     C33530   7.361   6.658   0.996  0.6015  0.8540  0.2098
  990MOL0     C33531   7.425   6.778   1.075 -0.2037  0.2349 -0.4156
  990MOL0     N33532   7.425   6.891   0.990 -0.2911  1.3080  0.7025
  990MOL0     C33533   7.497   6.921   0.884 -0.5767 -0.1352 -0.3634
  990MOL0     C33534   7.465   7.048   0.853 -0.0484  0.2891 -0.3868
  990MOL0     C33535   7.528   7.145   0.761 -0.3244  0.3953  0.2567
  990MOL0     C33536   7.626   7.243   0.826  0.1331 -0.4320 -0.1403
  990MOL0     C33537   7.728   7.186   0.920 -0.4874 -0.2863 -0.5887
  990MOL0     C33538   7.807   7.295   0.979  0.0139 -0.2506 -0.5639
  990MOL0     O33539   7.912   7.247   1.063  0.0711 -0.2492 -0.1604
  990MOL0     C33540   7.989   7.340   1.132  0.4553  0.0628 -0.3429
  990MOL0     C33541   8.097   7.297   1.205  0.4970 -0.0387 -0.7107
  990MOL0     C33542   8.200   7.386   1.250  0.7350  0.1265 -0.2845
  990MOL0     C33543   8.172   7.523   1.259  0.5655 -0.5786  1.4246
  990MOL0     C33544   8.274   7.610   1.316 -0.2270  0.8443  0.0411
  990MOL0     O33545   8.389   7.546   1.344  0.0111 -0.3495  0.2112
  990MOL0     C33546   8.490   7.616   1.402  0.1743 -0.6022 -0.7839
  990MOL0     C33547   8.588   7.679   1.328  0.6355 -0.3309  0.8790
  990MOL0     C33548   8.707   7.732   1.390  0.2392  0.0181  0.2219
  990MOL0     C33549   8.718   7.736   1.527  0.1144  0.4692 -1.1589
  990MOL0     O33550   8.832   7.782   1.592 -0.2701  0.0120  0.3762
  990MOL0     C33551   8.935   7.850   1.525 -0.1102  0.3468  0.1870
  990MOL0     C33552   9.039   7.912   1.620  0.3635 -0.0270 -0.4241
  990MOL0     C33553   9.166   7.832   1.614  0.2830  0.5712 -0.2575
  990MOL0     C33554   9.162   7.690   1.670 -0.4348 -1.1658 -0.1063
  990MOL0     C33555   9.310   7.644   1.687  0.0825  0.5189  1.1277
  990MOL0     C33556   9.391   7.619   1.549  0.7175 -0.2798 -0.0924
  990MOL0     C33557   9.517   7.545   1.571  0.0285  0.3339  0.4902
  990MOL0     C33558   9.589   7.548   1.435  0.5885  0.3254 -1.0926
  990MOL0    Cl33559   9.728   7.438   1.450  0.4453 -0.3712  0.5996
  990MOL0     C33560   8.610   7.678   1.604 -0.3830 -0.4948  0.2233
  990MOL0     C33561   8.503   7.623   1.536  0.4986 -1.4397 -0.3223
  990MOL0     O33562   8.244   7.730   1.334  0.6473  0.1749  0.0441
  990MOL0     C33563   8.054   7.566   1.201  0.0919  0.2427  0.5550
  990MOL0     C33564   7.967   7.475   1.134  0.1761  0.2604 -0.9827
  990MOL0     N33565   7.381   7.093   0.947  0.0534 -0.5588 -0.8106
  990MOL0     N33566   7.360   6.996   1.032 -0.1504  0.0282 -0.4047
  990MOL0     C33567   6.457   6.378   1.023 -0.4005  0.2326 -0.0760
  990MOL0     C33568   6.384   6.262   1.031 -0.4797 -0.0864  0.4508
  990MOL0     C33569   6.228   5.854   1.067  0.3260 -0.0071 -0.6156
  990MOL0     C33570   6.114   5.828   1.142  0.5545 -0.9599  0.4707
  990MOL0     C33571   6.052   5.707   1.127 -0.0590  0.5847  0.2173
  990MOL0     C33572   6.097   5.601   1.049  1.0877 -0.2393 -0.6802
  990MOL0     O33573   6.029   5.480   1.046  0.5929  0.5741  0.5178
  990MOL0     C33574   6.016   5.407   0.922 -0.5898  0.3150 -0.9034
  990MOL0     C33575   5.880   5.334   0.930 -0.7047  0.6488  1.3799
  990MOL0     C33576   5.833   5.267   1.059 -0.4220  0.7592 -0.8544
  990MOL0     C33577   5.881   5.128   1.090  0.1593  0.3328 -0.9650
  990MOL0     C33578   6.022   5.104   1.097  0.5142 -0.8825 -0.0715
  990MOL0     C33579   6.141   5.102   1.091 -0.2667  0.8763  0.8497
  990MOL0     C33580   6.205   5.632   0.967 -0.2168  0.0855 -0.5921
  990MOL0     C33581   6.275   5.757   0.976  0.0853 -0.0575  0.2595
  990MOL0     C33582   6.388   5.779   0.878  0.1676  0.3246  0.4286
  990MOL0     H33583   6.506   6.100   0.763 -0.8107 -0.4172  0.7669
  990MOL0     H33584   6.648   6.284   0.760 -0.8008  1.9979 -0.4195
  990MOL0     H33585   6.532   6.645   0.997  0.6585  0.8074 -1.1544
  990MOL0     H33586   6.624   6.558   1.127 -0.2950 -0.1502  0.2580
  990MOL0     H33587   6.734   6.794   1.077  1.2443  3.7367 -4.0983
  990MOL0     H33588   6.759   6.745   0.914 -0.0051 -0.3740  0.0818
  990MOL0     H33589   6.903   6.554   0.979  2.1121  0.6581  0.1773
  990MOL0     H33590   6.891   6.605   1.153  1.5414  3.3976  0.7851
  990MOL0     H33591   6.995   6.751   0.898 -2.7642 -0.1259 -0.3654
  990MOL0     H33592   6.980   6.840   1.058  3.4746  0.6016  0.4793
  990MOL0     H33593   7.171   6.772   1.119 -0.2660  0.1092 -0.3823
  990MOL0     H33594   7.113   6.600   1.116  2.1238  0.0355 -1.0433
  990MOL0     H33595   7.188   6.589   0.878 -1.2546 -0.9002  0.8860
  990MOL0     H33596   7.215   6.759   0.872  2.5471  0.6009  0.5777
  990MOL0     H33597   7.424   6.639   0.909 -0.5222 -1.0077 -0.2659
  990MOL0     H33598   7.371   6.576   1.068  0.0280 -1.0530 -1.7763
  990MOL0     H33599   7.373   6.801   1.168 -1.1838 -1.3778 -0.5231
  990MOL0     H33600   7.527   6.752   1.105 -0.4436 -3.0156 -1.9994
  990MOL0     H33601   7.579   6.873   0.831  1.3735 -0.8854  3.0280
  990MOL0     H33602   7.573   7.075   0.690 -0.5734  0.1551  0.3306
  990MOL0     H33603   7.460   7.199   0.694  1.0720 -0.7276 -2.1834
  990MOL0     H33604   7.672   7.306   0.749  0.1563 -1.3307 -0.8695
  990MOL0     H33605   7.584   7.326   0.884  1.3663 -0.2890  0.5977
  990MOL0     H33606   7.794   7.120   0.863 -0.8329  0.6861 -2.1888
  990MOL0     H33607   7.676   7.135   1.000 -0.4414  0.0042 -0.3718
  990MOL0     H33608   7.742   7.358   1.041 -0.9880 -1.5111 -0.2972
  990MOL0     H33609   7.845   7.354   0.895  3.6695  1.5992  2.1173
  990MOL0     H33610   8.116   7.190   1.205 -1.0473 -0.3710  1.4157
  990MOL0     H33611   8.290   7.339   1.287  1.5990  0.6309 -1.6704
  990MOL0     H33612   8.594   7.654   1.222  0.5455 -3.5584  1.5331
  990MOL0     H33613   8.781   7.768   1.320 -2.0819  1.0362 -1.8846
  990MOL0     H33614   8.985   7.779   1.459 -0.4940 -1.2947  1.5817
  990MOL0     H33615   8.890   7.929   1.464 -2.7028 -1.2972 -0.1988
  990MOL0     H33616   9.065   8.014   1.589 -1.3934  0.0303 -1.8513
  990MOL0     H33617   9.020   7.916   1.728  0.4429 -0.8462 -0.3729
  990MOL0     H33618   9.207   7.829   1.512  1.7779  2.5046  0.2161
  990MOL0     H33619   9.238   7.894   1.668 -1.8719  3.0150  0.0227
  990MOL0     H33620   9.096   7.628   1.609 -2.5887  2.0690 -1.3463
  990MOL0     H33621   9.119   7.705   1.770 -1.7063  2.2576 -1.0421
  990MOL0     H33622   9.305   7.552   1.746 -2.3202 -1.6835 -2.1408
  990MOL0     H33623   9.369   7.710   1.751  1.3797 -1.3097  1.8962
  990MOL0     H33624   9.324   7.572   1.476  0.8528  0.0603 -0.4366
  990MOL0     H33625   9.411   7.717   1.507  1.5647  0.1604  1.2835
  990MOL0     H33626   9.493   7.449   1.616  0.6274  0.7217  1.6804
  990MOL0     H33627   9.577   7.592   1.649 -1.1348  1.8136  0.5504
  990MOL0     H33628   9.533   7.522   1.344  2.4567 -3.9818 -1.2434
  990MOL0     H33629   9.637   7.645   1.419  0.3680  1.1130  2.2733
  990MOL0     H33630   8.611   7.660   1.711 -0.3313  0.8185  0.4684
  990MOL0     H33631   8.419   7.589   1.596  0.3659  0.5013  0.6754
  990MOL0     H33632   8.012   7.665   1.216 -0.1120 -0.3412  5.0883
  990MOL0     H33633   7.868   7.509   1.103 -0.8124 -1.6779 -0.1377
  990MOL0     H33634   6.434   6.454   1.097  1.8903  1.5119 -0.5931
  990MOL0     H33635   6.311   6.265   1.111 -1.4157 -0.1664 -0.3816
  990MOL0     H33636   6.078   5.905   1.209  1.3820  0.6128 -0.8235
  990MOL0     H33637   5.974   5.676   1.196 -0.6976 -0.0406 -0.7532
  990MOL0     H33638   6.098   5.336   0.907 -0.4762 -0.2385  1.8593
  990MOL0     H33639   6.011   5.484   0.844 -1.5333  2.2449  0.9950
  990MOL0     H33640   5.864   5.261   0.850  0.0240 -2.6609  4.0734
  990MOL0     H33641   5.813   5.420   0.917 -2.0778 -0.5913 -0.1793
  990MOL0     H33642   5.725   5.268   1.073 -0.1201 -0.3317  2.6718
  990MOL0     H33643   5.854   5.331   1.146 -4.1332 -0.3644  1.0812
  990MOL0     H33644   5.834   5.106   1.186  0.5643 -0.1419 -0.8721
  990MOL0     H33645   5.845   5.046   1.027 -0.1206  1.0613 -1.7751
  990MOL0     H33646   6.248   5.097   1.098 -0.1454 -0.5115 -1.1591
  990MOL0     H33647   6.241   5.562   0.891  1.5239  2.0484 -1.6848
  990MOL0     H33648   6.476   5.824   0.924  1.0956  1.8844 -2.6431
  990MOL0     H33649   6.427   5.688   0.830  4.2917  2.7202 -1.2901
  990MOL0     H33650   6.356   5.843   0.796 -1.5472 -1.6239 -0.5239
  991MOL0     O33651   4.302   4.377   7.087  0.9604 -0.5031  0.0605
  991MOL0     C33652   4.280   4.477   7.156 -0.5850  0.2397 -0.6703
  991MOL0     O33653   4.381   4.577   7.173 -0.1136 -0.3553  0.2706
  991MOL0     C33654   4.509   4.575   7.121  0.4202  0.3494  0.0106
  991MOL0     C33655   4.543   4.541   6.991 -0.5812  0.1957 -0.5424
  991MOL0     C33656   4.682   4.541   6.956  0.1293 -0.4016 -0.3431
  991MOL0     C33657   4.778   4.583   7.054  0.7195  0.3268 -0.3671
  991MOL0     O33658   4.911   4.572   7.035  0.8540 -0.0387  0.5036
  991MOL0     C33659   4.959   4.504   6.912  0.3053 -0.1705 -0.3675
  991MOL0     C33660   5.110   4.491   6.925  0.4838 -0.1564 -0.6431
  991MOL0     C33661   5.162   4.438   6.795 -0.6241  0.4862 -0.2366
  991MOL0     C33662   5.319   4.427   6.818  0.1043 -0.3582 -0.4370
  991MOL0     C33663   5.388   4.390   6.686 -0.4113 -0.6626  0.3327
  991MOL0     C33664   5.426   4.530   6.617  0.2499  0.1535 -0.5391
  991MOL0     C33665   5.521   4.516   6.495 -0.6898  0.9642 -0.0257
  991MOL0     C33666   5.463   4.502   6.355 -0.7758  0.4225 -0.3763
  991MOL0     N33667   5.563   4.519   6.252  0.2959 -0.8059  0.1888
  991MOL0     C33668   5.581   4.640   6.180 -0.5295  0.4806  0.1083
  991MOL0     C33669   5.675   4.610   6.080  0.5488 -0.1040 -0.4264
  991MOL0     C33670   5.750   4.701   5.982  0.4216  0.7028 -0.4571
  991MOL0     C33671   5.893   4.654   5.960  0.2730  0.6768  0.8379
  991MOL0     C33672   5.955   4.763   5.868 -0.2187 -0.0287  0.8002
  991MOL0     C33673   5.891   4.763   5.729 -0.0225 -0.2584  0.3831
  991MOL0     O33674   5.975   4.823   5.629 -0.5098 -0.3088  0.7468
  991MOL0     C33675   5.984   4.961   5.615  0.0421  0.6400 -0.5404
  991MOL0     C33676   6.108   5.018   5.624  0.5974 -1.0525  0.2402
  991MOL0     C33677   6.133   5.150   5.608 -0.2316 -0.2595 -0.0001
  991MOL0     C33678   6.028   5.237   5.583 -0.5880 -0.2625  0.2895
  991MOL0     C33679   6.052   5.374   5.542 -0.4479 -0.8005 -0.8833
  991MOL0     O33680   5.938   5.452   5.557 -0.0776  0.3309 -0.5745
  991MOL0     C33681   5.952   5.588   5.555  0.2799  0.7213  0.4039
  991MOL0     C33682   5.848   5.664   5.513 -0.0287 -0.0800  0.2996
  991MOL0     C33683   5.853   5.804   5.515  0.5693 -1.4107 -1.0337
  991MOL0     C33684   5.968   5.873   5.553  0.6122 -0.0172  0.3152
  991MOL0     O33685   5.998   6.004   5.539 -0.1360 -0.3491 -0.4632
  991MOL0     C33686   5.917   6.086   5.448  1.5162 -0.3188  0.5478
  991MOL0     C33687   5.956   6.055   5.302  1.1133  0.7029 -0.1719
  991MOL0     C33688   5.907   6.150   5.189 -0.9240  0.5504 -0.1845
  991MOL0     C33689   5.986   6.113   5.072 -1.3306  0.0273  0.6712
  991MOL0     C33690   5.948   6.186   4.944  0.4074 -0.3051 -0.4888
  991MOL0     C33691   6.047   6.149   4.840 -0.1489  1.0256  0.8318
  991MOL0     C33692   6.026   6.015   4.775 -0.1498  0.0377 -0.0490
  991MOL0     C33693   6.117   5.982   4.666 -0.5350 -0.1760  0.1992
  991MOL0    Cl33694   6.088   6.080   4.524  0.2892 -0.2935  0.0584
  991MOL0     C33695   6.083   5.804   5.573  0.1899 -0.6222  0.3242
  991MOL0     C33696   6.070   5.657   5.586 -0.8975 -0.0308  0.1069
  991MOL0     O33697   6.165   5.409   5.506 -0.6300  0.7245 -0.3245
  991MOL0     C33698   5.890   5.185   5.593 -0.5801  0.3165 -0.0495
  991MOL0     C33699   5.880   5.045   5.605 -0.7587 -0.5059 -0.5876
  991MOL0     N33700   5.709   4.482   6.095 -0.7443  0.8685 -0.4079
  991MOL0     N33701   5.643   4.428   6.188 -0.2564  1.1625  0.5881
  991MOL0     C33702   4.730   4.633   7.169 -0.8442  0.3432 -0.8577
  991MOL0     C33703   4.600   4.638   7.200 -0.9183 -1.7964 -1.0869
  991MOL0     C33704   4.167   4.507   7.244 -0.3322 -1.2588  0.2344
  991MOL0     C33705   4.161   4.634   7.305  1.0798  0.6404 -0.1235
  991MOL0     C33706   4.058   4.660   7.396  0.3328  1.1371  0.4763
  991MOL0     C33707   3.956   4.569   7.426 -0.0696  0.4143  0.4561
  991MOL0     O33708   3.836   4.599   7.494  0.0820 -0.0517 -0.9049
  991MOL0     C33709   3.828   4.733   7.551  0.1852  0.1243 -0.1496
  991MOL0     C33710   3.684   4.780   7.547 -0.1461  0.0250  0.0997
  991MOL0     C33711   3.601   4.753   7.423 -0.5864 -0.0022  0.1375
  991MOL0     C33712   3.460   4.818   7.434 -0.1248  0.0823  0.7740
  991MOL0     C33713   3.370   4.763   7.330  0.3944 -1.1368  0.7200
  991MOL0     C33714   3.281   4.715   7.256 -0.6275  1.0941 -0.8384
  991MOL0     C33715   3.968   4.441   7.368 -0.3235  0.6780 -0.0093
  991MOL0     C33716   4.070   4.412   7.283 -0.6620 -0.1176  0.8975
  991MOL0     C33717   4.069   4.264   7.244 -0.8273  0.4338  0.2721
  991MOL0     H33718   4.475   4.500   6.917 -1.3476 -2.1922  1.3812
  991MOL0     H33719   4.719   4.511   6.858  0.7786  2.7084 -1.1609
  991MOL0     H33720   4.920   4.403   6.900  0.2536 -0.4906  2.0542
  991MOL0     H33721   4.928   4.556   6.820 -0.5171  2.1368  1.1110
  991MOL0     H33722   5.142   4.427   7.008  0.9965  0.8930 -0.0219
  991MOL0     H33723   5.150   4.592   6.939 -1.0846  0.4051 -0.0001
  991MOL0     H33724   5.144   4.515   6.720  0.6430 -0.8429 -2.0022
  991MOL0     H33725   5.113   4.341   6.778 -2.0832  0.8553  1.5436
  991MOL0     H33726   5.349   4.518   6.871 -0.2081 -1.4055  1.6125
  991MOL0     H33727   5.344   4.356   6.897  3.0665  0.5166 -0.4639
  991MOL0     H33728   5.478   4.336   6.716  0.5277 -0.4739 -1.9309
  991MOL0     H33729   5.323   4.343   6.612 -0.7488  2.4928 -1.5655
  991MOL0     H33730   5.332   4.567   6.575  0.0479  0.1458 -0.0963
  991MOL0     H33731   5.472   4.602   6.685 -1.2506  0.4866  0.1547
  991MOL0     H33732   5.586   4.429   6.510 -0.5136  0.6076 -2.4704
  991MOL0     H33733   5.585   4.604   6.492 -1.6997  1.7621  1.0518
  991MOL0     H33734   5.412   4.405   6.355  1.9079 -1.1368  1.5485
  991MOL0     H33735   5.385   4.576   6.333  0.4562  2.3363  1.3407
  991MOL0     H33736   5.535   4.737   6.197  3.6907  2.4355  1.7272
  991MOL0     H33737   5.689   4.715   5.893 -0.9439  2.0377  0.6340
  991MOL0     H33738   5.758   4.798   6.033 -0.5575  0.1333  0.8508
  991MOL0     H33739   5.951   4.649   6.052  1.6077 -0.7551 -0.0426
  991MOL0     H33740   5.895   4.560   5.904 -2.0182  1.8452 -1.4357
  991MOL0     H33741   6.064   4.755   5.875 -0.0913  1.5472  0.8743
  991MOL0     H33742   5.947   4.861   5.915  1.0576 -0.3679  1.7920
  991MOL0     H33743   5.803   4.827   5.722  0.7576  0.7465 -0.5883
  991MOL0     H33744   5.869   4.660   5.698  1.3411 -0.2152 -0.8066
  991MOL0     H33745   6.187   4.945   5.638 -0.5171 -2.1082  1.2437
  991MOL0     H33746   6.234   5.189   5.605 -0.4861  0.3524 -2.0565
  991MOL0     H33747   5.751   5.620   5.491  0.0980 -2.0356  3.0475
  991MOL0     H33748   5.758   5.849   5.493  1.8838  0.9532 -2.2196
  991MOL0     H33749   5.811   6.064   5.461  0.7158  3.7931  3.1848
  991MOL0     H33750   5.917   6.192   5.476  0.1834  0.9340 -3.4966
  991MOL0     H33751   6.065   6.053   5.314  0.9043 -1.1927  2.0056
  991MOL0     H33752   5.925   5.951   5.287  1.4388  0.4534  0.8010
  991MOL0     H33753   5.800   6.142   5.166 -0.7115 -0.2565 -0.9361
  991MOL0     H33754   5.925   6.255   5.214  0.0058  0.5107 -0.6677
  991MOL0     H33755   5.966   6.005   5.062 -0.6418 -0.3574  2.9099
  991MOL0     H33756   6.091   6.120   5.102 -0.9388 -1.8865 -0.0563
  991MOL0     H33757   5.953   6.294   4.963  2.9213 -0.5629  0.6631
  991MOL0     H33758   5.844   6.167   4.915  0.6059 -1.7206 -0.3178
  991MOL0     H33759   6.041   6.222   4.759  2.8670  0.2864 -0.1715
  991MOL0     H33760   6.146   6.153   4.886  0.8362 -0.1123 -1.0902
  991MOL0     H33761   5.924   6.015   4.736  0.4073 -0.7528 -1.5864
  991MOL0     H33762   6.028   5.941   4.856 -0.4365  0.2780  0.1815
  991MOL0     H33763   6.223   5.992   4.695 -0.8911  0.3791  1.4012
  991MOL0     H33764   6.120   5.877   4.637  1.0131 -0.0699 -0.1198
  991MOL0     H33765   6.164   5.874   5.593 -1.2491  1.0682  0.4636
  991MOL0     H33766   6.152   5.606   5.637 -1.0213  0.5105  0.8633
  991MOL0     H33767   5.796   5.238   5.597 -0.4387  0.6263 -0.7231
  991MOL0     H33768   5.780   5.007   5.624 -0.3487 -0.6744  1.3992
  991MOL0     H33769   4.807   4.672   7.234 -1.2525  0.0560 -0.1886
  991MOL0     H33770   4.572   4.670   7.299 -0.6378 -3.1185 -0.5548
  991MOL0     H33771   4.209   4.729   7.286 -0.8713  1.7259  0.0718
  991MOL0     H33772   4.060   4.754   7.450 -0.0581  1.6086 -0.3028
  991MOL0     H33773   3.880   4.814   7.497  0.1697  0.4584  0.3345
  991MOL0     H33774   3.859   4.725   7.656  0.4449 -1.2262 -0.3030
  991MOL0     H33775   3.692   4.889   7.559  2.9818 -0.2013  1.2343
  991MOL0     H33776   3.637   4.736   7.635 -1.4187 -0.6127 -0.8784
  991MOL0     H33777   3.576   4.648   7.408 -1.7266 -0.2307  3.0991
  991MOL0     H33778   3.651   4.794   7.334  2.2274 -0.4569  1.4074
  991MOL0     H33779   3.419   4.803   7.534  2.2068  2.2873  2.1766
  991MOL0     H33780   3.456   4.924   7.408 -1.5533 -0.5465 -1.9740
  991MOL0     H33781   3.204   4.673   7.193 -1.1490  2.2622 -1.0189
  991MOL0     H33782   3.896   4.364   7.395 -1.4619  1.0184 -1.9812
  991MOL0     H33783   3.988   4.207   7.292  1.0089 -1.3159  1.4578
  991MOL0     H33784   4.077   4.246   7.137 -4.0796  0.6541 -0.1226
  991MOL0     H33785   4.157   4.210   7.281 -0.7374  0.2207 -0.2469
  992MOL0     O33786  10.034  10.888   2.715 -0.2901  0.6329 -0.2447
  992MOL0     C33787  10.134  10.919   2.650 -0.2497  0.4665 -0.2005
  992MOL0     O33788  10.264  10.946   2.698 -0.1324  0.3068  0.0473
  992MOL0     C33789  10.291  10.961   2.832  0.1085  0.3356 -0.4161
  992MOL0     C33790  10.197  11.007   2.927  0.3235  0.1688 -0.6666
  992MOL0     C33791  10.233  10.997   3.062 -0.9155  0.1364 -0.5829
  992MOL0     C33792  10.356  10.951   3.100  0.2793 -0.3861  0.1646
  992MOL0     O33793  10.396  10.932   3.232  0.5517  0.3929  0.1775
  992MOL0     C33794  10.304  10.977   3.340 -0.4756 -0.3085 -0.0887
  992MOL0     C33795  10.361  10.942   3.473 -1.1731 -0.2797 -0.7345
  992MOL0     C33796  10.406  10.798   3.492 -0.3443  0.0935  1.3904
  992MOL0     C33797  10.502  10.781   3.611 -0.0299 -0.1466  0.4813
  992MOL0     C33798  10.555  10.634   3.627 -0.8725  0.0925  0.6333
  992MOL0     C33799  10.659  10.631   3.740  0.6477 -0.2135  0.2863
  992MOL0     C33800  10.748  10.506   3.725  0.1218 -0.3825  0.3221
  992MOL0     C33801  10.837  10.499   3.597 -0.5047 -0.0331 -0.1805
  992MOL0     N33802  10.896  10.367   3.595  0.0485 -0.6310 -0.5483
  992MOL0     C33803  10.900  10.286   3.491 -0.7667 -0.0696  0.3437
  992MOL0     C33804  10.961  10.176   3.532  0.5932  0.2178  0.2279
  992MOL0     C33805  10.975  10.041   3.465 -0.3525 -0.3251 -0.0884
  992MOL0     C33806  11.055  10.059   3.342 -0.2683  0.1632  0.4985
  992MOL0     C33807  10.968  10.093   3.216 -1.0735  0.8106  0.3952
  992MOL0     C33808  11.048  10.062   3.085  0.1570 -0.3210 -0.6487
  992MOL0     O33809  11.134  10.163   3.051 -0.8074 -0.3292  0.1877
  992MOL0     C33810  11.197  10.157   2.929  0.4256  0.5136  0.9364
  992MOL0     C33811  11.328  10.208   2.911  0.0548 -0.5258  0.1172
  992MOL0     C33812  11.399  10.193   2.787 -0.7089 -0.4788 -1.1861
  992MOL0     C33813  11.342  10.139   2.674  0.2444  0.4541  0.9328
  992MOL0     C33814  11.407  10.135   2.541 -0.3587 -0.6178  0.4560
  992MOL0     O33815  11.340  10.089   2.434  0.0297 -0.9440  0.6214
  992MOL0     C33816  11.396  10.063   2.314 -0.8472  0.4589 -0.3545
  992MOL0     C33817  11.529  10.015   2.297  0.9654 -0.2091 -0.2336
  992MOL0     C33818  11.582   9.981   2.172 -0.7445 -0.6679  0.7090
  992MOL0     C33819  11.504  10.004   2.055  0.2927 -0.4085  0.2964
  992MOL0     O33820  11.577   9.984   1.927 -0.1159  0.1591 -0.1100
  992MOL0     C33821  11.506  10.021   1.819  0.4856  0.5004  0.5971
  992MOL0     C33822  11.508  10.177   1.802  0.1181 -0.4130  1.1530
  992MOL0     C33823  11.639  10.249   1.751  0.2315  0.5021  0.6114
  992MOL0     C33824  11.700  10.190   1.629  1.0006 -0.8623 -0.2061
  992MOL0     C33825  11.807  10.278   1.562  0.2050 -0.1501  0.2431
  992MOL0     C33826  11.768  10.420   1.525 -0.5284 -0.2274  0.0832
  992MOL0     C33827  11.877  10.490   1.436  0.1876 -0.9738 -0.1003
  992MOL0     C33828  11.831  10.633   1.387  0.1221  0.2807 -0.6032
  992MOL0    Cl33829  11.958  10.737   1.311  0.6513 -0.2703 -0.1629
  992MOL0     C33830  11.369  10.042   2.067 -0.4493  0.2927  0.7516
  992MOL0     C33831  11.317  10.079   2.198 -0.1008  0.5548  0.8957
  992MOL0     O33832  11.528  10.162   2.550  0.9082  0.1124  0.6047
  992MOL0     C33833  11.216  10.098   2.690  0.2721 -1.2501 -0.3525
  992MOL0     C33834  11.141  10.105   2.808 -0.1698 -0.3074  0.1145
  992MOL0     N33835  11.008  10.193   3.659 -0.2475  0.1012  0.0437
  992MOL0     N33836  10.966  10.308   3.695 -0.1738 -0.1848 -0.0685
  992MOL0     C33837  10.447  10.920   3.004  0.2632  0.0308  0.3873
  992MOL0     C33838  10.416  10.922   2.873  0.1309  1.6021  1.1807
  992MOL0     C33839  10.111  10.929   2.507  0.0373 -0.3844  1.4997
  992MOL0     C33840  10.158  11.045   2.442 -0.2377 -0.3318  0.7389
  992MOL0     C33841  10.149  11.055   2.308  0.4292 -0.0994 -0.3293
  992MOL0     C33842  10.077  10.966   2.236  0.0697  0.4569  0.2967
  992MOL0     O33843  10.058  10.997   2.104 -0.4775  0.2310 -0.3920
  992MOL0     C33844   9.922  11.013   2.052 -0.5213  0.6598  0.3475
  992MOL0     C33845   9.919  11.012   1.910  0.2276 -0.3053  0.3346
  992MOL0     C33846   9.987  10.901   1.833 -0.0643  0.4067  0.4334
  992MOL0     C33847   9.966  10.910   1.684 -0.1708 -0.2055 -0.1869
  992MOL0     C33848  10.080  10.976   1.608 -0.5687  0.4987 -0.0393
  992MOL0     C33849  10.154  11.019   1.523  0.0404  0.0922 -0.6548
  992MOL0     C33850  10.014  10.853   2.296  0.9470 -0.6966 -0.9267
  992MOL0     C33851  10.041  10.824   2.435 -0.7606 -1.2526 -0.0862
  992MOL0     C33852   9.995  10.690   2.496  0.6181 -0.4068 -0.0321
  992MOL0     H33853  10.095  11.033   2.900  0.1822  0.4530  0.1015
  992MOL0     H33854  10.167  11.025   3.143  0.2200  0.4283  0.2555
  992MOL0     H33855  10.301  11.087   3.344  2.1962 -0.1842  2.4524
  992MOL0     H33856  10.201  10.942   3.336 -0.9085  0.7518  0.9780
  992MOL0     H33857  10.285  10.972   3.545  1.5468  1.3671  1.6787
  992MOL0     H33858  10.449  11.005   3.487  1.7922 -4.0926 -0.4613
  992MOL0     H33859  10.451  10.765   3.398 -1.0216  2.5664  0.1146
  992MOL0     H33860  10.317  10.735   3.500 -0.9299  1.0858  3.2893
  992MOL0     H33861  10.586  10.851   3.607 -0.7925  0.7393 -0.7062
  992MOL0     H33862  10.442  10.808   3.699  0.4061 -2.8831  1.7382
  992MOL0     H33863  10.473  10.564   3.643  0.6612 -2.1794 -0.9156
  992MOL0     H33864  10.598  10.604   3.531 -0.0627  0.9632  0.7004
  992MOL0     H33865  10.721  10.721   3.733 -2.6161  2.1432 -0.8959
  992MOL0     H33866  10.603  10.627   3.834  0.2472 -1.2388  0.0156
  992MOL0     H33867  10.688  10.416   3.738  1.8313 -2.3871 -3.8276
  992MOL0     H33868  10.825  10.509   3.803 -0.2632  1.9380  0.7123
  992MOL0     H33869  10.780  10.507   3.504  0.2741  0.6681 -0.6027
  992MOL0     H33870  10.904  10.584   3.602 -0.1654 -0.3030 -0.1080
  992MOL0     H33871  10.848  10.305   3.398  2.6372  1.4388 -1.4542
  992MOL0     H33872  11.030   9.973   3.531  0.9184 -0.6225 -1.4015
  992MOL0     H33873  10.873  10.002   3.462 -0.3829 -0.3112  0.6537
  992MOL0     H33874  11.124  10.143   3.351  1.3487 -0.8412 -1.6104
  992MOL0     H33875  11.107   9.964   3.332  1.2819  0.9946  0.4313
  992MOL0     H33876  10.934  10.197   3.205 -0.7768  0.6896 -2.3157
  992MOL0     H33877  10.884  10.023   3.221  1.0252 -1.7386  2.5204
  992MOL0     H33878  10.973  10.041   3.007 -0.3638 -3.2569  0.5068
  992MOL0     H33879  11.098   9.965   3.083 -1.2124 -1.0421 -1.8634
  992MOL0     H33880  11.371  10.244   3.004  0.4643 -2.0740  0.5514
  992MOL0     H33881  11.498  10.237   2.778 -2.0485  3.5741  1.3685
  992MOL0     H33882  11.595  10.012   2.383  1.0883 -1.6394 -0.3514
  992MOL0     H33883  11.686   9.949   2.162  0.5329  2.5026  2.4564
  992MOL0     H33884  11.549   9.976   1.729 -0.9878  0.0633  0.0693
  992MOL0     H33885  11.407   9.975   1.829  0.8392  0.1659  3.3618
  992MOL0     H33886  11.430  10.206   1.731  0.3711 -0.0437  1.0257
  992MOL0     H33887  11.482  10.229   1.894 -1.6670  0.3910  0.2374
  992MOL0     H33888  11.616  10.356   1.742 -0.3048  0.2978 -0.6561
  992MOL0     H33889  11.717  10.240   1.827  0.6303  0.1298  0.1650
  992MOL0     H33890  11.620  10.176   1.556 -0.8930 -2.2925  1.9729
  992MOL0     H33891  11.738  10.091   1.654  1.3187 -0.6795  0.0462
  992MOL0     H33892  11.831  10.228   1.468  0.4065 -1.9860  1.2386
  992MOL0     H33893  11.901  10.285   1.617 -0.2757 -0.9966  1.1864
  992MOL0     H33894  11.672  10.427   1.474 -0.0352 -0.8018 -0.9493
  992MOL0     H33895  11.765  10.468   1.624  1.6295 -0.7666  0.4674
  992MOL0     H33896  11.897  10.434   1.344  0.2928 -1.9137  0.4833
  992MOL0     H33897  11.969  10.509   1.492  0.5020 -2.2664 -0.1437
  992MOL0     H33898  11.744  10.626   1.320  0.7748 -1.0651 -1.3427
  992MOL0     H33899  11.813  10.692   1.478  1.2341 -0.4191  0.0855
  992MOL0     H33900  11.309  10.046   1.977 -0.9231 -1.8963  0.9087
  992MOL0     H33901  11.213  10.108   2.212 -0.2372  0.1843  0.6628
  992MOL0     H33902  11.175  10.063   2.595  2.2571 -3.5386 -0.4520
  992MOL0     H33903  11.039  10.076   2.787  0.4724 -2.1820 -0.6015
  992MOL0     H33904  10.542  10.891   3.048  1.2345  0.1608 -1.5128
  992MOL0     H33905  10.484  10.871   2.805 -2.6444  0.1883 -0.7378
  992MOL0     H33906  10.218  11.111   2.504  2.6914 -2.4265  0.3929
  992MOL0     H33907  10.186  11.136   2.246 -0.9938 -0.0504 -1.1583
  992MOL0     H33908   9.894  11.109   2.097 -1.0542 -0.6172  2.9484
  992MOL0     H33909   9.858  10.931   2.085 -1.9793  0.4184 -2.7337
  992MOL0     H33910   9.969  11.105   1.883 -3.2666  3.2423  4.4374
  992MOL0     H33911   9.818  11.025   1.870 -0.4172  1.2724  2.2777
  992MOL0     H33912   9.944  10.807   1.869 -0.5723  0.1964 -0.6843
  992MOL0     H33913  10.094  10.900   1.856 -0.1880 -1.0373  1.0298
  992MOL0     H33914   9.947  10.809   1.648 -0.9365  0.1662 -0.8508
  992MOL0     H33915   9.878  10.973   1.669 -0.0797  0.2089  0.9299
  992MOL0     H33916  10.225  11.060   1.455  1.1463 -1.9149 -0.7629
  992MOL0     H33917   9.959  10.783   2.234 -3.3547  1.0394  0.5038
  992MOL0     H33918  10.046  10.660   2.588 -0.8825 -1.8971  0.3431
  992MOL0     H33919   9.889  10.708   2.512 -0.1248 -1.2413 -3.2435
  992MOL0     H33920  10.003  10.619   2.413  0.2668  1.6106 -1.8870
  993MOL0     O33921   4.776   4.024   9.958  0.5790 -0.1825 -0.4193
  993MOL0     C33922   4.796   3.918   9.899 -0.8452 -0.1863  0.5624
  993MOL0     O33923   4.887   3.904   9.793 -0.1778 -0.2971  0.0932
  993MOL0     C33924   4.945   4.011   9.731 -0.0511  0.2367 -1.2033
  993MOL0     C33925   4.876   4.134   9.709 -0.6590  0.0259 -1.0628
  993MOL0     C33926   4.934   4.230   9.624  1.3248  0.0023  0.3756
  993MOL0     C33927   5.064   4.209   9.563  0.0298 -0.5081  0.9941
  993MOL0     O33928   5.126   4.297   9.482 -0.2768 -0.4601 -0.3968
  993MOL0     C33929   5.045   4.336   9.368  0.0748  0.3561 -0.4096
  993MOL0     C33930   5.131   4.410   9.271 -0.4534 -0.1716  0.4786
  993MOL0     C33931   5.059   4.493   9.168 -0.1361 -1.1235  0.1978
  993MOL0     C33932   4.944   4.575   9.219  0.5773 -0.7621 -0.0543
  993MOL0     C33933   4.885   4.661   9.100  0.4184  0.0607  0.7617
  993MOL0     C33934   4.744   4.637   9.069 -0.1465  1.1492  0.9456
  993MOL0     C33935   4.682   4.740   8.964  0.0830  0.4002  0.0818
  993MOL0     C33936   4.559   4.666   8.909 -0.7015  0.4715 -1.1250
  993MOL0     N33937   4.454   4.646   9.016  0.0752  0.4487 -0.1736
  993MOL0     C33938   4.421   4.730   9.117 -0.1508  0.4595 -0.2470
  993MOL0     C33939   4.318   4.672   9.188  0.2376  0.1332  1.0273
  993MOL0     C33940   4.244   4.721   9.301  0.2158  0.1507  0.1184
  993MOL0     C33941   4.139   4.621   9.346  0.0893  0.5768  0.4802
  993MOL0     C33942   4.083   4.666   9.481 -0.4119  0.2772  0.3349
  993MOL0     C33943   4.043   4.561   9.575 -0.2135  0.1008 -0.7621
  993MOL0     O33944   3.970   4.614   9.683 -0.4300 -0.3068  0.2410
  993MOL0     C33945   3.841   4.674   9.661 -0.9342  0.6028 -0.8017
  993MOL0     C33946   3.788   4.772   9.742  0.7739  0.0848 -0.6288
  993MOL0     C33947   3.653   4.823   9.720  0.0725 -0.4932  0.9558
  993MOL0     C33948   3.568   4.773   9.622 -0.5973 -0.1267  0.5728
  993MOL0     C33949   3.440   4.838   9.584 -0.2490  0.1747 -0.1811
  993MOL0     O33950   3.365   4.892   9.681  0.7964  0.0451  0.0029
  993MOL0     C33951   3.230   4.922   9.665 -0.4203  0.8694  0.2469
  993MOL0     C33952   3.158   4.889   9.778 -0.1190  0.2806  0.4142
  993MOL0     C33953   3.037   4.922   9.803 -0.0772  0.3909  0.2287
  993MOL0     C33954   2.964   4.999   9.698 -0.6151  0.1425 -0.4192
  993MOL0     O33955   2.838   5.038   9.709 -0.6019 -0.6539 -0.1109
  993MOL0     C33956   2.771   5.038   9.836  0.2422  0.0489  0.6897
  993MOL0     C33957   2.637   5.099   9.812  1.1313 -0.0046 -0.2014
  993MOL0     C33958   2.554   5.071   9.930 -0.8592 -1.0202 -0.5235
  993MOL0     C33959   2.429   5.156   9.938  0.9511 -0.3251  0.3599
  993MOL0     C33960   2.322   5.084  10.031  0.3653 -0.4878  0.2202
  993MOL0     C33961   2.201   5.170  10.065 -0.0522  0.0012 -1.0431
  993MOL0     C33962   2.094   5.076  10.128 -1.0894  0.6470  0.6711
  993MOL0     C33963   1.944   5.120  10.102 -1.1637 -0.1569 -0.7786
  993MOL0    Cl33964   1.903   5.119   9.924  0.0548  0.2646  0.0675
  993MOL0     C33965   3.035   5.041   9.585  0.3816 -0.3903 -0.5186
  993MOL0     C33966   3.167   4.999   9.570 -0.0678  0.2253 -0.3100
  993MOL0     O33967   3.398   4.816   9.466  0.6054 -0.7828  0.9267
  993MOL0     C33968   3.624   4.670   9.542 -0.1339 -0.2576 -0.5460
  993MOL0     C33969   3.759   4.618   9.566  0.1636 -0.0371  1.0061
  993MOL0     N33970   4.299   4.539   9.132  0.2297 -0.0880 -0.1984
  993MOL0     N33971   4.372   4.532   9.024 -0.2678  0.1808 -1.0120
  993MOL0     C33972   5.128   4.096   9.586  0.2804 -0.0726 -0.4952
  993MOL0     C33973   5.067   3.995   9.666 -0.2097 -0.6512  0.1202
  993MOL0     C33974   4.707   3.805   9.944 -0.1963  0.3965  0.2496
  993MOL0     C33975   4.609   3.827  10.031  0.0364  0.1579 -0.8603
  993MOL0     C33976   4.520   3.730  10.069  0.4910  0.6765  0.3490
  993MOL0     C33977   4.527   3.592  10.020  0.1464  0.8830  0.4540
  993MOL0     O33978   4.453   3.481  10.058  0.4230 -0.7206 -0.7736
  993MOL0     C33979   4.366   3.498  10.171 -0.1751 -0.3457 -0.8861
  993MOL0     C33980   4.286   3.373  10.161  0.3416 -0.6696 -0.8178
  993MOL0     C33981   4.151   3.399  10.217  0.4887  0.4944 -0.5569
  993MOL0     C33982   4.057   3.283  10.186 -0.3042 -0.0807  0.4016
  993MOL0     C33983   4.100   3.153  10.241  0.1704 -0.2300  0.2083
  993MOL0     C33984   4.139   3.042  10.274 -0.9854  0.5956 -0.3968
  993MOL0     C33985   4.617   3.576   9.929 -0.8168 -0.0941  0.3354
  993MOL0     C33986   4.709   3.674   9.890  0.4003 -0.3149  1.5811
  993MOL0     C33987   4.807   3.638   9.775  0.7844 -0.1876 -0.1745
  993MOL0     H33988   4.775   4.152   9.745  0.0447 -1.1978  1.7911
  993MOL0     H33989   4.881   4.324   9.612  0.0237 -0.9087 -1.5708
  993MOL0     H33990   5.013   4.249   9.310 -0.0480  0.7532 -0.9347
  993MOL0     H33991   4.956   4.385   9.408 -0.7957 -1.2783 -0.2831
  993MOL0     H33992   5.192   4.345   9.207  2.5214  3.2890 -0.5299
  993MOL0     H33993   5.191   4.472   9.339  0.6062 -0.6994  0.0508
  993MOL0     H33994   5.023   4.432   9.085 -3.4783  0.7419  0.1252
  993MOL0     H33995   5.131   4.565   9.127  0.9477 -1.9363  0.6267
  993MOL0     H33996   4.863   4.520   9.267 -1.5586  1.9593 -0.2576
  993MOL0     H33997   4.981   4.647   9.292  2.8047 -0.4752 -1.3635
  993MOL0     H33998   4.900   4.763   9.135  0.0526 -1.0650  4.7192
  993MOL0     H33999   4.942   4.646   9.008 -1.3882  2.1869 -0.8072
  993MOL0     H34000   4.734   4.538   9.023  3.5623  0.5322  1.1838
  993MOL0     H34001   4.684   4.632   9.160 -0.7830 -1.3917  0.4639
  993MOL0     H34002   4.747   4.756   8.877  0.4502 -0.6658  0.1539
  993MOL0     H34003   4.665   4.841   9.002 -0.7956  1.0060 -1.8117
  993MOL0     H34004   4.511   4.722   8.828 -4.9853 -1.9370 -0.5866
  993MOL0     H34005   4.591   4.566   8.877 -0.2845 -0.4501  1.8484
  993MOL0     H34006   4.460   4.831   9.128 -1.4939  1.2065 -1.8363
  993MOL0     H34007   4.315   4.759   9.376 -3.0699 -1.4722  4.4568
  993MOL0     H34008   4.175   4.802   9.275  2.0531  2.2199  1.3504
  993MOL0     H34009   4.055   4.602   9.279 -0.8244 -0.5235  1.8631
  993MOL0     H34010   4.184   4.523   9.365  0.4322  0.7326  0.4718
  993MOL0     H34011   4.000   4.731   9.452  1.4767  3.8053  2.1859
  993MOL0     H34012   4.157   4.734   9.524  0.9321 -0.7020 -0.3294
  993MOL0     H34013   4.125   4.509   9.625 -0.1224 -0.7766 -1.8017
  993MOL0     H34014   3.993   4.485   9.515  1.2617 -0.5020 -1.2505
  993MOL0     H34015   3.838   4.812   9.830 -1.0557 -1.7613  1.3662
  993MOL0     H34016   3.630   4.911   9.780  2.1693  2.5882 -2.3232
  993MOL0     H34017   3.203   4.824   9.852  0.7729  0.4185  0.0142
  993MOL0     H34018   2.997   4.874   9.891 -0.7003  0.6485  0.0907
  993MOL0     H34019   2.756   4.933   9.866  2.0816 -1.0351 -1.8917
  993MOL0     H34020   2.817   5.101   9.912  2.4189  1.7738 -1.8930
  993MOL0     H34021   2.647   5.206   9.793  2.7671 -0.2993 -1.2149
  993MOL0     H34022   2.603   5.049   9.721  2.9559  0.1872 -1.0304
  993MOL0     H34023   2.531   4.964   9.927  0.8584 -1.3841 -2.0034
  993MOL0     H34024   2.625   5.090  10.011 -1.6255 -0.8353  0.1196
  993MOL0     H34025   2.383   5.166   9.839  0.4434 -0.6917  0.5589
  993MOL0     H34026   2.457   5.251   9.985 -2.4276  0.9208  0.1402
  993MOL0     H34027   2.364   5.037  10.121  1.2694 -1.3370 -0.6212
  993MOL0     H34028   2.281   5.000   9.975 -0.8978  0.7627 -0.8017
  993MOL0     H34029   2.215   5.253  10.134 -1.1234 -0.0805 -0.7105
  993MOL0     H34030   2.160   5.212   9.973 -2.5970  0.1537  0.0793
  993MOL0     H34031   2.116   5.074  10.235 -2.4696 -1.1893  0.9709
  993MOL0     H34032   2.105   4.971  10.103  3.1995  1.0434  0.2256
  993MOL0     H34033   1.886   5.046  10.158  0.1504 -0.7117 -0.1126
  993MOL0     H34034   1.932   5.223  10.137  1.1513  1.5995 -4.4544
  993MOL0     H34035   3.002   5.101   9.501  1.1810  0.7748 -0.0280
  993MOL0     H34036   3.224   5.033   9.484  0.3484  0.3532  0.0122
  993MOL0     H34037   3.570   4.619   9.463 -1.4035 -1.3370  0.9760
  993MOL0     H34038   3.789   4.533   9.506 -1.8851  1.1674 -1.9576
  993MOL0     H34039   5.226   4.077   9.544  0.7391 -0.4761  0.6935
  993MOL0     H34040   5.114   3.901   9.691  0.5648  0.1067  1.6572
  993MOL0     H34041   4.591   3.927  10.070  3.4255 -0.0414  1.6430
  993MOL0     H34042   4.448   3.760  10.145 -0.7924  0.3874 -0.7281
  993MOL0     H34043   4.300   3.585  10.160 -2.4691 -2.1520 -2.5775
  993MOL0     H34044   4.414   3.497  10.269 -1.9415  2.1684  0.1000
  993MOL0     H34045   4.337   3.297  10.221  2.0600  1.4066  0.5093
  993MOL0     H34046   4.276   3.342  10.057 -1.2649 -2.5389 -0.1843
  993MOL0     H34047   4.106   3.488  10.173  0.8673  1.9673  1.8660
  993MOL0     H34048   4.163   3.406  10.325  2.9093  0.1626 -0.7566
  993MOL0     H34049   3.955   3.314  10.208  0.5894  0.3584  4.7031
  993MOL0     H34050   4.074   3.264  10.079 -0.8758 -0.6991  0.4074
  993MOL0     H34051   4.179   2.945  10.298 -1.8375 -0.0969 -1.6474
  993MOL0     H34052   4.624   3.479   9.882  1.1197 -0.9455  2.2006
  993MOL0     H34053   4.828   3.700   9.688  2.3830 -0.8760 -0.3052
  993MOL0     H34054   4.898   3.621   9.832  1.9390 -1.5420 -2.2730
  993MOL0     H34055   4.774   3.541   9.735 -1.2958  0.2974  0.2505
  994MOL0     O34056  10.546   0.949   0.259  0.2128  0.9104 -0.1042
  994MOL0     C34057  10.655   0.937   0.304  0.2903  0.5119  0.1970
  994MOL0     O34058  10.765   0.907   0.230  0.4543  0.9851 -0.2109
  994MOL0     C34059  10.744   0.850   0.100  0.6742 -0.8644  0.5883
  994MOL0     C34060  10.678   0.723   0.096  0.9811 -0.4139  0.6596
  994MOL0     C34061  10.643   0.656  -0.024 -0.4221 -0.3892 -0.0082
  994MOL0     C34062  10.671   0.728  -0.143  0.6107  0.2990  0.2757
  994MOL0     O34063  10.646   0.668  -0.261  0.3937  0.1986 -0.0616
  994MOL0     C34064  10.647   0.523  -0.274 -0.3273 -1.0187  0.2149
  994MOL0     C34065  10.638   0.476  -0.423  0.2580  0.1407  0.0096
  994MOL0     C34066  10.767   0.515  -0.498  1.1797  0.4223  0.0719
  994MOL0     C34067  10.765   0.438  -0.634 -1.0404 -0.2946 -0.3550
  994MOL0     C34068  10.851   0.493  -0.749 -0.3785 -0.7624  0.1908
  994MOL0     C34069  10.989   0.511  -0.697 -0.6487  0.6236  0.6043
  994MOL0     C34070  11.073   0.581  -0.812 -0.3739 -1.1134  0.3380
  994MOL0     C34071  11.218   0.579  -0.782 -0.1552  1.0381 -0.1108
  994MOL0     N34072  11.272   0.440  -0.776 -0.4899 -0.2274  0.0515
  994MOL0     C34073  11.267   0.342  -0.877 -0.3189 -1.2349  0.2054
  994MOL0     C34074  11.383   0.278  -0.870 -0.2397  0.2381  0.2006
  994MOL0     C34075  11.448   0.205  -0.985  0.2256 -0.0379 -0.5001
  994MOL0     C34076  11.575   0.256  -1.054  0.1289 -0.5758  0.6082
  994MOL0     C34077  11.705   0.260  -0.957  1.0489  0.5919 -0.2990
  994MOL0     C34078  11.767   0.121  -0.937 -0.0507  0.4672  0.1132
  994MOL0     O34079  11.829   0.094  -1.059 -0.1330 -0.2670  0.3870
  994MOL0     C34080  11.943   0.018  -1.044 -0.0203  0.2403  0.1101
  994MOL0     C34081  11.950  -0.123  -1.022  0.5245 -0.5375  0.3256
  994MOL0     C34082  12.066  -0.190  -1.027 -0.2450  0.4529  0.9521
  994MOL0     C34083  12.192  -0.131  -1.049  0.6366  0.7262  0.5021
  994MOL0     C34084  12.319  -0.212  -1.054  0.1147  0.3239 -0.0856
  994MOL0     O34085  12.428  -0.151  -1.113  0.7567  0.7385  0.0598
  994MOL0     C34086  12.529  -0.230  -1.160 -0.0187  0.4261  1.1052
  994MOL0     C34087  12.534  -0.296  -1.287  0.0588 -0.3899 -1.1869
  994MOL0     C34088  12.657  -0.362  -1.319  1.1255 -0.0032  0.3482
  994MOL0     C34089  12.773  -0.350  -1.250  0.7677  0.1948  0.3430
  994MOL0     O34090  12.888  -0.409  -1.308  0.3097 -0.0500 -0.1959
  994MOL0     C34091  13.003  -0.414  -1.231 -0.7758  0.0530  0.8270
  994MOL0     C34092  13.124  -0.419  -1.323 -0.9928 -0.4252 -0.5748
  994MOL0     C34093  13.253  -0.411  -1.236 -0.1927 -0.3932  0.4880
  994MOL0     C34094  13.382  -0.399  -1.323 -0.2584 -0.2872 -0.2339
  994MOL0     C34095  13.510  -0.398  -1.232  0.6983 -1.0948  0.8543
  994MOL0     C34096  13.634  -0.410  -1.330  0.6263 -0.6130 -0.7752
  994MOL0     C34097  13.772  -0.417  -1.253  0.4236  0.2255  0.2375
  994MOL0     C34098  13.823  -0.287  -1.196 -0.9281 -0.6065  1.1073
  994MOL0    Cl34099  13.862  -0.175  -1.335 -0.1862  0.1607 -0.1094
  994MOL0     C34100  12.770  -0.278  -1.127 -0.2515 -0.0080 -0.1324
  994MOL0     C34101  12.646  -0.228  -1.075  0.3804 -0.5314  0.5121
  994MOL0     O34102  12.313  -0.330  -1.027  0.1958  0.3939  0.1149
  994MOL0     C34103  12.193   0.010  -1.074  0.3522 -0.0568 -0.4530
  994MOL0     C34104  12.068   0.079  -1.069  0.1884 -0.6454  0.3145
  994MOL0     N34105  11.452   0.317  -0.756 -0.0519  0.8547  0.1451
  994MOL0     N34106  11.388   0.415  -0.708  0.2022 -0.6418 -0.3149
  994MOL0     C34107  10.731   0.850  -0.139  0.2735 -0.1824 -0.2760
  994MOL0     C34108  10.758   0.920  -0.019 -0.2815  0.2584 -1.0324
  994MOL0     C34109  10.660   0.938   0.456 -0.6690  0.1447 -0.2304
  994MOL0     C34110  10.785   0.902   0.511  0.6616  0.4401 -0.3123
  994MOL0     C34111  10.820   0.920   0.646  0.8708  0.0423  0.4909
  994MOL0     C34112  10.725   0.965   0.737  0.2149 -0.3009 -0.3683
  994MOL0     O34113  10.760   0.997   0.867  0.6922 -0.1577 -1.2258
  994MOL0     C34114  10.894   0.985   0.919  0.4951 -0.1960 -0.4361
  994MOL0     C34115  10.903   1.054   1.056  0.1263 -0.7249 -1.1121
  994MOL0     C34116  11.041   1.038   1.125  1.0705 -0.7723  1.2104
  994MOL0     C34117  11.055   1.087   1.270  0.2801  0.4497 -0.2931
  994MOL0     C34118  10.992   1.214   1.281 -0.7706  0.2360 -0.0790
  994MOL0     C34119  10.956   1.326   1.271 -0.8472 -0.1891  0.0698
  994MOL0     C34120  10.595   0.989   0.688  0.2283  1.0404 -0.9213
  994MOL0     C34121  10.560   0.977   0.551  0.1196 -0.6970 -0.5456
  994MOL0     C34122  10.417   1.019   0.517  0.0236 -0.1873  0.3474
  994MOL0     H34123  10.659   0.676   0.191 -1.0233  1.6529  1.3666
  994MOL0     H34124  10.600   0.557  -0.016  4.4217 -2.6487  6.2714
  994MOL0     H34125  10.738   0.484  -0.228 -1.3331 -2.0870  1.3956
  994MOL0     H34126  10.558   0.491  -0.218 -2.1112  0.1944 -1.7827
  994MOL0     H34127  10.556   0.525  -0.477  3.5422  1.6232 -4.2803
  994MOL0     H34128  10.636   0.367  -0.412  2.3776  0.2336  2.0372
  994MOL0     H34129  10.858   0.489  -0.443 -0.4753 -1.4979  2.0805
  994MOL0     H34130  10.771   0.620  -0.527  1.1718  0.5223  0.4238
  994MOL0     H34131  10.800   0.340  -0.602  0.2156  0.9709  2.4416
  994MOL0     H34132  10.661   0.438  -0.670 -0.3947 -0.7515 -2.3905
  994MOL0     H34133  10.848   0.421  -0.831  1.7888 -2.6070  1.6116
  994MOL0     H34134  10.804   0.588  -0.778  0.4347  0.9331  3.8260
  994MOL0     H34135  10.995   0.570  -0.605 -1.4206  1.5200  0.1050
  994MOL0     H34136  11.027   0.414  -0.665  0.5445  1.3096  1.3171
  994MOL0     H34137  11.041   0.685  -0.818  0.6049 -0.8738 -1.5039
  994MOL0     H34138  11.054   0.543  -0.913 -3.2647 -1.0535  0.7488
  994MOL0     H34139  11.276   0.632  -0.857 -0.4389  1.5529  0.0317
  994MOL0     H34140  11.229   0.622  -0.682  1.6492  2.3784 -0.8375
  994MOL0     H34141  11.211   0.342  -0.970  0.0674 -3.7644 -0.1236
  994MOL0     H34142  11.460   0.107  -0.936  1.3768  0.8229  1.0527
  994MOL0     H34143  11.367   0.195  -1.057 -1.2360  2.2022  0.7224
  994MOL0     H34144  11.589   0.195  -1.144 -0.3629  0.2767 -0.0606
  994MOL0     H34145  11.552   0.357  -1.087  0.3619 -0.6592  0.1871
  994MOL0     H34146  11.686   0.318  -0.867 -2.9187 -1.6957  0.5500
  994MOL0     H34147  11.785   0.323  -0.998  1.1222  1.0193  0.4812
  994MOL0     H34148  11.691   0.056  -0.893  0.6936  1.5261  3.2731
  994MOL0     H34149  11.842   0.135  -0.858 -0.0460 -0.6474  0.3286
  994MOL0     H34150  11.853  -0.169  -1.006 -0.6901  1.6958 -0.1765
  994MOL0     H34151  12.061  -0.298  -1.022 -1.5012  0.2385 -2.4051
  994MOL0     H34152  12.446  -0.314  -1.348  0.0377 -0.2419 -1.2004
  994MOL0     H34153  12.646  -0.422  -1.409 -0.6520 -4.8187  3.3654
  994MOL0     H34154  13.010  -0.323  -1.171 -0.9968 -1.4127  3.1783
  994MOL0     H34155  13.009  -0.501  -1.165 -1.8632 -1.8005 -1.3718
  994MOL0     H34156  13.125  -0.513  -1.379  3.1655  1.0876 -3.6546
  994MOL0     H34157  13.117  -0.335  -1.393  1.0736 -0.9438 -1.4880
  994MOL0     H34158  13.264  -0.322  -1.174 -0.3608 -1.5747  2.3123
  994MOL0     H34159  13.262  -0.505  -1.181 -1.0626 -3.0124 -3.4226
  994MOL0     H34160  13.382  -0.306  -1.382  1.9170  0.8702  1.4509
  994MOL0     H34161  13.377  -0.487  -1.388 -1.0213 -0.8565  0.5708
  994MOL0     H34162  13.504  -0.477  -1.156  1.0469  0.2139  2.2944
  994MOL0     H34163  13.517  -0.305  -1.175 -1.3218 -0.2309 -0.2224
  994MOL0     H34164  13.641  -0.486  -1.409  4.2575  0.4489 -1.6711
  994MOL0     H34165  13.630  -0.314  -1.383  0.2553 -0.0088  0.3297
  994MOL0     H34166  13.846  -0.454  -1.323 -2.7570 -4.4169 -1.1275
  994MOL0     H34167  13.778  -0.489  -1.171  2.8763 -0.1167 -0.1786
  994MOL0     H34168  13.745  -0.237  -1.138 -2.0066 -1.7674  0.7087
  994MOL0     H34169  13.916  -0.305  -1.141  0.4497 -4.3799 -1.9730
  994MOL0     H34170  12.847  -0.273  -1.051 -1.2149  2.2867  0.7917
  994MOL0     H34171  12.643  -0.187  -0.974 -0.4400 -2.7232  1.4495
  994MOL0     H34172  12.286   0.060  -1.097 -1.1444  2.4843 -1.4130
  994MOL0     H34173  12.082   0.184  -1.094  3.2982 -1.6244 -2.8479
  994MOL0     H34174  10.742   0.903  -0.233  0.9782  1.8308  0.8753
  994MOL0     H34175  10.769   1.027  -0.032  0.6637  0.1345 -1.3084
  994MOL0     H34176  10.860   0.864   0.443 -0.0805  0.1761 -1.0035
  994MOL0     H34177  10.918   0.892   0.681  2.5760  2.0896 -2.2401
  994MOL0     H34178  10.967   1.032   0.853  0.4745  0.4526 -0.0006
  994MOL0     H34179  10.932   0.883   0.907  2.1347  0.5003 -1.5607
  994MOL0     H34180  10.823   1.034   1.128 -0.2203  4.6569  0.3754
  994MOL0     H34181  10.888   1.160   1.037  2.5046  0.0238  0.7328
  994MOL0     H34182  11.122   1.082   1.067 -0.2909 -1.0645 -1.0365
  994MOL0     H34183  11.065   0.932   1.134  1.7032 -0.4549  5.2985
  994MOL0     H34184  11.009   1.017   1.340  2.9223  0.3705  1.5196
  994MOL0     H34185  11.162   1.085   1.294  0.2279  3.1758  0.5301
  994MOL0     H34186  10.923   1.428   1.267 -0.2662 -0.0011  0.0083
  994MOL0     H34187  10.511   1.012   0.754 -1.6592 -1.1045 -2.4288
  994MOL0     H34188  10.369   0.935   0.467 -1.6924  1.4183 -0.8157
  994MOL0     H34189  10.354   1.025   0.606  0.8892 -1.3955  1.0830
  994MOL0     H34190  10.417   1.112   0.461 -0.5818  0.2810  1.1042
  995MOL0     O34191  10.403   1.658  10.873  0.0240 -0.2201  0.0297
  995MOL0     C34192  10.355   1.697  10.769  0.0797  0.8397  0.1449
  995MOL0     O34193  10.428   1.719  10.645 -0.3697 -0.2768 -0.2145
  995MOL0     C34194  10.560   1.770  10.672  0.3848  0.7086 -0.7098
  995MOL0     C34195  10.671   1.712  10.596 -0.6545  0.2280  0.7249
  995MOL0     C34196  10.803   1.766  10.601 -0.2188 -1.0904 -0.1158
  995MOL0     C34197  10.825   1.880  10.681 -0.2671 -0.4255 -0.4798
  995MOL0     O34198  10.936   1.955  10.670  0.0898  0.2090  0.2037
  995MOL0     C34199  10.988   1.981  10.542 -0.5611  0.5970  0.0279
  995MOL0     C34200  11.123   2.039  10.560  0.1940 -0.1377  0.4104
  995MOL0     C34201  11.181   2.118  10.440 -0.9422 -1.2048  0.7030
  995MOL0     C34202  11.332   2.125  10.433  0.2757  0.5361 -0.0558
  995MOL0     C34203  11.391   2.148  10.296  0.2614  0.3628  0.4257
  995MOL0     C34204  11.543   2.125  10.295 -0.4690  0.0597 -0.4988
  995MOL0     C34205  11.615   2.188  10.174 -0.1675 -1.3609 -0.0277
  995MOL0     C34206  11.761   2.141  10.185 -0.3867  0.7105 -0.0636
  995MOL0     N34207  11.857   2.207  10.096  0.0511  0.0858  0.3239
  995MOL0     C34208  11.976   2.271  10.136  0.2055  0.1278  0.2460
  995MOL0     C34209  12.017   2.357  10.039 -0.2334  0.0515  0.1072
  995MOL0     C34210  12.143   2.449  10.041  0.4961  0.3036  0.0273
  995MOL0     C34211  12.249   2.363   9.971  0.0606 -0.3241 -0.0635
  995MOL0     C34212  12.293   2.440   9.853 -0.4769 -0.3225 -0.3896
  995MOL0     C34213  12.355   2.578   9.885 -0.1162 -0.4684  0.1296
  995MOL0     O34214  12.410   2.624   9.766 -0.8158 -0.1549  0.1676
  995MOL0     C34215  12.547   2.659   9.782 -0.1535 -0.6603  0.6104
  995MOL0     C34216  12.586   2.789   9.748 -0.7345 -0.7080 -0.7942
  995MOL0     C34217  12.728   2.822   9.759  0.0147  0.0349  0.2971
  995MOL0     C34218  12.814   2.717   9.809 -0.1106 -0.1868  0.3999
  995MOL0     C34219  12.949   2.754   9.835 -0.5089  0.6526  0.3089
  995MOL0     O34220  13.036   2.653   9.875 -0.3763  0.5722  0.1685
  995MOL0     C34221  13.171   2.669   9.857 -0.6299 -0.0482 -0.2091
  995MOL0     C34222  13.247   2.676   9.974  0.7166 -0.1445  0.6257
  995MOL0     C34223  13.383   2.706   9.975  0.0106  0.5713 -0.0527
  995MOL0     C34224  13.457   2.700   9.852 -0.4561 -0.2766 -0.4603
  995MOL0     O34225  13.597   2.716   9.852 -0.4289  0.0036  0.7620
  995MOL0     C34226  13.657   2.833   9.910  0.3818 -0.2167 -0.1835
  995MOL0     C34227  13.791   2.849   9.835  0.3477  0.9066 -0.1684
  995MOL0     C34228  13.773   2.898   9.694  0.3320 -0.4175 -0.2010
  995MOL0     C34229  13.907   2.916   9.639 -0.2359  0.2986 -0.8614
  995MOL0     C34230  13.973   2.776   9.606  0.4221 -0.7022 -0.6457
  995MOL0     C34231  14.065   2.774   9.489  0.1199  0.4940  1.3748
  995MOL0     C34232  14.189   2.864   9.504  0.2496  0.3988  0.1420
  995MOL0     C34233  14.288   2.838   9.388  0.6168 -0.3098  0.2566
  995MOL0    Cl34234  14.431   2.936   9.395  0.0078 -0.5045  0.4828
  995MOL0     C34235  13.386   2.686   9.734  0.9927 -0.7351 -0.9008
  995MOL0     C34236  13.243   2.661   9.741  0.6777 -0.1427  0.4286
  995MOL0     O34237  12.983   2.873   9.822 -0.2460  0.4024  0.0438
  995MOL0     C34238  12.770   2.584   9.834  0.2782  0.4703 -0.3940
  995MOL0     C34239  12.637   2.563   9.820  0.2989  0.2396  0.4736
  995MOL0     N34240  11.910   2.363   9.946  0.2450 -0.2022  0.1014
  995MOL0     N34241  11.829   2.256   9.975 -0.0037  0.2921 -0.3930
  995MOL0     C34242  10.721   1.946  10.745  0.0650  0.1902 -1.0240
  995MOL0     C34243  10.589   1.884  10.749  0.4111 -0.3962 -0.2577
  995MOL0     C34244  10.212   1.718  10.750 -0.3100 -0.5242  0.5860
  995MOL0     C34245  10.154   1.692  10.628  0.0359  0.4852  0.1852
  995MOL0     C34246  10.024   1.706  10.601 -0.5284  0.6994 -1.1169
  995MOL0     C34247   9.932   1.734  10.693 -0.0291  0.5180  0.3648
  995MOL0     O34248   9.803   1.734  10.652  0.0098  0.2117 -0.1787
  995MOL0     C34249   9.713   1.806  10.739  0.9577  0.0447  0.2723
  995MOL0     C34250   9.566   1.795  10.695 -0.0090  0.1963  0.3648
  995MOL0     C34251   9.509   1.653  10.736 -0.4574 -0.0038  0.0093
  995MOL0     C34252   9.348   1.646  10.736 -0.5129  0.3050 -0.3748
  995MOL0     C34253   9.298   1.562  10.857  0.2773 -1.4515  0.6206
  995MOL0     C34254   9.283   1.512  10.961  0.0396  0.0400 -0.3302
  995MOL0     C34255   9.977   1.762  10.823 -0.3185 -0.5664 -0.1022
  995MOL0     C34256  10.119   1.759  10.851  0.3661  0.1398 -0.3697
  995MOL0     C34257  10.160   1.792  10.986 -0.9930  0.3016 -0.6978
  995MOL0     H34258  10.659   1.613  10.552 -1.1362  1.0219 -1.0406
  995MOL0     H34259  10.884   1.701  10.568 -0.4867 -0.9356 -1.1113
  995MOL0     H34260  10.992   1.888  10.484 -2.0853 -0.5407  1.6714
  995MOL0     H34261  10.922   2.046  10.483 -0.4676  1.2139  0.5835
  995MOL0     H34262  11.204   1.968  10.579  1.1991  0.2953 -1.8156
  995MOL0     H34263  11.118   2.108  10.644 -1.5665 -0.8538  0.9444
  995MOL0     H34264  11.136   2.218  10.437  2.2699  0.3688  0.1499
  995MOL0     H34265  11.156   2.071  10.344  1.9852  0.8177 -1.2544
  995MOL0     H34266  11.365   2.199  10.507 -2.0943  1.7821 -0.1269
  995MOL0     H34267  11.356   2.023  10.462 -2.6299 -0.5736 -1.2072
  995MOL0     H34268  11.354   2.083  10.216  1.7430 -1.8419  1.4405
  995MOL0     H34269  11.358   2.248  10.266 -1.1100 -0.4841 -1.0237
  995MOL0     H34270  11.596   2.170  10.379  2.2867  0.3582 -2.2796
  995MOL0     H34271  11.551   2.016  10.295  0.2463  0.1050 -1.2153
  995MOL0     H34272  11.605   2.296  10.181  1.9088 -0.7917 -3.5606
  995MOL0     H34273  11.564   2.161  10.082  0.5113  0.3204 -0.9383
  995MOL0     H34274  11.803   2.164  10.284  2.3770  1.9706 -1.4196
  995MOL0     H34275  11.763   2.037  10.151 -1.1455  0.7962 -0.3752
  995MOL0     H34276  12.030   2.258  10.229 -0.7734 -0.2091  0.7684
  995MOL0     H34277  12.126   2.544   9.991  2.7025  0.4545 -0.5703
  995MOL0     H34278  12.166   2.450  10.148 -0.5253 -0.0798  0.2587
  995MOL0     H34279  12.327   2.335  10.042 -0.8458  2.0602  2.0191
  995MOL0     H34280  12.219   2.265   9.932  2.7066 -1.3024  0.1598
  995MOL0     H34281  12.207   2.450   9.785  0.2205 -1.2847 -1.4398
  995MOL0     H34282  12.363   2.377   9.799 -2.4388 -1.4439 -1.7481
  995MOL0     H34283  12.430   2.561   9.963  0.4556  0.3855 -0.2163
  995MOL0     H34284  12.279   2.649   9.922 -0.5642 -1.3106  0.8615
  995MOL0     H34285  12.519   2.868   9.717 -0.3225  0.7803  1.8309
  995MOL0     H34286  12.763   2.918   9.723  1.4281 -0.0155  1.4700
  995MOL0     H34287  13.199   2.669  10.071 -2.7267 -1.9839 -1.0298
  995MOL0     H34288  13.423   2.725  10.074  2.0221 -1.7985 -0.3375
  995MOL0     H34289  13.588   2.915   9.891 -0.6873 -0.8816  0.6885
  995MOL0     H34290  13.676   2.819  10.017  0.2719 -3.1740 -0.4570
  995MOL0     H34291  13.863   2.914   9.887  3.3256 -1.7273 -0.6591
  995MOL0     H34292  13.838   2.750   9.839 -3.4968 -1.0502  2.0314
  995MOL0     H34293  13.702   2.827   9.651 -0.6612 -0.4974  1.4680
  995MOL0     H34294  13.719   2.993   9.694 -2.4707 -1.8695  1.1090
  995MOL0     H34295  13.965   2.987   9.700 -0.2582 -2.4802  2.7034
  995MOL0     H34296  13.897   2.972   9.545 -3.1674 -1.9574 -2.0446
  995MOL0     H34297  13.892   2.705   9.590 -0.9429  0.5464  0.4755
  995MOL0     H34298  14.031   2.747   9.694  1.2751  1.9707 -0.2060
  995MOL0     H34299  14.094   2.670   9.470  1.7982  1.2788 -0.8153
  995MOL0     H34300  14.005   2.787   9.398  1.6399 -0.6355  0.1578
  995MOL0     H34301  14.232   2.847   9.603 -0.2203 -0.1087  0.2646
  995MOL0     H34302  14.154   2.968   9.506  0.8250  0.6646 -1.5629
  995MOL0     H34303  14.319   2.734   9.402  4.3912  0.7186  0.6978
  995MOL0     H34304  14.228   2.847   9.297 -0.6970 -2.1483  0.9070
  995MOL0     H34305  13.421   2.703   9.633  1.0839  0.8297 -0.6294
  995MOL0     H34306  13.181   2.652   9.652  0.1771  1.3026  0.6078
  995MOL0     H34307  12.829   2.503   9.876 -2.4035 -1.4207  0.0239
  995MOL0     H34308  12.611   2.459   9.839 -2.1406 -0.3597 -4.5873
  995MOL0     H34309  10.752   2.040  10.789 -1.5498 -0.1094  0.8875
  995MOL0     H34310  10.512   1.936  10.806  1.0705  1.4853 -0.9859
  995MOL0     H34311  10.216   1.665  10.544 -0.4495 -3.0965  0.8170
  995MOL0     H34312   9.990   1.691  10.498 -0.7688  1.7206 -1.1985
  995MOL0     H34313   9.736   1.911  10.720  1.3992  0.0021  0.5553
  995MOL0     H34314   9.721   1.783  10.846  0.2735 -1.5122  0.0254
  995MOL0     H34315   9.557   1.805  10.586  2.6738 -0.7200 -0.0083
  995MOL0     H34316   9.507   1.878  10.735 -1.5720  0.5081 -2.3183
  995MOL0     H34317   9.548   1.625  10.834 -1.8608  1.6070  1.0859
  995MOL0     H34318   9.541   1.574  10.668 -4.4683 -3.5345  1.7795
  995MOL0     H34319   9.308   1.747  10.750 -0.1680  0.4411 -0.3720
  995MOL0     H34320   9.300   1.612  10.644 -0.2326  1.5379 -1.0008
  995MOL0     H34321   9.294   1.479  11.063  1.6723  0.2703 -0.3995
  995MOL0     H34322   9.907   1.787  10.903  0.0926  0.9625 -0.1909
  995MOL0     H34323  10.081   1.841  11.045 -3.2051 -0.5968 -2.7464
  995MOL0     H34324  10.202   1.700  11.027 -2.0481 -0.9232 -2.2396
  995MOL0     H34325  10.238   1.867  10.969  0.5979 -1.5513 -1.9921
  996MOL0     O34326   8.031   6.866   9.217 -0.2252  0.2510 -0.2192
  996MOL0     C34327   8.010   6.973   9.165 -0.0563 -0.3798  0.1485
  996MOL0     O34328   8.110   7.071   9.146 -0.2410 -0.7242 -0.6376
  996MOL0     C34329   8.237   7.053   9.195  0.2453  0.0302 -0.4233
  996MOL0     C34330   8.339   7.022   9.113 -0.0235  0.4712  1.0348
  996MOL0     C34331   8.475   7.026   9.159  0.2727  0.2234 -0.3738
  996MOL0     C34332   8.503   7.055   9.291  0.2519 -1.5877 -0.5649
  996MOL0     O34333   8.636   7.046   9.316 -0.6236  0.1653  0.3376
  996MOL0     C34334   8.698   7.037   9.448 -0.3114 -0.5005  0.4044
  996MOL0     C34335   8.844   7.021   9.437 -0.0878 -0.1324  0.5020
  996MOL0     C34336   8.920   7.037   9.564 -0.1426 -0.2850  0.5295
  996MOL0     C34337   8.892   6.943   9.672 -0.0952  1.2694  0.7976
  996MOL0     C34338   9.011   6.955   9.779 -0.0207 -0.1611  0.4182
  996MOL0     C34339   8.994   6.877   9.904 -0.3352 -0.0338  0.4109
  996MOL0     C34340   9.062   6.741   9.904  0.3192 -0.3817  0.0359
  996MOL0     C34341   8.980   6.629   9.842 -0.1223  1.0750 -0.0227
  996MOL0     N34342   9.061   6.500   9.842 -0.2560 -0.8504 -0.0871
  996MOL0     C34343   9.116   6.433   9.957  0.2867  0.3044 -0.1168
  996MOL0     C34344   9.163   6.316   9.913 -1.0308 -0.0394  0.2114
  996MOL0     C34345   9.237   6.203   9.984  0.2003 -0.8556 -0.3362
  996MOL0     C34346   9.132   6.129  10.072  0.2232  0.5838 -0.4557
  996MOL0     C34347   9.010   6.073   9.991  0.7388  0.1405 -0.2582
  996MOL0     C34348   9.045   5.951   9.907  0.9007 -0.5162  0.5376
  996MOL0     O34349   9.048   5.834   9.995  0.6830 -0.6525  0.8326
  996MOL0     C34350   9.150   5.750   9.975 -0.6130 -0.5478 -0.5518
  996MOL0     C34351   9.273   5.764  10.041 -0.2375 -0.5695 -0.5472
  996MOL0     C34352   9.383   5.677  10.011 -0.5234  0.7481  0.5503
  996MOL0     C34353   9.372   5.587   9.905 -0.1496 -0.1708 -0.6977
  996MOL0     C34354   9.488   5.492   9.878  0.8888  0.0310 -0.4272
  996MOL0     O34355   9.465   5.418   9.773  0.1887  0.9944  0.2189
  996MOL0     C34356   9.510   5.293   9.750 -0.6039  0.2601 -0.6541
  996MOL0     C34357   9.569   5.206   9.848  0.9378 -0.0148 -0.4895
  996MOL0     C34358   9.615   5.086   9.815 -0.7107  0.0735  0.5040
  996MOL0     C34359   9.610   5.025   9.692  0.1352  0.1640  0.2155
  996MOL0     O34360   9.663   4.899   9.663  0.1921  0.2050 -0.1049
  996MOL0     C34361   9.638   4.826   9.547 -0.7540 -0.1840 -0.2438
  996MOL0     C34362   9.681   4.679   9.571  0.1847  0.4397 -0.5084
  996MOL0     C34363   9.662   4.587   9.450  0.3229  0.7856  0.8006
  996MOL0     C34364   9.527   4.581   9.379  0.1665 -0.1673 -0.3176
  996MOL0     C34365   9.405   4.529   9.469 -0.2667  0.6929  0.6505
  996MOL0     C34366   9.386   4.375   9.465  0.2269  0.6231 -0.7775
  996MOL0     C34367   9.335   4.333   9.324 -0.2560 -0.2281 -0.0231
  996MOL0     C34368   9.284   4.183   9.318 -0.8117 -0.4629 -0.9313
  996MOL0    Cl34369   9.144   4.158   9.224 -0.1973  0.2722  0.4003
  996MOL0     C34370   9.545   5.102   9.593  1.2266  1.1426 -0.1832
  996MOL0     C34371   9.493   5.238   9.622  0.3876  0.0670  1.0042
  996MOL0     O34372   9.576   5.478   9.957 -0.0489 -0.6703 -0.6621
  996MOL0     C34373   9.255   5.575   9.832  0.2550 -0.5217 -0.2782
  996MOL0     C34374   9.142   5.650   9.875  0.5154  0.2769 -0.5257
  996MOL0     N34375   9.135   6.311   9.775 -0.5440  0.0569  0.6186
  996MOL0     N34376   9.081   6.421   9.736  0.0289  0.0833 -0.3324
  996MOL0     C34377   8.401   7.084   9.380  0.6759  0.6865 -0.6032
  996MOL0     C34378   8.265   7.083   9.327  0.3580  0.9492 -0.5436
  996MOL0     C34379   7.877   6.999   9.101  0.0057 -1.0790  0.0287
  996MOL0     C34380   7.772   7.051   9.176  0.0840  0.3584 -0.7883
  996MOL0     C34381   7.645   7.068   9.120  0.1777  1.6385  0.5916
  996MOL0     C34382   7.617   7.031   8.981  0.0844  0.2393 -0.6399
  996MOL0     O34383   7.497   7.042   8.915 -0.5616 -0.3933  0.5856
  996MOL0     C34384   7.369   7.009   8.975 -0.2594  0.0195 -1.0240
  996MOL0     C34385   7.312   6.906   8.889  0.8503  0.2416 -0.1777
  996MOL0     C34386   7.254   6.965   8.761 -0.5658  0.3101  0.7391
  996MOL0     C34387   7.247   6.855   8.651  0.0131 -0.2485  0.3813
  996MOL0     C34388   7.187   6.911   8.527 -0.1079  0.7818  0.6321
  996MOL0     C34389   7.121   6.951   8.428 -1.1912 -0.1640 -0.2887
  996MOL0     C34390   7.720   6.971   8.910 -0.6718 -0.5463 -0.6431
  996MOL0     C34391   7.850   6.955   8.970  0.7493 -0.9300 -0.4900
  996MOL0     C34392   7.949   6.874   8.897 -1.1760 -0.5203 -0.4111
  996MOL0     H34393   8.332   7.000   9.007  0.4928  0.2991  1.0310
  996MOL0     H34394   8.552   7.000   9.087  0.7010  2.2058 -0.7135
  996MOL0     H34395   8.687   7.137   9.491 -0.3568 -0.8937  1.3383
  996MOL0     H34396   8.642   6.964   9.508  0.5414  0.3333  2.3014
  996MOL0     H34397   8.890   7.089   9.364  0.0777  0.5793  1.2509
  996MOL0     H34398   8.855   6.919   9.401  2.1894  0.2231  0.0641
  996MOL0     H34399   8.903   7.136   9.608  0.6543  0.7330 -1.3486
  996MOL0     H34400   9.026   7.045   9.540 -0.3686  2.6152  0.1197
  996MOL0     H34401   8.804   6.975   9.728 -0.8722 -0.5477  0.6955
  996MOL0     H34402   8.886   6.840   9.634 -2.2799  0.0133  4.0720
  996MOL0     H34403   9.103   6.924   9.727 -0.3750  0.6383 -0.7284
  996MOL0     H34404   9.018   7.061   9.804  1.4595  0.4759 -2.2678
  996MOL0     H34405   9.038   6.941   9.982 -1.6972 -0.5259  1.6348
  996MOL0     H34406   8.887   6.874   9.928 -0.3979  0.6670  0.2485
  996MOL0     H34407   9.102   6.723  10.005  3.0026 -1.4097 -1.1146
  996MOL0     H34408   9.148   6.756   9.838 -0.3567  2.4395 -0.3397
  996MOL0     H34409   8.888   6.616   9.900  1.8953  1.3708  3.5477
  996MOL0     H34410   8.967   6.654   9.737 -0.1919  0.4401 -0.1677
  996MOL0     H34411   9.118   6.471  10.059  2.6267  5.2148 -1.6441
  996MOL0     H34412   9.284   6.130   9.918 -1.7005 -1.2169 -1.3623
  996MOL0     H34413   9.314   6.251  10.044  1.0137 -1.5532 -0.8072
  996MOL0     H34414   9.170   6.039  10.121 -1.7513 -0.4674 -0.7259
  996MOL0     H34415   9.095   6.188  10.156  3.8852 -0.6663  2.3060
  996MOL0     H34416   8.984   6.153   9.921  1.0177  1.2095  0.8033
  996MOL0     H34417   8.921   6.054  10.052  2.0986 -0.9653  1.4698
  996MOL0     H34418   9.131   5.968   9.842 -0.6709 -0.4698 -1.6465
  996MOL0     H34419   8.953   5.947   9.848 -0.6054  2.4110  2.4034
  996MOL0     H34420   9.284   5.823  10.131  4.4580  0.6658 -1.6643
  996MOL0     H34421   9.475   5.688  10.067 -0.9129  3.2619  0.8247
  996MOL0     H34422   9.582   5.232   9.953  0.6142  0.6090 -0.5993
  996MOL0     H34423   9.672   5.039   9.894  1.1348  3.1504  1.1634
  996MOL0     H34424   9.533   4.830   9.516 -0.8587  2.2849  0.2283
  996MOL0     H34425   9.697   4.884   9.476 -0.6709 -2.0025 -1.7371
  996MOL0     H34426   9.788   4.675   9.593  0.2974  0.5398 -1.0047
  996MOL0     H34427   9.627   4.631   9.653 -0.7806 -0.2725 -1.5239
  996MOL0     H34428   9.732   4.635   9.382  2.3208 -1.5312  1.0868
  996MOL0     H34429   9.684   4.483   9.476 -0.5380  0.4156  0.1347
  996MOL0     H34430   9.549   4.515   9.294  1.7406 -1.3835  0.9654
  996MOL0     H34431   9.494   4.679   9.343 -2.3696 -1.1694 -0.9769
  996MOL0     H34432   9.307   4.559   9.432  1.0952  1.4208 -2.7337
  996MOL0     H34433   9.415   4.570   9.570  0.4180  0.7272  0.5762
  996MOL0     H34434   9.482   4.333   9.497  0.0874 -1.3451 -2.7199
  996MOL0     H34435   9.312   4.351   9.542  1.9693 -1.1344  0.4474
  996MOL0     H34436   9.418   4.354   9.256  1.4200 -1.9913  1.3568
  996MOL0     H34437   9.242   4.383   9.295 -1.5854 -1.8131  1.2850
  996MOL0     H34438   9.369   4.125   9.280 -2.7616 -1.4320 -4.2203
  996MOL0     H34439   9.259   4.153   9.420 -0.5565 -0.7224 -0.9423
  996MOL0     H34440   9.530   5.070   9.491  1.4837 -1.3525  0.4944
  996MOL0     H34441   9.454   5.304   9.546 -0.1311 -2.3359 -0.9675
  996MOL0     H34442   9.239   5.498   9.757 -2.1962 -1.6286  1.2491
  996MOL0     H34443   9.047   5.639   9.824 -0.3984 -0.5033  1.2818
  996MOL0     H34444   8.413   7.095   9.487 -1.3311 -0.8640 -0.1584
  996MOL0     H34445   8.177   7.084   9.391  0.9277  0.2375  0.2669
  996MOL0     H34446   7.794   7.091   9.275  1.3439  2.0788 -1.7079
  996MOL0     H34447   7.567   7.118   9.178  0.1244  1.0642  1.0157
  996MOL0     H34448   7.295   7.089   8.987  0.2676  0.1712  2.0767
  996MOL0     H34449   7.386   6.969   9.075 -0.1207  2.8947  0.2054
  996MOL0     H34450   7.225   6.851   8.927 -1.0937  3.0215 -0.2911
  996MOL0     H34451   7.395   6.838   8.865 -1.9136 -2.2723 -3.7015
  996MOL0     H34452   7.311   7.053   8.729  4.5926 -3.6146 -2.5485
  996MOL0     H34453   7.149   6.985   8.782 -1.0008 -0.7901 -0.2655
  996MOL0     H34454   7.348   6.823   8.627 -0.8646 -0.2233 -4.1410
  996MOL0     H34455   7.187   6.774   8.694 -0.7015  0.8977  1.6577
  996MOL0     H34456   7.066   6.973   8.338 -1.7501 -1.6178 -0.3162
  996MOL0     H34457   7.708   6.929   8.811  0.6788 -0.4158 -0.8793
  996MOL0     H34458   7.953   6.781   8.955  1.1964 -0.7079 -0.7894
  996MOL0     H34459   7.934   6.872   8.789  1.4605 -1.2193 -0.8231
  996MOL0     H34460   8.044   6.928   8.903 -0.2812 -1.4944 -3.9079
  997MOL0     O34461   8.998   4.456   8.298 -0.7763 -0.0809 -0.2054
  997MOL0     C34462   8.893   4.391   8.320 -0.5140  0.2092 -0.1244
  997MOL0     O34463   8.894   4.256   8.340  0.0031  0.0274 -0.1850
  997MOL0     C34464   9.014   4.182   8.323  0.4591 -0.6447 -0.4046
  997MOL0     C34465   9.096   4.140   8.426 -0.7972 -0.5571 -0.4113
  997MOL0     C34466   9.207   4.070   8.390  1.3752  0.3246  0.5207
  997MOL0     C34467   9.253   4.058   8.259  0.3410 -0.0987 -0.2478
  997MOL0     O34468   9.372   3.988   8.235 -0.4255 -0.1256  0.1889
  997MOL0     C34469   9.367   3.897   8.127  0.0263  0.0061 -0.4136
  997MOL0     C34470   9.477   3.914   8.034 -1.0565  0.3812 -0.1720
  997MOL0     C34471   9.598   3.839   8.083 -1.3005 -0.0376 -0.1514
  997MOL0     C34472   9.728   3.867   8.012 -0.5422  0.3238  0.6075
  997MOL0     C34473   9.850   3.820   8.098 -0.3374  0.2684 -0.4330
  997MOL0     C34474   9.981   3.846   8.028 -0.4807  0.2699  0.1487
  997MOL0     C34475  10.107   3.843   8.129  0.0610 -0.1295 -0.4750
  997MOL0     C34476  10.246   3.839   8.064  1.0317 -0.3682  0.3040
  997MOL0     N34477  10.346   3.774   8.157  0.3921  0.7219  0.6007
  997MOL0     C34478  10.371   3.638   8.150  0.3305  0.3706 -0.6757
  997MOL0     C34479  10.496   3.626   8.193 -0.5446 -0.7840  0.4292
  997MOL0     C34480  10.577   3.501   8.181 -0.9196 -0.2925 -0.3882
  997MOL0     C34481  10.616   3.445   8.314  0.0473  0.5266 -0.0878
  997MOL0     C34482  10.728   3.342   8.288 -0.0595  0.2809  0.7314
  997MOL0     C34483  10.766   3.258   8.405 -0.6577  0.1912  0.3555
  997MOL0     O34484  10.864   3.169   8.341 -0.1702 -0.2793 -0.7041
  997MOL0     C34485  10.908   3.069   8.424 -0.4062 -0.7125  0.0913
  997MOL0     C34486  10.831   2.961   8.461 -0.1007  1.3417 -0.1883
  997MOL0     C34487  10.890   2.858   8.530 -1.3544  0.0614 -0.6430
  997MOL0     C34488  11.022   2.862   8.571 -0.7197  0.7014  0.0852
  997MOL0     C34489  11.097   2.741   8.614 -0.4109  0.0960  0.7688
  997MOL0     O34490  11.230   2.732   8.578  1.2970  0.7131  0.3780
  997MOL0     C34491  11.289   2.609   8.608 -0.8953  0.0299 -0.1189
  997MOL0     C34492  11.327   2.592   8.739  0.6617  0.5263  0.2148
  997MOL0     C34493  11.395   2.472   8.773  0.2650  0.1485  0.2828
  997MOL0     C34494  11.428   2.376   8.682 -0.8810 -0.4004  0.6449
  997MOL0     O34495  11.509   2.269   8.707  0.4862  0.4341 -0.1633
  997MOL0     C34496  11.484   2.187   8.820 -0.0640 -0.2055 -0.0784
  997MOL0     C34497  11.609   2.167   8.901  0.1176 -0.8258 -0.0515
  997MOL0     C34498  11.595   2.147   9.052 -0.4537  0.0617  0.9404
  997MOL0     C34499  11.612   2.270   9.142  0.4159  0.6505 -0.6392
  997MOL0     C34500  11.665   2.244   9.281  0.2274  0.2040 -0.3523
  997MOL0     C34501  11.750   2.361   9.328 -0.3936  0.3752  0.0354
  997MOL0     C34502  11.673   2.498   9.319  1.1651 -0.5583  0.8959
  997MOL0     C34503  11.749   2.613   9.390  0.7240  0.4206  0.8971
  997MOL0    Cl34504  11.660   2.769   9.393  0.1758  0.0005 -0.0832
  997MOL0     C34505  11.380   2.393   8.549  0.0328 -0.0959 -0.1524
  997MOL0     C34506  11.303   2.507   8.513 -0.7702 -0.5141 -0.7801
  997MOL0     O34507  11.040   2.647   8.659 -0.4223  0.5557 -0.0348
  997MOL0     C34508  11.100   2.974   8.542  0.4416 -0.1919  0.2306
  997MOL0     C34509  11.048   3.078   8.464  0.5260  0.4702  0.5613
  997MOL0     N34510  10.534   3.748   8.243 -0.2239  0.5575  0.4419
  997MOL0     N34511  10.449   3.833   8.213 -1.2495 -0.6173  1.9005
  997MOL0     C34512   9.168   4.107   8.159 -0.3333 -0.0769  0.1111
  997MOL0     C34513   9.042   4.172   8.187 -0.4918  0.6949 -0.0684
  997MOL0     C34514   8.767   4.448   8.297  0.6823 -0.8759  0.5972
  997MOL0     C34515   8.679   4.450   8.407 -0.3746  0.0229 -0.5963
  997MOL0     C34516   8.558   4.517   8.410  0.1941 -0.2926 -0.0975
  997MOL0     C34517   8.510   4.582   8.292  0.2085  0.8697 -0.7723
  997MOL0     O34518   8.391   4.643   8.277  1.0427 -0.3701  0.3283
  997MOL0     C34519   8.304   4.660   8.397  0.0914 -0.2452 -0.3472
  997MOL0     C34520   8.216   4.542   8.416  0.3162 -1.0235  0.4970
  997MOL0     C34521   8.079   4.580   8.490 -1.2396  0.6232 -0.2058
  997MOL0     C34522   8.089   4.613   8.637  0.4590 -0.3606 -0.5980
  997MOL0     C34523   7.953   4.610   8.696  0.1309 -1.0440 -0.4994
  997MOL0     C34524   7.843   4.615   8.745  0.2625  0.1115  0.8534
  997MOL0     C34525   8.587   4.567   8.178 -0.8098  0.6641  0.3554
  997MOL0     C34526   8.712   4.504   8.176 -0.6172  0.1472 -0.3064
  997MOL0     C34527   8.789   4.507   8.048 -0.3899 -0.8666 -1.3150
  997MOL0     H34528   9.080   4.162   8.531  0.5749 -4.1734  0.7085
  997MOL0     H34529   9.269   4.047   8.476  0.7125 -2.2105  0.4021
  997MOL0     H34530   9.380   3.794   8.161  1.6434  0.4457  0.3820
  997MOL0     H34531   9.274   3.897   8.068 -0.0536  2.3065 -0.3910
  997MOL0     H34532   9.498   4.020   8.018 -0.9855 -0.0820 -4.3177
  997MOL0     H34533   9.441   3.868   7.941 -0.9212 -5.2020  2.1289
  997MOL0     H34534   9.574   3.733   8.071  2.0297 -1.0752  1.0887
  997MOL0     H34535   9.615   3.861   8.189  1.0214  1.3131 -0.7272
  997MOL0     H34536   9.733   3.821   7.913  0.2352  0.5380  0.5435
  997MOL0     H34537   9.731   3.975   8.001  3.2315  0.1519 -1.6747
  997MOL0     H34538   9.847   3.875   8.193  1.8840 -0.6493  0.2186
  997MOL0     H34539   9.838   3.717   8.131  0.5345 -0.2145 -1.5789
  997MOL0     H34540  10.005   3.778   7.946 -0.1203 -2.8171  2.6201
  997MOL0     H34541   9.973   3.949   7.992 -1.8708  0.0951 -0.1186
  997MOL0     H34542  10.097   3.750   8.186 -0.1347 -0.2316 -0.6732
  997MOL0     H34543  10.096   3.915   8.210 -0.5288 -0.6498 -0.0828
  997MOL0     H34544  10.248   3.783   7.970  0.5479 -0.6964  0.4844
  997MOL0     H34545  10.271   3.945   8.050  2.0024 -0.4434  1.3593
  997MOL0     H34546  10.306   3.558   8.116  1.8197 -0.2367 -2.2474
  997MOL0     H34547  10.518   3.429   8.124 -1.7935 -2.0076  2.4983
  997MOL0     H34548  10.665   3.537   8.128 -0.8345  0.4747  0.2471
  997MOL0     H34549  10.645   3.520   8.389 -3.4191  0.0792  1.9007
  997MOL0     H34550  10.529   3.391   8.353  1.8332 -1.0234  1.9833
  997MOL0     H34551  10.821   3.384   8.249 -0.7736  0.0500 -1.3762
  997MOL0     H34552  10.702   3.269   8.210  3.0893 -0.0026 -0.1867
  997MOL0     H34553  10.674   3.210   8.440  0.8917 -1.7928  2.0042
  997MOL0     H34554  10.809   3.313   8.490  2.1819 -2.2689  0.6772
  997MOL0     H34555  10.727   2.962   8.430 -0.6807  1.2407  1.6135
  997MOL0     H34556  10.834   2.770   8.560  0.2879 -1.3649 -1.5682
  997MOL0     H34557  11.310   2.676   8.805  0.4108  0.5347  0.1388
  997MOL0     H34558  11.434   2.444   8.870  1.5172 -2.7774 -0.9239
  997MOL0     H34559  11.406   2.229   8.884 -0.8388 -0.5222 -0.7928
  997MOL0     H34560  11.447   2.093   8.779  0.6458 -1.5076  2.1101
  997MOL0     H34561  11.666   2.081   8.865  0.9695 -1.1978  2.0150
  997MOL0     H34562  11.682   2.248   8.892 -1.4626  0.9661  2.1864
  997MOL0     H34563  11.496   2.104   9.068 -0.6247  1.1759  3.2410
  997MOL0     H34564  11.677   2.081   9.081 -1.1754 -1.0622  0.4727
  997MOL0     H34565  11.511   2.312   9.146 -1.1683 -2.9414  2.6371
  997MOL0     H34566  11.673   2.351   9.100  1.4643  1.4541  2.2053
  997MOL0     H34567  11.726   2.154   9.285 -1.2883 -0.8740 -0.4257
  997MOL0     H34568  11.576   2.229   9.343  1.3634  0.7243  1.4598
  997MOL0     H34569  11.785   2.351   9.431 -2.4132 -1.3239  0.6147
  997MOL0     H34570  11.843   2.368   9.270  0.1259  3.0084  1.0481
  997MOL0     H34571  11.575   2.470   9.357  0.6532 -1.4485 -0.9436
  997MOL0     H34572  11.647   2.533   9.219  2.9265  0.3472  0.7061
  997MOL0     H34573  11.794   2.584   9.485  0.6040 -0.5825  0.6596
  997MOL0     H34574  11.837   2.628   9.326  0.0454 -1.2053 -0.4775
  997MOL0     H34575  11.400   2.324   8.468 -0.4337  1.2749 -1.4714
  997MOL0     H34576  11.261   2.500   8.413 -4.4642  0.9063  0.5035
  997MOL0     H34577  11.205   2.983   8.566  0.0014 -2.8668  4.0181
  997MOL0     H34578  11.108   3.161   8.428 -0.6562  1.4058  0.6801
  997MOL0     H34579   9.185   4.101   8.052 -1.0872  2.3336 -0.2013
  997MOL0     H34580   8.978   4.215   8.110 -1.3521  0.2925  0.4107
  997MOL0     H34581   8.708   4.401   8.500 -0.3478 -1.8720 -1.5575
  997MOL0     H34582   8.494   4.510   8.497 -2.4290  3.3787 -1.4630
  997MOL0     H34583   8.250   4.753   8.376  3.1215  1.6360 -0.4467
  997MOL0     H34584   8.362   4.674   8.489  5.0054  0.3934 -3.1737
  997MOL0     H34585   8.276   4.466   8.467  0.2261 -0.8177  0.9109
  997MOL0     H34586   8.187   4.514   8.314  3.4459  0.8310 -1.0605
  997MOL0     H34587   8.016   4.490   8.484 -1.3893  0.7383 -0.3622
  997MOL0     H34588   8.023   4.660   8.441  0.0162  1.6145 -0.0881
  997MOL0     H34589   8.163   4.549   8.686 -0.5341 -1.0216  0.0793
  997MOL0     H34590   8.115   4.718   8.648 -0.5702 -0.1885  0.3531
  997MOL0     H34591   7.752   4.623   8.800 -0.2368  0.7446 -0.0276
  997MOL0     H34592   8.562   4.619   8.087 -1.1379  1.6501  0.9868
  997MOL0     H34593   8.895   4.489   8.067 -0.9274 -0.8951  2.3033
  997MOL0     H34594   8.754   4.438   7.970 -0.3622 -1.3200 -0.9318
  997MOL0     H34595   8.775   4.605   8.001 -1.7960  1.0472  2.6984
  998MOL0     O34596   9.230   8.011   5.889  0.0340 -0.0825 -0.8951
  998MOL0     C34597   9.229   7.976   6.011 -1.0042  0.7742  0.9314
  998MOL0     O34598   9.121   7.933   6.069 -0.0573 -0.0606 -0.0867
  998MOL0     C34599   9.015   8.017   6.040  0.4076  0.9063 -0.5928
  998MOL0     C34600   9.008   8.138   6.114 -0.1349 -1.2917  0.8620
  998MOL0     C34601   8.902   8.225   6.101  0.1651  0.9591  0.1854
  998MOL0     C34602   8.797   8.183   6.015 -0.8802 -0.1293  1.1334
  998MOL0     O34603   8.695   8.270   6.017  0.2233 -0.0059  0.4810
  998MOL0     C34604   8.571   8.239   5.951 -1.2822  0.1718 -0.9060
  998MOL0     C34605   8.485   8.140   6.035  0.2474  0.3965 -0.7944
  998MOL0     C34606   8.340   8.103   5.982  0.5528 -0.1244  0.2711
  998MOL0     C34607   8.257   8.222   5.945 -0.0014 -0.5487 -0.0525
  998MOL0     C34608   8.107   8.193   5.930 -0.0449 -0.4241 -0.3192
  998MOL0     C34609   8.036   8.315   5.883  0.0341  0.6196 -0.1434
  998MOL0     C34610   7.881   8.311   5.903 -0.5411  0.2517 -0.3128
  998MOL0     C34611   7.805   8.421   5.827 -0.8524 -0.5491  0.1169
  998MOL0     N34612   7.883   8.542   5.822  0.3048  0.8193 -0.6848
  998MOL0     C34613   7.857   8.651   5.900  0.0256  0.0608  0.0984
  998MOL0     C34614   7.937   8.743   5.850 -0.3498 -0.0886 -0.9359
  998MOL0     C34615   7.938   8.881   5.899  0.7870  0.0722  0.5182
  998MOL0     C34616   7.835   8.968   5.817 -0.5185  0.5336 -0.1628
  998MOL0     C34617   7.693   8.915   5.842  0.8388  0.2757 -0.1778
  998MOL0     C34618   7.590   9.011   5.785 -0.4638  0.1634  0.0771
  998MOL0     O34619   7.606   9.026   5.650 -0.1497 -0.2328 -0.8362
  998MOL0     C34620   7.519   9.113   5.590  0.3443  0.3921  0.3891
  998MOL0     C34621   7.513   9.122   5.456 -0.0365 -0.1051 -0.2765
  998MOL0     C34622   7.429   9.208   5.384  0.0847  0.3133  0.6079
  998MOL0     C34623   7.341   9.294   5.454  0.3346  1.1153  0.0937
  998MOL0     C34624   7.280   9.396   5.376  0.3507 -0.2435 -0.2691
  998MOL0     O34625   7.293   9.399   5.239 -1.2740  0.1667 -0.0356
  998MOL0     C34626   7.211   9.476   5.159  0.3082  0.3401 -0.7632
  998MOL0     C34627   7.262   9.572   5.073  0.4796 -0.4383 -0.7854
  998MOL0     C34628   7.176   9.654   4.995  0.4489 -0.1029  0.1637
  998MOL0     C34629   7.037   9.647   5.003  0.1427 -0.0453 -0.0133
  998MOL0     O34630   6.947   9.717   4.925 -0.3021 -0.1922  0.4634
  998MOL0     C34631   6.960   9.863   4.953  0.3774 -0.3804 -0.1636
  998MOL0     C34632   6.868   9.957   4.877 -0.2772  0.3985  0.0558
  998MOL0     C34633   6.910  10.108   4.886 -0.3602  1.2804  0.2405
  998MOL0     C34634   7.015  10.143   4.767 -0.2271  0.6213 -0.1948
  998MOL0     C34635   7.062  10.284   4.760 -0.8317  0.1086 -0.7421
  998MOL0     C34636   7.194  10.308   4.842 -0.7734  0.2534 -0.2214
  998MOL0     C34637   7.236  10.453   4.807  0.4060  0.2764  0.2938
  998MOL0     C34638   7.334  10.508   4.914  0.1774  0.5868  0.2888
  998MOL0    Cl34639   7.481  10.414   4.910  0.4416 -0.2977  0.1544
  998MOL0     C34640   6.982   9.545   5.095 -0.6336 -0.8489  0.8247
  998MOL0     C34641   7.073   9.462   5.172  1.1225 -0.1463 -0.5300
  998MOL0     O34642   7.213   9.483   5.440 -0.7118 -0.5161 -0.0304
  998MOL0     C34643   7.331   9.278   5.596 -0.7610 -0.1072 -0.7818
  998MOL0     C34644   7.425   9.195   5.660  0.1476  0.3018 -0.2703
  998MOL0     N34645   8.011   8.693   5.751 -0.0857  0.4827 -0.6753
  998MOL0     N34646   7.974   8.571   5.730 -0.7653  0.8074  0.3668
  998MOL0     C34647   8.808   8.062   5.944 -0.6910  0.2389 -0.2166
  998MOL0     C34648   8.916   7.976   5.948 -0.5972 -0.5913  0.4108
  998MOL0     C34649   9.359   7.999   6.088  0.1968  0.7174  0.2313
  998MOL0     C34650   9.471   8.034   6.017  0.6441 -0.6553  0.0890
  998MOL0     C34651   9.594   8.039   6.075  0.2556 -0.1317 -0.5753
  998MOL0     C34652   9.613   8.025   6.210  0.1835 -0.8817 -0.0546
  998MOL0     O34653   9.749   8.036   6.251  0.0914 -0.2306 -0.1369
  998MOL0     C34654   9.784   8.000   6.387 -0.0458  0.3448  0.7001
  998MOL0     C34655   9.922   7.944   6.389  0.1687 -0.5090 -0.3512
  998MOL0     C34656   9.921   7.812   6.322 -0.0510  1.1098  0.2363
  998MOL0     C34657   9.870   7.702   6.417 -0.0403  0.8334 -0.4523
  998MOL0     C34658   9.876   7.577   6.344  0.1662 -0.5146 -0.0274
  998MOL0     C34659   9.879   7.473   6.287  0.0300  0.2997 -0.1064
  998MOL0     C34660   9.501   7.995   6.288 -0.5059  0.1611 -0.4274
  998MOL0     C34661   9.373   7.980   6.225 -0.0180  0.5682 -0.3653
  998MOL0     C34662   9.268   7.936   6.325  0.0577  0.2648 -0.7718
  998MOL0     H34663   9.099   8.158   6.171 -0.3875 -1.1389  1.2136
  998MOL0     H34664   8.898   8.321   6.153  3.0779  1.1354  0.2746
  998MOL0     H34665   8.519   8.334   5.935 -2.6487 -0.4070 -0.1143
  998MOL0     H34666   8.587   8.189   5.855  0.8471  0.2526 -0.6190
  998MOL0     H34667   8.465   8.188   6.131  0.5304  3.0549 -1.9793
  998MOL0     H34668   8.528   8.040   6.050  0.6207  0.7075  0.2958
  998MOL0     H34669   8.284   8.044   6.055 -0.6997  1.0239  0.2770
  998MOL0     H34670   8.341   8.043   5.890 -1.8950 -1.7491  1.1840
  998MOL0     H34671   8.272   8.296   6.023 -2.3063 -0.8574  0.7593
  998MOL0     H34672   8.295   8.252   5.847 -1.5706 -0.6386 -0.7278
  998MOL0     H34673   8.087   8.118   5.854  1.5972  0.0074 -1.2445
  998MOL0     H34674   8.058   8.161   6.022  3.0531 -0.8402  1.3558
  998MOL0     H34675   8.061   8.403   5.942 -1.0429  0.9936 -0.2167
  998MOL0     H34676   8.068   8.335   5.780 -1.6163  1.1130 -0.5995
  998MOL0     H34677   7.862   8.311   6.011  4.0772  1.4610  0.7114
  998MOL0     H34678   7.851   8.222   5.846  0.2472 -1.3936  1.6942
  998MOL0     H34679   7.777   8.380   5.729 -1.4804  0.1109  0.0131
  998MOL0     H34680   7.706   8.443   5.866 -0.1165 -0.3390  1.9418
  998MOL0     H34681   7.778   8.677   5.970  3.3907  3.1688  3.1926
  998MOL0     H34682   7.923   8.889   6.007  1.3084 -1.1319  0.6979
  998MOL0     H34683   8.038   8.918   5.873  1.1054  0.7433  2.5263
  998MOL0     H34684   7.847   9.073   5.843 -3.3145  0.6441  1.0980
  998MOL0     H34685   7.855   8.953   5.711  0.6457 -0.2011  0.1363
  998MOL0     H34686   7.666   8.902   5.947 -3.5428  0.2215 -1.1005
  998MOL0     H34687   7.692   8.821   5.786  3.3272  1.3060 -2.1351
  998MOL0     H34688   7.616   9.109   5.824  1.8751  0.2093 -1.4353
  998MOL0     H34689   7.490   8.975   5.810  0.3394 -1.4361  1.1565
  998MOL0     H34690   7.575   9.048   5.408 -2.5808 -1.1074 -2.2833
  998MOL0     H34691   7.450   9.228   5.279  1.2548  1.6519  1.0654
  998MOL0     H34692   7.368   9.585   5.057  1.5642 -5.4154  0.5656
  998MOL0     H34693   7.232   9.721   4.930  0.8642 -0.1527  0.4622
  998MOL0     H34694   6.941   9.878   5.059  1.4713  2.9112 -0.3361
  998MOL0     H34695   7.062   9.897   4.931  0.2334  1.6906  2.0428
  998MOL0     H34696   6.857   9.939   4.770  0.3218  0.7795 -0.0746
  998MOL0     H34697   6.769   9.934   4.917 -0.1641 -1.7357 -0.7889
  998MOL0     H34698   6.812  10.153   4.865 -1.3288 -0.4069  0.9441
  998MOL0     H34699   6.942  10.140   4.986 -2.3416  0.6542  1.1358
  998MOL0     H34700   6.958  10.114   4.678 -0.8514  0.6404  0.1946
  998MOL0     H34701   7.107  10.086   4.782  0.0832  1.3987  0.9933
  998MOL0     H34702   6.970  10.340   4.782 -2.1119 -2.8645  2.3883
  998MOL0     H34703   7.086  10.304   4.655 -3.2713  0.1073 -1.3590
  998MOL0     H34704   7.170  10.296   4.948 -0.7878 -0.7890 -0.3349
  998MOL0     H34705   7.265  10.230   4.812 -1.8608 -0.7710 -0.2127
  998MOL0     H34706   7.141  10.506   4.820  1.1981  2.0778 -0.8787
  998MOL0     H34707   7.270  10.465   4.704  1.3433  2.8754  0.8424
  998MOL0     H34708   7.354  10.615   4.909 -0.8351  0.8661  1.6548
  998MOL0     H34709   7.296  10.497   5.016  1.8223  2.4283  1.1619
  998MOL0     H34710   6.873   9.541   5.097 -0.8147  1.0863 -1.0707
  998MOL0     H34711   7.021   9.390   5.234  2.6228 -1.2318 -0.4786
  998MOL0     H34712   7.256   9.334   5.651  1.4799 -0.6731  3.1991
  998MOL0     H34713   7.425   9.184   5.768 -2.1984 -3.5690 -0.4893
  998MOL0     H34714   8.727   8.030   5.880 -0.6533  0.8073 -0.5633
  998MOL0     H34715   8.911   7.884   5.891 -1.1701  0.3332 -1.1011
  998MOL0     H34716   9.462   8.071   5.916  1.1820  0.8530  0.5719
  998MOL0     H34717   9.683   8.056   6.016 -0.9516  2.1738 -1.8779
  998MOL0     H34718   9.718   7.922   6.428  1.1297 -0.5926  0.8527
  998MOL0     H34719   9.770   8.094   6.442 -1.8430  1.9723 -2.2818
  998MOL0     H34720   9.958   7.929   6.492 -0.3223  1.1973  0.1072
  998MOL0     H34721   9.992   8.005   6.333  1.1159 -1.2720 -0.0334
  998MOL0     H34722  10.023   7.786   6.295 -0.8481  0.2652 -2.2587
  998MOL0     H34723   9.862   7.810   6.229  0.9251 -0.4694 -0.3779
  998MOL0     H34724   9.920   7.689   6.513 -2.6778 -2.6282  0.6696
  998MOL0     H34725   9.764   7.711   6.442  0.0102 -2.3139  1.5211
  998MOL0     H34726   9.896   7.380   6.235 -0.6197  0.6495 -0.9616
  998MOL0     H34727   9.514   7.987   6.395 -0.8267 -2.5079 -0.5127
  998MOL0     H34728   9.220   7.844   6.290  0.2996 -0.6981  1.3161
  998MOL0     H34729   9.310   7.919   6.424  0.9678  0.6759 -1.0741
  998MOL0     H34730   9.191   8.013   6.336 -1.1791 -1.1134  0.8028
  999MOL0     O34731   0.523   2.521   7.093 -0.6086 -0.6713 -0.3006
  999MOL0     C34732   0.521   2.566   7.213  0.5821 -0.2497  0.5398
  999MOL0     O34733   0.607   2.537   7.318  0.7138  0.5502  0.2648
  999MOL0     C34734   0.722   2.475   7.298 -0.4364  0.2689 -0.0787
  999MOL0     C34735   0.828   2.540   7.236  0.4888  0.5600  0.5406
  999MOL0     C34736   0.957   2.490   7.238  0.0397 -0.1673 -0.0211
  999MOL0     C34737   0.986   2.375   7.314 -0.6580  0.0205 -0.1123
  999MOL0     O34738   1.118   2.330   7.326  1.0941  0.4823 -0.1243
  999MOL0     C34739   1.225   2.410   7.281 -0.7175  0.7514 -0.1984
  999MOL0     C34740   1.242   2.401   7.132  0.2902 -0.1902  0.4297
  999MOL0     C34741   1.369   2.319   7.097  1.1778  0.1639 -0.0658
  999MOL0     C34742   1.503   2.395   7.098 -0.0368 -0.3591  0.0361
  999MOL0     C34743   1.625   2.307   7.098 -0.9219 -0.8899  0.8225
  999MOL0     C34744   1.760   2.374   7.117 -0.3359  0.1772  0.6920
  999MOL0     C34745   1.865   2.268   7.109 -0.8575 -0.5190  0.0220
  999MOL0     C34746   2.000   2.332   7.107 -1.7584  0.0377 -1.2216
  999MOL0     N34747   2.108   2.229   7.099 -0.8503  0.3419  0.2411
  999MOL0     C34748   2.241   2.253   7.107 -0.6543 -0.4086 -1.2317
  999MOL0     C34749   2.307   2.139   7.112 -0.3083  0.2049  0.6490
  999MOL0     C34750   2.459   2.126   7.121  0.3211 -0.6590  0.0985
  999MOL0     C34751   2.485   2.069   7.265 -0.4002  0.1645  1.1938
  999MOL0     C34752   2.444   2.168   7.383 -1.3170  1.0917  0.3023
  999MOL0     C34753   2.526   2.303   7.394  0.9720  0.2320  1.6009
  999MOL0     O34754   2.669   2.286   7.372 -0.0565 -0.0319 -0.2706
  999MOL0     C34755   2.744   2.348   7.467  0.1644  0.0058  0.1645
  999MOL0     C34756   2.797   2.280   7.577  0.3397  0.5030 -0.4656
  999MOL0     C34757   2.865   2.355   7.667  0.0314 -0.1839  0.0449
  999MOL0     C34758   2.875   2.494   7.670  0.7742 -0.7333 -0.8768
  999MOL0     C34759   2.943   2.579   7.775 -0.8164 -0.4846 -1.0749
  999MOL0     O34760   2.967   2.711   7.756  0.4104 -0.2783 -0.6120
  999MOL0     C34761   3.061   2.771   7.834  0.5465  0.0176 -0.1617
  999MOL0     C34762   3.006   2.822   7.959 -0.7803  0.2544 -0.1207
  999MOL0     C34763   3.100   2.874   8.046  0.2114  0.0993  0.2631
  999MOL0     C34764   3.237   2.877   8.022 -0.7973 -0.4467  0.4425
  999MOL0     O34765   3.316   2.954   8.107 -0.1408 -0.2509 -0.1694
  999MOL0     C34766   3.428   2.882   8.159  0.5486 -0.4537 -0.8414
  999MOL0     C34767   3.511   2.968   8.243 -0.1816  0.4765 -0.6204
  999MOL0     C34768   3.558   3.091   8.168  0.6656 -0.1477  0.5982
  999MOL0     C34769   3.666   3.173   8.249 -0.9131 -0.1721 -0.2911
  999MOL0     C34770   3.722   3.294   8.169  0.9887 -0.5335  0.1878
  999MOL0     C34771   3.787   3.256   8.038 -0.0123  0.1670  0.2986
  999MOL0     C34772   3.855   3.373   7.969  0.1872  0.6738 -0.0370
  999MOL0     C34773   3.991   3.407   8.035 -0.6058 -0.3389 -0.4989
  999MOL0    Cl34774   4.093   3.273   7.990  0.0282 -0.2046 -0.2044
  999MOL0     C34775   3.277   2.848   7.891 -0.1590  0.6837  0.2602
  999MOL0     C34776   3.188   2.793   7.792  0.5929  0.7294  0.2796
  999MOL0     O34777   2.971   2.511   7.873 -0.1106 -0.5203 -0.2083
  999MOL0     C34778   2.816   2.558   7.565  0.4986 -0.3896  0.6833
  999MOL0     C34779   2.757   2.484   7.455  0.5274 -1.1385  0.1790
  999MOL0     N34780   2.205   2.045   7.087  0.2454 -0.0324  0.6543
  999MOL0     N34781   2.090   2.093   7.080  0.0635 -0.2053 -0.3675
  999MOL0     C34782   0.883   2.313   7.379  0.0747 -0.5469 -1.4632
  999MOL0     C34783   0.753   2.363   7.380 -0.0376  0.5069 -0.3449
  999MOL0     C34784   0.404   2.646   7.244  0.6099 -0.4562 -0.1522
  999MOL0     C34785   0.303   2.664   7.150 -0.6713  0.2672  0.2570
  999MOL0     C34786   0.175   2.717   7.175  0.1025  0.0911  0.4260
  999MOL0     C34787   0.155   2.778   7.295  0.8677  0.0136  0.2490
  999MOL0     O34788   0.026   2.820   7.330  0.1891  0.1781 -0.2172
  999MOL0     C34789   0.025   2.958   7.361  0.1881  0.1639 -0.0427
  999MOL0     C34790   0.010   3.054   7.242  0.4383 -0.3636 -0.6385
  999MOL0     C34791  -0.120   3.053   7.169 -0.0070 -0.3432 -0.2076
  999MOL0     C34792  -0.241   3.043   7.259  1.4859  0.0986 -0.3218
  999MOL0     C34793  -0.372   3.041   7.187 -0.0877  0.0628 -0.5234
  999MOL0     C34794  -0.478   3.042   7.129  0.5128  1.1241 -0.7647
  999MOL0     C34795   0.250   2.765   7.384 -1.1010  0.1044 -0.6863
  999MOL0     C34796   0.381   2.707   7.368  0.3411 -0.7747 -0.3803
  999MOL0     C34797   0.473   2.705   7.489 -0.0478  0.0875 -0.4242
  999MOL0     H34798   0.804   2.633   7.187 -2.6825  0.5749  1.8561
  999MOL0     H34799   1.037   2.537   7.181  0.5613 -1.9432 -0.8485
  999MOL0     H34800   1.216   2.514   7.315 -0.5375  0.0142  2.2551
  999MOL0     H34801   1.310   2.370   7.336 -0.1813  0.5936 -1.1241
  999MOL0     H34802   1.250   2.496   7.078 -1.3303 -1.4622 -2.1956
  999MOL0     H34803   1.150   2.357   7.094  0.3520  0.1429 -0.1113
  999MOL0     H34804   1.340   2.266   7.005 -0.8910  1.5380 -0.2790
  999MOL0     H34805   1.382   2.239   7.171 -0.1000  0.1171  0.1428
  999MOL0     H34806   1.507   2.467   7.015  2.2898  0.3970  0.7217
  999MOL0     H34807   1.492   2.459   7.185  0.5577  1.4240 -1.1360
  999MOL0     H34808   1.626   2.226   7.172  3.0396 -2.3267 -0.4936
  999MOL0     H34809   1.621   2.259   6.999 -0.0317 -3.5408  1.9775
  999MOL0     H34810   1.768   2.425   7.021 -3.3379 -3.0626 -1.5469
  999MOL0     H34811   1.748   2.435   7.207 -3.6914 -2.1347  2.0217
  999MOL0     H34812   1.857   2.202   7.022  0.0978  1.3292 -1.5404
  999MOL0     H34813   1.850   2.196   7.190 -0.4653 -1.8413 -1.0356
  999MOL0     H34814   2.018   2.407   7.030  0.9204  0.5984 -0.1562
  999MOL0     H34815   2.024   2.382   7.201 -0.1220 -0.9424 -1.0696
  999MOL0     H34816   2.278   2.354   7.120 -4.6560  0.9394  1.2407
  999MOL0     H34817   2.495   2.049   7.051  3.6657  0.4110  0.4849
  999MOL0     H34818   2.513   2.219   7.103  0.1292  0.0812  2.9062
  999MOL0     H34819   2.448   1.966   7.273 -0.2767  0.2678  4.1343
  999MOL0     H34820   2.593   2.055   7.264 -0.5999 -2.1538 -1.7456
  999MOL0     H34821   2.451   2.115   7.479 -2.7943  0.5573  0.1396
  999MOL0     H34822   2.340   2.198   7.365 -1.2786  0.2949 -1.4782
  999MOL0     H34823   2.493   2.354   7.485 -0.3152  1.0075  0.7294
  999MOL0     H34824   2.487   2.362   7.311  0.4762 -1.2192  0.7748
  999MOL0     H34825   2.798   2.172   7.591  0.7309  0.5102 -0.4287
  999MOL0     H34826   2.895   2.292   7.750 -2.6835  0.8994  2.0207
  999MOL0     H34827   2.903   2.801   7.985 -0.9425  1.8043  0.6248
  999MOL0     H34828   3.057   2.911   8.138  0.1007  1.5551 -0.3482
  999MOL0     H34829   3.395   2.802   8.226 -1.8563  0.3784 -0.9395
  999MOL0     H34830   3.484   2.841   8.075  0.4762 -2.2927 -0.0394
  999MOL0     H34831   3.450   2.997   8.329  0.1019 -0.0609 -0.2377
  999MOL0     H34832   3.596   2.901   8.257  1.0269  1.8423 -1.1940
  999MOL0     H34833   3.612   3.058   8.079  1.7520 -0.7250  1.4537
  999MOL0     H34834   3.471   3.153   8.144  0.0336 -0.7985  1.1393
  999MOL0     H34835   3.748   3.105   8.272 -0.7245 -0.9916 -3.0567
  999MOL0     H34836   3.620   3.209   8.342 -0.6920 -0.9213  0.1176
  999MOL0     H34837   3.793   3.351   8.230  0.8572 -1.2462  1.0310
  999MOL0     H34838   3.640   3.365   8.158  4.0600  2.9940 -2.5642
  999MOL0     H34839   3.855   3.174   8.064  1.0465  1.3405  1.3685
  999MOL0     H34840   3.713   3.218   7.967  2.1344  0.9784 -2.5267
  999MOL0     H34841   3.780   3.453   7.963 -0.0807  0.3289 -1.9196
  999MOL0     H34842   3.874   3.340   7.867 -1.4653 -2.0018  0.4382
  999MOL0     H34843   4.039   3.499   8.000 -2.0459 -0.2673 -2.4384
  999MOL0     H34844   3.987   3.404   8.145  1.2552 -2.0637 -0.4292
  999MOL0     H34845   3.374   2.868   7.846 -1.2085 -1.0766 -3.1402
  999MOL0     H34846   3.228   2.775   7.693  1.6301  1.0202  0.6366
  999MOL0     H34847   2.830   2.666   7.558 -1.8639 -0.1355 -1.3702
  999MOL0     H34848   2.714   2.539   7.371  2.9955  2.4523  1.0191
  999MOL0     H34849   0.907   2.223   7.436 -1.1120 -0.2260 -0.4096
  999MOL0     H34850   0.682   2.322   7.451 -0.6438  0.0762 -1.1863
  999MOL0     H34851   0.320   2.635   7.047  0.0468  0.6392  0.2687
  999MOL0     H34852   0.107   2.723   7.091 -0.3366  2.3820  0.8798
  999MOL0     H34853   0.108   2.991   7.424 -1.0187 -2.1029  3.0137
  999MOL0     H34854  -0.062   2.964   7.427 -0.0655  2.0369 -0.5076
  999MOL0     H34855   0.091   3.048   7.168  1.4858 -1.8967  0.5827
  999MOL0     H34856   0.018   3.156   7.280  3.3527 -0.3771 -0.9498
  999MOL0     H34857  -0.124   2.973   7.094 -1.5582  0.2988 -0.8408
  999MOL0     H34858  -0.121   3.143   7.108 -2.2861  0.5084  0.9640
  999MOL0     H34859  -0.235   2.943   7.302  0.9081 -1.2712 -3.1825
  999MOL0     H34860  -0.255   3.118   7.337  2.7468  2.2896 -2.0639
  999MOL0     H34861  -0.576   3.071   7.096  0.1675 -0.5439 -1.3209
  999MOL0     H34862   0.222   2.795   7.484  1.3112 -0.2720  0.1784
  999MOL0     H34863   0.437   2.765   7.573  1.5037 -1.9874  1.8559
  999MOL0     H34864   0.486   2.600   7.519  1.7467 -0.2517 -2.1435
  999MOL0     H34865   0.578   2.733   7.478 -0.3968  0.7964 -2.3469
 1000MOL0     O34866   9.618   0.124   5.026 -0.5332 -0.1817 -0.2716
 1000MOL0     C34867   9.661   0.229   5.081  1.1153 -0.7222 -0.2625
 1000MOL0     O34868   9.759   0.225   5.172 -0.1426  0.4838 -0.2859
 1000MOL0     C34869   9.792   0.104   5.234 -0.2344 -0.4090 -0.3507
 1000MOL0     C34870   9.837  -0.010   5.180  0.7542  1.2108  0.2616
 1000MOL0     C34871   9.862  -0.119   5.264  0.9777 -0.0863  0.0417
 1000MOL0     C34872   9.843  -0.117   5.400  0.5639  0.1786  0.3388
 1000MOL0     O34873   9.868  -0.236   5.463  0.5984 -0.0612 -0.3508
 1000MOL0     C34874   9.872  -0.239   5.606  0.4476  0.2732 -0.4041
 1000MOL0     C34875   9.848  -0.392   5.639 -0.5657  0.7467  0.1119
 1000MOL0     C34876   9.843  -0.420   5.791 -0.2898 -0.2693 -0.2091
 1000MOL0     C34877   9.838  -0.570   5.815  0.3552 -0.3946  0.6626
 1000MOL0     C34878   9.824  -0.610   5.961 -0.0352  0.1341  0.7076
 1000MOL0     C34879   9.952  -0.571   6.048 -0.4588  0.2798  0.5719
 1000MOL0     C34880   9.958  -0.663   6.163 -0.0635 -0.3269 -0.1300
 1000MOL0     C34881  10.020  -0.803   6.135 -0.9156 -0.2499 -0.0891
 1000MOL0     N34882  10.057  -0.867   6.265  0.0171  0.9498  0.7280
 1000MOL0     C34883  10.109  -0.993   6.272 -0.1994  0.2668  0.1825
 1000MOL0     C34884  10.117  -1.025   6.406  0.1133  0.5878  0.0298
 1000MOL0     C34885  10.187  -1.126   6.480  0.6039  0.2689  0.0922
 1000MOL0     C34886  10.336  -1.094   6.491 -0.1074  0.1957 -0.3628
 1000MOL0     C34887  10.398  -1.087   6.356  0.1631 -0.0196 -0.3519
 1000MOL0     C34888  10.550  -1.127   6.354  0.0626 -0.0807  0.7247
 1000MOL0     O34889  10.553  -1.271   6.368 -0.1565  0.1068  0.0626
 1000MOL0     C34890  10.680  -1.320   6.397  1.1682 -0.5993  0.1817
 1000MOL0     C34891  10.798  -1.244   6.388  0.0119  0.1910 -0.7621
 1000MOL0     C34892  10.921  -1.291   6.441 -0.0525  0.2083 -0.4916
 1000MOL0     C34893  10.939  -1.421   6.504  0.6209 -0.5522  0.3751
 1000MOL0     C34894  11.072  -1.470   6.557  0.5285  0.4378 -0.3811
 1000MOL0     O34895  11.188  -1.389   6.541  0.0719 -0.4926  0.3615
 1000MOL0     C34896  11.302  -1.421   6.612  0.1152  0.0708 -0.1418
 1000MOL0     C34897  11.387  -1.509   6.570 -1.0241 -0.4770 -0.3496
 1000MOL0     C34898  11.505  -1.531   6.648 -0.3765  0.4810  0.4991
 1000MOL0     C34899  11.527  -1.456   6.768  0.2451  0.0468 -0.4434
 1000MOL0     O34900  11.631  -1.475   6.854  0.0874  0.0327  0.2650
 1000MOL0     C34901  11.733  -1.579   6.828 -0.0706 -0.1904 -0.5840
 1000MOL0     C34902  11.824  -1.595   6.950  0.2406  0.4209 -0.0764
 1000MOL0     C34903  11.742  -1.652   7.066 -0.6925 -0.0336 -0.0146
 1000MOL0     C34904  11.847  -1.677   7.169  0.2575  0.1181  0.1776
 1000MOL0     C34905  11.813  -1.753   7.294  0.1908 -0.0083 -0.3040
 1000MOL0     C34906  11.692  -1.692   7.374 -0.3756  1.0075  0.2729
 1000MOL0     C34907  11.666  -1.754   7.510  0.2473 -1.1785  0.6690
 1000MOL0     C34908  11.596  -1.654   7.605  0.3066  0.1218 -0.1151
 1000MOL0    Cl34909  11.431  -1.601   7.530  0.0190  0.5428  0.3114
 1000MOL0     C34910  11.433  -1.358   6.804 -0.0735 -0.8013 -0.7892
 1000MOL0     C34911  11.319  -1.341   6.731 -0.6346  0.3321  0.4698
 1000MOL0     O34912  11.072  -1.568   6.628  0.4611  0.4858 -0.1017
 1000MOL0     C34913  10.818  -1.498   6.511  0.1063  0.0106 -0.4385
 1000MOL0     C34914  10.693  -1.444   6.467 -0.8728  0.0686 -0.2219
 1000MOL0     N34915  10.057  -0.928   6.474  0.5780 -0.1166  1.1621
 1000MOL0     N34916  10.013  -0.831   6.385  0.3788 -0.5982 -0.2929
 1000MOL0     C34917   9.828   0.003   5.460  0.9427  0.3130 -0.7552
 1000MOL0     C34918   9.799   0.115   5.377  0.0959  0.6856 -0.4019
 1000MOL0     C34919   9.594   0.359   5.048  0.4517  0.5136 -0.2100
 1000MOL0     C34920   9.572   0.439   5.154 -0.6647 -0.0604 -0.4461
 1000MOL0     C34921   9.519   0.571   5.137 -0.1659  0.1577  0.3669
 1000MOL0     C34922   9.492   0.623   5.010  0.2767  0.2079  0.4676
 1000MOL0     O34923   9.455   0.751   4.975  0.3094  0.5941 -0.0536
 1000MOL0     C34924   9.460   0.850   5.083  0.1320  0.4318  0.5977
 1000MOL0     C34925   9.471   0.989   5.031  0.0510 -0.3223 -0.2929
 1000MOL0     C34926   9.583   1.026   4.925 -0.1629 -0.4351 -0.6258
 1000MOL0     C34927   9.566   1.172   4.912 -0.3139  0.2041  0.4792
 1000MOL0     C34928   9.701   1.214   4.861 -0.4174 -0.1084  1.0161
 1000MOL0     C34929   9.808   1.232   4.812  0.0840 -0.3590 -1.1785
 1000MOL0     C34930   9.503   0.539   4.909 -0.0323  0.6380  0.4279
 1000MOL0     C34931   9.551   0.405   4.921 -0.4601 -0.7905 -0.6845
 1000MOL0     C34932   9.558   0.327   4.795 -0.5157 -0.7184 -0.1857
 1000MOL0     H34933   9.862  -0.023   5.075 -0.3830  1.4800 -0.0531
 1000MOL0     H34934   9.899  -0.212   5.223 -0.0206 -0.2586 -0.5082
 1000MOL0     H34935   9.968  -0.199   5.638  0.5844 -1.5227  1.6870
 1000MOL0     H34936   9.784  -0.181   5.635 -1.3898 -1.8381 -1.4356
 1000MOL0     H34937   9.930  -0.451   5.597 -2.1099 -1.3861 -0.0962
 1000MOL0     H34938   9.750  -0.421   5.602 -0.9143  1.9890  0.0114
 1000MOL0     H34939   9.755  -0.379   5.842  1.6955  3.3846  0.6912
 1000MOL0     H34940   9.934  -0.379   5.837  0.3157 -0.4691 -1.2111
 1000MOL0     H34941   9.752  -0.620   5.769 -0.1443  0.0128  1.1522
 1000MOL0     H34942   9.931  -0.613   5.777 -1.0826 -1.6864 -1.6443
 1000MOL0     H34943   9.737  -0.561   6.007 -1.1483  2.1402 -3.0824
 1000MOL0     H34944   9.812  -0.718   5.969  0.1862  0.2369  2.9136
 1000MOL0     H34945  10.045  -0.581   5.991 -0.2184 -2.6287  1.2856
 1000MOL0     H34946   9.949  -0.467   6.081 -1.4756  1.3353 -2.5232
 1000MOL0     H34947   9.856  -0.673   6.203  0.2444 -1.2686  0.4502
 1000MOL0     H34948  10.032  -0.617   6.229 -1.1054 -0.2806  1.0458
 1000MOL0     H34949   9.935  -0.849   6.083  0.6249 -0.0204 -3.0277
 1000MOL0     H34950  10.107  -0.795   6.068 -0.5158  1.6019  0.5853
 1000MOL0     H34951  10.163  -1.049   6.196 -1.6596 -0.6864 -0.1929
 1000MOL0     H34952  10.145  -1.134   6.581 -1.4690 -0.5065 -0.7690
 1000MOL0     H34953  10.171  -1.223   6.432 -0.7642  1.9728 -3.2539
 1000MOL0     H34954  10.349  -0.996   6.539 -0.1916 -0.0593  0.1900
 1000MOL0     H34955  10.382  -1.171   6.553  2.9658  0.6164 -1.9280
 1000MOL0     H34956  10.384  -0.981   6.335 -1.1322 -0.1409 -0.1860
 1000MOL0     H34957  10.343  -1.145   6.281 -0.8421 -2.1962  1.9275
 1000MOL0     H34958  10.598  -1.065   6.430  0.3281  2.6626 -1.5167
 1000MOL0     H34959  10.595  -1.094   6.259 -0.7319 -0.7887  0.0828
 1000MOL0     H34960  10.798  -1.146   6.342  0.8613  0.2045 -0.7396
 1000MOL0     H34961  11.005  -1.224   6.429  0.1003  0.1545  0.2817
 1000MOL0     H34962  11.370  -1.574   6.484 -3.5022  0.1829 -0.4565
 1000MOL0     H34963  11.581  -1.601   6.616 -0.3888  1.8195 -2.8603
 1000MOL0     H34964  11.699  -1.672   6.783 -3.2354 -0.4715  2.0411
 1000MOL0     H34965  11.797  -1.534   6.752  0.0751  1.3325  0.3854
 1000MOL0     H34966  11.905  -1.656   6.909  0.4036  1.1734 -0.8903
 1000MOL0     H34967  11.865  -1.502   6.990  0.2908  0.0093  0.8777
 1000MOL0     H34968  11.664  -1.581   7.097  1.1663  1.7914  0.7398
 1000MOL0     H34969  11.695  -1.743   7.029  0.4597  0.4672 -3.0111
 1000MOL0     H34970  11.876  -1.576   7.202 -1.3919  1.1712 -1.3701
 1000MOL0     H34971  11.938  -1.716   7.124 -1.5230 -3.4743 -0.6419
 1000MOL0     H34972  11.904  -1.748   7.356  4.1447 -0.2738 -5.4300
 1000MOL0     H34973  11.801  -1.857   7.262  2.2655 -0.5158  0.3962
 1000MOL0     H34974  11.701  -1.584   7.390  2.5433  1.0384 -0.9069
 1000MOL0     H34975  11.600  -1.709   7.317 -3.1714  1.6432  4.1810
 1000MOL0     H34976  11.756  -1.782   7.565  0.5955 -1.0914  0.1544
 1000MOL0     H34977  11.606  -1.845   7.503  0.9103 -1.5607 -0.3739
 1000MOL0     H34978  11.593  -1.708   7.700  0.2340  0.8851  0.3222
 1000MOL0     H34979  11.662  -1.568   7.613  2.1609 -1.3463  1.2621
 1000MOL0     H34980  11.450  -1.302   6.895  3.3300 -3.4490  0.4437
 1000MOL0     H34981  11.240  -1.272   6.759 -0.2517  0.9096  0.1393
 1000MOL0     H34982  10.813  -1.599   6.550 -0.6689 -0.0681 -0.7249
 1000MOL0     H34983  10.607  -1.507   6.484 -0.3772 -1.6810 -3.3506
 1000MOL0     H34984   9.834   0.013   5.568 -2.1498 -1.5402 -0.3101
 1000MOL0     H34985   9.785   0.209   5.429 -2.2397  1.7094 -2.6342
 1000MOL0     H34986   9.599   0.403   5.253 -1.1600 -2.4649 -1.1212
 1000MOL0     H34987   9.525   0.627   5.230  1.9354 -3.9639  3.0059
 1000MOL0     H34988   9.554   0.826   5.133  1.7901 -1.3116 -3.0101
 1000MOL0     H34989   9.375   0.841   5.152 -0.6757  1.0876 -0.2803
 1000MOL0     H34990   9.473   1.053   5.119  0.4327  0.1780 -0.6559
 1000MOL0     H34991   9.377   1.023   4.986 -0.6720  0.3444  1.6530
 1000MOL0     H34992   9.572   0.972   4.830 -2.1099  0.5723 -1.0369
 1000MOL0     H34993   9.678   0.986   4.961 -0.4108 -1.3787 -0.9819
 1000MOL0     H34994   9.490   1.200   4.838 -1.3251  0.3586  1.5574
 1000MOL0     H34995   9.549   1.231   5.002 -0.7387 -0.7041  1.0021
 1000MOL0     H34996   9.908   1.228   4.774  1.0173  1.7756  0.7997
 1000MOL0     H34997   9.486   0.582   4.811 -1.1542 -2.8478 -1.0807
 1000MOL0     H34998   9.661   0.291   4.780  0.2291  0.6837  1.2798
 1000MOL0     H34999   9.487   0.244   4.794 -0.7769 -0.4949 -1.1520
 1000MOL0     H35000   9.540   0.396   4.712 -0.5129  1.2094  1.3477
 1001MOL0     O35001   5.788  11.254   2.600  0.7992  0.1566 -0.0570
 1001MOL0     C35002   5.798  11.251   2.722 -0.1577 -0.8610 -0.4995
 1001MOL0     O35003   5.779  11.367   2.807 -0.1209  0.0458 -0.0343
 1001MOL0     C35004   5.701  11.463   2.756  0.0708  0.0882 -0.7690
 1001MOL0     C35005   5.569  11.429   2.717 -0.3933 -0.4005  0.4302
 1001MOL0     C35006   5.494  11.530   2.647  0.3086 -0.2098 -0.1046
 1001MOL0     C35007   5.541  11.659   2.617 -0.8068 -0.2388  0.4728
 1001MOL0     O35008   5.461  11.739   2.541  0.0303 -0.1621  0.3836
 1001MOL0     C35009   5.520  11.801   2.423 -0.4599  0.8320 -0.0473
 1001MOL0     C35010   5.449  11.748   2.294 -0.8493 -0.2619  0.7042
 1001MOL0     C35011   5.296  11.783   2.286  1.0144  0.4200  0.4928
 1001MOL0     C35012   5.230  11.721   2.158  0.4289  0.8049  0.0865
 1001MOL0     C35013   5.081  11.761   2.139  0.4690  0.7404 -0.2598
 1001MOL0     C35014   5.034  11.705   2.002 -0.6816  0.7796  0.1515
 1001MOL0     C35015   4.881  11.692   2.011 -0.0774 -0.2843  0.1367
 1001MOL0     C35016   4.843  11.565   2.076  0.2741 -0.7373  1.0836
 1001MOL0     N35017   4.704  11.544   2.115 -0.0177 -0.0379 -1.2011
 1001MOL0     C35018   4.651  11.628   2.210 -0.4432 -0.8502  0.3886
 1001MOL0     C35019   4.528  11.577   2.233  0.9684  0.0155 -0.4998
 1001MOL0     C35020   4.421  11.646   2.315 -0.1854 -0.3099  0.6363
 1001MOL0     C35021   4.449  11.625   2.467 -0.4317  0.3297  0.6943
 1001MOL0     C35022   4.370  11.714   2.557  0.0368 -0.0290 -0.7106
 1001MOL0     C35023   4.360  11.687   2.709 -0.0392  0.1156  0.3380
 1001MOL0     O35024   4.474  11.608   2.753 -0.6753 -0.5112  0.6294
 1001MOL0     C35025   4.468  11.566   2.877  0.0135 -0.6307 -0.4038
 1001MOL0     C35026   4.348  11.565   2.955  0.2708 -0.1024 -1.0437
 1001MOL0     C35027   4.362  11.514   3.081 -0.2373  0.2102  0.9368
 1001MOL0     C35028   4.484  11.466   3.135  0.2581  0.4855 -0.5157
 1001MOL0     C35029   4.480  11.420   3.271  0.0803 -1.0285 -0.4218
 1001MOL0     O35030   4.560  11.308   3.283 -0.1877  0.1882 -0.1173
 1001MOL0     C35031   4.583  11.244   3.404  1.2224  1.5188  0.4302
 1001MOL0     C35032   4.540  11.286   3.525  0.4566  0.2014 -0.5831
 1001MOL0     C35033   4.556  11.210   3.641 -0.0011  1.5552 -0.5730
 1001MOL0     C35034   4.617  11.088   3.641 -0.2659  0.2708 -0.1960
 1001MOL0     O35035   4.640  11.013   3.752  0.0106 -0.4260 -0.1811
 1001MOL0     C35036   4.670  10.876   3.758 -0.5184 -0.1147 -0.7602
 1001MOL0     C35037   4.645  10.833   3.899  0.0199  0.0523 -0.0100
 1001MOL0     C35038   4.491  10.821   3.917  0.6579  0.1140 -1.1510
 1001MOL0     C35039   4.459  10.798   4.065  0.1352 -0.4434  0.6395
 1001MOL0     C35040   4.493  10.664   4.122 -0.4296 -0.2567  0.0097
 1001MOL0     C35041   4.456  10.639   4.277 -1.1470  0.5281  0.1479
 1001MOL0     C35042   4.527  10.725   4.373  0.0174 -0.2220  0.5597
 1001MOL0     C35043   4.686  10.735   4.350 -0.1735  0.3708  1.0837
 1001MOL0    Cl35044   4.763  10.570   4.355 -0.0615 -0.1884 -0.1041
 1001MOL0     C35045   4.659  11.041   3.511  0.0586 -1.7528 -0.5639
 1001MOL0     C35046   4.631  11.110   3.396 -0.2112 -0.4759  0.5522
 1001MOL0     O35047   4.406  11.466   3.354  0.8022  0.2022 -0.8332
 1001MOL0     C35048   4.595  11.469   3.056 -0.2704 -0.5397  0.4502
 1001MOL0     C35049   4.592  11.522   2.930 -0.0898  0.3831 -0.3553
 1001MOL0     N35050   4.505  11.472   2.151  0.0370  0.1083  0.7999
 1001MOL0     N35051   4.612  11.450   2.086 -0.8782  1.1799  0.4102
 1001MOL0     C35052   5.664  11.684   2.666  0.7397 -0.0871 -0.0818
 1001MOL0     C35053   5.751  11.591   2.729 -0.3012 -0.0327 -0.2541
 1001MOL0     C35054   5.841  11.129   2.791  0.6891 -0.0808 -0.0141
 1001MOL0     C35055   5.842  11.121   2.935 -0.1259 -0.1682  0.7736
 1001MOL0     C35056   5.855  11.002   2.998  0.1671  0.2206  0.6205
 1001MOL0     C35057   5.879  10.879   2.942 -0.1199 -0.7250  0.6431
 1001MOL0     O35058   5.886  10.769   3.021  0.6972 -0.0442  0.6862
 1001MOL0     C35059   5.905  10.638   2.963  0.1682 -1.2118 -0.0546
 1001MOL0     C35060   5.854  10.537   3.061  0.0915 -0.2485 -0.9326
 1001MOL0     C35061   5.865  10.394   2.994 -0.0865  0.5050  0.0562
 1001MOL0     C35062   5.835  10.281   3.086 -0.5461 -0.2921 -0.6424
 1001MOL0     C35063   5.833  10.159   3.013 -0.1051 -0.2589 -0.1927
 1001MOL0     C35064   5.845  10.061   2.943 -0.7068  0.0468  0.3204
 1001MOL0     C35065   5.888  10.887   2.803  0.0188  0.6302  0.3720
 1001MOL0     C35066   5.868  11.007   2.727 -0.1004 -0.4711  1.1715
 1001MOL0     C35067   5.861  10.995   2.579  0.0446 -0.3182 -0.5476
 1001MOL0     H35068   5.536  11.328   2.739 -0.8866 -0.4773 -0.5844
 1001MOL0     H35069   5.392  11.510   2.614 -1.2835  4.8521  0.8793
 1001MOL0     H35070   5.511  11.909   2.434 -0.8270  0.5492  4.9946
 1001MOL0     H35071   5.623  11.766   2.424 -0.8958 -0.5153  0.4735
 1001MOL0     H35072   5.469  11.642   2.279  0.9494  0.2732 -1.2851
 1001MOL0     H35073   5.500  11.809   2.219  1.7228  0.3587  2.7854
 1001MOL0     H35074   5.281  11.892   2.287 -1.7439  0.1202  2.4065
 1001MOL0     H35075   5.252  11.751   2.381  1.9871  2.5484  1.7390
 1001MOL0     H35076   5.286  11.751   2.069 -1.0340  2.4376 -0.3341
 1001MOL0     H35077   5.252  11.614   2.162  1.2300  0.8779 -1.5172
 1001MOL0     H35078   5.019  11.720   2.220 -0.6197  1.1250 -0.8761
 1001MOL0     H35079   5.074  11.870   2.148  0.5804  0.5971  2.5542
 1001MOL0     H35080   5.058  11.772   1.919 -2.1335  1.1847  0.0262
 1001MOL0     H35081   5.075  11.605   1.984 -0.4989  0.8951 -0.0673
 1001MOL0     H35082   4.840  11.687   1.909 -3.8099 -0.8019  1.4898
 1001MOL0     H35083   4.834  11.782   2.052 -1.6661 -0.5829 -0.9124
 1001MOL0     H35084   4.871  11.477   2.017 -0.0581 -0.1753  0.0553
 1001MOL0     H35085   4.901  11.556   2.168  0.7933  1.5372  1.0220
 1001MOL0     H35086   4.690  11.710   2.268 -0.8766  0.3426 -0.9422
 1001MOL0     H35087   4.425  11.752   2.290  1.6943 -0.6169 -0.5104
 1001MOL0     H35088   4.319  11.615   2.288  0.8582 -0.9454 -3.1443
 1001MOL0     H35089   4.436  11.519   2.489 -1.2418  0.3803  0.4918
 1001MOL0     H35090   4.550  11.655   2.499 -1.1652  1.3946  2.1579
 1001MOL0     H35091   4.272  11.749   2.525  0.1387  1.9883  0.9654
 1001MOL0     H35092   4.431  11.805   2.560  0.4476 -0.3212 -0.0115
 1001MOL0     H35093   4.266  11.632   2.720 -3.2864  5.1173  1.3676
 1001MOL0     H35094   4.343  11.784   2.758  1.2957  1.1443 -1.1287
 1001MOL0     H35095   4.251  11.610   2.933  0.4460  0.3372 -0.9335
 1001MOL0     H35096   4.268  11.504   3.134 -0.0656  2.5274  1.8031
 1001MOL0     H35097   4.493  11.383   3.536 -0.1325  0.0111 -1.3337
 1001MOL0     H35098   4.531  11.260   3.734 -1.5104 -1.8944  1.0754
 1001MOL0     H35099   4.623  10.801   3.693 -3.2404 -0.0984  1.0271
 1001MOL0     H35100   4.778  10.876   3.740 -0.2557  1.7870  0.5400
 1001MOL0     H35101   4.692  10.738   3.925  2.3357 -0.0332 -3.8013
 1001MOL0     H35102   4.692  10.913   3.957  1.1133 -0.1674 -0.5764
 1001MOL0     H35103   4.428  10.904   3.883  0.1949  0.4912  0.5425
 1001MOL0     H35104   4.447  10.733   3.869 -3.9426 -1.4263  4.7234
 1001MOL0     H35105   4.356  10.822   4.089  0.0666 -1.3422  1.3073
 1001MOL0     H35106   4.521  10.866   4.125 -0.8522 -0.5318  1.7881
 1001MOL0     H35107   4.594  10.637   4.090  0.8079 -0.4363  3.6805
 1001MOL0     H35108   4.431  10.590   4.070 -1.0232  0.9111 -1.0364
 1001MOL0     H35109   4.348  10.650   4.292 -1.4358 -3.0624  1.8749
 1001MOL0     H35110   4.478  10.537   4.308 -2.6574  1.2616  4.2930
 1001MOL0     H35111   4.510  10.699   4.477  3.2489 -0.5540  1.0975
 1001MOL0     H35112   4.490  10.828   4.363 -2.3382 -1.0973 -0.5847
 1001MOL0     H35113   4.712  10.774   4.252 -0.5943 -0.1204  0.7699
 1001MOL0     H35114   4.733  10.812   4.413  1.2448  0.9191 -0.5916
 1001MOL0     H35115   4.714  10.948   3.505  4.4140  0.5696 -0.6732
 1001MOL0     H35116   4.650  11.073   3.296  0.3090  2.6081 -0.6081
 1001MOL0     H35117   4.694  11.442   3.092  0.3965  0.1920 -0.7838
 1001MOL0     H35118   4.677  11.527   2.863 -0.3415  0.2858 -0.6882
 1001MOL0     H35119   5.691  11.788   2.652  0.9629 -0.0179  0.7844
 1001MOL0     H35120   5.854  11.619   2.745  0.0402 -1.3528  0.0043
 1001MOL0     H35121   5.837  11.211   2.995  1.4009  0.0265  0.6412
 1001MOL0     H35122   5.840  10.994   3.106 -0.1339 -2.8800  0.4246
 1001MOL0     H35123   6.007  10.622   2.927 -0.0067  0.2817 -1.2532
 1001MOL0     H35124   5.844  10.625   2.874  0.5393 -2.7019 -0.1311
 1001MOL0     H35125   5.747  10.542   3.084  0.0933 -1.2560 -0.6662
 1001MOL0     H35126   5.912  10.543   3.153  1.2512 -1.3355 -1.5552
 1001MOL0     H35127   5.955  10.390   2.933 -2.0431 -1.7229 -3.0023
 1001MOL0     H35128   5.791  10.388   2.914  1.8467 -0.9408 -1.7318
 1001MOL0     H35129   5.916  10.266   3.158 -0.5519 -0.2052 -0.6172
 1001MOL0     H35130   5.737  10.294   3.133 -0.7038 -0.4694 -0.9142
 1001MOL0     H35131   5.852   9.975   2.878 -0.0301 -0.7680  1.4328
 1001MOL0     H35132   5.896  10.803   2.735  3.6336  1.6581 -0.7201
 1001MOL0     H35133   5.911  10.901   2.555  0.2595 -0.9131  1.9264
 1001MOL0     H35134   5.757  11.004   2.543  0.2853  2.2776 -0.7854
 1001MOL0     H35135   5.920  11.072   2.528 -2.9134  3.6201  1.4119
 1002MOL0     O35136   6.871  11.377   8.553  0.8859  0.7503 -0.7613
 1002MOL0     C35137   6.935  11.443   8.473  0.0926 -0.1332  0.9675
 1002MOL0     O35138   7.065  11.470   8.480  0.2554 -0.5038 -0.4099
 1002MOL0     C35139   7.133  11.416   8.591 -0.5860 -0.1511 -0.2896
 1002MOL0     C35140   7.154  11.281   8.604  0.0116 -0.0980  0.0931
 1002MOL0     C35141   7.216  11.231   8.718  0.0020  0.3853 -0.5924
 1002MOL0     C35142   7.253  11.314   8.828  1.3314  0.3807  0.0695
 1002MOL0     O35143   7.327  11.273   8.933 -0.4705  0.9427 -0.9529
 1002MOL0     C35144   7.424  11.175   8.912 -0.2434  1.3160  0.7146
 1002MOL0     C35145   7.520  11.150   9.031 -0.2039 -0.0320  0.4761
 1002MOL0     C35146   7.623  11.041   8.996  0.3427 -0.2232 -0.0561
 1002MOL0     C35147   7.553  10.906   8.963 -0.2696  0.2036  0.4902
 1002MOL0     C35148   7.564  10.866   8.813 -0.9127 -0.8375 -0.2319
 1002MOL0     C35149   7.464  10.752   8.793 -0.1125  0.0396 -0.2447
 1002MOL0     C35150   7.342  10.807   8.731 -0.4642 -0.3429 -0.1889
 1002MOL0     C35151   7.229  10.702   8.713 -0.3060 -0.2316 -0.2033
 1002MOL0     N35152   7.135  10.744   8.604  0.1883 -0.5877 -0.0192
 1002MOL0     C35153   7.162  10.766   8.469  0.1606  0.3658  0.1294
 1002MOL0     C35154   7.043  10.778   8.408  0.7404  0.2678 -0.6719
 1002MOL0     C35155   7.024  10.809   8.262 -0.0695 -0.1547 -0.5273
 1002MOL0     C35156   7.004  10.959   8.236  0.5814  0.0821 -0.4112
 1002MOL0     C35157   7.041  10.982   8.087 -0.6953 -0.1575 -0.5792
 1002MOL0     C35158   7.014  11.136   8.047  0.3020  0.0520  0.1636
 1002MOL0     O35159   7.042  11.161   7.909  0.5660 -0.2377  0.5334
 1002MOL0     C35160   7.058  11.294   7.880 -0.0481  0.8437 -0.1715
 1002MOL0     C35161   7.150  11.325   7.778  0.1221  0.0404  0.0342
 1002MOL0     C35162   7.183  11.458   7.744 -0.4714 -0.0457 -0.2564
 1002MOL0     C35163   7.128  11.570   7.812 -0.2616  0.6776 -0.5098
 1002MOL0     C35164   7.152  11.706   7.770 -0.5670  0.0757  0.3083
 1002MOL0     O35165   7.112  11.814   7.851 -0.1254 -0.3675  0.3086
 1002MOL0     C35166   7.151  11.938   7.810  0.3035 -0.2803  0.1409
 1002MOL0     C35167   7.280  11.998   7.833  0.9652  0.9558  0.0276
 1002MOL0     C35168   7.304  12.134   7.796 -1.1335 -0.3747  0.8336
 1002MOL0     C35169   7.209  12.212   7.742  0.5973  0.3392 -0.3131
 1002MOL0     O35170   7.250  12.335   7.708 -0.2191 -0.0062 -0.8488
 1002MOL0     C35171   7.155  12.438   7.728  0.7369  0.4962 -0.7755
 1002MOL0     C35172   7.086  12.484   7.610 -0.4193  0.0696 -0.0632
 1002MOL0     C35173   7.150  12.604   7.538 -0.8377 -0.8492 -0.2494
 1002MOL0     C35174   7.274  12.576   7.463 -0.6011 -0.0541 -0.2103
 1002MOL0     C35175   7.332  12.698   7.405  0.1804 -0.3059 -0.2820
 1002MOL0     C35176   7.479  12.666   7.346 -0.6617  0.0192  0.4628
 1002MOL0     C35177   7.548  12.774   7.275  0.1279  0.0081 -1.0067
 1002MOL0     C35178   7.597  12.891   7.367  0.0285 -0.3752  0.3083
 1002MOL0    Cl35179   7.630  13.028   7.263  0.2570 -0.6688 -0.3392
 1002MOL0     C35180   7.088  12.151   7.709  0.2944  1.2517 -0.0133
 1002MOL0     C35181   7.055  12.025   7.761  0.2326  0.1287  0.5526
 1002MOL0     O35182   7.185  11.720   7.653 -0.7074  0.4135  0.1757
 1002MOL0     C35183   7.035  11.531   7.913 -0.1815  0.6150 -0.4256
 1002MOL0     C35184   7.002  11.397   7.944  0.0404 -0.5726  0.0657
 1002MOL0     N35185   6.949  10.768   8.510 -0.0094  0.1272 -0.7010
 1002MOL0     N35186   7.003  10.735   8.621 -0.0694  0.6106 -0.0441
 1002MOL0     C35187   7.233  11.447   8.813  0.1057 -0.4378 -1.0932
 1002MOL0     C35188   7.178  11.498   8.694 -0.3546  0.0379  0.3592
 1002MOL0     C35189   6.864  11.496   8.353 -0.0723 -0.4033 -0.1867
 1002MOL0     C35190   6.890  11.629   8.317 -0.0151  0.4842  0.6610
 1002MOL0     C35191   6.825  11.683   8.204 -1.5788 -0.5170  0.1722
 1002MOL0     C35192   6.727  11.620   8.139  0.3800 -0.1548  0.2043
 1002MOL0     O35193   6.656  11.671   8.032 -0.2199 -0.1474  0.1599
 1002MOL0     C35194   6.559  11.772   8.070 -0.3470  0.8621  0.0651
 1002MOL0     C35195   6.616  11.913   8.061 -0.0174  0.0243 -0.1658
 1002MOL0     C35196   6.693  11.958   7.933  0.1449  0.9931 -0.2265
 1002MOL0     C35197   6.703  12.111   7.949 -1.0704  0.4723  0.9321
 1002MOL0     C35198   6.729  12.173   7.821  0.0755 -0.3353 -0.0225
 1002MOL0     C35199   6.757  12.219   7.714 -0.5581  0.0906  0.0125
 1002MOL0     C35200   6.704  11.492   8.179  0.1819  0.4939 -0.4443
 1002MOL0     C35201   6.773  11.423   8.283  0.9948 -0.7417 -0.9523
 1002MOL0     C35202   6.739  11.277   8.302  0.0369 -0.1826 -0.3202
 1002MOL0     H35203   7.127  11.213   8.524 -0.6242 -1.7250  1.6283
 1002MOL0     H35204   7.236  11.124   8.721 -3.4938 -0.3976  2.1708
 1002MOL0     H35205   7.375  11.084   8.877 -0.4447  2.1725 -1.3262
 1002MOL0     H35206   7.498  11.206   8.837 -1.4915 -0.4144 -1.3597
 1002MOL0     H35207   7.450  11.115   9.107  1.3120 -1.3226  1.3345
 1002MOL0     H35208   7.552  11.250   9.060 -1.4764  0.5631 -0.1160
 1002MOL0     H35209   7.681  11.020   9.087 -0.1683  0.5466  0.4643
 1002MOL0     H35210   7.689  11.079   8.918 -1.2964  1.2113 -0.8310
 1002MOL0     H35211   7.594  10.826   9.025  0.4899 -0.6685 -1.0974
 1002MOL0     H35212   7.449  10.921   8.994 -0.2270  2.0843 -0.1357
 1002MOL0     H35213   7.546  10.952   8.748  0.9989 -0.4057 -0.2436
 1002MOL0     H35214   7.666  10.827   8.803  0.6207  2.7612 -0.1019
 1002MOL0     H35215   7.515  10.698   8.713  0.9887 -2.3597  1.9327
 1002MOL0     H35216   7.463  10.687   8.881 -0.3801  1.7060  1.0279
 1002MOL0     H35217   7.349  10.877   8.647 -0.9761  1.3663  1.1336
 1002MOL0     H35218   7.298  10.880   8.799 -0.8082 -1.4516  0.8200
 1002MOL0     H35219   7.285  10.609   8.698  0.7914  0.7433 -3.0096
 1002MOL0     H35220   7.173  10.694   8.806 -0.7008  0.4457 -0.3722
 1002MOL0     H35221   7.257  10.775   8.417 -0.1260 -1.5067 -0.7972
 1002MOL0     H35222   7.107  10.767   8.204 -2.1667 -3.2054 -1.6363
 1002MOL0     H35223   6.934  10.761   8.224  0.2596  0.6687 -2.4301
 1002MOL0     H35224   6.901  10.993   8.249  1.1962  1.5064  1.1701
 1002MOL0     H35225   7.060  11.016   8.311  1.4822 -2.9606  1.3774
 1002MOL0     H35226   6.978  10.922   8.020  0.6142 -0.3967 -1.6527
 1002MOL0     H35227   7.147  10.960   8.077 -0.4958  0.5214 -0.0379
 1002MOL0     H35228   7.066  11.210   8.108 -1.6956  1.6484  0.0340
 1002MOL0     H35229   6.908  11.162   8.059  0.5171  0.0419  2.7974
 1002MOL0     H35230   7.197  11.242   7.726  1.3406  0.5546  0.2765
 1002MOL0     H35231   7.253  11.469   7.661 -0.4527  2.1913  0.0014
 1002MOL0     H35232   7.355  11.931   7.873 -0.8495 -0.6457  0.9361
 1002MOL0     H35233   7.401  12.181   7.810 -1.3035  0.3151 -0.2428
 1002MOL0     H35234   7.074  12.399   7.789 -0.0921  0.7500 -1.6947
 1002MOL0     H35235   7.205  12.520   7.780  2.5942 -1.1067  0.1019
 1002MOL0     H35236   7.087  12.397   7.543 -1.0000 -0.3763  0.4928
 1002MOL0     H35237   6.982  12.514   7.624 -0.9644 -1.6707 -0.1579
 1002MOL0     H35238   7.068  12.639   7.474 -3.4621 -1.0981  2.7496
 1002MOL0     H35239   7.172  12.684   7.609 -2.8532  1.9781 -2.5656
 1002MOL0     H35240   7.265  12.501   7.383 -2.8207 -0.4270  0.3088
 1002MOL0     H35241   7.345  12.529   7.532  2.6409 -0.4539 -3.5228
 1002MOL0     H35242   7.346  12.771   7.486 -0.1296  1.0196 -1.3864
 1002MOL0     H35243   7.264  12.743   7.332 -1.4256  0.1927  1.4325
 1002MOL0     H35244   7.547  12.632   7.425 -0.1926 -1.5508 -0.5762
 1002MOL0     H35245   7.469  12.589   7.270  1.4421 -1.2650  1.3816
 1002MOL0     H35246   7.481  12.811   7.197 -0.6420  0.4993 -0.1449
 1002MOL0     H35247   7.632  12.726   7.224 -0.9878 -0.1109 -2.8132
 1002MOL0     H35248   7.523  12.926   7.440  0.6389 -0.9201  1.2001
 1002MOL0     H35249   7.686  12.861   7.422 -0.5128 -3.0706 -0.1340
 1002MOL0     H35250   7.026  12.213   7.645  2.9018  1.2621 -2.7296
 1002MOL0     H35251   6.956  11.990   7.737 -1.0444  2.7952  1.5587
 1002MOL0     H35252   6.986  11.609   7.971  2.7341  1.2659  1.3865
 1002MOL0     H35253   6.928  11.387   8.023  0.3998  0.5607  0.5741
 1002MOL0     H35254   7.272  11.517   8.886 -1.6532  0.8119 -1.2672
 1002MOL0     H35255   7.153  11.603   8.691 -0.4506  0.0786 -3.6358
 1002MOL0     H35256   6.965  11.685   8.372 -0.0042  2.5940 -1.3277
 1002MOL0     H35257   6.852  11.781   8.166  1.1882 -1.6508 -1.0353
 1002MOL0     H35258   6.517  11.749   8.168  0.0648  0.3653  0.1283
 1002MOL0     H35259   6.477  11.755   8.000  0.2240 -1.4423 -0.1202
 1002MOL0     H35260   6.692  11.933   8.137  1.8642  1.3207 -2.2276
 1002MOL0     H35261   6.528  11.971   8.088 -0.6857 -1.8356  1.9567
 1002MOL0     H35262   6.631  11.923   7.850 -0.9225 -1.8195  1.5895
 1002MOL0     H35263   6.793  11.915   7.925  1.1922  2.5916  2.7589
 1002MOL0     H35264   6.611  12.156   7.987 -0.7109  1.8359  0.2552
 1002MOL0     H35265   6.789  12.127   8.015 -1.7647  0.3239  1.8853
 1002MOL0     H35266   6.792  12.257   7.621 -1.3400 -0.1238 -0.3780
 1002MOL0     H35267   6.627  11.433   8.130  0.2054 -2.0200  2.2444
 1002MOL0     H35268   6.747  11.252   8.408  2.3431 -1.1255 -0.6493
 1002MOL0     H35269   6.641  11.257   8.259  0.2239 -2.8683  0.3433
 1002MOL0     H35270   6.818  11.228   8.244 -0.5076  1.9269 -3.0856
 1003MOL0     O35271   5.924   1.217   0.810 -0.0839 -0.1341  1.0391
 1003MOL0     C35272   5.870   1.107   0.792 -0.2294 -0.0549  0.8949
 1003MOL0     O35273   5.935   0.999   0.737  0.5125 -0.0928  0.6930
 1003MOL0     C35274   6.031   1.035   0.637 -0.3593  0.6111 -0.9798
 1003MOL0     C35275   6.148   0.961   0.643  0.0789  0.1378 -0.0975
 1003MOL0     C35276   6.246   0.996   0.555 -0.0873 -1.0180  0.1347
 1003MOL0     C35277   6.236   1.096   0.452  0.2860  0.8675 -0.3497
 1003MOL0     O35278   6.334   1.124   0.362 -0.3401 -0.0924 -0.4982
 1003MOL0     C35279   6.468   1.059   0.360  0.7484  0.1551  0.2582
 1003MOL0     C35280   6.558   1.133   0.262 -0.4526  0.1495 -0.1415
 1003MOL0     C35281   6.596   1.270   0.312 -0.6870 -0.1983  0.5221
 1003MOL0     C35282   6.684   1.336   0.200  0.4222 -0.5327 -0.9421
 1003MOL0     C35283   6.698   1.480   0.249 -0.5701  0.8127 -1.0883
 1003MOL0     C35284   6.807   1.550   0.156  0.2833  0.2659  0.2790
 1003MOL0     C35285   6.797   1.701   0.141  0.6370  0.5548 -0.4329
 1003MOL0     C35286   6.681   1.745   0.051  0.3337  0.1307  0.7275
 1003MOL0     N35287   6.666   1.892   0.062  0.1676  0.0000  0.0560
 1003MOL0     C35288   6.605   1.961   0.156  0.7847 -0.3272 -0.5999
 1003MOL0     C35289   6.642   2.089   0.132 -0.3379  0.0336  0.2250
 1003MOL0     C35290   6.624   2.209   0.222 -0.0731  0.6723 -0.6134
 1003MOL0     C35291   6.654   2.344   0.156 -0.2415 -0.1926 -0.2963
 1003MOL0     C35292   6.612   2.459   0.241 -0.9874 -0.3061 -0.1395
 1003MOL0     C35293   6.619   2.603   0.189  0.2424 -0.3709 -0.4478
 1003MOL0     O35294   6.762   2.644   0.196 -0.2909 -0.0401 -0.2233
 1003MOL0     C35295   6.793   2.776   0.167 -0.3571 -0.6676 -1.3657
 1003MOL0     C35296   6.700   2.880   0.118  0.1088  0.3309 -1.7510
 1003MOL0     C35297   6.747   3.017   0.110  0.0441  0.3584  0.1911
 1003MOL0     C35298   6.881   3.053   0.128  0.1173 -0.1648  0.9733
 1003MOL0     C35299   6.932   3.183   0.110  0.3700 -0.4850 -0.0364
 1003MOL0     O35300   6.851   3.274   0.055 -0.1530  0.1161  0.4697
 1003MOL0     C35301   6.914   3.378  -0.002 -0.1002  0.8128  0.5240
 1003MOL0     C35302   6.899   3.504   0.039 -0.0452  0.3374  0.1768
 1003MOL0     C35303   6.962   3.604  -0.031  0.3957  0.4022  0.6687
 1003MOL0     C35304   7.036   3.581  -0.148  1.0485  0.4923 -0.0837
 1003MOL0     O35305   7.071   3.690  -0.231 -0.4048  0.8717  0.6882
 1003MOL0     C35306   7.052   3.680  -0.371 -0.5670  0.8744  1.0645
 1003MOL0     C35307   7.192   3.661  -0.448 -0.7235  0.5507 -0.9879
 1003MOL0     C35308   7.280   3.789  -0.408 -0.7417 -0.6419 -0.2593
 1003MOL0     C35309   7.429   3.747  -0.388  0.1610  0.6640 -0.4969
 1003MOL0     C35310   7.529   3.865  -0.389  0.1727 -0.8033 -0.4969
 1003MOL0     C35311   7.673   3.815  -0.353  0.2538 -0.1899  0.2229
 1003MOL0     C35312   7.765   3.927  -0.311  0.1386 -0.0774 -0.5292
 1003MOL0     C35313   7.895   3.886  -0.237 -0.2383 -0.2159  0.5302
 1003MOL0    Cl35314   7.852   3.773  -0.100 -0.0534 -0.6324 -0.1985
 1003MOL0     C35315   7.051   3.458  -0.195 -0.0757  0.6719 -0.9919
 1003MOL0     C35316   6.988   3.355  -0.122 -1.2240  1.0419  0.4409
 1003MOL0     O35317   7.047   3.203   0.146  0.2368  0.3147 -0.2014
 1003MOL0     C35318   6.967   2.944   0.140  0.9390 -0.5945  0.0540
 1003MOL0     C35319   6.933   2.813   0.166 -0.7528  0.6325 -0.5279
 1003MOL0     N35320   6.691   2.096   0.002  0.3005  0.2780  0.3653
 1003MOL0     N35321   6.722   1.977  -0.031 -0.0328  0.4964 -0.0885
 1003MOL0     C35322   6.115   1.159   0.446 -0.7569 -0.1856 -0.7742
 1003MOL0     C35323   6.008   1.129   0.536 -1.4786  0.9010  1.4220
 1003MOL0     C35324   5.743   1.076   0.856  1.2585 -0.6792  0.4030
 1003MOL0     C35325   5.669   0.970   0.804  0.0893 -0.3500  0.7922
 1003MOL0     C35326   5.545   0.930   0.856 -1.3663 -0.6281  0.3310
 1003MOL0     C35327   5.496   0.996   0.970  0.6476  0.0564 -0.3575
 1003MOL0     O35328   5.367   0.958   1.022 -0.3429  0.2642 -0.4304
 1003MOL0     C35329   5.256   1.033   0.967 -0.1547  1.3754  0.6149
 1003MOL0     C35330   5.221   0.980   0.831 -0.1797  0.1572 -0.8462
 1003MOL0     C35331   5.178   0.831   0.851  0.2110 -0.9983  1.1922
 1003MOL0     C35332   5.153   0.777   0.701 -0.0996  0.2088 -0.9652
 1003MOL0     C35333   5.271   0.774   0.616  0.1052  0.7040 -0.5581
 1003MOL0     C35334   5.358   0.804   0.536 -0.4551 -0.3681  0.1247
 1003MOL0     C35335   5.574   1.095   1.029  0.1756 -0.3557 -0.5795
 1003MOL0     C35336   5.692   1.143   0.968  0.3674 -0.5659  0.3896
 1003MOL0     C35337   5.774   1.248   1.038  0.7617 -0.7600  0.4262
 1003MOL0     H35338   6.150   0.882   0.717 -1.1961  0.4100  0.2488
 1003MOL0     H35339   6.343   0.948   0.565  0.3112  0.0148  1.5732
 1003MOL0     H35340   6.510   1.074   0.460 -0.5545  3.4465  0.4493
 1003MOL0     H35341   6.468   0.960   0.315 -1.1854  1.2390 -2.3837
 1003MOL0     H35342   6.504   1.136   0.167  0.2944 -0.4866 -0.5932
 1003MOL0     H35343   6.649   1.078   0.237 -0.4865  1.0573 -2.6373
 1003MOL0     H35344   6.654   1.262   0.405 -0.0402 -1.6230  0.0304
 1003MOL0     H35345   6.508   1.333   0.327  0.2988  0.8491  2.1924
 1003MOL0     H35346   6.777   1.287   0.171  0.3427 -0.3107 -1.5820
 1003MOL0     H35347   6.617   1.354   0.116 -1.7618  3.1471  1.2820
 1003MOL0     H35348   6.605   1.536   0.234  0.5870  3.2351  0.1555
 1003MOL0     H35349   6.723   1.494   0.355 -2.7856  0.7846 -0.5126
 1003MOL0     H35350   6.904   1.528   0.200  2.1591  1.7191 -2.8024
 1003MOL0     H35351   6.809   1.495   0.062  1.8145 -2.8833  1.9775
 1003MOL0     H35352   6.890   1.745   0.104  1.5163  0.2307  1.2777
 1003MOL0     H35353   6.780   1.737   0.243  1.8112  1.5066 -0.5460
 1003MOL0     H35354   6.705   1.713  -0.050  3.0232 -2.2217  1.9750
 1003MOL0     H35355   6.584   1.698   0.073 -0.3195  0.7881 -0.6390
 1003MOL0     H35356   6.568   1.920   0.249  3.1084  1.9426  1.5184
 1003MOL0     H35357   6.519   2.216   0.251  0.8969  2.7852  2.9906
 1003MOL0     H35358   6.682   2.196   0.314 -0.4980 -2.6052 -0.6697
 1003MOL0     H35359   6.762   2.358   0.139 -0.1956  0.8211  0.6919
 1003MOL0     H35360   6.604   2.352   0.059  1.1438  1.6220 -0.9109
 1003MOL0     H35361   6.659   2.464   0.339 -2.2651 -3.8794  0.8290
 1003MOL0     H35362   6.507   2.442   0.264 -0.4653 -0.3846  2.4415
 1003MOL0     H35363   6.552   2.663   0.251  0.3612  0.4559 -1.1053
 1003MOL0     H35364   6.599   2.609   0.082  2.8424  0.9887 -0.9492
 1003MOL0     H35365   6.599   2.844   0.102 -0.1280 -3.2765  4.4966
 1003MOL0     H35366   6.670   3.093   0.102  1.1048  1.4036 -0.3914
 1003MOL0     H35367   6.840   3.535   0.124  0.4805 -0.8115  0.9752
 1003MOL0     H35368   6.934   3.704   0.000 -0.1609  0.3761  0.2817
 1003MOL0     H35369   6.978   3.604  -0.395  0.4902 -0.3477  1.5751
 1003MOL0     H35370   7.011   3.776  -0.406 -5.0674 -1.7946 -2.0469
 1003MOL0     H35371   7.245   3.579  -0.400 -3.1613 -0.7041 -0.2905
 1003MOL0     H35372   7.168   3.642  -0.553 -2.0361  0.0632 -0.6185
 1003MOL0     H35373   7.278   3.860  -0.491 -0.0163 -2.6258 -2.0465
 1003MOL0     H35374   7.235   3.828  -0.316 -1.3184 -0.1323 -0.7440
 1003MOL0     H35375   7.455   3.690  -0.478  1.0781  0.8647 -0.3707
 1003MOL0     H35376   7.447   3.691  -0.297  1.0592  1.1101 -0.3831
 1003MOL0     H35377   7.482   3.938  -0.322 -4.3198 -6.2613  3.2635
 1003MOL0     H35378   7.536   3.905  -0.490 -2.0160 -1.0475 -0.7868
 1003MOL0     H35379   7.667   3.749  -0.265  1.0000  0.3217  0.6688
 1003MOL0     H35380   7.713   3.761  -0.439  0.9308  1.2158 -0.3637
 1003MOL0     H35381   7.704   4.001  -0.259  2.5385  0.8557  1.1394
 1003MOL0     H35382   7.790   3.982  -0.402  2.5359 -2.5029 -1.4840
 1003MOL0     H35383   7.971   3.855  -0.309 -0.4462  1.5898 -0.5497
 1003MOL0     H35384   7.940   3.981  -0.205 -1.6516  0.7711 -0.2566
 1003MOL0     H35385   7.104   3.436  -0.287 -1.6131 -0.8881 -1.5473
 1003MOL0     H35386   7.005   3.252  -0.153  1.1601  1.1898  1.0439
 1003MOL0     H35387   7.071   2.974   0.135  0.9957 -0.6160  0.8842
 1003MOL0     H35388   7.002   2.733   0.192 -2.8288 -0.5440  1.7293
 1003MOL0     H35389   6.101   1.236   0.371  1.4990  1.0426 -0.0367
 1003MOL0     H35390   5.921   1.193   0.543 -0.4424  2.2768  2.3248
 1003MOL0     H35391   5.698   0.901   0.726  0.0184 -0.2837  0.7070
 1003MOL0     H35392   5.494   0.848   0.806  0.8078 -0.6449 -2.0286
 1003MOL0     H35393   5.285   1.139   0.963 -0.8529  1.6434  1.9574
 1003MOL0     H35394   5.167   1.024   1.030 -0.2708 -1.7255  0.1328
 1003MOL0     H35395   5.307   1.004   0.768  1.3202  2.5382  1.9007
 1003MOL0     H35396   5.135   1.041   0.804 -1.6175  0.6088  3.8859
 1003MOL0     H35397   5.082   0.819   0.902 -0.4897 -1.7702 -0.2432
 1003MOL0     H35398   5.248   0.769   0.907 -1.3560 -3.4673  0.6153
 1003MOL0     H35399   5.110   0.676   0.703 -0.9999  0.5454  2.4528
 1003MOL0     H35400   5.088   0.852   0.656  1.5107  1.5953 -1.0622
 1003MOL0     H35401   5.424   0.834   0.457 -0.9464  0.4883  0.0214
 1003MOL0     H35402   5.524   1.141   1.114  0.0874 -0.8969 -0.3279
 1003MOL0     H35403   5.773   1.336   0.973 -0.0386 -1.2281 -0.2177
 1003MOL0     H35404   5.742   1.275   1.139 -0.2390  0.0509 -0.0809
 1003MOL0     H35405   5.880   1.226   1.054  1.3852  2.7543  2.2872
 1004MOL0     O35406   4.746   6.672   9.734 -0.5454 -0.2441  0.4586
 1004MOL0     C35407   4.779   6.580   9.806  0.0814  0.9469  0.1230
 1004MOL0     O35408   4.899   6.521   9.814 -0.6599  0.4285 -0.3300
 1004MOL0     C35409   4.986   6.546   9.704 -0.4242  0.1631  0.4867
 1004MOL0     C35410   5.099   6.624   9.737  0.6197 -0.3312 -0.6794
 1004MOL0     C35411   5.195   6.663   9.651  0.1283 -0.0552  0.0831
 1004MOL0     C35412   5.185   6.613   9.520 -1.3594 -0.7321  0.6789
 1004MOL0     O35413   5.278   6.654   9.426 -0.2983 -0.2515 -0.0227
 1004MOL0     C35414   5.405   6.598   9.451  0.4422 -0.5710 -0.1761
 1004MOL0     C35415   5.462   6.584   9.314  0.5333  0.1774  0.0225
 1004MOL0     C35416   5.608   6.524   9.303  0.7786  0.2916  0.1322
 1004MOL0     C35417   5.662   6.534   9.161  0.4595  0.5676 -0.0296
 1004MOL0     C35418   5.824   6.537   9.153  0.5047  0.5217 -0.2114
 1004MOL0     C35419   5.855   6.548   9.005  0.4528  0.5427 -0.9820
 1004MOL0     C35420   6.002   6.530   8.986 -0.4763  0.3663  0.0196
 1004MOL0     C35421   6.027   6.554   8.838 -0.8406 -0.4121  0.4466
 1004MOL0     N35422   6.169   6.580   8.792 -0.5662 -0.0968  0.2107
 1004MOL0     C35423   6.223   6.684   8.727  0.2555  0.6770  0.3493
 1004MOL0     C35424   6.356   6.659   8.722  0.6184  0.0128 -0.3357
 1004MOL0     C35425   6.460   6.749   8.650 -0.0639 -0.1816 -0.2630
 1004MOL0     C35426   6.514   6.863   8.739 -0.1293 -0.3005 -0.5666
 1004MOL0     C35427   6.661   6.898   8.699 -0.4798  0.3472  0.4536
 1004MOL0     C35428   6.756   6.792   8.751 -0.0669 -0.6311  0.1680
 1004MOL0     O35429   6.781   6.798   8.895  0.9937 -0.4976 -0.4357
 1004MOL0     C35430   6.889   6.735   8.943 -0.6699  0.3289  0.6103
 1004MOL0     C35431   6.962   6.783   9.051 -0.3504  0.3164  0.1549
 1004MOL0     C35432   7.076   6.718   9.092 -0.2050 -0.2572  0.2232
 1004MOL0     C35433   7.134   6.613   9.026  0.7164  0.2309 -0.1234
 1004MOL0     C35434   7.268   6.568   9.052 -1.0856 -0.5781 -0.2942
 1004MOL0     O35435   7.345   6.639   9.144 -0.0100 -0.6641  0.1839
 1004MOL0     C35436   7.471   6.603   9.168 -0.3724 -0.6570 -0.3886
 1004MOL0     C35437   7.577   6.685   9.146  0.9759  0.7798  0.5787
 1004MOL0     C35438   7.709   6.640   9.180 -0.3823  0.2400  0.2871
 1004MOL0     C35439   7.739   6.512   9.230  1.1880  0.5019 -1.1401
 1004MOL0     O35440   7.871   6.473   9.273 -0.0899 -0.9761  0.4141
 1004MOL0     C35441   7.885   6.439   9.401  0.5135  0.1800 -0.0776
 1004MOL0     C35442   8.012   6.358   9.417  0.0839 -0.6772  0.6055
 1004MOL0     C35443   8.017   6.301   9.563  0.2346 -0.3238  0.3286
 1004MOL0     C35444   8.160   6.251   9.581 -1.0574 -0.6299 -0.5280
 1004MOL0     C35445   8.179   6.200   9.731  0.0563  0.6216  0.6922
 1004MOL0     C35446   8.330   6.210   9.768  0.5366  0.4742  0.5450
 1004MOL0     C35447   8.422   6.087   9.734 -0.1718 -0.7054 -0.0720
 1004MOL0     C35448   8.384   5.974   9.825 -0.4208  0.8741 -0.7618
 1004MOL0    Cl35449   8.461   5.981   9.983  0.1061  0.0998 -0.2155
 1004MOL0     C35450   7.633   6.428   9.246  0.6076  0.9525 -0.6095
 1004MOL0     C35451   7.503   6.468   9.210 -1.1574 -0.0964  0.1116
 1004MOL0     O35452   7.318   6.479   8.983 -0.2023 -0.7134  0.1534
 1004MOL0     C35453   7.052   6.554   8.929  0.1469 -0.5509 -0.2073
 1004MOL0     C35454   6.937   6.616   8.883  0.6794 -0.0453  0.5943
 1004MOL0     N35455   6.373   6.539   8.780 -0.5706 -0.4836 -0.1145
 1004MOL0     N35456   6.263   6.497   8.829 -0.8765 -0.1742 -0.4458
 1004MOL0     C35457   5.078   6.529   9.481 -0.7823  0.8883 -0.0097
 1004MOL0     C35458   4.980   6.495   9.571 -0.3373  0.0187 -0.4237
 1004MOL0     C35459   4.677   6.548   9.917 -0.4029  0.2458  0.1908
 1004MOL0     C35460   4.549   6.509   9.862 -0.0772 -0.4571 -0.5755
 1004MOL0     C35461   4.440   6.485   9.945  0.5146  0.2021 -0.1929
 1004MOL0     C35462   4.454   6.492  10.082  0.2539 -0.6895 -0.0905
 1004MOL0     O35463   4.333   6.494  10.155 -0.7052  0.1700  0.2039
 1004MOL0     C35464   4.338   6.585  10.271  0.6891  0.2560 -0.3221
 1004MOL0     C35465   4.340   6.514  10.411 -0.1423  0.3562 -1.2272
 1004MOL0     C35466   4.381   6.607  10.526  0.1155  0.2146 -0.3792
 1004MOL0     C35467   4.261   6.702  10.556 -0.4001  0.3488 -0.1723
 1004MOL0     C35468   4.139   6.648  10.617  0.4566 -0.9171 -0.1164
 1004MOL0     C35469   4.043   6.621  10.682  0.0694 -0.4070 -0.2495
 1004MOL0     C35470   4.580   6.532  10.132 -0.1070 -0.0971  0.2028
 1004MOL0     C35471   4.699   6.559  10.054  1.2638 -0.6195  0.1740
 1004MOL0     C35472   4.825   6.582  10.109 -0.2944 -0.7582  0.0857
 1004MOL0     H35473   5.089   6.669   9.835 -1.8024  1.3509 -1.6100
 1004MOL0     H35474   5.272   6.728   9.693 -0.5663  0.0757  1.1896
 1004MOL0     H35475   5.469   6.657   9.517  1.7335 -1.0644 -0.9535
 1004MOL0     H35476   5.404   6.501   9.503  0.1166 -0.1478  0.6293
 1004MOL0     H35477   5.454   6.687   9.278 -0.8613 -0.0090 -0.2321
 1004MOL0     H35478   5.391   6.527   9.255  0.8331  1.3569 -1.5753
 1004MOL0     H35479   5.612   6.417   9.326  2.3628  0.1145 -0.8387
 1004MOL0     H35480   5.672   6.580   9.371 -0.1944 -0.8682  2.1039
 1004MOL0     H35481   5.620   6.455   9.098 -0.3210  2.0715 -1.4898
 1004MOL0     H35482   5.618   6.620   9.110 -0.9254 -0.5582 -0.8073
 1004MOL0     H35483   5.885   6.612   9.204 -0.5041  1.0093  0.3246
 1004MOL0     H35484   5.861   6.440   9.187 -1.7240 -0.1665  0.4012
 1004MOL0     H35485   5.806   6.467   8.951 -2.1475  1.3069  0.1106
 1004MOL0     H35486   5.815   6.644   8.971  2.3700  0.8732 -2.5093
 1004MOL0     H35487   6.043   6.438   9.029 -2.6871  0.6362  2.9790
 1004MOL0     H35488   6.048   6.614   9.038  1.8164  0.4745 -1.9742
 1004MOL0     H35489   5.986   6.475   8.775  2.0476 -0.0143 -2.1752
 1004MOL0     H35490   5.984   6.653   8.818  1.5074  1.3729  3.4415
 1004MOL0     H35491   6.169   6.770   8.689 -3.9540 -0.3002  3.3898
 1004MOL0     H35492   6.548   6.695   8.616  0.3823 -0.6267  1.5057
 1004MOL0     H35493   6.421   6.788   8.555 -3.3470 -1.5485  0.3644
 1004MOL0     H35494   6.455   6.953   8.726 -2.8216 -1.9123 -0.1622
 1004MOL0     H35495   6.504   6.847   8.847  0.4364  3.4225  0.1595
 1004MOL0     H35496   6.685   6.987   8.757 -3.4206  1.6689 -0.2152
 1004MOL0     H35497   6.657   6.906   8.590  0.2943  0.1565  0.4005
 1004MOL0     H35498   6.855   6.805   8.707 -0.7751  1.3746 -0.9653
 1004MOL0     H35499   6.721   6.690   8.731  1.2030 -1.2500  1.0106
 1004MOL0     H35500   6.925   6.869   9.105 -1.3034  0.3341 -0.5021
 1004MOL0     H35501   7.127   6.773   9.170  3.9189 -0.3522 -2.1523
 1004MOL0     H35502   7.555   6.787   9.116 -0.1869  0.1441 -0.8862
 1004MOL0     H35503   7.795   6.704   9.164 -0.9907  1.3428  1.1828
 1004MOL0     H35504   7.895   6.533   9.456 -0.0114  1.2313 -1.7229
 1004MOL0     H35505   7.798   6.392   9.447 -0.6961  1.2379 -1.1876
 1004MOL0     H35506   8.014   6.276   9.345  3.6803 -0.0277 -0.2188
 1004MOL0     H35507   8.096   6.427   9.403 -0.2794  0.2920  2.8130
 1004MOL0     H35508   7.983   6.374   9.638  0.5728  0.2673 -0.0807
 1004MOL0     H35509   7.951   6.216   9.583 -0.7137  0.5617  1.0824
 1004MOL0     H35510   8.234   6.329   9.564  1.3944 -1.9308  2.9804
 1004MOL0     H35511   8.188   6.182   9.501  2.3693  1.7020 -1.5530
 1004MOL0     H35512   8.135   6.100   9.737 -1.5819  1.3048  0.4773
 1004MOL0     H35513   8.120   6.261   9.799  0.5450 -0.4102  2.0795
 1004MOL0     H35514   8.377   6.291   9.713  0.7065 -0.7558 -1.2174
 1004MOL0     H35515   8.336   6.232   9.875  0.5308  1.7176  0.2948
 1004MOL0     H35516   8.528   6.113   9.735 -0.5778  1.2784 -1.6147
 1004MOL0     H35517   8.403   6.073   9.628  3.6387  2.4124 -1.3800
 1004MOL0     H35518   8.279   5.971   9.853 -0.8790 -1.8500 -2.4283
 1004MOL0     H35519   8.408   5.879   9.777 -0.0522  1.4660 -1.8043
 1004MOL0     H35520   7.644   6.332   9.294  3.3299  1.0783 -0.8277
 1004MOL0     H35521   7.425   6.394   9.222  0.4952 -2.1195 -0.9617
 1004MOL0     H35522   7.095   6.466   8.881  1.7575  0.4839 -0.7238
 1004MOL0     H35523   6.899   6.566   8.795  2.4149 -1.4061  0.5487
 1004MOL0     H35524   5.079   6.490   9.379 -0.5695 -0.5719  0.5269
 1004MOL0     H35525   4.907   6.416   9.551 -0.2768 -0.0110 -0.5284
 1004MOL0     H35526   4.530   6.502   9.756 -0.9527  2.7121 -0.7495
 1004MOL0     H35527   4.344   6.454   9.904  0.8356 -0.0993 -0.7304
 1004MOL0     H35528   4.249   6.648  10.274  0.1165 -0.3256 -3.0914
 1004MOL0     H35529   4.422   6.656  10.263  0.4698  0.2921 -3.6984
 1004MOL0     H35530   4.421   6.441  10.402  1.4136  2.1160 -2.2120
 1004MOL0     H35531   4.246   6.459  10.422  0.2231 -0.0379  0.0980
 1004MOL0     H35532   4.476   6.657  10.504  0.2506  0.0202 -0.2512
 1004MOL0     H35533   4.397   6.540  10.611 -0.4846  1.1017  0.4626
 1004MOL0     H35534   4.312   6.776  10.619  1.2350 -1.7227  1.0907
 1004MOL0     H35535   4.222   6.743  10.463  3.6084 -2.9750 -3.7222
 1004MOL0     H35536   3.973   6.602  10.761 -2.2050 -1.3479 -2.3575
 1004MOL0     H35537   4.591   6.538  10.240 -0.0917  0.5209  0.1741
 1004MOL0     H35538   4.838   6.511  10.191  0.3538  0.0028  0.6625
 1004MOL0     H35539   4.905   6.559  10.038 -1.3948  0.6537 -1.6992
 1004MOL0     H35540   4.832   6.687  10.138  0.0441 -1.4319  2.7885
 1005MOL0     O35541   2.026   8.004   1.917 -0.0113 -1.2727 -0.5133
 1005MOL0     C35542   2.000   7.938   1.821  0.7364  0.1601 -0.1217
 1005MOL0     O35543   1.906   7.965   1.728  0.7063 -0.7371 -0.8725
 1005MOL0     C35544   1.848   8.091   1.708  0.8189  0.3841  0.1679
 1005MOL0     C35545   1.772   8.109   1.589 -1.1109  0.4157  0.1567
 1005MOL0     C35546   1.716   8.227   1.557  0.3835  0.0848 -0.0520
 1005MOL0     C35547   1.724   8.333   1.640 -0.9421 -0.1090  0.3442
 1005MOL0     O35548   1.672   8.454   1.592  0.3207  0.4755 -0.2566
 1005MOL0     C35549   1.693   8.581   1.666  0.2561  0.0025  0.0999
 1005MOL0     C35550   1.667   8.698   1.570 -0.1718 -0.4705 -0.7684
 1005MOL0     C35551   1.696   8.821   1.650  0.2486  0.4557  0.3343
 1005MOL0     C35552   1.577   8.852   1.745 -0.1720  0.6299 -0.0013
 1005MOL0     C35553   1.565   8.999   1.804  0.0871 -0.5825  0.5042
 1005MOL0     C35554   1.470   9.003   1.926  0.4388  0.2299 -0.9037
 1005MOL0     C35555   1.441   9.147   1.962 -0.7201 -0.4704 -0.6172
 1005MOL0     C35556   1.345   9.221   1.857  0.0099  0.5668  0.1524
 1005MOL0     N35557   1.355   9.364   1.879 -0.2422  0.1307 -0.1279
 1005MOL0     C35558   1.305   9.443   1.982 -0.2188  0.0461  0.8690
 1005MOL0     C35559   1.319   9.571   1.943  0.5595 -0.7487  0.9778
 1005MOL0     C35560   1.268   9.697   2.013 -0.1759  0.6669  0.0185
 1005MOL0     C35561   1.117   9.714   1.979 -0.3768  0.7118 -0.4053
 1005MOL0     C35562   1.095   9.719   1.828 -0.1254 -0.4179  0.0284
 1005MOL0     C35563   1.174   9.821   1.753 -1.1043  0.4025  0.2601
 1005MOL0     O35564   1.179   9.944   1.822 -0.1208  0.3756 -0.0336
 1005MOL0     C35565   1.260  10.031   1.761  0.0016 -0.4127 -0.4735
 1005MOL0     C35566   1.399  10.012   1.765 -0.3396 -0.3701  0.4136
 1005MOL0     C35567   1.488  10.098   1.711 -0.1262  0.1964 -0.3503
 1005MOL0     C35568   1.446  10.222   1.669  0.1594 -0.3026  0.1664
 1005MOL0     C35569   1.541  10.331   1.612  1.0064 -0.3584  0.2055
 1005MOL0     O35570   1.486  10.453   1.578 -0.7753  0.0602  0.6129
 1005MOL0     C35571   1.573  10.555   1.574  0.3111 -0.9532  1.3946
 1005MOL0     C35572   1.670  10.567   1.472 -0.4878 -0.1695  0.0823
 1005MOL0     C35573   1.746  10.685   1.459 -0.2828 -0.2947 -0.2462
 1005MOL0     C35574   1.734  10.792   1.553 -0.5545 -0.8140  0.6161
 1005MOL0     O35575   1.804  10.908   1.548  0.1355 -0.2214 -0.1632
 1005MOL0     C35576   1.852  10.949   1.424 -1.7643 -0.7174  1.2726
 1005MOL0     C35577   2.001  10.927   1.411  0.4765 -0.2891  0.0103
 1005MOL0     C35578   2.075  10.990   1.290 -0.5289 -0.1151  0.2210
 1005MOL0     C35579   2.094  11.138   1.305  0.2361 -1.1778  0.5449
 1005MOL0     C35580   2.099  11.213   1.170  0.9476 -0.3479 -0.5795
 1005MOL0     C35581   2.221  11.162   1.097 -0.8104  0.3781 -1.1738
 1005MOL0     C35582   2.262  11.227   0.964 -0.3696 -0.1166  0.2743
 1005MOL0     C35583   2.279  11.374   0.981 -0.8351 -0.2240  0.1457
 1005MOL0    Cl35584   2.429  11.424   1.048  0.0106 -0.3450  0.3401
 1005MOL0     C35585   1.644  10.774   1.657  0.0556  0.5957 -0.4845
 1005MOL0     C35586   1.565  10.660   1.666  0.2407 -0.5677 -0.0475
 1005MOL0     O35587   1.663  10.309   1.631 -0.2556  0.5099  0.2684
 1005MOL0     C35588   1.302  10.239   1.659 -0.4656  0.6800 -0.9107
 1005MOL0     C35589   1.211  10.146   1.705  0.2610  1.2010 -0.1089
 1005MOL0     N35590   1.374   9.561   1.807  1.1741 -0.0367  0.1057
 1005MOL0     N35591   1.412   9.443   1.786  0.7737  0.6226 -0.3929
 1005MOL0     C35592   1.781   8.314   1.768  0.4285  0.1404 -0.0404
 1005MOL0     C35593   1.839   8.197   1.797  0.8549  1.2279 -0.7326
 1005MOL0     C35594   2.081   7.815   1.797  0.5414  0.2288 -0.3385
 1005MOL0     C35595   2.052   7.734   1.683 -0.0381 -0.0725 -0.3795
 1005MOL0     C35596   2.113   7.618   1.657 -0.3674 -0.1815  0.8614
 1005MOL0     C35597   2.223   7.582   1.733  0.9848  1.2358  0.8051
 1005MOL0     O35598   2.278   7.462   1.709  0.1987 -0.0820  0.5412
 1005MOL0     C35599   2.407   7.420   1.765 -0.0228 -0.0929 -0.1898
 1005MOL0     C35600   2.527   7.495   1.705  0.9451 -0.6815  0.7436
 1005MOL0     C35601   2.668   7.424   1.729 -0.2091 -0.9429 -0.3437
 1005MOL0     C35602   2.792   7.490   1.686  0.7079 -0.3749 -0.1993
 1005MOL0     C35603   2.808   7.615   1.766 -0.2939  0.4696 -0.7576
 1005MOL0     C35604   2.810   7.718   1.829  0.3815 -0.3120  0.5879
 1005MOL0     C35605   2.260   7.654   1.846  0.4773 -0.4603  1.0513
 1005MOL0     C35606   2.187   7.765   1.883 -0.6267  0.8039  0.8102
 1005MOL0     C35607   2.235   7.824   2.016 -0.4026 -0.6434  0.1593
 1005MOL0     H35608   1.750   8.032   1.515  0.3457  0.8277 -0.7522
 1005MOL0     H35609   1.673   8.245   1.459  0.8107  0.7547 -0.1258
 1005MOL0     H35610   1.624   8.585   1.751 -2.6414 -2.3535 -1.9298
 1005MOL0     H35611   1.798   8.590   1.697  0.4624  2.7941 -1.0933
 1005MOL0     H35612   1.566   8.699   1.528 -0.7555  0.3950  0.5796
 1005MOL0     H35613   1.743   8.683   1.493  0.2268  0.9413 -0.6686
 1005MOL0     H35614   1.705   8.894   1.568  1.5931 -1.4109 -1.2497
 1005MOL0     H35615   1.789   8.811   1.706 -1.0364 -0.5754  2.4065
 1005MOL0     H35616   1.486   8.822   1.692  0.1401 -1.5430  0.5928
 1005MOL0     H35617   1.586   8.778   1.826 -1.7618  0.3604 -0.0394
 1005MOL0     H35618   1.667   9.038   1.813 -0.4302  1.0862 -0.4266
 1005MOL0     H35619   1.523   9.062   1.725  0.2760 -0.2037  0.7005
 1005MOL0     H35620   1.373   8.952   1.915  1.1659 -1.7415  1.0086
 1005MOL0     H35621   1.515   8.963   2.017 -3.8596  0.0386  1.4123
 1005MOL0     H35622   1.535   9.202   1.956 -0.8865 -0.1884 -0.6324
 1005MOL0     H35623   1.392   9.154   2.060 -1.9152  0.4888 -1.2481
 1005MOL0     H35624   1.373   9.194   1.755 -1.4636 -0.5963  0.0173
 1005MOL0     H35625   1.243   9.185   1.870 -0.2376  1.8246  1.9571
 1005MOL0     H35626   1.251   9.418   2.073 -1.2382 -0.2068  0.2085
 1005MOL0     H35627   1.274   9.679   2.121 -2.1362  0.6222  0.1394
 1005MOL0     H35628   1.324   9.776   1.963 -1.0299  1.0287 -0.3688
 1005MOL0     H35629   1.074   9.631   2.036  0.0964  1.0578  0.4588
 1005MOL0     H35630   1.078   9.806   2.022 -1.6784 -0.0006 -0.0073
 1005MOL0     H35631   0.991   9.735   1.797  0.6883 -0.5079 -3.0915
 1005MOL0     H35632   1.116   9.623   1.780 -2.1033 -0.4234 -0.9315
 1005MOL0     H35633   1.130   9.845   1.655 -4.5608 -2.0840  1.0272
 1005MOL0     H35634   1.271   9.776   1.727 -1.5804 -0.6511  0.2566
 1005MOL0     H35635   1.440   9.922   1.810 -1.0230 -0.6875  0.4070
 1005MOL0     H35636   1.595  10.075   1.707  0.0827  0.5943  1.8124
 1005MOL0     H35637   1.661  10.506   1.383 -1.7855  1.4481 -0.9401
 1005MOL0     H35638   1.818  10.686   1.377  0.6103 -3.1776  0.4005
 1005MOL0     H35639   1.794  10.915   1.338  0.1841  0.9521 -0.8216
 1005MOL0     H35640   1.852  11.059   1.426 -2.8726 -0.6633  0.0090
 1005MOL0     H35641   2.055  10.954   1.502  1.8704 -1.1138 -0.5535
 1005MOL0     H35642   2.012  10.819   1.401  0.7981 -0.0522 -2.6978
 1005MOL0     H35643   2.175  10.946   1.283 -0.7321 -0.4667 -0.4716
 1005MOL0     H35644   2.019  10.984   1.196  0.0563 -0.1675 -0.1281
 1005MOL0     H35645   2.186  11.157   1.361 -0.3394  1.3014  0.7400
 1005MOL0     H35646   2.002  11.175   1.352 -0.5082  0.3416 -1.9340
 1005MOL0     H35647   2.102  11.322   1.170  3.0269 -0.3634 -1.6519
 1005MOL0     H35648   2.012  11.179   1.112  0.4941 -1.9984  0.9739
 1005MOL0     H35649   2.303  11.180   1.167 -1.9742  2.5092 -0.2778
 1005MOL0     H35650   2.221  11.054   1.078 -0.1446 -0.1082  1.2365
 1005MOL0     H35651   2.168  11.222   0.909  0.1850  1.5067 -0.8937
 1005MOL0     H35652   2.348  11.180   0.915  0.0455  0.5356  0.3648
 1005MOL0     H35653   2.268  11.409   0.878  0.8607  0.9711  0.3273
 1005MOL0     H35654   2.191  11.423   1.024 -1.7691  0.1436 -2.0343
 1005MOL0     H35655   1.636  10.848   1.736  0.3514 -0.6683  0.7749
 1005MOL0     H35656   1.493  10.649   1.747  1.4714 -1.4791  0.9721
 1005MOL0     H35657   1.274  10.333   1.614  2.2704  2.3263  0.5344
 1005MOL0     H35658   1.104  10.161   1.695 -0.1108 -1.0862 -0.0807
 1005MOL0     H35659   1.788   8.391   1.844 -3.3275  1.6904 -1.0181
 1005MOL0     H35660   1.887   8.187   1.894  1.1177 -2.0503 -1.0600
 1005MOL0     H35661   1.982   7.772   1.609 -0.5736  0.2401  0.2880
 1005MOL0     H35662   2.093   7.559   1.568 -0.8189 -0.9589  1.4707
 1005MOL0     H35663   2.417   7.314   1.741  0.6813  0.2903 -1.7536
 1005MOL0     H35664   2.406   7.422   1.874  0.1932 -1.9204 -0.1317
 1005MOL0     H35665   2.540   7.593   1.754 -0.6347  0.6986 -1.4230
 1005MOL0     H35666   2.512   7.518   1.599 -2.6694 -2.0984  0.7955
 1005MOL0     H35667   2.661   7.338   1.661 -2.7913 -1.3771  0.3409
 1005MOL0     H35668   2.676   7.393   1.834 -0.6864 -0.1554 -0.0642
 1005MOL0     H35669   2.877   7.421   1.686  0.4750 -0.6722 -1.1047
 1005MOL0     H35670   2.783   7.533   1.586  0.2146 -0.8828 -0.3794
 1005MOL0     H35671   2.809   7.809   1.886  4.1792 -0.3286  0.8975
 1005MOL0     H35672   2.343   7.624   1.909  0.3547 -2.9291  0.1726
 1005MOL0     H35673   2.314   7.899   2.005  1.0914 -2.0068  1.0183
 1005MOL0     H35674   2.148   7.857   2.074 -0.7550 -0.7618 -0.3009
 1005MOL0     H35675   2.282   7.750   2.082  2.4610 -1.0372 -2.1164
 1006MOL0     O35676   1.704   7.351   9.376 -0.2760 -0.1738  0.0622
 1006MOL0     C35677   1.708   7.362   9.495 -0.5890  0.3520  0.8262
 1006MOL0     O35678   1.628   7.292   9.576 -0.9528 -0.4596  0.4457
 1006MOL0     C35679   1.574   7.182   9.524  0.6053 -0.4667  0.1424
 1006MOL0     C35680   1.645   7.070   9.493  0.5052 -0.7602 -1.2503
 1006MOL0     C35681   1.576   6.955   9.463 -1.1606  0.2809  0.1762
 1006MOL0     C35682   1.436   6.956   9.438  0.1355  0.4370 -0.1326
 1006MOL0     O35683   1.356   6.851   9.400  0.0466  0.0616 -0.3311
 1006MOL0     C35684   1.415   6.726   9.418 -0.3096  0.0638 -0.2018
 1006MOL0     C35685   1.305   6.610   9.435 -0.1834 -0.0744 -0.1384
 1006MOL0     C35686   1.225   6.628   9.565 -0.1169  0.4425  0.5215
 1006MOL0     C35687   1.142   6.501   9.584 -0.3051 -0.3524 -0.8305
 1006MOL0     C35688   1.047   6.501   9.701 -0.0558  0.5390  0.4389
 1006MOL0     C35689   0.953   6.379   9.692  0.1826  0.1551  0.3687
 1006MOL0     C35690   0.851   6.377   9.811 -0.3133 -0.4947  0.5234
 1006MOL0     C35691   0.743   6.476   9.792 -0.2542  0.9164 -0.3585
 1006MOL0     N35692   0.674   6.478   9.928 -0.2718 -0.8079  0.7511
 1006MOL0     C35693   0.588   6.388   9.982 -0.1646  0.4515  0.4231
 1006MOL0     C35694   0.507   6.455  10.067 -1.5791 -0.1867 -0.3622
 1006MOL0     C35695   0.397   6.374  10.135 -0.5905 -0.1377  0.6323
 1006MOL0     C35696   0.311   6.297  10.039 -0.2338  0.2904 -0.4080
 1006MOL0     C35697   0.228   6.390   9.941 -0.2391  0.6943 -0.6401
 1006MOL0     C35698   0.102   6.335   9.866  1.6370 -0.1221  0.1609
 1006MOL0     O35699   0.129   6.218   9.784  0.4591 -0.1760  0.6328
 1006MOL0     C35700   0.031   6.162   9.705  0.3654 -0.2455 -0.1219
 1006MOL0     C35701   0.078   6.082   9.606 -0.5804  0.7048  1.1402
 1006MOL0     C35702  -0.021   6.013   9.538  0.0076 -0.5142 -0.2429
 1006MOL0     C35703  -0.159   6.027   9.558  0.4606  0.3674 -0.0259
 1006MOL0     C35704  -0.255   5.927   9.508 -1.0053  0.3992  0.3609
 1006MOL0     O35705  -0.383   5.932   9.552 -0.1500 -0.4195  0.0860
 1006MOL0     C35706  -0.472   5.825   9.535  0.8375 -0.7605 -0.5911
 1006MOL0     C35707  -0.606   5.865   9.547  0.6782  0.5006 -0.2263
 1006MOL0     C35708  -0.706   5.768   9.544 -0.3815  0.0356  0.9247
 1006MOL0     C35709  -0.678   5.635   9.515 -0.2541  0.0779 -0.6668
 1006MOL0     O35710  -0.778   5.534   9.541 -0.4136 -0.7472 -0.0251
 1006MOL0     C35711  -0.747   5.390   9.529 -0.5461 -0.3672 -0.1182
 1006MOL0     C35712  -0.866   5.315   9.563  0.7671  1.1229  0.5224
 1006MOL0     C35713  -0.829   5.175   9.542  0.1645 -0.1283 -0.0585
 1006MOL0     C35714  -0.940   5.076   9.597  0.5783 -0.0714 -0.1319
 1006MOL0     C35715  -1.060   5.080   9.504  0.3591  0.6472 -0.2658
 1006MOL0     C35716  -1.153   4.966   9.533  0.3762 -1.2239 -0.1211
 1006MOL0     C35717  -1.282   4.988   9.470 -0.1169  0.0687 -0.0176
 1006MOL0     C35718  -1.382   4.873   9.493 -0.1016  0.5026  0.0660
 1006MOL0    Cl35719  -1.342   4.719   9.395  0.0820  0.0859  0.0550
 1006MOL0     C35720  -0.548   5.602   9.481 -0.2587  0.0737  0.1943
 1006MOL0     C35721  -0.448   5.699   9.486 -1.2458  1.0400  0.7792
 1006MOL0     O35722  -0.204   5.848   9.432 -0.5737 -0.4143  0.7554
 1006MOL0     C35723  -0.198   6.125   9.647  0.0836  0.1720 -0.3840
 1006MOL0     C35724  -0.103   6.200   9.713  1.1524 -0.1998 -0.5477
 1006MOL0     N35725   0.545   6.585  10.078  0.2848 -0.0721  0.6195
 1006MOL0     N35726   0.639   6.596   9.991 -0.7534 -0.2290 -0.4741
 1006MOL0     C35727   1.367   7.068   9.476 -0.3853  0.3051  0.0789
 1006MOL0     C35728   1.438   7.180   9.514  0.1482 -0.1641  0.3899
 1006MOL0     C35729   1.811   7.455   9.562 -0.5937 -0.2457 -0.0709
 1006MOL0     C35730   1.856   7.574   9.496  1.0808 -0.4056 -0.1065
 1006MOL0     C35731   1.951   7.655   9.555  0.2973 -1.0193 -0.6324
 1006MOL0     C35732   1.995   7.632   9.685  0.2273  0.7319 -0.0052
 1006MOL0     O35733   2.098   7.701   9.749 -0.9191  0.9974  0.9034
 1006MOL0     C35734   2.095   7.844   9.751 -0.2685  0.8144  1.8250
 1006MOL0     C35735   2.232   7.896   9.790 -0.6661  0.2350  0.4828
 1006MOL0     C35736   2.342   7.907   9.670  0.6795 -0.6822 -0.0264
 1006MOL0     C35737   2.391   7.766   9.639  0.1219  0.8279  0.3598
 1006MOL0     C35738   2.502   7.774   9.539  0.0561 -0.1414  1.3487
 1006MOL0     C35739   2.603   7.783   9.468  1.6842 -0.0020 -0.0472
 1006MOL0     C35740   1.945   7.522   9.749 -1.0391 -0.6034 -1.0429
 1006MOL0     C35741   1.858   7.432   9.693  0.2016  1.3426  0.6521
 1006MOL0     C35742   1.839   7.296   9.766  0.4078  0.5576 -0.2755
 1006MOL0     H35743   1.753   7.086   9.492  0.1719  1.9765 -1.9227
 1006MOL0     H35744   1.634   6.870   9.427 -3.4165 -0.8759 -0.9747
 1006MOL0     H35745   1.478   6.698   9.332  0.4078 -3.6673  1.3561
 1006MOL0     H35746   1.476   6.707   9.507  0.8865  0.5162 -0.8936
 1006MOL0     H35747   1.352   6.511   9.436  1.0016  0.4631  1.9379
 1006MOL0     H35748   1.246   6.602   9.343 -0.5258 -1.2512  0.1755
 1006MOL0     H35749   1.154   6.710   9.550  0.9855  1.2025 -0.7675
 1006MOL0     H35750   1.297   6.640   9.647  1.3184  0.2633 -0.6819
 1006MOL0     H35751   1.088   6.489   9.489 -0.3661  0.9174 -0.9665
 1006MOL0     H35752   1.199   6.408   9.592  0.6660  0.0363 -2.7089
 1006MOL0     H35753   1.106   6.493   9.793  1.0807  1.1717 -0.2159
 1006MOL0     H35754   0.976   6.584   9.695 -0.7116  0.2988  3.4916
 1006MOL0     H35755   0.897   6.380   9.598 -1.4710 -1.3840  1.2815
 1006MOL0     H35756   1.008   6.284   9.690 -3.0813 -1.8706 -1.1581
 1006MOL0     H35757   0.905   6.384   9.906  3.0647 -2.6029 -1.0188
 1006MOL0     H35758   0.804   6.279   9.825  0.9235 -0.9125  1.9756
 1006MOL0     H35759   0.777   6.577   9.768 -0.1795  0.8507 -0.5372
 1006MOL0     H35760   0.669   6.445   9.718  0.2330  1.3464 -1.0469
 1006MOL0     H35761   0.591   6.284   9.952  1.8925 -0.3622  3.0158
 1006MOL0     H35762   0.433   6.303  10.210  0.2577  2.8538  3.2563
 1006MOL0     H35763   0.335   6.446  10.189  0.5719  1.1342  0.3247
 1006MOL0     H35764   0.373   6.229   9.980  1.1179  1.4201 -0.3484
 1006MOL0     H35765   0.245   6.233  10.097 -1.5745 -0.9609 -3.1057
 1006MOL0     H35766   0.298   6.420   9.862 -2.7873  2.8200 -2.2749
 1006MOL0     H35767   0.197   6.478   9.997 -0.3952 -1.1962  2.4454
 1006MOL0     H35768   0.063   6.416   9.803  2.0202 -0.3685 -0.3976
 1006MOL0     H35769   0.018   6.322   9.935  0.6888 -2.1730 -1.2693
 1006MOL0     H35770   0.184   6.062   9.595 -0.6969  1.2622 -1.9350
 1006MOL0     H35771   0.009   5.932   9.472 -1.2276 -2.1210  1.0799
 1006MOL0     H35772  -0.626   5.967   9.580  2.7573  0.9586 -0.2616
 1006MOL0     H35773  -0.808   5.790   9.575 -1.6132 -0.7912 -2.1218
 1006MOL0     H35774  -0.708   5.377   9.428  0.9181  1.3279  0.1878
 1006MOL0     H35775  -0.667   5.376   9.602  0.1268  0.4227 -0.6804
 1006MOL0     H35776  -0.898   5.326   9.667 -1.7425  2.4481 -0.3095
 1006MOL0     H35777  -0.951   5.344   9.500 -2.1533  0.1218  3.6859
 1006MOL0     H35778  -0.804   5.149   9.439  0.7115  2.7587 -0.7638
 1006MOL0     H35779  -0.736   5.152   9.595  0.2843 -3.8966 -1.6156
 1006MOL0     H35780  -0.972   5.109   9.696  0.8437  0.2728 -0.1569
 1006MOL0     H35781  -0.906   4.973   9.607  0.5238 -0.0784 -0.0257
 1006MOL0     H35782  -1.022   5.081   9.402 -3.3181  0.7297 -1.8161
 1006MOL0     H35783  -1.122   5.169   9.521 -1.4166  0.4009 -4.2218
 1006MOL0     H35784  -1.109   4.875   9.492  0.5039 -1.0450 -0.3865
 1006MOL0     H35785  -1.170   4.950   9.640 -0.4154  1.8715  0.2950
 1006MOL0     H35786  -1.256   5.001   9.364 -1.5924 -0.5219 -0.4698
 1006MOL0     H35787  -1.322   5.085   9.500  0.5616 -0.0275  1.2475
 1006MOL0     H35788  -1.390   4.855   9.601  2.3972 -0.9702  0.0815
 1006MOL0     H35789  -1.483   4.899   9.461 -1.0310 -2.3732  0.3726
 1006MOL0     H35790  -0.525   5.500   9.450 -3.0722 -0.5390 -0.1448
 1006MOL0     H35791  -0.349   5.664   9.461 -2.1192 -1.1900  0.1964
 1006MOL0     H35792  -0.301   6.140   9.679  0.7656 -0.0276  2.1032
 1006MOL0     H35793  -0.137   6.262   9.796  0.3671  1.0257 -1.7274
 1006MOL0     H35794   1.258   7.070   9.481 -0.4844 -2.9172  0.8791
 1006MOL0     H35795   1.385   7.266   9.555  0.1715 -1.1720  2.7048
 1006MOL0     H35796   1.824   7.600   9.396  2.7402  0.2233 -0.5175
 1006MOL0     H35797   1.986   7.743   9.501 -1.6407 -0.2656 -0.7519
 1006MOL0     H35798   2.016   7.870   9.823 -1.5708 -0.8026  1.0386
 1006MOL0     H35799   2.054   7.883   9.658  1.5439 -1.3008  0.0193
 1006MOL0     H35800   2.278   7.837   9.871  1.2728 -2.5482 -2.3912
 1006MOL0     H35801   2.205   7.998   9.816 -4.8106 -1.1122  2.2951
 1006MOL0     H35802   2.409   7.975   9.722 -0.6488 -1.5027  2.9796
 1006MOL0     H35803   2.307   7.953   9.577  1.5852  0.0178 -0.0356
 1006MOL0     H35804   2.424   7.706   9.725  1.3225 -0.6052 -1.0483
 1006MOL0     H35805   2.308   7.710   9.596  0.1077  1.5214 -0.5403
 1006MOL0     H35806   2.696   7.802   9.418  2.0779  2.6123  1.4899
 1006MOL0     H35807   1.976   7.504   9.851 -1.7822  0.8371 -0.5275
 1006MOL0     H35808   1.734   7.276   9.786 -0.6725  0.7416 -4.7089
 1006MOL0     H35809   1.864   7.212   9.700  0.2348  0.8693 -0.7460
 1006MOL0     H35810   1.901   7.289   9.856 -0.7226  4.0862  0.9765
 1007MOL0     O35811  11.402   4.723   1.222 -0.5535  0.6860 -0.3189
 1007MOL0     C35812  11.366   4.620   1.159  0.1287 -0.2335  0.4513
 1007MOL0     O35813  11.443   4.515   1.148 -0.9972  0.8656  1.1774
 1007MOL0     C35814  11.574   4.505   1.185 -0.3176  0.0665  0.1827
 1007MOL0     C35815  11.662   4.606   1.153  0.3734  0.8091 -0.1547
 1007MOL0     C35816  11.794   4.585   1.177 -0.1139 -0.0402  0.1021
 1007MOL0     C35817  11.845   4.468   1.233 -1.3167  0.6516 -1.5422
 1007MOL0     O35818  11.971   4.479   1.282 -0.4047  0.4250 -0.1398
 1007MOL0     C35819  12.067   4.378   1.259  0.0639  0.4080  0.1161
 1007MOL0     C35820  12.192   4.420   1.327 -0.4447 -0.6790  0.3274
 1007MOL0     C35821  12.252   4.548   1.270  0.3148 -0.9783  0.9894
 1007MOL0     C35822  12.390   4.593   1.325 -0.4451  0.4807  0.7612
 1007MOL0     C35823  12.426   4.580   1.468  0.5931  0.5376 -0.4271
 1007MOL0     C35824  12.576   4.591   1.491  0.6020 -1.3428 -0.0443
 1007MOL0     C35825  12.614   4.585   1.640  0.3681  0.3408  0.3323
 1007MOL0     C35826  12.769   4.590   1.668 -0.0961  0.3282  0.5800
 1007MOL0     N35827  12.804   4.620   1.805  0.1969  0.2128 -0.4307
 1007MOL0     C35828  12.747   4.722   1.882 -0.6243  0.5786  0.4518
 1007MOL0     C35829  12.808   4.711   2.002  0.0115 -0.3807 -0.1440
 1007MOL0     C35830  12.777   4.779   2.137  0.2463 -0.1945  0.6056
 1007MOL0     C35831  12.795   4.674   2.252 -0.2535 -0.4701  1.0779
 1007MOL0     C35832  12.708   4.558   2.224 -0.3446 -0.8286 -1.4329
 1007MOL0     C35833  12.725   4.455   2.339 -0.1846 -0.2107 -1.6511
 1007MOL0     O35834  12.635   4.346   2.336  0.3670  0.3486  0.4380
 1007MOL0     C35835  12.641   4.245   2.240  0.5547 -1.4473  0.0326
 1007MOL0     C35836  12.738   4.227   2.138  0.6423 -0.3297  0.2193
 1007MOL0     C35837  12.722   4.117   2.048  0.5210  0.2202 -0.6251
 1007MOL0     C35838  12.608   4.027   2.067 -0.6264  0.3229  0.6823
 1007MOL0     C35839  12.599   3.900   1.990  0.1491 -0.7402 -0.6935
 1007MOL0     O35840  12.507   3.815   2.035 -0.2075 -0.6549 -0.1547
 1007MOL0     C35841  12.494   3.703   1.961  0.4759 -0.4726  0.5168
 1007MOL0     C35842  12.400   3.695   1.863  0.9252 -0.0718  0.0431
 1007MOL0     C35843  12.383   3.580   1.789 -0.6091  0.1413 -0.0219
 1007MOL0     C35844  12.464   3.471   1.811 -0.9338 -0.2045 -1.0974
 1007MOL0     O35845  12.451   3.351   1.744 -0.4709  0.2049 -0.1304
 1007MOL0     C35846  12.358   3.260   1.793  0.7650 -0.4911  0.1528
 1007MOL0     C35847  12.329   3.151   1.689  0.3618 -0.1945 -0.4310
 1007MOL0     C35848  12.202   3.056   1.727  0.2324  0.3254  0.4623
 1007MOL0     C35849  12.150   2.974   1.601  0.2263  0.3390  0.2832
 1007MOL0     C35850  12.012   2.907   1.645 -0.2167  0.4762  0.1398
 1007MOL0     C35851  12.045   2.787   1.737  0.5490 -0.0603 -0.6211
 1007MOL0     C35852  11.927   2.685   1.751  1.1094 -0.7039  0.4510
 1007MOL0     C35853  11.945   2.574   1.858  1.0108  1.1861  0.5624
 1007MOL0    Cl35854  11.923   2.623   2.031 -0.4445  0.4421 -0.2014
 1007MOL0     C35855  12.568   3.476   1.912 -0.0545 -0.3072  0.5137
 1007MOL0     C35856  12.580   3.592   1.992  0.0745  0.5239 -0.3619
 1007MOL0     O35857  12.686   3.875   1.906  0.0281  0.2514  0.0332
 1007MOL0     C35858  12.530   4.044   2.185 -0.5299  0.1193 -0.8472
 1007MOL0     C35859  12.549   4.153   2.268 -0.7491  0.3681 -1.0529
 1007MOL0     N35860  12.909   4.612   1.997  0.3333 -1.0807 -0.1932
 1007MOL0     N35861  12.895   4.557   1.885 -0.0826 -0.3087  0.4210
 1007MOL0     C35862  11.757   4.354   1.244 -0.4121 -0.0853  0.3129
 1007MOL0     C35863  11.627   4.372   1.221  0.5188 -0.4879  0.9322
 1007MOL0     C35864  11.232   4.624   1.109  0.0581  0.0849 -0.6383
 1007MOL0     C35865  11.188   4.737   1.044 -0.4770 -0.2234 -0.5418
 1007MOL0     C35866  11.073   4.752   0.976  0.0212  0.1387  0.1646
 1007MOL0     C35867  10.993   4.644   0.965  0.2760  0.0968  0.0798
 1007MOL0     O35868  10.894   4.654   0.875 -0.2409 -0.4638 -0.3209
 1007MOL0     C35869  10.798   4.549   0.868 -0.1561  0.4443  0.2554
 1007MOL0     C35870  10.712   4.573   0.751  0.1609 -0.2657  1.1670
 1007MOL0     C35871  10.601   4.673   0.769  0.5438 -0.8434 -0.2634
 1007MOL0     C35872  10.659   4.814   0.765 -0.0474  0.3035 -0.4119
 1007MOL0     C35873  10.746   4.846   0.651  0.2611 -0.3224 -0.8969
 1007MOL0     C35874  10.796   4.872   0.548 -0.1934  0.0004  0.2155
 1007MOL0     C35875  11.018   4.527   1.032 -0.4556  0.0145 -1.3334
 1007MOL0     C35876  11.140   4.520   1.107  0.4791  0.2259 -0.7078
 1007MOL0     C35877  11.181   4.394   1.178  0.3809  0.1567 -0.5425
 1007MOL0     H35878  11.637   4.700   1.105 -4.0500  1.5008  2.8976
 1007MOL0     H35879  11.862   4.668   1.163 -1.9942  1.3857 -0.8822
 1007MOL0     H35880  12.037   4.278   1.290 -0.2881 -0.4925 -2.8357
 1007MOL0     H35881  12.081   4.373   1.150 -1.1094  2.0903 -0.1605
 1007MOL0     H35882  12.271   4.345   1.317 -0.0835 -0.2509 -0.1039
 1007MOL0     H35883  12.165   4.425   1.433  0.1664  0.1531  0.4564
 1007MOL0     H35884  12.187   4.634   1.290  0.8296 -0.8006  1.9995
 1007MOL0     H35885  12.255   4.537   1.161  1.9220  1.9077  0.6439
 1007MOL0     H35886  12.452   4.523   1.268 -1.2519 -0.1876  0.6818
 1007MOL0     H35887  12.428   4.692   1.299 -0.6498  0.3940  0.1107
 1007MOL0     H35888  12.390   4.669   1.520  0.6648 -0.4454  1.4231
 1007MOL0     H35889  12.378   4.496   1.519 -1.0543  1.2081 -0.8151
 1007MOL0     H35890  12.630   4.523   1.424  0.4531 -0.8803 -0.6432
 1007MOL0     H35891  12.594   4.690   1.448  0.3132 -0.7274  1.1962
 1007MOL0     H35892  12.598   4.481   1.670  4.1066 -0.9165 -1.3457
 1007MOL0     H35893  12.542   4.655   1.683 -0.7949  0.5158 -1.7404
 1007MOL0     H35894  12.831   4.504   1.644 -0.3561  0.2903  0.0113
 1007MOL0     H35895  12.810   4.666   1.601  0.4768 -2.1331 -2.0267
 1007MOL0     H35896  12.658   4.777   1.854 -2.3706 -2.5026 -0.5250
 1007MOL0     H35897  12.851   4.860   2.139  3.3808 -2.7889 -0.4229
 1007MOL0     H35898  12.673   4.812   2.132 -0.2754 -1.6615  1.3183
 1007MOL0     H35899  12.898   4.636   2.257 -1.9376 -6.0319  0.2405
 1007MOL0     H35900  12.747   4.715   2.341  0.1667  0.6352  0.8151
 1007MOL0     H35901  12.742   4.503   2.135 -0.6090 -1.0610 -1.3924
 1007MOL0     H35902  12.601   4.575   2.214 -0.5928 -2.1973 -1.3492
 1007MOL0     H35903  12.716   4.508   2.435 -0.5392 -2.5111 -0.3441
 1007MOL0     H35904  12.827   4.416   2.338  0.0011  0.1150  0.3767
 1007MOL0     H35905  12.810   4.308   2.132  2.3222 -1.5353  2.2031
 1007MOL0     H35906  12.804   4.105   1.978  0.8770 -0.9743 -0.0353
 1007MOL0     H35907  12.339   3.784   1.851  2.8048  1.3369  0.3646
 1007MOL0     H35908  12.296   3.577   1.724 -0.5994  1.6102 -0.1448
 1007MOL0     H35909  12.403   3.204   1.876  2.0922  1.0363  0.5181
 1007MOL0     H35910  12.274   3.318   1.832  1.0659  0.7949 -1.0068
 1007MOL0     H35911  12.296   3.203   1.599  0.0975 -0.2985 -0.3958
 1007MOL0     H35912  12.419   3.089   1.689  0.2199 -0.4012 -0.3411
 1007MOL0     H35913  12.237   2.988   1.805  1.1860  2.0151  1.5581
 1007MOL0     H35914  12.117   3.115   1.762  1.3347  1.3159  1.5055
 1007MOL0     H35915  12.224   2.896   1.579 -0.6986 -0.2959 -0.6460
 1007MOL0     H35916  12.130   3.036   1.513 -3.0190  1.8288  1.8733
 1007MOL0     H35917  11.970   2.868   1.552  3.5765  1.7633 -2.3805
 1007MOL0     H35918  11.941   2.979   1.686 -1.1901  0.6627 -1.7663
 1007MOL0     H35919  12.143   2.744   1.714  1.0539  1.8711 -2.3632
 1007MOL0     H35920  12.061   2.837   1.833 -0.9822  2.3481 -1.5142
 1007MOL0     H35921  11.903   2.648   1.651 -2.1887  2.9109 -0.3505
 1007MOL0     H35922  11.837   2.738   1.784  1.9507 -0.7032  2.9522
 1007MOL0     H35923  11.872   2.499   1.827  0.8369  1.5349  0.1112
 1007MOL0     H35924  12.041   2.524   1.844  0.1785 -0.0326 -1.2585
 1007MOL0     H35925  12.638   3.394   1.924  0.5173  0.4515  2.9943
 1007MOL0     H35926  12.643   3.600   2.080  1.9729 -1.8364 -1.3928
 1007MOL0     H35927  12.452   3.971   2.201  1.9377 -2.4127  0.3996
 1007MOL0     H35928  12.476   4.175   2.346 -2.1127 -1.4888 -1.7543
 1007MOL0     H35929  11.775   4.252   1.276 -2.0759  0.1532  2.2516
 1007MOL0     H35930  11.562   4.286   1.212 -0.5995  0.2598  1.5150
 1007MOL0     H35931  11.253   4.824   1.032 -2.2684  0.8192 -3.9051
 1007MOL0     H35932  11.062   4.842   0.916 -1.9234  0.1232  0.4143
 1007MOL0     H35933  10.743   4.534   0.961 -0.8633 -1.7421 -0.4433
 1007MOL0     H35934  10.839   4.448   0.857 -0.1401  0.5076 -0.2978
 1007MOL0     H35935  10.659   4.483   0.719 -0.8920  0.2688  1.3666
 1007MOL0     H35936  10.775   4.584   0.663 -0.9833 -2.3533  0.0193
 1007MOL0     H35937  10.540   4.665   0.860 -1.8181 -2.1154 -1.8638
 1007MOL0     H35938  10.527   4.671   0.688 -1.2079  0.3791  1.2168
 1007MOL0     H35939  10.580   4.889   0.762  0.2442  0.6600  0.5639
 1007MOL0     H35940  10.704   4.842   0.861 -0.1243 -2.0222  0.3625
 1007MOL0     H35941  10.840   4.897   0.454  0.6482  2.2248  1.1222
 1007MOL0     H35942  10.957   4.437   1.020  2.9791 -2.3945 -2.3270
 1007MOL0     H35943  11.097   4.323   1.179  2.0827 -1.9873  1.1166
 1007MOL0     H35944  11.266   4.352   1.123  1.4699 -3.0861  3.1087
 1007MOL0     H35945  11.212   4.403   1.283  0.9680 -0.4631 -0.6545
 1008MOL0     O35946   7.622   9.434  10.056  0.0895  0.3398 -1.3889
 1008MOL0     C35947   7.640   9.384   9.937 -0.1616 -1.0062 -1.5568
 1008MOL0     O35948   7.756   9.366   9.871 -1.1682  0.2127  0.7270
 1008MOL0     C35949   7.871   9.387   9.952 -0.1894 -0.3595 -0.5035
 1008MOL0     C35950   7.987   9.438   9.898  0.2956  0.4919  0.4985
 1008MOL0     C35951   8.108   9.449   9.967 -0.6030 -0.1377  1.1090
 1008MOL0     C35952   8.110   9.423  10.106 -0.9467 -0.1688  0.1801
 1008MOL0     O35953   8.225   9.458  10.172  0.2868 -0.5066 -0.0558
 1008MOL0     C35954   8.239   9.423  10.308  0.6961  0.6594  0.3771
 1008MOL0     C35955   8.266   9.271  10.313 -0.7035  0.7000  1.2888
 1008MOL0     C35956   8.386   9.228  10.236 -0.0810  0.5672  0.1229
 1008MOL0     C35957   8.521   9.225  10.305  0.0591 -0.5901  0.1483
 1008MOL0     C35958   8.535   9.109  10.394 -0.6679 -0.1936  0.0782
 1008MOL0     C35959   8.664   9.111  10.477  0.3870 -0.0372  0.4905
 1008MOL0     C35960   8.783   9.068  10.391 -0.2770 -0.4183  0.3684
 1008MOL0     C35961   8.799   8.918  10.355  0.1234 -0.4988 -0.0745
 1008MOL0     N35962   8.936   8.877  10.320 -0.3067  0.0521  0.4655
 1008MOL0     C35963   9.040   8.876  10.407  0.0451 -0.4848  0.1869
 1008MOL0     C35964   9.133   8.810  10.334 -0.3290  0.0106 -0.5740
 1008MOL0     C35965   9.275   8.781  10.374 -1.0998  0.1175 -0.5780
 1008MOL0     C35966   9.269   8.673  10.488  0.7103  0.7210 -0.4516
 1008MOL0     C35967   9.402   8.644  10.549 -0.0216 -0.1686 -0.1459
 1008MOL0     C35968   9.518   8.614  10.450  0.4046 -0.0487 -1.3069
 1008MOL0     O35969   9.632   8.552  10.523 -0.2318  0.0197  0.0205
 1008MOL0     C35970   9.755   8.578  10.465  0.4079 -0.1059  0.3805
 1008MOL0     C35971   9.788   8.517  10.348  0.7508 -0.2046  0.3679
 1008MOL0     C35972   9.903   8.543  10.276  0.6642 -0.2520  0.0067
 1008MOL0     C35973   9.997   8.633  10.323  0.2565 -0.1907  1.0562
 1008MOL0     C35974  10.115   8.658  10.246 -0.1417 -0.5093  0.1823
 1008MOL0     O35975  10.166   8.791  10.232 -0.2974 -0.1062 -0.0742
 1008MOL0     C35976  10.284   8.790  10.159  0.3461  0.2921 -0.1921
 1008MOL0     C35977  10.399   8.728  10.210 -0.0440  0.9022  0.5440
 1008MOL0     C35978  10.517   8.731  10.137 -1.3984 -1.1597 -0.0663
 1008MOL0     C35979  10.522   8.785   9.996 -0.2339 -0.8796 -0.4958
 1008MOL0     O35980  10.623   8.772   9.909 -0.9173  0.0702  0.6557
 1008MOL0     C35981  10.703   8.647   9.910 -0.0933  0.3881 -0.0644
 1008MOL0     C35982  10.855   8.681   9.907  0.8130  0.2845  0.7657
 1008MOL0     C35983  10.912   8.727  10.043  0.7281 -0.9456  0.0564
 1008MOL0     C35984  11.059   8.754  10.029 -0.0131  0.5334 -0.1979
 1008MOL0     C35985  11.134   8.621  10.027  0.0352 -0.4878 -0.1216
 1008MOL0     C35986  11.289   8.628  10.061  0.0105 -0.3655  0.2727
 1008MOL0     C35987  11.355   8.498  10.066  0.4607  0.3111 -0.2664
 1008MOL0     C35988  11.370   8.417   9.936  1.4100 -0.6013  0.2331
 1008MOL0    Cl35989  11.434   8.262   9.978 -0.1577  0.0193 -0.4855
 1008MOL0     C35990  10.407   8.857   9.962  0.7093 -0.3048  0.4444
 1008MOL0     C35991  10.288   8.854  10.035 -0.2120 -0.0147 -0.7621
 1008MOL0     O35992  10.162   8.562  10.191 -0.6762 -0.1705  0.6202
 1008MOL0     C35993   9.960   8.707  10.439  0.4657 -0.4251  0.3091
 1008MOL0     C35994   9.837   8.683  10.510 -0.8491  0.0874 -0.2656
 1008MOL0     N35995   9.089   8.781  10.213 -0.2043 -0.4971  0.3719
 1008MOL0     N35996   8.959   8.817  10.207 -0.4047 -0.4109  0.7852
 1008MOL0     C35997   7.994   9.366  10.170 -0.0926  0.7386  0.4953
 1008MOL0     C35998   7.883   9.334  10.085  0.0038 -1.0511  0.0351
 1008MOL0     C35999   7.525   9.327   9.862  0.2992 -0.6101 -0.5498
 1008MOL0     C36000   7.547   9.246   9.747  1.3147 -0.1957 -0.8420
 1008MOL0     C36001   7.441   9.183   9.682  0.0493 -0.1801  0.3104
 1008MOL0     C36002   7.307   9.189   9.735 -0.5870 -1.0536  0.9096
 1008MOL0     O36003   7.199   9.136   9.672 -0.3667  0.0905 -0.2913
 1008MOL0     C36004   7.223   9.025   9.587 -0.4686  0.1404  0.4392
 1008MOL0     C36005   7.100   8.942   9.555 -0.3262 -0.7907 -0.2932
 1008MOL0     C36006   6.974   9.013   9.487  0.9592 -0.0474  0.3480
 1008MOL0     C36007   6.853   8.929   9.516  0.3819 -0.0738 -0.6414
 1008MOL0     C36008   6.720   8.980   9.488  0.2674  0.3639 -1.5033
 1008MOL0     C36009   6.617   9.034   9.467 -0.3811  1.3610 -0.5790
 1008MOL0     C36010   7.282   9.264   9.848 -0.7358  0.8591 -0.3942
 1008MOL0     C36011   7.395   9.347   9.907 -0.4407 -0.7905  1.1366
 1008MOL0     C36012   7.346   9.441  10.011 -0.7023 -0.2537 -1.0896
 1008MOL0     H36013   8.002   9.459   9.793  0.0714  1.8438  0.7192
 1008MOL0     H36014   8.193   9.488   9.912 -1.5760 -1.2373 -1.3272
 1008MOL0     H36015   8.320   9.483  10.351 -0.9295  3.1539  0.1827
 1008MOL0     H36016   8.145   9.441  10.361 -0.6043 -0.5318 -1.4530
 1008MOL0     H36017   8.181   9.217  10.270  0.2601  0.6016 -0.6020
 1008MOL0     H36018   8.264   9.231  10.414 -2.2172  3.1480  2.3280
 1008MOL0     H36019   8.388   9.288  10.144  1.5958 -0.3404 -0.4633
 1008MOL0     H36020   8.371   9.123  10.209 -0.8021 -0.4835  3.9617
 1008MOL0     H36021   8.604   9.231  10.233 -0.7162 -0.3695 -0.7416
 1008MOL0     H36022   8.535   9.325  10.348  0.5226  0.0730 -1.4783
 1008MOL0     H36023   8.448   9.111  10.461 -1.2938 -2.6686 -0.5960
 1008MOL0     H36024   8.547   9.018  10.336  1.3152  0.6691 -0.9666
 1008MOL0     H36025   8.690   9.211  10.511 -0.9440  0.2189  0.8218
 1008MOL0     H36026   8.634   9.043  10.557  0.3358 -2.4253 -1.4239
 1008MOL0     H36027   8.871   9.107  10.442 -1.4762  3.1710 -0.0624
 1008MOL0     H36028   8.784   9.127  10.298  0.3927  0.8145  1.1412
 1008MOL0     H36029   8.771   8.855  10.440 -1.6505 -0.2922 -0.4784
 1008MOL0     H36030   8.735   8.883  10.273 -3.9988  0.8741  2.2858
 1008MOL0     H36031   9.029   8.904  10.511 -0.1935 -0.1746  0.0766
 1008MOL0     H36032   9.323   8.748  10.282 -1.8071  1.1109 -1.3143
 1008MOL0     H36033   9.324   8.870  10.415 -1.8161  1.5581 -2.7254
 1008MOL0     H36034   9.206   8.710  10.569 -1.6300  1.0490 -2.3036
 1008MOL0     H36035   9.236   8.582  10.438  0.9919  1.6562 -2.4523
 1008MOL0     H36036   9.384   8.554  10.608 -2.6312  0.3338 -0.0489
 1008MOL0     H36037   9.434   8.724  10.616 -0.1384  1.1428 -1.5751
 1008MOL0     H36038   9.549   8.708  10.403 -0.1141  1.5941  1.4468
 1008MOL0     H36039   9.482   8.544  10.373 -0.5491 -2.9045  1.5070
 1008MOL0     H36040   9.717   8.442  10.315 -0.1321  0.6089  0.3624
 1008MOL0     H36041   9.906   8.488  10.182 -4.3817  2.1496 -1.9151
 1008MOL0     H36042  10.411   8.678  10.305 -1.8256  0.8565  0.7771
 1008MOL0     H36043  10.613   8.699  10.174  0.5055  2.6719 -1.2256
 1008MOL0     H36044  10.693   8.587  10.000 -1.7320  0.6833 -0.0234
 1008MOL0     H36045  10.662   8.591   9.825  2.7167 -2.1072  0.0574
 1008MOL0     H36046  10.902   8.593   9.862 -0.5516 -0.9128  1.6273
 1008MOL0     H36047  10.888   8.749   9.828  3.1813 -1.0211  0.5332
 1008MOL0     H36048  10.855   8.817  10.065 -0.3074 -1.1879 -1.4352
 1008MOL0     H36049  10.888   8.654  10.120 -1.0814 -1.7581 -1.1911
 1008MOL0     H36050  11.092   8.820  10.110 -0.2395  1.1972 -0.6372
 1008MOL0     H36051  11.081   8.807   9.936 -0.2664  4.8319  1.9522
 1008MOL0     H36052  11.115   8.573   9.931  1.2703 -1.1284 -0.0750
 1008MOL0     H36053  11.101   8.561  10.113  1.7224 -0.4996  0.5616
 1008MOL0     H36054  11.359   8.687  10.001  3.0763 -1.5478  2.4014
 1008MOL0     H36055  11.299   8.656  10.167  0.4665 -4.5535  1.5282
 1008MOL0     H36056  11.302   8.436  10.138  1.3117 -1.8536 -1.4004
 1008MOL0     H36057  11.458   8.516  10.097  0.2542 -1.3171  1.5638
 1008MOL0     H36058  11.273   8.407   9.887  0.2074 -2.1138  2.6902
 1008MOL0     H36059  11.440   8.468   9.870 -0.4735  1.7087 -0.1341
 1008MOL0     H36060  10.411   8.908   9.867 -0.5246  0.2246  0.6571
 1008MOL0     H36061  10.200   8.905   9.996 -1.4341  1.1250  3.0740
 1008MOL0     H36062  10.029   8.781  10.477  2.5073 -1.6844 -0.7509
 1008MOL0     H36063   9.806   8.750  10.590  0.2212  2.5342 -1.7829
 1008MOL0     H36064   7.996   9.335  10.274 -1.4600  3.7081  1.5035
 1008MOL0     H36065   7.802   9.280  10.133  1.3579 -1.8626  1.5307
 1008MOL0     H36066   7.649   9.232   9.714  1.3984  2.3660 -1.8759
 1008MOL0     H36067   7.464   9.140   9.585  0.6755  0.3406  0.2251
 1008MOL0     H36068   7.293   8.958   9.639  2.3344  2.0867 -0.5486
 1008MOL0     H36069   7.283   9.050   9.499 -0.4774  2.1067  0.9466
 1008MOL0     H36070   7.059   8.903   9.649 -0.8932 -1.4832 -0.8138
 1008MOL0     H36071   7.134   8.854   9.499  2.4733 -0.2782  0.4554
 1008MOL0     H36072   6.976   9.015   9.377  1.6518  1.2367  0.3631
 1008MOL0     H36073   6.962   9.110   9.535  0.2555  0.3313 -0.5576
 1008MOL0     H36074   6.845   8.840   9.452 -2.9223 -0.7331  0.4865
 1008MOL0     H36075   6.844   8.911   9.624 -2.9826  0.4798 -0.7101
 1008MOL0     H36076   6.524   9.082   9.446  0.4259  2.5630 -1.5522
 1008MOL0     H36077   7.186   9.266   9.899  1.0738 -0.5221  3.5229
 1008MOL0     H36078   7.374   9.414  10.113 -1.0826  1.0708 -0.6133
 1008MOL0     H36079   7.395   9.537   9.988 -2.6424  0.5305 -2.2017
 1008MOL0     H36080   7.238   9.455  10.005 -1.0476 -2.2807 -0.3653
 1009MOL0     O36081   4.354   1.081  10.815  0.8413  0.0925  0.6202
 1009MOL0     C36082   4.368   1.083  10.690 -0.0930 -0.9228 -0.2981
 1009MOL0     O36083   4.269   1.081  10.596 -0.0132  0.0930  0.3527
 1009MOL0     C36084   4.154   1.010  10.637  0.0550 -1.2078  0.1311
 1009MOL0     C36085   4.162   0.864  10.640 -0.5583  0.1549  0.3405
 1009MOL0     C36086   4.044   0.798  10.671 -0.3487  0.6909  0.1624
 1009MOL0     C36087   3.916   0.859  10.673 -0.6790  0.2019 -0.1668
 1009MOL0     O36088   3.798   0.790  10.693 -0.3815 -0.1976  0.2233
 1009MOL0     C36089   3.783   0.667  10.622 -0.3910 -0.0971 -0.2044
 1009MOL0     C36090   3.681   0.682  10.510  0.2609 -0.5521 -0.7707
 1009MOL0     C36091   3.698   0.790  10.400  0.5588  0.0419 -0.4258
 1009MOL0     C36092   3.570   0.809  10.326  0.0917  0.8454 -1.0911
 1009MOL0     C36093   3.580   0.912  10.217 -0.3031  0.2294  0.7014
 1009MOL0     C36094   3.521   1.045  10.272  0.9393  0.1670 -0.2348
 1009MOL0     C36095   3.504   1.164  10.171 -0.2782 -0.0711 -0.1063
 1009MOL0     C36096   3.633   1.194  10.089 -0.8949 -0.7001 -0.3193
 1009MOL0     N36097   3.730   1.277  10.164 -1.1176 -0.1321  0.1274
 1009MOL0     C36098   3.789   1.256  10.282 -0.0787 -1.1472 -0.3868
 1009MOL0     C36099   3.841   1.382  10.311 -1.7442  0.1726 -0.7561
 1009MOL0     C36100   3.923   1.411  10.430 -0.0462 -0.4465  0.5862
 1009MOL0     C36101   4.062   1.459  10.414  0.4641 -0.5646 -0.6898
 1009MOL0     C36102   4.160   1.359  10.373 -0.1267 -0.1726 -0.2276
 1009MOL0     C36103   4.284   1.424  10.321 -0.2370  0.8590  0.0333
 1009MOL0     O36104   4.394   1.336  10.279  0.5745 -0.2874  0.1002
 1009MOL0     C36105   4.510   1.388  10.229 -0.9988 -0.3742 -0.0837
 1009MOL0     C36106   4.605   1.294  10.187  1.0035 -0.2399 -0.1822
 1009MOL0     C36107   4.731   1.331  10.137  0.2298  0.1742 -0.6844
 1009MOL0     C36108   4.767   1.467  10.132 -0.6546  0.4375  0.0919
 1009MOL0     C36109   4.896   1.506  10.062 -0.0376  0.0643 -1.0025
 1009MOL0     O36110   4.943   1.623  10.094 -0.2317 -0.2971 -0.7916
 1009MOL0     C36111   5.064   1.671  10.050  0.3789  1.3639 -0.6194
 1009MOL0     C36112   5.074   1.809  10.042  0.4263 -0.4241  0.2828
 1009MOL0     C36113   5.202   1.876   9.996  1.4198 -0.7144  0.5195
 1009MOL0     C36114   5.313   1.792   9.968 -0.1022 -0.0768  0.4454
 1009MOL0     O36115   5.429   1.861   9.940  0.6437  0.0833  0.2554
 1009MOL0     C36116   5.538   1.778   9.899  0.1827 -0.2313 -0.5638
 1009MOL0     C36117   5.654   1.855   9.832 -0.6502 -0.6004  0.1873
 1009MOL0     C36118   5.696   1.962   9.929  0.3026 -0.3122 -0.3640
 1009MOL0     C36119   5.798   2.045   9.854 -0.1825  1.2794  0.3251
 1009MOL0     C36120   5.878   2.147   9.941 -0.1439  0.7093 -1.1034
 1009MOL0     C36121   5.791   2.238  10.028 -0.1095  0.0049  0.7680
 1009MOL0     C36122   5.708   2.340   9.932 -0.3816  0.2176  0.5584
 1009MOL0     C36123   5.756   2.478   9.960  0.3201  0.5731 -0.5577
 1009MOL0    Cl36124   5.929   2.505   9.904  0.0235 -0.0823 -0.6816
 1009MOL0     C36125   5.296   1.650   9.967 -0.0853  0.5650  0.2102
 1009MOL0     C36126   5.175   1.600  10.012 -0.1586  0.2720 -0.4118
 1009MOL0     O36127   4.952   1.419  10.004 -0.1818  0.5151  0.1762
 1009MOL0     C36128   4.673   1.562  10.168  0.4810  0.2678  0.1139
 1009MOL0     C36129   4.542   1.524  10.216  0.7892 -0.4183 -0.2533
 1009MOL0     N36130   3.807   1.466  10.212  1.1443  0.1370 -0.2882
 1009MOL0     N36131   3.753   1.404  10.115  0.5978 -0.7179  0.2098
 1009MOL0     C36132   3.909   0.996  10.648 -0.1230  0.2665 -0.3552
 1009MOL0     C36133   4.028   1.068  10.647  0.1460  0.3476  0.0944
 1009MOL0     C36134   4.509   1.118  10.637  0.5960  1.1332  0.5698
 1009MOL0     C36135   4.538   1.250  10.627  0.7947  0.1367  0.4272
 1009MOL0     C36136   4.653   1.303  10.582 -0.0302 -0.0203  0.0974
 1009MOL0     C36137   4.756   1.220  10.529  0.6666  0.2321 -0.0228
 1009MOL0     O36138   4.885   1.259  10.488  0.1730 -0.1805  0.0900
 1009MOL0     C36139   4.914   1.401  10.471 -0.4166 -0.5172  0.0942
 1009MOL0     C36140   5.061   1.416  10.429  0.1354 -0.1756  0.7812
 1009MOL0     C36141   5.105   1.559  10.428  0.2015 -0.4403 -0.1526
 1009MOL0     C36142   5.257   1.564  10.393  0.0317 -1.0786 -0.1700
 1009MOL0     C36143   5.319   1.693  10.433  0.3943 -0.2553 -0.0300
 1009MOL0     C36144   5.371   1.792  10.484  0.3848  0.7004 -0.0592
 1009MOL0     C36145   4.734   1.088  10.536  0.5680 -0.0851  1.0378
 1009MOL0     C36146   4.614   1.031  10.591 -0.1413  0.6666 -0.5730
 1009MOL0     C36147   4.601   0.879  10.616  0.8290 -0.1605  0.0659
 1009MOL0     H36148   4.261   0.820  10.634 -0.8624 -0.8143  1.7805
 1009MOL0     H36149   4.054   0.695  10.703  0.0276  1.1082  1.4526
 1009MOL0     H36150   3.877   0.649  10.569 -0.1431  3.8663 -1.4878
 1009MOL0     H36151   3.757   0.586  10.691  1.4043  1.6871  2.8001
 1009MOL0     H36152   3.588   0.691  10.566  0.7457  0.5254 -0.1005
 1009MOL0     H36153   3.678   0.582  10.465  3.2957 -0.8439 -0.5520
 1009MOL0     H36154   3.774   0.758  10.329  0.3961 -1.7941  0.1660
 1009MOL0     H36155   3.735   0.882  10.445 -1.6661  1.1739 -0.7430
 1009MOL0     H36156   3.544   0.714  10.279  0.4630 -1.2427  2.5538
 1009MOL0     H36157   3.489   0.835  10.395 -1.2995 -0.9795 -1.9487
 1009MOL0     H36158   3.683   0.920  10.182 -0.1159 -1.1623  0.8646
 1009MOL0     H36159   3.518   0.878  10.133 -1.6408 -1.4337  2.2824
 1009MOL0     H36160   3.420   1.031  10.311  0.7235 -3.1265 -1.6133
 1009MOL0     H36161   3.591   1.076  10.349  1.2865  2.3126 -1.3409
 1009MOL0     H36162   3.488   1.258  10.226  2.4989  0.0592  0.6223
 1009MOL0     H36163   3.416   1.141  10.110 -0.1889  0.5692 -0.4836
 1009MOL0     H36164   3.688   1.103  10.061  0.7793  0.3654 -0.6112
 1009MOL0     H36165   3.627   1.248   9.994  1.7579 -0.3850 -0.3852
 1009MOL0     H36166   3.812   1.164  10.333  0.4536  0.3581  2.2928
 1009MOL0     H36167   3.857   1.480  10.483 -3.4246 -2.9749  0.0214
 1009MOL0     H36168   3.930   1.325  10.497 -1.4687 -0.0282  1.3222
 1009MOL0     H36169   4.081   1.554  10.364  0.2286  0.6771  1.4288
 1009MOL0     H36170   4.095   1.486  10.515  0.8496 -0.2231 -0.9046
 1009MOL0     H36171   4.124   1.286  10.299  0.6826  0.3974 -1.2170
 1009MOL0     H36172   4.192   1.300  10.459  2.1537  1.4257  0.1140
 1009MOL0     H36173   4.318   1.492  10.399  1.6560 -0.7867  0.7115
 1009MOL0     H36174   4.252   1.470  10.227  1.0400  2.3454  0.2939
 1009MOL0     H36175   4.575   1.190  10.179  0.3089  0.0712 -2.3596
 1009MOL0     H36176   4.804   1.256  10.107  0.9729 -0.6784  2.8395
 1009MOL0     H36177   4.998   1.872  10.087  1.5181 -1.5246  4.0038
 1009MOL0     H36178   5.220   1.981   9.977  1.8895 -1.0548 -1.0600
 1009MOL0     H36179   5.581   1.724   9.985  0.6444 -0.2383 -0.7968
 1009MOL0     H36180   5.505   1.710   9.820  0.6123 -0.9466 -0.1501
 1009MOL0     H36181   5.734   1.784   9.813 -0.0362  0.6598 -2.3870
 1009MOL0     H36182   5.629   1.894   9.733  0.0115  2.1634  1.0302
 1009MOL0     H36183   5.611   2.029   9.946  0.7432  1.2081 -3.3729
 1009MOL0     H36184   5.729   1.925  10.026  1.5576  2.3779  0.3241
 1009MOL0     H36185   5.763   2.082   9.757  1.9936  0.1354 -0.9773
 1009MOL0     H36186   5.874   1.983   9.805 -0.0402  3.7365 -2.9002
 1009MOL0     H36187   5.951   2.206   9.884  0.6890  0.6009 -0.1612
 1009MOL0     H36188   5.948   2.101  10.011 -0.7115  1.4706 -0.0066
 1009MOL0     H36189   5.729   2.172  10.088  2.0331 -4.3027 -1.2656
 1009MOL0     H36190   5.852   2.299  10.095  0.4988 -1.1950  1.3363
 1009MOL0     H36191   5.603   2.332   9.959 -0.9318  2.6469 -0.5995
 1009MOL0     H36192   5.729   2.327   9.825 -1.0207 -0.8424  0.5541
 1009MOL0     H36193   5.687   2.546   9.910 -0.2590 -1.6632 -2.9892
 1009MOL0     H36194   5.738   2.499  10.066 -2.4302 -0.6926 -0.6673
 1009MOL0     H36195   5.368   1.575   9.935  0.9335  0.8629  1.6510
 1009MOL0     H36196   5.168   1.492  10.018  1.5316  0.1534  0.0298
 1009MOL0     H36197   4.703   1.666  10.160 -1.0892  0.6433 -1.7787
 1009MOL0     H36198   4.487   1.608  10.256  1.5575  0.7007 -1.4560
 1009MOL0     H36199   3.810   1.042  10.655  0.0943  0.4378  3.6556
 1009MOL0     H36200   4.020   1.176  10.641  0.2922  0.4818  1.9060
 1009MOL0     H36201   4.464   1.317  10.668  1.4347 -0.0441  1.9611
 1009MOL0     H36202   4.673   1.410  10.580  3.5400 -0.5403  0.9826
 1009MOL0     H36203   4.904   1.453  10.566 -2.1232  0.5699 -0.6371
 1009MOL0     H36204   4.854   1.459  10.401  0.0036  0.3373  0.4309
 1009MOL0     H36205   5.062   1.368  10.331  1.2770  0.6378  0.3668
 1009MOL0     H36206   5.125   1.357  10.495  0.6484  2.8458  3.2210
 1009MOL0     H36207   5.102   1.600  10.530 -0.3439  0.1373 -0.3970
 1009MOL0     H36208   5.029   1.615  10.373  0.0096 -0.0934  0.4529
 1009MOL0     H36209   5.303   1.480  10.446  2.9225  1.2311  1.2532
 1009MOL0     H36210   5.271   1.548  10.285 -1.5224 -1.3972 -0.3633
 1009MOL0     H36211   5.426   1.869  10.533  0.6532 -1.1702  2.8089
 1009MOL0     H36212   4.802   1.011  10.500  1.2351  0.2265  1.5968
 1009MOL0     H36213   4.519   0.873  10.688  0.7036  3.6245  0.4276
 1009MOL0     H36214   4.581   0.823  10.524  0.2407  0.5063 -0.2242
 1009MOL0     H36215   4.689   0.841  10.668  0.0084  0.2123  1.7991
 1010MOL0     O36216   8.395   5.633   1.854 -0.1372  0.3022  0.1463
 1010MOL0     C36217   8.294   5.684   1.900  0.1010 -0.7379  0.8260
 1010MOL0     O36218   8.250   5.810   1.860 -0.1223  0.2135  0.0917
 1010MOL0     C36219   8.302   5.865   1.746 -0.3542  0.6507  0.2734
 1010MOL0     C36220   8.418   5.945   1.758 -0.4641  0.4041  0.4286
 1010MOL0     C36221   8.468   6.015   1.651 -0.3683  0.1033  0.0475
 1010MOL0     C36222   8.419   5.986   1.523  0.0755  0.2469 -0.4881
 1010MOL0     O36223   8.458   6.057   1.403 -0.0685  0.6203 -0.0014
 1010MOL0     C36224   8.552   6.165   1.399 -0.0144 -0.2621  0.3631
 1010MOL0     C36225   8.491   6.293   1.466 -0.7897  0.5269  0.0155
 1010MOL0     C36226   8.359   6.341   1.395 -0.5679  0.0818 -0.2554
 1010MOL0     C36227   8.378   6.375   1.245  0.3004  0.0765 -0.2694
 1010MOL0     C36228   8.277   6.476   1.186  0.6276  0.3122  0.7333
 1010MOL0     C36229   8.310   6.480   1.033 -0.0479 -0.7939  0.6609
 1010MOL0     C36230   8.265   6.619   0.981  0.6053 -0.5075  0.0791
 1010MOL0     C36231   8.271   6.645   0.828  0.4404 -0.3128  0.1666
 1010MOL0     N36232   8.198   6.765   0.798  0.5748 -0.1840 -0.3072
 1010MOL0     C36233   8.241   6.884   0.844 -1.2086 -0.1898  0.3157
 1010MOL0     C36234   8.152   6.965   0.780 -0.1736  0.5700 -0.3092
 1010MOL0     C36235   8.139   7.115   0.797  0.4253  0.6955 -0.3713
 1010MOL0     C36236   8.263   7.195   0.840  0.4166  0.6125  0.4462
 1010MOL0     C36237   8.223   7.339   0.848  0.3301 -0.4769 -0.7663
 1010MOL0     C36238   8.345   7.430   0.879 -0.4823  0.5642 -1.2183
 1010MOL0     O36239   8.441   7.376   0.971 -0.2949 -0.4911  0.3404
 1010MOL0     C36240   8.550   7.449   1.000 -0.4508  0.1846  0.4054
 1010MOL0     C36241   8.637   7.383   1.092 -0.7649  0.9569 -0.2023
 1010MOL0     C36242   8.760   7.433   1.121 -0.5438  0.7675  0.1066
 1010MOL0     C36243   8.802   7.554   1.065 -1.0292  0.6213  0.7785
 1010MOL0     C36244   8.942   7.606   1.084 -0.6691 -0.1830 -0.3385
 1010MOL0     O36245   8.982   7.728   1.032  0.0793  0.6750 -0.0481
 1010MOL0     C36246   9.113   7.760   1.041 -0.5585 -0.1006 -0.0176
 1010MOL0     C36247   9.152   7.826   1.154 -1.0906  0.1672  1.1768
 1010MOL0     C36248   9.292   7.853   1.178 -0.3885  0.4548  0.8834
 1010MOL0     C36249   9.386   7.800   1.091 -0.3356 -0.8610  0.2008
 1010MOL0     O36250   9.514   7.828   1.125 -0.1492 -0.2610  0.3545
 1010MOL0     C36251   9.625   7.753   1.069 -0.1477 -0.3139 -0.0384
 1010MOL0     C36252   9.743   7.832   1.092  0.3939  1.5195  0.7023
 1010MOL0     C36253   9.865   7.748   1.057 -0.6774  0.0075 -0.7153
 1010MOL0     C36254   9.989   7.840   1.031  0.5662  0.9556 -0.0419
 1010MOL0     C36255  10.111   7.754   1.049 -0.1972 -0.0554  0.8176
 1010MOL0     C36256  10.233   7.817   0.980  0.4582  0.3484 -0.7117
 1010MOL0     C36257  10.352   7.721   0.981  0.4861 -0.4949 -0.3067
 1010MOL0     C36258  10.479   7.780   0.926 -0.8467 -0.1258 -0.2864
 1010MOL0    Cl36259  10.600   7.632   0.895  0.0650  0.0490  0.3878
 1010MOL0     C36260   9.340   7.733   0.970 -0.1388 -0.0946 -0.6253
 1010MOL0     C36261   9.202   7.712   0.950 -0.3045  0.2956  0.4661
 1010MOL0     O36262   9.014   7.546   1.163  1.0717 -0.1174  0.1900
 1010MOL0     C36263   8.715   7.622   0.982  0.5149  0.3085  0.1699
 1010MOL0     C36264   8.595   7.569   0.943  0.5637  0.4147  0.1759
 1010MOL0     N36265   8.067   6.890   0.694  0.1138 -0.0440 -0.1707
 1010MOL0     N36266   8.092   6.765   0.713  0.6415 -0.3300 -1.0034
 1010MOL0     C36267   8.307   5.890   1.514  0.1873 -1.1104  0.5997
 1010MOL0     C36268   8.253   5.830   1.620 -0.4946 -1.1661 -1.0008
 1010MOL0     C36269   8.215   5.634   2.016 -0.1191  0.6860 -0.0251
 1010MOL0     C36270   8.134   5.724   2.077 -0.3067  1.1612 -0.0057
 1010MOL0     C36271   8.064   5.697   2.188 -0.3119 -0.3107  0.3829
 1010MOL0     C36272   8.069   5.570   2.245 -0.3924  0.2609 -1.0501
 1010MOL0     O36273   8.005   5.561   2.369  0.0278 -0.0691  0.5459
 1010MOL0     C36274   8.056   5.487   2.476 -0.9726  0.1232  0.7533
 1010MOL0     C36275   7.969   5.497   2.591  0.1145  0.4721 -0.0960
 1010MOL0     C36276   8.051   5.507   2.717  1.3022  0.7107  0.2238
 1010MOL0     C36277   7.968   5.506   2.848 -0.8903 -0.4912  0.3838
 1010MOL0     C36278   8.046   5.545   2.961 -1.0790 -0.6154 -0.6053
 1010MOL0     C36279   8.098   5.588   3.062  0.1614 -0.1480  1.5024
 1010MOL0     C36280   8.154   5.470   2.200 -0.4297 -0.1756  0.8597
 1010MOL0     C36281   8.223   5.505   2.071 -0.9027  1.1296 -0.1237
 1010MOL0     C36282   8.303   5.395   2.016  0.1597  0.3893 -0.1180
 1010MOL0     H36283   8.473   5.962   1.849 -0.3620 -0.0573  0.4539
 1010MOL0     H36284   8.552   6.084   1.660 -0.8943  0.7167  0.3200
 1010MOL0     H36285   8.645   6.137   1.448  0.2397 -0.8058 -0.4036
 1010MOL0     H36286   8.577   6.198   1.297  3.1114  1.7756  1.6424
 1010MOL0     H36287   8.568   6.370   1.458 -0.6603  0.3146 -1.0574
 1010MOL0     H36288   8.480   6.274   1.573  1.3839 -0.2433  0.1627
 1010MOL0     H36289   8.318   6.429   1.446 -0.0148 -1.1955  2.5690
 1010MOL0     H36290   8.278   6.270   1.414 -0.6184 -0.0683 -0.9700
 1010MOL0     H36291   8.472   6.430   1.241 -0.4466  1.4872  0.4120
 1010MOL0     H36292   8.396   6.283   1.189  3.9914  0.5999 -0.1942
 1010MOL0     H36293   8.172   6.446   1.189  1.0138 -1.2065 -0.0311
 1010MOL0     H36294   8.295   6.573   1.234  2.9117  1.6423 -2.4190
 1010MOL0     H36295   8.417   6.473   1.013  0.0104  2.0063 -0.4567
 1010MOL0     H36296   8.254   6.409   0.972  0.1466 -2.3412  2.1964
 1010MOL0     H36297   8.316   6.697   1.039 -1.4945 -1.8505  4.1333
 1010MOL0     H36298   8.160   6.624   1.014  0.5690 -0.1835 -0.0834
 1010MOL0     H36299   8.370   6.657   0.782  0.5770  0.9642  0.7590
 1010MOL0     H36300   8.229   6.555   0.782 -0.3836 -1.4425  2.8965
 1010MOL0     H36301   8.320   6.906   0.916 -0.5146  0.0273 -0.4903
 1010MOL0     H36302   8.118   7.155   0.697 -0.1682 -0.2012 -0.6233
 1010MOL0     H36303   8.057   7.130   0.867  0.5321 -2.2813  0.5481
 1010MOL0     H36304   8.303   7.162   0.937 -0.3783  1.3680  1.0491
 1010MOL0     H36305   8.343   7.193   0.765 -2.0615 -1.4675 -2.3407
 1010MOL0     H36306   8.149   7.361   0.925 -0.8297 -2.4720 -1.2483
 1010MOL0     H36307   8.178   7.362   0.751 -1.1389 -1.9705 -0.4928
 1010MOL0     H36308   8.307   7.526   0.914  0.7226  1.6683 -2.8448
 1010MOL0     H36309   8.391   7.462   0.786 -0.7515  2.8686 -0.6235
 1010MOL0     H36310   8.608   7.293   1.145  2.6532  0.1626  0.5918
 1010MOL0     H36311   8.814   7.363   1.184 -3.2537 -0.5980  1.0743
 1010MOL0     H36312   9.071   7.836   1.226 -3.2841  1.8059 -1.3335
 1010MOL0     H36313   9.325   7.894   1.273  0.8343 -0.2539  0.7838
 1010MOL0     H36314   9.637   7.661   1.128  2.4899 -0.3779 -0.5914
 1010MOL0     H36315   9.618   7.736   0.961  0.6382 -1.1591  0.0312
 1010MOL0     H36316   9.736   7.914   1.019  0.0390 -0.3540 -1.4820
 1010MOL0     H36317   9.759   7.867   1.194  2.8513  1.8267  0.2728
 1010MOL0     H36318   9.885   7.673   1.134 -0.4980  2.3062  1.6423
 1010MOL0     H36319   9.859   7.702   0.958 -1.7437  0.7821 -1.0316
 1010MOL0     H36320   9.985   7.933   1.090 -2.2229  3.1715 -3.2884
 1010MOL0     H36321   9.998   7.875   0.928  2.7728  0.3623 -0.0865
 1010MOL0     H36322  10.094   7.656   1.005 -1.1043  0.5791 -0.3218
 1010MOL0     H36323  10.131   7.730   1.154  2.3622 -0.9381  0.2097
 1010MOL0     H36324  10.202   7.847   0.879  0.5916 -2.2011 -1.5877
 1010MOL0     H36325  10.268   7.910   1.025 -0.2353  0.7525 -0.9992
 1010MOL0     H36326  10.332   7.639   0.912 -0.8624 -1.2468  0.9124
 1010MOL0     H36327  10.364   7.683   1.083 -0.0689  0.4187  0.1105
 1010MOL0     H36328  10.458   7.842   0.838 -1.2000  1.4489  0.8552
 1010MOL0     H36329  10.530   7.856   0.986 -1.9990 -0.0376  0.6176
 1010MOL0     H36330   9.407   7.687   0.898 -0.9478  0.3657 -1.7038
 1010MOL0     H36331   9.171   7.660   0.860 -1.4624  2.6284 -0.5891
 1010MOL0     H36332   8.753   7.711   0.932  2.0559 -1.0079 -1.1094
 1010MOL0     H36333   8.535   7.600   0.858  0.3491 -1.9643 -0.6168
 1010MOL0     H36334   8.250   5.879   1.422  0.7470  4.8602 -0.8417
 1010MOL0     H36335   8.169   5.762   1.612 -2.7951  1.2715  0.8755
 1010MOL0     H36336   8.120   5.828   2.049 -1.6757  1.2272  0.8633
 1010MOL0     H36337   8.008   5.777   2.236 -1.1052 -1.6126  1.7438
 1010MOL0     H36338   8.156   5.529   2.491 -0.2236  0.1363 -3.1171
 1010MOL0     H36339   8.063   5.382   2.445  2.5267  0.3700  0.2767
 1010MOL0     H36340   7.891   5.420   2.587  0.8065 -0.2230 -3.0416
 1010MOL0     H36341   7.919   5.595   2.592  0.4176  0.6598 -1.4210
 1010MOL0     H36342   8.103   5.603   2.711 -1.2821  2.3435  2.0083
 1010MOL0     H36343   8.115   5.419   2.723  0.3797  0.1215  1.7984
 1010MOL0     H36344   7.894   5.582   2.823  0.5655  0.2454 -2.1516
 1010MOL0     H36345   7.936   5.407   2.880  0.1472 -0.6359  1.0303
 1010MOL0     H36346   8.155   5.619   3.147 -1.7633  3.7415  1.5789
 1010MOL0     H36347   8.174   5.371   2.240  0.9716 -0.6487 -0.8676
 1010MOL0     H36348   8.407   5.428   2.019 -0.2504  1.7253  0.7808
 1010MOL0     H36349   8.278   5.306   2.073 -3.6979  0.0472 -1.9955
 1010MOL0     H36350   8.283   5.361   1.914 -2.5116 -0.4291  0.6071
 1011MOL0     O36351   6.614   5.775   6.019  0.5905  0.6778  0.4500
 1011MOL0     C36352   6.498   5.738   6.001 -0.1317  0.0164  0.3785
 1011MOL0     O36353   6.459   5.609   5.995 -0.5052  0.0451  0.1290
 1011MOL0     C36354   6.543   5.508   6.028  0.3199 -0.2871 -0.5231
 1011MOL0     C36355   6.497   5.420   6.129 -0.4874  0.1049  0.9646
 1011MOL0     C36356   6.579   5.311   6.157  0.0473 -0.6826 -0.3586
 1011MOL0     C36357   6.703   5.296   6.100  0.4154  1.0852  0.0740
 1011MOL0     O36358   6.790   5.198   6.143  0.7638  0.1892  0.1129
 1011MOL0     C36359   6.922   5.157   6.091  0.3514 -0.0771  0.8835
 1011MOL0     C36360   7.023   5.219   6.197  1.1102  1.2906  0.1198
 1011MOL0     C36361   7.165   5.233   6.138  0.7663 -0.7285 -0.2774
 1011MOL0     C36362   7.219   5.101   6.097 -0.4324  0.4366  0.2115
 1011MOL0     C36363   7.367   5.100   6.108 -0.1721  0.8679 -0.9619
 1011MOL0     C36364   7.443   4.979   6.045 -0.3598  0.2478 -0.0163
 1011MOL0     C36365   7.601   4.990   6.031 -0.0440  1.2521 -0.1291
 1011MOL0     C36366   7.648   4.855   5.978  0.4870 -0.4564  0.5934
 1011MOL0     N36367   7.793   4.856   5.956  0.6799  0.0743  1.0718
 1011MOL0     C36368   7.891   4.887   6.046 -1.1143 -0.6308 -0.3116
 1011MOL0     C36369   8.007   4.864   5.975  0.7562  0.0125  0.1754
 1011MOL0     C36370   8.140   4.860   6.038  0.0086 -0.5069 -1.1523
 1011MOL0     C36371   8.198   5.004   6.052 -0.1733  0.3215 -0.1411
 1011MOL0     C36372   8.250   5.051   5.908  0.5841  0.1010 -0.2893
 1011MOL0     C36373   8.392   5.045   5.893 -0.0767 -0.0452 -0.5769
 1011MOL0     O36374   8.448   4.920   5.923  0.1562 -0.0297  0.1659
 1011MOL0     C36375   8.589   4.917   5.910 -1.3939  0.3019 -0.7041
 1011MOL0     C36376   8.660   5.017   5.859 -1.0844  0.4378 -0.2662
 1011MOL0     C36377   8.799   5.020   5.853  0.1441  0.3523  0.1116
 1011MOL0     C36378   8.872   4.916   5.916  0.3419 -0.3515  0.2602
 1011MOL0     C36379   9.019   4.916   5.922 -1.3464  0.7544  0.5125
 1011MOL0     O36380   9.082   4.824   6.006 -0.2666  0.3411 -0.5101
 1011MOL0     C36381   9.220   4.797   6.011  0.7270 -0.5434  0.3551
 1011MOL0     C36382   9.254   4.730   6.128 -0.0064  0.5667  0.7204
 1011MOL0     C36383   9.387   4.696   6.153  0.9297  0.0992 -1.0709
 1011MOL0     C36384   9.491   4.749   6.073  0.9049  0.5059 -0.7311
 1011MOL0     O36385   9.620   4.747   6.119  0.4590 -0.3949  0.4358
 1011MOL0     C36386   9.719   4.841   6.062 -0.3825  0.8636 -0.0090
 1011MOL0     C36387   9.854   4.840   6.136  0.0509  0.2732 -0.2014
 1011MOL0     C36388   9.914   4.696   6.133  0.1193 -0.3859  0.4955
 1011MOL0     C36389  10.062   4.707   6.173 -0.7202 -0.1154 -0.2646
 1011MOL0     C36390  10.133   4.578   6.157  0.6796 -0.0450  0.1270
 1011MOL0     C36391  10.156   4.526   6.008  0.3329 -0.8747  0.1948
 1011MOL0     C36392  10.261   4.410   6.009 -0.0946  0.9658  0.0837
 1011MOL0     C36393  10.231   4.283   6.096 -0.6479  0.6518 -0.0865
 1011MOL0    Cl36394  10.390   4.211   6.130  0.0274  0.0134  0.0141
 1011MOL0     C36395   9.444   4.818   5.954 -0.6517 -0.3069 -0.4906
 1011MOL0     C36396   9.317   4.844   5.933 -0.8950  0.4520 -1.1963
 1011MOL0     O36397   9.075   5.011   5.867  0.5852 -0.0022  0.1532
 1011MOL0     C36398   8.802   4.805   5.962  0.7251  0.9830  1.8082
 1011MOL0     C36399   8.661   4.799   5.958 -0.9656  0.2561  0.7601
 1011MOL0     N36400   7.980   4.824   5.849  0.2304 -0.7205 -0.2456
 1011MOL0     N36401   7.853   4.818   5.837 -0.3616 -0.0692 -0.4412
 1011MOL0     C36402   6.742   5.387   6.006 -1.3138 -0.0037  0.0527
 1011MOL0     C36403   6.666   5.494   5.965 -0.5011 -0.5834  0.3547
 1011MOL0     C36404   6.388   5.834   5.976  0.5077  0.1927  0.3655
 1011MOL0     C36405   6.287   5.807   5.888 -0.1085 -0.5497 -0.4361
 1011MOL0     C36406   6.177   5.896   5.874 -0.1030 -0.5251 -0.0209
 1011MOL0     C36407   6.167   6.024   5.946 -0.8786  0.4948  0.2562
 1011MOL0     O36408   6.060   6.104   5.949 -0.0406 -0.1590  0.9883
 1011MOL0     C36409   5.936   6.061   5.887  0.8136 -0.6087  0.4955
 1011MOL0     C36410   5.859   5.965   5.977  0.6393 -0.4772  0.9433
 1011MOL0     C36411   5.713   5.957   5.932  0.4273  0.4990 -0.1651
 1011MOL0     C36412   5.643   5.842   6.003  0.5355 -0.8682  0.2267
 1011MOL0     C36413   5.511   5.902   6.036  0.0826  0.3041 -0.4958
 1011MOL0     C36414   5.410   5.958   6.051  0.3623 -0.2746 -0.2494
 1011MOL0     C36415   6.265   6.052   6.033 -0.5531  0.0538 -0.0492
 1011MOL0     C36416   6.372   5.958   6.049  0.3013 -0.0149 -0.1598
 1011MOL0     C36417   6.476   5.996   6.152  0.2203 -0.2194 -0.0749
 1011MOL0     H36418   6.402   5.430   6.179 -0.4681  1.4266  0.7590
 1011MOL0     H36419   6.554   5.255   6.246  0.4663 -1.4199 -0.6899
 1011MOL0     H36420   6.923   5.048   6.100 -0.5322 -0.0848  0.9360
 1011MOL0     H36421   6.935   5.178   5.985  1.5045  0.8033  1.1724
 1011MOL0     H36422   7.036   5.149   6.280 -3.8827 -0.1488  0.0500
 1011MOL0     H36423   6.984   5.312   6.239 -1.4506 -0.1191  1.0752
 1011MOL0     H36424   7.217   5.284   6.220 -1.9224  2.2773 -0.2608
 1011MOL0     H36425   7.172   5.300   6.052 -1.9628  0.0074 -0.0338
 1011MOL0     H36426   7.190   5.033   6.178 -2.8787 -0.9669 -1.6920
 1011MOL0     H36427   7.193   5.070   5.995 -1.0235  0.4161  0.3637
 1011MOL0     H36428   7.397   5.190   6.054  0.0423 -0.5740 -3.4201
 1011MOL0     H36429   7.395   5.117   6.213 -1.8996 -1.6573  0.0140
 1011MOL0     H36430   7.416   4.889   6.101  0.2997 -1.2993 -2.0341
 1011MOL0     H36431   7.409   4.968   5.942  0.5932 -1.1152 -0.2109
 1011MOL0     H36432   7.643   5.002   6.131 -0.2367 -0.9814  0.2582
 1011MOL0     H36433   7.641   5.074   5.973  0.6038  1.4039  0.5139
 1011MOL0     H36434   7.628   4.785   6.059  1.1886 -0.3357  0.8768
 1011MOL0     H36435   7.595   4.817   5.890  2.2207  0.7773 -1.0684
 1011MOL0     H36436   7.883   4.908   6.152  0.9349 -0.0628 -0.2204
 1011MOL0     H36437   8.139   4.812   6.136  1.4994 -2.3534 -1.9675
 1011MOL0     H36438   8.205   4.790   5.985  2.4838  0.6724  0.1436
 1011MOL0     H36439   8.117   5.065   6.092 -0.9046  0.2949 -1.5367
 1011MOL0     H36440   8.282   5.002   6.122  1.8549 -0.4361 -2.4758
 1011MOL0     H36441   8.199   5.147   5.896 -3.8494 -1.9758 -0.0836
 1011MOL0     H36442   8.210   4.996   5.822  1.0265  2.4084 -2.0798
 1011MOL0     H36443   8.434   5.123   5.957  0.4056  1.7988 -2.9767
 1011MOL0     H36444   8.414   5.078   5.791  0.0731 -1.6501 -1.0927
 1011MOL0     H36445   8.623   5.106   5.809 -0.5384  0.8184 -0.0053
 1011MOL0     H36446   8.848   5.109   5.814  0.1415  0.7490  0.9988
 1011MOL0     H36447   9.163   4.693   6.176 -0.4971  0.2621 -0.4107
 1011MOL0     H36448   9.405   4.650   6.249 -1.8741 -2.4374 -1.6022
 1011MOL0     H36449   9.731   4.812   5.957 -1.0025 -1.2657  0.4586
 1011MOL0     H36450   9.680   4.943   6.065 -0.3285  0.8964 -0.3634
 1011MOL0     H36451   9.903   4.912   6.070 -1.2588  0.1209 -1.3865
 1011MOL0     H36452   9.826   4.872   6.237  0.5515 -2.5484  0.9219
 1011MOL0     H36453   9.858   4.633   6.202 -3.1504  0.0932 -1.5086
 1011MOL0     H36454   9.906   4.659   6.030  0.7122  0.3660  0.1645
 1011MOL0     H36455  10.064   4.757   6.270 -1.9742  0.8283 -0.6871
 1011MOL0     H36456  10.097   4.784   6.104 -0.8546  0.6182  0.4661
 1011MOL0     H36457  10.070   4.511   6.216 -0.0836  2.1703  1.9670
 1011MOL0     H36458  10.231   4.583   6.206  1.6273 -1.9881 -1.4274
 1011MOL0     H36459  10.057   4.493   5.977  0.2981 -1.5329  0.9848
 1011MOL0     H36460  10.176   4.596   5.926 -2.5170 -0.2694 -0.0791
 1011MOL0     H36461  10.363   4.443   6.030  1.2655 -1.8346 -1.5084
 1011MOL0     H36462  10.251   4.379   5.904 -2.3143 -0.4658  0.6481
 1011MOL0     H36463  10.183   4.312   6.189 -1.7996 -1.7431  0.1379
 1011MOL0     H36464  10.162   4.218   6.040 -1.5155  1.8649 -0.4821
 1011MOL0     H36465   9.525   4.857   5.892  0.5916 -1.1311  0.5548
 1011MOL0     H36466   9.293   4.907   5.848  2.8605  0.0393 -2.7452
 1011MOL0     H36467   8.851   4.718   6.005  0.2391 -2.0679 -2.9688
 1011MOL0     H36468   8.608   4.715   6.002  0.9061 -0.9988  0.7365
 1011MOL0     H36469   6.841   5.388   5.962 -0.8693 -2.1662  0.9020
 1011MOL0     H36470   6.706   5.569   5.898  1.4680  0.7598  2.8743
 1011MOL0     H36471   6.296   5.719   5.826 -0.4819  0.0684 -1.3799
 1011MOL0     H36472   6.090   5.865   5.816 -0.3308 -0.1075  0.0933
 1011MOL0     H36473   5.941   6.014   5.788 -0.1029 -1.6015  0.8926
 1011MOL0     H36474   5.880   6.155   5.879  0.8976 -0.6286 -0.4127
 1011MOL0     H36475   5.867   5.995   6.082 -3.1257  1.6194  0.7754
 1011MOL0     H36476   5.901   5.863   5.975  1.6410 -0.1301  2.4958
 1011MOL0     H36477   5.709   5.936   5.825 -0.6813 -3.3193  0.4882
 1011MOL0     H36478   5.676   6.057   5.955 -1.2546  0.8386 -3.6531
 1011MOL0     H36479   5.628   5.755   5.939  0.9688 -1.5915  1.0906
 1011MOL0     H36480   5.693   5.814   6.096 -3.0571  0.5821  2.8475
 1011MOL0     H36481   5.315   6.006   6.056  0.5129  0.5056 -3.2208
 1011MOL0     H36482   6.259   6.148   6.082  0.8857  0.6326 -0.9464
 1011MOL0     H36483   6.451   5.947   6.246  0.7366  3.1942  2.0454
 1011MOL0     H36484   6.581   5.992   6.120  0.5068  0.9666  0.6513
 1011MOL0     H36485   6.456   6.103   6.167 -2.4719 -0.8865  1.8213
 1012MOL0     O36486   0.576   9.914   2.656 -0.6540 -0.2206 -0.0773
 1012MOL0     C36487   0.461   9.887   2.632  0.5197 -0.1562  0.0472
 1012MOL0     O36488   0.416   9.857   2.507 -0.0603  0.6666  0.0426
 1012MOL0     C36489   0.501   9.885   2.404  0.5296 -0.4870 -0.0906
 1012MOL0     C36490   0.567  10.005   2.384 -0.0686  1.0005 -0.9506
 1012MOL0     C36491   0.655  10.026   2.279 -0.4982 -0.7448 -0.2137
 1012MOL0     C36492   0.673   9.941   2.184  0.3069  0.6249 -0.3190
 1012MOL0     O36493   0.734   9.961   2.068  0.3856 -0.0589  0.2907
 1012MOL0     C36494   0.796  10.086   2.042 -0.3860 -1.4805  1.2580
 1012MOL0     C36495   0.861  10.082   1.900  0.2111 -0.2301 -0.2006
 1012MOL0     C36496   0.758  10.069   1.785 -0.1320  0.4322  0.1253
 1012MOL0     C36497   0.818  10.039   1.650 -0.9762 -0.3062 -0.5118
 1012MOL0     C36498   0.711  10.025   1.545  0.4433  0.1299 -0.6222
 1012MOL0     C36499   0.775  10.003   1.410 -0.1042 -0.1016 -0.2283
 1012MOL0     C36500   0.676   9.975   1.297 -0.1087  0.5094  0.1250
 1012MOL0     C36501   0.620  10.109   1.248 -0.0641  0.3012 -0.3110
 1012MOL0     N36502   0.719  10.200   1.204 -0.1393  0.2961 -0.0937
 1012MOL0     C36503   0.797  10.198   1.090 -0.7035 -0.7436 -0.1116
 1012MOL0     C36504   0.862  10.313   1.087  0.0717 -0.9393  0.7354
 1012MOL0     C36505   0.978  10.354   0.995 -0.6619  0.6031  0.2640
 1012MOL0     C36506   1.118  10.301   1.046 -1.0991 -0.3494  0.1806
 1012MOL0     C36507   1.185  10.399   1.152  0.6809 -0.0945  0.2959
 1012MOL0     C36508   1.285  10.352   1.255  0.4088  0.1987  0.4391
 1012MOL0     O36509   1.415  10.325   1.204 -0.4167 -0.0606 -0.2708
 1012MOL0     C36510   1.495  10.434   1.165 -0.0194 -0.6105 -0.2441
 1012MOL0     C36511   1.616  10.397   1.099  0.0786  0.0344  0.8507
 1012MOL0     C36512   1.705  10.495   1.049  0.4648  0.9203 -0.2204
 1012MOL0     C36513   1.689  10.631   1.088  0.2204  0.7566  0.0034
 1012MOL0     C36514   1.782  10.739   1.039 -0.5292  0.2008  0.7543
 1012MOL0     O36515   1.882  10.700   0.952 -0.3499 -0.0502  0.1677
 1012MOL0     C36516   1.965  10.789   0.896 -0.4104 -0.3491  0.1747
 1012MOL0     C36517   2.075  10.729   0.839 -0.1830  0.4532 -0.4229
 1012MOL0     C36518   2.177  10.795   0.775  0.0609 -0.2017  0.1652
 1012MOL0     C36519   2.167  10.941   0.765  0.0441 -0.2065  0.1227
 1012MOL0     O36520   2.251  11.020   0.695  0.5873 -0.6081  0.5963
 1012MOL0     C36521   2.382  10.973   0.659  0.6237  0.4500 -0.0178
 1012MOL0     C36522   2.399  10.932   0.517 -0.4310  0.8125 -0.1096
 1012MOL0     C36523   2.547  10.929   0.476  0.3904 -0.4437  0.5331
 1012MOL0     C36524   2.611  11.068   0.451 -0.5582 -0.5525  0.5314
 1012MOL0     C36525   2.736  11.048   0.357  0.0504  0.1091  0.0614
 1012MOL0     C36526   2.795  11.182   0.319  0.5857 -0.7092  0.0983
 1012MOL0     C36527   2.921  11.157   0.239 -0.3312 -0.3481 -0.2724
 1012MOL0     C36528   2.970  11.287   0.174 -0.1336  0.2580 -0.0884
 1012MOL0    Cl36529   3.138  11.265   0.117  0.4035 -0.1176 -0.8476
 1012MOL0     C36530   2.058  11.004   0.831  1.1795 -0.6883  0.4518
 1012MOL0     C36531   1.968  10.930   0.906 -0.5225 -0.1253 -0.1751
 1012MOL0     O36532   1.767  10.854   1.081  0.6875  0.2619 -0.7781
 1012MOL0     C36533   1.571  10.664   1.154 -0.3942  0.0752 -0.0761
 1012MOL0     C36534   1.475  10.571   1.188  0.1544  0.1944  0.0146
 1012MOL0     N36535   0.812  10.396   1.186  0.5776 -0.3593 -0.9881
 1012MOL0     N36536   0.721  10.327   1.251  0.5275 -0.1410  0.0395
 1012MOL0     C36537   0.600   9.816   2.192 -0.1694 -0.1321 -0.5915
 1012MOL0     C36538   0.515   9.790   2.301 -0.3393 -0.5000  0.4170
 1012MOL0     C36539   0.365   9.895   2.747  0.3099  0.3792 -0.5436
 1012MOL0     C36540   0.234   9.867   2.717 -0.3375  0.3935 -0.5491
 1012MOL0     C36541   0.127   9.876   2.818 -0.6659  0.7392 -0.1341
 1012MOL0     C36542   0.161   9.912   2.943  0.5792 -0.3502 -1.0686
 1012MOL0     O36543   0.050   9.927   3.025 -0.4465 -0.1454 -0.0081
 1012MOL0     C36544   0.058   9.989   3.150 -0.0308  0.4074 -0.0784
 1012MOL0     C36545   0.093   9.879   3.250 -1.0245  0.1501  0.6356
 1012MOL0     C36546  -0.018   9.765   3.249 -0.7847  0.5257 -0.0481
 1012MOL0     C36547   0.026   9.635   3.323  0.6227 -0.3655  0.9604
 1012MOL0     C36548   0.143   9.584   3.263 -0.6153  0.6805  0.1245
 1012MOL0     C36549   0.246   9.540   3.215  0.1906 -0.6025 -0.2326
 1012MOL0     C36550   0.297   9.925   2.977  0.9623 -0.2535  0.0411
 1012MOL0     C36551   0.403   9.929   2.886  0.6498  0.0425  1.0133
 1012MOL0     C36552   0.540   9.966   2.932 -0.2933 -0.1068 -0.0834
 1012MOL0     H36553   0.554  10.081   2.461  0.0798 -0.0492  0.1426
 1012MOL0     H36554   0.707  10.121   2.287  1.4471 -1.6815 -1.2344
 1012MOL0     H36555   0.719  10.164   2.034  0.9291 -0.2949 -0.9415
 1012MOL0     H36556   0.872  10.122   2.111  0.1465  1.6121 -0.7310
 1012MOL0     H36557   0.929   9.997   1.890 -0.2369 -0.4997 -1.1223
 1012MOL0     H36558   0.926  10.168   1.884  1.4965 -0.9775  0.8366
 1012MOL0     H36559   0.713  10.169   1.780  1.4051  1.1625  0.4545
 1012MOL0     H36560   0.684   9.997   1.820 -1.9606  2.2233  0.1512
 1012MOL0     H36561   0.893  10.114   1.625 -1.1665  0.7102  1.7264
 1012MOL0     H36562   0.873   9.944   1.655  0.4628  0.5359  0.3669
 1012MOL0     H36563   0.654   9.934   1.564  1.8904 -0.0192  4.1185
 1012MOL0     H36564   0.641  10.108   1.554  2.9334  2.2662  0.1704
 1012MOL0     H36565   0.833  10.095   1.401  0.1983 -0.2120  0.4942
 1012MOL0     H36566   0.837   9.915   1.428  0.7939 -0.2034 -3.3086
 1012MOL0     H36567   0.586   9.925   1.334  0.8219 -0.3782  1.2559
 1012MOL0     H36568   0.711   9.916   1.211  1.8104  0.4789  0.8860
 1012MOL0     H36569   0.553  10.075   1.169  0.4927 -1.8256  0.0584
 1012MOL0     H36570   0.568  10.156   1.332  1.6130  2.7445 -0.5553
 1012MOL0     H36571   0.819  10.113   1.026  0.8388 -0.5363  0.1112
 1012MOL0     H36572   0.961  10.306   0.898 -2.2183 -0.7203  1.1608
 1012MOL0     H36573   0.982  10.463   0.988  1.9501  0.5789  0.4212
 1012MOL0     H36574   1.112  10.200   1.088 -0.3145 -1.2853 -1.7946
 1012MOL0     H36575   1.180  10.298   0.955 -1.1914 -0.2243  0.1122
 1012MOL0     H36576   1.114  10.450   1.218  2.1757  1.7301  0.5737
 1012MOL0     H36577   1.239  10.465   1.083 -1.5241 -0.5511 -2.0725
 1012MOL0     H36578   1.232  10.271   1.306 -0.4612  0.4217 -0.1006
 1012MOL0     H36579   1.284  10.434   1.327 -0.2959  0.6237 -0.0493
 1012MOL0     H36580   1.637  10.293   1.077 -0.1774 -0.1924  1.6462
 1012MOL0     H36581   1.796  10.470   0.995  0.5472  0.0858  0.2928
 1012MOL0     H36582   2.080  10.621   0.848  0.2119  0.6142  2.1109
 1012MOL0     H36583   2.256  10.729   0.739  0.4437  0.7275 -0.7600
 1012MOL0     H36584   2.455  11.050   0.686  1.9950 -0.5420 -0.7614
 1012MOL0     H36585   2.413  10.889   0.723  3.6800  0.5940 -1.1527
 1012MOL0     H36586   2.358  10.831   0.517  1.5299 -0.0153 -0.5785
 1012MOL0     H36587   2.346  11.003   0.453  0.8607  1.5665 -0.3863
 1012MOL0     H36588   2.598  10.869   0.552 -2.4916  0.0317  3.0019
 1012MOL0     H36589   2.547  10.877   0.380  1.7433 -2.0323  1.3428
 1012MOL0     H36590   2.647  11.120   0.540 -0.2135  0.6176 -0.2551
 1012MOL0     H36591   2.543  11.139   0.402  2.3499  1.5756 -0.7033
 1012MOL0     H36592   2.709  10.994   0.266 -1.4753 -0.3884  0.7557
 1012MOL0     H36593   2.815  10.989   0.405  1.8720  2.0157 -0.4863
 1012MOL0     H36594   2.725  11.234   0.252 -0.0234 -2.1927 -0.4529
 1012MOL0     H36595   2.814  11.239   0.410 -2.5919  0.3878  0.2051
 1012MOL0     H36596   2.908  11.080   0.162  3.6243 -1.2133 -0.2880
 1012MOL0     H36597   2.993  11.123   0.315 -0.3257  1.3332  0.5267
 1012MOL0     H36598   2.920  11.303   0.078  0.3720  2.2021 -0.0606
 1012MOL0     H36599   2.962  11.373   0.242  0.8482  0.3470 -0.0814
 1012MOL0     H36600   2.047  11.110   0.810  2.4690 -0.7591 -0.6894
 1012MOL0     H36601   1.899  10.990   0.965  2.2891  2.8418  0.3856
 1012MOL0     H36602   1.555  10.769   1.177  1.6883  0.3812  0.1470
 1012MOL0     H36603   1.383  10.600   1.237  1.6450  2.5361  1.6664
 1012MOL0     H36604   0.614   9.739   2.117  2.1376  0.8509 -1.2532
 1012MOL0     H36605   0.471   9.692   2.311 -0.1132 -0.7761 -1.0405
 1012MOL0     H36606   0.190   9.845   2.621  1.6670  1.7904 -1.8804
 1012MOL0     H36607   0.029   9.852   2.779  0.6754 -2.6245 -1.8558
 1012MOL0     H36608  -0.036  10.036   3.179  1.1478  2.8243  0.0296
 1012MOL0     H36609   0.146  10.053   3.158 -0.9809  1.5540  1.6692
 1012MOL0     H36610   0.098   9.920   3.351  1.7024 -2.1213  1.5484
 1012MOL0     H36611   0.195   9.844   3.237 -1.0528 -0.8115  2.6667
 1012MOL0     H36612  -0.045   9.743   3.145  2.4693  2.7779 -1.5502
 1012MOL0     H36613  -0.109   9.802   3.297 -0.0010  3.8248 -0.8309
 1012MOL0     H36614   0.042   9.664   3.428  0.9712 -0.5294  0.9525
 1012MOL0     H36615  -0.054   9.561   3.309  1.8024 -1.4759 -0.0744
 1012MOL0     H36616   0.333   9.495   3.172  0.2914 -1.2413  0.6055
 1012MOL0     H36617   0.322   9.939   3.082  0.5617  1.9096 -0.1022
 1012MOL0     H36618   0.518  10.030   3.018 -3.3537 -2.6337  1.2050
 1012MOL0     H36619   0.612   9.890   2.962 -0.4151  0.2567  1.2164
 1012MOL0     H36620   0.581  10.043   2.866 -3.3916  0.1034 -1.9700
 1013MOL0     O36621   4.898   7.205   2.247 -0.7856 -0.4295  0.1960
 1013MOL0     C36622   4.863   7.318   2.231  0.0350  0.2366 -0.0775
 1013MOL0     O36623   4.758   7.370   2.296  1.3385 -1.0138 -0.2620
 1013MOL0     C36624   4.694   7.299   2.393 -0.4562 -0.5521 -0.4135
 1013MOL0     C36625   4.689   7.336   2.535  0.2265  0.5331 -0.4532
 1013MOL0     C36626   4.632   7.254   2.636  0.5090 -0.0701 -0.5412
 1013MOL0     C36627   4.566   7.137   2.595  0.0395 -0.0386 -0.6494
 1013MOL0     O36628   4.495   7.051   2.672  0.3230 -0.9939 -0.6256
 1013MOL0     C36629   4.522   7.038   2.816 -0.7723  0.2856 -0.1267
 1013MOL0     C36630   4.443   6.911   2.872 -0.2767 -0.3877  0.1625
 1013MOL0     C36631   4.317   6.939   2.954 -0.0059 -0.3308  0.1799
 1013MOL0     C36632   4.300   6.818   3.047 -0.3856  0.1218 -0.5173
 1013MOL0     C36633   4.170   6.841   3.131  0.3260 -0.2056 -0.2068
 1013MOL0     C36634   4.145   6.981   3.192  0.2743  0.4704  0.0932
 1013MOL0     C36635   4.032   6.971   3.293  0.0688 -0.4217  0.8573
 1013MOL0     C36636   3.969   7.106   3.312 -0.1999 -0.4880  0.1732
 1013MOL0     N36637   3.856   7.101   3.397  0.4159 -0.0141 -0.2661
 1013MOL0     C36638   3.743   7.033   3.371  0.8222 -1.2408  0.4212
 1013MOL0     C36639   3.660   7.075   3.465  0.3814 -0.1199  0.5319
 1013MOL0     C36640   3.522   7.020   3.458  1.2780  0.0894 -1.2527
 1013MOL0     C36641   3.414   7.115   3.396  0.3092 -0.2316 -1.5315
 1013MOL0     C36642   3.401   7.103   3.248  0.6641  0.1777 -0.4211
 1013MOL0     C36643   3.302   7.189   3.168  0.3804 -0.6330  0.6211
 1013MOL0     O36644   3.176   7.138   3.214 -0.5602  0.9317 -0.7580
 1013MOL0     C36645   3.079   7.233   3.222  0.4252  0.2431  0.7688
 1013MOL0     C36646   2.943   7.202   3.189 -0.2359  0.2427  0.0209
 1013MOL0     C36647   2.848   7.300   3.188  0.2019 -0.1964  0.4361
 1013MOL0     C36648   2.879   7.430   3.232  1.1937 -0.5744 -0.7897
 1013MOL0     C36649   2.780   7.539   3.234  0.0518  0.4537 -0.7422
 1013MOL0     O36650   2.830   7.662   3.245  0.0904 -0.4527  0.0547
 1013MOL0     C36651   2.753   7.763   3.285 -0.2937 -0.3746 -0.0254
 1013MOL0     C36652   2.791   7.895   3.247  0.4898 -0.7521  0.1653
 1013MOL0     C36653   2.697   8.003   3.256 -0.2973 -0.5089 -0.6810
 1013MOL0     C36654   2.580   7.994   3.330  0.6172  0.2969 -0.4820
 1013MOL0     O36655   2.512   8.109   3.348  0.3641  0.7782 -0.0755
 1013MOL0     C36656   2.377   8.087   3.400 -0.4945  0.5932  0.7107
 1013MOL0     C36657   2.314   8.220   3.410 -0.7163  0.8542 -0.3887
 1013MOL0     C36658   2.366   8.314   3.513  0.4724  0.5066 -0.6066
 1013MOL0     C36659   2.312   8.455   3.495  0.0994  1.1773  1.1058
 1013MOL0     C36660   2.394   8.565   3.569  0.5221  0.5540 -0.6679
 1013MOL0     C36661   2.319   8.706   3.566 -0.1964 -0.1205  0.3117
 1013MOL0     C36662   2.417   8.823   3.601  0.6928 -0.6405  0.4573
 1013MOL0     C36663   2.418   8.862   3.751  0.5330  0.6031 -0.4932
 1013MOL0    Cl36664   2.496   9.022   3.778  0.2384 -0.3106  0.1437
 1013MOL0     C36665   2.556   7.862   3.382  0.9737 -1.1736  0.8284
 1013MOL0     C36666   2.638   7.751   3.367  0.6306 -0.5499 -0.0336
 1013MOL0     O36667   2.661   7.511   3.225 -0.1150 -0.8684  0.0663
 1013MOL0     C36668   3.008   7.459   3.281 -0.1627  0.6794 -0.1171
 1013MOL0     C36669   3.105   7.358   3.282 -0.5071  0.4552  0.2206
 1013MOL0     N36670   3.726   7.157   3.560 -0.6429 -0.2216 -0.0248
 1013MOL0     N36671   3.850   7.163   3.518 -0.2690 -0.8892 -0.4322
 1013MOL0     C36672   4.557   7.104   2.460 -0.1713 -0.1241  0.5772
 1013MOL0     C36673   4.626   7.175   2.367  0.5552  0.3388  0.3249
 1013MOL0     C36674   4.921   7.408   2.140 -0.2183  0.5641  0.0332
 1013MOL0     C36675   4.972   7.529   2.196  0.1382 -0.6722 -0.2754
 1013MOL0     C36676   5.045   7.623   2.119  0.5779 -0.2717  0.0652
 1013MOL0     C36677   5.051   7.600   1.982 -0.8457 -0.0445 -0.0328
 1013MOL0     O36678   5.122   7.692   1.911  0.7413 -0.2496 -0.7419
 1013MOL0     C36679   5.093   7.745   1.775  0.1574 -0.2909  0.3171
 1013MOL0     C36680   5.164   7.888   1.751 -0.4731  0.2624  0.6886
 1013MOL0     C36681   5.315   7.874   1.774 -0.4918  0.1811 -0.3997
 1013MOL0     C36682   5.394   8.005   1.781 -0.9486  0.3759  0.5322
 1013MOL0     C36683   5.370   8.069   1.906  0.2047  0.9185  0.2936
 1013MOL0     C36684   5.375   8.120   2.014 -0.7144  0.5447  0.5704
 1013MOL0     C36685   4.987   7.485   1.918  0.4104  0.0172 -0.6034
 1013MOL0     C36686   4.934   7.385   2.001 -0.1347  0.4058  0.7243
 1013MOL0     C36687   4.876   7.252   1.935  0.3369  1.3699 -0.4617
 1013MOL0     H36688   4.725   7.433   2.569  1.3404 -0.9727  3.2144
 1013MOL0     H36689   4.650   7.284   2.739  2.9312 -1.5874 -0.4502
 1013MOL0     H36690   4.628   7.012   2.812 -0.5827  1.1450 -1.3448
 1013MOL0     H36691   4.518   7.132   2.872  0.7175 -0.4406  1.2629
 1013MOL0     H36692   4.522   6.864   2.932 -1.8511 -2.2465  0.8831
 1013MOL0     H36693   4.423   6.845   2.787  0.8598 -0.3464 -0.1576
 1013MOL0     H36694   4.233   6.958   2.887  1.4654 -2.5846 -2.5719
 1013MOL0     H36695   4.329   7.029   3.015 -0.1443  1.2693 -2.0243
 1013MOL0     H36696   4.284   6.726   2.989 -0.6240 -1.0111  1.2784
 1013MOL0     H36697   4.377   6.801   3.122 -2.0039 -1.2692  0.9284
 1013MOL0     H36698   4.095   6.824   3.054 -1.8024 -0.0432  1.7461
 1013MOL0     H36699   4.152   6.775   3.216 -4.6015  1.8702  0.6554
 1013MOL0     H36700   4.242   7.012   3.232  0.6646 -0.0422 -0.4371
 1013MOL0     H36701   4.124   7.057   3.116 -1.4930  0.9671  1.0396
 1013MOL0     H36702   4.074   6.928   3.385  1.0543 -1.4273 -0.0392
 1013MOL0     H36703   3.964   6.908   3.236  1.4706  0.1240 -1.5267
 1013MOL0     H36704   4.040   7.164   3.371 -0.4479  1.0830 -0.9967
 1013MOL0     H36705   3.938   7.149   3.216  2.9988  0.1429 -0.7013
 1013MOL0     H36706   3.719   6.966   3.288  0.5845 -0.5041 -0.1128
 1013MOL0     H36707   3.517   6.927   3.401  2.7668  0.2906 -1.7567
 1013MOL0     H36708   3.494   6.995   3.561 -0.0923 -0.5840 -1.7553
 1013MOL0     H36709   3.317   7.110   3.446  1.9035 -2.1876  1.6731
 1013MOL0     H36710   3.467   7.210   3.404  2.1555 -1.3268 -0.2282
 1013MOL0     H36711   3.372   7.000   3.224  2.2165 -0.4997  0.4277
 1013MOL0     H36712   3.505   7.113   3.216  1.5884 -1.2418  1.8371
 1013MOL0     H36713   3.300   7.159   3.063 -0.2332 -0.0600  0.4632
 1013MOL0     H36714   3.328   7.294   3.183  1.0893 -0.8778  1.1965
 1013MOL0     H36715   2.936   7.103   3.145 -1.5623 -0.5555  1.8938
 1013MOL0     H36716   2.753   7.265   3.148 -0.5557 -0.2696  2.1675
 1013MOL0     H36717   2.889   7.916   3.205  0.2927  4.0839  1.5378
 1013MOL0     H36718   2.732   8.098   3.219 -0.6334  0.3341  1.0515
 1013MOL0     H36719   2.333   8.027   3.320  1.9800 -0.1145 -0.2355
 1013MOL0     H36720   2.366   8.047   3.501  2.8070  1.0887  1.4022
 1013MOL0     H36721   2.318   8.260   3.308 -0.8937 -0.7831 -1.0630
 1013MOL0     H36722   2.213   8.196   3.442 -0.0164  0.3871  1.6034
 1013MOL0     H36723   2.341   8.277   3.613 -0.3661  1.5669 -0.4041
 1013MOL0     H36724   2.475   8.322   3.518  0.6284 -1.7822  1.6096
 1013MOL0     H36725   2.206   8.461   3.521 -0.1101  0.8854  0.3606
 1013MOL0     H36726   2.316   8.484   3.390 -1.4361 -1.9182  0.0671
 1013MOL0     H36727   2.495   8.578   3.530  1.3481  1.5615  1.5932
 1013MOL0     H36728   2.395   8.526   3.671 -3.5916  1.8040  0.0579
 1013MOL0     H36729   2.283   8.709   3.463 -0.2948 -2.8445  0.1997
 1013MOL0     H36730   2.232   8.707   3.633  0.6867  1.4903  1.5329
 1013MOL0     H36731   2.380   8.914   3.554  2.5683 -0.5759 -1.0244
 1013MOL0     H36732   2.513   8.796   3.556  1.0822 -0.4791  1.1682
 1013MOL0     H36733   2.318   8.879   3.792  0.6270 -1.1460  0.5785
 1013MOL0     H36734   2.467   8.786   3.812 -1.8964 -1.8617 -1.4076
 1013MOL0     H36735   2.464   7.836   3.434  0.9289 -0.9422  0.8702
 1013MOL0     H36736   2.619   7.653   3.410  0.9949 -1.2794 -1.4893
 1013MOL0     H36737   3.039   7.555   3.319  1.1946  0.7769 -1.4086
 1013MOL0     H36738   3.205   7.382   3.318  0.0135 -1.2542  0.0179
 1013MOL0     H36739   4.500   7.022   2.418  2.4271 -1.9014  0.3071
 1013MOL0     H36740   4.622   7.140   2.264 -0.0795  0.0220  0.4528
 1013MOL0     H36741   4.950   7.560   2.298  1.7931  0.6442 -0.2769
 1013MOL0     H36742   5.078   7.719   2.158 -1.2409  0.9529 -1.3006
 1013MOL0     H36743   4.984   7.754   1.767 -0.0230 -0.9788  1.5892
 1013MOL0     H36744   5.125   7.667   1.705  1.7064  0.3584  0.2612
 1013MOL0     H36745   5.111   7.950   1.824 -1.8516 -3.2283  2.8952
 1013MOL0     H36746   5.145   7.922   1.649  3.0867  1.6869  0.3668
 1013MOL0     H36747   5.353   7.801   1.702  0.4286  0.3608 -0.1016
 1013MOL0     H36748   5.317   7.830   1.874 -3.9226  0.0792 -0.2309
 1013MOL0     H36749   5.498   7.974   1.770 -0.1542  3.0953 -0.3932
 1013MOL0     H36750   5.372   8.076   1.701 -1.2383 -0.5537 -0.2376
 1013MOL0     H36751   5.412   8.170   2.101  1.4326 -0.8430  0.5544
 1013MOL0     H36752   5.010   7.488   1.812  1.4832 -0.8014 -0.4146
 1013MOL0     H36753   4.776   7.234   1.976  0.8061 -0.8756 -0.1502
 1013MOL0     H36754   4.868   7.258   1.826  0.9856  1.4672 -0.5067
 1013MOL0     H36755   4.941   7.170   1.967 -0.1416  0.2396 -2.2303
 1014MOL0     O36756   1.924  10.196  10.261  0.6004 -0.9909 -0.0262
 1014MOL0     C36757   1.969  10.082  10.286  0.8593 -0.2448 -0.3815
 1014MOL0     O36758   2.088  10.066  10.334 -0.0500  0.0021 -0.3589
 1014MOL0     C36759   2.174  10.169  10.298 -0.7485 -0.1409 -0.7760
 1014MOL0     C36760   2.188  10.222  10.171  0.0715  0.4403  0.3544
 1014MOL0     C36761   2.281  10.316  10.140  0.6947 -0.1533 -0.5611
 1014MOL0     C36762   2.372  10.355  10.235  0.0556  0.2045 -0.2039
 1014MOL0     O36763   2.479  10.437  10.211  0.3301 -0.4341 -0.1579
 1014MOL0     C36764   2.568  10.397  10.112 -0.1624  0.6409 -0.5542
 1014MOL0     C36765   2.660  10.511  10.075  0.7760 -0.2262  0.9036
 1014MOL0     C36766   2.573  10.629  10.025  0.3087  0.0133  0.1581
 1014MOL0     C36767   2.643  10.698   9.896  0.9607 -0.1336  0.1113
 1014MOL0     C36768   2.572  10.824   9.855  1.0901 -0.5653  0.0246
 1014MOL0     C36769   2.629  10.900   9.732  0.2835 -0.3084  0.3952
 1014MOL0     C36770   2.598  11.055   9.729  0.0818  0.3608  0.5691
 1014MOL0     C36771   2.657  11.124   9.608 -0.7479  1.0545 -0.1839
 1014MOL0     N36772   2.783  11.189   9.636 -0.6905  0.5585 -0.0715
 1014MOL0     C36773   2.902  11.122   9.620 -0.0020  0.0927  0.8092
 1014MOL0     C36774   2.998  11.218   9.643  0.2226 -0.0126 -0.3492
 1014MOL0     C36775   3.147  11.194   9.655 -0.0769 -0.3895 -1.0479
 1014MOL0     C36776   3.219  11.184   9.519  0.1400  0.1001 -0.2342
 1014MOL0     C36777   3.371  11.175   9.524 -0.6155 -0.6596  0.3257
 1014MOL0     C36778   3.437  11.293   9.592 -0.0016  0.6174 -0.0298
 1014MOL0     O36779   3.574  11.291   9.553 -0.4403 -0.6654 -0.7816
 1014MOL0     C36780   3.665  11.360   9.627 -0.3040 -0.3466  0.4828
 1014MOL0     C36781   3.798  11.308   9.649 -0.5070 -0.3510 -0.9625
 1014MOL0     C36782   3.886  11.361   9.737  0.5931 -1.0801 -0.4006
 1014MOL0     C36783   3.847  11.484   9.797 -0.4438  1.0688  0.3950
 1014MOL0     C36784   3.948  11.553   9.873 -0.2197  0.0354  0.5576
 1014MOL0     O36785   4.080  11.541   9.827  0.6395  0.1988 -0.3207
 1014MOL0     C36786   4.183  11.582   9.908 -0.7217 -0.0662  0.4281
 1014MOL0     C36787   4.213  11.721   9.917 -0.0783 -0.4219  0.2097
 1014MOL0     C36788   4.329  11.772   9.987  0.5913  0.7066  0.2971
 1014MOL0     C36789   4.412  11.675  10.050 -0.1492 -0.1690  0.0621
 1014MOL0     O36790   4.510  11.703  10.142  0.6148 -0.5705  0.2357
 1014MOL0     C36791   4.509  11.829  10.201 -0.6029 -0.0192  0.2406
 1014MOL0     C36792   4.609  11.845  10.318  0.3246  0.0450 -0.6517
 1014MOL0     C36793   4.754  11.822  10.254 -0.1741  0.6015  0.5236
 1014MOL0     C36794   4.852  11.829  10.369 -0.6624 -0.6240  0.2549
 1014MOL0     C36795   4.991  11.834  10.298 -0.7190 -0.4080 -1.2533
 1014MOL0     C36796   5.108  11.837  10.401 -0.3452  0.1874 -0.2424
 1014MOL0     C36797   5.244  11.859  10.334 -0.0093  0.1123  0.7158
 1014MOL0     C36798   5.270  12.013  10.328 -0.0049 -0.4595 -0.4683
 1014MOL0    Cl36799   5.432  12.044  10.245  0.5764 -0.2663 -0.4985
 1014MOL0     C36800   4.377  11.534  10.042  0.1580  0.2056  0.3067
 1014MOL0     C36801   4.257  11.496   9.983 -0.0968 -0.7023 -0.2273
 1014MOL0     O36802   3.920  11.591   9.988  0.4632  0.2826  0.1855
 1014MOL0     C36803   3.732  11.542   9.772  0.1618  0.1859 -0.0574
 1014MOL0     C36804   3.637  11.481   9.689  0.0910 -0.3546  1.5238
 1014MOL0     N36805   2.928  11.342   9.647  0.9019  0.3074 -0.2522
 1014MOL0     N36806   2.796  11.321   9.655 -0.6504 -0.4069 -0.1213
 1014MOL0     C36807   2.371  10.301  10.359 -0.0490 -0.1148 -0.0055
 1014MOL0     C36808   2.268  10.209  10.393 -0.4465 -0.1226 -0.0907
 1014MOL0     C36809   1.906   9.952  10.253 -0.1489 -0.0191 -0.9883
 1014MOL0     C36810   1.974   9.830  10.240 -0.8621  0.3289  0.3177
 1014MOL0     C36811   1.923   9.706  10.206 -0.2555 -0.0270 -0.6041
 1014MOL0     C36812   1.786   9.703  10.189 -0.2200 -0.3702  0.5804
 1014MOL0     O36813   1.715   9.599  10.131  0.4446 -0.6318 -0.2615
 1014MOL0     C36814   1.707   9.612   9.991 -0.6061 -0.1651  0.9622
 1014MOL0     C36815   1.783   9.495   9.934 -0.0707  0.6413 -0.0418
 1014MOL0     C36816   1.777   9.494   9.778 -1.2570  0.6483 -0.1274
 1014MOL0     C36817   1.927   9.518   9.717  1.3961 -0.3998 -0.4736
 1014MOL0     C36818   1.974   9.653   9.741 -0.5482 -0.0996 -0.2487
 1014MOL0     C36819   2.026   9.768   9.756  0.2720  0.1520  0.1793
 1014MOL0     C36820   1.712   9.825  10.200 -0.6367 -0.5113  0.0346
 1014MOL0     C36821   1.766   9.946  10.235 -0.0277 -0.3401  0.0217
 1014MOL0     C36822   1.667  10.053  10.248 -0.3971  0.6596 -0.6111
 1014MOL0     H36823   2.131  10.185  10.087  3.4169 -2.1363 -0.9898
 1014MOL0     H36824   2.282  10.364  10.043 -1.2004  2.9282  0.8057
 1014MOL0     H36825   2.617  10.306  10.145 -1.2333  0.8605  1.8507
 1014MOL0     H36826   2.509  10.366  10.025 -1.7243 -1.7418  1.2294
 1014MOL0     H36827   2.727  10.478   9.996 -0.2351  0.5913 -0.3349
 1014MOL0     H36828   2.719  10.543  10.162 -2.6721  0.2490  3.2750
 1014MOL0     H36829   2.557  10.707  10.100 -2.9303  1.0774 -1.4408
 1014MOL0     H36830   2.468  10.601  10.008  0.0924  0.7935  0.1518
 1014MOL0     H36831   2.751  10.713   9.908  1.4520 -2.7203 -0.4901
 1014MOL0     H36832   2.625  10.631   9.811  2.2501  0.1153 -0.3852
 1014MOL0     H36833   2.465  10.804   9.848  0.2721  1.7356  3.3446
 1014MOL0     H36834   2.593  10.893   9.938 -0.1637  0.6376 -0.6226
 1014MOL0     H36835   2.734  10.868   9.729 -0.5826 -3.4901 -0.5943
 1014MOL0     H36836   2.592  10.864   9.635  1.7070 -0.9879  0.0643
 1014MOL0     H36837   2.616  11.104   9.825  1.3090 -0.0881  0.5838
 1014MOL0     H36838   2.490  11.062   9.711  0.4698  3.1463 -1.3499
 1014MOL0     H36839   2.669  11.054   9.525  2.5679  0.3709  0.7242
 1014MOL0     H36840   2.588  11.203   9.578  0.6404  3.7257  3.0759
 1014MOL0     H36841   2.910  11.015   9.610 -5.0663 -0.3539 -1.1848
 1014MOL0     H36842   3.187  11.271   9.721  1.0848 -1.6775 -0.1926
 1014MOL0     H36843   3.154  11.104   9.718 -0.9782  0.9092  1.0226
 1014MOL0     H36844   3.185  11.096   9.464  0.8112 -1.0137  1.0655
 1014MOL0     H36845   3.191  11.270   9.458 -4.4996 -1.5649 -0.8608
 1014MOL0     H36846   3.411  11.177   9.422  0.3928  1.3671  0.7175
 1014MOL0     H36847   3.392  11.080   9.575  1.3589 -0.0742  0.6769
 1014MOL0     H36848   3.420  11.285   9.700 -0.4788 -1.0684 -0.2055
 1014MOL0     H36849   3.393  11.386   9.556 -1.6586  0.4242  1.3663
 1014MOL0     H36850   3.825  11.215   9.600 -2.7404  0.0024 -3.0997
 1014MOL0     H36851   3.974  11.301   9.755 -0.2726 -2.1283  0.4448
 1014MOL0     H36852   4.145  11.780   9.856 -0.2639  1.2142  1.9343
 1014MOL0     H36853   4.338  11.879   9.998 -0.3219  0.7125  1.0499
 1014MOL0     H36854   4.537  11.907  10.129  2.0441  0.5197  1.7048
 1014MOL0     H36855   4.414  11.849  10.251  0.6501  2.2584  1.9433
 1014MOL0     H36856   4.596  11.943  10.365 -4.2511  0.2294 -1.7550
 1014MOL0     H36857   4.576  11.776  10.396 -1.0153 -0.2577 -1.4379
 1014MOL0     H36858   4.765  11.730  10.197 -1.6908  0.3274  0.6286
 1014MOL0     H36859   4.773  11.911  10.193  0.1982 -0.6098 -1.2003
 1014MOL0     H36860   4.834  11.743  10.434 -1.7252 -2.0831 -1.8707
 1014MOL0     H36861   4.824  11.916  10.429  0.7354  0.7580 -1.0093
 1014MOL0     H36862   4.998  11.927  10.240  2.0064  0.7365  0.6958
 1014MOL0     H36863   5.001  11.744  10.237  0.1016  0.6519 -2.7852
 1014MOL0     H36864   5.087  11.906  10.483 -1.1310 -2.7163  2.1599
 1014MOL0     H36865   5.110  11.737  10.446  1.6669  0.8215  1.1983
 1014MOL0     H36866   5.265  11.823  10.233  2.6991 -0.4135  1.3752
 1014MOL0     H36867   5.323  11.814  10.394 -0.4843  0.9440  2.0045
 1014MOL0     H36868   5.206  12.077  10.265  0.1121  0.4205  0.2964
 1014MOL0     H36869   5.281  12.049  10.430  1.6765 -1.8582 -0.1130
 1014MOL0     H36870   4.439  11.462  10.095  0.9166  0.4579 -0.2293
 1014MOL0     H36871   4.220  11.394   9.985 -0.9923 -0.4903 -2.4708
 1014MOL0     H36872   3.702  11.641   9.805 -0.6378  1.9955 -5.2168
 1014MOL0     H36873   3.541  11.527   9.668 -0.0662 -1.3819 -0.1899
 1014MOL0     H36874   2.448  10.337  10.427  1.0823  1.9185 -2.2124
 1014MOL0     H36875   2.281  10.192  10.500  0.6274  1.1072  0.0091
 1014MOL0     H36876   2.080   9.835  10.261 -1.0833  0.4570  1.4325
 1014MOL0     H36877   1.981   9.615  10.192 -1.1902 -0.4008 -2.2684
 1014MOL0     H36878   1.762   9.702   9.962 -1.8157  0.8567  1.7566
 1014MOL0     H36879   1.602   9.621   9.964 -0.6991  1.0854  1.6841
 1014MOL0     H36880   1.746   9.400   9.974  1.3049 -0.4529 -1.2171
 1014MOL0     H36881   1.889   9.511   9.958 -0.4682  2.0656  0.8680
 1014MOL0     H36882   1.707   9.571   9.747 -0.1878  0.7911 -2.3577
 1014MOL0     H36883   1.747   9.403   9.726  0.0680  2.7184 -5.0494
 1014MOL0     H36884   1.997   9.454   9.771  2.5735  1.4165  0.2615
 1014MOL0     H36885   1.927   9.501   9.609 -1.5893 -0.4421 -0.5617
 1014MOL0     H36886   2.071   9.865   9.763 -0.0099  0.3340 -0.4384
 1014MOL0     H36887   1.604   9.815  10.205 -0.4896 -1.5537  2.3454
 1014MOL0     H36888   1.704  10.139  10.190  1.4541 -0.0639 -0.5672
 1014MOL0     H36889   1.571  10.033  10.201  0.4194  1.4468 -2.7281
 1014MOL0     H36890   1.668  10.084  10.353  0.7098  3.3766 -1.3145
 1015MOL0     O36891  11.206  11.393   7.584 -0.1468  0.5647  0.5769
 1015MOL0     C36892  11.117  11.446   7.513  0.0381 -0.6246 -0.2096
 1015MOL0     O36893  11.070  11.578   7.532 -0.1256  0.6001 -0.5010
 1015MOL0     C36894  11.132  11.652   7.631  0.2869  0.8322  0.1182
 1015MOL0     C36895  11.042  11.712   7.728  0.5159  0.6030  1.1789
 1015MOL0     C36896  11.097  11.799   7.824  0.3775  0.5363  0.7922
 1015MOL0     C36897  11.235  11.823   7.824 -0.7144  0.1610 -0.1989
 1015MOL0     O36898  11.285  11.899   7.920 -0.1704  0.2755  0.8530
 1015MOL0     C36899  11.235  12.030   7.929 -0.0522  0.5487  0.3856
 1015MOL0     C36900  11.317  12.105   8.026 -0.4056 -0.6075 -0.5837
 1015MOL0     C36901  11.457  12.155   7.966  0.4764  0.2383  0.0220
 1015MOL0     C36902  11.539  12.248   8.065  0.5565  0.4484 -0.0296
 1015MOL0     C36903  11.671  12.299   8.009 -0.1701 -0.4895  0.0294
 1015MOL0     C36904  11.750  12.360   8.133  0.1977  0.1113 -0.0358
 1015MOL0     C36905  11.888  12.403   8.099 -0.4232 -1.2520  0.7648
 1015MOL0     C36906  11.932  12.516   8.201 -0.3039 -0.7880  0.3771
 1015MOL0     N36907  12.084  12.516   8.223  0.2663  0.0918  0.0291
 1015MOL0     C36908  12.164  12.574   8.132  0.5276  0.9997 -0.0822
 1015MOL0     C36909  12.286  12.560   8.186  0.4397  0.0022 -0.2604
 1015MOL0     C36910  12.418  12.586   8.126  0.1083  0.3367 -0.0287
 1015MOL0     C36911  12.480  12.702   8.198  0.4515  0.2747 -0.2845
 1015MOL0     C36912  12.607  12.764   8.143  0.9623 -0.6310  0.4171
 1015MOL0     C36913  12.659  12.869   8.240  0.0975 -0.1417  0.1843
 1015MOL0     O36914  12.799  12.881   8.213 -0.6464  0.1037  0.0181
 1015MOL0     C36915  12.890  12.849   8.308  0.1986 -0.3578 -0.5737
 1015MOL0     C36916  13.001  12.778   8.273  0.9835  0.2682  0.3868
 1015MOL0     C36917  13.094  12.749   8.376 -0.5368 -0.2966  0.9243
 1015MOL0     C36918  13.088  12.788   8.510 -0.0717  0.4086 -0.3538
 1015MOL0     C36919  13.186  12.756   8.608 -0.5319 -0.1578 -0.0018
 1015MOL0     O36920  13.275  12.661   8.565  0.0454 -0.0848 -0.0155
 1015MOL0     C36921  13.382  12.639   8.634 -0.5969  0.3811 -0.5134
 1015MOL0     C36922  13.509  12.675   8.580  0.1589  0.4062 -0.4671
 1015MOL0     C36923  13.626  12.652   8.654 -0.1536 -1.2008  0.2565
 1015MOL0     C36924  13.628  12.600   8.781 -0.5688  0.3556  0.4451
 1015MOL0     O36925  13.750  12.572   8.836  0.6743  0.5022 -0.2164
 1015MOL0     C36926  13.768  12.503   8.960  0.2637  0.2808 -0.3295
 1015MOL0     C36927  13.913  12.525   9.012  0.1443 -0.0070 -0.4838
 1015MOL0     C36928  13.958  12.668   9.004  0.2212  0.5871 -0.1166
 1015MOL0     C36929  14.093  12.689   9.081 -0.0289  0.5899 -0.3900
 1015MOL0     C36930  14.142  12.836   9.071 -0.3698  1.0707 -0.3840
 1015MOL0     C36931  14.267  12.861   9.167 -0.2762 -0.5442  0.1687
 1015MOL0     C36932  14.301  13.017   9.195  0.6009  0.4113 -0.0997
 1015MOL0     C36933  14.393  13.018   9.316 -0.0017  0.4949 -0.8727
 1015MOL0    Cl36934  14.305  12.995   9.471 -0.1088 -0.4132  0.0634
 1015MOL0     C36935  13.512  12.579   8.837 -0.9227  0.0028 -0.3886
 1015MOL0     C36936  13.391  12.594   8.769  0.2722 -0.2662 -0.2643
 1015MOL0     O36937  13.192  12.823   8.709  0.6610  0.2922  0.1145
 1015MOL0     C36938  12.979  12.867   8.540  0.8979 -1.3139  0.1500
 1015MOL0     C36939  12.881  12.896   8.446 -0.0027  1.1644  1.0431
 1015MOL0     N36940  12.275  12.496   8.308  0.2512  0.5413  1.1548
 1015MOL0     N36941  12.155  12.467   8.335  0.2380 -0.5466 -0.2450
 1015MOL0     C36942  11.323  11.755   7.742 -0.8672 -0.1825  0.5502
 1015MOL0     C36943  11.273  11.672   7.640  0.9911 -0.4214  0.4720
 1015MOL0     C36944  11.058  11.376   7.393 -0.7596  0.4234 -1.3145
 1015MOL0     C36945  10.961  11.439   7.316  0.0832 -0.6967  0.5633
 1015MOL0     C36946  10.891  11.374   7.219 -0.2424  0.1376  0.9193
 1015MOL0     C36947  10.927  11.254   7.173  0.5362 -0.0830 -0.3522
 1015MOL0     O36948  10.847  11.192   7.077 -0.1254 -0.0748 -0.4232
 1015MOL0     C36949  10.888  11.212   6.940  0.4771 -0.0391 -0.3960
 1015MOL0     C36950  10.766  11.177   6.850 -0.6587  0.3400 -0.3768
 1015MOL0     C36951  10.622  11.224   6.896 -0.3975 -0.2806 -0.8256
 1015MOL0     C36952  10.608  11.373   6.888 -1.3519 -0.6990 -0.0394
 1015MOL0     C36953  10.466  11.393   6.880 -0.3033 -0.1928 -0.2443
 1015MOL0     C36954  10.344  11.404   6.876 -0.3961 -0.0890  0.6193
 1015MOL0     C36955  11.037  11.191   7.234  0.3411  0.2059  0.9092
 1015MOL0     C36956  11.105  11.247   7.350  0.5274  0.2528 -0.0212
 1015MOL0     C36957  11.220  11.166   7.405 -0.2872  0.5415 -0.3843
 1015MOL0     H36958  10.938  11.682   7.722  0.6990 -0.3997  2.5749
 1015MOL0     H36959  11.025  11.837   7.896  1.2806  1.9434  0.9883
 1015MOL0     H36960  11.240  12.078   7.831 -1.4542  1.1991  0.6130
 1015MOL0     H36961  11.133  12.030   7.968  0.2885  0.9476  1.2977
 1015MOL0     H36962  11.326  12.048   8.119 -2.4326 -0.5077 -0.2786
 1015MOL0     H36963  11.253  12.188   8.056  0.9874 -0.3294  1.9012
 1015MOL0     H36964  11.442  12.216   7.877 -2.1703  0.6334  0.6394
 1015MOL0     H36965  11.510  12.062   7.943 -0.1258  0.4489 -2.5366
 1015MOL0     H36966  11.479  12.338   8.083  0.2635  0.7488 -2.2305
 1015MOL0     H36967  11.549  12.200   8.163  0.1718  0.0372 -0.1876
 1015MOL0     H36968  11.717  12.222   7.946 -1.7028  0.9398 -3.0742
 1015MOL0     H36969  11.664  12.389   7.948 -0.1990  0.6688  1.6778
 1015MOL0     H36970  11.702  12.450   8.173  2.5393  2.0406 -1.2926
 1015MOL0     H36971  11.753  12.285   8.212  2.5768  0.8371  0.6455
 1015MOL0     H36972  11.889  12.466   8.010 -1.7551  1.1230  2.3436
 1015MOL0     H36973  11.963  12.324   8.111  3.0700  1.4186 -1.4556
 1015MOL0     H36974  11.897  12.616   8.174  0.1448 -0.5392  0.7107
 1015MOL0     H36975  11.887  12.486   8.296 -2.3437 -0.6415 -0.4796
 1015MOL0     H36976  12.137  12.626   8.041  1.6042 -2.2548 -2.4799
 1015MOL0     H36977  12.486  12.501   8.138  2.4938  1.9902 -0.9561
 1015MOL0     H36978  12.415  12.612   8.020  4.1875 -0.4490 -0.5147
 1015MOL0     H36979  12.409  12.785   8.206 -0.4395 -0.6131  2.5468
 1015MOL0     H36980  12.507  12.664   8.297  0.8263 -0.9796 -0.8562
 1015MOL0     H36981  12.588  12.807   8.044 -1.1854 -1.1813  0.5444
 1015MOL0     H36982  12.683  12.685   8.145  2.3726  0.6701 -0.0369
 1015MOL0     H36983  12.650  12.827   8.341 -0.0376 -0.4055  0.0661
 1015MOL0     H36984  12.614  12.967   8.223 -1.4896 -0.8880 -0.1596
 1015MOL0     H36985  13.028  12.744   8.174  1.4410  0.1936  0.5346
 1015MOL0     H36986  13.169  12.680   8.339 -1.6423 -0.8836 -0.3129
 1015MOL0     H36987  13.521  12.710   8.478 -2.3496  2.5283 -0.1669
 1015MOL0     H36988  13.720  12.694   8.619  0.3105  0.0233  2.6810
 1015MOL0     H36989  13.693  12.547   9.026 -0.8920 -2.1135  0.0308
 1015MOL0     H36990  13.747  12.396   8.953 -3.9732  0.8686  0.6468
 1015MOL0     H36991  13.909  12.485   9.114  3.5962  2.9844  1.0754
 1015MOL0     H36992  13.974  12.460   8.948  1.9944  0.2232  0.9459
 1015MOL0     H36993  13.983  12.705   8.904 -2.2698  4.9483  0.5941
 1015MOL0     H36994  13.876  12.733   9.035 -1.4945 -0.8864 -1.3851
 1015MOL0     H36995  14.169  12.621   9.043  1.8475  0.0058  3.8430
 1015MOL0     H36996  14.071  12.664   9.185 -2.3345 -0.4938 -1.0529
 1015MOL0     H36997  14.058  12.894   9.110  0.6754  2.1834  0.2646
 1015MOL0     H36998  14.172  12.862   8.969  0.5119 -0.3095 -0.4986
 1015MOL0     H36999  14.244  12.813   9.263  1.1319  1.1093  1.3829
 1015MOL0     H37000  14.360  12.821   9.125  1.1175  0.7716  1.8797
 1015MOL0     H37001  14.210  13.073   9.219  0.4284 -0.1090  0.5091
 1015MOL0     H37002  14.349  13.058   9.106 -3.4327 -0.5910 -2.9888
 1015MOL0     H37003  14.468  12.938   9.315 -1.8512 -1.3707 -2.7586
 1015MOL0     H37004  14.444  13.113   9.299 -0.8568  0.6507 -3.0296
 1015MOL0     H37005  13.519  12.546   8.940 -0.3765 -0.5381 -0.5902
 1015MOL0     H37006  13.302  12.588   8.830 -0.5685 -0.3635 -1.4738
 1015MOL0     H37007  12.976  12.917   8.636 -0.3417 -1.0353 -0.0163
 1015MOL0     H37008  12.801  12.964   8.474  0.0159  0.9971  1.5049
 1015MOL0     H37009  11.430  11.756   7.758 -0.8200 -1.1473  0.3662
 1015MOL0     H37010  11.328  11.633   7.555 -0.2360 -1.3163  0.0728
 1015MOL0     H37011  10.921  11.536   7.342 -1.0609 -0.4190 -1.9750
 1015MOL0     H37012  10.802  11.420   7.175  0.9112 -0.3751 -2.1622
 1015MOL0     H37013  10.974  11.150   6.913 -0.1222 -1.1225  0.1290
 1015MOL0     H37014  10.922  11.315   6.923  2.1523 -0.6929 -1.1424
 1015MOL0     H37015  10.766  11.067   6.850  2.2767  0.2602 -1.4770
 1015MOL0     H37016  10.786  11.206   6.747 -4.4516 -1.0357 -1.6549
 1015MOL0     H37017  10.602  11.193   6.999  1.6334  0.7093 -0.0902
 1015MOL0     H37018  10.548  11.176   6.831  2.3889 -1.1675 -3.6061
 1015MOL0     H37019  10.645  11.415   6.982  2.8995  0.3706 -1.9271
 1015MOL0     H37020  10.662  11.419   6.804 -1.5762 -0.7231 -0.1956
 1015MOL0     H37021  10.239  11.402   6.859 -0.1538 -3.6435 -1.2377
 1015MOL0     H37022  11.064  11.092   7.198  0.4630 -0.6513  3.1898
 1015MOL0     H37023  11.198  11.112   7.498  1.7422  0.4095  0.0713
 1015MOL0     H37024  11.263  11.093   7.336 -1.7096  0.5195 -1.2749
 1015MOL0     H37025  11.304  11.231   7.432  1.8384 -1.7622 -1.0549
 1016MOL0     O37026  10.639   5.913   8.885 -0.3105 -0.2165  0.4421
 1016MOL0     C37027  10.678   5.981   8.788 -0.4490 -0.4478  0.3314
 1016MOL0     O37028  10.621   6.000   8.669 -0.0240  0.3795  0.5565
 1016MOL0     C37029  10.486   5.990   8.645 -0.3285  0.4548 -0.4736
 1016MOL0     C37030  10.448   6.017   8.509  0.3386  0.3170 -0.4318
 1016MOL0     C37031  10.318   6.012   8.460 -0.4437 -0.3339  0.3600
 1016MOL0     C37032  10.217   5.987   8.547  0.5116 -0.5408  0.3158
 1016MOL0     O37033  10.087   5.995   8.505 -0.3925  0.6315  0.5447
 1016MOL0     C37034  10.043   5.876   8.452  0.2544 -0.0183  0.6486
 1016MOL0     C37035   9.935   5.894   8.351  0.9112  0.0598 -0.2395
 1016MOL0     C37036   9.820   5.971   8.422 -0.3222  0.5377  0.5533
 1016MOL0     C37037   9.701   5.932   8.332  0.6047  0.1058  0.4760
 1016MOL0     C37038   9.562   5.999   8.357  0.6538  0.4614  0.2310
 1016MOL0     C37039   9.559   6.143   8.318 -0.6058 -0.9560 -0.0171
 1016MOL0     C37040   9.427   6.199   8.274 -0.2525 -0.5023 -0.5732
 1016MOL0     C37041   9.319   6.189   8.385 -0.4970  0.1548  1.0775
 1016MOL0     N37042   9.195   6.216   8.313  0.4356  0.5265  0.4520
 1016MOL0     C37043   9.114   6.319   8.335  0.8045  0.0171 -0.1667
 1016MOL0     C37044   9.014   6.315   8.249  0.8574 -0.6754  0.2034
 1016MOL0     C37045   8.898   6.408   8.241  0.2819  0.5695  0.4258
 1016MOL0     C37046   8.935   6.549   8.300 -0.1176  0.7669 -0.0119
 1016MOL0     C37047   9.041   6.602   8.208  0.3959 -0.8807 -0.3407
 1016MOL0     C37048   9.101   6.738   8.264  0.9205 -0.3659  0.1969
 1016MOL0     O37049   9.184   6.706   8.373  0.4975  0.7395 -0.4585
 1016MOL0     C37050   9.313   6.670   8.355  0.2536  0.1742 -0.4589
 1016MOL0     C37051   9.389   6.622   8.462 -0.4096  0.9155  0.0140
 1016MOL0     C37052   9.525   6.590   8.455 -0.1505 -0.6942 -0.6488
 1016MOL0     C37053   9.594   6.613   8.337  1.6440 -0.8194 -0.1918
 1016MOL0     C37054   9.728   6.577   8.313  0.6783  0.0542 -0.9941
 1016MOL0     O37055   9.796   6.607   8.200  0.1723 -0.5438  0.3970
 1016MOL0     C37056   9.919   6.543   8.175  0.4129  0.2990 -0.6573
 1016MOL0     C37057   9.934   6.400   8.171 -0.5614  0.2796  0.8008
 1016MOL0     C37058  10.062   6.346   8.146 -1.1611 -0.2423  0.7641
 1016MOL0     C37059  10.161   6.429   8.091 -0.2266 -0.1531  0.3918
 1016MOL0     O37060  10.282   6.360   8.070 -0.0053 -0.4468  0.3292
 1016MOL0     C37061  10.359   6.437   7.972  0.0510 -0.1540 -0.6693
 1016MOL0     C37062  10.451   6.340   7.898 -0.2965  0.2842 -0.4662
 1016MOL0     C37063  10.536   6.261   7.997 -1.0064  0.4289 -0.5916
 1016MOL0     C37064  10.634   6.343   8.091  0.0361 -0.8202 -0.3734
 1016MOL0     C37065  10.712   6.251   8.190  0.2206  0.9614  0.6371
 1016MOL0     C37066  10.841   6.304   8.249 -0.2006  0.6227  0.4424
 1016MOL0     C37067  10.906   6.219   8.369 -0.3638 -0.2903 -0.5980
 1016MOL0     C37068  11.003   6.305   8.462  0.2307 -0.0004 -0.1737
 1016MOL0    Cl37069  11.108   6.400   8.354 -0.2648  0.1087 -0.3069
 1016MOL0     C37070  10.137   6.570   8.067 -0.2232  0.3032 -0.0271
 1016MOL0     C37071  10.016   6.623   8.112  0.1488 -0.3102 -0.5888
 1016MOL0     O37072   9.775   6.514   8.402 -0.0644  0.8222  0.4297
 1016MOL0     C37073   9.518   6.653   8.219 -0.0512 -0.9005 -0.2496
 1016MOL0     C37074   9.387   6.682   8.238  0.3645  0.0057 -0.4129
 1016MOL0     N37075   9.033   6.208   8.163  0.2284  0.3003  0.3393
 1016MOL0     N37076   9.144   6.154   8.201 -0.7343  0.9822 -0.6864
 1016MOL0     C37077  10.248   5.954   8.687  0.4446  0.2755  0.1870
 1016MOL0     C37078  10.376   5.956   8.735 -0.3214 -0.0107  0.4109
 1016MOL0     C37079  10.779   6.077   8.822 -0.7954  0.3410  0.3010
 1016MOL0     C37080  10.763   6.208   8.776 -0.3735 -0.1715 -0.5919
 1016MOL0     C37081  10.862   6.308   8.798  0.6297 -0.5936 -0.7953
 1016MOL0     C37082  10.983   6.278   8.869 -0.2644  0.2562  0.3520
 1016MOL0     O37083  11.078   6.367   8.909  0.3330  0.7699  0.1922
 1016MOL0     C37084  11.097   6.500   8.849 -0.2830  0.9637  1.2140
 1016MOL0     C37085  11.148   6.605   8.951 -0.9469  0.2557  0.5933
 1016MOL0     C37086  11.041   6.646   9.063 -0.1726  0.0497  0.6827
 1016MOL0     C37087  11.092   6.744   9.163 -0.0735 -0.1788 -0.7495
 1016MOL0     C37088  11.036   6.719   9.298  0.0505 -0.0669  0.5320
 1016MOL0     C37089  10.977   6.714   9.407 -0.0733  0.3374 -0.0856
 1016MOL0     C37090  11.003   6.145   8.899 -0.5537  0.0657  0.7359
 1016MOL0     C37091  10.906   6.043   8.876  0.0798  0.0896 -0.1053
 1016MOL0     C37092  10.931   5.909   8.945 -1.0001 -0.4018 -0.7173
 1016MOL0     H37093  10.528   6.041   8.439  1.1505  1.5761  0.8530
 1016MOL0     H37094  10.293   6.042   8.359 -0.6223 -2.4329 -0.2604
 1016MOL0     H37095  10.125   5.818   8.408  1.1589  1.0395  0.8805
 1016MOL0     H37096  10.007   5.816   8.535 -2.5573 -0.9034 -1.0588
 1016MOL0     H37097   9.896   5.799   8.314 -2.8101  1.8963 -1.5557
 1016MOL0     H37098   9.962   5.951   8.262 -3.2008  2.6204 -0.1421
 1016MOL0     H37099   9.841   6.078   8.413  1.9501 -0.0211 -1.7513
 1016MOL0     H37100   9.811   5.940   8.527 -4.2215 -0.7601 -0.0090
 1016MOL0     H37101   9.734   5.936   8.228 -0.7654 -1.9645 -0.0981
 1016MOL0     H37102   9.683   5.827   8.356  0.5393  0.4203  1.8988
 1016MOL0     H37103   9.487   5.942   8.300  0.0008 -0.8254  2.2813
 1016MOL0     H37104   9.532   5.981   8.460  3.0211 -3.9721  0.3856
 1016MOL0     H37105   9.589   6.206   8.403  0.0634  1.3726 -1.8665
 1016MOL0     H37106   9.624   6.169   8.234 -0.8245 -1.5862 -0.3790
 1016MOL0     H37107   9.389   6.155   8.182 -2.0066  1.9527 -1.1356
 1016MOL0     H37108   9.440   6.301   8.236 -1.5652 -0.1330 -0.1076
 1016MOL0     H37109   9.322   6.091   8.434  0.0646 -0.4271 -0.0907
 1016MOL0     H37110   9.347   6.263   8.462  0.0104  0.3291  0.7304
 1016MOL0     H37111   9.131   6.392   8.413  1.3332 -1.1152  0.8177
 1016MOL0     H37112   8.880   6.425   8.134  4.0910  0.5589 -0.3892
 1016MOL0     H37113   8.813   6.361   8.290 -1.2264 -0.3981 -2.8289
 1016MOL0     H37114   8.848   6.613   8.315 -1.0885 -0.8923  2.0297
 1016MOL0     H37115   8.977   6.532   8.399  1.2552 -0.5189 -0.7770
 1016MOL0     H37116   8.990   6.630   8.116  1.2916  0.7590 -0.3812
 1016MOL0     H37117   9.123   6.539   8.174 -0.1882 -0.5761 -2.4953
 1016MOL0     H37118   9.014   6.792   8.302  1.1244  1.0032 -1.1769
 1016MOL0     H37119   9.145   6.804   8.189  0.9400 -0.9764 -0.3385
 1016MOL0     H37120   9.334   6.600   8.552  3.3220 -1.8753  1.8980
 1016MOL0     H37121   9.582   6.550   8.538 -1.0337  0.6449  0.6599
 1016MOL0     H37122   9.853   6.334   8.201 -0.9997 -0.1860 -1.2630
 1016MOL0     H37123  10.092   6.245   8.171 -2.2891 -0.7564  0.0433
 1016MOL0     H37124  10.294   6.477   7.893 -1.7311 -0.4266  0.5844
 1016MOL0     H37125  10.406   6.521   8.024 -1.7342 -0.1456  1.0841
 1016MOL0     H37126  10.395   6.271   7.834 -0.6632 -1.4453  1.6045
 1016MOL0     H37127  10.517   6.389   7.826 -0.0587 -4.0095 -3.5481
 1016MOL0     H37128  10.473   6.210   8.070 -0.9878  0.5778 -0.4706
 1016MOL0     H37129  10.587   6.182   7.942  0.0182  1.9859 -1.9560
 1016MOL0     H37130  10.599   6.429   8.149  1.3162 -1.2524  1.1022
 1016MOL0     H37131  10.711   6.382   8.023  0.2093 -3.2523 -1.6618
 1016MOL0     H37132  10.738   6.156   8.142 -2.4954  1.4732 -2.2010
 1016MOL0     H37133  10.633   6.213   8.255 -1.6818 -0.0814 -2.1010
 1016MOL0     H37134  10.925   6.312   8.178 -0.9784  4.0372 -0.2478
 1016MOL0     H37135  10.813   6.404   8.282 -4.2786  0.0903 -0.8585
 1016MOL0     H37136  10.954   6.135   8.318 -3.8124 -2.1947 -1.0516
 1016MOL0     H37137  10.826   6.182   8.434  0.3136  2.0584  1.7610
 1016MOL0     H37138  10.941   6.365   8.530  0.4190 -2.4804  2.4099
 1016MOL0     H37139  11.068   6.236   8.517  0.9886  0.2622 -0.7319
 1016MOL0     H37140  10.207   6.640   8.022 -0.9249  2.2504  1.7758
 1016MOL0     H37141   9.977   6.723   8.094 -1.1318 -0.0608  2.8010
 1016MOL0     H37142   9.567   6.669   8.123 -2.3461  1.0287 -1.2160
 1016MOL0     H37143   9.340   6.709   8.144 -0.1387 -1.2816 -0.5621
 1016MOL0     H37144  10.164   5.916   8.745 -0.4516 -2.9714 -2.8903
 1016MOL0     H37145  10.400   5.928   8.838  2.6487  1.6059  0.2739
 1016MOL0     H37146  10.669   6.245   8.738  0.0294  1.7696  0.2110
 1016MOL0     H37147  10.843   6.411   8.769 -2.8354 -1.2384 -1.2714
 1016MOL0     H37148  10.998   6.532   8.817 -1.4381 -4.3793 -1.8524
 1016MOL0     H37149  11.167   6.500   8.765 -0.5492  2.1316  0.9879
 1016MOL0     H37150  11.179   6.694   8.895 -0.2071 -1.6228 -2.1686
 1016MOL0     H37151  11.236   6.564   9.000 -0.9947 -0.4686  0.0976
 1016MOL0     H37152  11.000   6.555   9.108  0.3924 -0.1306  0.8460
 1016MOL0     H37153  10.949   6.688   9.023 -2.3630 -2.2139  3.0238
 1016MOL0     H37154  11.199   6.732   9.177  0.2364 -0.1616 -2.7674
 1016MOL0     H37155  11.082   6.850   9.135  0.6387  0.8251  2.4159
 1016MOL0     H37156  10.931   6.723   9.503  0.9223  0.3815  0.4069
 1016MOL0     H37157  11.100   6.118   8.938 -1.1906 -0.8368  1.7524
 1016MOL0     H37158  10.970   5.937   9.043 -1.7049  2.8902 -1.2815
 1016MOL0     H37159  10.841   5.851   8.968 -0.9542  1.1078  4.4946
 1016MOL0     H37160  11.005   5.855   8.885  0.9910  1.9118 -0.5099
 1017MOL0     O37161   2.015   0.657   4.327 -0.0507 -0.0043 -0.8951
 1017MOL0     C37162   1.995   0.556   4.394 -0.1742 -0.5345  0.2444
 1017MOL0     O37163   1.860   0.515   4.432 -0.4609 -0.0861  0.4593
 1017MOL0     C37164   1.756   0.576   4.367  0.2389 -0.0049  0.1041
 1017MOL0     C37165   1.735   0.543   4.238 -0.1349 -0.2309  0.8191
 1017MOL0     C37166   1.637   0.612   4.153  0.3373  0.2308 -0.7283
 1017MOL0     C37167   1.554   0.709   4.209 -0.4885 -0.1981 -0.0833
 1017MOL0     O37168   1.470   0.776   4.132  1.0300 -0.9001 -0.1623
 1017MOL0     C37169   1.505   0.796   3.999 -0.2816  0.4664  0.2281
 1017MOL0     C37170   1.423   0.910   3.949  0.4077  0.0234 -0.2124
 1017MOL0     C37171   1.425   0.925   3.804  0.7386 -1.0773  0.0595
 1017MOL0     C37172   1.562   0.950   3.745  0.7255 -0.0686 -1.0335
 1017MOL0     C37173   1.639   1.068   3.820 -0.4901  0.2931 -0.0845
 1017MOL0     C37174   1.775   1.100   3.745  0.0839  0.1247 -1.0253
 1017MOL0     C37175   1.841   1.225   3.790 -0.1441 -0.2793 -0.2321
 1017MOL0     C37176   1.886   1.241   3.940  0.2515 -0.1541 -0.8821
 1017MOL0     N37177   2.001   1.160   3.981 -0.2216  0.0873 -0.4341
 1017MOL0     C37178   2.132   1.201   3.976 -0.3476 -1.5910 -0.0609
 1017MOL0     C37179   2.200   1.092   3.987  1.1927  0.9270  0.5296
 1017MOL0     C37180   2.348   1.078   3.990 -0.1048 -0.1332 -0.5166
 1017MOL0     C37181   2.401   1.093   4.137 -0.3558  0.6367 -0.1815
 1017MOL0     C37182   2.553   1.079   4.145  0.3469  0.1498 -0.0182
 1017MOL0     C37183   2.615   1.080   4.291 -0.4468 -0.3927 -0.4746
 1017MOL0     O37184   2.753   1.040   4.288  0.6446 -0.0810  0.3608
 1017MOL0     C37185   2.853   1.129   4.242 -0.6654 -0.0780 -0.5766
 1017MOL0     C37186   2.838   1.260   4.226  0.2917  0.7622 -0.4384
 1017MOL0     C37187   2.937   1.339   4.180  0.3394 -0.9598 -0.1952
 1017MOL0     C37188   3.063   1.278   4.159 -0.7933 -0.2069 -0.8972
 1017MOL0     C37189   3.185   1.363   4.130  0.0525 -0.5318  0.1070
 1017MOL0     O37190   3.173   1.494   4.149 -0.3813  0.2878  0.2109
 1017MOL0     C37191   3.268   1.589   4.135  0.0346  0.1554  0.0397
 1017MOL0     C37192   3.269   1.701   4.217  0.2264 -0.0922  0.4449
 1017MOL0     C37193   3.364   1.799   4.198 -0.6796  0.4155 -0.1938
 1017MOL0     C37194   3.467   1.783   4.099 -0.9132 -0.7874  0.4690
 1017MOL0     O37195   3.578   1.872   4.080 -0.4622 -0.9950  0.1055
 1017MOL0     C37196   3.679   1.867   4.180 -1.2909  1.1465 -0.2557
 1017MOL0     C37197   3.729   1.725   4.220  0.3422  1.0031  0.5927
 1017MOL0     C37198   3.812   1.666   4.095  0.2486 -0.8943  0.4309
 1017MOL0     C37199   3.873   1.533   4.133 -1.3784 -0.0191  0.3940
 1017MOL0     C37200   3.968   1.484   4.013  0.4619 -0.3857 -1.3934
 1017MOL0     C37201   4.106   1.550   3.994 -0.0158 -0.7333  1.6248
 1017MOL0     C37202   4.187   1.494   3.878  0.6897 -0.1595  0.2200
 1017MOL0     C37203   4.147   1.549   3.739 -0.0393 -0.5593  0.3326
 1017MOL0    Cl37204   4.229   1.448   3.613 -0.0870 -0.1446 -0.0077
 1017MOL0     C37205   3.461   1.678   4.013  0.1495 -0.1509 -0.6253
 1017MOL0     C37206   3.358   1.590   4.024  0.1623 -0.0134  1.3384
 1017MOL0     O37207   3.282   1.306   4.081 -0.6129 -0.0451 -0.5209
 1017MOL0     C37208   3.077   1.140   4.161  0.0200  0.3470 -0.9288
 1017MOL0     C37209   2.965   1.061   4.197  0.8658 -0.8902 -0.1001
 1017MOL0     N37210   2.117   0.984   4.013 -0.2806  0.2034  0.0436
 1017MOL0     N37211   1.999   1.030   4.030  0.4709  0.0756  0.2793
 1017MOL0     C37212   1.566   0.729   4.350  0.8376 -1.1549  1.4454
 1017MOL0     C37213   1.668   0.661   4.424  1.3195 -0.6772 -0.0520
 1017MOL0     C37214   2.117   0.478   4.440  0.0281 -0.3196  0.4434
 1017MOL0     C37215   2.094   0.354   4.511  0.4460  0.8361  0.0776
 1017MOL0     C37216   2.190   0.276   4.559 -0.2782  0.2495  0.2154
 1017MOL0     C37217   2.326   0.302   4.527 -0.0183 -0.4597  0.1865
 1017MOL0     O37218   2.430   0.230   4.581 -0.0529 -0.4303 -0.0527
 1017MOL0     C37219   2.413   0.153   4.698  1.0427  0.2613 -0.2240
 1017MOL0     C37220   2.555   0.100   4.736 -0.3428  0.1327  0.3119
 1017MOL0     C37221   2.595  -0.017   4.644 -0.2287  0.1849  0.8779
 1017MOL0     C37222   2.708  -0.097   4.704  0.7887  0.8022  0.0235
 1017MOL0     C37223   2.660  -0.192   4.807 -0.2032  0.3835 -0.2437
 1017MOL0     C37224   2.610  -0.262   4.900 -0.3872 -0.3523 -0.0187
 1017MOL0     C37225   2.359   0.410   4.448  0.9336  0.6697  0.0911
 1017MOL0     C37226   2.256   0.499   4.392 -0.2351  0.1357  0.1521
 1017MOL0     C37227   2.294   0.614   4.303 -0.1153  0.1423  0.4332
 1017MOL0     H37228   1.783   0.459   4.189 -0.1392 -0.5029  1.2801
 1017MOL0     H37229   1.632   0.580   4.049  4.1273  1.0482 -1.3284
 1017MOL0     H37230   1.613   0.809   3.994  0.3742 -3.7311 -0.0222
 1017MOL0     H37231   1.471   0.702   3.953 -2.5233 -1.1334  4.6046
 1017MOL0     H37232   1.452   0.997   4.008 -0.4191 -1.7705  3.1014
 1017MOL0     H37233   1.326   0.881   3.993  1.2665 -2.8230 -0.0004
 1017MOL0     H37234   1.359   1.008   3.777  2.3063  0.7213  1.4880
 1017MOL0     H37235   1.373   0.834   3.775 -2.4914 -0.1426  2.3924
 1017MOL0     H37236   1.622   0.861   3.768  0.1714  0.4150  2.9229
 1017MOL0     H37237   1.545   0.966   3.638 -0.9031 -1.9150 -1.1004
 1017MOL0     H37238   1.581   1.160   3.812 -1.5686 -0.3769 -0.3296
 1017MOL0     H37239   1.657   1.046   3.925 -1.5966 -0.6838 -0.0688
 1017MOL0     H37240   1.845   1.018   3.767  1.0598  1.4048  0.8350
 1017MOL0     H37241   1.761   1.118   3.638  1.7093  4.5676 -0.6842
 1017MOL0     H37242   1.787   1.319   3.774  0.0681  0.4516  2.7540
 1017MOL0     H37243   1.934   1.221   3.731  1.4544  2.3943  1.8660
 1017MOL0     H37244   1.916   1.344   3.958 -0.4685  0.1125 -1.1617
 1017MOL0     H37245   1.803   1.219   4.008  1.4122 -0.3838  0.4947
 1017MOL0     H37246   2.173   1.300   3.959  2.4641 -1.9502  3.4356
 1017MOL0     H37247   2.375   0.982   3.945 -2.8070 -1.4247  0.3923
 1017MOL0     H37248   2.402   1.152   3.931  1.7343 -2.6889 -2.2560
 1017MOL0     H37249   2.372   1.189   4.181 -1.4547  0.1465  0.2204
 1017MOL0     H37250   2.361   1.004   4.187 -0.7083 -1.2309 -3.4786
 1017MOL0     H37251   2.597   1.161   4.087  1.3824 -0.3349  0.0578
 1017MOL0     H37252   2.601   0.992   4.098  1.9431  0.0164  1.7541
 1017MOL0     H37253   2.560   1.011   4.356 -3.2766  1.8675 -0.2228
 1017MOL0     H37254   2.596   1.176   4.340  0.0882  0.0186 -1.0484
 1017MOL0     H37255   2.741   1.310   4.235 -0.4862 -0.8443  0.3766
 1017MOL0     H37256   2.929   1.444   4.152  1.7194 -0.9050 -0.4672
 1017MOL0     H37257   3.204   1.717   4.302 -1.7029  1.4642 -1.2174
 1017MOL0     H37258   3.371   1.875   4.276  1.0149 -2.1283  2.3062
 1017MOL0     H37259   3.768   1.911   4.136  0.6184  0.9807  3.0992
 1017MOL0     H37260   3.648   1.915   4.274 -2.3748  1.3257 -0.6810
 1017MOL0     H37261   3.796   1.735   4.305 -3.2237 -0.4204  3.8587
 1017MOL0     H37262   3.647   1.658   4.248  0.4040  1.4423  1.8883
 1017MOL0     H37263   3.742   1.670   4.011  0.2360 -0.9128  0.4403
 1017MOL0     H37264   3.892   1.737   4.070  0.6233 -0.4967  2.5562
 1017MOL0     H37265   3.793   1.461   4.152 -0.7383 -0.2539  2.4365
 1017MOL0     H37266   3.926   1.537   4.228 -2.5692 -4.2017  1.4201
 1017MOL0     H37267   3.905   1.493   3.924  0.7278  0.0124 -1.5399
 1017MOL0     H37268   3.982   1.378   4.039 -2.1908  0.2466  3.9126
 1017MOL0     H37269   4.082   1.656   3.979  0.3253 -0.9549 -0.8856
 1017MOL0     H37270   4.176   1.547   4.079  0.3022 -0.7732  1.3637
 1017MOL0     H37271   4.181   1.385   3.879 -1.5099 -0.3268 -4.1963
 1017MOL0     H37272   4.286   1.535   3.897  1.2547 -0.8215 -1.1407
 1017MOL0     H37273   4.041   1.519   3.733 -0.1258 -0.2278  0.2082
 1017MOL0     H37274   4.161   1.657   3.735  1.3256 -0.3909  4.4221
 1017MOL0     H37275   3.529   1.668   3.929  1.0697  0.0783  0.0734
 1017MOL0     H37276   3.359   1.509   3.951  2.1676  0.1328  1.1508
 1017MOL0     H37277   3.171   1.097   4.131 -0.5298  0.1164 -2.3806
 1017MOL0     H37278   2.965   0.956   4.221 -3.1225 -0.7056  1.4976
 1017MOL0     H37279   1.511   0.810   4.398 -0.1063 -0.3843 -0.7398
 1017MOL0     H37280   1.688   0.675   4.530  1.0146 -2.2971  0.2389
 1017MOL0     H37281   1.996   0.320   4.541  1.4712 -0.6278  2.0838
 1017MOL0     H37282   2.161   0.194   4.624  0.1071 -0.0251  0.0474
 1017MOL0     H37283   2.342   0.070   4.694  2.3299 -1.0349  2.0029
 1017MOL0     H37284   2.373   0.220   4.775 -2.4901 -1.5608 -0.2631
 1017MOL0     H37285   2.550   0.055   4.836 -0.6478 -1.7709 -0.5249
 1017MOL0     H37286   2.623   0.186   4.743 -1.8810  1.5443 -1.1388
 1017MOL0     H37287   2.623   0.015   4.544  0.2091  0.2183  1.0116
 1017MOL0     H37288   2.513  -0.089   4.634 -1.0641  1.0707  1.1694
 1017MOL0     H37289   2.751  -0.145   4.616  1.2419 -0.9226  1.1315
 1017MOL0     H37290   2.783  -0.031   4.749  2.2174 -1.0061  0.4460
 1017MOL0     H37291   2.564  -0.311   4.984 -0.1785  0.1200  0.3800
 1017MOL0     H37292   2.466   0.417   4.436  1.0065 -2.7714 -3.3213
 1017MOL0     H37293   2.241   0.616   4.208 -0.3455 -0.0821  0.5546
 1017MOL0     H37294   2.273   0.703   4.363  1.4739  0.3650  0.7027
 1017MOL0     H37295   2.402   0.610   4.291  0.0039  0.6261  1.2648
 1018MOL0     O37296  11.415   2.462   2.954 -0.5053 -0.6531 -0.4365
 1018MOL0     C37297  11.403   2.556   2.873 -0.5417 -0.8362 -0.0555
 1018MOL0     O37298  11.315   2.557   2.767 -0.2243 -0.1093 -0.5306
 1018MOL0     C37299  11.203   2.483   2.751  0.5941  0.1555  0.0326
 1018MOL0     C37300  11.126   2.439   2.863 -0.7280  0.2994  0.7397
 1018MOL0     C37301  11.015   2.361   2.854 -0.0366  0.4118  0.1637
 1018MOL0     C37302  10.959   2.340   2.729  0.5267  0.5499  0.4753
 1018MOL0     O37303  10.844   2.268   2.696  0.0589 -0.0127  0.4094
 1018MOL0     C37304  10.767   2.238   2.815 -0.2702 -0.0491 -0.6210
 1018MOL0     C37305  10.641   2.167   2.774  1.3773 -1.3804  1.0524
 1018MOL0     C37306  10.550   2.160   2.899 -0.1188 -0.4640 -0.4132
 1018MOL0     C37307  10.401   2.139   2.868  0.4474  1.2990  1.0921
 1018MOL0     C37308  10.320   2.158   2.989  0.4235  0.3606  0.5415
 1018MOL0     C37309  10.179   2.110   2.963 -0.2937  0.4838  0.2162
 1018MOL0     C37310  10.159   1.961   2.954  0.1669  0.2081 -0.6485
 1018MOL0     C37311  10.011   1.908   2.955  0.2562 -1.0593  0.5196
 1018MOL0     N37312   9.935   1.972   2.848  0.3406 -0.2976  0.1453
 1018MOL0     C37313   9.975   1.967   2.715  0.2066  0.6659 -0.1810
 1018MOL0     C37314   9.890   2.054   2.651  1.1627  0.4822  0.1927
 1018MOL0     C37315   9.902   2.095   2.502 -0.3447 -0.8399  0.1268
 1018MOL0     C37316   9.964   2.231   2.475  0.4514  0.0175  0.7931
 1018MOL0     C37317  10.104   2.244   2.537  1.2774 -0.7669 -0.4111
 1018MOL0     C37318  10.212   2.191   2.452  0.2348 -0.7865  0.5322
 1018MOL0     O37319  10.327   2.266   2.482  0.2033  0.2888  1.0705
 1018MOL0     C37320  10.438   2.266   2.401  0.5558 -0.3515  1.7425
 1018MOL0     C37321  10.446   2.203   2.273  0.1775 -0.7040  0.0650
 1018MOL0     C37322  10.561   2.219   2.196 -0.6327 -0.5889 -0.2098
 1018MOL0     C37323  10.667   2.307   2.243  0.4687 -0.0226  0.4959
 1018MOL0     C37324  10.780   2.322   2.156  0.4869  0.5678 -0.6637
 1018MOL0     O37325  10.892   2.374   2.217 -0.6813 -0.3930 -0.3346
 1018MOL0     C37326  10.989   2.429   2.146  0.1095 -0.1467  0.2871
 1018MOL0     C37327  10.980   2.481   2.017  0.1554 -0.0008 -0.2556
 1018MOL0     C37328  11.084   2.513   1.942  0.4078 -0.8268 -1.0681
 1018MOL0     C37329  11.208   2.530   2.003 -0.0850  0.4298 -0.0590
 1018MOL0     O37330  11.312   2.572   1.923 -0.0360 -0.3055 -0.0334
 1018MOL0     C37331  11.419   2.634   1.992  0.6894  0.1836  0.8457
 1018MOL0     C37332  11.506   2.688   1.881  0.2087  0.2477 -0.2713
 1018MOL0     C37333  11.465   2.831   1.854 -0.2391 -0.5376 -0.1055
 1018MOL0     C37334  11.539   2.894   1.738  0.4225 -0.2831  0.4204
 1018MOL0     C37335  11.502   3.041   1.734  0.3613 -0.6543  0.2581
 1018MOL0     C37336  11.560   3.117   1.612  0.7615  0.4841  0.0901
 1018MOL0     C37337  11.709   3.142   1.636 -0.3473 -0.6875  0.1138
 1018MOL0     C37338  11.766   3.229   1.520 -0.3529 -0.7701 -0.6998
 1018MOL0    Cl37339  11.917   3.308   1.582 -0.2017  0.0685  0.0318
 1018MOL0     C37340  11.223   2.493   2.137  0.2732  0.3695 -0.2278
 1018MOL0     C37341  11.111   2.446   2.205 -0.5348  0.9725 -0.8681
 1018MOL0     O37342  10.758   2.303   2.032 -0.5872  0.2255 -0.5263
 1018MOL0     C37343  10.658   2.357   2.373 -0.6804 -0.0683  0.4271
 1018MOL0     C37344  10.539   2.349   2.449 -0.2688  0.6573 -0.0408
 1018MOL0     N37345   9.807   2.116   2.749 -0.4025 -0.3116  0.1543
 1018MOL0     N37346   9.834   2.062   2.873  0.0312  0.0684  0.1409
 1018MOL0     C37347  11.021   2.390   2.616 -0.1130  0.6131  0.0165
 1018MOL0     C37348  11.137   2.456   2.629 -0.9411 -0.4345  0.5359
 1018MOL0     C37349  11.512   2.661   2.871  0.0412 -0.5815  0.1483
 1018MOL0     C37350  11.567   2.696   2.742  0.1550  0.3822  0.2230
 1018MOL0     C37351  11.673   2.783   2.734  0.8593  0.0366  0.5708
 1018MOL0     C37352  11.732   2.835   2.843 -0.8216  0.1233 -0.7694
 1018MOL0     O37353  11.855   2.900   2.838 -0.8389  0.9098 -0.4677
 1018MOL0     C37354  11.890   2.967   2.712 -0.0156 -0.2027  0.2814
 1018MOL0     C37355  11.823   3.117   2.721 -0.2931 -0.4487  0.1178
 1018MOL0     C37356  11.830   3.196   2.586  0.5685  0.4808 -0.0109
 1018MOL0     C37357  11.959   3.259   2.562 -0.5525 -0.3944  1.0763
 1018MOL0     C37358  12.059   3.161   2.513 -0.9420 -0.6031 -0.7584
 1018MOL0     C37359  12.138   3.075   2.491  0.1143  0.4405 -0.1917
 1018MOL0     C37360  11.689   2.794   2.969 -0.9599 -0.2187 -0.6722
 1018MOL0     C37361  11.574   2.715   2.985  0.7315  0.0472 -0.0581
 1018MOL0     C37362  11.522   2.681   3.126 -0.7069  1.1333  0.9113
 1018MOL0     H37363  11.148   2.464   2.966 -2.1804 -0.7556  1.3396
 1018MOL0     H37364  10.981   2.321   2.949  1.1487 -0.2411  0.3323
 1018MOL0     H37365  10.826   2.168   2.875  0.8107 -1.0268 -2.6949
 1018MOL0     H37366  10.754   2.331   2.871  1.3092 -0.3157  0.2436
 1018MOL0     H37367  10.651   2.066   2.733  2.0544 -1.1225  0.5778
 1018MOL0     H37368  10.607   2.222   2.686  3.0070 -4.2064 -1.5445
 1018MOL0     H37369  10.554   2.254   2.954 -2.5697 -0.1109 -0.7176
 1018MOL0     H37370  10.589   2.077   2.959 -2.3964 -0.3659  1.3832
 1018MOL0     H37371  10.364   2.214   2.798 -0.6935  0.6773  1.0147
 1018MOL0     H37372  10.390   2.037   2.830 -1.2680  2.1956 -1.0119
 1018MOL0     H37373  10.366   2.101   3.070 -2.9915  0.7421  2.9754
 1018MOL0     H37374  10.314   2.262   3.023  2.2084  1.8881 -3.2208
 1018MOL0     H37375  10.123   2.140   3.052 -2.0313 -1.2268 -0.2150
 1018MOL0     H37376  10.141   2.158   2.872  0.4673 -2.8394 -2.0409
 1018MOL0     H37377  10.211   1.912   3.037 -1.0100 -1.5340 -0.8931
 1018MOL0     H37378  10.220   1.922   2.873  0.2298  3.3988 -2.2819
 1018MOL0     H37379  10.014   1.799   2.947  2.4758 -1.0397  0.4699
 1018MOL0     H37380   9.953   1.931   3.046 -1.4365  2.4668 -1.2253
 1018MOL0     H37381  10.070   1.926   2.683  1.5245  1.9097  1.9366
 1018MOL0     H37382   9.948   2.014   2.445 -0.1218 -2.3216  2.2843
 1018MOL0     H37383   9.806   2.100   2.450 -0.0880 -2.1197 -0.5043
 1018MOL0     H37384   9.968   2.240   2.366 -0.0940 -3.4498  0.3993
 1018MOL0     H37385   9.899   2.314   2.504 -1.6450  0.0744 -3.3054
 1018MOL0     H37386  10.108   2.208   2.641 -1.6661 -1.8072 -0.5712
 1018MOL0     H37387  10.125   2.351   2.553  0.5172 -0.5397 -0.9052
 1018MOL0     H37388  10.186   2.223   2.351 -1.8598  1.3937  1.6474
 1018MOL0     H37389  10.227   2.083   2.465 -1.3269 -0.7786  3.1228
 1018MOL0     H37390  10.368   2.131   2.250  0.4060 -0.9639  0.1021
 1018MOL0     H37391  10.569   2.163   2.103  1.9957  0.4324 -0.6916
 1018MOL0     H37392  10.887   2.497   1.965  1.0678  2.1549 -1.3555
 1018MOL0     H37393  11.087   2.550   1.840  1.9955 -0.3556 -0.8866
 1018MOL0     H37394  11.395   2.712   2.065  3.7287  1.0635  1.0406
 1018MOL0     H37395  11.475   2.555   2.044 -0.9590 -1.9235 -0.4197
 1018MOL0     H37396  11.613   2.678   1.902  0.2267 -2.3847 -1.2459
 1018MOL0     H37397  11.492   2.631   1.789  1.4171  2.8693 -2.2092
 1018MOL0     H37398  11.359   2.833   1.825 -0.1349 -1.0556 -0.5445
 1018MOL0     H37399  11.471   2.883   1.950 -2.5197  1.3617 -0.9048
 1018MOL0     H37400  11.501   2.840   1.651 -2.2399 -1.1037  1.9835
 1018MOL0     H37401  11.646   2.874   1.748  0.0449 -2.4720  0.5232
 1018MOL0     H37402  11.528   3.100   1.823 -3.4069 -1.9296  2.4171
 1018MOL0     H37403  11.394   3.052   1.734  0.3937  0.1960 -2.0119
 1018MOL0     H37404  11.551   3.051   1.526 -1.0182  1.4613 -0.5229
 1018MOL0     H37405  11.517   3.215   1.589  2.2006  0.8662 -1.1407
 1018MOL0     H37406  11.764   3.048   1.642 -0.4986 -0.8066 -0.3043
 1018MOL0     H37407  11.712   3.202   1.728 -2.9015  1.7012 -1.2071
 1018MOL0     H37408  11.795   3.167   1.435 -0.4074 -0.6619 -0.7968
 1018MOL0     H37409  11.693   3.308   1.504 -0.6267 -0.9636 -0.4268
 1018MOL0     H37410  11.320   2.516   2.181 -0.0652  3.3454 -0.8309
 1018MOL0     H37411  11.125   2.413   2.308 -0.1030 -0.3071 -1.3265
 1018MOL0     H37412  10.743   2.409   2.414 -0.0796 -0.7367  0.0594
 1018MOL0     H37413  10.522   2.396   2.545  1.4207  0.8706  0.1942
 1018MOL0     H37414  10.974   2.364   2.522 -0.5198 -1.1650  0.6724
 1018MOL0     H37415  11.190   2.497   2.543 -1.3193  0.0012  0.5096
 1018MOL0     H37416  11.527   2.652   2.651 -2.1191  2.1508  0.2939
 1018MOL0     H37417  11.697   2.786   2.628 -0.0391 -0.3596  0.3478
 1018MOL0     H37418  11.862   2.910   2.623 -1.9921 -0.9727  1.3414
 1018MOL0     H37419  11.999   2.978   2.709 -0.1992  1.8962 -0.8328
 1018MOL0     H37420  11.865   3.181   2.799 -2.2015  0.5929  0.3390
 1018MOL0     H37421  11.716   3.108   2.743 -0.7136 -0.7963 -1.8833
 1018MOL0     H37422  11.756   3.276   2.580 -0.4528 -0.3212  1.3392
 1018MOL0     H37423  11.806   3.124   2.508 -1.4322 -0.2970  1.2531
 1018MOL0     H37424  11.956   3.330   2.479 -1.4641 -2.0603 -0.4011
 1018MOL0     H37425  11.992   3.303   2.656 -0.8537  1.2453  0.4355
 1018MOL0     H37426  12.206   2.994   2.474 -3.0697 -2.2468 -1.0758
 1018MOL0     H37427  11.751   2.821   3.054  2.3321 -2.5714 -2.1217
 1018MOL0     H37428  11.419   2.709   3.146  0.1084  2.3756  3.9056
 1018MOL0     H37429  11.536   2.575   3.149  2.8504  1.1701 -0.3346
 1018MOL0     H37430  11.584   2.736   3.198 -0.0764 -0.1611  1.3873
 1019MOL0     O37431  10.221   9.469   7.109  0.8945  0.0291  0.2280
 1019MOL0     C37432  10.139   9.401   7.041 -0.3903 -0.4755 -0.7476
 1019MOL0     O37433  10.176   9.285   6.980 -0.5505 -1.0698 -0.0743
 1019MOL0     C37434  10.308   9.234   6.989  0.0142 -1.0455  0.3625
 1019MOL0     C37435  10.312   9.090   7.008 -0.3595 -0.2490 -0.3478
 1019MOL0     C37436  10.451   9.041   7.022 -0.7481 -0.0956 -0.2802
 1019MOL0     C37437  10.567   9.125   7.006  0.8716 -0.8946 -0.2986
 1019MOL0     O37438  10.691   9.073   7.031 -0.2931 -0.7215 -0.6195
 1019MOL0     C37439  10.703   9.041   7.173 -0.9999 -0.1879 -0.8672
 1019MOL0     C37440  10.764   9.168   7.225 -0.2296 -0.1822  0.9553
 1019MOL0     C37441  10.826   9.147   7.368 -0.7537  0.6825  0.7117
 1019MOL0     C37442  10.858   9.279   7.429  0.3475 -0.3354  0.7867
 1019MOL0     C37443  10.978   9.348   7.352  0.3520 -0.6340 -0.2216
 1019MOL0     C37444  11.081   9.421   7.441 -0.1453  0.5810 -0.3237
 1019MOL0     C37445  11.198   9.481   7.359 -0.3278 -0.5861  0.0791
 1019MOL0     C37446  11.301   9.372   7.344  0.2556 -0.3505  0.2841
 1019MOL0     N37447  11.389   9.404   7.232 -0.0520  0.1237  0.1399
 1019MOL0     C37448  11.374   9.408   7.097 -0.3851  0.4107 -1.1693
 1019MOL0     C37449  11.496   9.436   7.051 -0.5087 -0.4053  0.7054
 1019MOL0     C37450  11.560   9.424   6.915  0.4922 -0.4526 -0.0104
 1019MOL0     C37451  11.471   9.428   6.797 -0.3499 -1.2581 -0.3676
 1019MOL0     C37452  11.395   9.563   6.790  0.3108 -0.3279 -0.3796
 1019MOL0     C37453  11.308   9.580   6.674  0.2979 -0.8768 -0.4013
 1019MOL0     O37454  11.385   9.592   6.556  0.0597  0.5454  0.1609
 1019MOL0     C37455  11.321   9.566   6.440  0.4759  0.4459  0.1235
 1019MOL0     C37456  11.181   9.599   6.414  0.0027  0.0863  0.3207
 1019MOL0     C37457  11.133   9.566   6.284  0.8416  0.6177 -0.5976
 1019MOL0     C37458  11.215   9.537   6.177 -0.2234  0.1188 -0.2278
 1019MOL0     C37459  11.147   9.512   6.046 -0.4261 -0.1257  0.9974
 1019MOL0     O37460  11.016   9.521   6.029  0.5531 -0.4083 -0.0407
 1019MOL0     C37461  10.963   9.477   5.906 -0.1826  0.4300  0.0471
 1019MOL0     C37462  10.911   9.350   5.905 -0.0686  0.8508 -0.0008
 1019MOL0     C37463  10.859   9.304   5.781  0.3958 -1.5996 -1.1420
 1019MOL0     C37464  10.874   9.375   5.664 -0.5253 -0.5810  0.5054
 1019MOL0     O37465  10.836   9.330   5.537  0.3194 -0.0296  0.0252
 1019MOL0     C37466  10.738   9.229   5.522  0.1922 -1.3133  0.1130
 1019MOL0     C37467  10.682   9.209   5.383  0.1081 -0.9230  0.2465
 1019MOL0     C37468  10.649   9.343   5.311  0.4239 -0.1516 -0.4053
 1019MOL0     C37469  10.579   9.310   5.183  0.6466 -0.1793  0.5498
 1019MOL0     C37470  10.423   9.253   5.189  0.1823 -0.2560  0.1714
 1019MOL0     C37471  10.363   9.182   5.060 -0.1183 -0.9486  0.5758
 1019MOL0     C37472  10.266   9.065   5.109  0.5072  0.0018 -0.4188
 1019MOL0     C37473  10.219   8.986   4.989  0.7084 -0.8094  0.0101
 1019MOL0    Cl37474  10.351   8.868   4.955 -0.0112 -0.7608 -0.2555
 1019MOL0     C37475  10.926   9.503   5.670 -0.6822  0.2177  0.2489
 1019MOL0     C37476  10.970   9.553   5.794 -0.1352 -0.7238  0.7895
 1019MOL0     O37477  11.224   9.479   5.954  0.1306 -0.0785  0.5687
 1019MOL0     C37478  11.353   9.517   6.202  0.2730 -0.0149 -0.0995
 1019MOL0     C37479  11.409   9.542   6.330  0.9020 -0.9515  0.2505
 1019MOL0     N37480  11.575   9.467   7.153 -0.4261 -0.3039 -0.8674
 1019MOL0     N37481  11.513   9.446   7.267  0.4044  0.4718 -0.6190
 1019MOL0     C37482  10.546   9.259   6.975 -1.6294  0.7659  0.8580
 1019MOL0     C37483  10.424   9.313   6.968  0.5055  0.1306 -0.1595
 1019MOL0     C37484  10.008   9.454   7.021 -0.8970  1.0266 -0.5892
 1019MOL0     C37485   9.923   9.377   6.943  0.1254  1.0569  0.2045
 1019MOL0     C37486   9.782   9.399   6.938  0.3042  0.3941 -1.7599
 1019MOL0     C37487   9.739   9.513   7.008  0.3419  0.3977  0.5311
 1019MOL0     O37488   9.605   9.525   7.009  0.5870 -0.2226 -0.5314
 1019MOL0     C37489   9.545   9.572   6.894 -0.4564  0.1786  0.1571
 1019MOL0     C37490   9.404   9.609   6.912  0.8363 -0.2061 -0.0167
 1019MOL0     C37491   9.324   9.656   6.793 -0.5162 -0.0327  0.1844
 1019MOL0     C37492   9.291   9.804   6.773 -0.2454 -0.5462 -0.3837
 1019MOL0     C37493   9.185   9.826   6.676  0.7218  1.2189 -0.1365
 1019MOL0     C37494   9.094   9.843   6.597 -0.1897  0.6853 -0.1112
 1019MOL0     C37495   9.819   9.594   7.087  0.0745 -0.4971 -0.1266
 1019MOL0     C37496   9.953   9.561   7.101 -0.1591 -0.0914 -0.0889
 1019MOL0     C37497  10.038   9.653   7.184  0.5045 -0.1394  0.2287
 1019MOL0     H37498  10.226   9.028   7.033  0.4079 -1.6163 -0.9730
 1019MOL0     H37499  10.466   8.940   7.058  1.1881  1.0197  2.4124
 1019MOL0     H37500  10.606   9.023   7.221  0.6197 -1.2478  2.2795
 1019MOL0     H37501  10.770   8.958   7.194 -1.2399  0.2959  2.3604
 1019MOL0     H37502  10.691   9.249   7.235  0.3427  0.5500 -0.5207
 1019MOL0     H37503  10.839   9.196   7.151  0.0748  1.0835  1.7007
 1019MOL0     H37504  10.923   9.098   7.354 -0.2597  1.7481  0.3623
 1019MOL0     H37505  10.757   9.093   7.434  1.9216 -1.6899  1.7777
 1019MOL0     H37506  10.766   9.337   7.421  1.4196  1.6133  1.6910
 1019MOL0     H37507  10.878   9.278   7.537  1.2780  0.9771  0.6586
 1019MOL0     H37508  11.031   9.275   7.290 -1.5785 -2.0858 -0.2732
 1019MOL0     H37509  10.935   9.432   7.297  0.3140  0.3243  1.2208
 1019MOL0     H37510  11.027   9.512   7.471 -1.3774  0.8469 -2.9951
 1019MOL0     H37511  11.122   9.366   7.526 -1.2423  3.2186  2.0839
 1019MOL0     H37512  11.229   9.572   7.411 -0.2023 -0.4701 -0.2025
 1019MOL0     H37513  11.157   9.502   7.260 -0.5685  0.4466  0.3907
 1019MOL0     H37514  11.352   9.350   7.438 -1.3979 -1.1648  1.0419
 1019MOL0     H37515  11.267   9.271   7.319 -0.2709  0.0940 -0.9107
 1019MOL0     H37516  11.299   9.362   7.033  1.9013 -1.8806 -2.3844
 1019MOL0     H37517  11.638   9.500   6.910  0.2397  0.2886  3.8202
 1019MOL0     H37518  11.601   9.323   6.922 -0.4867 -0.8152  0.6221
 1019MOL0     H37519  11.521   9.402   6.703  0.7778 -0.5882  0.0279
 1019MOL0     H37520  11.400   9.346   6.813 -1.7658 -0.7383 -3.4080
 1019MOL0     H37521  11.467   9.643   6.807 -1.0500  0.2337  4.1510
 1019MOL0     H37522  11.336   9.561   6.882  3.5066 -2.2845  1.8257
 1019MOL0     H37523  11.252   9.672   6.694  0.6318 -0.0690 -2.8138
 1019MOL0     H37524  11.234   9.499   6.671 -2.5376  1.4408  1.5536
 1019MOL0     H37525  11.109   9.636   6.486 -2.3762 -1.0167 -1.3528
 1019MOL0     H37526  11.026   9.576   6.271  0.5464 -0.4429  0.7764
 1019MOL0     H37527  10.902   9.285   5.992 -0.0137  0.9474  0.0766
 1019MOL0     H37528  10.825   9.202   5.795 -1.5926 -0.7123  1.2588
 1019MOL0     H37529  10.792   9.137   5.547  0.9384 -0.7258  0.7052
 1019MOL0     H37530  10.653   9.245   5.589  1.1385  0.7555  0.8756
 1019MOL0     H37531  10.746   9.158   5.311 -2.7720 -2.2068 -1.5597
 1019MOL0     H37532  10.589   9.153   5.394 -0.8184  0.8333  1.9471
 1019MOL0     H37533  10.588   9.404   5.378  1.9807 -0.5931  1.5281
 1019MOL0     H37534  10.745   9.393   5.293 -1.0861  2.3894 -2.1068
 1019MOL0     H37535  10.648   9.237   5.139  0.6619 -0.7102  1.4197
 1019MOL0     H37536  10.577   9.393   5.112  2.3373 -1.8236 -1.5944
 1019MOL0     H37537  10.353   9.331   5.221  3.1992  3.2371 -0.9012
 1019MOL0     H37538  10.426   9.184   5.273 -0.5270 -1.5081 -0.8062
 1019MOL0     H37539  10.304   9.254   5.001 -2.5494 -0.9359  2.8191
 1019MOL0     H37540  10.443   9.136   5.002 -0.1032 -2.2870  1.6230
 1019MOL0     H37541  10.172   9.107   5.147 -1.0884 -1.8034 -2.1175
 1019MOL0     H37542  10.305   9.003   5.190  1.5222  1.4178  0.2059
 1019MOL0     H37543  10.126   8.936   5.017 -1.2046  1.9391 -0.9859
 1019MOL0     H37544  10.188   9.059   4.914  0.2999  2.1720  2.8473
 1019MOL0     H37545  10.952   9.555   5.578 -1.0779 -0.6068 -0.3448
 1019MOL0     H37546  11.030   9.643   5.799 -1.8851  0.6102 -0.7113
 1019MOL0     H37547  11.419   9.495   6.118  0.7078 -1.2424  0.5438
 1019MOL0     H37548  11.516   9.526   6.339  1.3451 -0.2446 -2.7819
 1019MOL0     H37549  10.628   9.326   6.951 -2.6389  1.7252 -0.0320
 1019MOL0     H37550  10.412   9.412   6.926 -4.8184 -0.8351 -1.7383
 1019MOL0     H37551   9.951   9.289   6.885 -0.8356  0.7309  0.2173
 1019MOL0     H37552   9.714   9.342   6.874  0.4122  1.6904 -3.0769
 1019MOL0     H37553   9.562   9.500   6.814 -3.1151 -3.1745  2.3503
 1019MOL0     H37554   9.609   9.657   6.867  2.5056 -1.9202 -0.0038
 1019MOL0     H37555   9.386   9.689   6.984 -2.6607 -0.3951 -0.5188
 1019MOL0     H37556   9.353   9.518   6.944 -1.1274  1.7784  3.0176
 1019MOL0     H37557   9.227   9.606   6.799 -2.2255  3.1560  1.1329
 1019MOL0     H37558   9.380   9.625   6.703  4.3663  3.6666  1.5197
 1019MOL0     H37559   9.249   9.827   6.872  0.8302 -1.7006  0.3705
 1019MOL0     H37560   9.381   9.864   6.755 -0.9557  0.3040 -1.2363
 1019MOL0     H37561   9.008   9.874   6.542  0.9989  2.9310 -0.8214
 1019MOL0     H37562   9.775   9.677   7.141 -1.8637 -2.0578  0.8467
 1019MOL0     H37563  10.094   9.599   7.261 -1.9800 -2.9639  0.2677
 1019MOL0     H37564  10.105   9.713   7.123  0.9919 -1.5798 -0.6896
 1019MOL0     H37565   9.969   9.714   7.243  1.8786  0.3421  1.3865
 1020MOL0     O37566   4.984   4.608  10.026  0.2201 -0.2959 -0.1566
 1020MOL0     C37567   5.054   4.551   9.945 -0.1386 -0.1720  0.0841
 1020MOL0     O37568   5.116   4.439   9.977 -0.2077  0.0602 -0.2035
 1020MOL0     C37569   5.097   4.380  10.100  0.1906 -0.9415  0.0344
 1020MOL0     C37570   5.018   4.264  10.105  0.0419 -0.7798 -0.7476
 1020MOL0     C37571   5.004   4.198  10.226  0.1385  0.4834 -0.6420
 1020MOL0     C37572   5.065   4.249  10.343 -0.3631  0.3643  0.3348
 1020MOL0     O37573   5.059   4.190  10.462  0.1134  0.1032 -0.1160
 1020MOL0     C37574   4.932   4.201  10.522 -0.5030 -0.4138  0.3772
 1020MOL0     C37575   4.934   4.142  10.661 -0.0317  0.3550 -0.1901
 1020MOL0     C37576   4.794   4.148  10.720 -0.0420 -0.8649  0.3820
 1020MOL0     C37577   4.715   4.014  10.693  1.4016 -0.0129 -0.1783
 1020MOL0     C37578   4.566   4.011  10.735 -0.8515  0.5048  0.7977
 1020MOL0     C37579   4.479   4.077  10.626  0.2367  0.2947  0.0747
 1020MOL0     C37580   4.340   4.102  10.672  0.5123  0.1747  0.7584
 1020MOL0     C37581   4.261   3.981  10.727 -0.1508  0.5906  0.2985
 1020MOL0     N37582   4.113   4.019  10.730 -0.0149  0.4400 -0.2302
 1020MOL0     C37583   4.011   3.937  10.677  1.0476 -0.1758  0.7508
 1020MOL0     C37584   3.888   3.988  10.723  0.2954  0.4134  1.0346
 1020MOL0     C37585   3.749   3.947  10.687 -0.4739 -0.7905 -0.0426
 1020MOL0     C37586   3.669   4.072  10.639  0.3680  0.1760  1.1340
 1020MOL0     C37587   3.521   4.035  10.610 -0.7402  0.0145  0.2468
 1020MOL0     C37588   3.455   4.148  10.528 -0.4672 -0.4181  0.1995
 1020MOL0     O37589   3.316   4.121  10.493 -0.3928 -0.1606 -0.2167
 1020MOL0     C37590   3.207   4.142  10.574  0.4440  0.9087 -0.2993
 1020MOL0     C37591   3.216   4.192  10.700 -0.1635 -0.5294 -0.3683
 1020MOL0     C37592   3.116   4.197  10.794 -0.7684  0.2805 -0.2176
 1020MOL0     C37593   2.985   4.148  10.757 -0.4526  0.4978 -1.4348
 1020MOL0     C37594   2.877   4.143  10.864  1.0870 -0.2182  0.5786
 1020MOL0     O37595   2.756   4.094  10.821 -0.2060  0.0104 -0.7952
 1020MOL0     C37596   2.644   4.091  10.897  0.5551  0.6580 -1.5204
 1020MOL0     C37597   2.601   4.207  10.966 -0.6344  0.4642 -0.4866
 1020MOL0     C37598   2.497   4.191  11.059 -0.2613  0.0184 -0.2352
 1020MOL0     C37599   2.419   4.070  11.077  0.1012 -0.2995  0.8521
 1020MOL0     O37600   2.326   4.063  11.182 -0.4407 -0.1135  0.1268
 1020MOL0     C37601   2.241   4.171  11.205  0.2861  0.1383 -0.0964
 1020MOL0     C37602   2.127   4.101  11.288 -0.6480 -0.7764  0.0396
 1020MOL0     C37603   2.028   4.205  11.343  0.0197  0.2993 -0.4501
 1020MOL0     C37604   1.883   4.153  11.330 -0.1633 -0.7360 -0.3933
 1020MOL0     C37605   1.784   4.217  11.431  0.2733  0.1934 -0.9006
 1020MOL0     C37606   1.648   4.146  11.445 -0.0395 -0.4558  0.1509
 1020MOL0     C37607   1.651   4.034  11.554  0.1724 -0.8963  0.1142
 1020MOL0     C37608   1.534   3.948  11.565 -0.3947 -0.1653 -0.2020
 1020MOL0    Cl37609   1.377   4.039  11.574  0.0576 -0.2315 -0.0552
 1020MOL0     C37610   2.468   3.955  11.009 -0.3345 -0.3196 -0.4470
 1020MOL0     C37611   2.574   3.975  10.917  0.2209  0.5259 -0.9545
 1020MOL0     O37612   2.899   4.198  10.972  0.0449 -0.3485 -0.1808
 1020MOL0     C37613   2.959   4.115  10.617  0.3268  0.1892 -0.1474
 1020MOL0     C37614   3.077   4.106  10.534 -0.0105  0.0836  0.5433
 1020MOL0     N37615   3.932   4.096  10.792 -0.1366  0.0380 -0.7700
 1020MOL0     N37616   4.059   4.107  10.807 -0.0089 -0.5153  0.1217
 1020MOL0     C37617   5.153   4.366  10.336  0.6694 -0.5724  0.2304
 1020MOL0     C37618   5.171   4.423  10.209  0.3554  0.4053  0.3236
 1020MOL0     C37619   5.074   4.617   9.811  0.3481 -0.0353 -0.0132
 1020MOL0     C37620   4.983   4.706   9.761 -0.0180  0.0145 -0.7758
 1020MOL0     C37621   4.997   4.772   9.637 -0.0811  0.1544  0.2083
 1020MOL0     C37622   5.103   4.750   9.550  0.9993  0.0139 -0.6479
 1020MOL0     O37623   5.132   4.812   9.433 -0.9294  0.3749 -0.4274
 1020MOL0     C37624   5.052   4.922   9.388 -0.0634 -0.6526 -0.0391
 1020MOL0     C37625   5.159   5.019   9.324 -0.0193 -0.7913 -0.7233
 1020MOL0     C37626   5.114   5.106   9.212 -0.0997 -0.5619  0.4627
 1020MOL0     C37627   5.222   5.185   9.153 -0.7411 -0.0040 -0.4426
 1020MOL0     C37628   5.327   5.230   9.246  0.4876 -0.4054 -0.2217
 1020MOL0     C37629   5.409   5.289   9.324 -0.5200 -0.2145  0.8339
 1020MOL0     C37630   5.189   4.653   9.586 -0.2521 -0.5946 -0.2112
 1020MOL0     C37631   5.179   4.577   9.713  0.2105 -0.8573 -0.3557
 1020MOL0     C37632   5.290   4.483   9.751  0.1984 -0.1436 -1.0580
 1020MOL0     H37633   4.963   4.238  10.015  2.6890  0.6843 -2.9290
 1020MOL0     H37634   4.941   4.112  10.241  0.8825 -0.1030 -0.7986
 1020MOL0     H37635   4.907   4.306  10.541 -1.1850 -0.1459 -1.8216
 1020MOL0     H37636   4.860   4.151  10.457  1.7582 -3.3048 -0.1086
 1020MOL0     H37637   4.991   4.206  10.729 -1.2796  2.0937 -0.7084
 1020MOL0     H37638   4.974   4.041  10.648 -1.8198 -0.1516 -2.4587
 1020MOL0     H37639   4.743   4.231  10.671 -0.8158 -1.5902 -0.0680
 1020MOL0     H37640   4.793   4.167  10.828 -3.3128 -3.7766  1.0377
 1020MOL0     H37641   4.725   3.973  10.593  0.0399 -0.4434 -0.1667
 1020MOL0     H37642   4.754   3.928  10.748 -1.9660 -2.2534 -0.9994
 1020MOL0     H37643   4.525   3.910  10.738 -1.8773  0.7862 -1.5420
 1020MOL0     H37644   4.547   4.059  10.831 -3.5327 -1.4495  1.3760
 1020MOL0     H37645   4.523   4.163  10.576 -0.1879 -1.1457 -3.0422
 1020MOL0     H37646   4.467   4.004  10.545 -0.4875  0.9533 -0.4322
 1020MOL0     H37647   4.283   4.135  10.584 -1.0760 -1.1936  1.2033
 1020MOL0     H37648   4.331   4.184  10.743 -0.2925 -0.9174  1.9763
 1020MOL0     H37649   4.272   3.893  10.662  0.8584 -0.1387  1.4149
 1020MOL0     H37650   4.308   3.957  10.822  0.6398  3.1798  0.6414
 1020MOL0     H37651   4.026   3.839  10.635  3.5455 -0.1421  1.4165
 1020MOL0     H37652   3.749   3.871  10.608  1.9893 -0.2326 -0.6547
 1020MOL0     H37653   3.713   3.894  10.776  0.8325  0.2191  1.1304
 1020MOL0     H37654   3.685   4.145  10.719  2.0772  0.3771  0.6484
 1020MOL0     H37655   3.701   4.132  10.554 -3.7996 -0.8441 -1.4577
 1020MOL0     H37656   3.478   4.024  10.710  1.7763  0.7482  1.4790
 1020MOL0     H37657   3.516   3.942  10.552 -0.6225  1.1177 -1.6250
 1020MOL0     H37658   3.498   4.157  10.428 -0.7342 -2.1437 -0.1108
 1020MOL0     H37659   3.475   4.240  10.583 -0.1068  1.3794 -2.7265
 1020MOL0     H37660   3.316   4.230  10.722 -0.4855  0.1699 -0.0896
 1020MOL0     H37661   3.141   4.230  10.894 -1.3651 -1.2326  0.4520
 1020MOL0     H37662   2.639   4.308  10.958  1.1032  0.2997  3.5327
 1020MOL0     H37663   2.466   4.277  11.117  0.1543 -0.5746  0.8923
 1020MOL0     H37664   2.291   4.246  11.268  1.4623 -0.6273 -0.0912
 1020MOL0     H37665   2.201   4.219  11.116 -0.7104  1.3711  0.9665
 1020MOL0     H37666   2.077   4.044  11.209  0.6000  0.4122 -1.6983
 1020MOL0     H37667   2.160   4.026  11.360  1.3010 -1.4643 -1.4664
 1020MOL0     H37668   2.051   4.236  11.446 -1.5145 -0.1740  0.0700
 1020MOL0     H37669   2.037   4.287  11.272  2.3412 -0.3458 -0.9673
 1020MOL0     H37670   1.876   4.046  11.351  1.0762 -1.2521 -2.3475
 1020MOL0     H37671   1.865   4.176  11.224  2.7088  0.3426 -0.7366
 1020MOL0     H37672   1.773   4.322  11.404 -2.1336 -0.5804 -3.4009
 1020MOL0     H37673   1.836   4.214  11.527  0.8206 -1.1245 -1.2163
 1020MOL0     H37674   1.587   4.233  11.472  1.6360 -0.2115  3.8911
 1020MOL0     H37675   1.620   4.100  11.350  1.0613  0.2310 -0.5231
 1020MOL0     H37676   1.662   4.073  11.656  1.0064  1.0524 -0.6730
 1020MOL0     H37677   1.741   3.974  11.538  0.2880 -0.1660 -2.2612
 1020MOL0     H37678   1.528   3.880  11.480 -2.0947  0.6655 -0.8113
 1020MOL0     H37679   1.539   3.891  11.658  2.9863  1.2181  0.6257
 1020MOL0     H37680   2.434   3.852  11.021 -1.0628 -0.3501 -2.3558
 1020MOL0     H37681   2.611   3.886  10.867 -0.6692 -0.0303 -0.6401
 1020MOL0     H37682   2.866   4.082  10.571  1.1274 -2.2084 -0.1395
 1020MOL0     H37683   3.064   4.071  10.432 -2.7404  0.8270  0.5450
 1020MOL0     H37684   5.220   4.396  10.416  2.3015  1.4005 -1.7413
 1020MOL0     H37685   5.245   4.501  10.193  0.6231 -0.0760 -0.8684
 1020MOL0     H37686   4.908   4.736   9.834  0.9914 -1.5224  0.9890
 1020MOL0     H37687   4.917   4.842   9.618 -0.1452 -0.2045 -0.9142
 1020MOL0     H37688   4.989   4.974   9.461  0.1524 -0.4149 -0.0210
 1020MOL0     H37689   4.980   4.882   9.316 -0.2173  0.6805 -0.6735
 1020MOL0     H37690   5.237   4.953   9.284 -1.1351 -1.5170 -1.7547
 1020MOL0     H37691   5.195   5.087   9.403 -1.7022  3.9400 -3.6194
 1020MOL0     H37692   5.043   5.182   9.246  2.5711  1.6742  1.4314
 1020MOL0     H37693   5.058   5.042   9.143 -0.4858  1.2135 -0.9428
 1020MOL0     H37694   5.273   5.129   9.075 -2.0203  1.9973 -2.8744
 1020MOL0     H37695   5.179   5.276   9.110  1.0981  1.1991  0.1235
 1020MOL0     H37696   5.469   5.342   9.395  2.7764 -0.1754 -1.7303
 1020MOL0     H37697   5.274   4.642   9.519 -1.5360  2.1843 -2.5285
 1020MOL0     H37698   5.244   4.386   9.735  0.7669 -0.1657 -2.6819
 1020MOL0     H37699   5.371   4.479   9.678 -0.3029 -0.0601 -1.6293
 1020MOL0     H37700   5.311   4.496   9.858 -5.2534  1.3925  0.1522
 1021MOL0     O37701   7.141   8.577   0.452 -0.3174  0.1194  0.3460
 1021MOL0     C37702   7.042   8.650   0.489 -0.2695 -0.1016  1.8322
 1021MOL0     O37703   7.020   8.779   0.456  0.3136 -0.2359 -0.6310
 1021MOL0     C37704   7.090   8.840   0.354 -0.1546 -0.1992 -0.0403
 1021MOL0     C37705   7.211   8.912   0.380 -0.1391  0.1967 -0.8840
 1021MOL0     C37706   7.272   8.995   0.285  0.3525 -0.1195 -0.0923
 1021MOL0     C37707   7.220   8.996   0.155  0.4052  0.3051  0.8779
 1021MOL0     O37708   7.270   9.050   0.041  0.5136 -0.3866 -0.5080
 1021MOL0     C37709   7.405   9.059   0.015 -0.2791  0.1014  0.0823
 1021MOL0     C37710   7.460   9.206   0.017  1.0511 -0.8421 -0.5080
 1021MOL0     C37711   7.601   9.212  -0.024 -0.4014 -0.0882  0.5557
 1021MOL0     C37712   7.693   9.159   0.086  1.1842  1.1053  0.0803
 1021MOL0     C37713   7.848   9.169   0.074  0.4261 -0.2019 -0.4000
 1021MOL0     C37714   7.890   9.314   0.103  0.1419  0.0308  0.3166
 1021MOL0     C37715   8.040   9.325   0.146 -0.5238 -0.0218 -0.2089
 1021MOL0     C37716   8.139   9.302   0.035 -0.4015  0.3445  1.0778
 1021MOL0     N37717   8.143   9.412  -0.062 -0.7238 -0.3915 -0.2925
 1021MOL0     C37718   8.174   9.545  -0.032 -0.6473  0.1538  0.1699
 1021MOL0     C37719   8.179   9.597  -0.157  0.4400  1.0168 -0.2687
 1021MOL0     C37720   8.237   9.733  -0.181 -0.7008 -0.9009  0.8511
 1021MOL0     C37721   8.395   9.724  -0.182  0.6891 -0.4559  0.4872
 1021MOL0     C37722   8.455   9.861  -0.198  0.3620 -0.6497 -0.1783
 1021MOL0     C37723   8.605   9.834  -0.221  0.3848 -0.1131 -0.2151
 1021MOL0     O37724   8.662   9.786  -0.097  0.7741 -0.1801 -0.5626
 1021MOL0     C37725   8.794   9.746  -0.112 -0.1022 -0.4076 -0.3764
 1021MOL0     C37726   8.881   9.765  -0.221 -1.3298 -0.3401  0.4058
 1021MOL0     C37727   9.013   9.714  -0.208  0.0417  0.3644 -0.4025
 1021MOL0     C37728   9.063   9.658  -0.089 -0.0174 -0.8974 -0.2660
 1021MOL0     C37729   9.201   9.615  -0.071  0.4985 -1.1451 -0.5157
 1021MOL0     O37730   9.238   9.575   0.063  0.2994  0.0395  0.2081
 1021MOL0     C37731   9.364   9.539   0.095  0.5891  0.0928 -0.2366
 1021MOL0     C37732   9.472   9.633   0.103 -0.6717  0.3725 -0.7671
 1021MOL0     C37733   9.598   9.593   0.150 -0.2972  0.2402  0.3767
 1021MOL0     C37734   9.624   9.452   0.168  0.5626 -0.5008 -0.3752
 1021MOL0     O37735   9.749   9.393   0.182  0.1514  0.1600  0.3204
 1021MOL0     C37736   9.857   9.479   0.166 -0.6755  0.5371  0.3507
 1021MOL0     C37737   9.984   9.396   0.189  0.6280 -0.6342  0.3961
 1021MOL0     C37738  10.015   9.295   0.077 -0.2329 -0.0359  0.8651
 1021MOL0     C37739   9.955   9.155   0.098 -0.1767 -0.4372 -0.0801
 1021MOL0     C37740  10.028   9.039   0.028 -0.3024 -0.0336  0.0567
 1021MOL0     C37741   9.952   8.906   0.068  0.9306 -0.4268 -0.4950
 1021MOL0     C37742   9.807   8.911   0.013 -0.3014  1.3821  0.6846
 1021MOL0     C37743   9.733   8.777   0.037  1.0601  0.7912 -0.2115
 1021MOL0    Cl37744   9.639   8.794   0.182 -0.7397 -0.4564 -0.5118
 1021MOL0     C37745   9.518   9.366   0.147  0.3945 -0.2496  0.8491
 1021MOL0     C37746   9.387   9.407   0.112  0.3900  0.2959 -0.2779
 1021MOL0     O37747   9.265   9.610  -0.174  0.3750 -0.2721  0.5466
 1021MOL0     C37748   8.968   9.638   0.010  0.2315 -0.4360 -0.2171
 1021MOL0     C37749   8.837   9.673  -0.005  0.1927  0.6343 -1.5030
 1021MOL0     N37750   8.130   9.512  -0.253 -0.3035  0.5019 -0.6136
 1021MOL0     N37751   8.104   9.399  -0.195 -0.0253  0.5221  0.3180
 1021MOL0     C37752   7.100   8.925   0.135 -0.9806  0.0068 -0.2399
 1021MOL0     C37753   7.033   8.846   0.230 -0.3837  0.5623  0.2316
 1021MOL0     C37754   6.946   8.584   0.578 -0.0552  0.3241 -0.4682
 1021MOL0     C37755   6.992   8.471   0.646 -0.1672  0.0669  1.0136
 1021MOL0     C37756   6.910   8.399   0.735 -0.4202  0.3528  0.8290
 1021MOL0     C37757   6.778   8.432   0.746 -1.4670 -0.1213 -0.0949
 1021MOL0     O37758   6.708   8.360   0.839 -0.3814 -0.0935  0.6553
 1021MOL0     C37759   6.606   8.417   0.915 -0.3728 -0.2412  0.7317
 1021MOL0     C37760   6.473   8.392   0.860  0.4161  0.1089  0.6420
 1021MOL0     C37761   6.433   8.240   0.859  0.3085 -0.1936  0.9974
 1021MOL0     C37762   6.317   8.212   0.775  1.8684 -0.0146  0.5694
 1021MOL0     C37763   6.339   8.233   0.634 -0.0709  0.3357  0.0386
 1021MOL0     C37764   6.350   8.244   0.516 -0.2904 -0.7542 -0.6410
 1021MOL0     C37765   6.724   8.545   0.681 -1.0734  0.1067  0.0833
 1021MOL0     C37766   6.811   8.618   0.599  0.1802  0.7246  0.6643
 1021MOL0     C37767   6.739   8.734   0.517  0.9371  0.3849 -0.2127
 1021MOL0     H37768   7.237   8.913   0.486  0.1010 -2.4470 -0.8509
 1021MOL0     H37769   7.360   9.057   0.303  0.6386  0.0914 -1.9222
 1021MOL0     H37770   7.468   8.998   0.081 -0.8976 -0.5160  0.1228
 1021MOL0     H37771   7.413   9.015  -0.085  1.8383  0.7698 -0.0782
 1021MOL0     H37772   7.453   9.245   0.119  0.5183 -1.0925 -0.4436
 1021MOL0     H37773   7.399   9.274  -0.044  2.5963  4.0293  2.8463
 1021MOL0     H37774   7.624   9.317  -0.040  2.3589 -0.8777 -1.4409
 1021MOL0     H37775   7.610   9.156  -0.118  2.0267  1.2610 -0.0914
 1021MOL0     H37776   7.677   9.185   0.191  2.5630 -0.1549  0.6492
 1021MOL0     H37777   7.678   9.050   0.087  2.1726  0.9479 -0.7794
 1021MOL0     H37778   7.890   9.105   0.152 -0.6487  0.4206  0.7436
 1021MOL0     H37779   7.881   9.136  -0.025 -0.2845  3.5990 -2.0921
 1021MOL0     H37780   7.873   9.378   0.015 -2.6770 -1.4518 -0.3059
 1021MOL0     H37781   7.838   9.355   0.190 -0.5202 -0.2310  0.0478
 1021MOL0     H37782   8.052   9.260   0.233 -2.4213  0.5031  0.4860
 1021MOL0     H37783   8.060   9.428   0.177 -0.2888 -0.4612  1.1493
 1021MOL0     H37784   8.236   9.296   0.083  0.6233 -0.2172 -0.9440
 1021MOL0     H37785   8.123   9.202  -0.008  2.1060 -0.3954  1.7295
 1021MOL0     H37786   8.206   9.584   0.064 -1.3755 -1.0427  0.9188
 1021MOL0     H37787   8.214   9.772  -0.281 -1.8677 -1.8189  0.7296
 1021MOL0     H37788   8.207   9.808  -0.107 -0.9427  1.5540 -1.5764
 1021MOL0     H37789   8.422   9.676  -0.088 -0.9521 -1.9211  0.2692
 1021MOL0     H37790   8.424   9.659  -0.264 -0.4729 -1.3216  0.7275
 1021MOL0     H37791   8.457   9.915  -0.103 -0.9833 -0.5276 -0.2016
 1021MOL0     H37792   8.413   9.926  -0.275 -2.3890 -0.6792  1.1730
 1021MOL0     H37793   8.660   9.921  -0.256 -0.0227 -0.3822 -1.5935
 1021MOL0     H37794   8.617   9.770  -0.309  1.1793  0.6980 -0.7069
 1021MOL0     H37795   8.848   9.815  -0.311  1.3434  0.2217 -0.3447
 1021MOL0     H37796   9.088   9.722  -0.287  0.0564 -3.4107 -0.9601
 1021MOL0     H37797   9.448   9.736   0.076  1.5327  0.8578 -1.0199
 1021MOL0     H37798   9.679   9.665   0.153  0.6571 -0.7620 -0.3545
 1021MOL0     H37799   9.854   9.505   0.060 -0.3597 -2.4630 -0.4814
 1021MOL0     H37800   9.855   9.573   0.222 -3.8192  1.6350 -1.4110
 1021MOL0     H37801  10.065   9.469   0.191 -2.1048  2.5979  2.1929
 1021MOL0     H37802   9.978   9.351   0.289 -0.1433  1.8336  1.5344
 1021MOL0     H37803   9.983   9.320  -0.025 -0.8608 -2.0033  0.5180
 1021MOL0     H37804  10.123   9.288   0.065 -0.3957 -0.6069 -0.4651
 1021MOL0     H37805   9.847   9.157   0.082  0.0125  1.5013 -1.4987
 1021MOL0     H37806   9.961   9.130   0.204  0.9206 -2.0856 -0.5010
 1021MOL0     H37807  10.130   9.038   0.068 -0.1702  0.1271 -0.2732
 1021MOL0     H37808  10.030   9.058  -0.079  1.3706  0.8610  0.2051
 1021MOL0     H37809   9.998   8.818   0.022 -1.7658 -1.2143 -1.9238
 1021MOL0     H37810   9.952   8.894   0.177  0.5189  2.5426 -0.0888
 1021MOL0     H37811   9.823   8.919  -0.095 -2.2946  1.7636  0.3796
 1021MOL0     H37812   9.734   8.987   0.042 -0.8596  0.8032  0.8363
 1021MOL0     H37813   9.668   8.736  -0.041 -0.8468  1.1783  1.0977
 1021MOL0     H37814   9.803   8.693   0.043 -1.4015 -1.5261 -1.2517
 1021MOL0     H37815   9.532   9.259   0.150  2.2053 -0.0819 -0.1839
 1021MOL0     H37816   9.310   9.330   0.102 -1.6675  2.1896  0.0825
 1021MOL0     H37817   9.004   9.611   0.109 -2.7563 -0.9154  0.8391
 1021MOL0     H37818   8.777   9.663   0.085 -0.4143 -0.4850 -2.0086
 1021MOL0     H37819   7.052   8.923   0.037 -0.3513 -1.4660 -0.5516
 1021MOL0     H37820   6.950   8.786   0.194  1.1910 -1.2736 -0.5465
 1021MOL0     H37821   7.090   8.433   0.619 -0.6768  0.0873 -1.0252
 1021MOL0     H37822   6.953   8.313   0.785 -0.1211 -1.6387 -2.5016
 1021MOL0     H37823   6.617   8.525   0.925 -2.6205  0.1738 -0.5541
 1021MOL0     H37824   6.632   8.377   1.014  1.4367 -0.7001  0.0992
 1021MOL0     H37825   6.467   8.425   0.756  0.9173  0.8648  0.8445
 1021MOL0     H37826   6.402   8.451   0.920 -0.7229 -0.1583 -0.4229
 1021MOL0     H37827   6.411   8.204   0.960 -2.8714  0.1515  0.5423
 1021MOL0     H37828   6.517   8.182   0.822 -0.4766 -2.0324  1.9442
 1021MOL0     H37829   6.295   8.106   0.794 -0.4417 -0.1884 -2.3709
 1021MOL0     H37830   6.232   8.269   0.814  1.4028 -1.4332  1.7789
 1021MOL0     H37831   6.369   8.255   0.411 -0.3666  0.7476 -0.5182
 1021MOL0     H37832   6.620   8.568   0.701 -1.1961 -0.7223  0.4466
 1021MOL0     H37833   6.637   8.748   0.554  1.1168  3.3539 -0.5725
 1021MOL0     H37834   6.790   8.830   0.526  1.3858  0.3413 -1.9295
 1021MOL0     H37835   6.725   8.701   0.414 -0.6387 -2.6024  0.8383
 1022MOL0     O37836  10.923   1.495   6.890 -0.0882  0.0145  0.4096
 1022MOL0     C37837  10.925   1.549   6.999 -0.7971  0.5462 -0.6980
 1022MOL0     O37838  11.042   1.586   7.062 -0.3030 -0.0030 -0.1186
 1022MOL0     C37839  11.173   1.567   7.017  0.0569 -0.2673 -0.5174
 1022MOL0     C37840  11.221   1.469   6.924 -0.6920  0.1198 -0.6704
 1022MOL0     C37841  11.360   1.452   6.900  0.8750 -0.9509  0.5306
 1022MOL0     C37842  11.447   1.557   6.948 -0.5275  0.2021 -0.2275
 1022MOL0     O37843  11.578   1.549   6.923 -0.4884  0.1370  1.0081
 1022MOL0     C37844  11.653   1.666   6.887 -0.4611 -0.0838  0.2459
 1022MOL0     C37845  11.784   1.627   6.807 -0.0234 -0.1143  0.2238
 1022MOL0     C37846  11.857   1.753   6.773  0.4922  0.1348  0.6529
 1022MOL0     C37847  11.962   1.730   6.666 -0.2430 -0.9645 -1.3853
 1022MOL0     C37848  12.112   1.683   6.707  1.1540  0.0184  0.3313
 1022MOL0     C37849  12.137   1.698   6.865 -0.6935 -0.8724 -0.2068
 1022MOL0     C37850  12.247   1.615   6.925  0.5333 -0.0048 -0.3580
 1022MOL0     C37851  12.382   1.646   6.865 -0.4450 -0.6549 -0.6080
 1022MOL0     N37852  12.485   1.576   6.942  0.3774 -0.1468  0.3875
 1022MOL0     C37853  12.612   1.633   6.963 -0.0281 -0.2301  1.0128
 1022MOL0     C37854  12.687   1.537   7.010 -0.1290  0.0205  0.8908
 1022MOL0     C37855  12.821   1.552   7.066  0.1188  0.3069  0.6917
 1022MOL0     C37856  12.925   1.584   6.953 -0.6318  0.1881 -0.8481
 1022MOL0     C37857  13.064   1.574   7.016 -0.0623  0.3016 -0.8267
 1022MOL0     C37858  13.169   1.593   6.913 -1.0233  0.3763  0.1938
 1022MOL0     O37859  13.285   1.519   6.962 -0.4748 -0.3892 -0.0540
 1022MOL0     C37860  13.396   1.569   6.900  0.5090 -0.2522  0.1116
 1022MOL0     C37861  13.441   1.697   6.934  0.1024  0.0298 -0.1279
 1022MOL0     C37862  13.555   1.752   6.884  0.7839 -0.3638  0.5203
 1022MOL0     C37863  13.640   1.670   6.804  0.1513 -0.1627 -0.1641
 1022MOL0     C37864  13.767   1.738   6.757 -0.4831  0.0720 -0.5087
 1022MOL0     O37865  13.823   1.828   6.835  0.2270  0.4491 -0.5123
 1022MOL0     C37866  13.923   1.910   6.782  0.1299 -0.0271  0.4737
 1022MOL0     C37867  14.051   1.873   6.748  0.8193  0.5541  1.2184
 1022MOL0     C37868  14.149   1.965   6.717 -0.0242  0.3215  0.5083
 1022MOL0     C37869  14.122   2.102   6.723  0.6077 -0.3014 -1.0036
 1022MOL0     O37870  14.217   2.200   6.695 -0.3644 -0.6334  0.3008
 1022MOL0     C37871  14.355   2.172   6.718  0.2699 -0.2036  0.1966
 1022MOL0     C37872  14.423   2.123   6.588  0.6039 -0.5894  0.7042
 1022MOL0     C37873  14.473   2.237   6.491 -0.3762  0.0467  0.1186
 1022MOL0     C37874  14.551   2.178   6.370 -0.3754  0.4181  0.1885
 1022MOL0     C37875  14.617   2.295   6.292 -0.5187  0.6768 -0.5201
 1022MOL0     C37876  14.703   2.246   6.174 -0.4666  0.8592 -0.1674
 1022MOL0     C37877  14.842   2.198   6.218  0.4795  0.1196 -0.3066
 1022MOL0     C37878  14.953   2.200   6.107  0.0907 -0.5228 -0.4728
 1022MOL0    Cl37879  14.999   2.037   6.073 -0.2890  0.0962  0.0784
 1022MOL0     C37880  13.997   2.142   6.759  0.3050 -0.2329  0.9242
 1022MOL0     C37881  13.896   2.050   6.782  0.1343  0.7030  0.5525
 1022MOL0     O37882  13.819   1.698   6.653 -0.1992 -0.5250  0.3358
 1022MOL0     C37883  13.607   1.540   6.768 -0.4052 -0.3264 -0.1302
 1022MOL0     C37884  13.475   1.492   6.812  0.2758 -0.5321  0.7024
 1022MOL0     N37885  12.620   1.417   7.016 -0.0299  0.1292 -0.6450
 1022MOL0     N37886  12.500   1.441   6.973  1.1841  0.4625  0.2749
 1022MOL0     C37887  11.401   1.650   7.039  0.3029 -0.0962  0.5927
 1022MOL0     C37888  11.270   1.650   7.070 -0.4643  0.8055 -0.2081
 1022MOL0     C37889  10.798   1.592   7.068 -1.6510  0.1230 -0.1161
 1022MOL0     C37890  10.803   1.616   7.207  0.0459  0.1613 -0.9006
 1022MOL0     C37891  10.673   1.617   7.266 -0.1455  0.4451 -0.4877
 1022MOL0     C37892  10.555   1.602   7.204  1.0224 -0.3778  0.1442
 1022MOL0     O37893  10.437   1.590   7.271 -0.5882 -0.1107 -0.6400
 1022MOL0     C37894  10.354   1.478   7.227  0.3687  0.7658 -0.3682
 1022MOL0     C37895  10.215   1.528   7.192  0.1298 -0.5706  0.8715
 1022MOL0     C37896  10.122   1.556   7.314 -0.3751  0.1994  0.0198
 1022MOL0     C37897  10.114   1.441   7.418  0.3935  0.1626 -0.1559
 1022MOL0     C37898  10.056   1.316   7.352  0.5749 -0.7440 -0.4797
 1022MOL0     C37899  10.021   1.222   7.286 -0.8689 -0.0450  0.4957
 1022MOL0     C37900  10.560   1.594   7.063  0.6882  0.1313  0.2275
 1022MOL0     C37901  10.677   1.599   6.995 -1.0473  0.6659 -0.4571
 1022MOL0     C37902  10.665   1.614   6.849 -0.1644  0.6748  0.1517
 1022MOL0     H37903  11.156   1.403   6.867  0.5349 -0.2356 -1.7143
 1022MOL0     H37904  11.388   1.377   6.826 -1.6616 -0.7191 -0.7860
 1022MOL0     H37905  11.605   1.744   6.827  1.2937  0.7281 -0.1642
 1022MOL0     H37906  11.693   1.720   6.973 -0.2119  3.3730 -1.8672
 1022MOL0     H37907  11.759   1.570   6.717 -1.4470 -0.4423  0.7842
 1022MOL0     H37908  11.843   1.560   6.872 -0.1569  1.5440  2.1689
 1022MOL0     H37909  11.898   1.797   6.865  4.0941  2.5591 -1.8664
 1022MOL0     H37910  11.787   1.829   6.738  0.5548  0.1686  0.6006
 1022MOL0     H37911  11.922   1.650   6.604  2.2929 -2.3364 -1.3935
 1022MOL0     H37912  11.975   1.820   6.604  1.8932 -0.1915  0.0662
 1022MOL0     H37913  12.127   1.576   6.688 -1.3718 -0.1918 -0.9253
 1022MOL0     H37914  12.190   1.740   6.655  0.2846  0.2988 -0.7149
 1022MOL0     H37915  12.153   1.803   6.893 -0.5945 -0.6565 -1.0574
 1022MOL0     H37916  12.053   1.658   6.923  0.4822  0.2433  2.4255
 1022MOL0     H37917  12.210   1.512   6.913  1.1384 -0.3414  0.5030
 1022MOL0     H37918  12.247   1.634   7.033 -2.7121 -1.3627  0.0164
 1022MOL0     H37919  12.392   1.615   6.761  0.0852 -1.2640 -0.3792
 1022MOL0     H37920  12.398   1.754   6.866 -0.2203 -0.6792  0.8015
 1022MOL0     H37921  12.642   1.737   6.959 -0.5283 -0.1223 -0.6933
 1022MOL0     H37922  12.811   1.643   7.127  0.4960  2.8972 -2.7570
 1022MOL0     H37923  12.854   1.461   7.117 -1.0694 -0.5388 -0.0142
 1022MOL0     H37924  12.917   1.512   6.872  1.5579 -3.7784  2.1085
 1022MOL0     H37925  12.903   1.684   6.915 -2.4659 -0.6415 -2.0629
 1022MOL0     H37926  13.072   1.479   7.069 -1.5457 -0.1626 -1.3995
 1022MOL0     H37927  13.085   1.650   7.092  0.3839  0.1848 -0.8315
 1022MOL0     H37928  13.180   1.700   6.897 -0.9944  1.1335  4.2020
 1022MOL0     H37929  13.126   1.557   6.819 -0.1598  1.4542 -0.6237
 1022MOL0     H37930  13.378   1.758   6.998 -1.2645  0.5921 -1.9219
 1022MOL0     H37931  13.594   1.852   6.898  0.6966  0.3233 -3.2700
 1022MOL0     H37932  14.072   1.766   6.745  3.3021  0.9761  1.4747
 1022MOL0     H37933  14.240   1.927   6.671 -0.0520 -2.0836  2.2907
 1022MOL0     H37934  14.405   2.263   6.754  0.8652 -0.2717 -0.4331
 1022MOL0     H37935  14.376   2.107   6.803  2.3513  3.0553  2.4177
 1022MOL0     H37936  14.500   2.049   6.612  2.1143  1.2971  1.9746
 1022MOL0     H37937  14.360   2.061   6.523  4.0636 -2.3594 -1.2181
 1022MOL0     H37938  14.393   2.294   6.443  0.3697  0.2434 -0.9500
 1022MOL0     H37939  14.547   2.299   6.542  2.5916 -0.6687 -2.9193
 1022MOL0     H37940  14.487   2.119   6.304 -0.4524  1.6500 -0.8797
 1022MOL0     H37941  14.626   2.116   6.420 -0.1571  0.1829 -0.4170
 1022MOL0     H37942  14.676   2.354   6.363  0.9304 -0.8602 -0.3608
 1022MOL0     H37943  14.537   2.353   6.245 -1.2470 -1.2968 -1.8274
 1022MOL0     H37944  14.658   2.169   6.110 -1.4281  0.1301  1.3317
 1022MOL0     H37945  14.725   2.336   6.115 -1.2048  0.8294 -0.4925
 1022MOL0     H37946  14.819   2.097   6.255 -0.3943 -0.7046 -2.8903
 1022MOL0     H37947  14.871   2.248   6.311  1.2584 -0.6278 -0.1315
 1022MOL0     H37948  14.928   2.265   6.023  0.6837 -0.4323 -0.5857
 1022MOL0     H37949  15.044   2.245   6.148 -1.2155  1.2294  0.6039
 1022MOL0     H37950  13.984   2.250   6.771  0.6353  0.1035 -1.2977
 1022MOL0     H37951  13.799   2.095   6.803  0.4138  2.0433 -0.8082
 1022MOL0     H37952  13.680   1.481   6.714  2.0667  2.1193  0.2978
 1022MOL0     H37953  13.430   1.395   6.796  3.0374 -1.9049  0.5600
 1022MOL0     H37954  11.454   1.738   7.073 -0.1622  0.4053  0.0367
 1022MOL0     H37955  11.236   1.725   7.140  0.9736  0.2334  1.1583
 1022MOL0     H37956  10.894   1.615   7.266 -0.3075 -2.3994 -0.2421
 1022MOL0     H37957  10.657   1.619   7.374 -2.0742  1.4670 -0.7494
 1022MOL0     H37958  10.344   1.405   7.307 -0.0666  2.0215  0.7731
 1022MOL0     H37959  10.394   1.424   7.141 -0.3092 -1.8054  0.8643
 1022MOL0     H37960  10.168   1.451   7.130 -0.9873  1.8996 -1.5474
 1022MOL0     H37961  10.231   1.617   7.132 -1.9179 -0.5028  0.3474
 1022MOL0     H37962  10.019   1.574   7.280 -0.6710  0.5817  1.0756
 1022MOL0     H37963  10.163   1.646   7.359  0.6680 -0.2488 -0.0121
 1022MOL0     H37964  10.213   1.432   7.463  1.2358  1.8642 -1.5681
 1022MOL0     H37965  10.043   1.472   7.496  3.0245  2.5958  1.4712
 1022MOL0     H37966   9.990   1.136   7.231 -0.1070 -0.2531  0.3778
 1022MOL0     H37967  10.477   1.579   6.995  3.2883 -2.0601 -2.7819
 1022MOL0     H37968  10.661   1.523   6.788  0.0919  0.3423  0.6137
 1022MOL0     H37969  10.577   1.673   6.824 -0.1306  1.0420  0.8643
 1022MOL0     H37970  10.756   1.658   6.808  1.5570  0.1661  3.1264
 1023MOL0     O37971   3.308   2.410   2.685  0.1085  0.0386 -0.0232
 1023MOL0     C37972   3.263   2.388   2.799 -0.8392  0.2907 -0.1953
 1023MOL0     O37973   3.320   2.434   2.913  0.5134  0.3687 -0.3319
 1023MOL0     C37974   3.459   2.461   2.908 -0.0214 -0.0460  0.6471
 1023MOL0     C37975   3.496   2.584   2.961  0.5710 -0.1190 -0.5608
 1023MOL0     C37976   3.631   2.622   2.970 -0.3770  0.3213  0.0789
 1023MOL0     C37977   3.730   2.532   2.923 -0.7215  1.2046  0.6953
 1023MOL0     O37978   3.863   2.564   2.943  0.3409  0.0599 -0.4987
 1023MOL0     C37979   3.916   2.645   2.831  0.1321  0.1591  0.6431
 1023MOL0     C37980   3.923   2.793   2.874 -0.7800  0.7877 -0.4670
 1023MOL0     C37981   3.999   2.887   2.773  0.6158 -0.3336  1.2980
 1023MOL0     C37982   4.147   2.883   2.783 -0.6918 -0.9216 -0.6064
 1023MOL0     C37983   4.216   2.965   2.669 -0.5553 -0.9122  1.1092
 1023MOL0     C37984   4.232   2.906   2.527  0.1820  0.0285 -0.3881
 1023MOL0     C37985   4.326   2.790   2.515 -0.4383  0.1486  0.4100
 1023MOL0     C37986   4.375   2.763   2.373  0.0223 -0.9372 -1.3855
 1023MOL0     N37987   4.513   2.711   2.366  0.3959  0.2668 -0.9375
 1023MOL0     C37988   4.576   2.651   2.264  0.4884  0.1435  0.6469
 1023MOL0     C37989   4.690   2.591   2.305  0.6945 -1.0111  0.0398
 1023MOL0     C37990   4.787   2.523   2.220  0.4295  0.0608  0.4688
 1023MOL0     C37991   4.737   2.382   2.175 -0.1133 -0.8584  0.0106
 1023MOL0     C37992   4.707   2.295   2.294  0.6702  0.2372 -0.7406
 1023MOL0     C37993   4.832   2.240   2.372  0.0090 -0.3238 -0.2989
 1023MOL0     O37994   4.923   2.170   2.284  0.3426 -0.4740 -0.0430
 1023MOL0     C37995   5.044   2.149   2.336 -0.8547 -0.0309  0.2369
 1023MOL0     C37996   5.112   2.037   2.291  0.2751  0.6622 -0.8259
 1023MOL0     C37997   5.237   2.005   2.329 -0.0585 -0.3632 -0.3308
 1023MOL0     C37998   5.316   2.093   2.397 -0.8717  0.3394  0.2330
 1023MOL0     C37999   5.464   2.080   2.413  0.2553  0.2956 -0.8284
 1023MOL0     O38000   5.514   1.984   2.330  0.0560  0.6621  0.0871
 1023MOL0     C38001   5.648   1.952   2.329  0.1993 -0.1635 -0.6388
 1023MOL0     C38002   5.701   1.817   2.333  0.6618 -0.5599 -0.7399
 1023MOL0     C38003   5.841   1.802   2.336 -0.2194 -0.3688 -0.4313
 1023MOL0     C38004   5.927   1.909   2.332  0.0740 -1.5472 -0.5193
 1023MOL0     O38005   6.064   1.884   2.333  0.2120  0.6914  0.3976
 1023MOL0     C38006   6.121   1.856   2.462 -0.4570  0.6494 -0.3677
 1023MOL0     C38007   6.134   1.701   2.477  0.5654 -1.1687  0.7623
 1023MOL0     C38008   6.216   1.645   2.586  0.3231 -0.2456  0.6138
 1023MOL0     C38009   6.167   1.690   2.727  0.4470  0.2072  0.1759
 1023MOL0     C38010   6.265   1.646   2.843  0.3626 -0.3736 -0.3216
 1023MOL0     C38011   6.244   1.509   2.892  0.4477 -0.6134  0.1170
 1023MOL0     C38012   6.374   1.426   2.915  0.7462  0.0270  0.6711
 1023MOL0     C38013   6.337   1.285   2.940  0.4740  0.4074  0.3719
 1023MOL0    Cl38014   6.491   1.180   2.925  0.8281 -0.1076 -0.1109
 1023MOL0     C38015   5.876   2.039   2.332 -0.0825  0.4989  0.0761
 1023MOL0     C38016   5.742   2.057   2.331  0.0107  0.4628 -1.2250
 1023MOL0     O38017   5.529   2.155   2.490  0.3095  0.1579 -0.8792
 1023MOL0     C38018   5.256   2.210   2.437 -0.8541 -0.7772 -0.3352
 1023MOL0     C38019   5.119   2.234   2.416 -0.6868 -0.2392  0.1164
 1023MOL0     N38020   4.696   2.623   2.441  0.6840  0.4541  0.1120
 1023MOL0     N38021   4.590   2.686   2.472 -0.2777  0.2845 -0.4725
 1023MOL0     C38022   3.695   2.405   2.874 -0.5500 -0.5290 -0.2196
 1023MOL0     C38023   3.560   2.375   2.862 -0.4975  0.2439 -0.0660
 1023MOL0     C38024   3.161   2.286   2.805 -0.0625 -0.9496 -0.1249
 1023MOL0     C38025   3.102   2.241   2.684  0.5511 -1.0974 -0.4830
 1023MOL0     C38026   3.014   2.139   2.687  0.6655  0.1377  0.0386
 1023MOL0     C38027   2.966   2.080   2.807 -0.1115 -1.1808 -0.0065
 1023MOL0     O38028   2.882   1.970   2.830 -0.3205  0.2021 -0.0375
 1023MOL0     C38029   2.802   1.919   2.726  1.3749 -0.4266 -0.2609
 1023MOL0     C38030   2.744   1.784   2.767 -0.3953 -0.5169  0.6149
 1023MOL0     C38031   2.662   1.719   2.660  1.1129  0.1147  0.5755
 1023MOL0     C38032   2.664   1.557   2.657  1.0938  1.1118  0.5348
 1023MOL0     C38033   2.654   1.510   2.798 -0.8253 -0.6944 -0.1243
 1023MOL0     C38034   2.658   1.471   2.915 -0.0779 -0.0597  0.9788
 1023MOL0     C38035   3.037   2.120   2.918  0.7133  0.9422 -0.3832
 1023MOL0     C38036   3.125   2.223   2.929 -0.5029 -0.1454  0.3754
 1023MOL0     C38037   3.161   2.277   3.066  0.1352  0.1110  0.6669
 1023MOL0     H38038   3.410   2.645   2.985 -1.0655 -1.5100 -2.5025
 1023MOL0     H38039   3.660   2.723   2.999 -4.8061  2.3639 -1.6363
 1023MOL0     H38040   4.018   2.605   2.821  0.4376  1.1217 -0.2260
 1023MOL0     H38041   3.870   2.626   2.734  1.4519  1.3171 -0.2485
 1023MOL0     H38042   3.980   2.805   2.966 -1.7047 -1.1777  0.4258
 1023MOL0     H38043   3.825   2.840   2.880 -0.8878  1.3452 -4.2004
 1023MOL0     H38044   3.964   2.988   2.796  3.8908  1.2530  0.0449
 1023MOL0     H38045   3.966   2.854   2.674  1.8703 -0.1127  0.7817
 1023MOL0     H38046   4.172   2.933   2.877  2.1020  2.8299 -3.0608
 1023MOL0     H38047   4.179   2.778   2.786 -0.4877 -0.9035 -1.7601
 1023MOL0     H38048   4.147   3.047   2.648  0.1948  0.0597  2.3078
 1023MOL0     H38049   4.310   3.003   2.711 -0.4342  1.4475 -0.9842
 1023MOL0     H38050   4.130   2.878   2.499 -0.9906  1.8734  1.7057
 1023MOL0     H38051   4.267   2.990   2.467  0.8981  0.8038  1.0602
 1023MOL0     H38052   4.280   2.694   2.539  1.1867 -0.2393  2.1973
 1023MOL0     H38053   4.407   2.809   2.587  1.6781  3.9677 -2.6068
 1023MOL0     H38054   4.301   2.699   2.324 -2.3722 -1.1998  2.1930
 1023MOL0     H38055   4.395   2.859   2.325  0.6062  0.5818  1.6444
 1023MOL0     H38056   4.553   2.657   2.158  0.5025  2.1152  0.7193
 1023MOL0     H38057   4.806   2.574   2.125 -0.9884 -0.9626 -0.3846
 1023MOL0     H38058   4.880   2.513   2.277  0.6572  2.3486  0.5933
 1023MOL0     H38059   4.645   2.389   2.115 -0.0125  2.0481  0.0611
 1023MOL0     H38060   4.822   2.336   2.124  0.1635  1.6569 -1.9606
 1023MOL0     H38061   4.646   2.207   2.273  0.3984  0.3884 -0.6030
 1023MOL0     H38062   4.634   2.348   2.358  0.0766 -0.0739 -1.1547
 1023MOL0     H38063   4.794   2.167   2.443 -2.1361  1.2962  0.3233
 1023MOL0     H38064   4.868   2.327   2.428  0.9990 -0.1846 -1.1091
 1023MOL0     H38065   5.046   1.982   2.225 -2.5280  1.7894  0.9034
 1023MOL0     H38066   5.291   1.921   2.286  1.9009  0.2044  0.8806
 1023MOL0     H38067   5.640   1.731   2.310  0.9819 -0.3156 -2.6482
 1023MOL0     H38068   5.875   1.699   2.323  0.0899 -0.3064 -0.1280
 1023MOL0     H38069   6.223   1.894   2.473  0.0567 -1.1040  1.7788
 1023MOL0     H38070   6.061   1.897   2.544  4.0807 -0.0832  3.7762
 1023MOL0     H38071   6.035   1.653   2.478  0.8883 -2.0285 -1.6594
 1023MOL0     H38072   6.164   1.663   2.379 -0.9327  1.5025 -0.8633
 1023MOL0     H38073   6.212   1.537   2.574 -0.8141 -0.0429 -1.3984
 1023MOL0     H38074   6.323   1.666   2.574  0.6292 -1.9789  0.1103
 1023MOL0     H38075   6.064   1.659   2.749  0.8634 -0.7193  0.8805
 1023MOL0     H38076   6.162   1.798   2.717  0.8139  0.1042 -1.4336
 1023MOL0     H38077   6.245   1.713   2.927  3.0321  0.2321 -0.0673
 1023MOL0     H38078   6.371   1.664   2.824  0.5472 -0.9028  0.1799
 1023MOL0     H38079   6.184   1.516   2.983 -0.3176  1.0387 -0.4687
 1023MOL0     H38080   6.184   1.465   2.811  0.3086  3.4521 -2.2113
 1023MOL0     H38081   6.443   1.458   2.994  2.3562 -1.3801 -0.1043
 1023MOL0     H38082   6.430   1.425   2.821 -1.5166  0.3877 -0.7538
 1023MOL0     H38083   6.309   1.277   3.045  1.3418  0.2323  0.6036
 1023MOL0     H38084   6.255   1.251   2.876  1.3554  0.5114 -0.8531
 1023MOL0     H38085   5.955   2.114   2.337  1.9095 -1.5168  0.4666
 1023MOL0     H38086   5.696   2.155   2.326 -3.8443 -1.1049  0.1159
 1023MOL0     H38087   5.325   2.278   2.486  0.7706 -1.9996 -0.8426
 1023MOL0     H38088   5.087   2.329   2.457 -1.2769 -0.8933  1.2144
 1023MOL0     H38089   3.774   2.333   2.856  1.8377  1.8388  0.0843
 1023MOL0     H38090   3.535   2.275   2.826  1.0793  0.2259 -1.2059
 1023MOL0     H38091   3.129   2.282   2.587  0.0650 -1.6705 -0.8607
 1023MOL0     H38092   2.968   2.101   2.596 -2.8691 -0.1761  1.7958
 1023MOL0     H38093   2.865   1.898   2.640  1.5639  0.8376 -0.4482
 1023MOL0     H38094   2.725   1.990   2.694 -0.9776 -3.5544 -2.1591
 1023MOL0     H38095   2.680   1.809   2.853 -0.4873 -2.6258  1.2191
 1023MOL0     H38096   2.815   1.707   2.800 -1.3145 -1.6528  0.0289
 1023MOL0     H38097   2.677   1.764   2.562 -1.7236  0.9561  0.4171
 1023MOL0     H38098   2.563   1.756   2.690  2.5318  4.4026  0.6002
 1023MOL0     H38099   2.579   1.513   2.605  0.2933  2.3974  0.6966
 1023MOL0     H38100   2.760   1.522   2.619  0.0741 -0.7831 -0.4302
 1023MOL0     H38101   2.662   1.438   3.017  1.8121  0.1657  1.0058
 1023MOL0     H38102   3.010   2.062   3.006 -1.8852 -0.4480 -1.9724
 1023MOL0     H38103   3.102   2.224   3.142 -0.3531 -1.3605 -0.6910
 1023MOL0     H38104   3.267   2.263   3.088  0.3610  0.1155 -0.3739
 1023MOL0     H38105   3.131   2.382   3.072  2.2282  1.0814 -2.9769
 1024MOL0     O38106   7.935   5.008  10.659  0.2928 -0.5953  0.1406
 1024MOL0     C38107   7.821   5.055  10.658  0.5201  0.8038  0.4732
 1024MOL0     O38108   7.784   5.157  10.732 -0.4861  0.4436  0.1762
 1024MOL0     C38109   7.870   5.223  10.817 -0.0339 -0.5003  0.3745
 1024MOL0     C38110   7.942   5.324  10.753  0.3280  0.1365 -0.3869
 1024MOL0     C38111   8.038   5.384  10.824  0.2560 -0.1462 -0.5783
 1024MOL0     C38112   8.071   5.347  10.954 -0.6502  0.5505  0.2416
 1024MOL0     O38113   8.169   5.412  11.023 -0.0895 -0.2230 -0.0525
 1024MOL0     C38114   8.306   5.379  10.970  0.2864  0.3572  0.4991
 1024MOL0     C38115   8.357   5.227  10.972  0.1789  0.1294 -0.3260
 1024MOL0     C38116   8.338   5.164  11.108 -0.1690  0.7181 -0.0207
 1024MOL0     C38117   8.420   5.023  11.142  0.3939 -0.1541 -0.4091
 1024MOL0     C38118   8.403   4.978  11.285 -0.2946  0.3875  0.6818
 1024MOL0     C38119   8.492   4.845  11.312  0.2413 -0.2793 -0.3526
 1024MOL0     C38120   8.426   4.719  11.260 -0.3737  0.5117 -0.4586
 1024MOL0     C38121   8.476   4.591  11.335 -0.8865 -0.4963  0.4673
 1024MOL0     N38122   8.426   4.469  11.278 -0.2241  0.1053 -0.1260
 1024MOL0     C38123   8.471   4.403  11.164 -1.0738 -0.6919  0.0002
 1024MOL0     C38124   8.381   4.302  11.144  0.2951 -0.0845  0.2889
 1024MOL0     C38125   8.393   4.216  11.019  0.2242 -0.2425  0.5732
 1024MOL0     C38126   8.316   4.275  10.906 -0.5671  0.2358  0.8335
 1024MOL0     C38127   8.344   4.188  10.782  0.1798  0.4722  0.4188
 1024MOL0     C38128   8.489   4.190  10.717  0.8827 -0.4463  0.0786
 1024MOL0     O38129   8.485   4.136  10.581 -0.1237 -0.1234 -0.0868
 1024MOL0     C38130   8.408   4.201  10.483  0.7892 -0.3509 -0.0385
 1024MOL0     C38131   8.366   4.335  10.490  0.6112 -0.3430 -0.7315
 1024MOL0     C38132   8.288   4.392  10.387  0.1599 -0.1184  0.4872
 1024MOL0     C38133   8.255   4.318  10.274  0.7636 -0.4868  0.0497
 1024MOL0     C38134   8.152   4.361  10.170  0.0267 -0.7761 -0.1007
 1024MOL0     O38135   8.137   4.277  10.055 -0.1637  0.2439 -0.1467
 1024MOL0     C38136   8.043   4.294   9.958  0.1710 -0.4708 -1.0447
 1024MOL0     C38137   7.997   4.413   9.897  0.7056 -0.4550  0.4110
 1024MOL0     C38138   7.888   4.423   9.818  1.2980  0.0329  0.5774
 1024MOL0     C38139   7.801   4.305   9.798 -0.2727  0.0059  0.3412
 1024MOL0     O38140   7.695   4.313   9.709 -0.0324  0.2007 -0.1784
 1024MOL0     C38141   7.580   4.224   9.720  1.7250 -0.5397 -0.0286
 1024MOL0     C38142   7.472   4.285   9.637 -0.6097 -0.7730 -0.0765
 1024MOL0     C38143   7.405   4.391   9.717  1.0906  0.1487 -0.1291
 1024MOL0     C38144   7.322   4.478   9.641  0.1495 -0.1743 -0.0967
 1024MOL0     C38145   7.180   4.415   9.615 -1.0175 -0.2065 -0.7921
 1024MOL0     C38146   7.091   4.524   9.538 -0.4419  0.1638  0.3327
 1024MOL0     C38147   6.961   4.475   9.478 -0.8916 -0.8170 -0.4006
 1024MOL0     C38148   6.987   4.375   9.363  1.0103 -0.6179 -0.1583
 1024MOL0    Cl38149   7.040   4.460   9.211 -0.1292  0.2685 -0.2099
 1024MOL0     C38150   7.841   4.190   9.869 -0.5426 -0.5777  0.1929
 1024MOL0     C38151   7.951   4.192   9.959 -0.2347 -0.4969 -0.2252
 1024MOL0     O38152   8.110   4.473  10.178 -0.7943  0.2485 -0.1949
 1024MOL0     C38153   8.317   4.199  10.256 -0.2911  0.3255  0.5907
 1024MOL0     C38154   8.393   4.140  10.360 -0.9434  0.8420  1.4937
 1024MOL0     N38155   8.288   4.314  11.244 -0.3761  0.9784  0.3571
 1024MOL0     N38156   8.318   4.399  11.335 -0.6491 -0.3043  0.5603
 1024MOL0     C38157   8.003   5.252  11.013  0.6898  0.8959  0.0037
 1024MOL0     C38158   7.902   5.180  10.946  0.0813 -0.5630  0.8870
 1024MOL0     C38159   7.707   5.004  10.580  0.6400 -0.7373  0.2656
 1024MOL0     C38160   7.621   5.105  10.523  0.1827  0.1632  0.1443
 1024MOL0     C38161   7.508   5.062  10.452  0.9829  0.3712  0.4178
 1024MOL0     C38162   7.488   4.921  10.416  0.2480  0.6803 -0.1110
 1024MOL0     O38163   7.378   4.874  10.341  0.6376 -0.4768  0.4203
 1024MOL0     C38164   7.261   4.946  10.318 -0.3543 -0.2255 -0.4661
 1024MOL0     C38165   7.158   4.864  10.244 -0.3613 -0.1661 -0.1891
 1024MOL0     C38166   7.022   4.938  10.247 -0.2126  0.3648 -0.9148
 1024MOL0     C38167   6.898   4.850  10.200 -0.2938  0.0785  0.1149
 1024MOL0     C38168   6.875   4.743  10.301  0.4422  0.5985 -0.3516
 1024MOL0     C38169   6.870   4.664  10.395  0.6332  0.4339  0.4051
 1024MOL0     C38170   7.568   4.828  10.480  0.3796 -0.0109  0.2616
 1024MOL0     C38171   7.674   4.875  10.562  0.0650 -0.1079 -0.1135
 1024MOL0     C38172   7.767   4.773  10.615 -0.0787 -0.2465 -0.3506
 1024MOL0     H38173   7.909   5.357  10.655  0.1755  2.4701  0.3836
 1024MOL0     H38174   8.094   5.467  10.784  2.8294 -2.2932 -1.7954
 1024MOL0     H38175   8.323   5.422  10.871  3.4209 -2.5377 -0.4280
 1024MOL0     H38176   8.384   5.428  11.029 -0.6791 -0.1019  2.2093
 1024MOL0     H38177   8.464   5.226  10.951  0.4011 -0.4557  0.7224
 1024MOL0     H38178   8.310   5.165  10.895 -0.0965 -0.6433  0.4352
 1024MOL0     H38179   8.232   5.141  11.125 -0.1828 -1.4276 -2.4236
 1024MOL0     H38180   8.353   5.229  11.195 -0.3062 -0.9523  1.2920
 1024MOL0     H38181   8.384   4.944  11.075 -1.1552 -0.3257  0.5640
 1024MOL0     H38182   8.527   5.036  11.123  0.3481 -0.2799 -0.7649
 1024MOL0     H38183   8.438   5.059  11.351  1.7824 -0.0260  0.1461
 1024MOL0     H38184   8.300   4.952  11.312 -0.0647 -0.3898  0.8308
 1024MOL0     H38185   8.584   4.860  11.254 -2.1138 -0.6127 -4.5584
 1024MOL0     H38186   8.513   4.839  11.419 -0.7499 -3.7003 -0.2459
 1024MOL0     H38187   8.458   4.714  11.156 -0.1103  2.6591 -0.5270
 1024MOL0     H38188   8.317   4.722  11.252 -0.4730  3.6585  0.8003
 1024MOL0     H38189   8.585   4.581  11.327 -1.0817 -2.8314  0.1943
 1024MOL0     H38190   8.452   4.582  11.441  1.6154  3.8488  1.6584
 1024MOL0     H38191   8.551   4.427  11.094  0.1480  0.1323  1.6142
 1024MOL0     H38192   8.499   4.221  10.994 -0.3448 -0.3008 -2.1600
 1024MOL0     H38193   8.375   4.110  11.035  3.2015 -0.8592  0.3952
 1024MOL0     H38194   8.209   4.269  10.929 -0.8248 -2.3913 -0.6830
 1024MOL0     H38195   8.339   4.381  10.892 -0.8904 -0.0236 -2.4433
 1024MOL0     H38196   8.274   4.224  10.706 -0.2098 -1.8241 -0.4057
 1024MOL0     H38197   8.316   4.084  10.804 -0.5959  0.6224  0.1681
 1024MOL0     H38198   8.568   4.141  10.775  0.9471  1.1183  1.4178
 1024MOL0     H38199   8.510   4.298  10.718 -0.9989  0.1904 -4.6815
 1024MOL0     H38200   8.390   4.402  10.572  4.4998  0.6653 -2.4734
 1024MOL0     H38201   8.248   4.492  10.397  0.8082  0.1813  0.1436
 1024MOL0     H38202   8.059   4.495   9.932  3.3856 -1.4301 -1.6662
 1024MOL0     H38203   7.839   4.515   9.788 -0.7677  0.2638  4.1244
 1024MOL0     H38204   7.602   4.123   9.685 -5.9971 -2.9006  0.1665
 1024MOL0     H38205   7.552   4.218   9.825  0.6943  0.9811 -0.1809
 1024MOL0     H38206   7.522   4.329   9.550 -1.0424  0.7125  0.4019
 1024MOL0     H38207   7.406   4.210   9.593  1.6505 -1.1538 -3.1303
 1024MOL0     H38208   7.335   4.362   9.795  0.1560  1.3434 -0.4991
 1024MOL0     H38209   7.487   4.441   9.769  1.6140 -1.5428  0.7548
 1024MOL0     H38210   7.359   4.502   9.541 -2.7697 -1.5115 -1.6420
 1024MOL0     H38211   7.312   4.571   9.696  0.2492 -0.4588  0.4112
 1024MOL0     H38212   7.126   4.388   9.706  0.7265 -0.5055  0.1907
 1024MOL0     H38213   7.195   4.323   9.557  2.9794 -0.6512  0.6308
 1024MOL0     H38214   7.080   4.602   9.613  1.2003 -0.5520  1.3567
 1024MOL0     H38215   7.149   4.567   9.455 -1.4173  0.2399 -0.3303
 1024MOL0     H38216   6.905   4.563   9.444  0.7941 -0.3565 -2.1999
 1024MOL0     H38217   6.908   4.420   9.555 -1.5836 -2.3333 -1.8867
 1024MOL0     H38218   7.055   4.293   9.386  0.3900 -1.9275 -2.6209
 1024MOL0     H38219   6.898   4.315   9.343  1.5032 -0.6478 -2.5432
 1024MOL0     H38220   7.771   4.108   9.861 -1.1408 -0.1354  0.7705
 1024MOL0     H38221   7.968   4.110  10.028 -1.3128  1.9681  3.2361
 1024MOL0     H38222   8.289   4.129  10.178  1.5071 -1.7829  1.7316
 1024MOL0     H38223   8.447   4.050  10.331  0.6975  2.4422 -0.8556
 1024MOL0     H38224   8.023   5.221  11.115 -0.2004  3.4206  1.0300
 1024MOL0     H38225   7.849   5.096  10.989  1.0456 -0.8716  1.5049
 1024MOL0     H38226   7.652   5.209  10.533  0.7852  0.1235 -1.0655
 1024MOL0     H38227   7.445   5.133  10.400  1.5790 -0.7466 -1.9830
 1024MOL0     H38228   7.281   5.034  10.257  0.6707  0.2737  0.5456
 1024MOL0     H38229   7.210   4.980  10.408 -1.0994  4.9100 -2.5289
 1024MOL0     H38230   7.144   4.765  10.287  1.3559  0.5797  2.2860
 1024MOL0     H38231   7.184   4.871  10.138 -1.7914  0.3368 -0.5240
 1024MOL0     H38232   7.026   5.032  10.191 -1.1910  2.5618  2.4062
 1024MOL0     H38233   7.007   4.968  10.351  1.6692 -1.1804 -0.1297
 1024MOL0     H38234   6.810   4.915  10.192  0.1721  0.4905 -2.3598
 1024MOL0     H38235   6.919   4.803  10.104  0.6758 -1.6754  1.1426
 1024MOL0     H38236   6.883   4.602  10.482  1.7499  0.4890  0.2994
 1024MOL0     H38237   7.556   4.720  10.469 -2.6943  0.1930  0.6396
 1024MOL0     H38238   7.849   4.745  10.549 -0.1501 -1.6509  0.1171
 1024MOL0     H38239   7.817   4.796  10.710 -3.2708 -0.4290  1.5205
 1024MOL0     H38240   7.715   4.681  10.643 -1.6775  0.6587 -0.1798
  11.42754  11.42754  11.42754
